Title
43188
    1CHL1    C3    1   3.823   6.489   6.546  0.0264  0.0665 -1.1865
    1CHL1    H3    2   3.911   6.555   6.529 -0.6988  1.1087 -1.0062
    1CHL1    O3    3   3.804   6.494   6.687  0.4434 -0.4634  0.4132
    1CHL1   H3'    4   3.709   6.493   6.695  0.1993  0.6739 -1.6355
    1CHL1    C4    5   3.704   6.546   6.469 -0.0418  0.0607 -0.4412
    1CHL1   H4A    6   3.611   6.486   6.480  1.4983 -2.5963 -1.1203
    1CHL1   H4B    7   3.673   6.640   6.519  0.8239 -1.0738  2.4388
    1CHL1    C5    8   3.737   6.564   6.324  0.3770 -0.4125 -0.0365
    1CHL1    C6    9   3.731   6.683   6.258  0.2250  0.5741 -0.4852
    1CHL1    H6   10   3.707   6.771   6.319  1.7279  0.2418  0.6288
    1CHL1    C7   11   3.756   6.710   6.110  0.0333  0.9025 -0.6412
    1CHL1   H7A   12   3.695   6.783   6.052 -1.3992 -2.6427 -4.1012
    1CHL1   H7B   13   3.858   6.752   6.115  0.1982  0.4249  0.2254
    1CHL1    C8   14   3.750   6.570   6.037  0.7949 -0.8347  0.6147
    1CHL1    H8   15   3.641   6.549   6.032  0.0522  2.5337 -0.5619
    1CHL1   C14   16   3.806   6.591   5.894  0.3402  0.3394  0.1141
    1CHL1   H14   17   3.915   6.612   5.908 -0.0908  2.9506  0.1100
    1CHL1   C15   18   3.763   6.699   5.799  0.1779  0.0403 -0.2311
    1CHL1  H15A   19   3.653   6.696   5.788  0.1880  0.0506 -0.3276
    1CHL1  H15B   20   3.787   6.805   5.825  0.3637  0.1586 -0.8805
    1CHL1   C16   21   3.829   6.659   5.660 -0.4559  0.2436 -0.5409
    1CHL1  H16A   22   3.750   6.675   5.583 -0.1926 -0.3585 -0.9349
    1CHL1  H16B   23   3.917   6.725   5.646  0.8000 -0.7578  2.1083
    1CHL1   C17   24   3.857   6.513   5.676 -0.4521  0.2444 -0.7575
    1CHL1   H17   25   3.966   6.498   5.692 -0.4236 -0.0213 -1.2115
    1CHL1   C13   26   3.797   6.462   5.810 -0.5425  0.7391  0.2345
    1CHL1   C18   27   3.654   6.410   5.790  0.3502  0.4394  0.5966
    1CHL1  H18A   28   3.587   6.485   5.744 -1.4222 -1.4419 -0.0184
    1CHL1  H18B   29   3.653   6.324   5.720 -2.0229  0.2718  0.7537
    1CHL1  H18C   30   3.608   6.374   5.885  1.2015 -0.6619  0.6100
    1CHL1   C12   31   3.881   6.359   5.891 -0.8383  0.0153  0.1162
    1CHL1  H12A   32   3.883   6.261   5.840 -0.7794 -0.4197  0.9330
    1CHL1  H12B   33   3.982   6.405   5.882  0.1118 -1.7991  0.9317
    1CHL1   C11   34   3.841   6.335   6.036  0.4030 -0.1529 -0.2302
    1CHL1  H11A   35   3.740   6.291   6.021  0.3288 -0.1766  0.3193
    1CHL1  H11B   36   3.888   6.252   6.093  0.4947  0.7797  1.0862
    1CHL1    C9   37   3.826   6.466   6.115 -0.2756  0.2193 -0.7328
    1CHL1    H9   38   3.931   6.501   6.129 -0.6595  0.5920  1.7180
    1CHL1   C10   39   3.781   6.435   6.259  0.0946  0.3575  0.0537
    1CHL1   C19   40   3.658   6.335   6.256  0.2540  0.8026  0.4256
    1CHL1  H19A   41   3.696   6.236   6.226 -0.1501  0.3738  1.2643
    1CHL1  H19B   42   3.605   6.320   6.353 -1.5511 -1.7403 -0.8233
    1CHL1  H19C   43   3.583   6.376   6.185 -0.0872 -2.1220 -1.0257
    1CHL1    C1   44   3.895   6.363   6.343 -0.1255 -0.2627  0.1317
    1CHL1   H1A   45   3.902   6.258   6.306 -0.7275 -0.5014  0.6888
    1CHL1   H1B   46   3.993   6.411   6.320  0.2564 -0.5446  1.1096
    1CHL1    C2   47   3.854   6.347   6.497 -0.1386 -0.0224  0.4374
    1CHL1   H2A   48   3.940   6.314   6.560 -0.6918 -1.5421  0.4546
    1CHL1   H2B   49   3.769   6.276   6.509 -2.3697  2.5364  0.7465
    1CHL1   C20   50   3.831   6.428   5.551  0.8924  0.1815  0.5024
    1CHL1   H20   51   3.722   6.436   5.531  1.1210 -0.0004 -0.9061
    1CHL1   C21   52   3.890   6.284   5.571  0.4178  0.0883  0.3532
    1CHL1  H21A   53   3.991   6.292   5.618 -0.9715  0.2128  3.5799
    1CHL1  H21B   54   3.910   6.245   5.469 -0.0667  0.0116  0.2865
    1CHL1  H21C   55   3.825   6.216   5.630 -0.3559  1.3765  1.0258
    1CHL1   C22   56   3.901   6.487   5.423  0.0287  0.0727 -0.4338
    1CHL1  H22A   57   3.877   6.595   5.419 -3.2591 -0.5805 -0.3950
    1CHL1  H22B   58   4.012   6.474   5.428  0.1704  1.3439  0.2359
    1CHL1   C23   59   3.840   6.430   5.295 -0.3179 -0.0531 -0.0977
    1CHL1  H23A   60   3.862   6.322   5.285 -0.4428 -0.1600  0.7664
    1CHL1  H23B   61   3.730   6.447   5.288 -0.6196 -1.2628  1.2214
    1CHL1   C24   62   3.909   6.491   5.173 -0.5764 -0.1974  0.6877
    1CHL1  H24A   63   3.892   6.600   5.169  1.9662  0.2429 -2.0896
    1CHL1  H24B   64   4.018   6.473   5.186 -0.3075 -3.4045 -3.6141
    1CHL1   C25   65   3.851   6.426   5.042 -0.8819  0.1052 -0.2060
    1CHL1   H25   66   3.762   6.367   5.072 -1.3246 -1.2183 -3.6989
    1CHL1   C26   67   3.802   6.528   4.933  0.2488  0.0602 -0.4720
    1CHL1  H26A   68   3.729   6.592   4.987 -1.4681 -1.1126 -1.2783
    1CHL1  H26B   69   3.879   6.599   4.898  0.1789  0.5447  0.3298
    1CHL1  H26C   70   3.754   6.471   4.851 -0.3950  1.9086 -1.4344
    1CHL1   C27   71   3.954   6.325   4.989 -0.4380  0.0058 -0.2950
    1CHL1  H27A   72   3.906   6.253   4.920  1.0483 -1.0618 -0.2528
    1CHL1  H27B   73   4.034   6.380   4.934 -0.9935  0.6087 -0.5209
    1CHL1  H27C   74   3.992   6.263   5.073 -1.7952 -1.3852 -0.6778
    2CHL1    C3   75   4.891   0.561   6.191  0.3089  0.2461 -0.1073
    2CHL1    H3   76   4.968   0.640   6.179  0.9561 -0.2465  0.6099
    2CHL1    O3   77   4.919   0.499   6.314  0.1958 -0.3005  0.0812
    2CHL1   H3'   78   4.883   0.561   6.378 -0.1726 -0.8003  0.3689
    2CHL1    C4   79   4.754   0.625   6.197  0.1245  0.4039  0.2020
    2CHL1   H4A   80   4.673   0.555   6.227  0.2536 -0.8503 -2.1270
    2CHL1   H4B   81   4.769   0.705   6.272 -1.1430  1.9288 -1.0857
    2CHL1    C5   82   4.709   0.679   6.060 -0.0320 -0.2038  0.5760
    2CHL1    C6   83   4.666   0.803   6.045 -0.1506  0.3024  0.8554
    2CHL1    H6   84   4.678   0.878   6.124  1.4986  1.8351 -0.7333
    2CHL1    C7   85   4.594   0.861   5.924  0.5842  0.5959 -0.1124
    2CHL1   H7A   86   4.495   0.894   5.963  0.4243  1.5540 -1.2654
    2CHL1   H7B   87   4.639   0.951   5.876  0.5575  0.0670 -1.1393
    2CHL1    C8   88   4.564   0.749   5.823  0.1995  0.0541 -0.3637
    2CHL1    H8   89   4.469   0.698   5.850  1.4030 -3.2167 -1.7255
    2CHL1   C14   90   4.547   0.805   5.687  0.5231  0.0395 -0.4802
    2CHL1   H14   91   4.641   0.852   5.652  0.3675  0.0394 -0.9075
    2CHL1   C15   92   4.453   0.925   5.677  0.5594  0.3086 -0.3826
    2CHL1  H15A   93   4.356   0.911   5.730  1.0292  1.0546  0.7131
    2CHL1  H15B   94   4.499   1.018   5.717  2.4739 -0.0923 -1.5278
    2CHL1   C16   95   4.437   0.938   5.523 -0.3393 -0.4709  0.0289
    2CHL1  H16A   96   4.327   0.939   5.504 -0.4647 -2.2823  0.4536
    2CHL1  H16B   97   4.492   1.025   5.482 -1.2574 -0.1873 -0.6303
    2CHL1   C17   98   4.510   0.813   5.459  0.3441 -0.8951  0.5045
    2CHL1   H17   99   4.615   0.849   5.453 -0.2214  1.2110  2.0694
    2CHL1   C13  100   4.519   0.706   5.571 -0.0645 -0.1436  0.3416
    2CHL1   C18  101   4.378   0.650   5.591 -0.1293 -0.0882  0.7608
    2CHL1  H18A  102   4.368   0.606   5.692 -1.3491 -1.9315 -0.0955
    2CHL1  H18B  103   4.294   0.718   5.567 -0.5985 -1.1262 -0.7726
    2CHL1  H18C  104   4.366   0.561   5.524  1.2152  0.3558 -0.1142
    2CHL1   C12  105   4.626   0.600   5.558 -0.3467 -0.2758  0.4916
    2CHL1  H12A  106   4.610   0.521   5.481  1.5771  0.5439 -0.8192
    2CHL1  H12B  107   4.714   0.651   5.515 -0.6565  0.4860  0.7475
    2CHL1   C11  108   4.648   0.539   5.697  0.4862  0.1995  0.5621
    2CHL1  H11A  109   4.563   0.467   5.709 -0.4096  0.8662 -1.2780
    2CHL1  H11B  110   4.738   0.474   5.691 -0.6540 -1.4701  0.7479
    2CHL1    C9  111   4.671   0.638   5.816 -0.6687  0.1931 -0.5861
    2CHL1    H9  112   4.768   0.688   5.791 -0.3558 -1.0448 -1.9898
    2CHL1   C10  113   4.710   0.574   5.949 -0.5635  0.4735 -0.4187
    2CHL1   C19  114   4.606   0.464   5.979  0.2183 -0.1747 -0.8373
    2CHL1  H19A  115   4.553   0.419   5.892 -1.2271 -1.3539  0.5990
    2CHL1  H19B  116   4.641   0.372   6.030  1.1689 -0.5568 -2.1241
    2CHL1  H19C  117   4.525   0.498   6.048  1.5542 -0.2398  0.8159
    2CHL1    C1  118   4.855   0.518   5.940  0.4070 -0.1992 -0.2953
    2CHL1   H1A  119   4.854   0.435   5.866 -0.3588  0.0071 -0.5287
    2CHL1   H1B  120   4.931   0.589   5.900  1.4744 -0.6717  0.8520
    2CHL1    C2  121   4.910   0.461   6.072 -0.0998 -0.0071 -0.3806
    2CHL1   H2A  122   5.016   0.431   6.053  0.0438 -0.3534  0.8938
    2CHL1   H2B  123   4.844   0.373   6.091  0.4017 -0.3037  0.0221
    2CHL1   C20  124   4.461   0.787   5.324 -0.1166  0.6333  0.8071
    2CHL1   H20  125   4.350   0.798   5.324 -0.1302  0.7483 -0.8390
    2CHL1   C21  126   4.494   0.641   5.272  0.1361 -0.2377  0.3403
    2CHL1  H21A  127   4.603   0.628   5.289  0.5404  0.1838 -1.7205
    2CHL1  H21B  128   4.475   0.641   5.163  0.7952 -0.3628  0.2228
    2CHL1  H21C  129   4.445   0.557   5.327  1.2947 -0.4858  1.0191
    2CHL1   C22  130   4.514   0.891   5.223  0.2424  0.1387  0.3654
    2CHL1  H22A  131   4.454   0.873   5.131 -0.0214 -0.1233  0.5863
    2CHL1  H22B  132   4.489   0.991   5.265 -0.9971  0.4461 -1.0387
    2CHL1   C23  133   4.658   0.878   5.190 -0.0422 -0.2739 -0.0581
    2CHL1  H23A  134   4.726   0.893   5.277 -0.2958  2.5202 -0.2329
    2CHL1  H23B  135   4.681   0.774   5.159  0.2210 -0.0795 -0.5298
    2CHL1   C24  136   4.713   0.989   5.102 -0.6925  0.5926  0.1585
    2CHL1  H24A  137   4.698   1.086   5.154 -1.3672 -0.3644  1.8551
    2CHL1  H24B  138   4.822   0.972   5.090 -0.8315 -1.0800  0.8620
    2CHL1   C25  139   4.669   1.003   4.959  0.1970 -0.2826  0.5938
    2CHL1   H25  140   4.563   1.028   4.981 -0.1373  1.1646 -2.1448
    2CHL1   C26  141   4.729   1.128   4.897  0.4017  0.4676 -0.3492
    2CHL1  H26A  142   4.740   1.213   4.968  0.9205  1.0788 -1.1538
    2CHL1  H26B  143   4.832   1.097   4.872  0.6916  0.0097  1.2818
    2CHL1  H26C  144   4.670   1.168   4.812 -3.1997 -1.3607  1.0706
    2CHL1   C27  145   4.678   0.876   4.872 -0.1481 -0.0626 -0.2447
    2CHL1  H27A  146   4.611   0.797   4.914  0.3816 -0.5574 -0.3253
    2CHL1  H27B  147   4.653   0.900   4.767  2.5817 -0.6800 -1.1092
    2CHL1  H27C  148   4.781   0.835   4.879  0.1538  0.7597  0.2797
    3CHL1    C3  149   3.978   0.252   6.528 -1.1158  0.0977 -0.5167
    3CHL1    H3  150   4.047   0.165   6.533  1.4062  1.8931 -1.8508
    3CHL1    O3  151   3.949   0.308   6.658  0.0924 -0.2799 -0.4769
    3CHL1   H3'  152   3.861   0.339   6.635  0.3873 -0.5221 -2.1039
    3CHL1    C4  153   4.053   0.364   6.460 -0.6040  1.0706  0.4707
    3CHL1   H4A  154   3.990   0.455   6.451 -0.2851  1.1173 -1.5646
    3CHL1   H4B  155   4.143   0.394   6.518  0.6532 -3.5173  1.3162
    3CHL1    C5  156   4.098   0.328   6.320  0.1312 -0.1213  0.1046
    3CHL1    C6  157   4.225   0.316   6.284 -0.1596  0.3666  0.0700
    3CHL1    H6  158   4.296   0.348   6.361  0.3451  0.1052 -0.2807
    3CHL1    C7  159   4.268   0.277   6.143 -0.0924  0.2637  0.3061
    3CHL1   H7A  160   4.332   0.365   6.119 -0.8989  1.1924  1.4474
    3CHL1   H7B  161   4.323   0.181   6.140 -1.4939 -0.5527 -0.9394
    3CHL1    C8  162   4.156   0.290   6.037  0.6984 -0.2325 -0.1384
    3CHL1    H8  163   4.140   0.400   6.033  0.1729 -0.1408  2.4465
    3CHL1   C14  164   4.183   0.224   5.905 -1.0506  0.4953 -0.4037
    3CHL1   H14  165   4.186   0.117   5.934  0.0779  0.0786 -1.9423
    3CHL1   C15  166   4.322   0.260   5.843 -0.3899  0.2079 -0.2497
    3CHL1  H15A  167   4.344   0.368   5.858 -0.6929  0.3840 -1.0419
    3CHL1  H15B  168   4.411   0.205   5.880  1.7102  3.4471 -0.0749
    3CHL1   C16  169   4.312   0.219   5.700  0.4890 -0.6205 -0.1988
    3CHL1  H16A  170   4.360   0.297   5.637 -0.6762 -0.7754 -1.3132
    3CHL1  H16B  171   4.357   0.120   5.677  0.6244 -0.0521 -2.6636
    3CHL1   C17  172   4.157   0.208   5.672 -0.3600  0.3396  0.6282
    3CHL1   H17  173   4.137   0.099   5.682 -2.8991  0.7004  0.1938
    3CHL1   C13  174   4.086   0.261   5.795  0.6424  1.1215  0.1007
    3CHL1   C18  175   4.075   0.420   5.779  0.6514  0.1175 -0.4572
    3CHL1  H18A  176   4.005   0.447   5.697  2.9933  0.3964 -2.4848
    3CHL1  H18B  177   4.035   0.472   5.869 -1.3820 -2.8317  0.4822
    3CHL1  H18C  178   4.175   0.468   5.772 -0.1059  2.4594  2.6395
    3CHL1   C12  179   3.956   0.186   5.834 -0.0952 -0.2748  0.4336
    3CHL1  H12A  180   3.878   0.208   5.758 -0.7394 -1.2248  0.8049
    3CHL1  H12B  181   3.988   0.080   5.841  0.8169 -0.0505 -0.1521
    3CHL1   C11  182   3.916   0.232   5.978  0.1737 -0.5430 -0.2382
    3CHL1  H11A  183   3.877   0.332   5.950 -0.2718 -0.0879  1.8447
    3CHL1  H11B  184   3.832   0.175   6.022 -0.4541  0.6498  0.1642
    3CHL1    C9  185   4.025   0.232   6.088 -0.2500 -0.7998 -0.0680
    3CHL1    H9  186   4.041   0.123   6.103  2.4891 -0.9397 -3.0191
    3CHL1   C10  187   3.975   0.287   6.226 -0.4678 -0.3575  0.2849
    3CHL1   C19  188   3.894   0.420   6.197 -0.2757  0.2832 -0.5107
    3CHL1  H19A  189   3.956   0.506   6.164  0.1253  0.5330  0.8276
    3CHL1  H19B  190   3.812   0.399   6.125  0.8342  0.1319 -1.7652
    3CHL1  H19C  191   3.857   0.452   6.297 -3.6772 -2.6703 -0.6142
    3CHL1    C1  192   3.887   0.179   6.304  0.1778 -0.1692  0.2084
    3CHL1   H1A  193   3.796   0.154   6.246  0.5471 -0.3826 -0.2899
    3CHL1   H1B  194   3.941   0.082   6.297 -0.5918 -0.5494 -0.6929
    3CHL1    C2  195   3.854   0.208   6.456  0.3447 -0.0630  0.9297
    3CHL1   H2A  196   3.807   0.122   6.508  0.7474 -0.5198  0.5443
    3CHL1   H2B  197   3.787   0.297   6.451  0.9715  0.3575 -0.5113
    3CHL1   C20  198   4.115   0.254   5.531  0.1450  0.9377  0.1543
    3CHL1   H20  199   4.113   0.365   5.528 -2.9792  1.0163  1.2150
    3CHL1   C21  200   3.967   0.207   5.503 -0.4301  0.2212 -0.3359
    3CHL1  H21A  201   3.941   0.206   5.395 -1.7644 -2.7296 -0.0827
    3CHL1  H21B  202   3.900   0.280   5.554 -0.6604 -0.0287 -0.2763
    3CHL1  H21C  203   3.962   0.101   5.536 -2.5848  0.8648  1.7215
    3CHL1   C22  204   4.216   0.202   5.423 -0.0697 -0.0195 -1.1746
    3CHL1  H22A  205   4.316   0.242   5.448 -0.1320 -1.4803  1.9121
    3CHL1  H22B  206   4.229   0.092   5.414 -1.2191 -0.0494 -3.2645
    3CHL1   C23  207   4.180   0.236   5.281 -0.0305  1.1896 -0.1291
    3CHL1  H23A  208   4.266   0.195   5.225  1.5582  0.8195  2.4364
    3CHL1  H23B  209   4.087   0.183   5.251 -0.2461  0.9694  0.8878
    3CHL1   C24  210   4.167   0.388   5.259  0.2126 -0.3001  0.1991
    3CHL1  H24A  211   4.101   0.434   5.336  0.8130  1.0888 -0.0821
    3CHL1  H24B  212   4.267   0.433   5.276  0.4755 -0.0744 -1.7508
    3CHL1   C25  213   4.112   0.443   5.126 -1.0305 -0.1896 -0.1924
    3CHL1   H25  214   4.172   0.408   5.039 -0.0395  0.0082  0.4008
    3CHL1   C26  215   3.969   0.385   5.101 -0.1219  0.3512  0.5306
    3CHL1  H26A  216   3.908   0.407   5.191 -1.1060  2.2231 -0.5183
    3CHL1  H26B  217   3.931   0.433   5.008  1.0994  0.5608  0.1129
    3CHL1  H26C  218   3.963   0.275   5.088 -0.4178  0.4134  0.1245
    3CHL1   C27  219   4.098   0.598   5.126  0.0424 -0.4229  0.2413
    3CHL1  H27A  220   4.038   0.634   5.212  1.1916  0.7772  0.5934
    3CHL1  H27B  221   4.194   0.654   5.123 -0.6700  1.0009  2.1353
    3CHL1  H27C  222   4.038   0.633   5.039  0.3362  0.6161  0.4358
    4CHL1    C3  223   4.420   0.786   6.379 -0.0989 -0.0598  0.8459
    4CHL1    H3  224   4.508   0.797   6.312 -0.1245 -2.3370  0.3381
    4CHL1    O3  225   4.478   0.763   6.504  0.4115  0.2085 -0.1132
    4CHL1   H3'  226   4.522   0.844   6.529  2.5508 -1.1348  0.8149
    4CHL1    C4  227   4.346   0.924   6.372 -0.7591 -0.8553 -0.0274
    4CHL1   H4A  228   4.281   0.927   6.462  0.0676 -0.0403  0.5662
    4CHL1   H4B  229   4.430   0.996   6.383 -0.2625 -1.5717  1.0174
    4CHL1    C5  230   4.277   0.943   6.245  0.2378 -0.1818  0.0029
    4CHL1    C6  231   4.289   1.063   6.174 -0.5235  0.6607 -0.7906
    4CHL1    H6  232   4.351   1.147   6.207  0.0310  1.1723 -2.9986
    4CHL1    C7  233   4.218   1.105   6.054  0.8072  0.0819 -0.3598
    4CHL1   H7A  234   4.170   1.203   6.074  3.1399  0.8942  1.7603
    4CHL1   H7B  235   4.287   1.117   5.967 -1.4095 -0.4863 -2.2881
    4CHL1    C8  236   4.112   1.001   6.007 -0.4519  0.4234 -0.0489
    4CHL1    H8  237   4.012   1.023   6.051  0.0360  0.4179  1.0704
    4CHL1   C14  238   4.098   1.019   5.854 -0.0264  0.4703  0.3809
    4CHL1   H14  239   4.205   1.001   5.829  0.1915  0.3273  1.3950
    4CHL1   C15  240   4.068   1.154   5.794 -0.5637 -0.1599 -0.0711
    4CHL1  H15A  241   3.978   1.180   5.854 -0.2416 -2.2749  1.4298
    4CHL1  H15B  242   4.149   1.229   5.814  1.8012 -3.0845  2.3162
    4CHL1   C16  243   4.015   1.122   5.654  0.0420 -0.2341  0.2924
    4CHL1  H16A  244   3.912   1.159   5.639  0.1157  0.7259  1.9157
    4CHL1  H16B  245   4.070   1.167   5.569  0.3578  2.7003  1.8962
    4CHL1   C17  246   4.020   0.965   5.640  0.4254 -0.4637  0.3279
    4CHL1   H17  247   4.123   0.934   5.614  0.2197  0.1429 -1.2935
    4CHL1   C13  248   4.007   0.916   5.789  0.8418  0.5541  0.6041
    4CHL1   C18  249   3.861   0.931   5.831  0.2015  0.0731 -0.3116
    4CHL1  H18A  250   3.819   1.028   5.799  0.9800  0.0698 -1.3993
    4CHL1  H18B  251   3.801   0.854   5.778 -0.2170 -0.2416  0.6037
    4CHL1  H18C  252   3.852   0.916   5.941 -1.2894 -1.1679 -0.5614
    4CHL1   C12  253   4.056   0.775   5.818 -0.2390 -0.6052 -0.0207
    4CHL1  H12A  254   3.986   0.701   5.773  0.4063 -1.5878  0.5697
    4CHL1  H12B  255   4.157   0.762   5.774 -0.1858  2.6290 -1.1023
    4CHL1   C11  256   4.075   0.751   5.962 -0.0680  0.6722 -0.6581
    4CHL1  H11A  257   3.980   0.729   6.015  1.1782 -0.0867  1.3761
    4CHL1  H11B  258   4.141   0.663   5.975  1.6378  2.0253  0.0821
    4CHL1    C9  259   4.156   0.858   6.043  0.0825 -0.9934  0.1359
    4CHL1    H9  260   4.258   0.844   6.000  1.4800  1.1494  2.4325
    4CHL1   C10  261   4.197   0.831   6.189  0.0968  0.0085  0.4251
    4CHL1   C19  262   4.066   0.821   6.272  0.1613 -0.4842  0.1663
    4CHL1  H19A  263   4.093   0.826   6.379  1.7885  0.6742 -0.2584
    4CHL1  H19B  264   4.001   0.908   6.245  1.4788  0.6520  0.5523
    4CHL1  H19C  265   4.006   0.728   6.263 -0.3015 -0.1419 -0.3490
    4CHL1    C1  266   4.270   0.694   6.199 -0.3394  0.7930 -0.2294
    4CHL1   H1A  267   4.196   0.612   6.188  0.1152  0.4956 -1.1070
    4CHL1   H1B  268   4.352   0.679   6.126 -0.2559 -3.4150  0.4982
    4CHL1    C2  269   4.336   0.668   6.343  0.4697 -0.2430 -0.7788
    4CHL1   H2A  270   4.399   0.576   6.337 -0.8997 -1.1868 -1.3075
    4CHL1   H2B  271   4.255   0.644   6.415  0.1016 -2.1041 -1.7410
    4CHL1   C20  272   3.920   0.915   5.534 -0.1245 -0.2201  0.3073
    4CHL1   H20  273   3.817   0.933   5.571  0.1065 -0.8588  1.3029
    4CHL1   C21  274   3.946   0.765   5.508  0.0531 -0.1623 -0.0128
    4CHL1  H21A  275   3.880   0.720   5.431 -1.0435 -1.0161  1.3584
    4CHL1  H21B  276   3.929   0.707   5.601  3.6088  0.5667  1.2389
    4CHL1  H21C  277   4.052   0.750   5.481 -0.3909  0.6503 -2.4274
    4CHL1   C22  278   3.923   0.992   5.408 -0.3153 -0.1948  0.1479
    4CHL1  H22A  279   3.838   0.959   5.345  0.1078 -0.4988 -0.2688
    4CHL1  H22B  280   3.890   1.098   5.420  0.4420  0.3182 -1.8970
    4CHL1   C23  281   4.049   0.990   5.326  0.3766  0.2663  0.3715
    4CHL1  H23A  282   4.140   0.978   5.388  0.1947 -1.5273  0.3453
    4CHL1  H23B  283   4.055   0.896   5.268  1.0148 -0.0711  0.9724
    4CHL1   C24  284   4.066   1.115   5.244 -0.1879  0.9129  0.6016
    4CHL1  H24A  285   3.967   1.130   5.196 -0.8661  2.6708  2.4311
    4CHL1  H24B  286   4.082   1.198   5.316  1.2920  0.1689  1.1815
    4CHL1   C25  287   4.175   1.105   5.131  0.4254  0.3849  0.1153
    4CHL1   H25  288   4.271   1.084   5.184 -0.1377 -0.6883  0.7591
    4CHL1   C26  289   4.155   0.982   5.036  0.3262  0.6873 -0.0348
    4CHL1  H26A  290   4.055   0.994   4.990  0.4937  0.5988 -0.4280
    4CHL1  H26B  291   4.244   0.978   4.970  1.4458 -1.1560  1.5040
    4CHL1  H26C  292   4.158   0.887   5.092 -1.8740  0.5719 -0.0468
    4CHL1   C27  293   4.180   1.234   5.049 -0.4501  0.1721  0.8437
    4CHL1  H27A  294   4.273   1.242   4.990  1.3800  2.3367  3.7467
    4CHL1  H27B  295   4.087   1.239   4.989 -0.9771 -0.1257  1.6174
    4CHL1  H27C  296   4.188   1.319   5.120  0.4092  1.3281 -0.5967
    5CHL1    C3  297   5.816   1.829   6.614 -0.1634  0.0952 -0.2097
    5CHL1    H3  298   5.898   1.877   6.556 -1.3211  1.2266 -0.9844
    5CHL1    O3  299   5.862   1.829   6.744 -0.2837  0.5611 -0.1350
    5CHL1   H3'  300   5.847   1.918   6.775 -3.0277 -0.4600  1.9148
    5CHL1    C4  301   5.699   1.922   6.603 -0.8959 -0.0772 -0.3987
    5CHL1   H4A  302   5.613   1.891   6.667 -1.0172  0.1178 -0.4678
    5CHL1   H4B  303   5.730   2.022   6.640 -0.7235  0.0341 -0.8413
    5CHL1    C5  304   5.663   1.941   6.456  0.4183 -0.0014 -0.3696
    5CHL1    C6  305   5.650   2.062   6.393 -0.3829  0.1193  0.6495
    5CHL1    H6  306   5.668   2.150   6.457  1.2034 -0.8147  1.5429
    5CHL1    C7  307   5.599   2.083   6.254 -0.4182  0.5208  0.6750
    5CHL1   H7A  308   5.512   2.153   6.252 -1.8077 -1.1613  0.0287
    5CHL1   H7B  309   5.676   2.134   6.191 -1.1926 -0.9031 -1.5209
    5CHL1    C8  310   5.538   1.960   6.185  0.1805  0.5148  0.5343
    5CHL1    H8  311   5.433   1.943   6.218 -0.1829 -0.8894 -1.1554
    5CHL1   C14  312   5.552   1.983   6.032  0.0495 -0.9191 -0.8526
    5CHL1   H14  313   5.660   1.997   6.009 -0.0603  0.1227 -0.7987
    5CHL1   C15  314   5.483   2.110   5.983  0.4298 -0.1899  0.2892
    5CHL1  H15A  315   5.380   2.098   6.021  0.8631 -0.6002  1.3530
    5CHL1  H15B  316   5.529   2.209   6.005 -0.2255  0.9061 -2.7708
    5CHL1   C16  317   5.473   2.088   5.830 -0.4431 -0.0374 -0.1202
    5CHL1  H16A  318   5.374   2.128   5.801  0.3103  0.7860 -1.7502
    5CHL1  H16B  319   5.551   2.150   5.780  0.1623  0.9046  1.9034
    5CHL1   C17  320   5.501   1.931   5.807 -0.0551 -0.0997 -0.4428
    5CHL1   H17  321   5.610   1.923   5.784  1.1732  0.8748  4.0625
    5CHL1   C13  322   5.497   1.865   5.949  1.0057  0.1184  0.1115
    5CHL1   C18  323   5.344   1.833   5.976 -0.3683 -0.6784  0.7634
    5CHL1  H18A  324   5.271   1.901   5.927  0.2861 -2.3067 -2.7881
    5CHL1  H18B  325   5.322   1.731   5.939  0.7478 -1.2083  1.5029
    5CHL1  H18C  326   5.339   1.833   6.087 -0.0900 -0.5582  0.7787
    5CHL1   C12  327   5.579   1.733   5.972 -0.3873 -0.5423 -0.3095
    5CHL1  H12A  328   5.530   1.654   5.911  1.8000 -2.3650  0.1488
    5CHL1  H12B  329   5.686   1.748   5.945 -0.1120  0.1248  1.0532
    5CHL1   C11  330   5.570   1.714   6.131  0.1550  0.1386  0.2037
    5CHL1  H11A  331   5.471   1.677   6.167  0.4621  0.1632  1.0934
    5CHL1  H11B  332   5.645   1.638   6.158  1.1461  1.1693  0.4442
    5CHL1    C9  333   5.621   1.833   6.224  0.4226  0.1374  0.8259
    5CHL1    H9  334   5.719   1.863   6.182 -0.2347  0.7493 -0.3189
    5CHL1   C10  335   5.637   1.807   6.378 -0.5513 -0.3498 -0.5664
    5CHL1   C19  336   5.500   1.756   6.432  0.1767  0.1376 -0.0396
    5CHL1  H19A  337   5.479   1.654   6.392  2.3765 -0.5510  0.4121
    5CHL1  H19B  338   5.478   1.737   6.540 -2.5970  0.7159 -0.4186
    5CHL1  H19C  339   5.420   1.826   6.398 -1.7014 -2.5017 -1.4302
    5CHL1    C1  340   5.748   1.703   6.412 -0.8312  0.4075 -0.0378
    5CHL1   H1A  341   5.706   1.609   6.370  0.2194 -0.0454 -0.1063
    5CHL1   H1B  342   5.839   1.742   6.362  1.2811 -0.8327  2.5720
    5CHL1    C2  343   5.790   1.692   6.558  0.5829 -0.3995  0.9185
    5CHL1   H2A  344   5.876   1.622   6.570 -0.0637 -1.8731 -2.0643
    5CHL1   H2B  345   5.706   1.650   6.617  1.2016 -2.7245  0.2774
    5CHL1   C20  346   5.408   1.872   5.694 -0.0101 -0.8136  0.0481
    5CHL1   H20  347   5.304   1.871   5.731 -0.0748 -0.2927 -0.1139
    5CHL1   C21  348   5.469   1.734   5.653 -0.8312  0.3489  0.6840
    5CHL1  H21A  349   5.432   1.701   5.554  0.9611 -0.3145  0.1939
    5CHL1  H21B  350   5.440   1.663   5.733 -0.1062 -0.0582  0.5984
    5CHL1  H21C  351   5.580   1.734   5.644 -0.7597 -1.8659  1.0665
    5CHL1   C22  352   5.396   1.965   5.566 -0.3652 -0.6641 -0.3791
    5CHL1  H22A  353   5.328   1.918   5.491  0.5266 -0.1196 -1.5621
    5CHL1  H22B  354   5.350   2.058   5.606  1.1551 -0.7459  1.6900
    5CHL1   C23  355   5.532   2.008   5.496 -0.0262 -0.3027  0.3241
    5CHL1  H23A  356   5.597   2.069   5.562  1.2193  0.2995 -1.3836
    5CHL1  H23B  357   5.591   1.914   5.484 -1.7397 -1.3767 -0.0097
    5CHL1   C24  358   5.511   2.075   5.357  0.0400 -0.3632  0.0279
    5CHL1  H24A  359   5.425   2.144   5.373  0.7111  0.6406 -0.5631
    5CHL1  H24B  360   5.600   2.137   5.335 -0.1391 -0.2728 -0.4380
    5CHL1   C25  361   5.487   1.972   5.242 -0.4592 -0.3181  0.1087
    5CHL1   H25  362   5.413   1.894   5.270  0.7331 -3.0526 -3.5640
    5CHL1   C26  363   5.421   2.042   5.124 -0.2635  0.2331 -0.3730
    5CHL1  H26A  364   5.326   2.085   5.162  0.5807  1.3652  0.5367
    5CHL1  H26B  365   5.466   2.140   5.099 -0.5353  0.6153  0.5959
    5CHL1  H26C  366   5.395   1.974   5.041  0.7944 -0.1594 -0.4089
    5CHL1   C27  367   5.621   1.906   5.204 -0.0124  0.5487  0.1986
    5CHL1  H27A  368   5.692   1.897   5.289 -0.8681  0.0853  0.8865
    5CHL1  H27B  369   5.621   1.810   5.148  0.6465  1.8607 -2.2147
    5CHL1  H27C  370   5.667   1.989   5.146  1.4637  1.5534  2.6632
    6CHL1    C3  371   3.148   6.636   6.536  0.0976  0.8705  0.1905
    6CHL1    H3  372   3.092   6.730   6.517  1.3763  1.2863 -1.9573
    6CHL1    O3  373   3.130   6.606   6.676 -0.0348 -0.1488  0.0589
    6CHL1   H3'  374   3.134   6.510   6.677 -0.7107 -0.1953  2.0146
    6CHL1    C4  375   3.070   6.524   6.455  0.4699 -0.1718 -0.4901
    6CHL1   H4A  376   3.133   6.437   6.483  2.2260  1.0914 -0.3510
    6CHL1   H4B  377   2.968   6.508   6.497  0.5768 -0.2617 -0.2650
    6CHL1    C5  378   3.066   6.552   6.304 -0.3096  0.5348 -0.5242
    6CHL1    C6  379   2.947   6.553   6.249 -0.9769 -0.4472  0.1974
    6CHL1    H6  380   2.855   6.529   6.305 -1.6071 -1.7733 -1.3420
    6CHL1    C7  381   2.931   6.574   6.107  0.2655 -0.5935  0.2875
    6CHL1   H7A  382   2.860   6.493   6.077  1.2833 -1.2912 -0.3426
    6CHL1   H7B  383   2.876   6.667   6.083  1.7625 -0.3602 -2.7889
    6CHL1    C8  384   3.065   6.558   6.027 -0.1985  0.2088  0.4703
    6CHL1    H8  385   3.078   6.449   6.006  0.6861  0.4664 -0.4178
    6CHL1   C14  386   3.051   6.621   5.886  0.0958  0.7860  0.1034
    6CHL1   H14  387   3.038   6.731   5.897 -2.4752  0.6587 -1.1152
    6CHL1   C15  388   2.935   6.583   5.796  0.3516 -0.0931 -0.1435
    6CHL1  H15A  389   2.942   6.472   5.793  0.3833 -0.0739 -1.5377
    6CHL1  H15B  390   2.835   6.602   5.840  0.3128 -0.6494  0.0187
    6CHL1   C16  391   2.972   6.640   5.658 -0.1679  0.1223 -0.4209
    6CHL1  H16A  392   2.939   6.571   5.578 -2.1051 -0.6209  0.9514
    6CHL1  H16B  393   2.931   6.739   5.628  1.4653  0.0835 -3.1172
    6CHL1   C17  394   3.127   6.670   5.663  0.2733 -0.2754 -0.2179
    6CHL1   H17  395   3.126   6.780   5.682 -1.4457 -0.3666  0.4203
    6CHL1   C13  396   3.186   6.609   5.796  0.4296 -0.5267  1.2025
    6CHL1   C18  397   3.209   6.457   5.772  0.0599 -0.1239 -0.4202
    6CHL1  H18A  398   3.198   6.388   5.858  2.7594  0.1482  0.2157
    6CHL1  H18B  399   3.131   6.428   5.698 -1.3160  0.3600  0.7948
    6CHL1  H18C  400   3.304   6.434   5.720 -1.6895 -2.7139 -2.7618
    6CHL1   C12  401   3.298   6.688   5.879  0.6599  0.2249 -0.4563
    6CHL1  H12A  402   3.399   6.707   5.837  1.5278 -2.3090  0.3266
    6CHL1  H12B  403   3.259   6.792   5.891  0.1220 -0.0088 -0.1726
    6CHL1   C11  404   3.318   6.610   6.008 -0.0017  0.3739  1.0689
    6CHL1  H11A  405   3.347   6.506   5.983  1.7658  0.6758  1.7184
    6CHL1  H11B  406   3.395   6.654   6.074 -0.6726  1.7102  1.0011
    6CHL1    C9  407   3.187   6.618   6.100 -0.3663  0.3639  0.2129
    6CHL1    H9  408   3.168   6.726   6.116 -2.9342  0.0668 -0.3816
    6CHL1   C10  409   3.206   6.573   6.245 -0.2631  0.1953  0.1489
    6CHL1   C19  410   3.275   6.434   6.238  0.0506 -0.1959 -0.2666
    6CHL1  H19A  411   3.290   6.401   6.343  3.4264  0.0139 -0.5884
    6CHL1  H19B  412   3.195   6.368   6.199 -2.1711  2.2679 -0.2057
    6CHL1  H19C  413   3.365   6.432   6.174  0.5369  0.2284  0.3890
    6CHL1    C1  414   3.286   6.677   6.331  0.2743 -0.0701 -0.2483
    6CHL1   H1A  415   3.391   6.677   6.293  0.2633  0.3294 -0.2896
    6CHL1   H1B  416   3.240   6.776   6.311  0.4150  0.3686  1.4576
    6CHL1    C2  417   3.288   6.646   6.480 -0.5479 -0.1388  0.1126
    6CHL1   H2A  418   3.348   6.720   6.537  0.5411 -0.5006 -0.5431
    6CHL1   H2B  419   3.345   6.551   6.487  0.2647  0.2766 -0.7411
    6CHL1   C20  420   3.207   6.641   5.533  0.1145  0.5414  0.0442
    6CHL1   H20  421   3.207   6.535   5.501  0.4630  1.1019 -1.9360
    6CHL1   C21  422   3.361   6.680   5.560  0.7600  0.4642 -0.1985
    6CHL1  H21A  423   3.379   6.777   5.611 -0.0818  1.2667 -1.3872
    6CHL1  H21B  424   3.416   6.681   5.464  0.6211  0.2767 -0.2793
    6CHL1  H21C  425   3.404   6.596   5.619  3.2082  0.0304 -2.3878
    6CHL1   C22  426   3.159   6.719   5.408 -0.3845 -0.0180 -0.7292
    6CHL1  H22A  427   3.204   6.657   5.327 -2.3878  2.7305 -4.2166
    6CHL1  H22B  428   3.050   6.701   5.398 -0.7889 -0.8760  3.6052
    6CHL1   C23  429   3.199   6.864   5.409  0.0813 -0.7037  0.1381
    6CHL1  H23A  430   3.180   6.926   5.500 -0.5411  0.4133 -0.7311
    6CHL1  H23B  431   3.306   6.867   5.379 -0.0592  0.4532 -0.2658
    6CHL1   C24  432   3.116   6.931   5.300 -0.0918 -0.5742  0.3208
    6CHL1  H24A  433   3.124   6.880   5.202 -0.0710  1.2524 -0.6616
    6CHL1  H24B  434   3.009   6.932   5.330 -0.1871 -0.3213 -0.0257
    6CHL1   C25  435   3.151   7.084   5.268  0.0940  0.7191 -0.6659
    6CHL1   H25  436   3.070   7.117   5.199  2.2673 -2.2942 -5.1667
    6CHL1   C26  437   3.146   7.172   5.388  0.1689 -0.3039 -0.2325
    6CHL1  H26A  438   3.046   7.169   5.436  0.7864  0.6522  1.1903
    6CHL1  H26B  439   3.223   7.154   5.466 -0.3824  0.2070  0.4409
    6CHL1  H26C  440   3.152   7.276   5.351  0.0262 -0.0299  0.4941
    6CHL1   C27  441   3.286   7.100   5.201 -1.2268  0.2447  0.1262
    6CHL1  H27A  442   3.294   7.193   5.140  0.1818  1.3346  1.8555
    6CHL1  H27B  443   3.369   7.108   5.275 -0.7635  0.6640 -0.4272
    6CHL1  H27C  444   3.300   7.018   5.127 -2.1154 -0.2853  0.5327
    7CHL1    C3  445   4.374   5.565   6.305  0.5007 -0.1884 -0.0627
    7CHL1    H3  446   4.383   5.454   6.311  0.8589 -0.1168  0.8842
    7CHL1    O3  447   4.408   5.598   6.441 -0.4875  0.8923  0.0497
    7CHL1   H3'  448   4.487   5.548   6.464 -1.6798 -1.0510  0.2039
    7CHL1    C4  449   4.477   5.622   6.208  0.9193  0.2184 -0.4082
    7CHL1   H4A  450   4.491   5.732   6.219  0.7380  0.3395 -1.3292
    7CHL1   H4B  451   4.576   5.582   6.239  1.2347  0.9746 -0.3997
    7CHL1    C5  452   4.452   5.590   6.060  0.1019 -0.4770  0.1980
    7CHL1    C6  453   4.545   5.523   5.988  0.0473 -0.2288  0.3820
    7CHL1    H6  454   4.640   5.502   6.038  0.0818  0.4834  0.6244
    7CHL1    C7  455   4.531   5.474   5.844 -0.5418  0.3537 -0.4495
    7CHL1   H7A  456   4.630   5.486   5.795  0.0173 -0.5457  0.4248
    7CHL1   H7B  457   4.512   5.365   5.857  0.9445  0.1144 -0.0787
    7CHL1    C8  458   4.412   5.540   5.771  0.7815 -0.2180  0.1814
    7CHL1    H8  459   4.458   5.639   5.748 -1.1487  0.3333 -1.7330
    7CHL1   C14  460   4.369   5.469   5.641  0.2066  0.1677  0.5855
    7CHL1   H14  461   4.337   5.367   5.671  0.0920  0.1924  0.5496
    7CHL1   C15  462   4.487   5.446   5.540  0.1713 -0.4158 -0.0415
    7CHL1  H15A  463   4.552   5.536   5.537 -1.9181  1.1347 -1.5552
    7CHL1  H15B  464   4.544   5.355   5.570  1.8407 -0.3226 -2.6828
    7CHL1   C16  465   4.415   5.415   5.407  0.2486 -0.9650 -0.0176
    7CHL1  H16A  466   4.439   5.488   5.327  1.2485 -0.3620  0.8024
    7CHL1  H16B  467   4.436   5.311   5.376 -0.4527 -1.2953  0.5989
    7CHL1   C17  468   4.257   5.440   5.432  0.3441  0.1224  0.3232
    7CHL1   H17  469   4.217   5.341   5.464 -0.5902  1.1036  2.2970
    7CHL1   C13  470   4.252   5.522   5.566  0.4338 -0.1928 -0.2640
    7CHL1   C18  471   4.279   5.668   5.524  0.8938  0.5655 -0.5490
    7CHL1  H18A  472   4.181   5.715   5.499  0.7298  0.3869 -0.2480
    7CHL1  H18B  473   4.298   5.726   5.617 -0.5168 -0.4443  0.4089
    7CHL1  H18C  474   4.356   5.680   5.445 -0.2665 -0.7171 -1.9267
    7CHL1   C12  475   4.125   5.515   5.660 -0.3253 -0.1725  0.1614
    7CHL1  H12A  476   4.040   5.571   5.616  1.3328  2.4539  0.1546
    7CHL1  H12B  477   4.095   5.409   5.674  1.1607 -1.1851 -3.2924
    7CHL1   C11  478   4.157   5.585   5.795 -0.1292 -0.1944  0.2734
    7CHL1  H11A  479   4.147   5.694   5.776 -1.9030 -0.2529  0.6539
    7CHL1  H11B  480   4.080   5.552   5.868 -1.1995 -0.1096 -0.7807
    7CHL1    C9  481   4.286   5.545   5.866  0.1074  0.1274  0.1302
    7CHL1    H9  482   4.268   5.438   5.889  0.4546  0.3270  1.3753
    7CHL1   C10  483   4.313   5.620   6.005  0.3944  0.1799  0.9397
    7CHL1   C19  484   4.318   5.775   5.980  0.6571  0.5045 -0.3631
    7CHL1  H19A  485   4.217   5.810   5.947  0.4026  1.4064  1.2365
    7CHL1  H19B  486   4.332   5.824   6.079  2.2108 -0.6337  0.0079
    7CHL1  H19C  487   4.396   5.806   5.907  0.5617  1.7093  0.0197
    7CHL1    C1  488   4.205   5.570   6.112  0.4345  0.5794 -0.3548
    7CHL1   H1A  489   4.102   5.605   6.088 -0.8238 -0.8180  2.5886
    7CHL1   H1B  490   4.200   5.460   6.110  0.4871  0.5552  0.4357
    7CHL1    C2  491   4.233   5.606   6.265 -0.4811  0.2577  0.5667
    7CHL1   H2A  492   4.158   5.556   6.329 -0.1580 -0.2664  0.5465
    7CHL1   H2B  493   4.228   5.717   6.275  0.1836  0.3151  0.3730
    7CHL1   C20  494   4.179   5.492   5.313 -0.0068 -0.6464 -0.7647
    7CHL1   H20  495   4.202   5.599   5.294 -1.5184 -0.2110 -0.3174
    7CHL1   C21  496   4.030   5.491   5.342  0.2077  0.3650 -0.6573
    7CHL1  H21A  497   3.995   5.391   5.375  1.3033  0.8699  2.3809
    7CHL1  H21B  498   3.977   5.526   5.251 -0.1163  0.6140 -0.3763
    7CHL1  H21C  499   4.006   5.562   5.425 -3.7610 -1.0474 -0.3891
    7CHL1   C22  500   4.199   5.415   5.185  0.1998  0.2981  0.2266
    7CHL1  H22A  501   4.133   5.449   5.103 -1.1061 -0.9403  0.7262
    7CHL1  H22B  502   4.294   5.444   5.134  0.8989  1.7312  2.2065
    7CHL1   C23  503   4.192   5.266   5.192 -0.2485  0.2477  0.2474
    7CHL1  H23A  504   4.253   5.222   5.273 -2.1127 -0.5318  1.2954
    7CHL1  H23B  505   4.092   5.221   5.213  0.1167 -0.3829  0.6494
    7CHL1   C24  506   4.225   5.197   5.051 -0.2936 -0.3202  0.1996
    7CHL1  H24A  507   4.160   5.248   4.976 -0.7078  0.2938  0.9667
    7CHL1  H24B  508   4.335   5.212   5.039 -0.5903  1.0662 -1.1023
    7CHL1   C25  509   4.211   5.047   5.051  0.5599  0.4422  0.6717
    7CHL1   H25  510   4.104   5.021   5.064  1.3026 -3.8090 -0.2065
    7CHL1   C26  511   4.239   4.987   4.909 -0.3389 -0.0804  0.9581
    7CHL1  H26A  512   4.189   4.888   4.903 -1.2923  0.0907  4.1973
    7CHL1  H26B  513   4.211   5.055   4.826  1.7826 -1.1262 -0.7289
    7CHL1  H26C  514   4.350   4.984   4.903 -0.2215  3.1075 -0.2427
    7CHL1   C27  515   4.287   4.964   5.152 -0.3408  0.2241 -0.2548
    7CHL1  H27A  516   4.285   4.860   5.114 -1.8716  0.4682 -0.9105
    7CHL1  H27B  517   4.391   5.004   5.148  0.5490 -2.0038 -1.7321
    7CHL1  H27C  518   4.251   4.968   5.257 -0.4043  4.1101 -0.2619
    8CHL1    C3  519   2.486   0.182   6.797  0.8323 -0.1338  0.2150
    8CHL1    H3  520   2.521   0.287   6.801  2.3034 -0.4869 -1.7716
    8CHL1    O3  521   2.480   0.149   6.935 -0.2226 -0.6749  0.9360
    8CHL1   H3'  522   2.419   0.208   6.979  1.6869  0.7602  1.7815
    8CHL1    C4  523   2.347   0.168   6.729 -0.4776 -0.1791  0.5538
    8CHL1   H4A  524   2.306   0.066   6.742  2.6699 -1.7989 -1.0964
    8CHL1   H4B  525   2.282   0.236   6.789  0.4815  1.1833  0.1058
    8CHL1    C5  526   2.343   0.205   6.587 -0.2439  0.1012 -0.0292
    8CHL1    C6  527   2.263   0.306   6.539 -0.3876  0.0656 -0.2177
    8CHL1    H6  528   2.197   0.363   6.606  0.9147  1.5970 -0.1792
    8CHL1    C7  529   2.247   0.341   6.391 -0.3827  0.3561 -0.6320
    8CHL1   H7A  530   2.142   0.364   6.364 -0.4852  1.2610  0.5009
    8CHL1   H7B  531   2.318   0.426   6.385  0.1360  0.1120  1.3192
    8CHL1    C8  532   2.315   0.235   6.304  0.1089  0.1969 -1.0443
    8CHL1    H8  533   2.248   0.148   6.292  1.6557 -1.2925  0.5374
    8CHL1   C14  534   2.332   0.288   6.168 -0.2671  0.3878 -0.4659
    8CHL1   H14  535   2.397   0.377   6.181  0.5227 -0.1335 -0.7247
    8CHL1   C15  536   2.202   0.339   6.104 -0.0066  0.1101  0.6043
    8CHL1  H15A  537   2.123   0.261   6.107 -0.8595  0.9402  0.2602
    8CHL1  H15B  538   2.173   0.437   6.147 -0.5853  0.6810 -1.0025
    8CHL1   C16  539   2.238   0.366   5.959 -0.9293  0.2977 -0.2927
    8CHL1  H16A  540   2.161   0.310   5.902 -0.4402 -1.0832  0.3361
    8CHL1  H16B  541   2.250   0.474   5.936 -2.2218  0.8348  1.3368
    8CHL1   C17  542   2.371   0.286   5.934  0.4168 -0.2814 -0.4662
    8CHL1   H17  543   2.461   0.351   5.934  0.6777 -0.6352  0.0261
    8CHL1   C13  544   2.392   0.195   6.059  0.0105  0.4992  0.0939
    8CHL1   C18  545   2.306   0.066   6.038  0.6100  0.0261 -0.1876
    8CHL1  H18A  546   2.346  -0.003   5.960  0.5745 -1.2081  0.8438
    8CHL1  H18B  547   2.313   0.018   6.138 -1.5604  1.0139  0.4981
    8CHL1  H18C  548   2.197   0.080   6.019  0.4635  1.0733  1.2569
    8CHL1   C12  549   2.536   0.161   6.113 -0.6562 -0.3340  0.1051
    8CHL1  H12A  550   2.578   0.091   6.038  0.7697  0.4388  0.1474
    8CHL1  H12B  551   2.595   0.255   6.112  1.4093 -1.5932  0.2196
    8CHL1   C11  552   2.537   0.106   6.256  0.4672 -0.1960 -0.2204
    8CHL1  H11A  553   2.505  -0.000   6.254  1.0222 -0.3622 -0.7488
    8CHL1  H11B  554   2.645   0.109   6.281  0.5200  0.5394 -0.5078
    8CHL1    C9  555   2.449   0.191   6.355 -0.5955  0.4977  1.0328
    8CHL1    H9  556   2.509   0.284   6.366 -1.7686  1.4530 -0.2833
    8CHL1   C10  557   2.440   0.126   6.502 -0.5778  0.1519  1.3844
    8CHL1   C19  558   2.384  -0.020   6.478 -0.0254  0.0332 -0.3167
    8CHL1  H19A  559   2.285  -0.021   6.428 -1.7549  0.8109  2.8244
    8CHL1  H19B  560   2.456  -0.075   6.414 -1.0906  0.1020 -1.6074
    8CHL1  H19C  561   2.378  -0.074   6.576  0.4898 -0.4475 -0.5455
    8CHL1    C1  562   2.574   0.128   6.567  0.0927 -0.3554  0.6547
    8CHL1   H1A  563   2.632   0.056   6.507 -1.5640 -0.5201 -0.8267
    8CHL1   H1B  564   2.628   0.224   6.552  0.4776 -0.4670  1.2717
    8CHL1    C2  565   2.571   0.088   6.719 -0.7863  0.0444 -0.1230
    8CHL1   H2A  566   2.667   0.097   6.773 -2.0928  1.2771  2.1583
    8CHL1   H2B  567   2.546  -0.020   6.726 -0.0219 -0.0166  3.3164
    8CHL1   C20  568   2.368   0.212   5.796 -0.1557  0.1482 -0.0931
    8CHL1   H20  569   2.290   0.133   5.795 -2.3164  2.1403 -1.9413
    8CHL1   C21  570   2.501   0.146   5.763 -0.1018 -0.2470  0.4479
    8CHL1  H21A  571   2.590   0.211   5.778 -0.5543  0.2362  1.0664
    8CHL1  H21B  572   2.499   0.121   5.655  0.8049  3.2279 -0.5018
    8CHL1  H21C  573   2.524   0.047   5.808 -0.9798 -0.1995  1.0176
    8CHL1   C22  574   2.312   0.304   5.675  0.4832  0.0801  0.0637
    8CHL1  H22A  575   2.310   0.252   5.577 -3.6270  1.1764 -0.6310
    8CHL1  H22B  576   2.202   0.307   5.692  0.4233 -1.3139  0.0768
    8CHL1   C23  577   2.379   0.433   5.657  0.4354 -0.4203  0.1797
    8CHL1  H23A  578   2.362   0.495   5.748  1.5791  1.1064 -0.5964
    8CHL1  H23B  579   2.490   0.421   5.652  0.3689 -1.3491  0.6888
    8CHL1   C24  580   2.339   0.510   5.530 -0.1740  0.8178 -0.4939
    8CHL1  H24A  581   2.397   0.605   5.522 -1.2582  1.8519  2.4843
    8CHL1  H24B  582   2.374   0.453   5.442  1.3714  0.8302  0.0860
    8CHL1   C25  583   2.193   0.529   5.515 -0.6976 -0.0856 -0.5641
    8CHL1   H25  584   2.145   0.429   5.509  1.3045 -1.2230  1.2126
    8CHL1   C26  585   2.134   0.606   5.631  0.0634  0.2143  0.0085
    8CHL1  H26A  586   2.025   0.629   5.626  0.6319  2.9793 -1.7039
    8CHL1  H26B  587   2.151   0.548   5.724  0.6881 -0.3661 -0.4524
    8CHL1  H26C  588   2.184   0.705   5.631  0.5839  0.0137 -2.5437
    8CHL1   C27  589   2.172   0.608   5.381  0.1969 -0.3373 -0.1909
    8CHL1  H27A  590   2.210   0.548   5.296 -2.9019 -1.6372 -0.8160
    8CHL1  H27B  591   2.061   0.616   5.377  0.0977  3.2662  3.2524
    8CHL1  H27C  592   2.219   0.708   5.367  0.2370 -0.3227  0.0479
    9CHL1    C3  593   4.907   6.619   6.663 -0.1954 -0.0922  1.1678
    9CHL1    H3  594   4.841   6.702   6.630  1.2345  0.1214 -1.4067
    9CHL1    O3  595   4.927   6.635   6.804  0.4605 -0.1077  0.6114
    9CHL1   H3'  596   4.995   6.568   6.813  0.9570  0.1774 -0.8518
    9CHL1    C4  597   4.844   6.476   6.632  0.0827 -0.3906 -0.9701
    9CHL1   H4A  598   4.915   6.397   6.665 -0.0854  0.3429  1.3148
    9CHL1   H4B  599   4.750   6.461   6.690  0.4293 -2.5041 -0.8755
    9CHL1    C5  600   4.822   6.457   6.483 -0.0916  0.1945  0.2152
    9CHL1    C6  601   4.695   6.436   6.434  0.1719 -0.6096  0.2642
    9CHL1    H6  602   4.612   6.423   6.505 -0.0527  1.5372  0.4382
    9CHL1    C7  603   4.664   6.422   6.288 -0.1670 -0.1502  0.0764
    9CHL1   H7A  604   4.601   6.331   6.281 -1.1300  0.5560 -0.5314
    9CHL1   H7B  605   4.613   6.514   6.253  2.0694  1.0578 -0.2539
    9CHL1    C8  606   4.796   6.407   6.200  0.8729  0.2729 -0.0671
    9CHL1    H8  607   4.833   6.302   6.211 -1.2794 -0.4834  0.4690
    9CHL1   C14  608   4.762   6.448   6.053  0.3536 -0.2622 -0.4407
    9CHL1   H14  609   4.728   6.553   6.060 -1.4656 -0.7783 -0.9161
    9CHL1   C15  610   4.629   6.391   5.988 -1.2712  0.0201  0.0091
    9CHL1  H15A  611   4.621   6.283   6.012 -1.3608  0.1420  0.5417
    9CHL1  H15B  612   4.540   6.450   6.018 -1.9805 -1.4772  0.9914
    9CHL1   C16  613   4.658   6.399   5.837  0.6167 -0.5853 -0.3315
    9CHL1  H16A  614   4.626   6.302   5.792 -2.0330  0.1285 -0.1576
    9CHL1  H16B  615   4.585   6.468   5.789  1.1916  0.4334  0.2193
    9CHL1   C17  616   4.801   6.458   5.819  0.3841  0.1565 -0.0677
    9CHL1   H17  617   4.764   6.563   5.830 -1.8380 -0.2770 -2.3104
    9CHL1   C13  618   4.876   6.429   5.953  0.5689 -0.5833 -0.3953
    9CHL1   C18  619   4.909   6.279   5.950  0.0988  0.6085  0.0711
    9CHL1  H18A  620   4.991   6.261   5.878  0.5977 -0.8976  0.9653
    9CHL1  H18B  621   4.945   6.244   6.049 -1.7357 -1.1215  0.1970
    9CHL1  H18C  622   4.828   6.210   5.917  1.2265 -0.0610 -1.4160
    9CHL1   C12  623   4.990   6.526   5.994 -0.4670  0.0269 -0.9317
    9CHL1  H12A  624   5.077   6.519   5.925 -0.0649  0.0022 -0.4305
    9CHL1  H12B  625   4.950   6.629   5.980  1.5659  1.0831  0.5691
    9CHL1   C11  626   5.028   6.497   6.147 -0.6270  0.9791 -0.1470
    9CHL1  H11A  627   5.076   6.397   6.141 -1.2035  0.7420 -1.0300
    9CHL1  H11B  628   5.104   6.573   6.174 -0.9709  1.0312  0.7054
    9CHL1    C9  629   4.906   6.499   6.249  0.4256  0.3312  0.5248
    9CHL1    H9  630   4.869   6.603   6.245  0.9614  0.5066 -0.0082
    9CHL1   C10  631   4.949   6.476   6.399  0.3584  0.4347  0.0818
    9CHL1   C19  632   5.050   6.365   6.415 -0.6795 -0.0264  0.5344
    9CHL1  H19A  633   5.012   6.271   6.370 -0.0471 -0.1690  0.2944
    9CHL1  H19B  634   5.140   6.397   6.358 -2.0492  0.9672 -1.1912
    9CHL1  H19C  635   5.084   6.341   6.518  0.0441 -1.9781 -0.1141
    9CHL1    C1  636   5.029   6.608   6.437 -0.8410  0.3633  0.3088
    9CHL1   H1A  637   5.128   6.608   6.388 -0.4991 -0.4935  0.9677
    9CHL1   H1B  638   4.980   6.702   6.403 -0.7293 -0.4303 -2.2182
    9CHL1    C2  639   5.050   6.630   6.582 -0.2064 -0.0977 -0.4778
    9CHL1   H2A  640   5.087   6.733   6.600 -3.3447  1.5300 -2.3340
    9CHL1   H2B  641   5.123   6.556   6.621 -0.1326 -0.7823 -1.8389
    9CHL1   C20  642   4.878   6.444   5.693 -0.3967  0.0316 -0.3068
    9CHL1   H20  643   4.984   6.423   5.717 -1.4274 -1.4695  3.8203
    9CHL1   C21  644   4.884   6.587   5.627 -0.1467 -0.0516 -0.3282
    9CHL1  H21A  645   4.905   6.666   5.701  0.8271 -0.7704  0.1817
    9CHL1  H21B  646   4.783   6.599   5.582  0.3304 -1.4079 -1.8754
    9CHL1  H21C  647   4.968   6.590   5.555  0.0822  0.7038 -0.0353
    9CHL1   C22  648   4.832   6.339   5.597  0.2654 -0.1944 -0.1419
    9CHL1  H22A  649   4.844   6.240   5.647  2.4571  0.8855  1.6501
    9CHL1  H22B  650   4.727   6.354   5.565  0.4675  1.2986 -0.1760
    9CHL1   C23  651   4.921   6.327   5.466  0.3220  0.2895  0.4922
    9CHL1  H23A  652   4.929   6.427   5.418 -1.9401  0.4727  0.4001
    9CHL1  H23B  653   5.023   6.296   5.497  0.7629 -0.8138 -1.8559
    9CHL1   C24  654   4.860   6.227   5.362  0.2333  0.2918  0.6213
    9CHL1  H24A  655   4.827   6.134   5.412  1.7445 -2.2180 -2.6184
    9CHL1  H24B  656   4.766   6.269   5.319  0.6010 -0.9046 -1.5056
    9CHL1   C25  657   4.951   6.191   5.256  0.3065  0.4504 -0.2404
    9CHL1   H25  658   5.053   6.175   5.298 -0.3442 -1.2718  0.7758
    9CHL1   C26  659   4.906   6.071   5.185 -0.3955 -0.3690  0.2088
    9CHL1  H26A  660   4.917   5.982   5.251 -0.4708 -0.9342 -0.5350
    9CHL1  H26B  661   4.797   6.075   5.162 -0.2637 -1.0171 -0.5580
    9CHL1  H26C  662   4.960   6.047   5.091 -1.8948 -4.0835  0.1278
    9CHL1   C27  663   4.984   6.313   5.163 -0.3841 -0.3438 -0.6347
    9CHL1  H27A  664   5.039   6.276   5.073  0.2796 -0.3409 -0.2363
    9CHL1  H27B  665   4.898   6.378   5.136  0.0433 -0.0259 -1.2570
    9CHL1  H27C  666   5.067   6.377   5.200 -1.2526  0.5656 -0.2295
   10CHL1    C3  667   6.410   1.219   6.473 -0.0447  0.4607 -0.3491
   10CHL1    H3  668   6.328   1.286   6.440  0.6408  0.3405 -2.4647
   10CHL1    O3  669   6.410   1.211   6.613 -0.0770  0.1341 -0.4365
   10CHL1   H3'  670   6.492   1.169   6.640  0.1558 -0.7255 -2.3142
   10CHL1    C4  671   6.382   1.082   6.416  0.2800  0.0870  0.5218
   10CHL1   H4A  672   6.451   1.003   6.454 -0.0533 -0.2446  0.4467
   10CHL1   H4B  673   6.282   1.044   6.447  0.3200 -0.2623  0.2295
   10CHL1    C5  674   6.397   1.084   6.260 -0.4710 -0.4239 -0.3755
   10CHL1    C6  675   6.302   1.042   6.169  0.1845 -0.5995 -1.1493
   10CHL1    H6  676   6.201   1.008   6.197 -0.2457 -0.5803 -2.6053
   10CHL1    C7  677   6.328   1.035   6.018  0.1336  0.0763 -0.3045
   10CHL1   H7A  678   6.304   0.934   5.979 -1.6977  0.0280  0.7794
   10CHL1   H7B  679   6.272   1.112   5.961 -0.9155  2.1296  3.1488
   10CHL1    C8  680   6.482   1.051   5.979  0.3096  0.1274 -0.0454
   10CHL1    H8  681   6.538   0.957   6.000  0.2636  0.2557  0.6727
   10CHL1   C14  682   6.487   1.065   5.827  0.2429  0.3289  0.5852
   10CHL1   H14  683   6.424   1.154   5.811 -0.4969  0.3266  3.0555
   10CHL1   C15  684   6.429   0.955   5.732  0.6845 -0.4860  0.0494
   10CHL1  H15A  685   6.461   0.857   5.771  0.1645  0.4037  2.9177
   10CHL1  H15B  686   6.321   0.966   5.707  0.5958  1.1009  0.9892
   10CHL1   C16  687   6.496   0.975   5.599  0.7214 -0.5011 -0.5880
   10CHL1  H16A  688   6.536   0.879   5.562 -0.8628 -1.1378 -0.7310
   10CHL1  H16B  689   6.435   1.008   5.512  0.6562 -0.8522 -0.6742
   10CHL1   C17  690   6.601   1.095   5.622 -0.1425 -0.0630 -0.3542
   10CHL1   H17  691   6.544   1.189   5.607  1.8195  1.1217 -0.8236
   10CHL1   C13  692   6.628   1.089   5.772 -0.1987 -0.2482 -0.1259
   10CHL1   C18  693   6.714   0.967   5.801  0.3958 -0.7897 -0.1352
   10CHL1  H18A  694   6.676   0.883   5.738 -0.0222 -0.2924 -0.5522
   10CHL1  H18B  695   6.816   0.985   5.759  0.8520 -0.8959  0.9005
   10CHL1  H18C  696   6.729   0.934   5.906  1.7816  0.0913 -0.0334
   10CHL1   C12  697   6.673   1.219   5.843 -0.4277  0.2886 -0.0934
   10CHL1  H12A  698   6.778   1.247   5.817 -0.2885 -1.3187 -1.4401
   10CHL1  H12B  699   6.599   1.296   5.813 -0.5206 -0.4326 -1.7907
   10CHL1   C11  700   6.666   1.217   5.998 -0.8889 -0.1745  0.5419
   10CHL1  H11A  701   6.751   1.154   6.032 -1.0192 -0.3160  0.6115
   10CHL1  H11B  702   6.682   1.323   6.028  0.0062 -0.2298  0.2844
   10CHL1    C9  703   6.534   1.170   6.057  0.5693 -0.0221  0.3259
   10CHL1    H9  704   6.450   1.241   6.040 -0.2795 -1.0302  0.2148
   10CHL1   C10  705   6.538   1.136   6.211 -0.2720  0.2710  0.0973
   10CHL1   C19  706   6.653   1.033   6.260 -0.1973  0.0127 -0.0382
   10CHL1  H19A  707   6.752   1.072   6.229 -1.2095  2.1077 -0.8671
   10CHL1  H19B  708   6.652   1.027   6.371 -1.8835  2.4126  0.1617
   10CHL1  H19C  709   6.631   0.940   6.203 -1.0830  0.9113 -1.2344
   10CHL1    C1  710   6.570   1.280   6.280  0.5826 -0.2507  0.3644
   10CHL1   H1A  711   6.675   1.312   6.260  0.1480  0.8532 -0.2921
   10CHL1   H1B  712   6.494   1.350   6.238  0.0232  0.0651  1.8601
   10CHL1    C2  713   6.542   1.275   6.431 -0.2976 -0.3189  0.1740
   10CHL1   H2A  714   6.551   1.381   6.466  2.0770 -0.6860  0.8442
   10CHL1   H2B  715   6.622   1.219   6.483  0.5989  1.8261  1.2373
   10CHL1   C20  716   6.724   1.092   5.526  0.1743 -0.0450  0.2166
   10CHL1   H20  717   6.774   0.994   5.539  2.0002  0.5428 -1.6918
   10CHL1   C21  718   6.821   1.202   5.560  0.1543  0.5077  0.6835
   10CHL1  H21A  719   6.894   1.184   5.641  0.4352 -2.7086 -0.1652
   10CHL1  H21B  720   6.773   1.301   5.575  0.0377  0.4029  1.0005
   10CHL1  H21C  721   6.891   1.218   5.475  0.9616  1.3045  1.4843
   10CHL1   C22  722   6.680   1.100   5.378 -0.2824  0.2056  0.2645
   10CHL1  H22A  723   6.766   1.059   5.320 -0.8005 -1.8886  0.8843
   10CHL1  H22B  724   6.585   1.048   5.355 -0.0091  0.1757 -0.8881
   10CHL1   C23  725   6.654   1.246   5.320  0.6256  0.4562 -0.5085
   10CHL1  H23A  726   6.745   1.310   5.316  0.6982  0.3012 -2.3932
   10CHL1  H23B  727   6.638   1.239   5.210  0.1717  2.4447 -0.6173
   10CHL1   C24  728   6.530   1.321   5.380 -0.1826  0.1053 -0.3399
   10CHL1  H24A  729   6.450   1.253   5.417  0.0983  0.6893  1.4576
   10CHL1  H24B  730   6.559   1.362   5.479 -0.5965 -0.7683  0.1620
   10CHL1   C25  731   6.477   1.434   5.298  0.3224  0.1097  0.4816
   10CHL1   H25  732   6.416   1.502   5.362  0.0537 -0.1431  0.5010
   10CHL1   C26  733   6.586   1.531   5.240 -0.4429 -0.3732 -0.2302
   10CHL1  H26A  734   6.656   1.498   5.160 -0.8152  0.7878 -1.0588
   10CHL1  H26B  735   6.543   1.624   5.199 -1.2560  0.3513  2.0730
   10CHL1  H26C  736   6.641   1.565   5.331  0.8234 -0.2169 -1.0332
   10CHL1   C27  737   6.386   1.387   5.183  0.0885  0.3397  0.4951
   10CHL1  H27A  738   6.322   1.311   5.234 -1.2075  1.5105  0.6848
   10CHL1  H27B  739   6.325   1.465   5.134  0.9981 -0.9010 -2.8466
   10CHL1  H27C  740   6.454   1.336   5.112  1.2907  1.0464  1.0959
   11CHL1    C3  741   2.201   5.959   6.545 -0.5338 -0.4087  0.3644
   11CHL1    H3  742   2.219   6.068   6.554 -2.8561 -0.0151  0.8218
   11CHL1    O3  743   2.184   5.908   6.677 -0.6883  0.2024 -0.1024
   11CHL1   H3'  744   2.197   5.813   6.667 -1.0497  0.2008 -0.6034
   11CHL1    C4  745   2.079   5.923   6.462  0.2239  0.8153  0.1806
   11CHL1   H4A  746   2.070   5.813   6.472 -0.2567  0.8258 -0.1134
   11CHL1   H4B  747   1.996   5.969   6.519 -1.1972 -1.7865  0.3817
   11CHL1    C5  748   2.093   5.981   6.325  0.3696  0.0209  0.0170
   11CHL1    C6  749   1.995   6.055   6.270 -0.4193 -0.6436 -0.5041
   11CHL1    H6  750   1.906   6.069   6.333 -0.0539  1.7318 -0.4198
   11CHL1    C7  751   1.999   6.123   6.135 -0.8950  0.1919 -0.1461
   11CHL1   H7A  752   1.898   6.128   6.088 -1.1437  1.1072  0.4662
   11CHL1   H7B  753   2.026   6.231   6.142  0.1433 -0.0258 -0.5341
   11CHL1    C8  754   2.103   6.053   6.042 -0.5877 -0.6397 -0.3929
   11CHL1    H8  755   2.066   5.951   6.018 -0.7697 -0.4322 -1.0233
   11CHL1   C14  756   2.139   6.132   5.915  0.3919 -0.0817  0.5148
   11CHL1   H14  757   2.183   6.221   5.965  0.7787  0.0877 -0.1143
   11CHL1   C15  758   2.025   6.178   5.826 -0.6796 -0.6369  0.2212
   11CHL1  H15A  759   1.954   6.096   5.804 -2.6028  1.1923 -0.8390
   11CHL1  H15B  760   1.958   6.259   5.864  1.5059  0.4073  2.1057
   11CHL1   C16  761   2.093   6.228   5.698 -1.0804  0.3706  0.8600
   11CHL1  H16A  762   2.052   6.176   5.609  0.0267  2.1033 -0.7150
   11CHL1  H16B  763   2.087   6.339   5.693  0.4203  0.4945  1.3788
   11CHL1   C17  764   2.246   6.200   5.711 -0.2523  1.1454  0.3819
   11CHL1   H17  765   2.283   6.295   5.757  1.9149 -0.0986  1.3612
   11CHL1   C13  766   2.246   6.079   5.821  0.0572  0.1747  0.0896
   11CHL1   C18  767   2.189   5.946   5.760 -0.3852 -0.7389  0.4964
   11CHL1  H18A  768   2.149   5.878   5.839 -2.8391 -0.3923 -0.3678
   11CHL1  H18B  769   2.107   5.956   5.686 -0.7768  0.4153  1.0672
   11CHL1  H18C  770   2.261   5.899   5.690 -1.3481  0.1375 -1.1360
   11CHL1   C12  771   2.382   6.071   5.903  0.0604  1.0011  0.4993
   11CHL1  H12A  772   2.453   6.007   5.845  0.1156  0.9526  0.6215
   11CHL1  H12B  773   2.420   6.172   5.929  1.1686  0.9429 -0.7957
   11CHL1   C11  774   2.367   5.993   6.037  0.2100  0.0060 -0.4607
   11CHL1  H11A  775   2.358   5.889   5.999 -0.6677 -0.9207  2.0441
   11CHL1  H11B  776   2.461   6.014   6.092  0.4374  3.4389 -1.9210
   11CHL1    C9  777   2.239   6.030   6.121 -0.6584 -1.0693 -0.1375
   11CHL1    H9  778   2.263   6.127   6.170 -0.2912 -1.7244  1.0297
   11CHL1   C10  779   2.227   5.944   6.253  0.5014  0.4044 -0.1266
   11CHL1   C19  780   2.204   5.794   6.215  0.2824  0.4470 -0.3660
   11CHL1  H19A  781   2.125   5.780   6.138  0.1313  0.6009 -0.2399
   11CHL1  H19B  782   2.302   5.753   6.180  0.7718  1.4394 -0.1915
   11CHL1  H19C  783   2.175   5.734   6.303 -0.6876 -1.3285 -1.8289
   11CHL1    C1  784   2.352   5.953   6.344 -0.4232 -0.5578 -0.1495
   11CHL1   H1A  785   2.439   5.895   6.304  0.9085  1.1833  0.1080
   11CHL1   H1B  786   2.385   6.059   6.343  1.0533 -0.9936  0.0054
   11CHL1    C2  787   2.330   5.902   6.484  0.3206  0.3554 -0.3222
   11CHL1   H2A  788   2.412   5.925   6.555 -1.4049  2.2554  1.1728
   11CHL1   H2B  789   2.318   5.792   6.478  1.1649  0.0387  2.4407
   11CHL1   C20  790   2.315   6.189   5.570 -0.4667  0.6962  0.6340
   11CHL1   H20  791   2.278   6.103   5.510 -1.1905  1.2105  0.3209
   11CHL1   C21  792   2.467   6.153   5.596 -0.9747  0.0538 -0.2910
   11CHL1  H21A  793   2.480   6.056   5.648 -2.0182  0.1845  0.2361
   11CHL1  H21B  794   2.514   6.223   5.667  2.2774 -1.7349 -0.4946
   11CHL1  H21C  795   2.526   6.160   5.502 -0.3261  0.4309  0.1398
   11CHL1   C22  796   2.293   6.321   5.500 -0.1351 -0.5115 -0.0767
   11CHL1  H22A  797   2.184   6.332   5.481 -0.6639 -1.5463  2.0488
   11CHL1  H22B  798   2.335   6.403   5.563  0.6515 -0.4138 -0.7040
   11CHL1   C23  799   2.347   6.333   5.357  0.5766 -0.1208  0.7664
   11CHL1  H23A  800   2.351   6.441   5.332 -0.8626  0.3395  2.3884
   11CHL1  H23B  801   2.452   6.297   5.357  0.5764 -0.1621 -0.0922
   11CHL1   C24  802   2.268   6.250   5.248  0.4443  0.0255  0.4161
   11CHL1  H24A  803   2.272   6.140   5.264  0.0193 -0.4776 -2.4068
   11CHL1  H24B  804   2.165   6.291   5.244  0.7724  0.9767  1.2782
   11CHL1   C25  805   2.315   6.270   5.099 -0.2592 -0.6674 -0.3563
   11CHL1   H25  806   2.422   6.240   5.087  0.2278  1.3577 -1.5026
   11CHL1   C26  807   2.239   6.170   5.008 -0.1110  0.3796  0.3932
   11CHL1  H26A  808   2.135   6.205   4.988  0.6539  3.0976  0.8645
   11CHL1  H26B  809   2.290   6.152   4.911 -0.4044  0.9152  0.1343
   11CHL1  H26C  810   2.240   6.071   5.060 -1.4863  0.3435  0.4063
   11CHL1   C27  811   2.296   6.413   5.035 -0.2185  0.0293 -0.6450
   11CHL1  H27A  812   2.205   6.463   5.076  0.2322 -1.0610  1.8760
   11CHL1  H27B  813   2.391   6.466   5.056  0.3703 -1.3957  0.4063
   11CHL1  H27C  814   2.290   6.406   4.924 -1.1047  0.8229 -0.6555
   12CHL1    C3  815   2.655   5.410   6.202 -0.0076 -0.3634  0.1168
   12CHL1    H3  816   2.761   5.431   6.181  0.0576 -1.0947 -0.3206
   12CHL1    O3  817   2.635   5.374   6.341  0.4013  0.0122  0.4928
   12CHL1   H3'  818   2.576   5.298   6.339  2.4466 -1.6579 -0.8209
   12CHL1    C4  819   2.578   5.543   6.165 -0.4872  0.4488 -0.0405
   12CHL1   H4A  820   2.473   5.540   6.201 -0.5763 -1.5494 -0.3903
   12CHL1   H4B  821   2.626   5.630   6.215 -0.6359  0.8069 -0.5151
   12CHL1    C5  822   2.583   5.575   6.009 -0.4962  0.3272 -0.2215
   12CHL1    C6  823   2.627   5.699   5.969  0.4192 -0.7900  0.4808
   12CHL1    H6  824   2.652   5.778   6.042  1.2037 -0.3578 -0.2374
   12CHL1    C7  825   2.618   5.748   5.825 -0.0906 -0.0910  1.0506
   12CHL1   H7A  826   2.570   5.848   5.819  1.1207  0.5174  1.2216
   12CHL1   H7B  827   2.725   5.769   5.803  0.2921  0.0775  2.9148
   12CHL1    C8  828   2.561   5.643   5.720  0.1135 -0.4064  0.3788
   12CHL1    H8  829   2.452   5.658   5.705  0.1185 -1.1236 -0.4462
   12CHL1   C14  830   2.638   5.679   5.587  0.3382  0.3749  0.2077
   12CHL1   H14  831   2.745   5.669   5.616  0.4896  0.0688 -0.4409
   12CHL1   C15  832   2.618   5.822   5.523 -0.2229 -0.0789 -0.3204
   12CHL1  H15A  833   2.513   5.855   5.538  0.2184  1.4580 -0.3723
   12CHL1  H15B  834   2.685   5.898   5.570  1.4844 -1.1332 -0.9508
   12CHL1   C16  835   2.657   5.807   5.380  0.0490  0.3701  0.2488
   12CHL1  H16A  836   2.571   5.848   5.323 -0.4438  1.2828  1.6175
   12CHL1  H16B  837   2.753   5.848   5.343 -0.3156  0.6799 -0.3595
   12CHL1   C17  838   2.663   5.649   5.355 -0.8681 -0.0437 -0.1797
   12CHL1   H17  839   2.773   5.637   5.366 -0.4265  2.0822 -1.6700
   12CHL1   C13  840   2.595   5.585   5.470  0.6130  0.3474 -0.5424
   12CHL1   C18  841   2.442   5.594   5.443  0.0962  0.2481 -0.3193
   12CHL1  H18A  842   2.380   5.574   5.533  0.4850  0.0950 -0.0814
   12CHL1  H18B  843   2.417   5.692   5.396  1.5766  0.7149 -0.1969
   12CHL1  H18C  844   2.408   5.518   5.369 -0.6250 -0.1444  0.3963
   12CHL1   C12  845   2.635   5.446   5.520  0.1705  1.1014 -0.1405
   12CHL1  H12A  846   2.603   5.369   5.447  0.5256  0.2474  0.5889
   12CHL1  H12B  847   2.746   5.442   5.528  0.1788  1.6259  0.0438
   12CHL1   C11  848   2.562   5.406   5.651  0.0081  0.5451 -0.5753
   12CHL1  H11A  849   2.453   5.406   5.629 -0.2319 -1.9306  0.3439
   12CHL1  H11B  850   2.584   5.302   5.684  0.0245  0.4906 -0.7540
   12CHL1    C9  851   2.599   5.506   5.768  0.2091  0.2212 -0.5875
   12CHL1    H9  852   2.709   5.506   5.778  0.0688 -0.8722  1.2852
   12CHL1   C10  853   2.549   5.467   5.914  0.1159  0.4315  0.4234
   12CHL1   C19  854   2.392   5.454   5.901  0.0634 -0.2235 -0.0102
   12CHL1  H19A  855   2.371   5.363   5.840  0.7780 -1.3372  1.3274
   12CHL1  H19B  856   2.337   5.425   5.994 -0.9325  4.6028  1.1614
   12CHL1  H19C  857   2.344   5.547   5.865  0.7463  0.0402 -0.2580
   12CHL1    C1  858   2.616   5.326   5.954 -0.2245 -0.7533  0.3495
   12CHL1   H1A  859   2.584   5.244   5.886  0.7003 -1.3451  0.6090
   12CHL1   H1B  860   2.726   5.333   5.939 -0.1468  0.2512  1.2570
   12CHL1    C2  861   2.609   5.291   6.105 -0.3687  0.0112 -0.3180
   12CHL1   H2A  862   2.661   5.195   6.124 -2.3488 -1.5413 -2.0940
   12CHL1   H2B  863   2.503   5.271   6.131  0.1512 -1.0791  1.0624
   12CHL1   C20  864   2.641   5.604   5.217  0.5187 -1.0537  0.7073
   12CHL1   H20  865   2.626   5.494   5.216  0.9079 -1.1289 -1.4171
   12CHL1   C21  866   2.765   5.642   5.137 -0.5364  0.3113 -0.4771
   12CHL1  H21A  867   2.778   5.745   5.096 -1.0090  0.2893 -0.6848
   12CHL1  H21B  868   2.758   5.583   5.043 -0.9812  1.8556 -1.4523
   12CHL1  H21C  869   2.866   5.620   5.180 -0.3014  1.4012 -0.4477
   12CHL1   C22  870   2.513   5.660   5.138 -0.1596  0.1249 -0.0393
   12CHL1  H22A  871   2.417   5.650   5.193  0.4287  0.4159  1.0692
   12CHL1  H22B  872   2.518   5.770   5.133  1.5298  0.0544 -0.6249
   12CHL1   C23  873   2.509   5.612   4.991 -0.2222  0.0579 -0.3487
   12CHL1  H23A  874   2.604   5.649   4.947 -1.3726  3.0148 -0.5558
   12CHL1  H23B  875   2.517   5.502   5.003 -0.6600 -0.1928 -2.1129
   12CHL1   C24  876   2.393   5.663   4.909  0.7256 -0.2281 -0.1943
   12CHL1  H24A  877   2.389   5.771   4.884 -0.3195 -0.5300 -1.3909
   12CHL1  H24B  878   2.412   5.618   4.810  3.3602 -1.5496  0.8343
   12CHL1   C25  879   2.248   5.638   4.961 -0.1881 -0.3867 -0.1529
   12CHL1   H25  880   2.236   5.700   5.052 -0.0593 -0.0181 -0.3849
   12CHL1   C26  881   2.137   5.702   4.867 -0.3447 -0.0500  0.4425
   12CHL1  H26A  882   2.138   5.644   4.772 -0.1838  0.2796  0.2420
   12CHL1  H26B  883   2.039   5.669   4.907  0.1654 -0.1543  1.6697
   12CHL1  H26C  884   2.135   5.812   4.852 -0.0813  0.3211  2.7949
   12CHL1   C27  885   2.221   5.486   4.973  0.2310  0.2562 -0.5529
   12CHL1  H27A  886   2.310   5.432   5.013  0.4814  1.3954  0.4654
   12CHL1  H27B  887   2.137   5.475   5.045  1.2461 -1.0841  0.4850
   12CHL1  H27C  888   2.181   5.442   4.879 -1.0404 -1.6244  0.7974
   13CHL1    C3  889   3.544   5.492   6.290  0.3354  1.1904 -0.0648
   13CHL1    H3  890   3.625   5.416   6.295 -0.7437 -0.1341 -1.7921
   13CHL1    O3  891   3.520   5.547   6.415 -0.2595  0.0346 -0.3072
   13CHL1   H3'  892   3.471   5.628   6.400 -3.4420 -1.6509  0.0907
   13CHL1    C4  893   3.588   5.589   6.193 -0.3545 -0.6927  0.3976
   13CHL1   H4A  894   3.522   5.679   6.190  0.0814 -0.2284  2.9525
   13CHL1   H4B  895   3.680   5.644   6.224 -0.6155 -0.2365  0.3765
   13CHL1    C5  896   3.614   5.530   6.055  0.3033 -0.9901  0.1326
   13CHL1    C6  897   3.733   5.519   5.995 -0.2092  0.1620 -0.8418
   13CHL1    H6  898   3.819   5.568   6.042 -0.1942  1.8358 -2.4891
   13CHL1    C7  899   3.751   5.478   5.855 -1.0373 -0.0734 -0.3815
   13CHL1   H7A  900   3.816   5.553   5.805 -0.4179  0.0766  0.6257
   13CHL1   H7B  901   3.804   5.381   5.850 -0.3846  0.2852 -0.4797
   13CHL1    C8  902   3.616   5.472   5.774  0.2186 -0.0905 -0.2019
   13CHL1    H8  903   3.588   5.576   5.748 -0.3337 -0.4144 -0.9587
   13CHL1   C14  904   3.632   5.369   5.661  0.3441  0.3103 -0.0251
   13CHL1   H14  905   3.638   5.265   5.701 -1.9691 -0.0915 -0.5752
   13CHL1   C15  906   3.756   5.383   5.576 -0.2888 -0.2626  0.6590
   13CHL1  H15A  907   3.776   5.485   5.537 -0.7579 -0.8992 -1.3582
   13CHL1  H15B  908   3.842   5.324   5.614 -0.9060 -0.8603  1.1506
   13CHL1   C16  909   3.719   5.312   5.445  0.8655  0.1685  0.6158
   13CHL1  H16A  910   3.736   5.381   5.359 -0.7432 -0.1877 -0.0430
   13CHL1  H16B  911   3.775   5.223   5.409 -0.5247 -0.6601  0.3923
   13CHL1   C17  912   3.570   5.268   5.448  0.4388  0.1142 -0.1611
   13CHL1   H17  913   3.566   5.164   5.487  0.5837  0.4814  0.8885
   13CHL1   C13  914   3.512   5.353   5.568  0.5834 -0.9695  0.9137
   13CHL1   C18  915   3.484   5.496   5.500  0.2137 -0.6948 -0.1615
   13CHL1  H18A  916   3.570   5.534   5.442 -0.1302 -0.7375 -0.7121
   13CHL1  H18B  917   3.397   5.490   5.431  0.7198  2.3501 -1.2357
   13CHL1  H18C  918   3.449   5.579   5.566  2.0951  0.9481 -1.1257
   13CHL1   C12  919   3.393   5.304   5.646  0.4828 -0.1468 -0.4541
   13CHL1  H12A  920   3.296   5.320   5.593 -1.9847 -2.1915  3.0127
   13CHL1  H12B  921   3.418   5.202   5.681  2.6053  0.5401  0.1566
   13CHL1   C11  922   3.375   5.394   5.774  0.1349  0.3018 -0.2895
   13CHL1  H11A  923   3.346   5.495   5.739 -1.6550 -0.3219 -0.7294
   13CHL1  H11B  924   3.298   5.353   5.842 -0.1374  1.2185 -0.0391
   13CHL1    C9  925   3.502   5.411   5.859  0.6200  0.8773 -0.6207
   13CHL1    H9  926   3.536   5.310   5.892  1.2531  1.3212  0.1252
   13CHL1   C10  927   3.482   5.482   5.992 -0.2819  0.5632  0.1116
   13CHL1   C19  928   3.395   5.606   5.969  0.6216 -0.6365  0.0125
   13CHL1  H19A  929   3.422   5.669   5.882 -1.5982 -0.0683 -0.3040
   13CHL1  H19B  930   3.295   5.571   5.938  1.1494  0.3456 -3.1152
   13CHL1  H19C  931   3.391   5.678   6.054  1.2675 -0.4864 -0.0758
   13CHL1    C1  932   3.423   5.382   6.091  0.2572  0.1692  0.8519
   13CHL1   H1A  933   3.320   5.354   6.062  0.5374  0.2572 -0.2528
   13CHL1   H1B  934   3.491   5.295   6.099 -2.8421 -2.9145 -2.3983
   13CHL1    C2  935   3.408   5.432   6.238 -0.1412  0.2223  0.0720
   13CHL1   H2A  936   3.383   5.352   6.310  2.1545 -1.0659 -0.4665
   13CHL1   H2B  937   3.323   5.504   6.238  0.6061  1.1667 -1.3652
   13CHL1   C20  938   3.501   5.267   5.311  0.0154  0.1593  0.4336
   13CHL1   H20  939   3.479   5.369   5.275  1.7155 -0.2406 -1.9807
   13CHL1   C21  940   3.367   5.195   5.321  0.8172  0.9468  0.3205
   13CHL1  H21A  941   3.304   5.204   5.230  3.9780 -3.2720 -2.6638
   13CHL1  H21B  942   3.318   5.216   5.419  0.7507 -3.4536  1.4574
   13CHL1  H21C  943   3.374   5.085   5.336 -3.8010  0.5998  1.4664
   13CHL1   C22  944   3.583   5.189   5.199  0.0088 -0.5068  0.5105
   13CHL1  H22A  945   3.678   5.246   5.187 -0.1474 -0.3321  0.0606
   13CHL1  H22B  946   3.591   5.088   5.244 -2.2620 -0.4765  1.0918
   13CHL1   C23  947   3.517   5.192   5.060  0.4698  0.4504  0.0197
   13CHL1  H23A  948   3.436   5.116   5.062 -1.0368  1.9892  1.8937
   13CHL1  H23B  949   3.460   5.287   5.051  0.5676  0.5436  0.3526
   13CHL1   C24  950   3.611   5.181   4.945  0.3347 -0.7837  0.6231
   13CHL1  H24A  951   3.671   5.274   4.940  0.7111 -1.0433  0.1205
   13CHL1  H24B  952   3.692   5.110   4.969  0.7827 -0.1756  0.9111
   13CHL1   C25  953   3.543   5.164   4.809  0.0922 -0.6885 -0.1508
   13CHL1   H25  954   3.464   5.087   4.822 -0.2049 -0.8441 -2.4692
   13CHL1   C26  955   3.499   5.302   4.752  0.1110  0.1670  0.1817
   13CHL1  H26A  956   3.585   5.372   4.750  0.5768 -0.4105 -0.7297
   13CHL1  H26B  957   3.453   5.296   4.651  4.2799  1.1057 -1.9776
   13CHL1  H26C  958   3.417   5.341   4.816 -1.0291  0.6858 -1.5309
   13CHL1   C27  959   3.648   5.102   4.718  0.0083 -0.2588 -0.1735
   13CHL1  H27A  960   3.603   5.066   4.623  0.9894 -1.4446 -0.2234
   13CHL1  H27B  961   3.728   5.177   4.702 -0.5575  0.0864 -1.5057
   13CHL1  H27C  962   3.694   5.019   4.776  1.3349  0.0979 -0.6815
   14CHL1    C3  963   3.484   1.566   6.535  0.0674 -0.2284  0.1797
   14CHL1    H3  964   3.564   1.510   6.481 -0.9328  0.2277 -1.8878
   14CHL1    O3  965   3.496   1.561   6.675  0.2118  0.1684 -0.1485
   14CHL1   H3'  966   3.424   1.621   6.694 -0.7276 -0.6296 -1.0936
   14CHL1    C4  967   3.496   1.709   6.494 -0.3391 -0.8068  0.1200
   14CHL1   H4A  968   3.428   1.772   6.556  0.5438  1.2250 -0.9010
   14CHL1   H4B  969   3.591   1.752   6.531 -1.6468  2.3351  0.1199
   14CHL1    C5  970   3.482   1.728   6.344  1.2110 -0.2243  0.0166
   14CHL1    C6  971   3.572   1.790   6.266 -0.0451  0.1272 -0.3890
   14CHL1    H6  972   3.666   1.828   6.307  0.5418  0.3223 -1.8421
   14CHL1    C7  973   3.563   1.813   6.116 -0.2042 -0.0229  1.0074
   14CHL1   H7A  974   3.596   1.915   6.088  0.9373 -0.7056 -0.2678
   14CHL1   H7B  975   3.638   1.745   6.071 -0.6405  0.7209 -0.9650
   14CHL1    C8  976   3.419   1.776   6.060  0.2210  0.4836  0.5391
   14CHL1    H8  977   3.354   1.862   6.089  0.0364  1.3084 -2.0422
   14CHL1   C14  978   3.443   1.756   5.907  0.0433 -0.4274  0.0187
   14CHL1   H14  979   3.512   1.670   5.893 -0.2888 -0.4421 -1.7570
   14CHL1   C15  980   3.501   1.876   5.824 -0.2540 -0.2424  0.8093
   14CHL1  H15A  981   3.481   1.977   5.867  1.6101 -0.5828  2.5892
   14CHL1  H15B  982   3.611   1.876   5.832 -0.3774 -0.0526  2.9740
   14CHL1   C16  983   3.443   1.844   5.679 -0.0544  0.0036  0.1245
   14CHL1  H16A  984   3.373   1.924   5.644 -1.6440 -2.3940 -2.7016
   14CHL1  H16B  985   3.526   1.817   5.610  0.6087 -0.6382  1.1619
   14CHL1   C17  986   3.356   1.715   5.686 -0.2683 -0.2128  0.1391
   14CHL1   H17  987   3.416   1.622   5.676 -2.5330 -1.4982 -3.0931
   14CHL1   C13  988   3.303   1.717   5.833 -0.5347  0.3762 -0.7826
   14CHL1   C18  989   3.196   1.824   5.846  0.1813  0.6047 -0.5101
   14CHL1  H18A  990   3.195   1.874   5.945 -1.4706 -1.0515  0.3636
   14CHL1  H18B  991   3.218   1.902   5.770  1.1329  0.7373 -0.1184
   14CHL1  H18C  992   3.090   1.795   5.829 -0.0298 -0.7879  2.5898
   14CHL1   C12  993   3.260   1.582   5.892  0.3298  0.1768 -0.3403
   14CHL1  H12A  994   3.159   1.549   5.860  0.1982  1.1203 -0.9436
   14CHL1  H12B  995   3.336   1.506   5.864 -0.1567 -1.0617  1.5058
   14CHL1   C11  996   3.247   1.594   6.049  0.4799 -1.0026  0.5818
   14CHL1  H11A  997   3.172   1.672   6.073  0.3040 -0.3651 -1.8144
   14CHL1  H11B  998   3.214   1.493   6.081 -1.0603 -1.2237 -1.5079
   14CHL1    C9  999   3.375   1.641   6.120 -0.1246  0.6453  0.1020
   14CHL1    H9 1000   3.452   1.562   6.111 -1.1565 -0.3545 -0.0958
   14CHL1   C10 1001   3.356   1.653   6.277  0.0733 -0.2984 -0.1580
   14CHL1   C19 1002   3.225   1.731   6.308 -0.4517  0.4758 -0.1321
   14CHL1  H19A 1003   3.232   1.766   6.414  3.4809 -1.6706  0.4964
   14CHL1  H19B 1004   3.202   1.817   6.241 -1.1406 -1.2166 -2.1548
   14CHL1  H19C 1005   3.135   1.667   6.299  0.4775 -0.7019 -1.4306
   14CHL1    C1 1006   3.346   1.514   6.338 -0.2471 -0.2210 -0.4141
   14CHL1   H1A 1007   3.257   1.460   6.299 -1.1549  1.9197 -1.4407
   14CHL1   H1B 1008   3.431   1.460   6.291 -0.0741 -0.5511  0.2611
   14CHL1    C2 1009   3.351   1.506   6.490 -0.2289 -0.4043 -0.0339
   14CHL1   H2A 1010   3.346   1.398   6.514  1.7146 -0.5299 -0.0402
   14CHL1   H2B 1011   3.264   1.550   6.543 -0.2266  1.2713 -1.3057
   14CHL1   C20 1012   3.249   1.713   5.569  0.4447 -0.3150  0.0201
   14CHL1   H20 1013   3.187   1.803   5.589  0.1182 -0.7953  1.2273
   14CHL1   C21 1014   3.153   1.592   5.573  0.0469  0.2889  0.4357
   14CHL1  H21A 1015   3.083   1.603   5.486  0.8186  3.4089  0.0581
   14CHL1  H21B 1016   3.094   1.585   5.667 -1.5308  0.8742 -0.4645
   14CHL1  H21C 1017   3.208   1.496   5.565  0.7377  0.7362 -0.3908
   14CHL1   C22 1018   3.312   1.736   5.433 -0.2121 -0.4616  0.4538
   14CHL1  H22A 1019   3.379   1.824   5.425 -1.0363  0.1090 -0.3428
   14CHL1  H22B 1020   3.380   1.649   5.419 -0.5701 -0.7580  0.5488
   14CHL1   C23 1021   3.229   1.740   5.305 -0.5386 -0.2436 -0.2807
   14CHL1  H23A 1022   3.187   1.639   5.286 -1.1634 -0.4985  2.1730
   14CHL1  H23B 1023   3.139   1.803   5.318 -0.9731 -0.6748 -1.1339
   14CHL1   C24 1024   3.303   1.776   5.171 -0.1232 -0.1747 -0.0517
   14CHL1  H24A 1025   3.343   1.878   5.193 -0.3192 -0.8078  3.8804
   14CHL1  H24B 1026   3.380   1.700   5.147 -1.5268 -1.4258 -0.7382
   14CHL1   C25 1027   3.221   1.778   5.047  0.0918 -0.5297  0.6028
   14CHL1   H25 1028   3.129   1.834   5.076 -0.5306 -1.6571  0.8473
   14CHL1   C26 1029   3.284   1.852   4.928 -0.3314  0.9954 -0.1047
   14CHL1  H26A 1030   3.229   1.826   4.835  1.3535  0.4939 -0.9996
   14CHL1  H26B 1031   3.281   1.962   4.943  1.3544  0.8590  1.4243
   14CHL1  H26C 1032   3.383   1.806   4.908 -1.2146  0.0429 -2.8666
   14CHL1   C27 1033   3.173   1.642   5.003 -0.2097  0.0736  0.1388
   14CHL1  H27A 1034   3.254   1.570   4.978  0.6421  0.5958  1.2949
   14CHL1  H27B 1035   3.114   1.601   5.087  0.6986  0.8969  1.2153
   14CHL1  H27C 1036   3.102   1.649   4.917  0.3170  1.3344 -0.2283
   15CHL1    C3 1037   4.612   2.026   6.639  0.0944  0.6296  0.6958
   15CHL1    H3 1038   4.702   2.090   6.622  0.6892  0.0270  1.4851
   15CHL1    O3 1039   4.592   2.020   6.784  0.7125  0.4825 -0.4758
   15CHL1   H3' 1040   4.591   1.926   6.805  1.0525  0.6527  0.3325
   15CHL1    C4 1041   4.497   2.091   6.564  0.1840 -0.0481 -0.0443
   15CHL1   H4A 1042   4.411   2.025   6.589 -1.2072  0.8664 -2.1491
   15CHL1   H4B 1043   4.466   2.183   6.617  0.2195 -1.0706  1.8544
   15CHL1    C5 1044   4.509   2.092   6.414  0.6538  0.0064 -0.8856
   15CHL1    C6 1045   4.511   2.204   6.343 -0.4405 -0.6682 -0.4146
   15CHL1    H6 1046   4.497   2.295   6.403  0.6314 -1.0124  0.3788
   15CHL1    C7 1047   4.534   2.216   6.193  0.2521 -0.1778  0.3429
   15CHL1   H7A 1048   4.469   2.297   6.153 -0.2519  1.2059  3.6291
   15CHL1   H7B 1049   4.641   2.231   6.169  0.4081 -1.8517 -0.1236
   15CHL1    C8 1050   4.508   2.076   6.127  0.4593 -0.5725  0.0874
   15CHL1    H8 1051   4.401   2.049   6.122  0.7300 -1.5617 -0.7745
   15CHL1   C14 1052   4.558   2.074   5.983  0.4077 -0.3198 -0.0143
   15CHL1   H14 1053   4.668   2.057   5.991  0.4650 -0.2585 -0.6847
   15CHL1   C15 1054   4.536   2.198   5.897  0.2220  0.0907 -0.2182
   15CHL1  H15A 1055   4.430   2.230   5.893  0.1553 -0.0253  0.4254
   15CHL1  H15B 1056   4.608   2.280   5.919  0.9100 -0.1590 -1.4430
   15CHL1   C16 1057   4.563   2.145   5.756  0.2689  0.4459 -0.0960
   15CHL1  H16A 1058   4.466   2.156   5.704 -0.9241 -3.2470  0.9925
   15CHL1  H16B 1059   4.640   2.200   5.699 -0.3133  1.5028  0.1186
   15CHL1   C17 1060   4.582   1.990   5.777  0.3543 -0.4208  0.1958
   15CHL1   H17 1061   4.693   1.981   5.784  0.2213 -2.2860  0.5480
   15CHL1   C13 1062   4.517   1.952   5.910 -0.8597 -0.6107 -0.6501
   15CHL1   C18 1063   4.368   1.929   5.884 -0.1832 -0.5564  0.5556
   15CHL1  H18A 1064   4.310   1.919   5.979 -1.3395 -0.8201 -0.1649
   15CHL1  H18B 1065   4.313   2.014   5.839  1.6278  1.1050  1.3590
   15CHL1  H18C 1066   4.346   1.837   5.825  0.8267 -1.0815  0.9655
   15CHL1   C12 1067   4.581   1.834   5.983 -0.1735 -0.3943  0.6757
   15CHL1  H12A 1068   4.547   1.740   5.934 -2.1166  0.2147  0.7633
   15CHL1  H12B 1069   4.691   1.837   5.968 -0.2285  2.2030  0.3416
   15CHL1   C11 1070   4.553   1.832   6.130 -0.1900  0.0444 -0.3626
   15CHL1  H11A 1071   4.445   1.806   6.130 -0.4732  1.1042 -1.7909
   15CHL1  H11B 1072   4.609   1.751   6.182 -1.1356 -1.4737 -1.6217
   15CHL1    C9 1073   4.578   1.966   6.204 -0.5603 -0.1650  0.9128
   15CHL1    H9 1074   4.686   1.991   6.204 -1.0578  2.1582  1.5848
   15CHL1   C10 1075   4.543   1.957   6.348  0.4118  0.3694 -0.2543
   15CHL1   C19 1076   4.418   1.869   6.369  0.5315  0.1627 -0.2505
   15CHL1  H19A 1077   4.430   1.761   6.346 -0.0943  0.0959 -0.2980
   15CHL1  H19B 1078   4.377   1.876   6.472 -1.1912  1.4489 -0.9751
   15CHL1  H19C 1079   4.339   1.901   6.297  1.7034 -0.4698 -1.8752
   15CHL1    C1 1080   4.661   1.895   6.425  0.1268  0.5040 -0.5604
   15CHL1   H1A 1081   4.684   1.788   6.406  0.1658  0.2116  0.9989
   15CHL1   H1B 1082   4.745   1.962   6.399  0.0387  0.1424 -1.8274
   15CHL1    C2 1083   4.639   1.892   6.577  0.2309 -0.3106  0.5003
   15CHL1   H2A 1084   4.732   1.860   6.629  0.6332  1.6342  1.0811
   15CHL1   H2B 1085   4.563   1.815   6.600 -0.3361  0.1582  0.2459
   15CHL1   C20 1086   4.546   1.916   5.640 -0.4601 -0.7228 -0.7025
   15CHL1   H20 1087   4.438   1.921   5.616 -0.1158  1.7093 -2.0504
   15CHL1   C21 1088   4.604   1.774   5.650  0.2286 -0.1129  0.2970
   15CHL1  H21A 1089   4.542   1.710   5.717  2.3217 -1.8975  0.6387
   15CHL1  H21B 1090   4.709   1.774   5.686 -0.2025  0.8249  1.6456
   15CHL1  H21C 1091   4.605   1.713   5.557  1.1529 -0.4552  0.5189
   15CHL1   C22 1092   4.630   1.975   5.521  0.0079 -0.2457  0.5896
   15CHL1  H22A 1093   4.575   2.068   5.496  0.8245  0.1714  0.3370
   15CHL1  H22B 1094   4.737   1.993   5.543  0.3945  2.3758 -2.5886
   15CHL1   C23 1095   4.649   1.887   5.390  0.0564  0.2732  0.0288
   15CHL1  H23A 1096   4.708   1.795   5.410 -1.0162 -0.1863  1.2203
   15CHL1  H23B 1097   4.552   1.839   5.364 -0.6952  1.0072  1.4059
   15CHL1   C24 1098   4.706   1.961   5.272 -0.1709 -0.2598  0.2680
   15CHL1  H24A 1099   4.808   1.992   5.304  0.5112 -1.7463 -0.4073
   15CHL1  H24B 1100   4.716   1.900   5.180 -1.3929  1.4269 -1.0761
   15CHL1   C25 1101   4.633   2.087   5.216  0.6865  0.9486 -0.6381
   15CHL1   H25 1102   4.597   2.160   5.291  1.6878 -0.1110  0.9305
   15CHL1   C26 1103   4.712   2.169   5.113 -0.4884 -0.0657  0.1586
   15CHL1  H26A 1104   4.790   2.212   5.180 -0.1104  0.4291 -0.5920
   15CHL1  H26B 1105   4.751   2.103   5.033 -1.3106  1.1915 -1.3183
   15CHL1  H26C 1106   4.641   2.239   5.065 -0.9977 -1.2639 -0.8819
   15CHL1   C27 1107   4.503   2.044   5.146  0.1775 -0.0070  0.0811
   15CHL1  H27A 1108   4.464   2.120   5.075 -0.8283 -0.1335  0.4824
   15CHL1  H27B 1109   4.530   1.951   5.092 -1.3317 -1.5371  1.8309
   15CHL1  H27C 1110   4.429   2.038   5.228  0.3297 -1.8764  0.1250
   16CHL1    C3 1111   0.924   6.359   6.233 -0.6233 -0.2588  0.2695
   16CHL1    H3 1112   0.990   6.269   6.235 -0.2066  0.0465  0.2762
   16CHL1    O3 1113   0.920   6.414   6.361  0.0972  0.6863 -0.6143
   16CHL1   H3' 1114   0.867   6.360   6.420  2.3810  1.9352  2.8705
   16CHL1    C4 1115   0.999   6.469   6.153 -0.3911  0.0867  0.8690
   16CHL1   H4A 1116   0.934   6.559   6.160  1.6075  1.6864 -0.2396
   16CHL1   H4B 1117   1.098   6.483   6.201  0.7180  1.7681 -1.6977
   16CHL1    C5 1118   1.007   6.427   6.003 -0.1785  1.0635 -0.0322
   16CHL1    C6 1119   1.128   6.424   5.942 -0.6772 -0.5453  0.1356
   16CHL1    H6 1120   1.219   6.430   6.003 -1.2517 -2.6252  1.3245
   16CHL1    C7 1121   1.147   6.376   5.796  0.6906 -0.5507  0.4128
   16CHL1   H7A 1122   1.219   6.438   5.738 -3.0684  1.1206 -2.9399
   16CHL1   H7B 1123   1.175   6.268   5.802 -0.2075 -0.7196  2.0565
   16CHL1    C8 1124   1.007   6.393   5.728  0.1891 -0.8562  0.3397
   16CHL1    H8 1125   0.977   6.499   5.711  1.2898 -0.5016  0.5235
   16CHL1   C14 1126   1.023   6.329   5.587  0.6714  0.5309 -0.8120
   16CHL1   H14 1127   1.056   6.224   5.605  0.8185  0.8435  0.8283
   16CHL1   C15 1128   1.131   6.381   5.500  0.3408  0.5053 -0.4841
   16CHL1  H15A 1129   1.146   6.491   5.506  1.1450  0.5798 -3.0082
   16CHL1  H15B 1130   1.232   6.348   5.530  1.4438  4.2830  0.5171
   16CHL1   C16 1131   1.081   6.345   5.352 -0.2526 -0.3151  0.0159
   16CHL1  H16A 1132   1.062   6.442   5.302  0.5932 -0.6452 -0.9732
   16CHL1  H16B 1133   1.153   6.299   5.282 -0.6712 -2.0509  0.6652
   16CHL1   C17 1134   0.942   6.272   5.368 -1.1365  0.5946  0.1039
   16CHL1   H17 1135   0.971   6.165   5.380  1.6637  1.1768 -0.9150
   16CHL1   C13 1136   0.896   6.328   5.503  0.0627 -0.3689 -0.2587
   16CHL1   C18 1137   0.842   6.471   5.482  0.3287  0.5858 -0.0228
   16CHL1  H18A 1138   0.815   6.511   5.582  0.8622  3.2832 -0.8850
   16CHL1  H18B 1139   0.917   6.543   5.443  0.3064  1.0750  0.8136
   16CHL1  H18C 1140   0.761   6.463   5.406  1.1957 -0.2160 -0.9061
   16CHL1   C12 1141   0.792   6.235   5.582  0.3421  0.1127 -1.1883
   16CHL1  H12A 1142   0.696   6.229   5.527 -0.4262 -1.4917  0.2189
   16CHL1  H12B 1143   0.837   6.134   5.598  0.4698  0.5219  1.5735
   16CHL1   C11 1144   0.762   6.289   5.728  0.0473 -0.1306 -0.3120
   16CHL1  H11A 1145   0.708   6.385   5.713  1.2685  0.6972  0.4336
   16CHL1  H11B 1146   0.705   6.210   5.781 -0.1831  1.0134  1.2441
   16CHL1    C9 1147   0.895   6.322   5.802 -0.4938 -0.4919 -0.2996
   16CHL1    H9 1148   0.938   6.220   5.808  0.5570 -0.0829 -0.6212
   16CHL1   C10 1149   0.875   6.387   5.942  0.1160 -0.0992 -0.0641
   16CHL1   C19 1150   0.784   6.514   5.941  0.7799 -0.0578  0.4373
   16CHL1  H19A 1151   0.785   6.578   6.032 -2.3882 -1.1326  1.3556
   16CHL1  H19B 1152   0.777   6.570   5.845 -1.9219 -0.9637  0.0064
   16CHL1  H19C 1153   0.681   6.473   5.950  1.3284 -1.3142  1.1869
   16CHL1    C1 1154   0.805   6.285   6.025  0.1018 -0.2586 -0.6627
   16CHL1   H1A 1155   0.700   6.268   5.994  0.0329 -1.6987  0.2465
   16CHL1   H1B 1156   0.859   6.188   6.026  0.5602 -0.0639  2.4512
   16CHL1    C2 1157   0.791   6.314   6.179  0.3312  0.8328 -0.1539
   16CHL1   H2A 1158   0.758   6.222   6.233  2.8593 -1.2899 -1.9419
   16CHL1   H2B 1159   0.716   6.390   6.208 -1.6165 -1.4159  1.1085
   16CHL1   C20 1160   0.855   6.270   5.241  0.1213 -0.2076  0.5462
   16CHL1   H20 1161   0.813   6.371   5.223  0.6419 -0.1897 -0.7284
   16CHL1   C21 1162   0.727   6.186   5.256  0.4580  0.2565 -0.0123
   16CHL1  H21A 1163   0.743   6.094   5.315 -1.0768  0.9659  1.6009
   16CHL1  H21B 1164   0.675   6.164   5.160  2.5261 -0.8101 -0.9439
   16CHL1  H21C 1165   0.655   6.240   5.321 -0.0574  1.7956 -1.7422
   16CHL1   C22 1166   0.937   6.240   5.106  0.8663 -0.5776 -0.3853
   16CHL1  H22A 1167   0.861   6.262   5.028 -1.2811 -1.5093  1.3401
   16CHL1  H22B 1168   1.007   6.325   5.098 -0.0244  0.1003 -1.2133
   16CHL1   C23 1169   1.000   6.101   5.110 -0.2572  0.3034 -0.0782
   16CHL1  H23A 1170   1.072   6.095   5.195  0.4761 -2.5757 -0.7703
   16CHL1  H23B 1171   0.921   6.028   5.135 -0.1412  0.1631 -0.1141
   16CHL1   C24 1172   1.076   6.061   4.980  0.4357 -0.3806 -0.3142
   16CHL1  H24A 1173   1.174   6.112   4.985 -1.3672  3.2828  0.8803
   16CHL1  H24B 1174   1.094   5.952   4.999 -1.9701 -0.6370  0.8805
   16CHL1   C25 1175   1.008   6.091   4.846 -0.3315 -0.3363 -0.0080
   16CHL1   H25 1176   0.944   6.181   4.856  0.0758 -0.1781  1.2951
   16CHL1   C26 1177   1.113   6.108   4.739  0.9107  0.0790 -0.1189
   16CHL1  H26A 1178   1.176   6.198   4.757  3.1902 -1.8223  2.4143
   16CHL1  H26B 1179   1.180   6.019   4.733  0.3364 -0.5495  1.9458
   16CHL1  H26C 1180   1.052   6.120   4.647  2.1341  0.0497 -0.9607
   16CHL1   C27 1181   0.901   5.984   4.813  0.1917 -0.0353 -0.1121
   16CHL1  H27A 1182   0.848   6.005   4.717 -0.4940 -0.9180  0.0619
   16CHL1  H27B 1183   0.966   5.902   4.776  0.3374 -0.7392  1.6340
   16CHL1  H27C 1184   0.838   5.949   4.897 -1.4277  1.1076 -0.7960
   17CHL1    C3 1185   3.236   2.742   6.640  0.5703  0.4587  0.5239
   17CHL1    H3 1186   3.294   2.836   6.639 -1.3981  1.7324  0.4932
   17CHL1    O3 1187   3.211   2.690   6.770 -0.0272 -0.3391 -0.3663
   17CHL1   H3' 1188   3.158   2.612   6.752  0.8799 -1.3769  1.2225
   17CHL1    C4 1189   3.099   2.764   6.566 -0.6453  0.1466  1.1267
   17CHL1   H4A 1190   3.046   2.667   6.563 -4.4046  2.0024 -1.7521
   17CHL1   H4B 1191   3.032   2.835   6.620  0.1928  1.8715 -0.0261
   17CHL1    C5 1192   3.129   2.820   6.427 -0.3947  0.3966  0.1797
   17CHL1    C6 1193   3.076   2.936   6.386  0.2065  0.1097  0.3209
   17CHL1    H6 1194   3.015   2.997   6.455  2.5584  1.6904  1.1193
   17CHL1    C7 1195   3.099   2.997   6.253  0.5693 -0.6417  0.3984
   17CHL1   H7A 1196   3.009   3.051   6.217  0.6981 -0.8188 -0.1936
   17CHL1   H7B 1197   3.186   3.065   6.264  1.0878 -1.5479  2.5159
   17CHL1    C8 1198   3.150   2.890   6.151 -0.1650  0.8984 -0.1762
   17CHL1    H8 1199   3.070   2.818   6.123  0.5227  0.0168  0.0573
   17CHL1   C14 1200   3.204   2.960   6.024  0.2308 -0.0248 -0.6741
   17CHL1   H14 1201   3.287   3.020   6.065  0.4828 -1.1518  0.5256
   17CHL1   C15 1202   3.105   3.051   5.951  0.1381 -0.0273 -0.5465
   17CHL1  H15A 1203   3.011   2.998   5.926  1.2464 -3.1934  1.4126
   17CHL1  H15B 1204   3.072   3.139   6.010  1.0493 -0.1695  0.1997
   17CHL1   C16 1205   3.179   3.090   5.824  0.2925 -0.2689  0.1353
   17CHL1  H16A 1206   3.121   3.071   5.731  0.5314 -0.6143  0.0528
   17CHL1  H16B 1207   3.201   3.197   5.840  0.6088 -0.4534  1.0189
   17CHL1   C17 1208   3.305   2.994   5.823  0.3250  0.2619 -0.3279
   17CHL1   H17 1209   3.382   3.048   5.881 -0.5379  0.8541  0.2820
   17CHL1   C13 1210   3.271   2.881   5.925  0.6388  0.1644 -0.1590
   17CHL1   C18 1211   3.157   2.786   5.862 -1.2879  0.2123  0.0736
   17CHL1  H18A 1212   3.091   2.840   5.790 -0.2183  0.1276 -1.0069
   17CHL1  H18B 1213   3.195   2.704   5.798 -0.0544 -0.8323  2.0532
   17CHL1  H18C 1214   3.085   2.736   5.929 -0.8976  0.2847  0.5544
   17CHL1   C12 1215   3.384   2.813   5.985  0.3506 -0.3520 -0.6237
   17CHL1  H12A 1216   3.444   2.740   5.926  0.2547 -1.1455  0.2438
   17CHL1  H12B 1217   3.453   2.893   6.021  0.1664 -0.5998  0.3167
   17CHL1   C11 1218   3.345   2.726   6.107  0.0207 -0.2974 -0.0206
   17CHL1  H11A 1219   3.275   2.655   6.059 -0.1847  1.1529 -2.0063
   17CHL1  H11B 1220   3.437   2.678   6.148  1.5062  3.3066  1.2775
   17CHL1    C9 1221   3.261   2.807   6.215 -1.2362 -0.7404 -0.2767
   17CHL1    H9 1222   3.338   2.880   6.247 -0.2999 -1.3239 -1.1400
   17CHL1   C10 1223   3.221   2.730   6.344  0.1914 -0.3801  0.3379
   17CHL1   C19 1224   3.147   2.604   6.308 -0.2613 -0.7367  0.2336
   17CHL1  H19A 1225   3.146   2.528   6.389  1.3411 -0.5202  0.4990
   17CHL1  H19B 1226   3.044   2.620   6.271  0.2629  0.7440 -0.7140
   17CHL1  H19C 1227   3.200   2.558   6.221  1.6884  0.3240  0.7910
   17CHL1    C1 1228   3.354   2.693   6.417  0.3089  0.7893 -0.8441
   17CHL1   H1A 1229   3.407   2.614   6.359  0.5370  1.1323 -1.0986
   17CHL1   H1B 1230   3.419   2.781   6.433  0.6820  0.0488  2.4138
   17CHL1    C2 1231   3.320   2.630   6.559 -0.2751 -0.0881  0.1364
   17CHL1   H2A 1232   3.413   2.619   6.619  0.1624 -2.8365 -0.9393
   17CHL1   H2B 1233   3.259   2.538   6.547  1.4660 -0.9046 -4.2630
   17CHL1   C20 1234   3.367   2.954   5.685  0.2875 -0.2173  0.4115
   17CHL1   H20 1235   3.445   2.880   5.712  1.6727  0.5239 -1.3875
   17CHL1   C21 1236   3.438   3.085   5.634  0.0247 -0.0166  0.2062
   17CHL1  H21A 1237   3.529   3.102   5.696  1.0981 -2.0010 -0.7435
   17CHL1  H21B 1238   3.364   3.167   5.642  0.0803 -0.0712  1.6247
   17CHL1  H21C 1239   3.468   3.080   5.527  1.8649  0.5711  0.6471
   17CHL1   C22 1240   3.272   2.894   5.580 -0.3364  0.6749 -0.2279
   17CHL1  H22A 1241   3.221   2.803   5.620 -1.4337  0.7474 -1.3859
   17CHL1  H22B 1242   3.195   2.964   5.541  0.3285  1.0643 -0.8588
   17CHL1   C23 1243   3.338   2.815   5.465 -0.2141  0.0790 -0.8377
   17CHL1  H23A 1244   3.418   2.877   5.419  0.0980  0.4531  0.1897
   17CHL1  H23B 1245   3.395   2.729   5.504  1.0803  2.0075  1.8557
   17CHL1   C24 1246   3.237   2.770   5.364 -0.0688  0.0019  0.6990
   17CHL1  H24A 1247   3.159   2.718   5.423 -1.0450 -0.3940 -0.8909
   17CHL1  H24B 1248   3.184   2.853   5.313 -3.0462 -1.4851  1.1793
   17CHL1   C25 1249   3.293   2.674   5.254 -0.1027 -0.4756  0.1477
   17CHL1   H25 1250   3.212   2.640   5.187  0.7784  1.0250 -1.7521
   17CHL1   C26 1251   3.403   2.738   5.157  0.2809  0.1626 -0.0525
   17CHL1  H26A 1252   3.361   2.813   5.087  2.7945  1.8293  0.0928
   17CHL1  H26B 1253   3.490   2.784   5.209  0.8687 -0.3672 -0.5546
   17CHL1  H26C 1254   3.450   2.660   5.093 -1.4236  0.3721 -1.6525
   17CHL1   C27 1255   3.344   2.543   5.311 -0.0424 -0.1750 -0.2363
   17CHL1  H27A 1256   3.268   2.506   5.383  0.4863 -0.4289  0.2044
   17CHL1  H27B 1257   3.354   2.464   5.233 -0.0773 -1.3731  0.9344
   17CHL1  H27C 1258   3.444   2.555   5.360  0.0617  2.7797 -1.0126
   18CHL1    C3 1259   2.967   5.169   6.269 -0.7428 -0.2431 -0.4499
   18CHL1    H3 1260   2.868   5.220   6.262 -1.3971 -1.4760 -0.5284
   18CHL1    O3 1261   3.001   5.161   6.403 -0.1210  0.0247 -0.1594
   18CHL1   H3' 1262   3.070   5.093   6.405 -0.7491 -0.6795 -1.3923
   18CHL1    C4 1263   2.951   5.029   6.212 -0.2962 -0.3653 -0.2785
   18CHL1   H4A 1264   3.041   4.966   6.232  1.4740  2.2371  0.4751
   18CHL1   H4B 1265   2.871   4.980   6.271 -0.8948 -0.1497 -0.8966
   18CHL1    C5 1266   2.929   5.032   6.063  0.0061 -0.4379  0.8651
   18CHL1    C6 1267   2.826   4.955   6.011 -0.0474 -0.5781 -0.0896
   18CHL1    H6 1268   2.773   4.886   6.078  1.3707 -0.9725  0.6589
   18CHL1    C7 1269   2.784   4.950   5.866  0.1220 -0.9312  0.5934
   18CHL1   H7A 1270   2.738   4.852   5.841 -0.6899 -0.5284  0.4675
   18CHL1   H7B 1271   2.698   5.021   5.865  0.9062  0.0438  0.4959
   18CHL1    C8 1272   2.889   5.007   5.769 -0.1505  0.0728 -0.2424
   18CHL1    H8 1273   2.959   4.920   5.770  0.6943  0.5753  4.0233
   18CHL1   C14 1274   2.821   5.037   5.638  0.0518  0.6712 -0.1730
   18CHL1   H14 1275   2.750   5.116   5.670 -0.9137 -1.3370  3.0863
   18CHL1   C15 1276   2.736   4.927   5.573 -0.1087  0.2114 -0.2110
   18CHL1  H15A 1277   2.791   4.831   5.575 -0.4741 -0.1223 -2.5887
   18CHL1  H15B 1278   2.636   4.916   5.619  0.8920  1.1623  2.3567
   18CHL1   C16 1279   2.731   4.977   5.425  0.0438  0.3300 -0.1187
   18CHL1  H16A 1280   2.783   4.897   5.368  0.3348  1.2831 -1.2192
   18CHL1  H16B 1281   2.629   4.998   5.387 -0.7453 -1.0494  1.1233
   18CHL1   C17 1282   2.827   5.103   5.408  0.1022 -0.3365  0.0783
   18CHL1   H17 1283   2.768   5.193   5.436 -0.2289 -0.4354 -0.3069
   18CHL1   C13 1284   2.918   5.094   5.531 -0.7479  1.0830 -0.0104
   18CHL1   C18 1285   3.029   4.981   5.502 -0.1237  0.4453 -0.2577
   18CHL1  H18A 1286   3.080   4.968   5.600  0.5614  1.7220 -0.4246
   18CHL1  H18B 1287   2.982   4.887   5.466 -0.1423  0.1569  0.4996
   18CHL1  H18C 1288   3.110   5.008   5.432 -0.4124  1.1485 -0.3388
   18CHL1   C12 1289   2.988   5.220   5.581  0.0708  0.4311  0.2471
   18CHL1  H12A 1290   3.059   5.256   5.503 -0.1745 -0.0558 -0.2052
   18CHL1  H12B 1291   2.912   5.300   5.592 -0.8541 -0.4699  0.5352
   18CHL1   C11 1292   3.049   5.204   5.717  0.1263  0.1639  0.1135
   18CHL1  H11A 1293   3.144   5.147   5.704 -0.8798 -1.3031 -1.0654
   18CHL1  H11B 1294   3.078   5.307   5.746  0.1690  0.0065  0.6349
   18CHL1    C9 1295   2.957   5.136   5.819  0.1643  0.6591 -0.0350
   18CHL1    H9 1296   2.869   5.203   5.832  2.0529  2.9294  1.9035
   18CHL1   C10 1297   3.019   5.126   5.967  1.1962  0.4370 -0.5765
   18CHL1   C19 1298   3.157   5.073   5.947  0.0316  0.5273  0.6863
   18CHL1  H19A 1299   3.158   4.987   5.878  2.4288  0.3055  0.9351
   18CHL1  H19B 1300   3.237   5.143   5.912  1.0003 -1.6204 -1.6665
   18CHL1  H19C 1301   3.204   5.040   6.041 -1.3391  0.8935  1.5296
   18CHL1    C1 1302   3.026   5.263   6.045 -0.2022 -0.4790  0.0244
   18CHL1   H1A 1303   3.105   5.322   5.994  1.5443 -1.5904  1.2982
   18CHL1   H1B 1304   2.929   5.317   6.044  0.6595  1.1500  0.4796
   18CHL1    C2 1305   3.070   5.257   6.196 -0.1651 -0.2452  0.1822
   18CHL1   H2A 1306   3.073   5.360   6.236 -1.4017 -0.6747  1.4527
   18CHL1   H2B 1307   3.172   5.212   6.190  0.1334  0.4326  0.0698
   18CHL1   C20 1308   2.887   5.141   5.281  0.0675 -0.6212  0.0280
   18CHL1   H20 1309   2.987   5.185   5.303  0.4080 -1.0930 -0.5200
   18CHL1   C21 1310   2.806   5.262   5.220  0.1612 -0.4768  0.1853
   18CHL1  H21A 1311   2.700   5.232   5.237  0.6149 -1.8116  0.8205
   18CHL1  H21B 1312   2.854   5.294   5.125 -0.6083  0.5885  0.1396
   18CHL1  H21C 1313   2.813   5.348   5.290  1.7115 -0.6228  0.2334
   18CHL1   C22 1314   2.918   5.024   5.186 -0.2376 -0.3742  0.6109
   18CHL1  H22A 1315   2.977   4.949   5.243  0.6881 -0.6015 -0.6150
   18CHL1  H22B 1316   2.823   4.976   5.154 -1.0602  1.9355 -0.6633
   18CHL1   C23 1317   3.011   5.064   5.066 -0.3325 -0.3769 -0.3042
   18CHL1  H23A 1318   2.974   5.152   5.010 -1.5986  0.0050  1.0514
   18CHL1  H23B 1319   3.113   5.088   5.104 -0.1715 -1.6025  0.0621
   18CHL1   C24 1320   3.036   4.935   4.981 -0.7199  0.6599  0.1857
   18CHL1  H24A 1321   3.071   4.854   5.048 -0.3810  0.6236 -0.0309
   18CHL1  H24B 1322   2.943   4.900   4.931  0.3810 -0.1741 -1.3818
   18CHL1   C25 1323   3.139   4.968   4.873  0.8424  0.0024 -1.3729
   18CHL1   H25 1324   3.222   5.036   4.901  1.4379 -1.3083  0.1999
   18CHL1   C26 1325   3.211   4.837   4.841 -0.1314  0.9557  0.2233
   18CHL1  H26A 1326   3.293   4.861   4.770  1.3319 -0.3545  1.3957
   18CHL1  H26B 1327   3.261   4.789   4.928 -0.3572  1.1267  0.4514
   18CHL1  H26C 1328   3.138   4.765   4.798 -1.2145  1.8163  0.5562
   18CHL1   C27 1329   3.063   5.035   4.762  0.2933 -0.4555  0.5371
   18CHL1  H27A 1330   3.020   5.131   4.796  1.7408 -0.1045  1.4323
   18CHL1  H27B 1331   3.125   5.058   4.672 -0.5565 -0.6630 -0.1230
   18CHL1  H27C 1332   2.980   4.974   4.719  1.9206 -1.6097 -1.1551
   19CHL1    C3 1333   2.808   3.931   6.426 -0.3321 -0.3353 -1.4375
   19CHL1    H3 1334   2.911   3.906   6.458 -0.0803  2.1446 -0.0940
   19CHL1    O3 1335   2.726   3.931   6.541  0.5433  0.0964 -0.0022
   19CHL1   H3' 1336   2.772   3.997   6.593  0.2703  2.3705 -2.4349
   19CHL1    C4 1337   2.811   4.064   6.354 -0.2659  0.5636  0.3043
   19CHL1   H4A 1338   2.710   4.099   6.322 -0.5308 -0.1166  0.3823
   19CHL1   H4B 1339   2.857   4.141   6.419 -1.1938  0.7465  0.7588
   19CHL1    C5 1340   2.884   4.066   6.223 -0.6313  0.1391  0.4514
   19CHL1    C6 1341   2.983   4.158   6.188  0.4044  0.4436  0.3103
   19CHL1    H6 1342   3.013   4.235   6.260 -1.0979 -0.3011  1.8186
   19CHL1    C7 1343   3.052   4.162   6.057 -0.5235 -0.5927 -0.1856
   19CHL1   H7A 1344   3.054   4.270   6.031  0.8022  0.3553  3.3274
   19CHL1   H7B 1345   3.157   4.129   6.073 -0.8675 -0.9638  1.4849
   19CHL1    C8 1346   2.995   4.076   5.946 -0.1447 -0.1815 -0.8612
   19CHL1    H8 1347   2.900   4.124   5.913 -0.8081 -0.4105  0.6315
   19CHL1   C14 1348   3.090   4.053   5.833 -0.1039 -0.0578  0.3502
   19CHL1   H14 1349   3.172   3.997   5.882  0.3039  1.0713  1.0087
   19CHL1   C15 1350   3.162   4.175   5.760  0.6881 -0.3864 -0.4137
   19CHL1  H15A 1351   3.092   4.259   5.739 -1.4238 -2.1615 -0.9144
   19CHL1  H15B 1352   3.248   4.213   5.819 -1.0107  2.7232  0.2578
   19CHL1   C16 1353   3.212   4.115   5.627 -0.4920 -0.5327 -0.0960
   19CHL1  H16A 1354   3.182   4.186   5.547 -0.9919 -2.4578 -1.7077
   19CHL1  H16B 1355   3.322   4.103   5.625 -0.1589  2.0979 -0.3413
   19CHL1   C17 1356   3.145   3.975   5.606 -0.4107  0.0466 -0.0760
   19CHL1   H17 1357   3.227   3.908   5.642 -0.4441  0.1821  0.2553
   19CHL1   C13 1358   3.032   3.973   5.712  1.0912  0.1104  0.6975
   19CHL1   C18 1359   2.904   4.041   5.654 -0.0127  0.5638  0.0610
   19CHL1  H18A 1360   2.818   4.058   5.722  2.2741  0.8422  3.0888
   19CHL1  H18B 1361   2.921   4.140   5.607  0.8623  0.2877 -0.2314
   19CHL1  H18C 1362   2.867   3.979   5.569 -1.7555 -0.4816  1.5033
   19CHL1   C12 1363   2.993   3.835   5.771 -0.2342  0.6064  0.0173
   19CHL1  H12A 1364   2.949   3.766   5.697 -1.6435  2.2325 -0.7061
   19CHL1  H12B 1365   3.087   3.783   5.804 -0.8538  0.0186  0.9124
   19CHL1   C11 1366   2.891   3.862   5.884 -0.6051  0.6312 -0.3443
   19CHL1  H11A 1367   2.795   3.906   5.848 -0.8194  1.7593  1.4629
   19CHL1  H11B 1368   2.857   3.771   5.938  1.1982  0.2913  0.2851
   19CHL1    C9 1369   2.952   3.941   6.004  0.6693  0.7747  0.4971
   19CHL1    H9 1370   3.046   3.893   6.037  0.2203 -1.9538 -1.7613
   19CHL1   C10 1371   2.848   3.956   6.122 -0.3630  0.6603 -0.0109
   19CHL1   C19 1372   2.707   3.985   6.072  0.7166  0.6138 -0.3683
   19CHL1  H19A 1373   2.705   4.075   6.006  3.4929  1.1793  0.1988
   19CHL1  H19B 1374   2.667   3.898   6.016  0.4180 -0.0442  0.8463
   19CHL1  H19C 1375   2.635   3.999   6.155  0.7749 -1.5928  0.0984
   19CHL1    C1 1376   2.841   3.823   6.205  0.3733 -0.0388 -0.4272
   19CHL1   H1A 1377   2.794   3.742   6.145 -0.2088 -0.8522  1.0760
   19CHL1   H1B 1378   2.947   3.803   6.227  0.6557 -2.0723 -3.1431
   19CHL1    C2 1379   2.757   3.820   6.335  0.0648 -0.9182 -0.8845
   19CHL1   H2A 1380   2.759   3.724   6.390 -0.7481 -0.4037  0.0662
   19CHL1   H2B 1381   2.652   3.837   6.305  0.0084  1.8225  0.5415
   19CHL1   C20 1382   3.124   3.931   5.455 -0.0724 -0.0568  0.5383
   19CHL1   H20 1383   3.072   4.010   5.397  0.4294  1.8260  2.4937
   19CHL1   C21 1384   3.032   3.803   5.439  0.5689  0.0465 -0.3230
   19CHL1  H21A 1385   2.930   3.819   5.478  0.5723 -0.6776 -0.0142
   19CHL1  H21B 1386   3.081   3.718   5.491 -0.0312 -0.5634 -0.7455
   19CHL1  H21C 1387   3.015   3.778   5.332 -1.8023  0.1556 -0.0175
   19CHL1   C22 1388   3.261   3.904   5.384 -0.3277  0.5858  0.1254
   19CHL1  H22A 1389   3.331   3.987   5.409 -0.6241  0.2893  2.0532
   19CHL1  H22B 1390   3.307   3.806   5.407 -0.8625  0.7408  2.0080
   19CHL1   C23 1391   3.256   3.896   5.228 -0.2407 -0.0289 -0.1754
   19CHL1  H23A 1392   3.178   3.827   5.191  1.5334 -2.1998 -0.1134
   19CHL1  H23B 1393   3.224   4.000   5.204  1.2904  0.7835  1.0814
   19CHL1   C24 1394   3.391   3.869   5.155 -0.2094  0.1275  0.7391
   19CHL1  H24A 1395   3.455   3.957   5.175 -1.9921  1.8649 -0.7112
   19CHL1  H24B 1396   3.447   3.778   5.183  0.6219  0.1984 -0.6333
   19CHL1   C25 1397   3.381   3.862   4.995  0.1091  0.5222  0.3085
   19CHL1   H25 1398   3.311   3.942   4.965 -0.5528 -0.9329 -2.2762
   19CHL1   C26 1399   3.505   3.909   4.923  0.8367  0.8003 -0.1561
   19CHL1  H26A 1400   3.577   3.825   4.931 -0.9441 -0.7476  0.1673
   19CHL1  H26B 1401   3.480   3.908   4.814  1.1899 -0.2340 -0.2316
   19CHL1  H26C 1402   3.545   4.011   4.941  0.5695  0.7255  0.9071
   19CHL1   C27 1403   3.322   3.729   4.946  0.2860  0.2230 -0.6206
   19CHL1  H27A 1404   3.241   3.695   5.014 -0.0222  1.4482 -0.3467
   19CHL1  H27B 1405   3.290   3.741   4.841  2.0817  1.8516 -1.0548
   19CHL1  H27C 1406   3.400   3.651   4.956 -0.8026 -0.8485 -0.3282
   20CHL1    C3 1407   1.053   4.835   6.400  0.7708 -0.3188 -0.4140
   20CHL1    H3 1408   1.095   4.936   6.416  0.2373  0.0592 -1.3081
   20CHL1    O3 1409   1.005   4.787   6.529 -0.4086 -0.1767  0.2173
   20CHL1   H3' 1410   0.943   4.716   6.512 -0.4560 -0.1486  0.2735
   20CHL1    C4 1411   0.932   4.836   6.312 -0.0594 -0.0097  0.5342
   20CHL1   H4A 1412   0.888   4.734   6.312 -3.2390  1.2238 -1.3266
   20CHL1   H4B 1413   0.847   4.897   6.347  0.3098  1.1930 -0.5750
   20CHL1    C5 1414   0.973   4.874   6.172  0.1974  0.4668  0.0191
   20CHL1    C6 1415   0.922   4.985   6.116  0.6157  0.0757 -0.7222
   20CHL1    H6 1416   0.841   5.034   6.171 -0.3087 -0.3324 -1.6724
   20CHL1    C7 1417   0.959   5.035   5.981  0.3561 -0.2025 -0.0078
   20CHL1   H7A 1418   0.869   5.086   5.940  0.7749  0.7789  0.2692
   20CHL1   H7B 1419   1.035   5.115   5.991 -0.2517  0.5022 -0.8393
   20CHL1    C8 1420   1.030   4.928   5.891  0.3864  0.1266 -0.8409
   20CHL1    H8 1421   0.960   4.856   5.842  2.1857 -0.4039 -2.8256
   20CHL1   C14 1422   1.103   4.995   5.776  0.0250  0.1450  0.0021
   20CHL1   H14 1423   1.184   5.060   5.816  1.8228 -0.4071 -2.5034
   20CHL1   C15 1424   1.022   5.095   5.687 -0.2539  0.3501 -0.2706
   20CHL1  H15A 1425   0.930   5.036   5.665  1.3251 -2.6000  0.4225
   20CHL1  H15B 1426   1.002   5.189   5.741  0.5816  1.5887 -2.0223
   20CHL1   C16 1427   1.095   5.111   5.555  0.3572  0.6715 -0.4362
   20CHL1  H16A 1428   1.027   5.090   5.470  0.7685 -2.7931 -0.0523
   20CHL1  H16B 1429   1.141   5.212   5.560  1.5431  0.1282  0.0378
   20CHL1   C17 1430   1.207   5.011   5.559 -0.2639  0.9484 -0.5995
   20CHL1   H17 1431   1.302   5.061   5.587 -1.1406  2.6201 -0.4950
   20CHL1   C13 1432   1.167   4.901   5.670  0.9869 -0.5806 -0.4034
   20CHL1   C18 1433   1.069   4.789   5.618  0.5450 -0.2304  1.5474
   20CHL1  H18A 1434   0.982   4.834   5.565  0.8446  0.7869  1.9146
   20CHL1  H18B 1435   1.128   4.729   5.546 -0.5050  1.7030 -1.1147
   20CHL1  H18C 1436   1.037   4.720   5.700  0.8070  0.2348  2.0484
   20CHL1   C12 1437   1.280   4.829   5.744  0.5219  0.4608 -0.0566
   20CHL1  H12A 1438   1.319   4.755   5.670  0.4111  0.6320 -0.2885
   20CHL1  H12B 1439   1.357   4.907   5.759  1.6311 -0.8152  1.0337
   20CHL1   C11 1440   1.240   4.766   5.887  0.3857 -0.5887 -0.5429
   20CHL1  H11A 1441   1.187   4.676   5.847  0.9334 -0.4287 -1.6629
   20CHL1  H11B 1442   1.336   4.732   5.932  0.1059 -0.0263  0.5004
   20CHL1    C9 1443   1.141   4.856   5.974  0.4531  0.5462  0.6229
   20CHL1    H9 1444   1.205   4.945   5.995  1.4594 -0.3981  1.6278
   20CHL1   C10 1445   1.087   4.796   6.101 -0.0122  0.0550 -0.4895
   20CHL1   C19 1446   1.022   4.660   6.052 -0.7934  1.1364  0.1809
   20CHL1  H19A 1447   0.944   4.683   5.977  0.4623 -1.3726 -2.0542
   20CHL1  H19B 1448   1.108   4.607   6.007  0.2077  1.9125  1.1344
   20CHL1  H19C 1449   0.977   4.591   6.127 -0.1514  1.5279  0.9491
   20CHL1    C1 1450   1.205   4.785   6.212  0.2712  0.5129 -0.0722
   20CHL1   H1A 1451   1.277   4.708   6.176 -1.0587 -1.4725  1.2388
   20CHL1   H1B 1452   1.260   4.881   6.214 -1.8024  1.7748 -0.1329
   20CHL1    C2 1453   1.159   4.732   6.353  0.5997 -0.1455  0.3808
   20CHL1   H2A 1454   1.250   4.737   6.416  1.0740  0.5083 -0.3373
   20CHL1   H2B 1455   1.111   4.633   6.336 -0.7667  0.5393  0.0894
   20CHL1   C20 1456   1.239   4.952   5.420 -0.4905  0.3928 -0.1406
   20CHL1   H20 1457   1.154   4.889   5.388  0.1927 -0.8922  0.4950
   20CHL1   C21 1458   1.367   4.873   5.423 -0.2763  0.3112  0.3532
   20CHL1  H21A 1459   1.416   4.852   5.325  3.0827 -2.0491  2.3249
   20CHL1  H21B 1460   1.350   4.777   5.477 -1.1718 -0.0079 -0.4707
   20CHL1  H21C 1461   1.440   4.928   5.486  0.7075 -0.6192  0.0576
   20CHL1   C22 1462   1.252   5.069   5.319  0.2222 -0.6752 -0.0267
   20CHL1  H22A 1463   1.151   5.079   5.273  0.2312 -2.0771 -0.3812
   20CHL1  H22B 1464   1.286   5.162   5.369  3.4639 -1.1470 -1.1414
   20CHL1   C23 1465   1.336   5.048   5.192 -0.3599 -0.1152  0.0535
   20CHL1  H23A 1466   1.443   5.065   5.215 -1.0299  1.7670  2.1504
   20CHL1  H23B 1467   1.314   4.949   5.147  0.4876 -0.5114  0.4918
   20CHL1   C24 1468   1.291   5.138   5.080  0.7940 -0.8012  0.0043
   20CHL1  H24A 1469   1.192   5.097   5.048 -0.0529  0.8348  0.3979
   20CHL1  H24B 1470   1.264   5.238   5.121 -2.8948 -1.6145 -0.0721
   20CHL1   C25 1471   1.391   5.143   4.963 -0.4994 -0.6197  0.0536
   20CHL1   H25 1472   1.410   5.040   4.925 -0.2793 -0.5307 -0.0772
   20CHL1   C26 1473   1.329   5.206   4.842 -0.3520  0.2569 -0.1489
   20CHL1  H26A 1474   1.306   5.312   4.865  1.8190  1.8774 -4.3614
   20CHL1  H26B 1475   1.397   5.209   4.754  0.2064  0.9798  0.2994
   20CHL1  H26C 1476   1.230   5.156   4.828 -0.1380 -0.4190  0.6852
   20CHL1   C27 1477   1.516   5.213   5.004 -0.0775  0.2190 -0.1230
   20CHL1  H27A 1478   1.575   5.249   4.917  0.0014  1.0852  0.2803
   20CHL1  H27B 1479   1.490   5.305   5.060 -0.9215  1.4240 -2.3487
   20CHL1  H27C 1480   1.574   5.147   5.072 -2.2727  0.3060  1.9578
   21CHL1    C3 1481   0.232   5.150   5.921  0.8161 -0.4206  0.6316
   21CHL1    H3 1482   0.341   5.140   5.904  0.8487 -0.8643  1.0887
   21CHL1    O3 1483   0.201   5.113   6.055  0.5420  0.3201  0.0377
   21CHL1   H3' 1484   0.111   5.143   6.067 -0.3191 -2.0368 -0.1318
   21CHL1    C4 1485   0.192   5.299   5.882 -0.3773 -0.2903  0.2410
   21CHL1   H4A 1486   0.083   5.315   5.892 -0.6054 -0.8942 -1.0505
   21CHL1   H4B 1487   0.252   5.361   5.952  0.1636  0.1791 -0.6223
   21CHL1    C5 1488   0.227   5.321   5.741  0.2865 -0.2587  0.0245
   21CHL1    C6 1489   0.316   5.414   5.699 -0.4089  0.1923  0.7550
   21CHL1    H6 1490   0.360   5.489   5.767 -0.0090  1.5592 -0.9350
   21CHL1    C7 1491   0.351   5.439   5.556 -0.7417 -0.1912 -0.5757
   21CHL1   H7A 1492   0.359   5.548   5.537 -0.6984 -0.3541 -1.5549
   21CHL1   H7B 1493   0.445   5.385   5.535 -0.0450  1.0552 -0.7931
   21CHL1    C8 1494   0.233   5.389   5.455 -0.8465 -0.0190  0.2198
   21CHL1    H8 1495   0.144   5.455   5.447 -1.2392 -0.4794  0.7287
   21CHL1   C14 1496   0.268   5.387   5.301 -0.0063 -0.0039 -0.5726
   21CHL1   H14 1497   0.346   5.308   5.289  1.4276  1.0565  1.2366
   21CHL1   C15 1498   0.316   5.517   5.235 -0.2144 -0.0596  0.2134
   21CHL1  H15A 1499   0.246   5.594   5.274 -0.3508  0.6161 -1.2867
   21CHL1  H15B 1500   0.420   5.536   5.268  0.9573 -3.4479 -1.0194
   21CHL1   C16 1501   0.297   5.503   5.091  0.2942 -0.4398  0.6115
   21CHL1  H16A 1502   0.223   5.583   5.069 -1.3205 -2.5046 -2.1580
   21CHL1  H16B 1503   0.393   5.515   5.037  0.0245  0.1306  0.2437
   21CHL1   C17 1504   0.233   5.362   5.062  0.0444 -0.1689  0.2412
   21CHL1   H17 1505   0.309   5.281   5.058  0.9076  0.6447 -0.1533
   21CHL1   C13 1506   0.165   5.336   5.201  0.4277 -0.5045  0.0362
   21CHL1   C18 1507   0.037   5.417   5.204 -0.5626 -0.3904 -0.5697
   21CHL1  H18A 1508  -0.043   5.378   5.138 -0.7924 -1.3120  0.2236
   21CHL1  H18B 1509  -0.010   5.428   5.304  1.3860  0.2735  0.3272
   21CHL1  H18C 1510   0.048   5.524   5.176 -5.0895  0.3384 -0.2634
   21CHL1   C12 1511   0.136   5.187   5.239 -0.1467 -0.0158 -0.3446
   21CHL1  H12A 1512   0.061   5.139   5.172 -0.9468  0.2532  0.3346
   21CHL1  H12B 1513   0.232   5.133   5.222 -0.1994  0.1668 -1.2972
   21CHL1   C11 1514   0.088   5.182   5.382 -0.5174 -0.0115  0.1363
   21CHL1  H11A 1515  -0.005   5.243   5.379 -1.3740 -1.3207 -0.7628
   21CHL1  H11B 1516   0.064   5.077   5.408  1.8163 -1.1491 -1.9533
   21CHL1    C9 1517   0.194   5.247   5.487 -0.7439 -0.6210 -0.0243
   21CHL1    H9 1518   0.289   5.190   5.485 -0.6903 -0.6648  1.7082
   21CHL1   C10 1519   0.146   5.230   5.640  0.2367  0.3734 -0.1285
   21CHL1   C19 1520  -0.010   5.265   5.650  0.4633  0.0588  0.1923
   21CHL1  H19A 1521  -0.037   5.247   5.756 -1.7441  0.6185 -0.2188
   21CHL1  H19B 1522  -0.029   5.369   5.614 -2.7844 -0.2013  0.8497
   21CHL1  H19C 1523  -0.068   5.191   5.590  0.5342  2.5271 -3.2102
   21CHL1    C1 1524   0.168   5.085   5.678 -0.8367 -0.0728 -0.5709
   21CHL1   H1A 1525   0.102   5.013   5.626  0.8746 -1.8669 -0.3631
   21CHL1   H1B 1526   0.271   5.051   5.654 -0.7296 -0.6525  0.6435
   21CHL1    C2 1527   0.152   5.058   5.832 -0.5511 -0.0842 -0.3288
   21CHL1   H2A 1528   0.179   4.952   5.849  0.1892  0.1571  0.0516
   21CHL1   H2B 1529   0.046   5.069   5.862  0.2176  0.3603  2.4765
   21CHL1   C20 1530   0.161   5.355   4.926  0.4011 -0.6485 -0.2992
   21CHL1   H20 1531   0.069   5.417   4.937  0.1292 -1.0679 -0.1719
   21CHL1   C21 1532   0.124   5.208   4.896  0.3358 -0.0573  0.1848
   21CHL1  H21A 1533   0.035   5.178   4.956  0.2030 -0.5580 -0.2513
   21CHL1  H21B 1534   0.214   5.143   4.904  0.2918  0.0677  2.2869
   21CHL1  H21C 1535   0.089   5.214   4.790  0.3012 -2.5498 -0.0200
   21CHL1   C22 1536   0.245   5.420   4.819 -0.3488  0.5638  0.2955
   21CHL1  H22A 1537   0.177   5.426   4.732  0.5529 -1.8705 -0.6835
   21CHL1  H22B 1538   0.260   5.522   4.859  0.6681  0.0848  1.2172
   21CHL1   C23 1539   0.371   5.353   4.792  0.1229  0.4928  0.1944
   21CHL1  H23A 1540   0.445   5.350   4.875  0.2453 -1.3833  0.0633
   21CHL1  H23B 1541   0.348   5.255   4.745  1.2925  0.4081 -0.2385
   21CHL1   C24 1542   0.452   5.423   4.677  0.4453  0.3038 -0.1305
   21CHL1  H24A 1543   0.530   5.348   4.652 -1.2231 -1.0585 -1.4869
   21CHL1  H24B 1544   0.378   5.429   4.594 -1.1876  0.9317  1.3109
   21CHL1   C25 1545   0.512   5.563   4.711  0.5126  0.7579 -0.0645
   21CHL1   H25 1546   0.431   5.628   4.752  0.0304 -0.7672  1.5091
   21CHL1   C26 1547   0.619   5.550   4.814  0.0875  0.5716 -0.4304
   21CHL1  H26A 1548   0.661   5.652   4.824  3.3500 -0.8012  0.9791
   21CHL1  H26B 1549   0.583   5.510   4.911 -1.3926  2.9141  0.0654
   21CHL1  H26C 1550   0.702   5.490   4.772  0.1184  0.0917  0.3127
   21CHL1   C27 1551   0.571   5.624   4.581 -0.5526  0.2073 -0.2344
   21CHL1  H27A 1552   0.507   5.601   4.493  0.5524 -0.7079 -0.8321
   21CHL1  H27B 1553   0.575   5.735   4.588 -2.5904  0.3797 -1.1161
   21CHL1  H27C 1554   0.673   5.582   4.569 -0.4482  0.7101 -1.2579
   22CHL1    C3 1555   1.621   2.324   6.148 -0.3612 -0.0940  0.1569
   22CHL1    H3 1556   1.728   2.294   6.146 -0.6091 -1.0730 -1.7396
   22CHL1    O3 1557   1.581   2.329   6.285  0.0593 -0.1101  0.1600
   22CHL1   H3' 1558   1.488   2.313   6.302 -0.1740  0.4953 -0.4891
   22CHL1    C4 1559   1.611   2.467   6.085  0.2907  0.3282 -0.4325
   22CHL1   H4A 1560   1.507   2.506   6.091  0.9825  2.0803  1.1610
   22CHL1   H4B 1561   1.673   2.539   6.142 -1.4712  2.3488 -0.9406
   22CHL1    C5 1562   1.643   2.477   5.943  0.2435 -0.1994  0.4359
   22CHL1    C6 1563   1.714   2.577   5.888  0.2657 -0.4929  1.3662
   22CHL1    H6 1564   1.762   2.652   5.953  1.8525  0.3199 -0.6342
   22CHL1    C7 1565   1.740   2.602   5.739  1.0010  0.2565 -0.2047
   22CHL1   H7A 1566   1.728   2.708   5.709 -0.1032 -0.5553 -2.9863
   22CHL1   H7B 1567   1.846   2.575   5.723  0.5117 -1.9432 -0.1757
   22CHL1    C8 1568   1.643   2.510   5.659 -0.7923 -0.5413  0.7134
   22CHL1    H8 1569   1.544   2.561   5.663  0.2286  1.6399  0.0296
   22CHL1   C14 1570   1.689   2.504   5.516 -0.8264 -0.9664 -0.4760
   22CHL1   H14 1571   1.786   2.450   5.521 -1.0153 -1.2682 -0.0515
   22CHL1   C15 1572   1.731   2.633   5.450  0.2600 -0.0240  0.2602
   22CHL1  H15A 1573   1.662   2.716   5.475  0.0285  0.1466 -0.9186
   22CHL1  H15B 1574   1.831   2.674   5.477 -0.0960  1.3724 -0.4406
   22CHL1   C16 1575   1.731   2.600   5.300  0.5234 -0.6067 -0.4084
   22CHL1  H16A 1576   1.660   2.674   5.257  0.9550  0.3735  0.5117
   22CHL1  H16B 1577   1.833   2.618   5.261  0.5818  0.5931  0.2323
   22CHL1   C17 1578   1.680   2.456   5.281 -0.6296 -0.2397  0.2684
   22CHL1   H17 1579   1.777   2.402   5.285  0.2317  1.3144  2.4647
   22CHL1   C13 1580   1.609   2.423   5.415 -0.9564  1.2047 -0.9403
   22CHL1   C18 1581   1.470   2.477   5.405 -0.3644 -0.0431 -0.1166
   22CHL1  H18A 1582   1.420   2.467   5.504  1.2807 -0.2218  0.7244
   22CHL1  H18B 1583   1.472   2.584   5.374 -1.0159  0.6821  2.0854
   22CHL1  H18C 1584   1.397   2.430   5.336 -1.7315  3.0935 -0.9921
   22CHL1   C12 1585   1.607   2.275   5.457 -0.5263 -0.2274 -0.2869
   22CHL1  H12A 1586   1.539   2.201   5.409 -1.3711 -0.3611  1.0711
   22CHL1  H12B 1587   1.705   2.221   5.451 -2.8328 -5.1662  0.9796
   22CHL1   C11 1588   1.569   2.275   5.607  0.6597 -0.1666  0.1029
   22CHL1  H11A 1589   1.462   2.304   5.602  0.9039  0.4829 -3.6327
   22CHL1  H11B 1590   1.569   2.170   5.643 -0.6125 -0.7325 -1.4529
   22CHL1    C9 1591   1.646   2.369   5.711  0.7506  0.3493  0.7423
   22CHL1    H9 1592   1.750   2.331   5.717 -0.1219 -2.8477 -1.4359
   22CHL1   C10 1593   1.588   2.362   5.854  0.7476  0.8048 -0.5030
   22CHL1   C19 1594   1.434   2.386   5.840  0.9534 -1.2195  0.4646
   22CHL1  H19A 1595   1.388   2.285   5.836 -1.1702 -0.2777 -2.7944
   22CHL1  H19B 1596   1.386   2.448   5.919 -1.3466 -0.9393 -1.0659
   22CHL1  H19C 1597   1.405   2.443   5.750 -0.4606  0.7724  2.0817
   22CHL1    C1 1598   1.610   2.222   5.913 -0.4727  0.1318 -0.0582
   22CHL1   H1A 1599   1.555   2.152   5.846 -2.0291  0.9862  0.2781
   22CHL1   H1B 1600   1.717   2.193   5.907 -0.2737  0.0837  2.7542
   22CHL1    C2 1601   1.561   2.210   6.062 -0.4778 -0.1549 -0.1640
   22CHL1   H2A 1602   1.579   2.108   6.103 -0.8981 -0.5596 -0.9583
   22CHL1   H2B 1603   1.450   2.219   6.067 -0.4804 -0.8657  1.7663
   22CHL1   C20 1604   1.598   2.429   5.148 -0.6956  0.2802  0.2373
   22CHL1   H20 1605   1.498   2.477   5.157 -1.7118 -1.6369 -0.2285
   22CHL1   C21 1606   1.586   2.275   5.141 -0.4717  0.1641 -1.0350
   22CHL1  H21A 1607   1.498   2.235   5.197 -0.3767  0.2253 -0.8398
   22CHL1  H21B 1608   1.672   2.225   5.189  0.2194  2.1493 -0.0761
   22CHL1  H21C 1609   1.579   2.250   5.033  2.6620 -1.5141 -0.9340
   22CHL1   C22 1610   1.679   2.475   5.021 -0.1511 -0.3550  0.9730
   22CHL1  H22A 1611   1.713   2.579   5.038  1.6620 -1.4800  5.6286
   22CHL1  H22B 1612   1.764   2.404   5.025 -1.1457 -1.7531 -1.1088
   22CHL1   C23 1613   1.592   2.478   4.892  0.1474 -0.0200 -0.8637
   22CHL1  H23A 1614   1.529   2.387   4.877  0.7334 -0.6618  0.3785
   22CHL1  H23B 1615   1.515   2.552   4.922  0.1925  0.1081 -1.0653
   22CHL1   C24 1616   1.655   2.522   4.758 -1.0470 -0.1092 -0.6828
   22CHL1  H24A 1617   1.680   2.630   4.765 -0.9665 -0.1532 -0.2885
   22CHL1  H24B 1618   1.749   2.471   4.727 -0.9567 -1.1281  1.1750
   22CHL1   C25 1619   1.569   2.485   4.638 -0.4224  0.6891 -0.0497
   22CHL1   H25 1620   1.539   2.380   4.654 -1.1707  0.8650 -0.2287
   22CHL1   C26 1621   1.439   2.565   4.624  0.4609 -0.1261 -0.1298
   22CHL1  H26A 1622   1.364   2.541   4.702  0.5283 -1.4063 -0.4432
   22CHL1  H26B 1623   1.456   2.675   4.623 -1.9396  0.3022  0.7648
   22CHL1  H26C 1624   1.399   2.536   4.525  1.0081 -1.6138  0.0689
   22CHL1   C27 1625   1.644   2.511   4.503 -0.0027  0.0705  0.3359
   22CHL1  H27A 1626   1.583   2.478   4.416  0.0307  1.4679 -0.2433
   22CHL1  H27B 1627   1.672   2.617   4.485 -0.7351  0.3108  0.5770
   22CHL1  H27C 1628   1.742   2.460   4.508 -1.0689 -1.9833  1.3482
   23CHL1    C3 1629   5.800   5.503   6.533  0.3033 -0.6166 -0.1577
   23CHL1    H3 1630   5.827   5.605   6.568 -1.2527 -0.0611 -0.5008
   23CHL1    O3 1631   5.791   5.422   6.652  0.1270 -0.2594  0.4109
   23CHL1   H3' 1632   5.740   5.346   6.625 -0.8194 -0.4114  2.5021
   23CHL1    C4 1633   5.668   5.500   6.459 -0.6619  0.4113 -0.3633
   23CHL1   H4A 1634   5.628   5.399   6.435 -2.4410  1.0745 -0.3412
   23CHL1   H4B 1635   5.586   5.543   6.520  0.7838  1.3010  0.9847
   23CHL1    C5 1636   5.676   5.566   6.330 -0.4613 -0.0761  0.0681
   23CHL1    C6 1637   5.577   5.652   6.286 -0.2787 -0.3117  0.6674
   23CHL1    H6 1638   5.487   5.684   6.341 -2.2481 -2.8289 -0.8744
   23CHL1    C7 1639   5.586   5.708   6.147  0.0627  0.3200  0.2580
   23CHL1   H7A 1640   5.483   5.707   6.105 -0.2150 -1.3565  0.8816
   23CHL1   H7B 1641   5.631   5.809   6.140 -0.1059  0.4704  1.2043
   23CHL1    C8 1642   5.681   5.637   6.055 -0.0580  0.0387 -0.2803
   23CHL1    H8 1643   5.641   5.540   6.017  0.2639  0.2412 -1.1629
   23CHL1   C14 1644   5.706   5.719   5.928  0.1697 -0.5498  0.9823
   23CHL1   H14 1645   5.757   5.815   5.947 -0.1197  0.1639 -1.5141
   23CHL1   C15 1646   5.575   5.765   5.844  0.3706  0.6574  0.6476
   23CHL1  H15A 1647   5.509   5.677   5.822  0.7193  0.4890  0.2638
   23CHL1  H15B 1648   5.511   5.838   5.899 -1.6708 -0.2769 -0.3566
   23CHL1   C16 1649   5.647   5.813   5.717  0.3441 -0.7490 -0.2717
   23CHL1  H16A 1650   5.601   5.764   5.629 -1.7839  0.7764 -0.0869
   23CHL1  H16B 1651   5.634   5.921   5.697 -3.6217 -1.0662 -0.1037
   23CHL1   C17 1652   5.797   5.767   5.711 -0.2523  0.2616 -0.5226
   23CHL1   H17 1653   5.856   5.855   5.743 -0.4742  0.1961  0.0827
   23CHL1   C13 1654   5.811   5.663   5.824  0.5328 -0.0944  0.2241
   23CHL1   C18 1655   5.765   5.523   5.785 -0.7063 -0.3013  0.6349
   23CHL1  H18A 1656   5.663   5.529   5.742  0.3162 -1.2848 -2.1881
   23CHL1  H18B 1657   5.837   5.471   5.717 -1.9467 -0.5165 -0.5711
   23CHL1  H18C 1658   5.750   5.455   5.871  0.3400 -1.8983 -0.3796
   23CHL1   C12 1659   5.948   5.659   5.900  0.5771  0.2903 -0.0194
   23CHL1  H12A 1660   6.043   5.640   5.846 -0.8397 -2.2083 -1.8522
   23CHL1  H12B 1661   5.962   5.760   5.945  0.0263 -0.5610  2.2231
   23CHL1   C11 1662   5.938   5.568   6.019  0.3477 -0.2211  0.3483
   23CHL1  H11A 1663   5.926   5.461   5.992  1.0899  0.1392 -1.5606
   23CHL1  H11B 1664   6.029   5.569   6.083 -0.0256  0.5873  0.8899
   23CHL1    C9 1665   5.819   5.608   6.119 -0.1421 -0.0013  0.3599
   23CHL1    H9 1666   5.855   5.706   6.158 -2.3432  1.3500 -0.7790
   23CHL1   C10 1667   5.797   5.516   6.240 -0.3782 -0.1696 -0.6202
   23CHL1   C19 1668   5.772   5.369   6.202  0.1428  0.3824 -0.3521
   23CHL1  H19A 1669   5.763   5.308   6.294  2.0360 -1.5019 -1.3265
   23CHL1  H19B 1670   5.686   5.348   6.136  1.1043  2.4125 -2.4217
   23CHL1  H19C 1671   5.869   5.342   6.154  0.3100  0.5112 -0.0860
   23CHL1    C1 1672   5.931   5.528   6.334 -0.2195 -0.1851  0.9154
   23CHL1   H1A 1673   6.015   5.482   6.278 -1.6378 -0.7156 -0.8769
   23CHL1   H1B 1674   5.952   5.635   6.354 -0.3148 -0.2529  1.3946
   23CHL1    C2 1675   5.927   5.451   6.462  0.4869  0.1915  0.5858
   23CHL1   H2A 1676   6.021   5.457   6.521  0.9752  0.9951 -0.2502
   23CHL1   H2B 1677   5.915   5.343   6.442 -1.3575  0.4541  0.0913
   23CHL1   C20 1678   5.840   5.733   5.572 -0.2291  0.6547  0.2075
   23CHL1   H20 1679   5.765   5.667   5.523 -1.7447  0.0740  3.1023
   23CHL1   C21 1680   5.981   5.663   5.567  0.9467 -0.7258 -0.2713
   23CHL1  H21A 1681   6.011   5.645   5.462  0.8928 -1.0745 -0.2298
   23CHL1  H21B 1682   5.983   5.569   5.627 -1.1966 -1.3462 -1.0874
   23CHL1  H21C 1683   6.070   5.718   5.603  1.9066 -0.5534 -2.7637
   23CHL1   C22 1684   5.846   5.860   5.483 -0.6030  0.1257  0.0021
   23CHL1  H22A 1685   5.757   5.924   5.501 -1.8309 -1.5566  0.1973
   23CHL1  H22B 1686   5.939   5.919   5.495  0.9392 -1.5444 -2.8006
   23CHL1   C23 1687   5.868   5.832   5.328 -0.6286 -0.3012  0.2343
   23CHL1  H23A 1688   5.971   5.795   5.305  0.6739  1.1114  3.1903
   23CHL1  H23B 1689   5.795   5.758   5.289 -0.0857 -0.4388 -0.5465
   23CHL1   C24 1690   5.873   5.961   5.240 -0.1474  0.0893 -0.3869
   23CHL1  H24A 1691   5.797   6.035   5.270 -1.5985 -0.7354 -1.8708
   23CHL1  H24B 1692   5.978   5.998   5.247  0.2010 -0.9947  0.6055
   23CHL1   C25 1693   5.828   5.930   5.091  0.3387  0.4052 -0.1545
   23CHL1   H25 1694   5.725   5.888   5.104  0.3861 -0.3562 -1.9541
   23CHL1   C26 1695   5.809   6.066   5.015 -0.1574  0.3572 -0.7366
   23CHL1  H26A 1696   5.901   6.128   5.011  1.1482 -1.4918 -0.4445
   23CHL1  H26B 1697   5.786   6.040   4.910 -0.2502 -0.5417 -0.5038
   23CHL1  H26C 1698   5.717   6.122   5.040  0.1388  0.9714 -1.0033
   23CHL1   C27 1699   5.917   5.823   5.020  0.6942  0.0815 -0.2819
   23CHL1  H27A 1700   6.007   5.865   4.970  0.7242 -0.3072 -0.5549
   23CHL1  H27B 1701   5.951   5.749   5.096  1.3773 -0.7004 -1.3252
   23CHL1  H27C 1702   5.849   5.775   4.947  3.4735 -0.2292 -2.8645
   24CHL1    C3 1703   2.757   2.441   6.451 -0.5929 -0.0427  0.2121
   24CHL1    H3 1704   2.860   2.481   6.449  0.2432 -2.0564 -0.7414
   24CHL1    O3 1705   2.712   2.422   6.588 -0.0255 -0.2473 -0.4244
   24CHL1   H3' 1706   2.623   2.390   6.572 -0.1986  0.5953 -1.2201
   24CHL1    C4 1707   2.659   2.552   6.396  0.1453  0.2754 -0.0456
   24CHL1   H4A 1708   2.562   2.498   6.396  0.4555 -0.3217  1.1930
   24CHL1   H4B 1709   2.654   2.638   6.465 -0.8370  0.2825 -0.1148
   24CHL1    C5 1710   2.689   2.582   6.250 -0.0843 -0.0785  0.0196
   24CHL1    C6 1711   2.733   2.709   6.229 -0.0994  0.5298  0.2551
   24CHL1    H6 1712   2.734   2.783   6.310 -3.5339  1.9620 -0.8618
   24CHL1    C7 1713   2.771   2.767   6.097 -0.0681 -0.0599  0.8385
   24CHL1   H7A 1714   2.727   2.865   6.070 -0.2911 -0.3502  0.1168
   24CHL1   H7B 1715   2.881   2.781   6.090  0.0925 -1.0060  1.2402
   24CHL1    C8 1716   2.729   2.667   5.983  0.2131  0.6875  1.0656
   24CHL1    H8 1717   2.618   2.675   5.977  0.1431 -1.1542 -1.7281
   24CHL1   C14 1718   2.785   2.696   5.840 -0.0741  0.2746 -0.1145
   24CHL1   H14 1719   2.895   2.680   5.850 -0.0226  1.3685  1.4625
   24CHL1   C15 1720   2.774   2.836   5.781  0.0801 -0.5654 -0.2609
   24CHL1  H15A 1721   2.679   2.884   5.816  2.2913  3.2506  1.1768
   24CHL1  H15B 1722   2.858   2.893   5.827 -0.0872 -0.5851  0.0735
   24CHL1   C16 1723   2.776   2.824   5.626 -0.6655  0.7351 -0.7832
   24CHL1  H16A 1724   2.677   2.852   5.586 -0.9234 -1.2801 -1.6566
   24CHL1  H16B 1725   2.856   2.886   5.580 -0.3965  1.1266  0.1802
   24CHL1   C17 1726   2.802   2.671   5.605 -0.2045  0.6879  0.2412
   24CHL1   H17 1727   2.911   2.653   5.615  0.1753  3.5659  2.8524
   24CHL1   C13 1728   2.740   2.606   5.724 -0.9155  0.2567 -1.1967
   24CHL1   C18 1729   2.586   2.594   5.710 -0.0012 -0.2564  0.6023
   24CHL1  H18A 1730   2.538   2.592   5.810  1.0038  0.8459  1.1208
   24CHL1  H18B 1731   2.545   2.683   5.656  0.7916 -0.7334 -0.8484
   24CHL1  H18C 1732   2.561   2.498   5.660  1.6735 -0.3655 -0.0751
   24CHL1   C12 1733   2.804   2.472   5.771 -0.0923 -0.5008 -0.3735
   24CHL1  H12A 1734   2.784   2.392   5.697  3.0080 -0.5490 -1.2947
   24CHL1  H12B 1735   2.915   2.483   5.765 -0.0882 -1.2992 -3.3011
   24CHL1   C11 1736   2.750   2.420   5.905  0.4897 -0.3415  0.0545
   24CHL1  H11A 1737   2.643   2.401   5.885  0.6202 -0.5259 -0.4771
   24CHL1  H11B 1738   2.799   2.326   5.938  0.3342 -1.1571 -1.9153
   24CHL1    C9 1739   2.764   2.523   6.024 -0.5329  0.7261  0.7082
   24CHL1    H9 1740   2.873   2.525   6.048 -0.4419  0.8389  0.2940
   24CHL1   C10 1741   2.697   2.466   6.146  0.6674 -0.1976 -0.2447
   24CHL1   C19 1742   2.554   2.413   6.109  0.0449 -0.0468  0.5864
   24CHL1  H19A 1743   2.488   2.400   6.198 -0.1387 -0.8798  0.3369
   24CHL1  H19B 1744   2.499   2.474   6.034 -1.8570 -1.7905  0.4625
   24CHL1  H19C 1745   2.567   2.312   6.065  0.1013 -1.3558  3.4250
   24CHL1    C1 1746   2.771   2.345   6.213  0.5308 -0.0066  0.4506
   24CHL1   H1A 1747   2.750   2.255   6.152  1.1106  0.2473 -0.1388
   24CHL1   H1B 1748   2.878   2.365   6.191  0.7593  0.6184  1.9970
   24CHL1    C2 1749   2.753   2.314   6.362  0.3850 -0.1572 -0.1070
   24CHL1   H2A 1750   2.826   2.240   6.402 -2.2019 -2.1161  1.2599
   24CHL1   H2B 1751   2.650   2.275   6.376 -0.5185  2.3673  0.7557
   24CHL1   C20 1752   2.746   2.621   5.464  0.3497 -0.0773  0.3742
   24CHL1   H20 1753   2.635   2.627   5.473  0.2746  0.2082 -0.5611
   24CHL1   C21 1754   2.790   2.474   5.429 -0.1799 -0.1649 -0.9199
   24CHL1  H21A 1755   2.760   2.434   5.330 -1.7759 -0.1322 -0.4769
   24CHL1  H21B 1756   2.759   2.404   5.510  1.1793 -0.7907 -0.9019
   24CHL1  H21C 1757   2.900   2.460   5.431 -0.1547  0.0119  1.0229
   24CHL1   C22 1758   2.790   2.710   5.342  0.8147 -0.8695 -1.2487
   24CHL1  H22A 1759   2.751   2.810   5.370 -0.1871 -2.1014  2.2084
   24CHL1  H22B 1760   2.900   2.723   5.338  0.7872 -0.9179 -3.2763
   24CHL1   C23 1761   2.730   2.670   5.207 -0.1716  0.6135 -0.7421
   24CHL1  H23A 1762   2.762   2.571   5.167 -0.5483 -0.0843  0.6476
   24CHL1  H23B 1763   2.622   2.659   5.229  0.3126  0.1757  1.6652
   24CHL1   C24 1764   2.736   2.780   5.103 -0.3337 -0.2582 -0.3319
   24CHL1  H24A 1765   2.675   2.750   5.015  1.5597 -1.0318 -1.4613
   24CHL1  H24B 1766   2.702   2.876   5.147  1.8064  0.4374 -0.0767
   24CHL1   C25 1767   2.880   2.817   5.052  0.4340  0.4992  0.8496
   24CHL1   H25 1768   2.932   2.854   5.143  1.4036  0.6228  0.2575
   24CHL1   C26 1769   2.959   2.691   4.999 -0.0719 -0.2611  0.3293
   24CHL1  H26A 1770   3.068   2.702   4.980  0.3565 -1.0756  2.1022
   24CHL1  H26B 1771   2.970   2.615   5.079 -0.0964 -2.6017 -1.7537
   24CHL1  H26C 1772   2.895   2.653   4.917 -3.0595  1.5834  1.6274
   24CHL1   C27 1773   2.878   2.929   4.950  0.6401 -1.0416  0.2642
   24CHL1  H27A 1774   2.854   3.030   4.990  0.5233 -0.2783 -1.6174
   24CHL1  H27B 1775   2.971   2.934   4.889  0.4163 -1.5755 -0.1276
   24CHL1  H27C 1776   2.801   2.917   4.871 -0.4849  0.8757  1.0138
   25CHL1    C3 1777   5.697   4.912   6.323 -0.2129  0.1534 -0.2250
   25CHL1    H3 1778   5.623   4.994   6.330 -0.0977  0.3056 -0.7463
   25CHL1    O3 1779   5.770   4.890   6.441  0.3936  0.3229  0.2048
   25CHL1   H3' 1780   5.820   4.812   6.416  0.2195  0.0288  0.7572
   25CHL1    C4 1781   5.640   4.776   6.292 -0.3604 -0.4896 -0.6475
   25CHL1   H4A 1782   5.720   4.702   6.272  0.6026  0.5809 -0.9004
   25CHL1   H4B 1783   5.573   4.740   6.373 -0.3518 -2.3262 -1.4114
   25CHL1    C5 1784   5.569   4.788   6.152  0.0902 -0.3517  0.1052
   25CHL1    C6 1785   5.438   4.768   6.127 -0.7751  0.6090  0.4115
   25CHL1    H6 1786   5.372   4.745   6.213 -1.6864  1.3420 -0.0741
   25CHL1    C7 1787   5.378   4.766   5.988  0.3110  0.0944 -0.2206
   25CHL1   H7A 1788   5.308   4.682   5.966  0.1850  0.3872 -0.9715
   25CHL1   H7B 1789   5.308   4.853   5.984 -1.7086 -1.4933 -2.0276
   25CHL1    C8 1790   5.479   4.773   5.870  0.4484  0.1685 -0.4633
   25CHL1    H8 1791   5.523   4.673   5.850  1.0091  0.0868  1.0356
   25CHL1   C14 1792   5.400   4.816   5.745 -0.6159  0.1787  0.0400
   25CHL1   H14 1793   5.374   4.921   5.768  0.4126  0.1412  1.4692
   25CHL1   C15 1794   5.269   4.746   5.694 -0.8491 -0.0964 -0.1738
   25CHL1  H15A 1795   5.298   4.639   5.690 -0.9068 -0.1014 -0.5258
   25CHL1  H15B 1796   5.189   4.755   5.771  0.4579 -0.3645  1.2564
   25CHL1   C16 1797   5.247   4.805   5.552  0.8662  0.2351  0.2698
   25CHL1  H16A 1798   5.244   4.716   5.486  1.8963  1.4838 -1.5718
   25CHL1  H16B 1799   5.149   4.857   5.542  2.2723  2.6866 -2.8060
   25CHL1   C17 1800   5.375   4.888   5.518 -0.4384  0.1103 -0.4146
   25CHL1   H17 1801   5.364   4.991   5.558  1.9443  0.9083 -1.5890
   25CHL1   C13 1802   5.482   4.831   5.619 -0.3405 -0.1653  0.5617
   25CHL1   C18 1803   5.541   4.696   5.557 -0.3953 -0.6362 -0.6066
   25CHL1  H18A 1804   5.600   4.715   5.465 -0.4738  0.3402 -0.4739
   25CHL1  H18B 1805   5.610   4.664   5.639 -0.8128  0.0764  0.0434
   25CHL1  H18C 1806   5.469   4.613   5.541 -1.5012  0.0855  0.4550
   25CHL1   C12 1807   5.601   4.928   5.651  1.0039 -0.1051 -0.7719
   25CHL1  H12A 1808   5.659   4.955   5.560  1.1126  0.5951 -0.5020
   25CHL1  H12B 1809   5.544   5.020   5.676 -1.2041 -1.3194 -1.0755
   25CHL1   C11 1810   5.686   4.878   5.764 -0.4642 -0.3747 -0.0893
   25CHL1  H11A 1811   5.733   4.781   5.737  1.8667  0.5068  0.6260
   25CHL1  H11B 1812   5.771   4.946   5.786 -1.1841  1.7736 -3.1419
   25CHL1    C9 1813   5.590   4.865   5.886 -0.1824 -0.4276 -0.3584
   25CHL1    H9 1814   5.539   4.963   5.905  0.2260 -0.1864 -0.5034
   25CHL1   C10 1815   5.660   4.834   6.025  0.5496  0.8550 -0.0426
   25CHL1   C19 1816   5.745   4.711   6.007  0.2961 -0.1965  0.1349
   25CHL1  H19A 1817   5.692   4.615   5.986  0.7968  0.0810 -2.9025
   25CHL1  H19B 1818   5.826   4.739   5.936  0.4338  1.3439  0.8744
   25CHL1  H19C 1819   5.804   4.696   6.100 -2.4818  1.4877  2.3485
   25CHL1    C1 1820   5.740   4.956   6.072 -0.2089 -0.0459 -1.1036
   25CHL1   H1A 1821   5.816   5.004   6.006 -0.2102  1.2146 -0.2050
   25CHL1   H1B 1822   5.669   5.039   6.089 -0.9692 -0.9608  0.3403
   25CHL1    C2 1823   5.797   4.952   6.214  0.2022  0.6857 -0.4765
   25CHL1   H2A 1824   5.839   5.054   6.224  0.7358  0.4020  0.2558
   25CHL1   H2B 1825   5.874   4.872   6.215 -1.2786 -0.8001 -0.4693
   25CHL1   C20 1826   5.411   4.904   5.363 -0.2294  0.4184 -0.4245
   25CHL1   H20 1827   5.521   4.920   5.362 -0.1030 -0.4552 -0.6973
   25CHL1   C21 1828   5.349   5.031   5.305 -0.0763 -0.1776 -0.7872
   25CHL1  H21A 1829   5.412   5.066   5.221  1.5992  2.4284  1.4024
   25CHL1  H21B 1830   5.346   5.106   5.386 -0.7248 -0.9558 -0.0785
   25CHL1  H21C 1831   5.249   5.014   5.260 -0.0747  0.2906 -0.9735
   25CHL1   C22 1832   5.383   4.787   5.275  0.5698  0.0728  0.2713
   25CHL1  H22A 1833   5.420   4.696   5.326 -0.5280 -0.0860  0.8054
   25CHL1  H22B 1834   5.273   4.769   5.270  0.7743 -1.3597  0.5433
   25CHL1   C23 1835   5.441   4.807   5.137  0.2203  0.2614 -0.0707
   25CHL1  H23A 1836   5.400   4.899   5.089  0.8479  0.1016 -0.9334
   25CHL1  H23B 1837   5.550   4.830   5.145 -0.1404  1.4545  2.6184
   25CHL1   C24 1838   5.401   4.696   5.040  0.0281  0.1471  0.3406
   25CHL1  H24A 1839   5.441   4.598   5.073 -1.0912 -0.1839  0.7555
   25CHL1  H24B 1840   5.290   4.692   5.029 -0.1497  1.4410  1.4121
   25CHL1   C25 1841   5.449   4.716   4.895  0.3323  0.4601  0.3612
   25CHL1   H25 1842   5.417   4.818   4.864 -0.5621 -0.2754 -1.2744
   25CHL1   C26 1843   5.599   4.702   4.890  0.0309 -0.2778  0.1410
   25CHL1  H26A 1844   5.640   4.718   4.788  3.3916  1.7537  1.6433
   25CHL1  H26B 1845   5.656   4.773   4.953  2.2707 -2.2899  0.5272
   25CHL1  H26C 1846   5.627   4.597   4.915 -1.1313 -0.7029 -0.2753
   25CHL1   C27 1847   5.390   4.609   4.798 -0.1887 -0.3900  0.4665
   25CHL1  H27A 1848   5.280   4.599   4.787  0.0282 -0.8981 -1.8125
   25CHL1  H27B 1849   5.428   4.630   4.695  2.3289 -2.8163  0.7825
   25CHL1  H27C 1850   5.430   4.507   4.817  0.3169 -0.4857 -0.9754
   26CHL1    C3 1851   2.496   3.293   6.258  1.1150  0.1415  0.4595
   26CHL1    H3 1852   2.454   3.200   6.215  1.1792  0.5206 -0.4548
   26CHL1    O3 1853   2.468   3.287   6.400  0.1221  0.7743  0.0030
   26CHL1   H3' 1854   2.530   3.346   6.444  0.2913  0.3182  0.3832
   26CHL1    C4 1855   2.650   3.291   6.223 -0.2889 -0.5114 -0.0557
   26CHL1   H4A 1856   2.694   3.374   6.282  0.5620  0.1920 -1.6170
   26CHL1   H4B 1857   2.708   3.206   6.267  1.0474  1.7616  2.9319
   26CHL1    C5 1858   2.671   3.295   6.073 -1.0129 -0.5840 -0.3139
   26CHL1    C6 1859   2.732   3.194   6.011  0.1090  0.5224  0.2354
   26CHL1    H6 1860   2.771   3.112   6.072 -0.0334  2.0017  2.4270
   26CHL1    C7 1861   2.764   3.184   5.863 -0.1456 -0.0540  0.8090
   26CHL1   H7A 1862   2.870   3.153   5.848 -0.9605 -2.3138 -0.8286
   26CHL1   H7B 1863   2.705   3.097   5.827  0.1198 -0.2752  0.8963
   26CHL1    C8 1864   2.727   3.313   5.790  0.2029 -0.1677  0.9830
   26CHL1    H8 1865   2.801   3.394   5.808 -1.3019  1.5126 -0.0536
   26CHL1   C14 1866   2.721   3.288   5.636  0.6481  1.0031 -0.1713
   26CHL1   H14 1867   2.636   3.217   5.626 -1.3718  3.0733  1.0028
   26CHL1   C15 1868   2.849   3.237   5.571  0.2186  0.4227 -0.4483
   26CHL1  H15A 1869   2.939   3.292   5.604  0.2760 -0.2254  0.5264
   26CHL1  H15B 1870   2.860   3.128   5.594 -0.3690  0.9014  2.6179
   26CHL1   C16 1871   2.824   3.262   5.424 -0.2457  0.3395 -0.1970
   26CHL1  H16A 1872   2.924   3.303   5.396  0.2198 -0.7466 -0.1756
   26CHL1  H16B 1873   2.803   3.164   5.376  1.1818  0.4181 -1.0416
   26CHL1   C17 1874   2.703   3.353   5.411 -0.5669 -0.1525 -0.4314
   26CHL1   H17 1875   2.614   3.289   5.394  0.3624 -1.8996  0.9797
   26CHL1   C13 1876   2.687   3.411   5.552  0.4440 -0.4041  0.3263
   26CHL1   C18 1877   2.787   3.532   5.569 -0.5741 -0.4919  1.2137
   26CHL1  H18A 1878   2.767   3.613   5.496  0.4390 -0.6775  0.7127
   26CHL1  H18B 1879   2.779   3.565   5.675  0.7606  0.2970  1.0912
   26CHL1  H18C 1880   2.887   3.487   5.549 -2.2684 -3.3408 -1.8384
   26CHL1   C12 1881   2.537   3.451   5.595 -0.4861  0.0252 -0.9908
   26CHL1  H12A 1882   2.509   3.543   5.539  0.9091  1.6470  0.8709
   26CHL1  H12B 1883   2.465   3.369   5.571  0.8213 -1.2892 -0.5165
   26CHL1   C11 1884   2.533   3.484   5.745  0.6848 -0.3109  0.1341
   26CHL1  H11A 1885   2.576   3.585   5.761 -0.3484 -0.2457  3.3691
   26CHL1  H11B 1886   2.426   3.494   5.773  0.3873 -0.7831 -0.7977
   26CHL1    C9 1887   2.594   3.370   5.838 -0.8955  0.1404 -0.7258
   26CHL1    H9 1888   2.516   3.291   5.835  0.3281 -1.0975 -2.4695
   26CHL1   C10 1889   2.601   3.404   5.992  0.4642  0.3953 -0.7766
   26CHL1   C19 1890   2.683   3.529   6.009  0.4649  0.8918 -0.2292
   26CHL1  H19A 1891   2.622   3.608   5.960 -0.3372  1.0509  0.9966
   26CHL1  H19B 1892   2.688   3.555   6.116 -1.7703  2.0880 -0.3586
   26CHL1  H19C 1893   2.786   3.522   5.969  0.4032  1.5291 -0.5095
   26CHL1    C1 1894   2.457   3.427   6.049  0.9356 -0.4986  0.1019
   26CHL1   H1A 1895   2.407   3.512   5.997  2.8087  0.0910 -0.8002
   26CHL1   H1B 1896   2.390   3.344   6.018 -0.4503  0.9436 -0.9315
   26CHL1    C2 1897   2.435   3.425   6.206  0.1326  0.2411  0.0490
   26CHL1   H2A 1898   2.328   3.447   6.226  0.2868  1.0968 -0.0423
   26CHL1   H2B 1899   2.493   3.509   6.249 -1.4558  0.8740  1.0312
   26CHL1   C20 1900   2.706   3.444   5.291  0.2945  0.1413  0.4379
   26CHL1   H20 1901   2.774   3.529   5.311 -1.3693  0.8615  3.8634
   26CHL1   C21 1902   2.566   3.519   5.279  0.5473 -0.0451  0.4651
   26CHL1  H21A 1903   2.539   3.552   5.176 -0.1636  1.5259  1.1265
   26CHL1  H21B 1904   2.577   3.609   5.343  0.7529 -0.5478  1.1424
   26CHL1  H21C 1905   2.488   3.448   5.313  0.3277 -0.3784 -0.6955
   26CHL1   C22 1906   2.744   3.365   5.158 -0.6406 -0.1664  0.3016
   26CHL1  H22A 1907   2.854   3.350   5.154 -0.6663 -0.2309 -0.1664
   26CHL1  H22B 1908   2.682   3.273   5.159  0.9586 -1.3155 -0.8714
   26CHL1   C23 1909   2.720   3.440   5.024 -0.1957 -0.2302 -1.1689
   26CHL1  H23A 1910   2.611   3.446   5.005 -1.4050 -0.6248  4.1741
   26CHL1  H23B 1911   2.769   3.540   5.027  2.2453 -1.3580 -0.7580
   26CHL1   C24 1912   2.797   3.373   4.902 -0.5281 -0.1809 -0.1423
   26CHL1  H24A 1913   2.903   3.355   4.930 -0.4302 -1.0896 -1.0633
   26CHL1  H24B 1914   2.739   3.281   4.881 -1.2973 -0.0611  1.3077
   26CHL1   C25 1915   2.794   3.469   4.782 -0.4245  0.1839  0.4949
   26CHL1   H25 1916   2.846   3.563   4.812 -0.5459  0.5677 -0.4592
   26CHL1   C26 1917   2.863   3.395   4.671  0.4406 -0.4349 -0.8368
   26CHL1  H26A 1918   2.856   3.285   4.685  3.1383 -0.4902  0.8788
   26CHL1  H26B 1919   2.832   3.428   4.569  2.4146 -0.0557 -1.3649
   26CHL1  H26C 1920   2.970   3.423   4.669 -0.1236  1.8598 -1.2412
   26CHL1   C27 1921   2.654   3.514   4.740  0.6086 -0.7689  0.1153
   26CHL1  H27A 1922   2.660   3.575   4.647  1.8581 -1.1140 -0.0561
   26CHL1  H27B 1923   2.585   3.431   4.713  0.5147 -0.6504 -0.0111
   26CHL1  H27C 1924   2.612   3.578   4.820 -0.8278 -2.8946  1.1609
   27CHL1    C3 1925   2.830   1.254   6.780 -0.0143 -0.2741 -0.1783
   27CHL1    H3 1926   2.723   1.226   6.766 -0.1596 -0.0386  0.4279
   27CHL1    O3 1927   2.859   1.250   6.917 -0.2664  0.1660 -0.1573
   27CHL1   H3' 1928   2.806   1.322   6.952 -1.1665 -0.6898  0.2820
   27CHL1    C4 1929   2.907   1.152   6.703 -0.6622 -0.3145 -0.1204
   27CHL1   H4A 1930   3.015   1.157   6.731 -1.0371  0.3373  1.3202
   27CHL1   H4B 1931   2.889   1.052   6.747  1.2538 -2.0644 -2.9643
   27CHL1    C5 1932   2.879   1.151   6.555 -0.7006 -0.0754  0.0528
   27CHL1    C6 1933   2.837   1.043   6.488  0.0159 -0.5620  0.2766
   27CHL1    H6 1934   2.814   0.957   6.552 -1.5410  0.3900  1.0736
   27CHL1    C7 1935   2.803   1.031   6.335  0.2132  0.1989 -0.6096
   27CHL1   H7A 1936   2.852   0.939   6.295 -0.1828  0.5607 -1.9638
   27CHL1   H7B 1937   2.693   1.023   6.325  0.1708 -1.3075  0.6728
   27CHL1    C8 1938   2.865   1.152   6.262 -0.2359 -0.3520 -0.7556
   27CHL1    H8 1939   2.975   1.134   6.264 -0.5006 -2.4267 -1.7602
   27CHL1   C14 1940   2.807   1.170   6.126  0.3154 -0.7445 -0.5535
   27CHL1   H14 1941   2.702   1.203   6.138  0.7390  0.6650 -0.5826
   27CHL1   C15 1942   2.791   1.047   6.042  0.4097  1.2439  0.0841
   27CHL1  H15A 1943   2.873   0.973   6.053 -1.9802 -1.2810  2.7408
   27CHL1  H15B 1944   2.708   0.981   6.075  1.4770 -0.1030  0.1572
   27CHL1   C16 1945   2.780   1.091   5.897 -0.0871 -0.2341  0.6485
   27CHL1  H16A 1946   2.853   1.035   5.835  0.3465 -0.2948  1.2085
   27CHL1  H16B 1947   2.685   1.061   5.847 -0.8643 -1.3900  2.7184
   27CHL1   C17 1948   2.803   1.245   5.901  0.2914  0.0126  0.3163
   27CHL1   H17 1949   2.703   1.292   5.913  0.2398  1.1045 -3.1124
   27CHL1   C13 1950   2.877   1.270   6.039 -0.0920  0.1518 -0.0850
   27CHL1   C18 1951   3.030   1.247   6.032  0.6369  0.0882  0.1717
   27CHL1  H18A 1952   3.082   1.241   6.130 -1.1969  0.9398  1.2419
   27CHL1  H18B 1953   3.035   1.144   5.991 -2.5384  0.4773 -1.5047
   27CHL1  H18C 1954   3.077   1.314   5.957 -0.9984  0.2569 -0.7358
   27CHL1   C12 1955   2.846   1.409   6.109  0.3299  0.0570 -0.4220
   27CHL1  H12A 1956   2.887   1.498   6.058  2.8309 -0.6262  0.2810
   27CHL1  H12B 1957   2.735   1.415   6.101  0.1378 -2.3179 -0.1518
   27CHL1   C11 1958   2.893   1.414   6.258  0.0696 -0.3844 -0.3784
   27CHL1  H11A 1959   3.003   1.429   6.255 -0.1519  1.4355 -0.2882
   27CHL1  H11B 1960   2.855   1.509   6.299 -2.0446  0.7537 -4.4865
   27CHL1    C9 1961   2.847   1.284   6.342  0.3878 -0.7414 -0.1771
   27CHL1    H9 1962   2.737   1.297   6.353  0.3183  0.5511 -1.9379
   27CHL1   C10 1963   2.906   1.283   6.485  0.8393  0.5100  1.0859
   27CHL1   C19 1964   3.062   1.315   6.484 -0.4179 -0.6472 -0.7570
   27CHL1  H19A 1965   3.089   1.421   6.463 -1.5038  0.1734  1.6183
   27CHL1  H19B 1966   3.088   1.297   6.590  0.3911 -1.8432 -1.1340
   27CHL1  H19C 1967   3.119   1.241   6.424  2.7200  1.6426 -0.8570
   27CHL1    C1 1968   2.829   1.392   6.565 -0.0057 -0.4562 -0.3794
   27CHL1   H1A 1969   2.830   1.490   6.513 -1.1153  0.2276  0.8303
   27CHL1   H1B 1970   2.724   1.361   6.548  0.0737 -0.3720 -1.0398
   27CHL1    C2 1971   2.857   1.393   6.715 -0.0285  0.2912  0.0564
   27CHL1   H2A 1972   2.785   1.463   6.764 -1.0720 -1.4749  1.1664
   27CHL1   H2B 1973   2.961   1.426   6.731  0.8880 -0.8358 -2.9673
   27CHL1   C20 1974   2.855   1.301   5.764  0.1939  0.2833 -0.5878
   27CHL1   H20 1975   2.961   1.268   5.754 -0.0988 -0.6024 -0.8916
   27CHL1   C21 1976   2.819   1.447   5.770  0.0609 -0.2666 -0.0785
   27CHL1  H21A 1977   2.835   1.493   5.670  1.2548  0.9302  0.6244
   27CHL1  H21B 1978   2.887   1.495   5.844  0.3265  0.8525 -1.0184
   27CHL1  H21C 1979   2.715   1.459   5.808  0.1551  0.4763 -0.0231
   27CHL1   C22 1980   2.787   1.232   5.638  0.0583 -0.7165  0.5152
   27CHL1  H22A 1981   2.819   1.127   5.653 -0.1792 -0.3978  4.1328
   27CHL1  H22B 1982   2.676   1.236   5.645  0.1121 -0.2051  1.1481
   27CHL1   C23 1983   2.841   1.287   5.503  0.6115  0.2511 -0.3319
   27CHL1  H23A 1984   2.835   1.397   5.490  0.3222  0.3088  0.2412
   27CHL1  H23B 1985   2.950   1.265   5.498  0.2440 -1.5392 -2.3335
   27CHL1   C24 1986   2.783   1.235   5.371  0.8714  0.2165  0.1452
   27CHL1  H24A 1987   2.778   1.125   5.375  0.0831  0.2194 -0.4784
   27CHL1  H24B 1988   2.679   1.273   5.362 -0.1008 -2.1821  0.5435
   27CHL1   C25 1989   2.870   1.287   5.252 -0.3931 -0.0047  0.5241
   27CHL1   H25 1990   2.975   1.264   5.280 -1.2501 -2.3892  2.0675
   27CHL1   C26 1991   2.830   1.230   5.119 -0.0867  0.3504 -0.5824
   27CHL1  H26A 1992   2.833   1.120   5.127  1.6765  0.3219 -1.3215
   27CHL1  H26B 1993   2.727   1.254   5.084 -1.5251  0.5791  3.3199
   27CHL1  H26C 1994   2.902   1.273   5.046 -1.9986  2.0467 -1.5778
   27CHL1   C27 1995   2.875   1.440   5.235 -0.2052 -0.3608 -0.4851
   27CHL1  H27A 1996   2.911   1.493   5.326 -0.8426 -0.3467 -0.2308
   27CHL1  H27B 1997   2.941   1.465   5.150  0.3055  0.3940  0.1207
   27CHL1  H27C 1998   2.773   1.480   5.212 -0.5784 -0.7606  0.4039
   28CHL1    C3 1999   1.428   5.152   6.546 -0.0883  0.2006 -0.1126
   28CHL1    H3 2000   1.411   5.255   6.584 -2.0097 -0.7315  1.7333
   28CHL1    O3 2001   1.423   5.064   6.662 -0.1805  0.2065 -0.1938
   28CHL1   H3' 2002   1.475   4.989   6.631  0.2354  0.5448 -0.3338
   28CHL1    C4 2003   1.321   5.106   6.443 -0.0977  0.9161  0.5658
   28CHL1   H4A 2004   1.331   4.997   6.423 -0.6392  0.9988 -0.2264
   28CHL1   H4B 2005   1.222   5.110   6.493 -1.4023 -0.9447 -1.6137
   28CHL1    C5 2006   1.324   5.181   6.312 -0.2980  0.4809  0.3149
   28CHL1    C6 2007   1.214   5.241   6.271 -0.0189 -0.5762  0.5760
   28CHL1    H6 2008   1.119   5.235   6.326 -1.1190  0.9882 -1.0199
   28CHL1    C7 2009   1.208   5.319   6.143  0.8540 -0.2413  0.6021
   28CHL1   H7A 2010   1.113   5.295   6.090  1.3965  0.5346 -0.7970
   28CHL1   H7B 2011   1.210   5.428   6.161  0.8823 -0.3998  1.5861
   28CHL1    C8 2012   1.321   5.289   6.045  0.6176  0.0829 -0.1215
   28CHL1    H8 2013   1.319   5.190   5.995  2.0632 -0.3127  0.5470
   28CHL1   C14 2014   1.329   5.392   5.932  0.3817 -0.1297 -0.1331
   28CHL1   H14 2015   1.337   5.493   5.977  0.4781  0.1676 -0.8066
   28CHL1   C15 2016   1.212   5.396   5.837 -0.0259 -0.3081  0.2576
   28CHL1  H15A 2017   1.190   5.294   5.799  2.6525 -0.8669 -0.0019
   28CHL1  H15B 2018   1.122   5.428   5.894  1.8465  2.0228  2.1466
   28CHL1   C16 2019   1.263   5.480   5.724  0.2157 -0.3648  0.4988
   28CHL1  H16A 2020   1.218   5.454   5.626 -1.1692  0.8058  0.7830
   28CHL1  H16B 2021   1.226   5.584   5.735 -0.1616 -0.3857 -0.4395
   28CHL1   C17 2022   1.421   5.496   5.739 -0.3551 -0.0416  0.1391
   28CHL1   H17 2023   1.431   5.590   5.797 -1.3903  1.2864 -1.6926
   28CHL1   C13 2024   1.451   5.387   5.845 -0.0858 -0.3315  1.6987
   28CHL1   C18 2025   1.458   5.249   5.768 -0.0715  0.0140 -0.0506
   28CHL1  H18A 2026   1.474   5.162   5.835 -1.8339 -0.5022 -0.2380
   28CHL1  H18B 2027   1.361   5.226   5.718  0.5413 -1.0693 -0.7876
   28CHL1  H18C 2028   1.548   5.257   5.703  0.1892 -1.0944  0.1540
   28CHL1   C12 2029   1.585   5.417   5.931  1.1456 -0.1384  0.4223
   28CHL1  H12A 2030   1.673   5.393   5.867  1.0604 -0.2713  0.3556
   28CHL1  H12B 2031   1.567   5.519   5.969 -6.2858  0.4993 -2.9183
   28CHL1   C11 2032   1.589   5.317   6.050  0.3565  0.0309  0.4130
   28CHL1  H11A 2033   1.618   5.220   6.005  0.4056 -0.7018  1.9465
   28CHL1  H11B 2034   1.667   5.347   6.123  0.5273 -1.2881  0.8031
   28CHL1    C9 2035   1.452   5.301   6.130 -0.0779  0.6850  0.4590
   28CHL1    H9 2036   1.451   5.398   6.185 -1.9976  1.4430 -0.7993
   28CHL1   C10 2037   1.459   5.193   6.240 -0.2624 -0.0094 -0.1315
   28CHL1   C19 2038   1.489   5.053   6.174 -0.0928  0.1791  0.1325
   28CHL1  H19A 2039   1.409   5.048   6.097 -0.8113  2.6240  0.6568
   28CHL1  H19B 2040   1.594   5.059   6.137  0.8234 -0.3835  2.4443
   28CHL1  H19C 2041   1.479   4.973   6.250 -1.2352 -1.2488 -1.4289
   28CHL1    C1 2042   1.566   5.227   6.350  0.1595  0.9385 -0.1105
   28CHL1   H1A 2043   1.671   5.225   6.311 -0.1279 -1.1261 -0.9417
   28CHL1   H1B 2044   1.559   5.332   6.385  1.9318  0.1288  3.1737
   28CHL1    C2 2045   1.561   5.139   6.475  0.0775  0.6726 -0.8650
   28CHL1   H2A 2046   1.640   5.172   6.546  1.0663 -0.3460 -1.4650
   28CHL1   H2B 2047   1.586   5.032   6.457 -1.1438  0.2228 -0.0307
   28CHL1   C20 2048   1.505   5.501   5.614  0.4077  0.8197  0.4497
   28CHL1   H20 2049   1.601   5.452   5.640  1.2107  1.7101 -0.7493
   28CHL1   C21 2050   1.547   5.645   5.581  0.6757 -0.6213 -0.0826
   28CHL1  H21A 2051   1.633   5.630   5.512  0.5650  1.7661 -0.8598
   28CHL1  H21B 2052   1.570   5.697   5.677  0.6892  0.2901 -0.5697
   28CHL1  H21C 2053   1.465   5.696   5.526  0.0943 -1.3865  0.0674
   28CHL1   C22 2054   1.440   5.425   5.485 -0.3831 -0.2196 -0.2791
   28CHL1  H22A 2055   1.404   5.324   5.512 -0.2837 -0.0062  0.6774
   28CHL1  H22B 2056   1.352   5.481   5.447 -0.2686 -0.2232 -0.5552
   28CHL1   C23 2057   1.548   5.399   5.378  0.0458 -0.5664  1.0549
   28CHL1  H23A 2058   1.498   5.358   5.288 -0.2147  2.6977 -0.4332
   28CHL1  H23B 2059   1.594   5.495   5.345 -1.9720  0.0730 -0.1127
   28CHL1   C24 2060   1.660   5.299   5.431 -0.1733  0.0157  0.2253
   28CHL1  H24A 2061   1.726   5.354   5.501  0.8380 -1.7870  0.7518
   28CHL1  H24B 2062   1.613   5.213   5.484  0.9146 -0.3494  0.6120
   28CHL1   C25 2063   1.758   5.257   5.315  0.5043  0.5327  0.2753
   28CHL1   H25 2064   1.695   5.215   5.234  0.2970 -0.0080  0.7081
   28CHL1   C26 2065   1.849   5.371   5.261  0.6000 -0.3558 -0.3970
   28CHL1  H26A 2066   1.790   5.460   5.231  1.0071 -0.2947 -1.0228
   28CHL1  H26B 2067   1.910   5.409   5.346  0.2957  0.1300 -0.3906
   28CHL1  H26C 2068   1.911   5.326   5.182 -1.7243 -1.0593 -1.9327
   28CHL1   C27 2069   1.837   5.143   5.372  0.5364 -0.1245  0.3255
   28CHL1  H27A 2070   1.766   5.063   5.403 -1.9483  1.6222 -0.5324
   28CHL1  H27B 2071   1.907   5.110   5.292 -0.1813  0.4920 -0.5807
   28CHL1  H27C 2072   1.891   5.187   5.458  0.5594 -1.3496  0.9517
   29CHL1    C3 2073   6.816   0.190   3.104 -0.5440  0.5412 -0.2666
   29CHL1    H3 2074   6.749   0.105   3.126  0.7861 -0.6883 -0.8469
   29CHL1    O3 2075   6.781   0.239   2.979 -0.3741 -0.7449  0.2236
   29CHL1   H3' 2076   6.786   0.335   2.984  1.8639 -0.7813 -0.1925
   29CHL1    C4 2077   6.803   0.300   3.206  0.7567 -0.8054 -0.0660
   29CHL1   H4A 2078   6.872   0.385   3.186 -0.2143  0.4065  1.4557
   29CHL1   H4B 2079   6.698   0.335   3.197  0.6071 -1.7974 -3.2301
   29CHL1    C5 2080   6.837   0.241   3.339  0.1313 -0.2668 -0.0670
   29CHL1    C6 2081   6.756   0.236   3.448 -0.0230  0.5958 -0.1809
   29CHL1    H6 2082   6.653   0.274   3.438 -0.6195 -1.1606 -1.2868
   29CHL1    C7 2083   6.789   0.176   3.580 -0.0758  0.9254  0.1065
   29CHL1   H7A 2084   6.755   0.232   3.670 -1.9911  1.2964 -0.7988
   29CHL1   H7B 2085   6.761   0.069   3.587  0.8639  0.4359 -2.3812
   29CHL1    C8 2086   6.948   0.162   3.600  1.1372 -0.6601 -0.6378
   29CHL1    H8 2087   6.991   0.263   3.620  1.6762 -1.2072  1.1110
   29CHL1   C14 2088   6.969   0.080   3.728 -0.2441 -0.1756 -0.2862
   29CHL1   H14 2089   6.928  -0.021   3.709 -1.5693  0.2076  0.4464
   29CHL1   C15 2090   6.899   0.123   3.857  0.3623  0.2094 -0.0615
   29CHL1  H15A 2091   6.902   0.235   3.859  2.7485  0.2080  2.3969
   29CHL1  H15B 2092   6.801   0.073   3.867 -0.1088  1.2650  0.8044
   29CHL1   C16 2093   6.995   0.084   3.965  0.3150  0.5324  0.0485
   29CHL1  H16A 2094   7.045   0.175   4.004  1.6725 -0.0022 -0.3846
   29CHL1  H16B 2095   6.947   0.034   4.051  5.0252 -1.1387  2.0449
   29CHL1   C17 2096   7.098  -0.008   3.901 -0.5798  0.4478  0.5798
   29CHL1   H17 2097   7.047  -0.107   3.897 -1.2998  0.7399  1.8496
   29CHL1   C13 2098   7.113   0.056   3.759 -0.2807  0.5998 -0.3065
   29CHL1   C18 2099   7.201   0.187   3.771 -0.1535  0.6298 -0.3732
   29CHL1  H18A 2100   7.303   0.147   3.787 -1.3075 -3.0273 -1.2251
   29CHL1  H18B 2101   7.207   0.243   3.675  1.7420  1.8430  0.3966
   29CHL1  H18C 2102   7.165   0.257   3.850  1.1978  0.7711  0.1360
   29CHL1   C12 2103   7.167  -0.039   3.641  0.3058 -1.1862 -0.0244
   29CHL1  H12A 2104   7.276  -0.059   3.652  0.0004 -3.0470 -0.1031
   29CHL1  H12B 2105   7.113  -0.136   3.644  1.7551 -1.9852  1.5412
   29CHL1   C11 2106   7.144   0.025   3.500 -0.0028  0.4970 -0.3571
   29CHL1  H11A 2107   7.222   0.103   3.491 -2.6424  3.5747  1.5363
   29CHL1  H11B 2108   7.162  -0.052   3.422  2.5898  1.6851 -1.0548
   29CHL1    C9 2109   7.000   0.098   3.481 -0.3935  0.2168 -0.3506
   29CHL1    H9 2110   6.931   0.012   3.468 -1.8996  1.2696  0.4120
   29CHL1   C10 2111   6.981   0.179   3.349 -0.7182  0.5769  1.1338
   29CHL1   C19 2112   7.081   0.301   3.348 -0.1048  0.4220  0.2499
   29CHL1  H19A 2113   7.185   0.266   3.333 -0.9029 -1.3027 -1.7364
   29CHL1  H19B 2114   7.057   0.373   3.266 -0.1769 -1.1318 -1.1476
   29CHL1  H19C 2115   7.085   0.356   3.444 -1.6352 -1.6146  1.5540
   29CHL1    C1 2116   6.997   0.084   3.231 -0.5743  0.4538  0.0987
   29CHL1   H1A 2117   7.102   0.048   3.224  0.4472  2.7522  2.2081
   29CHL1   H1B 2118   6.924   0.001   3.242 -3.8820  3.2098  0.8979
   29CHL1    C2 2119   6.962   0.141   3.098  0.2292 -0.6602 -0.4176
   29CHL1   H2A 2120   6.962   0.065   3.017  0.1662 -0.7604 -0.3239
   29CHL1   H2B 2121   7.028   0.222   3.060  1.9169 -2.4935 -1.6078
   29CHL1   C20 2122   7.222  -0.003   3.999  0.1723  0.0220  0.7206
   29CHL1   H20 2123   7.274   0.094   3.989  0.1888  0.0738  1.2788
   29CHL1   C21 2124   7.327  -0.106   3.946  0.2477 -0.6536 -0.0704
   29CHL1  H21A 2125   7.414  -0.096   4.014 -0.4219  0.7549  0.6317
   29CHL1  H21B 2126   7.365  -0.074   3.846 -0.1851  0.6829  0.1736
   29CHL1  H21C 2127   7.295  -0.212   3.936 -0.2559 -0.5547  0.5066
   29CHL1   C22 2128   7.192  -0.035   4.142 -0.5218  0.5062 -0.2753
   29CHL1  H22A 2129   7.114   0.033   4.182  0.4816  1.3548  0.3035
   29CHL1  H22B 2130   7.170  -0.144   4.145  0.1145  0.3293 -1.5387
   29CHL1   C23 2131   7.308   0.010   4.241 -0.7194  0.4401 -0.2335
   29CHL1  H23A 2132   7.402  -0.040   4.208  0.2646  1.8282  0.3683
   29CHL1  H23B 2133   7.317   0.116   4.211  1.5756  1.0328  2.1642
   29CHL1   C24 2134   7.268   0.007   4.389 -0.7719 -0.2584  0.5103
   29CHL1  H24A 2135   7.207   0.098   4.406 -0.3071  0.1368  0.0837
   29CHL1  H24B 2136   7.224  -0.087   4.429 -1.3398 -0.0790  0.3097
   29CHL1   C25 2137   7.406   0.028   4.466  0.3829  0.2126  0.3844
   29CHL1   H25 2138   7.476  -0.036   4.408 -0.2413  0.0059 -0.1473
   29CHL1   C26 2139   7.457   0.176   4.469  0.0156 -0.6124  0.5956
   29CHL1  H26A 2140   7.384   0.232   4.530 -1.7395  0.1115 -2.0280
   29CHL1  H26B 2141   7.553   0.175   4.526  0.8490 -0.3790 -0.7732
   29CHL1  H26C 2142   7.471   0.230   4.373 -1.0445 -0.1439  0.6977
   29CHL1   C27 2143   7.415  -0.038   4.605 -0.1354 -0.3743  0.2320
   29CHL1  H27A 2144   7.520  -0.036   4.641 -0.0877  1.5606  0.0692
   29CHL1  H27B 2145   7.344   0.012   4.674 -0.7397 -0.6581 -0.1797
   29CHL1  H27C 2146   7.382  -0.144   4.597  0.3253 -0.4672 -0.5238
   30CHL1    C3 2147   0.903   0.532   2.924 -0.0481  0.0505 -0.7202
   30CHL1    H3 2148   0.921   0.425   2.951  0.4409  0.3510  0.1591
   30CHL1    O3 2149   0.916   0.543   2.782 -0.3130 -0.1478  0.4952
   30CHL1   H3' 2150   1.008   0.555   2.757 -0.5847  1.0700  0.0159
   30CHL1    C4 2151   0.763   0.570   2.966 -0.3137  0.0641 -0.0711
   30CHL1   H4A 2152   0.743   0.674   2.931 -3.0864 -0.7303 -1.0660
   30CHL1   H4B 2153   0.687   0.508   2.915  0.0225  0.7085 -1.3879
   30CHL1    C5 2154   0.737   0.573   3.121 -0.1290  0.9771  0.2820
   30CHL1    C6 2155   0.638   0.502   3.181 -0.3156  0.1306  0.5548
   30CHL1    H6 2156   0.568   0.442   3.121  0.3528 -0.1128  0.0086
   30CHL1    C7 2157   0.609   0.506   3.329 -0.7446 -0.4635 -0.1640
   30CHL1   H7A 2158   0.502   0.503   3.361 -1.3085 -0.5454 -1.9210
   30CHL1   H7B 2159   0.652   0.406   3.351  1.1984  0.7112  1.7415
   30CHL1    C8 2160   0.699   0.610   3.409  0.6523  0.3922  0.3132
   30CHL1    H8 2161   0.660   0.712   3.387  1.6867  0.4799 -1.2619
   30CHL1   C14 2162   0.703   0.571   3.554 -0.0421 -0.2556  0.3381
   30CHL1   H14 2163   0.760   0.476   3.558  0.1363 -0.1344  0.7719
   30CHL1   C15 2164   0.575   0.549   3.634  0.4833 -0.1965  0.0962
   30CHL1  H15A 2165   0.503   0.627   3.599  2.5424  1.3383 -0.9776
   30CHL1  H15B 2166   0.536   0.448   3.610 -1.8939 -0.0759  2.8298
   30CHL1   C16 2167   0.596   0.566   3.780  0.4620  0.1349 -0.0590
   30CHL1  H16A 2168   0.523   0.634   3.829  0.1530 -1.5724  1.9770
   30CHL1  H16B 2169   0.574   0.472   3.835 -1.6585 -0.5907 -1.9832
   30CHL1   C17 2170   0.738   0.617   3.787 -0.3876  0.4168 -0.5880
   30CHL1   H17 2171   0.800   0.526   3.802 -1.6223 -0.4457 -0.6293
   30CHL1   C13 2172   0.780   0.668   3.647 -0.4063  0.6540 -0.1992
   30CHL1   C18 2173   0.725   0.808   3.633  0.2339 -0.3289  0.0484
   30CHL1  H18A 2174   0.777   0.887   3.692  1.0323  0.5250 -1.7397
   30CHL1  H18B 2175   0.727   0.846   3.529 -3.0193  1.1312  0.3779
   30CHL1  H18C 2176   0.617   0.806   3.659 -0.0384 -2.4668 -1.0391
   30CHL1   C12 2177   0.923   0.659   3.589  0.1743 -0.3526 -0.1482
   30CHL1  H12A 2178   0.980   0.740   3.640  0.0715 -1.2490  1.4655
   30CHL1  H12B 2179   0.956   0.556   3.613  1.0891  0.4300  2.2782
   30CHL1   C11 2180   0.938   0.689   3.435 -0.1699 -0.1412 -0.5532
   30CHL1  H11A 2181   0.915   0.797   3.422 -0.0463 -0.1053 -0.4730
   30CHL1  H11B 2182   1.046   0.674   3.413 -0.8055 -1.1044 -3.5019
   30CHL1    C9 2183   0.840   0.606   3.355  0.6130  0.3884  0.8389
   30CHL1    H9 2184   0.872   0.500   3.360 -0.9171 -0.1545 -0.1291
   30CHL1   C10 2185   0.842   0.646   3.199 -0.0070 -0.2715 -0.2177
   30CHL1   C19 2186   0.819   0.795   3.183 -0.9367  0.6713 -0.2743
   30CHL1  H19A 2187   0.722   0.825   3.229 -1.5434  1.9275 -2.2111
   30CHL1  H19B 2188   0.890   0.864   3.232  0.4568 -0.8871 -0.0185
   30CHL1  H19C 2189   0.815   0.820   3.075  1.2675 -0.7806 -0.7499
   30CHL1    C1 2190   0.978   0.606   3.152  0.1140 -0.1835  0.1380
   30CHL1   H1A 2191   1.053   0.668   3.205  0.4113 -1.0152  0.7096
   30CHL1   H1B 2192   0.992   0.500   3.182 -1.1319 -0.3817  0.0777
   30CHL1    C2 2193   1.003   0.611   3.004  0.1816 -0.0801 -0.0592
   30CHL1   H2A 2194   1.107   0.592   2.967  0.4774  4.4883 -2.3143
   30CHL1   H2B 2195   0.979   0.714   2.968 -0.5142  0.0765  0.8215
   30CHL1   C20 2196   0.769   0.702   3.910  0.4125 -0.5049  0.0489
   30CHL1   H20 2197   0.711   0.796   3.900  1.9087  0.2780 -1.7245
   30CHL1   C21 2198   0.919   0.742   3.914 -0.3513 -0.3434 -0.7522
   30CHL1  H21A 2199   0.955   0.769   4.015  1.2023  0.3876 -1.4755
   30CHL1  H21B 2200   0.940   0.823   3.841  0.1772  0.4291  0.2289
   30CHL1  H21C 2201   0.984   0.658   3.881 -0.9457 -1.3102  0.4562
   30CHL1   C22 2202   0.728   0.634   4.043 -0.3869  0.0074 -0.6092
   30CHL1  H22A 2203   0.618   0.619   4.042 -0.8631  2.5199  1.8532
   30CHL1  H22B 2204   0.775   0.534   4.057 -0.2672  0.2677  1.0330
   30CHL1   C23 2205   0.751   0.717   4.170 -0.9444  0.0963 -0.0384
   30CHL1  H23A 2206   0.859   0.734   4.189 -0.2871 -3.5882  0.3097
   30CHL1  H23B 2207   0.692   0.811   4.161 -1.4177 -0.2583 -0.7095
   30CHL1   C24 2208   0.693   0.645   4.298 -1.1844 -0.0046  0.3053
   30CHL1  H24A 2209   0.594   0.611   4.260 -0.7982 -1.5646  0.6590
   30CHL1  H24B 2210   0.764   0.562   4.318  0.5542  1.7028  1.6688
   30CHL1   C25 2211   0.678   0.727   4.428  0.0876  0.1659 -0.8336
   30CHL1   H25 2212   0.610   0.813   4.411 -0.8340 -0.8383 -2.5372
   30CHL1   C26 2213   0.616   0.638   4.533 -0.2656  0.1549  0.7174
   30CHL1  H26A 2214   0.610   0.688   4.632 -0.5397  0.1971  0.6801
   30CHL1  H26B 2215   0.515   0.605   4.501  0.1358 -1.2339  0.8167
   30CHL1  H26C 2216   0.673   0.542   4.539  0.8382  0.2413 -3.9825
   30CHL1   C27 2217   0.805   0.791   4.487  0.6408 -0.0331  0.0076
   30CHL1  H27A 2218   0.858   0.859   4.418 -1.0717  2.0716  0.6589
   30CHL1  H27B 2219   0.788   0.860   4.572  0.7929  1.1106 -0.8604
   30CHL1  H27C 2220   0.879   0.716   4.524 -0.0144 -1.1479 -0.8672
   31CHL1    C3 2221   0.372   4.251   3.274  0.1749  0.0991 -0.0774
   31CHL1    H3 2222   0.458   4.321   3.282  1.0530 -0.8623 -0.7643
   31CHL1    O3 2223   0.320   4.229   3.143  0.3617 -0.1412 -0.8412
   31CHL1   H3' 2224   0.245   4.171   3.155  0.3643 -0.1559 -0.8950
   31CHL1    C4 2225   0.439   4.118   3.310  0.7462  0.0022 -0.2159
   31CHL1   H4A 2226   0.361   4.041   3.297 -0.4743  1.2201 -0.2632
   31CHL1   H4B 2227   0.517   4.104   3.231 -0.2330 -1.2601 -0.9980
   31CHL1    C5 2228   0.483   4.129   3.456  0.6555 -0.1108 -0.3915
   31CHL1    C6 2229   0.611   4.109   3.488  0.0766  0.7293 -0.7532
   31CHL1    H6 2230   0.687   4.071   3.418  0.6227 -1.8495  1.0809
   31CHL1    C7 2231   0.657   4.096   3.628 -0.4267  0.5678 -0.3858
   31CHL1   H7A 2232   0.731   4.014   3.639 -0.5403  0.1980 -2.0907
   31CHL1   H7B 2233   0.710   4.191   3.654  2.5279 -1.2371  0.7284
   31CHL1    C8 2234   0.544   4.081   3.729 -0.2993  0.2540 -0.3564
   31CHL1    H8 2235   0.497   3.980   3.726  0.0362  0.1011 -0.4840
   31CHL1   C14 2236   0.606   4.109   3.863  0.0491 -0.1404 -0.0028
   31CHL1   H14 2237   0.653   4.209   3.852  0.9663 -0.5456  0.0828
   31CHL1   C15 2238   0.721   4.014   3.902 -0.2471  0.3684 -0.1437
   31CHL1  H15A 2239   0.708   3.907   3.875 -1.3245  0.8828 -1.8181
   31CHL1  H15B 2240   0.809   4.063   3.855  0.5151  0.3637  1.2331
   31CHL1   C16 2241   0.729   4.035   4.053  0.4501 -0.0000 -0.7116
   31CHL1  H16A 2242   0.717   3.938   4.105  0.3350  1.4588  2.2091
   31CHL1  H16B 2243   0.825   4.085   4.075  0.7072 -0.2821 -1.1775
   31CHL1   C17 2244   0.607   4.123   4.089 -0.6756  0.1680 -0.8473
   31CHL1   H17 2245   0.640   4.229   4.084  1.7244 -0.4833 -0.5471
   31CHL1   C13 2246   0.506   4.106   3.977  0.2379 -0.3998 -0.3043
   31CHL1   C18 2247   0.432   3.969   3.985 -0.3226  0.0110  0.7692
   31CHL1  H18A 2248   0.389   3.943   3.886  2.1372  0.3726 -0.4774
   31CHL1  H18B 2249   0.504   3.887   4.006 -2.2018 -2.2601 -1.0434
   31CHL1  H18C 2250   0.349   3.972   4.059  0.1347  4.3830  1.3642
   31CHL1   C12 2251   0.410   4.220   3.952 -0.2469  0.3659  0.4234
   31CHL1  H12A 2252   0.322   4.227   4.019  0.5959  1.0039  1.4941
   31CHL1  H12B 2253   0.460   4.319   3.959 -1.0725  0.6834  2.2588
   31CHL1   C11 2254   0.343   4.194   3.815 -0.2140  0.1096  0.5576
   31CHL1  H11A 2255   0.283   4.100   3.822  0.5182 -0.2559  3.0997
   31CHL1  H11B 2256   0.273   4.278   3.795 -0.0498 -0.2281 -1.6929
   31CHL1    C9 2257   0.438   4.183   3.695 -0.0657 -0.3819 -0.1688
   31CHL1    H9 2258   0.496   4.277   3.705  1.6568 -1.4312  0.1332
   31CHL1   C10 2259   0.373   4.162   3.559  0.1793 -0.5125 -0.4376
   31CHL1   C19 2260   0.267   4.053   3.563 -0.2247  0.4691  0.0379
   31CHL1  H19A 2261   0.185   4.079   3.633 -1.4634 -0.3637 -1.0619
   31CHL1  H19B 2262   0.226   4.041   3.461 -0.0062  0.1751 -0.0179
   31CHL1  H19C 2263   0.313   3.959   3.600 -0.9171 -0.4436 -1.3797
   31CHL1    C1 2264   0.317   4.301   3.517 -0.0261 -0.4703  0.4293
   31CHL1   H1A 2265   0.235   4.346   3.577 -1.0027  0.2576 -1.3655
   31CHL1   H1B 2266   0.390   4.384   3.509 -0.8604  0.0854 -3.0887
   31CHL1    C2 2267   0.268   4.303   3.369 -0.2934 -0.1044  0.2590
   31CHL1   H2A 2268   0.244   4.408   3.340 -3.4291 -0.6878  0.3893
   31CHL1   H2B 2269   0.172   4.247   3.362  0.5731 -1.4877 -1.5551
   31CHL1   C20 2270   0.556   4.097   4.234 -0.3906  0.0160 -0.2446
   31CHL1   H20 2271   0.538   3.989   4.247  0.4788 -0.0546  0.5163
   31CHL1   C21 2272   0.427   4.175   4.255 -0.3679 -0.4091 -0.1354
   31CHL1  H21A 2273   0.429   4.278   4.214  0.1595 -0.2762  0.2125
   31CHL1  H21B 2274   0.413   4.180   4.365 -1.0158  2.0571 -0.2721
   31CHL1  H21C 2275   0.338   4.121   4.217 -2.1997  2.6353 -0.5128
   31CHL1   C22 2276   0.670   4.125   4.345  0.9618  0.3762  0.4718
   31CHL1  H22A 2277   0.765   4.092   4.298  0.3415 -1.1876  0.2476
   31CHL1  H22B 2278   0.685   4.235   4.353  0.8347  0.5026 -0.8343
   31CHL1   C23 2279   0.646   4.054   4.480 -0.7640 -0.3135 -0.2055
   31CHL1  H23A 2280   0.542   4.070   4.516 -0.3585  0.6104  0.5666
   31CHL1  H23B 2281   0.666   3.944   4.475  1.6224  0.0947 -1.0297
   31CHL1   C24 2282   0.735   4.117   4.588  0.3534  0.0183  0.4957
   31CHL1  H24A 2283   0.829   4.144   4.536  0.5639 -1.3481  0.1184
   31CHL1  H24B 2284   0.691   4.209   4.632  2.9755  1.1695  0.9228
   31CHL1   C25 2285   0.760   4.029   4.711  0.5775  0.5469 -0.2382
   31CHL1   H25 2286   0.805   3.930   4.685  0.5145  0.1009  1.2499
   31CHL1   C26 2287   0.860   4.095   4.800 -0.3312 -0.4169  0.1089
   31CHL1  H26A 2288   0.921   4.165   4.739 -1.0212 -1.0905 -1.3898
   31CHL1  H26B 2289   0.814   4.163   4.875  1.2432  0.4622  0.3094
   31CHL1  H26C 2290   0.919   4.019   4.857 -0.1253  0.0140  0.4751
   31CHL1   C27 2291   0.635   3.998   4.795  0.6373 -0.7542 -0.6039
   31CHL1  H27A 2292   0.563   3.940   4.733 -2.2105  2.0186 -0.1695
   31CHL1  H27B 2293   0.658   3.955   4.895 -1.4022  2.3177  1.3668
   31CHL1  H27C 2294   0.584   4.095   4.816  0.4791 -0.5674 -1.7874
   32CHL1    C3 2295   0.925   0.148   3.043 -0.0343  1.0294 -0.5620
   32CHL1    H3 2296   0.875   0.247   3.035 -2.1626  0.1489  0.7334
   32CHL1    O3 2297   0.950   0.102   2.917 -0.1759 -0.2246  0.5023
   32CHL1   H3' 2298   1.037   0.136   2.894  0.3854 -1.3008  0.9995
   32CHL1    C4 2299   1.068   0.149   3.117  0.3123 -0.5558 -0.1071
   32CHL1   H4A 2300   1.119   0.054   3.088  1.0297 -0.2378  0.0856
   32CHL1   H4B 2301   1.129   0.217   3.055  1.5383 -1.3493  0.1865
   32CHL1    C5 2302   1.054   0.187   3.263 -0.0979 -0.1804  0.9931
   32CHL1    C6 2303   1.115   0.295   3.317 -0.3515  0.7250  0.8342
   32CHL1    H6 2304   1.173   0.362   3.253 -0.3125  0.5837  0.7229
   32CHL1    C7 2305   1.112   0.341   3.463  0.3563  0.7121  0.0793
   32CHL1   H7A 2306   1.214   0.362   3.500  1.5261 -0.6795 -2.1643
   32CHL1   H7B 2307   1.050   0.434   3.468 -2.3731 -0.7767 -2.5505
   32CHL1    C8 2308   1.052   0.224   3.544  0.7595  0.1295  0.8656
   32CHL1    H8 2309   1.129   0.145   3.555 -0.1805 -1.2044 -1.5380
   32CHL1   C14 2310   1.027   0.269   3.689 -1.2825 -0.4706 -0.4220
   32CHL1   H14 2311   0.962   0.358   3.693  1.0497  1.3378  3.5936
   32CHL1   C15 2312   1.156   0.319   3.771 -0.3852 -0.8671  0.0615
   32CHL1  H15A 2313   1.246   0.255   3.761  1.0108  0.9388  0.5757
   32CHL1  H15B 2314   1.189   0.418   3.732  0.5348  0.0360  2.8855
   32CHL1   C16 2315   1.115   0.329   3.917 -0.1056 -0.2896  0.5200
   32CHL1  H16A 2316   1.202   0.295   3.977  0.7999  0.1332 -0.5212
   32CHL1  H16B 2317   1.079   0.432   3.939 -1.3706 -0.9394  1.6259
   32CHL1   C17 2318   0.986   0.238   3.932 -0.3088 -0.5969  0.5332
   32CHL1   H17 2319   0.902   0.310   3.942 -0.5544 -0.8505  0.3183
   32CHL1   C13 2320   0.974   0.166   3.794 -0.0278  0.2809  0.6417
   32CHL1   C18 2321   1.083   0.049   3.795  0.8323  0.8509 -0.1680
   32CHL1  H18A 2322   1.167   0.068   3.865 -0.5214  0.4019  1.6859
   32CHL1  H18B 2323   1.036  -0.038   3.847  0.6678  0.3205 -1.1775
   32CHL1  H18C 2324   1.111   0.011   3.695  0.8604  1.6501 -0.4622
   32CHL1   C12 2325   0.840   0.127   3.741  0.6703  0.0584 -0.1951
   32CHL1  H12A 2326   0.800   0.045   3.804 -0.2740 -0.4182 -1.3760
   32CHL1  H12B 2327   0.775   0.217   3.738 -0.0654 -0.4928 -1.5495
   32CHL1   C11 2328   0.851   0.070   3.593 -0.4528 -0.3093  0.1336
   32CHL1  H11A 2329   0.907  -0.027   3.594 -1.1568 -0.7306  1.3929
   32CHL1  H11B 2330   0.753   0.047   3.546 -0.6911 -1.2895  1.0624
   32CHL1    C9 2331   0.928   0.156   3.484 -0.7837 -0.5521  0.5219
   32CHL1    H9 2332   0.856   0.240   3.476 -0.0062  0.1380  0.6687
   32CHL1   C10 2333   0.951   0.097   3.346  0.4316  0.5244  0.0873
   32CHL1   C19 2334   1.024  -0.037   3.360 -0.2515 -0.1205  0.2421
   32CHL1  H19A 2335   0.974  -0.123   3.410 -1.2558  0.3654  0.0942
   32CHL1  H19B 2336   1.040  -0.075   3.257 -1.2057  0.9879 -0.3346
   32CHL1  H19C 2337   1.121  -0.011   3.406  1.8550  0.0548 -3.8279
   32CHL1    C1 2338   0.807   0.092   3.267 -0.0627 -0.4604 -0.0491
   32CHL1   H1A 2339   0.745   0.018   3.323  0.8283  0.1032  1.7666
   32CHL1   H1B 2340   0.765   0.194   3.263 -0.1652 -0.4848  0.3134
   32CHL1    C2 2341   0.821   0.052   3.114  0.0351 -0.4215  0.2352
   32CHL1   H2A 2342   0.717   0.060   3.076  0.3343  1.5279 -0.2599
   32CHL1   H2B 2343   0.854  -0.054   3.107 -0.7469 -0.6756  0.1810
   32CHL1   C20 2344   0.989   0.156   4.063 -0.7964 -0.1114 -0.2821
   32CHL1   H20 2345   1.084   0.097   4.069  0.7610  2.2272 -0.6736
   32CHL1   C21 2346   0.861   0.064   4.066 -0.3322 -0.0358 -0.1753
   32CHL1  H21A 2347   0.878  -0.019   3.994 -3.9272  0.7384 -2.1540
   32CHL1  H21B 2348   0.785   0.129   4.018  0.2054  0.3429 -0.5317
   32CHL1  H21C 2349   0.829   0.033   4.167  0.6151  1.9644  0.7974
   32CHL1   C22 2350   1.001   0.245   4.193 -0.1522  0.2618  1.2429
   32CHL1  H22A 2351   1.089   0.309   4.171 -0.3238 -0.6829 -3.0715
   32CHL1  H22B 2352   0.909   0.307   4.180 -0.0092  0.0440 -1.2460
   32CHL1   C23 2353   1.008   0.168   4.324 -0.5357 -1.0266  0.2386
   32CHL1  H23A 2354   0.912   0.117   4.345 -1.0682 -0.0094  0.3675
   32CHL1  H23B 2355   1.088   0.093   4.307 -1.5315 -2.2039  0.6384
   32CHL1   C24 2356   1.042   0.269   4.433  0.3964  0.7711  0.1789
   32CHL1  H24A 2357   1.127   0.335   4.404 -1.8254  2.3369 -3.3745
   32CHL1  H24B 2358   0.956   0.338   4.451  0.4981  0.6338  1.3142
   32CHL1   C25 2359   1.073   0.199   4.569 -0.5089  0.8458 -0.4367
   32CHL1   H25 2360   0.999   0.118   4.590  2.2171 -0.9966  2.9040
   32CHL1   C26 2361   1.217   0.138   4.576 -0.8139  0.0568 -0.0705
   32CHL1  H26A 2362   1.293   0.214   4.607  0.0784 -0.9628  0.3308
   32CHL1  H26B 2363   1.217   0.066   4.661 -1.2745  0.8103  0.5813
   32CHL1  H26C 2364   1.243   0.087   4.481 -1.1470 -0.4692  0.1185
   32CHL1   C27 2365   1.053   0.308   4.682 -0.4195  0.4178  0.0177
   32CHL1  H27A 2366   0.946   0.334   4.693 -1.0054 -1.8410  0.0954
   32CHL1  H27B 2367   1.077   0.269   4.783 -0.3589  1.9618  0.6299
   32CHL1  H27C 2368   1.120   0.394   4.661  0.3015  0.1795  1.2705
   33CHL1    C3 2369   5.297   1.313   3.342  0.1591 -0.0904  0.8618
   33CHL1    H3 2370   5.203   1.356   3.383  0.2656  1.1015 -0.1070
   33CHL1    O3 2371   5.328   1.371   3.221 -0.7799  0.6747  0.0605
   33CHL1   H3' 2372   5.422   1.362   3.205 -0.8470  1.4822 -0.8644
   33CHL1    C4 2373   5.417   1.317   3.441  0.1968  0.3027 -0.4220
   33CHL1   H4A 2374   5.503   1.293   3.376  2.1275  2.3485  1.2093
   33CHL1   H4B 2375   5.428   1.425   3.465 -0.4176  0.3710 -0.4124
   33CHL1    C5 2376   5.409   1.226   3.563  0.1617  0.0469  0.8694
   33CHL1    C6 2377   5.403   1.275   3.688 -0.2508 -0.0882  0.2228
   33CHL1    H6 2378   5.427   1.381   3.705  0.8464 -0.4166  0.8165
   33CHL1    C7 2379   5.396   1.198   3.817  0.4002  0.1292 -0.3759
   33CHL1   H7A 2380   5.466   1.230   3.897 -1.2821 -0.8132  1.5486
   33CHL1   H7B 2381   5.295   1.223   3.856 -0.0366 -0.7756 -0.8978
   33CHL1    C8 2382   5.409   1.042   3.787  0.4637  0.9454 -0.6366
   33CHL1    H8 2383   5.516   1.018   3.777  0.2721 -0.2995  0.2118
   33CHL1   C14 2384   5.353   0.971   3.903  0.3567  0.0673 -0.0147
   33CHL1   H14 2385   5.247   1.000   3.917  0.6929  2.8865 -2.5088
   33CHL1   C15 2386   5.410   1.017   4.036  0.2150  0.4060  0.5929
   33CHL1  H15A 2387   5.521   1.025   4.040  0.2976 -0.2479 -0.1507
   33CHL1  H15B 2388   5.373   1.120   4.054 -0.9866  0.4965 -1.9901
   33CHL1   C16 2389   5.371   0.909   4.131 -0.2777  0.1336  0.9061
   33CHL1  H16A 2390   5.457   0.875   4.193  0.1971  0.0005  0.1979
   33CHL1  H16B 2391   5.287   0.946   4.193 -2.2503 -1.9671 -0.3541
   33CHL1   C17 2392   5.305   0.797   4.045  0.0273  0.1502  0.0963
   33CHL1   H17 2393   5.196   0.814   4.043 -0.2141 -1.3610 -0.3895
   33CHL1   C13 2394   5.364   0.823   3.903 -0.0678  0.3861  0.1150
   33CHL1   C18 2395   5.515   0.778   3.901  0.2936 -0.1847 -0.5894
   33CHL1  H18A 2396   5.565   0.799   3.804  0.1779 -1.0828 -0.8571
   33CHL1  H18B 2397   5.579   0.826   3.978  0.7756  1.1053 -1.7587
   33CHL1  H18C 2398   5.526   0.668   3.911 -1.4547 -0.2350  1.6541
   33CHL1   C12 2399   5.294   0.773   3.773  0.4430 -0.0710 -0.2773
   33CHL1  H12A 2400   5.309   0.664   3.760  0.3892 -0.4567  2.3703
   33CHL1  H12B 2401   5.186   0.792   3.787 -0.0416 -1.7852 -1.3767
   33CHL1   C11 2402   5.338   0.846   3.639  0.5382 -0.5552  0.2975
   33CHL1  H11A 2403   5.433   0.803   3.602  0.6300  0.0695 -0.2133
   33CHL1  H11B 2404   5.262   0.826   3.561  0.1440  0.1459  0.4920
   33CHL1    C9 2405   5.342   1.001   3.662  0.0384  0.3284  0.1980
   33CHL1    H9 2406   5.237   1.027   3.687 -1.0567 -1.8020 -1.7824
   33CHL1   C10 2407   5.373   1.078   3.527  0.3087 -1.0956 -0.7464
   33CHL1   C19 2408   5.487   1.000   3.453  0.1810  0.1847  0.3693
   33CHL1  H19A 2409   5.520   1.058   3.365 -0.7118 -0.7091 -0.5825
   33CHL1  H19B 2410   5.568   0.985   3.528  0.1889 -0.9136  0.1638
   33CHL1  H19C 2411   5.457   0.899   3.416  3.3129 -1.0919  0.9657
   33CHL1    C1 2412   5.243   1.078   3.435 -0.9874 -0.6355  0.2204
   33CHL1   H1A 2413   5.218   0.977   3.396 -0.7513 -0.0622 -1.5014
   33CHL1   H1B 2414   5.159   1.119   3.494 -1.6144 -2.0947  0.3918
   33CHL1    C2 2415   5.268   1.169   3.314 -0.4979  0.5663 -0.0037
   33CHL1   H2A 2416   5.177   1.152   3.252 -0.1893 -0.1749 -0.2620
   33CHL1   H2B 2417   5.349   1.109   3.269 -0.5691 -0.6908  1.4543
   33CHL1   C20 2418   5.333   0.661   4.104  0.2976 -0.0136  0.3039
   33CHL1   H20 2419   5.443   0.642   4.101  0.0132 -1.7550 -0.6890
   33CHL1   C21 2420   5.277   0.549   4.018 -0.5468 -0.5381  1.0017
   33CHL1  H21A 2421   5.333   0.541   3.922 -0.2362 -3.2814  1.3178
   33CHL1  H21B 2422   5.168   0.563   4.008 -0.5315  2.2126  3.4329
   33CHL1  H21C 2423   5.292   0.453   4.073  5.0291 -3.1163 -3.8162
   33CHL1   C22 2424   5.297   0.642   4.255 -0.5504 -0.1875 -0.8068
   33CHL1  H22A 2425   5.306   0.538   4.291  3.8209 -0.3620 -1.8280
   33CHL1  H22B 2426   5.359   0.712   4.315 -1.0910 -0.9610  0.7089
   33CHL1   C23 2427   5.143   0.668   4.285  0.5348 -0.6693  0.4362
   33CHL1  H23A 2428   5.119   0.771   4.251  2.4088 -0.6239 -0.9198
   33CHL1  H23B 2429   5.078   0.595   4.232 -1.6085  0.7103  1.0316
   33CHL1   C24 2430   5.120   0.659   4.440  0.7409 -0.3781 -0.1522
   33CHL1  H24A 2431   5.132   0.553   4.471  0.0841 -0.4127 -0.0027
   33CHL1  H24B 2432   5.193   0.727   4.489  2.0343 -2.2696  0.6328
   33CHL1   C25 2433   4.979   0.710   4.481 -0.2168 -0.0142  0.9150
   33CHL1   H25 2434   4.961   0.804   4.426 -0.9941 -0.9697 -0.5306
   33CHL1   C26 2435   4.872   0.617   4.424 -0.8159  0.1604  0.2796
   33CHL1  H26A 2436   4.887   0.599   4.316 -2.4662 -4.1696  0.5860
   33CHL1  H26B 2437   4.885   0.521   4.478 -1.5381  0.5825  1.2387
   33CHL1  H26C 2438   4.777   0.669   4.449  0.7090  1.8141  3.2257
   33CHL1   C27 2439   4.964   0.722   4.633  0.0631  0.0874  0.3352
   33CHL1  H27A 2440   5.033   0.798   4.675  2.7532  0.0889 -3.5321
   33CHL1  H27B 2441   4.864   0.768   4.647  0.0904  0.4236 -0.4982
   33CHL1  H27C 2442   4.969   0.622   4.682  1.0344  0.6570  1.4432
   34CHL1    C3 2443   2.922   3.175   3.025 -0.0465  0.7992  0.7241
   34CHL1    H3 2444   2.967   3.265   3.073 -1.0443  0.8429  1.6005
   34CHL1    O3 2445   2.967   3.164   2.894  0.3178 -0.1518  0.3021
   34CHL1   H3' 2446   2.941   3.075   2.869 -0.8089  0.2664 -0.0876
   34CHL1    C4 2447   2.983   3.064   3.112  0.3466 -0.4063  0.3264
   34CHL1   H4A 2448   2.976   2.965   3.062 -2.6898  0.5496 -1.4409
   34CHL1   H4B 2449   3.090   3.091   3.126 -0.0255 -0.2855  3.9596
   34CHL1    C5 2450   2.907   3.052   3.245  1.1138  0.0818  0.1742
   34CHL1    C6 2451   2.981   3.036   3.352  0.0611  0.5018 -0.1982
   34CHL1    H6 2452   3.090   3.025   3.340 -0.2595 -1.3263 -1.7962
   34CHL1    C7 2453   2.927   3.018   3.491  0.3076 -0.1779 -0.7385
   34CHL1   H7A 2454   2.971   2.928   3.540  0.1001 -0.2016 -0.5953
   34CHL1   H7B 2455   2.967   3.093   3.563  1.2269 -0.3658 -1.0369
   34CHL1    C8 2456   2.771   2.995   3.502  0.5534 -0.1729  0.3125
   34CHL1    H8 2457   2.746   2.887   3.492  0.8870 -0.4284  1.9011
   34CHL1   C14 2458   2.721   3.033   3.647  0.3848 -0.5145 -0.0839
   34CHL1   H14 2459   2.749   3.140   3.662  0.7253 -0.8755  2.3205
   34CHL1   C15 2460   2.773   2.964   3.771  0.3228  0.4491  0.2289
   34CHL1  H15A 2461   2.781   2.853   3.768 -1.0340  0.2715  1.8266
   34CHL1  H15B 2462   2.876   2.987   3.807  2.1236 -4.1589 -1.1509
   34CHL1   C16 2463   2.663   2.987   3.887  0.5167 -0.1966  0.5782
   34CHL1  H16A 2464   2.649   2.888   3.935  1.3735  1.0589  3.6626
   34CHL1  H16B 2465   2.708   3.048   3.968 -1.2756  0.2679  1.2787
   34CHL1   C17 2466   2.542   3.045   3.822  0.2597  0.0708  0.2296
   34CHL1   H17 2467   2.549   3.156   3.821  1.2293  0.0200  0.2038
   34CHL1   C13 2468   2.566   3.024   3.672 -0.1854 -0.0545 -0.3690
   34CHL1   C18 2469   2.507   2.879   3.656  0.1382  0.3564  0.1103
   34CHL1  H18A 2470   2.541   2.826   3.748  1.6909  1.1335  0.0156
   34CHL1  H18B 2471   2.396   2.879   3.649  0.0580  2.3300  0.8007
   34CHL1  H18C 2472   2.558   2.821   3.577  0.6323 -0.1591  0.7955
   34CHL1   C12 2473   2.502   3.115   3.566 -0.2788 -0.0623 -0.5211
   34CHL1  H12A 2474   2.391   3.115   3.568 -0.3685 -3.2150 -0.4333
   34CHL1  H12B 2475   2.536   3.219   3.583  0.7137 -0.5029  0.2488
   34CHL1   C11 2476   2.543   3.075   3.420 -0.5071  0.0509  0.3283
   34CHL1  H11A 2477   2.516   2.971   3.393 -0.9801  0.0074  0.9533
   34CHL1  H11B 2478   2.492   3.142   3.346  0.9833 -1.2764 -2.0176
   34CHL1    C9 2479   2.698   3.084   3.401  0.2340  0.6286 -0.3277
   34CHL1    H9 2480   2.725   3.187   3.433  1.0013  0.3660 -0.1164
   34CHL1   C10 2481   2.748   3.061   3.256  0.1922  0.2674 -0.0573
   34CHL1   C19 2482   2.699   2.922   3.211 -0.1278  0.0297  0.8020
   34CHL1  H19A 2483   2.743   2.844   3.276 -1.2130 -1.7138 -0.4770
   34CHL1  H19B 2484   2.589   2.903   3.207  0.0006 -0.6270  0.3673
   34CHL1  H19C 2485   2.732   2.888   3.111 -1.8095  0.9956 -0.1339
   34CHL1    C1 2486   2.706   3.172   3.157  0.2891 -1.0928  0.3040
   34CHL1   H1A 2487   2.595   3.165   3.146  0.2295  1.2407 -1.3197
   34CHL1   H1B 2488   2.729   3.265   3.212  2.4064 -2.1807  1.3788
   34CHL1    C2 2489   2.769   3.178   3.014  0.0190  0.4613  0.1410
   34CHL1   H2A 2490   2.735   3.268   2.958 -0.0312 -0.6559 -1.6940
   34CHL1   H2B 2491   2.733   3.090   2.957 -1.5146 -0.0110  1.7273
   34CHL1   C20 2492   2.415   2.994   3.887  1.1092 -0.1711 -0.3375
   34CHL1   H20 2493   2.405   2.884   3.886  1.4564 -0.2109  0.3034
   34CHL1   C21 2494   2.280   3.063   3.834  0.2412 -0.3544  0.2339
   34CHL1  H21A 2495   2.263   3.025   3.731 -0.6822  1.9218 -0.5298
   34CHL1  H21B 2496   2.302   3.172   3.845  0.1345 -0.2709 -0.3428
   34CHL1  H21C 2497   2.185   3.043   3.887 -0.2117 -0.3053 -0.5430
   34CHL1   C22 2498   2.412   3.015   4.043 -0.2969 -0.2522 -0.4590
   34CHL1  H22A 2499   2.330   2.952   4.082 -0.9061  1.6420  1.5106
   34CHL1  H22B 2500   2.498   2.968   4.095 -1.7687 -0.6598  1.7429
   34CHL1   C23 2501   2.400   3.166   4.097 -0.0629 -0.0359  0.2152
   34CHL1  H23A 2502   2.469   3.226   4.034  1.0627 -2.4213 -0.9749
   34CHL1  H23B 2503   2.300   3.208   4.074  0.3163  1.1495  0.6394
   34CHL1   C24 2504   2.422   3.198   4.248  0.1298 -0.0171  0.5497
   34CHL1  H24A 2505   2.349   3.140   4.308 -0.9700  1.8646  1.1069
   34CHL1  H24B 2506   2.524   3.163   4.275  0.5616 -0.0828 -1.0687
   34CHL1   C25 2507   2.402   3.341   4.294  0.3925  0.0839  0.4243
   34CHL1   H25 2508   2.293   3.348   4.275  0.6728  0.0556 -1.3330
   34CHL1   C26 2509   2.420   3.357   4.446 -1.0119  0.0394 -0.0073
   34CHL1  H26A 2510   2.355   3.297   4.513  1.0389  1.4884  3.5512
   34CHL1  H26B 2511   2.522   3.318   4.469 -0.1409  1.8689 -0.5537
   34CHL1  H26C 2512   2.420   3.461   4.484 -0.7628  1.1170 -2.7202
   34CHL1   C27 2513   2.477   3.460   4.238  0.2980  0.3635 -1.0996
   34CHL1  H27A 2514   2.471   3.473   4.127 -0.3186 -0.8298 -1.2332
   34CHL1  H27B 2515   2.427   3.551   4.276 -0.2429 -0.1223 -0.6354
   34CHL1  H27C 2516   2.578   3.461   4.285  0.0523  0.4285 -0.5761
   35CHL1    C3 2517   4.965   2.335   3.355 -0.0840 -0.0087  0.0716
   35CHL1    H3 2518   4.942   2.228   3.338  1.6475 -0.1737 -1.6536
   35CHL1    O3 2519   4.960   2.395   3.227 -0.0158  0.2976  0.2532
   35CHL1   H3' 2520   4.988   2.485   3.246  1.2021  0.2726 -1.2805
   35CHL1    C4 2521   4.867   2.410   3.443  1.0573  0.3162  0.0611
   35CHL1   H4A 2522   4.903   2.514   3.456 -1.5984  1.8008 -2.9740
   35CHL1   H4B 2523   4.771   2.423   3.388  1.6976  1.4877 -0.8160
   35CHL1    C5 2524   4.852   2.345   3.575  0.5408 -0.5663 -0.1416
   35CHL1    C6 2525   4.741   2.297   3.624 -0.3330 -0.6507  0.0101
   35CHL1    H6 2526   4.652   2.309   3.560 -0.3470  0.0539  0.1540
   35CHL1    C7 2527   4.725   2.242   3.758 -0.0757 -0.0486 -0.1611
   35CHL1   H7A 2528   4.633   2.275   3.810  0.9949  2.2883  0.4098
   35CHL1   H7B 2529   4.725   2.132   3.744 -2.1743 -0.3721  1.8056
   35CHL1    C8 2530   4.845   2.266   3.854  0.0836 -0.0405  0.0612
   35CHL1    H8 2531   4.829   2.367   3.897 -0.1590 -0.5067  1.1018
   35CHL1   C14 2532   4.842   2.183   3.982 -0.1514  0.2674 -0.4305
   35CHL1   H14 2533   4.856   2.080   3.943  1.4797 -0.0492  0.8781
   35CHL1   C15 2534   4.709   2.184   4.064 -0.4973  0.1537 -0.6935
   35CHL1  H15A 2535   4.671   2.289   4.063 -1.8949 -0.3374 -0.7717
   35CHL1  H15B 2536   4.625   2.123   4.025 -0.2109 -0.5963 -0.1519
   35CHL1   C16 2537   4.749   2.146   4.202  0.1736  0.0565  0.0023
   35CHL1  H16A 2538   4.720   2.217   4.283  1.1097 -3.2168  3.5322
   35CHL1  H16B 2539   4.712   2.045   4.232 -0.9306  0.9614  1.8983
   35CHL1   C17 2540   4.908   2.127   4.206 -0.2661 -0.5158 -0.1944
   35CHL1   H17 2541   4.927   2.025   4.167  2.4578  0.1825 -0.8822
   35CHL1   C13 2542   4.953   2.214   4.086 -0.3187 -0.3940 -0.0613
   35CHL1   C18 2543   4.940   2.364   4.140 -0.3560 -0.5964  0.3867
   35CHL1  H18A 2544   5.026   2.388   4.207 -1.0059 -0.1217  1.0614
   35CHL1  H18B 2545   4.934   2.441   4.060  1.8241  0.6783  1.3270
   35CHL1  H18C 2546   4.853   2.369   4.209 -0.2028 -2.5357  0.7574
   35CHL1   C12 2547   5.083   2.178   4.015  0.0231  0.1640  0.7218
   35CHL1  H12A 2548   5.176   2.198   4.073  0.5880  0.6370 -0.3155
   35CHL1  H12B 2549   5.069   2.071   3.987 -3.2873  0.9260 -1.1376
   35CHL1   C11 2550   5.093   2.258   3.877 -0.2508 -0.3809  0.3573
   35CHL1  H11A 2551   5.110   2.364   3.905 -0.1197 -1.2811  4.1765
   35CHL1  H11B 2552   5.180   2.220   3.820 -0.7692  0.2401 -0.9074
   35CHL1    C9 2553   4.972   2.247   3.788 -0.0599 -0.4102  0.3824
   35CHL1    H9 2554   4.983   2.145   3.746 -1.3232 -0.6561  0.6244
   35CHL1   C10 2555   4.985   2.339   3.655 -0.6093 -1.3170 -0.7611
   35CHL1   C19 2556   5.018   2.486   3.698  0.3382 -0.3677 -0.0009
   35CHL1  H19A 2557   5.039   2.547   3.608  1.9642 -2.1435 -0.9034
   35CHL1  H19B 2558   4.944   2.531   3.767  0.2142  3.8896 -2.5936
   35CHL1  H19C 2559   5.117   2.491   3.747  0.0621  0.0415  0.5232
   35CHL1    C1 2560   5.098   2.284   3.564 -0.2252 -0.6574  0.0601
   35CHL1   H1A 2561   5.200   2.300   3.606 -0.1188 -0.0435 -0.4216
   35CHL1   H1B 2562   5.080   2.175   3.567 -2.3059 -0.3332  1.1567
   35CHL1    C2 2563   5.101   2.349   3.422  0.9721 -0.1838  0.2893
   35CHL1   H2A 2564   5.183   2.322   3.352  0.9739 -0.6126  0.4525
   35CHL1   H2B 2565   5.118   2.458   3.436  1.8871 -0.2627 -0.1373
   35CHL1   C20 2566   4.968   2.148   4.348  0.2161 -0.3487 -0.3113
   35CHL1   H20 2567   4.940   2.249   4.386 -1.1396 -0.1531 -1.6789
   35CHL1   C21 2568   5.122   2.145   4.351  0.0054  0.2227  0.1288
   35CHL1  H21A 2569   5.161   2.235   4.299  1.4154 -0.0066  0.7366
   35CHL1  H21B 2570   5.166   2.051   4.310 -0.0325 -0.4031  1.4735
   35CHL1  H21C 2571   5.151   2.148   4.459 -0.3227 -3.1222  0.4132
   35CHL1   C22 2572   4.912   2.046   4.450  0.2174 -0.2150  0.0995
   35CHL1  H22A 2573   4.803   2.037   4.429  0.0550  0.2495  0.6958
   35CHL1  H22B 2574   4.961   1.947   4.437  1.8892  0.2590  2.2496
   35CHL1   C23 2575   4.916   2.095   4.596  0.0739 -0.7994 -0.2113
   35CHL1  H23A 2576   4.930   2.205   4.591 -3.6156 -0.2034  0.0645
   35CHL1  H23B 2577   4.816   2.085   4.643  1.8261 -0.0695  4.2661
   35CHL1   C24 2578   5.025   2.039   4.689  0.1149 -1.0797  0.7000
   35CHL1  H24A 2579   5.016   1.929   4.694 -2.1415 -0.8686  2.9041
   35CHL1  H24B 2580   5.130   2.066   4.662  0.7783 -1.4449  2.7123
   35CHL1   C25 2581   5.000   2.082   4.836 -0.6121  0.3235 -0.7732
   35CHL1   H25 2582   4.900   2.041   4.863 -1.1630  0.2496 -2.7915
   35CHL1   C26 2583   5.094   2.013   4.936  0.8031 -0.5384 -0.0239
   35CHL1  H26A 2584   5.099   1.903   4.922 -0.5071 -0.2290 -5.4028
   35CHL1  H26B 2585   5.199   2.045   4.920  0.3833  0.7767 -0.3063
   35CHL1  H26C 2586   5.070   2.033   5.042  0.6364  0.4739 -0.2424
   35CHL1   C27 2587   5.002   2.235   4.848 -0.0661 -0.0603  0.1220
   35CHL1  H27A 2588   5.094   2.275   4.799 -0.1626 -0.6947 -0.5930
   35CHL1  H27B 2589   4.907   2.281   4.814  0.9965  0.6924 -2.0040
   35CHL1  H27C 2590   5.009   2.255   4.957  0.9373 -2.0678  0.4639
   36CHL1    C3 2591   2.613   6.664   3.427 -0.5172  0.3967 -0.5079
   36CHL1    H3 2592   2.519   6.609   3.449  0.7335 -0.8063  2.3238
   36CHL1    O3 2593   2.644   6.645   3.295 -0.1796 -0.3819 -0.3668
   36CHL1   H3' 2594   2.739   6.633   3.304 -0.6503 -3.0298  3.3053
   36CHL1    C4 2595   2.614   6.807   3.475 -0.8328 -0.0509 -0.4002
   36CHL1   H4A 2596   2.705   6.871   3.464 -0.4716 -0.8711 -2.9395
   36CHL1   H4B 2597   2.538   6.859   3.413 -0.8374  0.9654  0.4166
   36CHL1    C5 2598   2.568   6.823   3.617 -0.2086  0.3268 -0.0411
   36CHL1    C6 2599   2.448   6.868   3.649 -0.5720  0.3627  0.2937
   36CHL1    H6 2600   2.382   6.917   3.575 -0.3822 -0.4275 -0.4113
   36CHL1    C7 2601   2.406   6.879   3.793 -0.5815 -0.1800 -0.1208
   36CHL1   H7A 2602   2.351   6.973   3.814  1.2289  0.5915  1.4115
   36CHL1   H7B 2603   2.341   6.793   3.821 -1.3142  0.5365  0.4242
   36CHL1    C8 2604   2.526   6.856   3.893  0.3705 -0.0966  0.7288
   36CHL1    H8 2605   2.581   6.953   3.891 -0.6753  0.5059 -0.1857
   36CHL1   C14 2606   2.467   6.822   4.029 -1.3084 -0.7427  0.3264
   36CHL1   H14 2607   2.433   6.717   4.025  1.9169 -1.9049  0.9746
   36CHL1   C15 2608   2.347   6.913   4.073 -0.5143  0.2430  0.3057
   36CHL1  H15A 2609   2.368   7.019   4.047  2.5958 -0.5870 -1.1116
   36CHL1  H15B 2610   2.252   6.874   4.030  0.0553 -0.0018 -0.7740
   36CHL1   C16 2611   2.353   6.901   4.227  0.2222 -0.3527 -0.2440
   36CHL1  H16A 2612   2.356   7.002   4.273 -1.5202 -0.3006 -0.2016
   36CHL1  H16B 2613   2.260   6.849   4.260 -0.5102  0.6575 -0.6833
   36CHL1   C17 2614   2.476   6.813   4.262 -0.3258 -0.0403 -0.9618
   36CHL1   H17 2615   2.427   6.714   4.275 -1.3130  0.8150  4.0637
   36CHL1   C13 2616   2.571   6.824   4.144 -0.4330 -0.9526 -0.3360
   36CHL1   C18 2617   2.643   6.960   4.136 -0.9952 -0.3213  0.5594
   36CHL1  H18A 2618   2.717   6.963   4.054 -1.4801  1.0912  0.1536
   36CHL1  H18B 2619   2.574   7.042   4.107  0.2901 -0.0819 -2.1525
   36CHL1  H18C 2620   2.685   6.982   4.237 -1.2586 -0.2113  0.6457
   36CHL1   C12 2621   2.656   6.701   4.118 -0.6468 -0.0490  0.9307
   36CHL1  H12A 2622   2.741   6.712   4.188 -0.2464  0.0721  0.4298
   36CHL1  H12B 2623   2.598   6.609   4.138 -2.2625  0.4090 -1.2490
   36CHL1   C11 2624   2.713   6.688   3.974  1.1553 -0.5047 -0.0865
   36CHL1  H11A 2625   2.802   6.755   3.973  0.5651  0.3326  1.3279
   36CHL1  H11B 2626   2.749   6.587   3.945 -0.9989 -1.6706  1.0840
   36CHL1    C9 2627   2.610   6.734   3.855 -0.0115 -0.0997 -0.4293
   36CHL1    H9 2628   2.541   6.646   3.863  0.4771 -0.3570  1.7294
   36CHL1   C10 2629   2.667   6.751   3.712  0.2972  0.5365  0.1142
   36CHL1   C19 2630   2.792   6.838   3.722 -0.5486  0.0682 -0.3575
   36CHL1  H19A 2631   2.769   6.938   3.765  1.3881  1.0446 -1.4332
   36CHL1  H19B 2632   2.873   6.780   3.772  0.6412  0.4524 -1.7468
   36CHL1  H19C 2633   2.844   6.861   3.626  0.6740  2.0441  0.7275
   36CHL1    C1 2634   2.702   6.606   3.656  0.3947 -0.0609 -0.6961
   36CHL1   H1A 2635   2.787   6.571   3.718 -0.4955  0.7056  1.0108
   36CHL1   H1B 2636   2.613   6.551   3.694  0.0380  0.7095 -0.4060
   36CHL1    C2 2637   2.723   6.592   3.510 -0.0901  0.3655 -0.2195
   36CHL1   H2A 2638   2.752   6.490   3.477  1.2846  0.7817 -0.3459
   36CHL1   H2B 2639   2.817   6.650   3.497  0.5153 -0.4368  0.4392
   36CHL1   C20 2640   2.526   6.851   4.405 -0.1736  0.4227  0.7768
   36CHL1   H20 2641   2.593   6.938   4.391  1.2487 -0.8166 -0.3782
   36CHL1   C21 2642   2.606   6.736   4.455 -0.4624 -0.0451 -0.3130
   36CHL1  H21A 2643   2.662   6.686   4.373 -0.1659 -1.3626  0.6516
   36CHL1  H21B 2644   2.541   6.652   4.491  1.8624 -1.9303 -0.2548
   36CHL1  H21C 2645   2.675   6.759   4.539  0.2775 -0.4848 -0.7958
   36CHL1   C22 2646   2.416   6.897   4.512  0.2107 -0.3509 -0.6929
   36CHL1  H22A 2647   2.385   7.003   4.497  0.9389  0.0695  0.6437
   36CHL1  H22B 2648   2.329   6.831   4.494 -0.1984  0.2911 -1.1047
   36CHL1   C23 2649   2.467   6.874   4.658  0.2180  0.5715  0.8730
   36CHL1  H23A 2650   2.463   6.764   4.675 -1.4775  0.3381 -0.7232
   36CHL1  H23B 2651   2.561   6.929   4.676  0.0245  1.5137 -0.7785
   36CHL1   C24 2652   2.375   6.941   4.770 -0.3084 -0.1627 -0.6901
   36CHL1  H24A 2653   2.383   7.048   4.744  3.2568 -1.0364 -4.2580
   36CHL1  H24B 2654   2.277   6.888   4.772  1.0818 -2.9342  0.9752
   36CHL1   C25 2655   2.441   6.921   4.910  0.9338  0.4870 -0.3733
   36CHL1   H25 2656   2.543   6.964   4.899  0.5485  1.2603 -1.0475
   36CHL1   C26 2657   2.378   7.008   5.017  0.0463 -0.1700 -0.8510
   36CHL1  H26A 2658   2.268   6.997   5.015 -0.2018  2.0558 -1.3872
   36CHL1  H26B 2659   2.415   6.982   5.119 -1.5754  0.4013 -0.0879
   36CHL1  H26C 2660   2.397   7.114   4.991 -4.0543  0.9037 -0.1778
   36CHL1   C27 2661   2.457   6.772   4.960  0.2585  0.1721 -0.0654
   36CHL1  H27A 2662   2.363   6.715   4.943 -0.4078  0.7949  1.3410
   36CHL1  H27B 2663   2.530   6.714   4.899 -0.2032 -0.9308  0.3925
   36CHL1  H27C 2664   2.477   6.769   5.070 -0.7145 -1.5231  0.1051
   37CHL1    C3 2665   4.165   1.717   3.305 -0.4042  0.6277  0.1817
   37CHL1    H3 2666   4.268   1.756   3.320 -0.7064  1.3704  0.3939
   37CHL1    O3 2667   4.154   1.715   3.164  0.1263  0.3775 -0.2922
   37CHL1   H3' 2668   4.059   1.725   3.152  0.0040  0.6614  0.8126
   37CHL1    C4 2669   4.155   1.573   3.365  0.0684  0.1709 -0.0620
   37CHL1   H4A 2670   4.063   1.530   3.322  0.4804  0.9891 -1.8631
   37CHL1   H4B 2671   4.239   1.518   3.317  0.6951  0.0066  1.1860
   37CHL1    C5 2672   4.154   1.572   3.517  0.5272  0.3922 -0.4461
   37CHL1    C6 2673   4.238   1.499   3.580 -0.7723  0.4466 -0.3366
   37CHL1    H6 2674   4.305   1.430   3.526  0.3839  0.5558  0.9107
   37CHL1    C7 2675   4.245   1.474   3.724  0.6610 -0.2418 -0.2825
   37CHL1   H7A 2676   4.257   1.369   3.758 -0.9479  0.2109  1.9281
   37CHL1   H7B 2677   4.331   1.532   3.763  1.1670 -1.2307  0.0987
   37CHL1    C8 2678   4.113   1.533   3.795  0.2999  0.2493  1.0121
   37CHL1    H8 2679   4.031   1.459   3.781 -0.3290  0.7609  1.9764
   37CHL1   C14 2680   4.127   1.561   3.945  0.4637 -0.2277 -0.2722
   37CHL1   H14 2681   4.197   1.647   3.955  3.6365 -2.7868  1.5548
   37CHL1   C15 2682   4.178   1.449   4.030  0.2035  0.3492  0.4584
   37CHL1  H15A 2683   4.135   1.351   4.000 -1.0610  1.0441 -0.0902
   37CHL1  H15B 2684   4.285   1.429   4.009 -0.2349 -1.4265 -0.2312
   37CHL1   C16 2685   4.129   1.472   4.172 -0.5733 -0.5077 -0.1971
   37CHL1  H16A 2686   4.059   1.392   4.204 -0.4436 -0.7774 -0.5852
   37CHL1  H16B 2687   4.215   1.484   4.242 -0.6370 -0.3986 -0.1371
   37CHL1   C17 2688   4.059   1.616   4.162 -0.0363  0.2375 -0.3532
   37CHL1   H17 2689   4.135   1.697   4.168 -0.9491  1.0976 -0.2846
   37CHL1   C13 2690   4.004   1.615   4.019  0.3780  0.3622 -0.0551
   37CHL1   C18 2691   3.887   1.501   4.013 -0.1093  0.0978  0.4569
   37CHL1  H18A 2692   3.859   1.483   3.907 -1.4624 -1.1210  0.9855
   37CHL1  H18B 2693   3.917   1.408   4.064 -3.2146 -2.4335 -1.9017
   37CHL1  H18C 2694   3.795   1.543   4.058 -1.0904  0.6515 -1.8814
   37CHL1   C12 2695   3.965   1.750   3.954 -0.2118  0.2352 -0.3591
   37CHL1  H12A 2696   3.870   1.789   3.997  0.8309 -0.1924  2.5228
   37CHL1  H12B 2697   4.036   1.829   3.986 -1.2436  1.1693 -0.3064
   37CHL1   C11 2698   3.949   1.745   3.802 -0.1321 -0.0171  0.0335
   37CHL1  H11A 2699   3.855   1.686   3.791 -1.9359  2.1434  2.5411
   37CHL1  H11B 2700   3.946   1.849   3.765  0.2516 -0.0602 -0.1244
   37CHL1    C9 2701   4.067   1.678   3.734 -1.1312  0.7918 -0.0566
   37CHL1    H9 2702   4.163   1.733   3.742  1.3704 -2.9874 -1.5983
   37CHL1   C10 2703   4.047   1.659   3.577 -0.1794  0.1487 -0.2771
   37CHL1   C19 2704   3.906   1.596   3.551  0.3121 -0.4037  0.2426
   37CHL1  H19A 2705   3.828   1.662   3.595  0.7989  1.5529 -1.6657
   37CHL1  H19B 2706   3.886   1.594   3.442  0.7995  0.1344  0.1364
   37CHL1  H19C 2707   3.889   1.496   3.597 -1.1100 -0.0976  0.4392
   37CHL1    C1 2708   4.054   1.802   3.517  0.7265  0.2836  0.0700
   37CHL1   H1A 2709   3.958   1.855   3.533  0.4171 -0.3778  0.5076
   37CHL1   H1B 2710   4.139   1.851   3.569  0.9198 -1.6369  1.7080
   37CHL1    C2 2711   4.069   1.812   3.371 -0.6567 -0.2497  0.2433
   37CHL1   H2A 2712   4.088   1.916   3.335  1.1559 -1.1202 -1.4743
   37CHL1   H2B 2713   3.968   1.788   3.332  0.0276 -2.1227 -0.4909
   37CHL1   C20 2714   3.952   1.625   4.272 -0.4362 -0.7440 -0.4601
   37CHL1   H20 2715   3.868   1.557   4.249 -0.2379 -1.4470  0.8104
   37CHL1   C21 2716   3.899   1.770   4.289  0.7863 -0.2813 -0.4710
   37CHL1  H21A 2717   3.849   1.804   4.195  0.0422 -0.9472 -0.3324
   37CHL1  H21B 2718   3.979   1.841   4.317  0.0262  0.3501  0.1197
   37CHL1  H21C 2719   3.822   1.750   4.367  1.5225  0.9228  0.5935
   37CHL1   C22 2720   4.000   1.574   4.411  0.2447 -0.0501 -0.2589
   37CHL1  H22A 2721   3.907   1.544   4.464 -0.2554  2.2545  0.2770
   37CHL1  H22B 2722   4.056   1.478   4.406 -3.5214 -2.4569 -0.3827
   37CHL1   C23 2723   4.087   1.667   4.488  0.8411  0.3256 -0.1831
   37CHL1  H23A 2724   4.146   1.738   4.426  2.4434  1.4659  2.4707
   37CHL1  H23B 2725   4.016   1.735   4.539  2.5060  0.9122  1.5184
   37CHL1   C24 2726   4.200   1.606   4.576 -0.2217  0.0200  0.3832
   37CHL1  H24A 2727   4.267   1.546   4.511 -0.5539 -0.1012  0.1475
   37CHL1  H24B 2728   4.263   1.694   4.603  1.2344 -0.5983 -0.8270
   37CHL1   C25 2729   4.160   1.512   4.691 -0.7363 -0.5140 -0.4327
   37CHL1   H25 2730   4.118   1.421   4.644  1.6703 -1.4412 -0.9545
   37CHL1   C26 2731   4.295   1.460   4.757 -0.0766 -0.1169 -0.4913
   37CHL1  H26A 2732   4.327   1.365   4.709 -0.6824 -0.9468  0.7133
   37CHL1  H26B 2733   4.377   1.531   4.735  0.7886 -0.3860  1.6557
   37CHL1  H26C 2734   4.282   1.436   4.864 -0.2873  2.5857  0.1406
   37CHL1   C27 2735   4.075   1.582   4.793  0.3425  0.6491  0.6806
   37CHL1  H27A 2736   4.148   1.647   4.847  2.9054  0.2643 -2.0404
   37CHL1  H27B 2737   4.001   1.638   4.733 -0.0130 -0.2467  0.2637
   37CHL1  H27C 2738   4.028   1.509   4.863  1.2036 -1.8188 -1.1645
   38CHL1    C3 2739   5.202   6.225   3.028 -0.2940 -0.0364  0.1714
   38CHL1    H3 2740   5.147   6.155   3.095 -0.0539  0.1763  0.5943
   38CHL1    O3 2741   5.195   6.174   2.892  0.1116 -0.0626 -0.8124
   38CHL1   H3' 2742   5.207   6.251   2.836  3.7852  0.8723  0.9794
   38CHL1    C4 2743   5.136   6.357   3.037 -0.1449 -0.1844 -0.5051
   38CHL1   H4A 2744   5.184   6.418   2.958  0.4175 -0.8417 -0.6770
   38CHL1   H4B 2745   5.030   6.349   3.003 -0.1290  1.9968 -1.2495
   38CHL1    C5 2746   5.149   6.423   3.178 -0.1893  0.5855  0.6554
   38CHL1    C6 2747   5.042   6.461   3.250  0.3238  0.0166  0.7185
   38CHL1    H6 2748   4.935   6.457   3.223  0.4576  1.2617 -0.0524
   38CHL1    C7 2749   5.053   6.509   3.389 -0.2795  0.0570 -0.1898
   38CHL1   H7A 2750   4.984   6.591   3.420  1.7869  2.0228 -0.5151
   38CHL1   H7B 2751   5.037   6.428   3.463  0.1839 -0.2327 -0.4054
   38CHL1    C8 2752   5.197   6.562   3.427  0.3130  0.3593 -0.0443
   38CHL1    H8 2753   5.215   6.656   3.372  0.1197 -0.1957 -1.0904
   38CHL1   C14 2754   5.211   6.591   3.583  0.5916 -0.4512 -0.1347
   38CHL1   H14 2755   5.201   6.493   3.634  0.3070 -0.4753 -0.2362
   38CHL1   C15 2756   5.100   6.687   3.642  0.4950 -0.3361  0.1657
   38CHL1  H15A 2757   5.063   6.763   3.571  0.1321  0.5970  1.3210
   38CHL1  H15B 2758   5.009   6.630   3.670  0.2440  0.0727  0.1797
   38CHL1   C16 2759   5.174   6.746   3.770  1.0751 -0.2624 -0.6322
   38CHL1  H16A 2760   5.174   6.857   3.760 -2.0696 -0.1912 -0.7567
   38CHL1  H16B 2761   5.115   6.720   3.860  1.4176 -0.3677 -0.4343
   38CHL1   C17 2762   5.313   6.685   3.775 -0.3323  0.1555  0.2241
   38CHL1   H17 2763   5.309   6.588   3.829  1.4525  1.9106  3.8450
   38CHL1   C13 2764   5.346   6.657   3.627  0.3148  0.1050  0.8437
   38CHL1   C18 2765   5.388   6.790   3.556  0.7058 -0.3101 -0.7288
   38CHL1  H18A 2766   5.496   6.803   3.579  0.4115  0.5557  0.1917
   38CHL1  H18B 2767   5.377   6.786   3.445 -2.5517 -1.5481 -0.4587
   38CHL1  H18C 2768   5.339   6.883   3.591 -0.3754 -1.2298  0.2742
   38CHL1   C12 2769   5.450   6.547   3.582  0.4136 -0.7629 -0.1617
   38CHL1  H12A 2770   5.548   6.594   3.607 -0.8064  1.9123 -0.0559
   38CHL1  H12B 2771   5.419   6.464   3.647 -1.0618  0.8584  1.3003
   38CHL1   C11 2772   5.433   6.517   3.427 -0.0717  0.5459  0.2679
   38CHL1  H11A 2773   5.459   6.613   3.377  4.4209  0.0378  1.2090
   38CHL1  H11B 2774   5.510   6.442   3.398 -0.3686  0.3572 -0.0377
   38CHL1    C9 2775   5.303   6.459   3.383  0.1691 -0.9315 -0.2378
   38CHL1    H9 2776   5.274   6.365   3.435 -3.4526 -0.8229 -1.7416
   38CHL1   C10 2777   5.293   6.431   3.227  0.1118 -0.7787  0.0330
   38CHL1   C19 2778   5.362   6.548   3.151 -0.0195 -0.4212  0.6668
   38CHL1  H19A 2779   5.329   6.642   3.199 -0.9992 -0.1590 -0.4783
   38CHL1  H19B 2780   5.472   6.547   3.172 -0.4347 -0.1675  3.2134
   38CHL1  H19C 2781   5.349   6.554   3.041  1.7523  0.9081  0.4819
   38CHL1    C1 2782   5.369   6.299   3.204 -0.3868  0.0019  0.1292
   38CHL1   H1A 2783   5.479   6.306   3.220  0.0212 -3.9141 -0.0003
   38CHL1   H1B 2784   5.337   6.224   3.279 -0.1611  0.1097  0.3327
   38CHL1    C2 2785   5.347   6.234   3.070  0.7663 -0.3201  0.0525
   38CHL1   H2A 2786   5.392   6.133   3.058  0.0274 -0.9600  2.1527
   38CHL1   H2B 2787   5.389   6.301   2.992 -1.4039  1.1849  0.0917
   38CHL1   C20 2788   5.405   6.783   3.858 -0.1747  0.3598  0.3347
   38CHL1   H20 2789   5.399   6.889   3.826  2.1604 -0.3828 -3.1734
   38CHL1   C21 2790   5.550   6.729   3.834  0.4454  0.3153 -0.5546
   38CHL1  H21A 2791   5.593   6.763   3.738 -0.2203  0.4355 -0.8163
   38CHL1  H21B 2792   5.547   6.619   3.849 -2.1198  0.4588  0.5522
   38CHL1  H21C 2793   5.622   6.772   3.906  1.7105 -0.0451 -1.5703
   38CHL1   C22 2794   5.356   6.779   4.012 -0.3557 -0.0622 -0.1244
   38CHL1  H22A 2795   5.245   6.785   4.026 -0.2570  0.5363  0.4786
   38CHL1  H22B 2796   5.381   6.676   4.045  2.8527  1.2005  1.7717
   38CHL1   C23 2797   5.424   6.895   4.097  0.0706  0.1798 -0.8124
   38CHL1  H23A 2798   5.531   6.896   4.065 -0.4486 -3.0328 -3.0623
   38CHL1  H23B 2799   5.391   6.994   4.059  2.0265  0.8377 -0.9418
   38CHL1   C24 2800   5.404   6.882   4.247 -0.0084 -0.2118  0.3498
   38CHL1  H24A 2801   5.301   6.895   4.287 -0.0183 -0.1521  0.3051
   38CHL1  H24B 2802   5.440   6.784   4.286  0.3352 -1.4377 -2.8048
   38CHL1   C25 2803   5.505   6.971   4.330  0.5092  0.5401  0.3259
   38CHL1   H25 2804   5.606   6.947   4.292  0.9209  1.1685  1.0029
   38CHL1   C26 2805   5.479   7.119   4.310  0.2624  0.0553 -0.2089
   38CHL1  H26A 2806   5.490   7.138   4.201 -0.0401  1.0675 -0.0726
   38CHL1  H26B 2807   5.375   7.149   4.333 -0.3108  0.0046 -2.4729
   38CHL1  H26C 2808   5.553   7.181   4.365  0.2108 -1.0133  1.1068
   38CHL1   C27 2809   5.494   6.932   4.479 -0.0761 -0.7474 -0.8052
   38CHL1  H27A 2810   5.399   6.959   4.529  1.0420  0.0796  0.9479
   38CHL1  H27B 2811   5.516   6.823   4.490  0.4382 -0.6090 -0.4353
   38CHL1  H27C 2812   5.566   6.994   4.537  1.1895 -0.4802 -2.5607
   39CHL1    C3 2813   0.174   2.077   3.339  0.4448  0.0956 -0.1501
   39CHL1    H3 2814   0.065   2.099   3.330  0.4182  0.2775  0.5714
   39CHL1    O3 2815   0.222   2.091   3.207  0.2924 -0.6051  0.3898
   39CHL1   H3' 2816   0.181   2.172   3.175 -1.9940 -0.9518  2.1680
   39CHL1    C4 2817   0.232   2.189   3.436  0.0296  0.7281  0.5727
   39CHL1   H4A 2818   0.343   2.189   3.430 -0.0099  2.0155 -0.7994
   39CHL1   H4B 2819   0.197   2.286   3.395  0.2300  0.9104  0.8239
   39CHL1    C5 2820   0.170   2.165   3.569 -0.0277 -0.7186 -0.1005
   39CHL1    C6 2821   0.093   2.257   3.626 -0.3856  0.1231 -0.0791
   39CHL1    H6 2822   0.085   2.352   3.570  0.7550  0.2072 -0.1099
   39CHL1    C7 2823   0.036   2.242   3.761  0.6775  0.1396 -0.0677
   39CHL1   H7A 2824   0.046   2.331   3.826 -1.3841 -0.7511  1.6019
   39CHL1   H7B 2825  -0.072   2.218   3.755  0.3416  0.2962  3.2869
   39CHL1    C8 2826   0.100   2.130   3.844  0.1337 -0.2006 -0.2722
   39CHL1    H8 2827   0.206   2.152   3.872  0.0016  0.4521 -0.2665
   39CHL1   C14 2828   0.024   2.097   3.971  0.5358  0.8451  0.2620
   39CHL1   H14 2829  -0.074   2.057   3.939  1.2026 -1.7977  1.2435
   39CHL1   C15 2830  -0.005   2.209   4.064 -0.7231  0.2882 -0.7682
   39CHL1  H15A 2831   0.084   2.271   4.088  0.0535 -1.3746  0.9407
   39CHL1  H15B 2832  -0.088   2.267   4.020 -1.0301 -0.4117 -1.1160
   39CHL1   C16 2833  -0.050   2.139   4.194  0.2410 -0.3479  0.0130
   39CHL1  H16A 2834   0.010   2.182   4.277 -1.1597  1.6712  0.0406
   39CHL1  H16B 2835  -0.156   2.169   4.197  0.1592 -0.6650  2.1358
   39CHL1   C17 2836  -0.039   1.986   4.172  0.5393 -0.4467 -0.6330
   39CHL1   H17 2837  -0.139   1.956   4.136 -1.3383  2.0880  1.9597
   39CHL1   C13 2838   0.074   1.978   4.063  0.6869 -0.3502  0.2900
   39CHL1   C18 2839   0.207   2.018   4.130 -0.5345  0.6717 -1.0471
   39CHL1  H18A 2840   0.288   2.036   4.056  1.5978 -0.4325  0.8831
   39CHL1  H18B 2841   0.204   2.104   4.200  1.9565 -0.4391  0.5884
   39CHL1  H18C 2842   0.238   1.934   4.196 -2.2653  0.9419  0.1818
   39CHL1   C12 2843   0.071   1.861   3.967 -0.1439  0.0694 -0.4819
   39CHL1  H12A 2844   0.104   1.764   4.012 -1.0223 -0.0294 -0.0341
   39CHL1  H12B 2845  -0.031   1.831   3.936  0.2291 -1.8030 -0.0459
   39CHL1   C11 2846   0.159   1.894   3.843  0.1784 -0.3274  0.2844
   39CHL1  H11A 2847   0.256   1.921   3.890 -1.1809  0.5375  2.7295
   39CHL1  H11B 2848   0.173   1.805   3.778  0.4380  1.5535 -2.4036
   39CHL1    C9 2849   0.108   2.009   3.759  0.1060 -0.1565  0.5160
   39CHL1    H9 2850   0.003   1.981   3.733 -0.1498 -0.2797  1.6171
   39CHL1   C10 2851   0.195   2.026   3.631  0.3298 -0.6520  0.6699
   39CHL1   C19 2852   0.345   2.027   3.670  0.6823  0.6435 -0.3557
   39CHL1  H19A 2853   0.374   1.925   3.704 -1.7162 -0.0472 -0.2020
   39CHL1  H19B 2854   0.412   2.047   3.583  2.3034  0.4342  0.7965
   39CHL1  H19C 2855   0.378   2.107   3.739  0.2361 -0.9352  1.7900
   39CHL1    C1 2856   0.158   1.917   3.529 -0.0863  0.2400  0.1470
   39CHL1   H1A 2857   0.197   1.820   3.567 -0.6893 -0.2021 -0.3535
   39CHL1   H1B 2858   0.050   1.895   3.527  0.4868 -3.3395  1.3221
   39CHL1    C2 2859   0.211   1.935   3.389 -0.1280  0.2056 -0.0378
   39CHL1   H2A 2860   0.172   1.861   3.316 -1.5499  1.1286 -0.2569
   39CHL1   H2B 2861   0.321   1.923   3.387 -0.2523 -1.2862  0.7710
   39CHL1   C20 2862  -0.021   1.905   4.304  0.3540 -0.8784 -0.5766
   39CHL1   H20 2863   0.086   1.924   4.330 -0.5635  2.1669  1.5530
   39CHL1   C21 2864  -0.038   1.756   4.277 -0.0956  0.5310 -0.3036
   39CHL1  H21A 2865  -0.136   1.725   4.235 -0.9340  0.2117  1.7760
   39CHL1  H21B 2866  -0.026   1.690   4.365  0.4085 -0.5544 -1.1630
   39CHL1  H21C 2867   0.042   1.723   4.207 -0.1176  3.2211 -1.7814
   39CHL1   C22 2868  -0.116   1.952   4.419 -0.4174 -0.0715  0.2508
   39CHL1  H22A 2869  -0.104   2.063   4.421  1.1768 -0.2106  0.3159
   39CHL1  H22B 2870  -0.222   1.941   4.388 -0.6210  1.3575  0.3556
   39CHL1   C23 2871  -0.089   1.898   4.557 -0.2576  0.4722  0.4809
   39CHL1  H23A 2872  -0.143   1.803   4.577 -2.1292  2.0390  3.5793
   39CHL1  H23B 2873   0.021   1.879   4.560  0.0960  2.4266  2.3328
   39CHL1   C24 2874  -0.126   1.997   4.668 -0.1877 -0.1771  0.0722
   39CHL1  H24A 2875  -0.090   2.097   4.636 -0.8535 -0.1189 -0.5018
   39CHL1  H24B 2876  -0.236   2.001   4.682 -0.2235 -2.6841  1.1271
   39CHL1   C25 2877  -0.063   1.948   4.796  0.0086  0.2210  1.2223
   39CHL1   H25 2878   0.040   1.923   4.764 -0.9711  1.2782 -3.6198
   39CHL1   C26 2879  -0.050   2.061   4.904 -0.3628  0.2105 -0.0018
   39CHL1  H26A 2880  -0.141   2.121   4.925 -0.5145 -0.0826  0.1791
   39CHL1  H26B 2881  -0.016   2.009   4.995  0.6255  0.0353 -0.4539
   39CHL1  H26C 2882   0.033   2.120   4.859 -1.6763  0.9188 -1.6309
   39CHL1   C27 2883  -0.127   1.828   4.861 -0.0172 -0.2176  0.0225
   39CHL1  H27A 2884  -0.104   1.737   4.802  0.1103 -1.6119  2.1071
   39CHL1  H27B 2885  -0.085   1.808   4.962  0.1295  1.3306  0.2911
   39CHL1  H27C 2886  -0.236   1.838   4.882  0.2548  0.1174  1.3608
   40CHL1    C3 2887   3.523   5.242   3.039  0.1825  0.6731  0.9964
   40CHL1    H3 2888   3.493   5.140   3.070  1.6370 -0.4626 -1.0728
   40CHL1    O3 2889   3.543   5.246   2.898 -0.0214  0.1622  0.8400
   40CHL1   H3' 2890   3.513   5.333   2.870  0.2640 -0.4667 -1.6940
   40CHL1    C4 2891   3.415   5.339   3.074  0.0505 -0.1337 -0.0432
   40CHL1   H4A 2892   3.448   5.434   3.026 -2.1291  0.2871 -0.8405
   40CHL1   H4B 2893   3.322   5.316   3.018 -0.4217 -1.2065  1.1483
   40CHL1    C5 2894   3.396   5.357   3.226  0.3420 -0.0365 -0.3560
   40CHL1    C6 2895   3.278   5.354   3.293 -0.3155 -0.5870 -0.6107
   40CHL1    H6 2896   3.183   5.343   3.238  1.0420  0.0278 -3.2317
   40CHL1    C7 2897   3.263   5.382   3.439 -0.0446 -0.0296  0.0879
   40CHL1   H7A 2898   3.174   5.443   3.466 -0.0395 -0.3368  0.8170
   40CHL1   H7B 2899   3.234   5.286   3.486  0.6042 -0.3824 -0.2297
   40CHL1    C8 2900   3.393   5.437   3.514  0.8892 -0.7816 -0.4247
   40CHL1    H8 2901   3.393   5.548   3.500 -0.4715 -0.7382 -0.2447
   40CHL1   C14 2902   3.371   5.402   3.663 -0.3960  0.2890 -0.0747
   40CHL1   H14 2903   3.362   5.291   3.672 -2.7418  0.5068  0.9539
   40CHL1   C15 2904   3.241   5.449   3.732 -0.1707 -0.4867 -0.5547
   40CHL1  H15A 2905   3.222   5.557   3.715  1.2472  0.0241  0.8319
   40CHL1  H15B 2906   3.145   5.403   3.701 -0.3869  0.8007 -1.8895
   40CHL1   C16 2907   3.268   5.431   3.882  0.2782 -0.7857  1.0227
   40CHL1  H16A 2908   3.231   5.520   3.937  0.3299 -0.7917  1.0669
   40CHL1  H16B 2909   3.203   5.350   3.920  1.4442 -1.1194  2.3746
   40CHL1   C17 2910   3.422   5.399   3.889 -0.0193 -0.6397 -0.3780
   40CHL1   H17 2911   3.435   5.288   3.894 -2.7576 -0.9795  1.5571
   40CHL1   C13 2912   3.487   5.443   3.756  0.1904 -0.3267 -0.0911
   40CHL1   C18 2913   3.502   5.604   3.752  0.2863 -0.1226 -0.0509
   40CHL1  H18A 2914   3.410   5.651   3.794  0.2092 -0.2565 -0.0710
   40CHL1  H18B 2915   3.592   5.633   3.811 -0.6655  1.7118  0.5836
   40CHL1  H18C 2916   3.500   5.646   3.650  0.8055 -0.2486 -0.1154
   40CHL1   C12 2917   3.611   5.365   3.697 -0.6176  0.5139 -0.2823
   40CHL1  H12A 2918   3.702   5.390   3.757 -0.1784  0.6143 -0.9813
   40CHL1  H12B 2919   3.595   5.257   3.717  0.7702  0.4859  0.8807
   40CHL1   C11 2920   3.633   5.398   3.550 -0.4043 -0.7205  0.6615
   40CHL1  H11A 2921   3.660   5.504   3.531 -0.7638 -1.1808 -3.2190
   40CHL1  H11B 2922   3.719   5.335   3.518 -0.0751 -0.1895  0.4916
   40CHL1    C9 2923   3.513   5.372   3.455 -0.9014 -0.0840 -0.3943
   40CHL1    H9 2924   3.500   5.262   3.462 -2.1938  0.0917  0.1639
   40CHL1   C10 2925   3.528   5.389   3.299  0.0519 -0.5675 -0.4498
   40CHL1   C19 2926   3.581   5.533   3.279  0.7281 -0.6545  0.2185
   40CHL1  H19A 2927   3.571   5.561   3.172 -4.2518  1.2773  0.8852
   40CHL1  H19B 2928   3.516   5.597   3.344 -0.6611 -0.4925 -1.2667
   40CHL1  H19C 2929   3.685   5.544   3.316 -0.2905  0.8094  2.9561
   40CHL1    C1 2930   3.646   5.297   3.253 -0.0679 -0.4064 -0.0073
   40CHL1   H1A 2931   3.746   5.321   3.294  0.9350 -2.9141 -0.8063
   40CHL1   H1B 2932   3.617   5.199   3.298 -0.1622  0.9058  2.9850
   40CHL1    C2 2933   3.659   5.281   3.102 -0.1031 -0.1210 -0.3390
   40CHL1   H2A 2934   3.740   5.209   3.075  0.4634  0.2313  0.3779
   40CHL1   H2B 2935   3.687   5.380   3.060  0.4869 -0.0975  0.0919
   40CHL1   C20 2936   3.490   5.447   4.025 -0.4620  0.5901 -0.8699
   40CHL1   H20 2937   3.478   5.557   4.038  2.6655  0.6806  3.9368
   40CHL1   C21 2938   3.642   5.421   4.023  0.3798 -0.0748  0.4497
   40CHL1  H21A 2939   3.659   5.312   4.011 -1.2117 -0.5817  2.1996
   40CHL1  H21B 2940   3.683   5.448   4.123  0.3557 -1.5873  0.8943
   40CHL1  H21C 2941   3.694   5.480   3.945  0.4033  1.0158  1.2738
   40CHL1   C22 2942   3.430   5.379   4.150  0.1173 -0.4561  0.6522
   40CHL1  H22A 2943   3.478   5.429   4.237  0.4866  4.4087 -1.9637
   40CHL1  H22B 2944   3.321   5.397   4.161 -0.3593 -1.5684 -1.6613
   40CHL1   C23 2945   3.441   5.225   4.158  0.0570 -0.0928 -0.4059
   40CHL1  H23A 2946   3.392   5.186   4.066 -0.7755  1.2766 -0.5686
   40CHL1  H23B 2947   3.546   5.188   4.163  0.1339 -0.6183 -3.6724
   40CHL1   C24 2948   3.362   5.165   4.274  0.2373 -0.9925 -0.2783
   40CHL1  H24A 2949   3.367   5.230   4.364 -1.0220 -1.6993  0.3416
   40CHL1  H24B 2950   3.256   5.147   4.243  0.3689  0.0398 -1.3995
   40CHL1   C25 2951   3.426   5.026   4.317 -0.0463  0.9076 -0.0607
   40CHL1   H25 2952   3.536   5.031   4.333  0.4353 -1.4448 -2.1481
   40CHL1   C26 2953   3.360   4.966   4.447 -0.6421 -0.0150  0.1025
   40CHL1  H26A 2954   3.401   4.866   4.470 -0.6366  0.3777  1.9432
   40CHL1  H26B 2955   3.412   5.031   4.521 -0.1318 -0.2788 -0.0174
   40CHL1  H26C 2956   3.250   4.971   4.451 -0.7121 -0.3991 -1.0924
   40CHL1   C27 2957   3.412   4.923   4.205 -0.0378  0.0274  0.3275
   40CHL1  H27A 2958   3.307   4.907   4.175 -0.4784  2.1528  0.5442
   40CHL1  H27B 2959   3.462   4.964   4.114 -1.6500 -1.7707 -1.4711
   40CHL1  H27C 2960   3.470   4.833   4.235  2.0866  1.7030  1.6319
   41CHL1    C3 2961   0.629   3.198   3.151  0.2479  0.1888  0.9391
   41CHL1    H3 2962   0.596   3.301   3.128 -0.3010 -0.3257 -0.7223
   41CHL1    O3 2963   0.635   3.130   3.026 -0.0300 -0.1802 -0.4728
   41CHL1   H3' 2964   0.650   3.040   3.058 -1.8333  0.4932  2.6623
   41CHL1    C4 2965   0.764   3.200   3.215  0.0247 -0.4144  0.0165
   41CHL1   H4A 2966   0.819   3.105   3.197  0.4642 -0.3998  1.2029
   41CHL1   H4B 2967   0.830   3.268   3.156  1.1375 -0.7297  0.8477
   41CHL1    C5 2968   0.769   3.239   3.358 -0.4590  0.2101 -0.3824
   41CHL1    C6 2969   0.863   3.328   3.401  0.2734  0.4472 -0.1930
   41CHL1    H6 2970   0.933   3.372   3.327  1.2854 -2.2836 -0.9647
   41CHL1    C7 2971   0.894   3.368   3.540  0.3134 -0.1127  0.0135
   41CHL1   H7A 2972   1.000   3.349   3.568  0.6970  1.5561 -0.2383
   41CHL1   H7B 2973   0.873   3.476   3.551  2.5704  0.4686 -0.7844
   41CHL1    C8 2974   0.825   3.269   3.639  0.9389 -0.2371 -0.0995
   41CHL1    H8 2975   0.883   3.174   3.636 -0.4789 -1.2176  1.5161
   41CHL1   C14 2976   0.824   3.328   3.783 -0.2168 -0.0250  0.2706
   41CHL1   H14 2977   0.771   3.426   3.781 -1.7532 -0.8089  0.5149
   41CHL1   C15 2978   0.963   3.359   3.838 -0.0446  0.3665  0.3625
   41CHL1  H15A 2979   1.036   3.276   3.829  0.1881  0.7420 -1.6675
   41CHL1  H15B 2980   1.010   3.451   3.797  2.0092 -0.7833 -0.0035
   41CHL1   C16 2981   0.936   3.369   3.990  0.3652  0.0111 -0.1966
   41CHL1  H16A 2982   1.004   3.299   4.043 -0.0197 -1.3688 -1.4391
   41CHL1  H16B 2983   0.953   3.471   4.029  2.6327  0.9690 -3.2279
   41CHL1   C17 2984   0.786   3.329   4.017 -0.4576  0.0414  0.1001
   41CHL1   H17 2985   0.719   3.418   4.012  1.5775  1.6711  0.7764
   41CHL1   C13 2986   0.751   3.250   3.883  0.5974 -0.0991 -0.2782
   41CHL1   C18 2987   0.814   3.108   3.892 -0.3864 -0.5625  0.6008
   41CHL1  H18A 2988   0.750   3.046   3.960 -2.5711  0.1666 -0.6835
   41CHL1  H18B 2989   0.811   3.061   3.792  0.3571  1.5857 -0.4868
   41CHL1  H18C 2990   0.918   3.106   3.931  0.0439  1.0328 -0.4049
   41CHL1   C12 2991   0.601   3.241   3.838 -0.0179 -0.1777  0.1514
   41CHL1  H12A 2992   0.546   3.182   3.914  0.8440 -0.4746  0.5666
   41CHL1  H12B 2993   0.560   3.344   3.835 -0.6120 -0.3766  1.1493
   41CHL1   C11 2994   0.587   3.169   3.700 -0.1435 -0.7189  0.7561
   41CHL1  H11A 2995   0.613   3.062   3.714  0.4519 -0.9068 -1.4606
   41CHL1  H11B 2996   0.481   3.175   3.668 -0.5541  0.2927  2.1525
   41CHL1    C9 2997   0.680   3.236   3.594 -0.0270  0.4574  0.0268
   41CHL1    H9 2998   0.636   3.339   3.593 -0.3201  0.3265 -0.6165
   41CHL1   C10 2999   0.673   3.172   3.451  0.1536 -0.5069  0.0656
   41CHL1   C19 3000   0.704   3.014   3.461 -0.3734  0.2027 -0.2728
   41CHL1  H19A 3001   0.798   2.988   3.514 -1.6489 -0.8895  1.5773
   41CHL1  H19B 3002   0.618   2.969   3.517 -1.1701  3.4065  1.3451
   41CHL1  H19C 3003   0.696   2.960   3.365  1.0275  1.1705 -0.9615
   41CHL1    C1 3004   0.532   3.183   3.385  0.4555 -0.1933  0.4520
   41CHL1   H1A 3005   0.462   3.126   3.450 -1.7719  1.7060 -0.1220
   41CHL1   H1B 3006   0.504   3.289   3.404 -0.3629 -0.1601 -0.8438
   41CHL1    C2 3007   0.518   3.138   3.233  0.4858 -0.3435 -0.1835
   41CHL1   H2A 3008   0.417   3.155   3.191  0.1050  1.3846  1.2859
   41CHL1   H2B 3009   0.522   3.027   3.227  1.5075 -0.2536 -1.9373
   41CHL1   C20 3010   0.772   3.261   4.154  0.0744  0.1342  0.0800
   41CHL1   H20 3011   0.841   3.174   4.153  1.3529  1.1126 -1.2387
   41CHL1   C21 3012   0.631   3.198   4.171 -0.2554 -0.6333  0.8033
   41CHL1  H21A 3013   0.550   3.265   4.134  1.3240  0.1482 -1.4882
   41CHL1  H21B 3014   0.608   3.179   4.278  0.8180  0.2770  1.2044
   41CHL1  H21C 3015   0.632   3.098   4.122  1.6213 -1.1680  1.8390
   41CHL1   C22 3016   0.790   3.363   4.267 -0.3103 -0.0496 -0.6083
   41CHL1  H22A 3017   0.774   3.311   4.364 -3.4828 -0.4703 -1.2465
   41CHL1  H22B 3018   0.899   3.386   4.271 -0.0899 -1.1538  0.0044
   41CHL1   C23 3019   0.726   3.505   4.267  0.5739 -0.2963  0.1612
   41CHL1  H23A 3020   0.762   3.570   4.184 -1.5324  1.2826  0.4093
   41CHL1  H23B 3021   0.619   3.503   4.240  0.6487 -1.0460 -0.0913
   41CHL1   C24 3022   0.740   3.584   4.394 -0.0682 -0.3078  0.0696
   41CHL1  H24A 3023   0.840   3.633   4.387  0.5080 -1.6339 -1.5058
   41CHL1  H24B 3024   0.663   3.663   4.384 -0.6877 -0.9726 -0.4362
   41CHL1   C25 3025   0.714   3.512   4.531  0.3175 -0.3884 -0.0398
   41CHL1   H25 3026   0.796   3.442   4.557  2.2341  1.4423 -0.8518
   41CHL1   C26 3027   0.728   3.618   4.643 -0.5599  0.2471 -0.3922
   41CHL1  H26A 3028   0.641   3.685   4.626 -2.1052 -1.6700 -0.4861
   41CHL1  H26B 3029   0.729   3.577   4.746 -0.2857 -0.3643 -0.6315
   41CHL1  H26C 3030   0.826   3.670   4.638  0.9231 -2.1221  1.3973
   41CHL1   C27 3031   0.581   3.430   4.542 -0.7551  0.1897 -0.5528
   41CHL1  H27A 3032   0.594   3.332   4.491 -1.3413  0.2264 -0.7831
   41CHL1  H27B 3033   0.565   3.400   4.648  0.1269  0.9065 -0.2126
   41CHL1  H27C 3034   0.503   3.494   4.495  0.9439  3.9035  1.3492
   42CHL1    C3 3035   2.976   1.714   3.148 -0.0735 -0.5245 -0.2179
   42CHL1    H3 3036   2.878   1.757   3.179  0.9122  0.5131  1.6897
   42CHL1    O3 3037   3.004   1.726   3.003 -0.1807  0.1773  0.1591
   42CHL1   H3' 3038   2.920   1.694   2.969  0.0685  1.9701 -2.5017
   42CHL1    C4 3039   3.096   1.774   3.220 -0.0877 -0.7057 -0.0965
   42CHL1   H4A 3040   3.182   1.715   3.183 -1.0651 -1.7293 -0.8190
   42CHL1   H4B 3041   3.095   1.879   3.186  0.3380 -0.9629 -0.9265
   42CHL1    C5 3042   3.098   1.755   3.370 -0.5895  0.3953 -0.8096
   42CHL1    C6 3043   3.116   1.861   3.451  0.7632  0.4168 -0.6305
   42CHL1    H6 3044   3.125   1.967   3.424 -2.0538  1.0360  0.4978
   42CHL1    C7 3045   3.116   1.846   3.602 -0.0645 -0.5509  0.1017
   42CHL1   H7A 3046   3.206   1.903   3.633 -0.9295  0.2062  1.2847
   42CHL1   H7B 3047   3.029   1.891   3.655  1.1078 -0.9426  2.4801
   42CHL1    C8 3048   3.119   1.696   3.661 -0.0963 -0.0607  0.4391
   42CHL1    H8 3049   3.224   1.662   3.650 -0.4272 -0.7518 -0.7974
   42CHL1   C14 3050   3.061   1.701   3.803 -0.3460  0.2725 -0.0147
   42CHL1   H14 3051   2.953   1.721   3.794 -0.4728 -0.9116 -1.2871
   42CHL1   C15 3052   3.114   1.801   3.903 -0.0134  0.2628 -0.2023
   42CHL1  H15A 3053   3.224   1.813   3.909  0.1327  0.0092 -1.9191
   42CHL1  H15B 3054   3.061   1.897   3.883 -1.5326 -1.1780 -3.9879
   42CHL1   C16 3055   3.056   1.742   4.034 -0.5459  0.3002 -0.1060
   42CHL1  H16A 3056   3.139   1.723   4.105  0.1347  0.0298 -0.9544
   42CHL1  H16B 3057   2.969   1.788   4.086 -1.8418 -1.1960 -0.8490
   42CHL1   C17 3058   2.994   1.603   3.999  0.5126  0.0117 -0.4648
   42CHL1   H17 3059   2.893   1.641   3.971  0.8822  2.2216  0.9873
   42CHL1   C13 3060   3.059   1.565   3.872 -0.5368 -0.2039 -0.4357
   42CHL1   C18 3061   3.207   1.511   3.902  0.1577 -0.0790  0.6528
   42CHL1  H18A 3062   3.253   1.568   3.986 -0.6683  1.0938  0.3332
   42CHL1  H18B 3063   3.191   1.407   3.939 -0.5268 -0.6015 -1.0441
   42CHL1  H18C 3064   3.276   1.505   3.815 -1.5849  0.4771 -0.8101
   42CHL1   C12 3065   2.970   1.468   3.786  0.1698  0.2861  0.1981
   42CHL1  H12A 3066   2.970   1.365   3.828  0.5697  0.4104  0.5145
   42CHL1  H12B 3067   2.866   1.507   3.788  0.0102 -0.0854 -0.6564
   42CHL1   C11 3068   3.024   1.464   3.640  0.1904 -0.5071  0.6296
   42CHL1  H11A 3069   3.128   1.423   3.635  1.7286  3.1035 -0.0060
   42CHL1  H11B 3070   2.959   1.394   3.583  1.3891  0.4814 -2.1264
   42CHL1    C9 3071   3.032   1.599   3.574 -0.0175 -0.4280  0.3551
   42CHL1    H9 3072   2.933   1.648   3.586  0.8549  2.2039 -1.9229
   42CHL1   C10 3073   3.071   1.605   3.421 -0.1358  0.0314 -0.2974
   42CHL1   C19 3074   3.203   1.526   3.395  0.4316 -0.1344  0.3656
   42CHL1  H19A 3075   3.274   1.572   3.468  1.5566  0.3825 -1.0054
   42CHL1  H19B 3076   3.187   1.419   3.420 -2.2866 -0.2823 -1.5517
   42CHL1  H19C 3077   3.234   1.543   3.290 -3.1088  3.2794 -0.3911
   42CHL1    C1 3078   2.956   1.541   3.334  0.2300 -0.6152  0.3974
   42CHL1   H1A 3079   2.954   1.432   3.351 -0.0828 -0.4162  1.7347
   42CHL1   H1B 3080   2.857   1.579   3.368 -0.7911  1.0568 -3.7557
   42CHL1    C2 3081   2.965   1.570   3.181  0.2018 -0.6362 -0.9225
   42CHL1   H2A 3082   2.876   1.523   3.136 -0.3060 -0.8690  0.2772
   42CHL1   H2B 3083   3.052   1.514   3.139  0.4629  0.1603 -1.4662
   42CHL1   C20 3084   2.984   1.506   4.118  0.8572 -0.2343  0.5993
   42CHL1   H20 3085   2.994   1.406   4.070 -1.2139 -0.5192  0.6419
   42CHL1   C21 3086   2.843   1.531   4.172  0.0996  0.2710  0.1986
   42CHL1  H21A 3087   2.824   1.635   4.205  0.6399  0.3960  0.1200
   42CHL1  H21B 3088   2.812   1.452   4.244 -0.4422  1.2664  1.0865
   42CHL1  H21C 3089   2.776   1.515   4.084 -0.4573 -0.9638  0.8192
   42CHL1   C22 3090   3.090   1.520   4.227 -0.2792  0.0784  0.1885
   42CHL1  H22A 3091   3.193   1.529   4.185  0.0537 -0.4058  0.8866
   42CHL1  H22B 3092   3.069   1.611   4.288 -0.6453  0.3497 -0.3386
   42CHL1   C23 3093   3.091   1.391   4.308  0.0723  0.3899 -1.1112
   42CHL1  H23A 3094   2.994   1.356   4.351  0.1209  0.2069 -1.1503
   42CHL1  H23B 3095   3.139   1.313   4.246  0.3051 -1.7192  1.5490
   42CHL1   C24 3096   3.177   1.405   4.438 -0.0680  0.0028 -0.4458
   42CHL1  H24A 3097   3.208   1.302   4.464  0.2876  0.2161 -0.0243
   42CHL1  H24B 3098   3.275   1.451   4.412 -1.2960  2.3418 -1.2650
   42CHL1   C25 3099   3.118   1.479   4.557 -0.1039 -0.3827  0.2201
   42CHL1   H25 3100   3.083   1.570   4.503 -0.2859 -1.5022 -1.6307
   42CHL1   C26 3101   3.003   1.412   4.632  0.0811  1.0510 -0.1923
   42CHL1  H26A 3102   3.043   1.321   4.681 -1.7648 -0.0839 -0.6916
   42CHL1  H26B 3103   2.976   1.482   4.713 -1.6465 -1.3747  1.4665
   42CHL1  H26C 3104   2.919   1.378   4.568  0.5252 -0.0335 -0.2327
   42CHL1   C27 3105   3.225   1.522   4.660 -0.3595  0.5345  0.0201
   42CHL1  H27A 3106   3.193   1.601   4.731 -2.2441 -0.0477 -0.1009
   42CHL1  H27B 3107   3.255   1.426   4.707 -3.1350 -0.7008 -0.5206
   42CHL1  H27C 3108   3.314   1.560   4.605 -0.7878  2.3310  0.5011
   43CHL1    C3 3109   6.635   2.523   3.492  0.1623 -0.2783 -0.1107
   43CHL1    H3 3110   6.692   2.433   3.520  1.3392  0.8316  1.1855
   43CHL1    O3 3111   6.617   2.527   3.350  0.0762  0.0785  0.0673
   43CHL1   H3' 3112   6.705   2.508   3.316 -0.8805 -0.6999 -2.1566
   43CHL1    C4 3113   6.497   2.517   3.554  0.0176  0.0609  0.4623
   43CHL1   H4A 3114   6.423   2.591   3.515 -0.0864 -1.1356 -1.7973
   43CHL1   H4B 3115   6.456   2.417   3.526  1.5775 -0.3182 -0.6011
   43CHL1    C5 3116   6.512   2.521   3.701 -0.4283 -0.1282 -0.5042
   43CHL1    C6 3117   6.445   2.424   3.769 -0.0362 -0.5290 -0.1777
   43CHL1    H6 3118   6.388   2.345   3.719  1.2942 -1.1614 -0.7398
   43CHL1    C7 3119   6.444   2.411   3.919  0.1036  0.6475  0.0153
   43CHL1   H7A 3120   6.343   2.396   3.963  0.2360 -0.4485 -0.0382
   43CHL1   H7B 3121   6.503   2.325   3.956 -1.1174  0.4649  1.6891
   43CHL1    C8 3122   6.501   2.542   3.980 -0.0001  0.5485 -0.4172
   43CHL1    H8 3123   6.422   2.620   3.980 -1.9091 -1.2166  1.9760
   43CHL1   C14 3124   6.545   2.511   4.122 -0.2348 -0.0977  0.2278
   43CHL1   H14 3125   6.639   2.452   4.119  0.4595  0.8970  1.3710
   43CHL1   C15 3126   6.447   2.433   4.216 -0.0821 -0.1558 -0.2498
   43CHL1  H15A 3127   6.344   2.474   4.216 -0.9434 -2.1908  0.1986
   43CHL1  H15B 3128   6.444   2.326   4.184  1.0722  0.3248 -2.1264
   43CHL1   C16 3129   6.501   2.455   4.357  0.1973  0.2706 -0.0540
   43CHL1  H16A 3130   6.420   2.498   4.420  0.2724  0.8601 -0.3515
   43CHL1  H16B 3131   6.543   2.366   4.408  0.7278  1.2619  1.3298
   43CHL1   C17 3132   6.618   2.564   4.339 -0.2430 -0.2743 -0.3161
   43CHL1   H17 3133   6.713   2.508   4.328  1.4895  2.6168 -0.9497
   43CHL1   C13 3134   6.600   2.626   4.207 -0.2525  1.2738 -0.0322
   43CHL1   C18 3135   6.486   2.728   4.229 -0.0677  0.3734  0.9799
   43CHL1  H18A 3136   6.517   2.821   4.282  1.4775  0.0083  0.7528
   43CHL1  H18B 3137   6.461   2.750   4.123 -0.1389  1.5506  1.2187
   43CHL1  H18C 3138   6.389   2.693   4.272 -0.4479 -0.3616 -0.4072
   43CHL1   C12 3139   6.718   2.695   4.133 -0.7812 -0.1195 -0.6600
   43CHL1  H12A 3140   6.730   2.795   4.178 -1.0697 -0.2674 -0.2488
   43CHL1  H12B 3141   6.806   2.630   4.149 -2.8836 -2.4456  3.2191
   43CHL1   C11 3142   6.694   2.714   3.986 -0.8896 -0.0135  0.0172
   43CHL1  H11A 3143   6.622   2.799   3.988 -0.3981  0.4259  2.9881
   43CHL1  H11B 3144   6.785   2.749   3.933 -1.2396 -1.3047 -1.5031
   43CHL1    C9 3145   6.628   2.594   3.903 -0.0539 -0.5898 -0.4714
   43CHL1    H9 3146   6.699   2.509   3.911  1.8116  1.0050  0.8507
   43CHL1   C10 3147   6.592   2.639   3.758 -0.0642  0.1440 -0.6664
   43CHL1   C19 3148   6.511   2.778   3.759 -0.4777  0.1687  0.4763
   43CHL1  H19A 3149   6.487   2.814   3.657 -0.1335 -2.0528 -0.4613
   43CHL1  H19B 3150   6.422   2.769   3.825  1.1308  3.0163  3.3613
   43CHL1  H19C 3151   6.578   2.859   3.796  0.5237  0.1751 -1.2408
   43CHL1    C1 3152   6.726   2.662   3.681  0.8153  0.3009  0.1127
   43CHL1   H1A 3153   6.770   2.760   3.710  1.1750  0.4068 -0.7729
   43CHL1   H1B 3154   6.789   2.576   3.715  0.8597  0.0025 -0.7028
   43CHL1    C2 3155   6.708   2.652   3.525 -0.0414 -0.5382  0.9290
   43CHL1   H2A 3156   6.808   2.655   3.478 -0.8155  2.6806 -0.8782
   43CHL1   H2B 3157   6.651   2.737   3.481  1.3712  0.8193  1.6299
   43CHL1   C20 3158   6.634   2.649   4.462 -0.6585  0.4509 -0.3134
   43CHL1   H20 3159   6.537   2.695   4.491 -1.2066 -0.3373 -0.8244
   43CHL1   C21 3160   6.740   2.757   4.448 -0.3364 -0.7593 -0.0070
   43CHL1  H21A 3161   6.760   2.806   4.545  0.8530 -1.3069  0.0503
   43CHL1  H21B 3162   6.729   2.840   4.375  0.6119 -0.8259 -0.2497
   43CHL1  H21C 3163   6.835   2.705   4.421 -1.1432 -2.5845  0.5330
   43CHL1   C22 3164   6.661   2.560   4.589 -0.0397  0.2435  0.3388
   43CHL1  H22A 3165   6.583   2.482   4.596 -0.0152  0.2092  0.2331
   43CHL1  H22B 3166   6.746   2.489   4.577 -0.7615 -0.8720  1.5418
   43CHL1   C23 3167   6.651   2.614   4.740  0.0632 -0.3733  0.3207
   43CHL1  H23A 3168   6.699   2.546   4.814 -2.7720 -1.3947  1.3587
   43CHL1  H23B 3169   6.712   2.707   4.734 -1.5309  0.7366  0.6197
   43CHL1   C24 3170   6.513   2.662   4.781 -0.1031  0.4056  0.2589
   43CHL1  H24A 3171   6.490   2.743   4.709  1.9455 -0.3835 -1.4048
   43CHL1  H24B 3172   6.437   2.581   4.783  0.1846  0.1151 -0.2845
   43CHL1   C25 3173   6.508   2.739   4.911  0.7795 -0.4739  0.0246
   43CHL1   H25 3174   6.590   2.814   4.907  2.9388 -2.6839  0.3694
   43CHL1   C26 3175   6.377   2.819   4.936  0.3131  1.0961  0.1402
   43CHL1  H26A 3176   6.371   2.887   5.023  2.2914  1.2633  0.1813
   43CHL1  H26B 3177   6.345   2.877   4.847  3.5882 -0.3154 -2.1534
   43CHL1  H26C 3178   6.291   2.748   4.935  0.3370  1.0586 -0.8500
   43CHL1   C27 3179   6.533   2.641   5.031  0.0945  0.2053  0.2282
   43CHL1  H27A 3180   6.448   2.571   5.044 -0.6806  1.2818  1.1187
   43CHL1  H27B 3181   6.630   2.591   5.009  1.6083  2.8413  0.5729
   43CHL1  H27C 3182   6.534   2.694   5.128 -3.6206 -1.3172  1.2798
   44CHL1    C3 3183   3.508   3.708   3.420 -0.3515 -0.8282  0.8677
   44CHL1    H3 3184   3.404   3.706   3.460 -0.0220  2.0443  2.1131
   44CHL1    O3 3185   3.493   3.730   3.276 -0.3672  0.1123  0.5637
   44CHL1   H3' 3186   3.577   3.742   3.232 -0.7231 -0.4168 -0.2785
   44CHL1    C4 3187   3.586   3.812   3.485 -0.2667  0.3279  0.1373
   44CHL1   H4A 3188   3.688   3.808   3.443 -0.7879 -1.2228 -1.0628
   44CHL1   H4B 3189   3.549   3.911   3.449 -2.5611 -0.6540 -0.3894
   44CHL1    C5 3190   3.584   3.799   3.636 -0.2992  0.7683 -0.0367
   44CHL1    C6 3191   3.531   3.893   3.722  0.0828  0.3300  0.3126
   44CHL1    H6 3192   3.497   3.992   3.691  1.6675  0.2398 -1.9702
   44CHL1    C7 3193   3.544   3.878   3.870  0.4375 -0.6617 -0.7619
   44CHL1   H7A 3194   3.566   3.974   3.923 -1.6317  1.2233 -3.0634
   44CHL1   H7B 3195   3.448   3.835   3.906  1.0243  1.1604  3.7800
   44CHL1    C8 3196   3.646   3.773   3.925  0.0935 -0.5448  0.1154
   44CHL1    H8 3197   3.746   3.817   3.906  0.1738 -0.1568  1.3223
   44CHL1   C14 3198   3.622   3.745   4.069 -0.3670 -0.0301  0.1328
   44CHL1   H14 3199   3.524   3.693   4.076 -0.6926  0.5095 -0.3270
   44CHL1   C15 3200   3.606   3.859   4.169  0.1354 -0.2910 -0.5490
   44CHL1  H15A 3201   3.687   3.930   4.144 -1.1641  1.0113 -1.2403
   44CHL1  H15B 3202   3.510   3.915   4.168 -0.6702 -1.5338  1.3295
   44CHL1   C16 3203   3.637   3.797   4.305  0.4936 -0.6158  0.1183
   44CHL1  H16A 3204   3.732   3.840   4.346  0.6697  0.8182 -1.6520
   44CHL1  H16B 3205   3.549   3.810   4.371 -1.0609 -3.3058 -1.2635
   44CHL1   C17 3206   3.666   3.643   4.277  0.0470 -0.1361 -0.1911
   44CHL1   H17 3207   3.567   3.593   4.285  0.3214 -0.4278  2.3312
   44CHL1   C13 3208   3.717   3.636   4.128  1.1208 -0.1158 -0.3598
   44CHL1   C18 3209   3.866   3.675   4.126  0.0489 -0.1911 -0.7515
   44CHL1  H18A 3210   3.873   3.779   4.165 -2.3302  1.3800 -4.0562
   44CHL1  H18B 3211   3.925   3.604   4.188  1.1709  0.1887 -1.3580
   44CHL1  H18C 3212   3.907   3.678   4.023  0.4977  1.4003 -0.5636
   44CHL1   C12 3213   3.688   3.501   4.051  0.0993 -0.1563  0.4457
   44CHL1  H12A 3214   3.744   3.407   4.073 -0.9058 -1.9855 -3.6608
   44CHL1  H12B 3215   3.585   3.466   4.073  0.2616  0.4473  2.3473
   44CHL1   C11 3216   3.707   3.521   3.902  0.5972 -0.6010  0.1894
   44CHL1  H11A 3217   3.816   3.535   3.883 -0.0709  2.9805 -2.0355
   44CHL1  H11B 3218   3.667   3.431   3.850  1.8509 -0.5150 -0.9815
   44CHL1    C9 3219   3.633   3.651   3.839 -0.1506  0.2181  0.3139
   44CHL1    H9 3220   3.527   3.621   3.853  0.2041 -0.3836  1.8678
   44CHL1   C10 3221   3.655   3.671   3.689  0.0272  0.1746  0.5148
   44CHL1   C19 3222   3.806   3.675   3.667 -0.0614 -0.3716 -0.4242
   44CHL1  H19A 3223   3.843   3.572   3.650  1.3412 -0.2375  1.5224
   44CHL1  H19B 3224   3.836   3.742   3.583 -0.0446  1.2023  0.7814
   44CHL1  H19C 3225   3.866   3.702   3.756  0.9068 -0.3052 -1.0786
   44CHL1    C1 3226   3.603   3.549   3.607  0.5746  0.3975  0.5828
   44CHL1   H1A 3227   3.663   3.460   3.634  0.4906 -0.4437 -1.7879
   44CHL1   H1B 3228   3.499   3.536   3.642  0.9090  1.6649  2.1862
   44CHL1    C2 3229   3.589   3.573   3.457  0.0113 -0.5011  0.5686
   44CHL1   H2A 3230   3.544   3.487   3.402 -1.4880  0.0556  0.8746
   44CHL1   H2B 3231   3.687   3.584   3.406  0.0088  1.0906  0.8704
   44CHL1   C20 3232   3.749   3.572   4.394 -0.4621  0.4341 -0.1086
   44CHL1   H20 3233   3.857   3.595   4.378  0.0691 -1.4836  0.3854
   44CHL1   C21 3234   3.752   3.418   4.379  0.6837 -0.5292 -0.0711
   44CHL1  H21A 3235   3.802   3.404   4.281 -0.9315 -0.5690 -0.9354
   44CHL1  H21B 3236   3.646   3.387   4.362  0.4084  0.1093  0.4217
   44CHL1  H21C 3237   3.806   3.353   4.452  1.8799 -2.3423 -2.4452
   44CHL1   C22 3238   3.706   3.614   4.534 -1.0059  0.0233 -0.0851
   44CHL1  H22A 3239   3.714   3.723   4.555 -3.7251  0.1575  0.5847
   44CHL1  H22B 3240   3.599   3.588   4.548 -0.9244 -0.5516 -0.4789
   44CHL1   C23 3241   3.793   3.545   4.648  0.3878  0.5951  0.0652
   44CHL1  H23A 3242   3.763   3.438   4.648 -2.3621  1.1926 -2.9564
   44CHL1  H23B 3243   3.894   3.546   4.602  0.1102 -2.2453 -0.7827
   44CHL1   C24 3244   3.787   3.616   4.783 -1.1486  0.6236 -0.5998
   44CHL1  H24A 3245   3.745   3.716   4.761  0.3230  0.9767 -2.0387
   44CHL1  H24B 3246   3.724   3.567   4.860  0.6318  1.5433  1.5631
   44CHL1   C25 3247   3.922   3.625   4.848  0.3685 -0.6033  0.1760
   44CHL1   H25 3248   3.895   3.669   4.946 -1.7633  0.1940 -0.7132
   44CHL1   C26 3249   3.991   3.493   4.884 -0.0185 -0.1845 -0.3294
   44CHL1  H26A 3250   3.927   3.443   4.960 -0.6529  0.2400 -0.5696
   44CHL1  H26B 3251   3.997   3.421   4.799  1.9949 -0.1707 -0.2504
   44CHL1  H26C 3252   4.095   3.497   4.922  0.1165 -1.2419 -0.5344
   44CHL1   C27 3253   4.027   3.711   4.773 -0.4687 -0.2318  1.2391
   44CHL1  H27A 3254   4.112   3.736   4.840 -0.0391  0.4184  0.4769
   44CHL1  H27B 3255   4.061   3.662   4.679 -3.1432  2.1023 -1.1389
   44CHL1  H27C 3256   3.993   3.810   4.737  0.7512 -0.1849  0.1346
   45CHL1    C3 3257   4.678   2.007   3.194 -0.3964 -0.4845  0.0255
   45CHL1    H3 3258   4.713   2.107   3.228 -2.1093  0.5835 -1.2101
   45CHL1    O3 3259   4.683   2.010   3.053  0.3123 -0.0408  0.4013
   45CHL1   H3' 3260   4.643   2.093   3.028  1.2638  0.5252  0.7169
   45CHL1    C4 3261   4.784   1.910   3.254  0.5007  0.5979  0.1173
   45CHL1   H4A 3262   4.780   1.820   3.188  0.8486  0.2965  0.5020
   45CHL1   H4B 3263   4.884   1.954   3.234  1.6655 -2.4406 -1.4022
   45CHL1    C5 3264   4.779   1.868   3.399  0.2160  0.3521  0.0048
   45CHL1    C6 3265   4.887   1.880   3.478 -0.0086 -0.3709  0.3361
   45CHL1    H6 3266   4.987   1.903   3.439 -0.1881 -0.1005  0.0295
   45CHL1    C7 3267   4.873   1.848   3.619 -0.4048 -0.3484 -1.2025
   45CHL1   H7A 3268   4.951   1.777   3.654 -0.0402  1.5949  2.4134
   45CHL1   H7B 3269   4.905   1.932   3.683  1.9548 -2.6944  0.9265
   45CHL1    C8 3270   4.743   1.784   3.672 -0.3369  0.1115 -0.1518
   45CHL1    H8 3271   4.743   1.676   3.646  0.3250  0.1526 -0.3418
   45CHL1   C14 3272   4.734   1.805   3.825 -0.6108 -0.8175 -0.1919
   45CHL1   H14 3273   4.721   1.916   3.831 -3.9216 -0.9865 -2.1280
   45CHL1   C15 3274   4.856   1.769   3.910 -0.5302 -0.0643 -0.0301
   45CHL1  H15A 3275   4.900   1.670   3.884 -2.2660 -0.5782 -1.1878
   45CHL1  H15B 3276   4.934   1.848   3.906  0.6869 -1.2417 -0.2629
   45CHL1   C16 3277   4.792   1.763   4.057  0.5248  0.9120  0.5458
   45CHL1  H16A 3278   4.836   1.678   4.112 -0.4196 -0.1353 -0.2738
   45CHL1  H16B 3279   4.818   1.853   4.117 -3.5334  0.4541  3.3807
   45CHL1   C17 3280   4.645   1.763   4.036  0.0075  0.4493  0.2858
   45CHL1   H17 3281   4.612   1.869   4.048 -2.7840 -0.1601 -1.0344
   45CHL1   C13 3282   4.619   1.732   3.884 -0.2887  0.0271 -0.3458
   45CHL1   C18 3283   4.613   1.581   3.876  0.1081 -0.1358  0.9277
   45CHL1  H18A 3284   4.622   1.549   3.769 -0.3163 -0.6458  1.0416
   45CHL1  H18B 3285   4.680   1.527   3.946  0.6188 -1.6435 -0.6398
   45CHL1  H18C 3286   4.510   1.543   3.896 -1.2242  0.0914 -4.0737
   45CHL1   C12 3287   4.492   1.789   3.824 -0.7251  0.3214  0.0479
   45CHL1  H12A 3288   4.408   1.743   3.879 -1.5650  2.0277  0.2738
   45CHL1  H12B 3289   4.486   1.896   3.854 -0.0984 -0.0965  1.7924
   45CHL1   C11 3290   4.494   1.769   3.670  1.2504  0.3349  0.4367
   45CHL1  H11A 3291   4.492   1.663   3.637 -2.4564  0.4085  0.0630
   45CHL1  H11B 3292   4.400   1.810   3.628  0.8640 -1.0643 -0.1286
   45CHL1    C9 3293   4.620   1.845   3.606 -0.2354 -0.1063  0.1643
   45CHL1    H9 3294   4.607   1.950   3.640  0.5648  0.4107 -1.0957
   45CHL1   C10 3295   4.636   1.846   3.450 -0.5582  0.4171  0.0137
   45CHL1   C19 3296   4.590   1.704   3.396 -0.5661  0.4926 -0.4982
   45CHL1  H19A 3297   4.650   1.622   3.441  0.9140  2.1831  0.7401
   45CHL1  H19B 3298   4.484   1.683   3.419 -0.7599  0.0445 -1.7067
   45CHL1  H19C 3299   4.595   1.693   3.285 -2.2453 -1.7627 -0.4209
   45CHL1    C1 3300   4.539   1.953   3.389 -0.0856  0.4539 -0.1788
   45CHL1   H1A 3301   4.438   1.923   3.424  0.6438 -0.4734  1.2340
   45CHL1   H1B 3302   4.576   2.047   3.434  0.5512 -0.6686  1.7702
   45CHL1    C2 3303   4.534   1.978   3.239  0.6875  0.3326  0.4052
   45CHL1   H2A 3304   4.467   2.059   3.204 -1.0883 -1.7846 -1.4347
   45CHL1   H2B 3305   4.508   1.880   3.193 -1.5604  0.1042  1.9863
   45CHL1   C20 3306   4.566   1.690   4.148  0.0076  0.0976  0.4368
   45CHL1   H20 3307   4.561   1.579   4.146 -0.5530  0.0217  2.9394
   45CHL1   C21 3308   4.419   1.726   4.150  0.8676  0.5019  0.4638
   45CHL1  H21A 3309   4.363   1.668   4.074  1.1181  1.0498 -0.1504
   45CHL1  H21B 3310   4.399   1.833   4.128 -0.7225  0.2568  0.5832
   45CHL1  H21C 3311   4.363   1.692   4.240 -1.9395 -0.3027 -1.4589
   45CHL1   C22 3312   4.632   1.708   4.289  0.5059 -0.2082 -0.5962
   45CHL1  H22A 3313   4.728   1.652   4.292  0.7291  0.0355  4.3081
   45CHL1  H22B 3314   4.655   1.816   4.300  0.3161 -0.1094 -1.1130
   45CHL1   C23 3315   4.561   1.648   4.410  0.3987  0.1960  0.1415
   45CHL1  H23A 3316   4.466   1.705   4.423 -0.0710 -0.6547  0.5402
   45CHL1  H23B 3317   4.527   1.546   4.382 -1.5945  0.6776  0.6704
   45CHL1   C24 3318   4.641   1.656   4.544 -0.0306  0.8156 -0.6829
   45CHL1  H24A 3319   4.696   1.753   4.539 -0.3066  0.9468 -1.3163
   45CHL1  H24B 3320   4.567   1.657   4.626  0.5885 -0.9920 -0.0520
   45CHL1   C25 3321   4.746   1.553   4.575 -0.1692 -0.2335 -0.2098
   45CHL1   H25 3322   4.788   1.517   4.479  1.1140  0.2677  0.1446
   45CHL1   C26 3323   4.856   1.609   4.672 -0.4253 -0.5128  0.0058
   45CHL1  H26A 3324   4.933   1.530   4.687 -0.5276 -0.6308 -0.0962
   45CHL1  H26B 3325   4.902   1.694   4.617  0.2628 -0.4330  0.6879
   45CHL1  H26C 3326   4.822   1.630   4.776 -0.1604 -1.1578  0.2262
   45CHL1   C27 3327   4.679   1.426   4.637 -0.3457 -0.2859  0.1871
   45CHL1  H27A 3328   4.583   1.401   4.589 -0.6158  1.6792 -0.3943
   45CHL1  H27B 3329   4.740   1.335   4.620 -1.5315 -1.3883  1.6063
   45CHL1  H27C 3330   4.669   1.436   4.747 -0.7894 -1.5702  0.2756
   46CHL1    C3 3331   0.154   5.814   3.074 -0.0127 -0.3396  0.3381
   46CHL1    H3 3332   0.262   5.809   3.096 -0.1083  1.9480  1.7145
   46CHL1    O3 3333   0.134   5.819   2.934 -0.2868  0.0587 -0.2434
   46CHL1   H3' 3334   0.041   5.842   2.925 -1.2610 -2.4575  2.0323
   46CHL1    C4 3335   0.089   5.685   3.128  0.1592 -0.2167 -0.8033
   46CHL1   H4A 3336  -0.015   5.689   3.087  0.2969  1.2183 -1.0790
   46CHL1   H4B 3337   0.142   5.603   3.075  0.2300 -0.0928 -0.9258
   46CHL1    C5 3338   0.086   5.683   3.280 -0.3343  1.0061  0.2135
   46CHL1    C6 3339   0.153   5.586   3.344 -0.2532  0.3044  0.5434
   46CHL1    H6 3340   0.200   5.512   3.279 -1.4775 -0.2009  0.2050
   46CHL1    C7 3341   0.156   5.571   3.489 -0.2009 -0.0497 -0.1618
   46CHL1   H7A 3342   0.134   5.464   3.509  0.4362 -0.2335 -0.4106
   46CHL1   H7B 3343   0.260   5.597   3.519 -0.5549 -0.6166  1.6903
   46CHL1    C8 3344   0.055   5.669   3.560  0.4795 -0.0577 -0.6720
   46CHL1    H8 3345  -0.046   5.628   3.541 -0.1475  1.8472 -1.6763
   46CHL1   C14 3346   0.085   5.681   3.716 -0.1636 -0.1243 -0.2870
   46CHL1   H14 3347   0.180   5.737   3.724 -0.5088  0.5165 -0.5618
   46CHL1   C15 3348   0.110   5.551   3.793 -0.0293 -0.2720  0.3923
   46CHL1  H15A 3349   0.038   5.471   3.765 -2.5124  1.3623  1.6885
   46CHL1  H15B 3350   0.218   5.525   3.785 -0.1493 -0.6390 -0.0895
   46CHL1   C16 3351   0.071   5.591   3.938  0.5758  0.5267 -0.3067
   46CHL1  H16A 3352  -0.022   5.534   3.961  0.4959 -0.1665 -2.1827
   46CHL1  H16B 3353   0.137   5.564   4.023 -1.9246 -3.7091  0.6102
   46CHL1   C17 3354   0.027   5.739   3.939  0.1641 -0.5118  0.1161
   46CHL1   H17 3355   0.123   5.791   3.957 -0.0532  0.6091 -1.7531
   46CHL1   C13 3356  -0.012   5.769   3.796  0.4687 -0.1465  0.6381
   46CHL1   C18 3357  -0.160   5.723   3.778  0.2517  0.3677  0.9625
   46CHL1  H18A 3358  -0.179   5.629   3.834 -0.1889  0.9685  1.8303
   46CHL1  H18B 3359  -0.234   5.787   3.831  0.2431 -0.7909  2.4168
   46CHL1  H18C 3360  -0.192   5.715   3.671 -0.6180 -0.3517  1.2612
   46CHL1   C12 3361   0.016   5.910   3.738  0.2963 -0.2193  0.5047
   46CHL1  H12A 3362  -0.060   5.981   3.778 -0.0671  0.8543 -1.9105
   46CHL1  H12B 3363   0.114   5.961   3.746 -0.1349  0.8478 -0.6152
   46CHL1   C11 3364  -0.015   5.916   3.581 -0.1955 -0.3463  0.2956
   46CHL1  H11A 3365  -0.125   5.904   3.587  0.0517 -3.3527  0.0057
   46CHL1  H11B 3366   0.011   6.017   3.542  0.4673 -0.4117  0.5575
   46CHL1    C9 3367   0.052   5.807   3.500 -0.2084 -0.4344 -0.6435
   46CHL1    H9 3368   0.161   5.831   3.505 -0.3348  0.3756 -1.5873
   46CHL1   C10 3369   0.032   5.807   3.355 -0.0255 -0.4146 -0.2470
   46CHL1   C19 3370  -0.118   5.814   3.331 -0.4705 -0.2246 -0.5476
   46CHL1  H19A 3371  -0.158   5.741   3.405 -0.7628 -0.3476 -0.8223
   46CHL1  H19B 3372  -0.160   5.914   3.352 -1.2019 -0.9939  1.9655
   46CHL1  H19C 3373  -0.151   5.782   3.230 -2.4499  0.9318 -0.3231
   46CHL1    C1 3374   0.099   5.931   3.289  0.2057 -0.1138 -0.2800
   46CHL1   H1A 3375   0.043   6.023   3.313  1.3276  1.0205 -1.8135
   46CHL1   H1B 3376   0.201   5.956   3.325 -0.9011  2.0203  1.5899
   46CHL1    C2 3377   0.098   5.941   3.141 -0.0474 -0.1380 -0.3545
   46CHL1   H2A 3378   0.162   6.027   3.113 -1.1961  0.8498  0.0200
   46CHL1   H2B 3379  -0.007   5.962   3.113 -0.7237 -1.3059  1.1372
   46CHL1   C20 3380  -0.066   5.775   4.054 -0.3576 -0.5002  0.4587
   46CHL1   H20 3381  -0.162   5.719   4.051  0.7287 -2.4356 -0.0754
   46CHL1   C21 3382  -0.112   5.927   4.049 -0.5874 -0.2474  0.2064
   46CHL1  H21A 3383  -0.153   5.936   4.152 -1.8213  0.0532 -0.2967
   46CHL1  H21B 3384  -0.192   5.937   3.972  0.9086  1.2478 -1.2320
   46CHL1  H21C 3385  -0.026   5.996   4.039 -0.4345 -0.5367 -0.5657
   46CHL1   C22 3386  -0.009   5.745   4.193 -0.0648  0.1619 -0.4427
   46CHL1  H22A 3387  -0.093   5.755   4.265 -1.2286 -1.9309 -1.3842
   46CHL1  H22B 3388   0.024   5.639   4.197  0.0102  0.1548 -1.0805
   46CHL1   C23 3389   0.112   5.834   4.244 -0.1268  0.2803 -0.0880
   46CHL1  H23A 3390   0.191   5.851   4.169  0.5516 -0.5570  0.4196
   46CHL1  H23B 3391   0.070   5.933   4.275  1.6889  2.2640 -3.3708
   46CHL1   C24 3392   0.181   5.793   4.376  0.1006  0.0556 -1.0119
   46CHL1  H24A 3393   0.114   5.810   4.462 -1.7147 -1.2149 -2.1106
   46CHL1  H24B 3394   0.204   5.684   4.373 -1.7044 -0.5058  2.2015
   46CHL1   C25 3395   0.309   5.869   4.417 -0.4127  0.7298  0.2348
   46CHL1   H25 3396   0.329   5.822   4.515 -1.2060  1.3796  0.7207
   46CHL1   C26 3397   0.422   5.835   4.317 -0.1009  0.0410 -0.0244
   46CHL1  H26A 3398   0.424   5.726   4.293  0.0570  0.7498 -3.7024
   46CHL1  H26B 3399   0.397   5.886   4.222  0.3325  2.1181  0.9355
   46CHL1  H26C 3400   0.521   5.870   4.354  0.2863 -1.1984  0.1735
   46CHL1   C27 3401   0.296   6.017   4.429 -0.0128 -0.1171 -0.3196
   46CHL1  H27A 3402   0.209   6.038   4.495  0.9847 -1.9358  1.6845
   46CHL1  H27B 3403   0.387   6.059   4.477 -0.6976 -1.4697  2.2959
   46CHL1  H27C 3404   0.283   6.070   4.332  0.2214 -2.9858 -2.0357
   47CHL1    C3 3405   0.063   6.269   2.825  0.0485  0.4313 -0.2484
   47CHL1    H3 3406   0.070   6.160   2.847  0.4460  0.2819 -1.0954
   47CHL1    O3 3407   0.077   6.282   2.687  0.9042 -0.1753  0.2838
   47CHL1   H3' 3408   0.160   6.239   2.664  1.8988  1.7961 -0.0317
   47CHL1    C4 3409  -0.063   6.333   2.880  0.2712  0.2472 -0.2448
   47CHL1   H4A 3410  -0.054   6.437   2.844  2.1472  0.8269  1.6926
   47CHL1   H4B 3411  -0.158   6.295   2.838 -0.0194 -1.4767  1.7529
   47CHL1    C5 3412  -0.069   6.337   3.034  0.2341 -0.4755  0.0979
   47CHL1    C6 3413  -0.169   6.282   3.105  0.3632  0.2304  0.2268
   47CHL1    H6 3414  -0.247   6.224   3.052  2.6998 -1.3295 -1.7406
   47CHL1    C7 3415  -0.179   6.277   3.251 -0.6903 -0.0360 -0.4537
   47CHL1   H7A 3416  -0.280   6.317   3.270 -0.3026  0.4848  0.5444
   47CHL1   H7B 3417  -0.170   6.176   3.297  2.2363  0.2610 -0.1700
   47CHL1    C8 3418  -0.070   6.361   3.319  0.0278  0.1293 -0.1025
   47CHL1    H8 3419  -0.093   6.470   3.320  1.3195  0.4119  0.6352
   47CHL1   C14 3420  -0.054   6.317   3.465  0.0449  0.0122  0.4340
   47CHL1   H14 3421  -0.006   6.219   3.447  0.5852  0.2209  0.7189
   47CHL1   C15 3422  -0.181   6.290   3.550 -0.0387  0.3901  0.2085
   47CHL1  H15A 3423  -0.247   6.379   3.538  0.2258  0.7391  1.2584
   47CHL1  H15B 3424  -0.242   6.200   3.528 -0.6963  0.8210  0.2055
   47CHL1   C16 3425  -0.127   6.286   3.695 -0.1733 -0.3981 -0.4884
   47CHL1  H16A 3426  -0.171   6.375   3.745  1.0040 -0.8450  1.4616
   47CHL1  H16B 3427  -0.147   6.195   3.754  0.4615 -0.2174  0.0165
   47CHL1   C17 3428   0.028   6.313   3.689 -0.3731 -0.1558  0.3137
   47CHL1   H17 3429   0.073   6.211   3.685 -0.1093 -0.0847  1.1357
   47CHL1   C13 3430   0.049   6.388   3.554 -0.3417  0.0522 -0.0956
   47CHL1   C18 3431   0.004   6.539   3.566 -0.0674 -0.2705 -0.4099
   47CHL1  H18A 3432   0.063   6.596   3.641 -0.5601  1.0046 -0.9696
   47CHL1  H18B 3433   0.012   6.586   3.466 -0.3792  1.1993  0.2329
   47CHL1  H18C 3434  -0.098   6.537   3.609 -0.0400  0.3857 -0.3074
   47CHL1   C12 3435   0.188   6.377   3.489  0.6643 -0.0384  0.1843
   47CHL1  H12A 3436   0.262   6.450   3.529 -1.1472  2.1028 -0.1509
   47CHL1  H12B 3437   0.227   6.274   3.498  1.9553  0.2406 -1.6748
   47CHL1   C11 3438   0.182   6.408   3.340  0.4934 -0.2893  0.0070
   47CHL1  H11A 3439   0.183   6.519   3.336  3.1443 -0.2902 -0.8993
   47CHL1  H11B 3440   0.268   6.365   3.285 -0.7118 -0.8161 -1.5654
   47CHL1    C9 3441   0.064   6.352   3.251 -0.2471 -0.3687 -0.4648
   47CHL1    H9 3442   0.082   6.242   3.248  2.2625 -0.0778  1.3489
   47CHL1   C10 3443   0.059   6.392   3.105 -0.4290 -0.3944  0.4042
   47CHL1   C19 3444   0.052   6.549   3.093  0.6657  0.1963  1.1973
   47CHL1  H19A 3445   0.138   6.592   3.149  1.5996 -0.7705  0.5658
   47CHL1  H19B 3446   0.052   6.577   2.985  0.6181  0.0239  1.1508
   47CHL1  H19C 3447  -0.040   6.581   3.145 -1.3186 -0.7417 -1.4925
   47CHL1    C1 3448   0.191   6.334   3.035 -0.4632  0.0509 -0.7167
   47CHL1   H1A 3449   0.277   6.395   3.071 -1.2687  0.7643  0.0380
   47CHL1   H1B 3450   0.184   6.226   3.060 -1.0093  0.0874 -0.6907
   47CHL1    C2 3451   0.187   6.330   2.882 -0.2425 -0.2728 -0.8262
   47CHL1   H2A 3452   0.281   6.294   2.836 -0.3476  0.4737 -1.6537
   47CHL1   H2B 3453   0.182   6.435   2.848 -1.1519 -0.0623 -0.0927
   47CHL1   C20 3454   0.075   6.372   3.821 -0.0557 -0.2734 -0.0242
   47CHL1   H20 3455   0.025   6.471   3.830  0.0373  0.0032 -1.9477
   47CHL1   C21 3456   0.228   6.396   3.810 -0.2625 -0.6452  0.4067
   47CHL1  H21A 3457   0.248   6.485   3.747 -0.8483 -0.6383  0.2224
   47CHL1  H21B 3458   0.273   6.305   3.765  0.7820 -0.5609  1.2363
   47CHL1  H21C 3459   0.268   6.411   3.913 -1.5080 -0.9287  0.9547
   47CHL1   C22 3460   0.035   6.284   3.941 -0.2972  0.3959  0.4167
   47CHL1  H22A 3461  -0.075   6.272   3.956  0.0494 -1.1731  1.9604
   47CHL1  H22B 3462   0.079   6.184   3.923  0.4841  0.9961 -1.1924
   47CHL1   C23 3463   0.077   6.343   4.074  0.1759  0.5348 -0.2742
   47CHL1  H23A 3464   0.185   6.333   4.098  0.2832 -0.5616 -1.1752
   47CHL1  H23B 3465   0.047   6.450   4.068  1.5009  0.9446 -0.0024
   47CHL1   C24 3466   0.013   6.284   4.206  0.0619 -0.1133  0.3690
   47CHL1  H24A 3467  -0.093   6.269   4.175  0.4527  0.8523 -1.6557
   47CHL1  H24B 3468   0.049   6.183   4.235 -0.2648  0.4894  3.1141
   47CHL1   C25 3469   0.014   6.378   4.331  0.6218  0.0812  0.3502
   47CHL1   H25 3470   0.007   6.485   4.301  2.5549 -0.0243 -0.6757
   47CHL1   C26 3471  -0.104   6.328   4.425 -0.0715  0.3738  0.7305
   47CHL1  H26A 3472  -0.076   6.224   4.454 -1.9911 -0.0342  1.2337
   47CHL1  H26B 3473  -0.103   6.393   4.515  1.3719  2.3517 -0.6339
   47CHL1  H26C 3474  -0.202   6.335   4.375  0.9142  2.5609 -1.0825
   47CHL1   C27 3475   0.145   6.368   4.416  0.0101 -0.1450  0.3587
   47CHL1  H27A 3476   0.227   6.430   4.375  0.0994 -0.6158 -0.1891
   47CHL1  H27B 3477   0.123   6.391   4.523 -2.0702 -1.1376  0.1970
   47CHL1  H27C 3478   0.180   6.263   4.414 -2.6070 -1.1024  0.3677
   48CHL1    C3 3479   3.092   1.088   3.021  0.2896 -0.3499 -0.3745
   48CHL1    H3 3480   3.128   1.191   3.000  2.6026 -1.6568 -3.7471
   48CHL1    O3 3481   3.103   1.033   2.890  0.4540 -0.5023  0.0360
   48CHL1   H3' 3482   3.036   0.965   2.894 -2.7977  2.4212 -0.0238
   48CHL1    C4 3483   3.202   1.028   3.121  0.4509 -0.4632  0.5558
   48CHL1   H4A 3484   3.195   0.923   3.086  0.1756  0.4173 -2.3390
   48CHL1   H4B 3485   3.297   1.073   3.085  0.0904 -0.8368 -0.9353
   48CHL1    C5 3486   3.173   1.050   3.270 -0.4173  0.2431 -0.1654
   48CHL1    C6 3487   3.277   1.073   3.353 -0.3160 -0.2414  0.7625
   48CHL1    H6 3488   3.377   1.083   3.308 -0.9191  2.4343 -0.1737
   48CHL1    C7 3489   3.258   1.102   3.498 -0.2444  0.5508 -0.4212
   48CHL1   H7A 3490   3.337   1.053   3.559 -1.2961 -1.3503 -0.4965
   48CHL1   H7B 3491   3.265   1.211   3.520  0.0498  0.5381 -0.4489
   48CHL1    C8 3492   3.123   1.036   3.553  0.0983  0.1447 -0.1916
   48CHL1    H8 3493   3.133   0.926   3.536  1.8026  0.4189 -1.2535
   48CHL1   C14 3494   3.109   1.076   3.696  1.2057 -0.2474 -0.3616
   48CHL1   H14 3495   3.104   1.187   3.691 -0.1203 -0.3135 -0.9476
   48CHL1   C15 3496   3.217   1.043   3.793 -0.7236 -0.4759  0.5693
   48CHL1  H15A 3497   3.288   0.966   3.755  2.6586  2.3327  0.6278
   48CHL1  H15B 3498   3.288   1.127   3.810  0.6352 -1.8823  2.3289
   48CHL1   C16 3499   3.146   1.014   3.925 -0.6859 -0.3798  0.1301
   48CHL1  H16A 3500   3.140   0.903   3.930  0.8481 -0.4955 -0.0510
   48CHL1  H16B 3501   3.196   1.048   4.019  2.5523 -0.1827 -1.5241
   48CHL1   C17 3502   3.000   1.055   3.906  0.4847  0.0748 -0.4594
   48CHL1   H17 3503   2.999   1.165   3.923 -0.2512  0.4204 -2.3827
   48CHL1   C13 3504   2.979   1.027   3.754 -0.2256  0.6484 -0.6222
   48CHL1   C18 3505   2.951   0.872   3.740 -0.3714 -0.7093  0.4060
   48CHL1  H18A 3506   3.017   0.809   3.803 -2.0650 -0.1517  2.8793
   48CHL1  H18B 3507   2.844   0.850   3.759 -0.6400  0.6005  0.5422
   48CHL1  H18C 3508   2.982   0.829   3.642  0.4459  1.8451 -0.5530
   48CHL1   C12 3509   2.862   1.102   3.679 -0.0389 -0.1601 -0.4965
   48CHL1  H12A 3510   2.766   1.074   3.727  0.1249  0.9801  0.5600
   48CHL1  H12B 3511   2.877   1.209   3.703 -0.3447 -0.1699 -0.2626
   48CHL1   C11 3512   2.865   1.065   3.532 -0.4715 -0.0056  0.4568
   48CHL1  H11A 3513   2.825   0.963   3.516 -3.1657  1.1496 -0.7179
   48CHL1  H11B 3514   2.793   1.128   3.476  0.0788 -1.0605 -1.5489
   48CHL1    C9 3515   3.008   1.089   3.463 -0.5175 -0.2470 -0.5098
   48CHL1    H9 3516   3.030   1.198   3.463  2.9103 -0.7977  1.6820
   48CHL1   C10 3517   3.022   1.040   3.312 -0.0406  0.0674 -0.9351
   48CHL1   C19 3518   2.977   0.898   3.301  0.4667  0.0578 -0.4541
   48CHL1  H19A 3519   3.026   0.837   3.380 -2.0976 -1.1564  0.3335
   48CHL1  H19B 3520   2.867   0.890   3.317 -0.1011  1.0693 -3.3857
   48CHL1  H19C 3521   2.989   0.848   3.202 -2.1383 -0.0775 -0.7703
   48CHL1    C1 3522   2.932   1.124   3.211 -0.1666 -0.2318 -0.4031
   48CHL1   H1A 3523   2.827   1.105   3.243  0.0117  1.4492  1.3747
   48CHL1   H1B 3524   2.953   1.232   3.224  0.4233 -0.5773  1.9586
   48CHL1    C2 3525   2.941   1.082   3.066 -0.3476 -0.2500  0.0758
   48CHL1   H2A 3526   2.880   1.147   3.000  1.3422 -1.7195 -3.1717
   48CHL1   H2B 3527   2.905   0.978   3.048 -0.1128 -0.1412 -1.1262
   48CHL1   C20 3528   2.905   0.979   4.003 -0.0058  0.2916 -0.7590
   48CHL1   H20 3529   2.900   0.870   3.985 -1.0772  0.1270  0.4045
   48CHL1   C21 3530   2.758   1.033   3.986 -0.5561 -0.5124 -0.7923
   48CHL1  H21A 3531   2.694   1.016   4.076  0.4197  0.4799  0.1177
   48CHL1  H21B 3532   2.700   0.984   3.905 -1.8948 -1.5571  0.7204
   48CHL1  H21C 3533   2.761   1.142   3.964 -0.7686 -0.2499  0.3781
   48CHL1   C22 3534   2.955   0.984   4.148 -0.4731  0.1770  0.0839
   48CHL1  H22A 3535   3.047   0.921   4.151  0.2890  1.2493  0.0119
   48CHL1  H22B 3536   2.986   1.088   4.170  1.4170 -0.6498  1.5993
   48CHL1   C23 3537   2.860   0.935   4.263  0.2766  0.3142  0.0242
   48CHL1  H23A 3538   2.760   0.982   4.259  0.4279  0.6057 -0.4933
   48CHL1  H23B 3539   2.835   0.828   4.253  1.9186  0.0240 -1.3478
   48CHL1   C24 3540   2.931   0.957   4.398 -0.0127 -0.0414 -0.8097
   48CHL1  H24A 3541   3.039   0.930   4.406  1.2817  2.9976 -4.5811
   48CHL1  H24B 3542   2.933   1.064   4.429  1.2407 -0.4365  0.6143
   48CHL1   C25 3543   2.860   0.887   4.516 -0.7422  1.0256 -0.1514
   48CHL1   H25 3544   2.846   0.782   4.484  0.0346  0.0840  2.3298
   48CHL1   C26 3545   2.933   0.881   4.649 -0.1400  0.7290 -1.2444
   48CHL1  H26A 3546   2.865   0.842   4.728  1.9360 -1.7748 -0.5427
   48CHL1  H26B 3547   3.019   0.811   4.641 -0.8681 -0.1757 -1.4180
   48CHL1  H26C 3548   2.958   0.988   4.663 -1.9930  1.1086 -0.5264
   48CHL1   C27 3549   2.716   0.937   4.529  0.0198 -0.0556 -0.0722
   48CHL1  H27A 3550   2.703   1.044   4.556  0.4262  0.1415 -0.6448
   48CHL1  H27B 3551   2.667   0.921   4.431  1.7993 -1.1346 -0.8368
   48CHL1  H27C 3552   2.655   0.883   4.604  0.7422 -2.2291 -0.9818
   49CHL1    C3 3553   4.374   3.312   3.462  0.4002  0.5154 -0.1493
   49CHL1    H3 3554   4.444   3.233   3.497 -1.3871 -0.3292  1.7656
   49CHL1    O3 3555   4.399   3.325   3.320 -0.1012 -0.1922 -0.1260
   49CHL1   H3' 3556   4.487   3.305   3.288  0.9174  1.3621  1.5787
   49CHL1    C4 3557   4.225   3.273   3.489  0.8601 -0.4987 -0.2855
   49CHL1   H4A 3558   4.151   3.349   3.455  1.3587  0.7342  1.2685
   49CHL1   H4B 3559   4.191   3.184   3.432  0.0572 -1.2047  1.2572
   49CHL1    C5 3560   4.203   3.248   3.635  0.0430  0.0576  0.7004
   49CHL1    C6 3561   4.159   3.128   3.677  0.5999 -0.7776  0.4165
   49CHL1    H6 3562   4.124   3.051   3.607  1.2525 -1.8016  1.1667
   49CHL1    C7 3563   4.146   3.087   3.817  0.0201 -0.1666  0.5698
   49CHL1   H7A 3564   4.046   3.042   3.834  0.0343 -1.0661 -1.4169
   49CHL1   H7B 3565   4.217   3.005   3.841 -1.2903 -2.0879 -1.6270
   49CHL1    C8 3566   4.164   3.204   3.914 -0.3360 -0.6391  0.1709
   49CHL1    H8 3567   4.069   3.260   3.919 -0.3886 -0.8440  1.7381
   49CHL1   C14 3568   4.199   3.138   4.051  0.3238 -0.1711  0.2337
   49CHL1   H14 3569   4.298   3.094   4.027  0.0605 -0.9261  0.4998
   49CHL1   C15 3570   4.105   3.033   4.111 -0.9470  0.2929  0.6565
   49CHL1  H15A 3571   4.006   3.084   4.120 -1.9282 -1.0324 -1.8188
   49CHL1  H15B 3572   4.086   2.948   4.043 -2.6610  1.0115  0.1785
   49CHL1   C16 3573   4.170   3.001   4.240  0.3530  0.3621 -0.2703
   49CHL1  H16A 3574   4.092   2.987   4.318  0.4171  0.0162 -0.2650
   49CHL1  H16B 3575   4.237   2.912   4.244 -1.0746 -0.7163  0.9079
   49CHL1   C17 3576   4.262   3.125   4.271 -0.1822  0.2405 -0.7560
   49CHL1   H17 3577   4.366   3.096   4.245 -0.3797  1.0912 -2.6503
   49CHL1   C13 3578   4.238   3.231   4.160 -0.8109 -0.5272  0.0806
   49CHL1   C18 3579   4.114   3.308   4.201 -0.2169  0.8886 -0.7856
   49CHL1  H18A 3580   4.075   3.360   4.111 -0.3889  2.1428 -0.0167
   49CHL1  H18B 3581   4.035   3.255   4.258 -0.8521  0.4380 -2.0477
   49CHL1  H18C 3582   4.144   3.399   4.257  2.8986 -0.2772 -0.3839
   49CHL1   C12 3583   4.355   3.331   4.116 -0.0976  0.2784 -0.0599
   49CHL1  H12A 3584   4.377   3.407   4.195 -1.1983  1.4535 -0.8446
   49CHL1  H12B 3585   4.449   3.277   4.090 -0.2629 -0.8521  1.5282
   49CHL1   C11 3586   4.316   3.404   3.988  0.3902 -0.0734 -0.1926
   49CHL1  H11A 3587   4.230   3.474   3.995  0.5410 -0.0421  1.6283
   49CHL1  H11B 3588   4.401   3.462   3.944  0.9489 -1.0447 -0.4323
   49CHL1    C9 3589   4.279   3.298   3.876 -0.9669  0.4932 -0.4042
   49CHL1    H9 3590   4.372   3.237   3.867 -1.2143 -0.1634  1.0780
   49CHL1   C10 3591   4.250   3.349   3.729  0.6119 -0.3252 -0.2035
   49CHL1   C19 3592   4.131   3.454   3.738  0.1734  0.2006  0.7441
   49CHL1  H19A 3593   4.036   3.398   3.746 -0.9305  1.4859 -2.0663
   49CHL1  H19B 3594   4.141   3.532   3.817  0.7074  1.1651 -0.2484
   49CHL1  H19C 3595   4.126   3.518   3.648 -1.4871 -0.8814  0.0145
   49CHL1    C1 3596   4.383   3.417   3.684 -0.1818  0.3739 -0.6700
   49CHL1   H1A 3597   4.399   3.515   3.733  0.6397 -0.5798  1.0710
   49CHL1   H1B 3598   4.472   3.358   3.715 -0.2241  0.3280 -0.6371
   49CHL1    C2 3599   4.398   3.442   3.538 -0.2529 -0.5200 -0.7948
   49CHL1   H2A 3600   4.501   3.479   3.516 -0.4923  0.3064 -0.5629
   49CHL1   H2B 3601   4.329   3.516   3.493  0.1626  0.2155 -0.2464
   49CHL1   C20 3602   4.261   3.155   4.427 -0.0936  0.2025 -0.4524
   49CHL1   H20 3603   4.160   3.192   4.455 -0.9921 -0.3676 -2.7073
   49CHL1   C21 3604   4.352   3.288   4.455 -0.2054  0.2627 -0.0290
   49CHL1  H21A 3605   4.451   3.261   4.412 -0.2533 -0.2646  0.1806
   49CHL1  H21B 3606   4.344   3.303   4.565  0.5778  0.3899  0.0191
   49CHL1  H21C 3607   4.304   3.376   4.408  2.2942  1.9074  0.3189
   49CHL1   C22 3608   4.302   3.037   4.520 -0.3478 -0.6527 -0.4641
   49CHL1  H22A 3609   4.222   2.962   4.504 -1.4122  0.9606 -3.3166
   49CHL1  H22B 3610   4.402   2.993   4.499  0.1919  0.2756  0.0357
   49CHL1   C23 3611   4.289   3.073   4.665  0.2611 -0.2450  0.1469
   49CHL1  H23A 3612   4.369   3.142   4.699  0.3370  0.0812 -0.6547
   49CHL1  H23B 3613   4.198   3.136   4.674  0.5150  0.0678  0.5452
   49CHL1   C24 3614   4.274   2.941   4.753  0.4146  0.3836  0.2249
   49CHL1  H24A 3615   4.178   2.895   4.720 -1.8326  2.3253  3.4067
   49CHL1  H24B 3616   4.359   2.871   4.744  0.0010  0.0797 -1.8054
   49CHL1   C25 3617   4.263   2.976   4.908 -0.5556  0.2607  0.0577
   49CHL1   H25 3618   4.191   3.060   4.915  1.2074  1.9616 -1.2609
   49CHL1   C26 3619   4.211   2.850   4.983  0.1734  0.1008 -0.2048
   49CHL1  H26A 3620   4.297   2.779   4.980  1.7972  1.9394  0.5224
   49CHL1  H26B 3621   4.201   2.869   5.092 -1.1744  0.0940 -0.3126
   49CHL1  H26C 3622   4.119   2.803   4.941 -0.4220  1.1974 -0.1521
   49CHL1   C27 3623   4.399   3.027   4.967 -0.6081 -0.4446  0.1964
   49CHL1  H27A 3624   4.377   3.060   5.072 -2.3234 -0.5022 -0.1122
   49CHL1  H27B 3625   4.475   2.948   4.978 -0.5571 -0.5880 -1.0854
   49CHL1  H27C 3626   4.437   3.113   4.908 -2.1311  0.7119  0.7935
   50CHL1    C3 3627   1.805   3.563   2.921 -0.2250  0.3957 -0.7231
   50CHL1    H3 3628   1.902   3.603   2.955  0.2516 -0.7166 -0.7385
   50CHL1    O3 3629   1.801   3.510   2.794 -0.5744 -0.3629 -0.8701
   50CHL1   H3' 3630   1.892   3.484   2.778 -0.2170  0.9060 -0.9947
   50CHL1    C4 3631   1.766   3.446   3.023  0.0070 -0.1686 -0.4396
   50CHL1   H4A 3632   1.668   3.396   3.011  0.0248 -0.5445  0.8515
   50CHL1   H4B 3633   1.843   3.367   3.013  0.1074 -0.0583 -0.5435
   50CHL1    C5 3634   1.770   3.507   3.161  0.7036  0.0118 -0.9555
   50CHL1    C6 3635   1.846   3.443   3.252 -0.5787 -0.2599  0.3096
   50CHL1    H6 3636   1.906   3.355   3.225  0.3406  1.0414 -2.2261
   50CHL1    C7 3637   1.843   3.485   3.400 -0.3161  0.7489 -0.0731
   50CHL1   H7A 3638   1.826   3.394   3.460  0.3522  1.0810  0.6441
   50CHL1   H7B 3639   1.939   3.536   3.425 -0.0973  1.0042 -1.3197
   50CHL1    C8 3640   1.729   3.580   3.431 -0.5371  0.0634  1.1611
   50CHL1    H8 3641   1.633   3.525   3.426  0.0781 -0.9214 -1.0743
   50CHL1   C14 3642   1.743   3.640   3.574  0.4277 -0.6307  0.2221
   50CHL1   H14 3643   1.847   3.679   3.584  0.3969 -0.4407 -0.1744
   50CHL1   C15 3644   1.729   3.530   3.679  0.2975 -0.5491  0.2483
   50CHL1  H15A 3645   1.644   3.468   3.644 -0.7550  1.2597 -0.5570
   50CHL1  H15B 3646   1.822   3.470   3.679  1.9558  1.8840 -0.4374
   50CHL1   C16 3647   1.702   3.614   3.809 -0.2639  0.0587  0.3110
   50CHL1  H16A 3648   1.613   3.570   3.858 -0.5337 -1.6287 -1.5779
   50CHL1  H16B 3649   1.792   3.605   3.874  0.5374  2.4111 -0.3579
   50CHL1   C17 3650   1.691   3.765   3.762 -0.5316 -0.1200 -0.0108
   50CHL1   H17 3651   1.794   3.808   3.764 -0.2488 -0.7739 -0.3122
   50CHL1   C13 3652   1.652   3.749   3.618  0.8677 -0.1419 -0.6763
   50CHL1   C18 3653   1.504   3.697   3.604  1.8433 -0.2890 -0.1695
   50CHL1  H18A 3654   1.466   3.630   3.685  4.4292 -0.8555  0.6554
   50CHL1  H18B 3655   1.434   3.784   3.600 -0.3143 -1.9597 -0.5469
   50CHL1  H18C 3656   1.486   3.645   3.507  1.9518  1.2465 -1.0452
   50CHL1   C12 3657   1.682   3.860   3.519 -0.4845 -0.1506  0.0330
   50CHL1  H12A 3658   1.628   3.956   3.530 -0.8844 -0.1230 -1.8100
   50CHL1  H12B 3659   1.792   3.880   3.521 -0.8061  1.7954  0.0815
   50CHL1   C11 3660   1.645   3.816   3.370 -0.3958 -1.2026  0.2817
   50CHL1  H11A 3661   1.535   3.814   3.358 -0.1688  1.2490 -4.0997
   50CHL1  H11B 3662   1.676   3.902   3.308  0.1606 -1.1232  0.6622
   50CHL1    C9 3663   1.717   3.690   3.320 -0.6118 -0.7488 -0.4325
   50CHL1    H9 3664   1.820   3.728   3.300 -1.1537  1.5156  0.7742
   50CHL1   C10 3665   1.679   3.627   3.185 -0.1303  0.1668  0.0279
   50CHL1   C19 3666   1.524   3.596   3.181 -0.1530 -0.0606 -0.1299
   50CHL1  H19A 3667   1.492   3.554   3.083  1.2193  0.7954 -0.9850
   50CHL1  H19B 3668   1.507   3.523   3.263 -0.9205 -0.0332 -0.2614
   50CHL1  H19C 3669   1.458   3.683   3.197 -0.7383 -0.6921  1.0134
   50CHL1    C1 3670   1.711   3.734   3.075 -0.1892 -0.7918  0.2678
   50CHL1   H1A 3671   1.637   3.817   3.075  2.9103  2.1803  0.7628
   50CHL1   H1B 3672   1.807   3.786   3.095 -0.5065  0.2927 -0.9291
   50CHL1    C2 3673   1.713   3.684   2.928  0.0025 -0.8378  0.0320
   50CHL1   H2A 3674   1.747   3.764   2.858 -2.5481  1.3022  1.0477
   50CHL1   H2B 3675   1.612   3.657   2.890 -0.6715  0.2808  0.9617
   50CHL1   C20 3676   1.605   3.841   3.862  0.0939  0.4424  0.5117
   50CHL1   H20 3677   1.516   3.776   3.878 -0.6182 -0.2943 -4.6197
   50CHL1   C21 3678   1.544   3.968   3.801 -0.0812  0.0199  0.6569
   50CHL1  H21A 3679   1.625   4.037   3.770 -0.9050  0.8359  0.2507
   50CHL1  H21B 3680   1.489   4.018   3.883  1.7617 -1.1486  2.7026
   50CHL1  H21C 3681   1.476   3.957   3.713 -0.2377 -1.9167  0.9772
   50CHL1   C22 3682   1.686   3.870   3.989  0.3228  0.0365  0.4765
   50CHL1  H22A 3683   1.761   3.794   4.018  0.3140  0.0250  0.4691
   50CHL1  H22B 3684   1.739   3.968   3.981  2.6567 -1.0146  1.8187
   50CHL1   C23 3685   1.606   3.903   4.114 -0.0431  0.4680 -0.0132
   50CHL1  H23A 3686   1.525   3.974   4.090  0.1067  0.3282 -1.0018
   50CHL1  H23B 3687   1.542   3.818   4.146  1.3684  0.0588  1.8690
   50CHL1   C24 3688   1.688   3.951   4.237 -0.4588  0.4687  0.5416
   50CHL1  H24A 3689   1.758   3.872   4.272  0.4365  1.5370  1.2400
   50CHL1  H24B 3690   1.752   4.039   4.212  0.0803  0.1160  0.6534
   50CHL1   C25 3691   1.608   3.997   4.363 -0.5334 -0.7642 -0.0087
   50CHL1   H25 3692   1.504   4.028   4.340 -1.3242 -2.9724  0.3415
   50CHL1   C26 3693   1.596   3.876   4.457 -0.0144  0.1288 -0.5034
   50CHL1  H26A 3694   1.554   3.782   4.416 -2.2440  1.9095 -2.6178
   50CHL1  H26B 3695   1.697   3.850   4.497  0.1035  1.1522 -0.1049
   50CHL1  H26C 3696   1.553   3.916   4.551  0.3585 -3.2168  1.2510
   50CHL1   C27 3697   1.683   4.123   4.423  0.7103  0.3696  0.4953
   50CHL1  H27A 3698   1.776   4.090   4.474 -0.5197 -1.7184  1.5161
   50CHL1  H27B 3699   1.709   4.207   4.354  0.7804  1.5736  1.9317
   50CHL1  H27C 3700   1.615   4.159   4.504  1.0847  1.7012  0.2450
   51CHL1    C3 3701   4.449   2.841   3.361 -0.2109 -0.7822  0.7606
   51CHL1    H3 3702   4.347   2.864   3.401  1.1168  2.8766  2.5125
   51CHL1    O3 3703   4.463   2.866   3.218  0.0279  0.0507 -0.9486
   51CHL1   H3' 3704   4.550   2.907   3.209  0.8706 -0.4621  3.0665
   51CHL1    C4 3705   4.558   2.935   3.433 -0.6419 -0.0649 -1.1970
   51CHL1   H4A 3706   4.658   2.921   3.388 -0.4143 -1.5991 -0.2822
   51CHL1   H4B 3707   4.523   3.038   3.411 -0.6967 -0.3691 -2.6398
   51CHL1    C5 3708   4.551   2.907   3.585 -0.7869 -0.8375  0.1435
   51CHL1    C6 3709   4.535   3.002   3.683 -0.4147  0.0392 -0.3981
   51CHL1    H6 3710   4.520   3.106   3.651  2.6281  0.4365 -0.8508
   51CHL1    C7 3711   4.539   2.970   3.828  0.5819 -0.2202  0.4766
   51CHL1   H7A 3712   4.610   3.043   3.872 -0.7349  1.3346  0.1219
   51CHL1   H7B 3713   4.438   2.995   3.868  2.0664  1.8992  3.3354
   51CHL1    C8 3714   4.584   2.830   3.858 -0.0906  0.6741 -0.5230
   51CHL1    H8 3715   4.695   2.829   3.857 -0.0089 -1.1525  1.4267
   51CHL1   C14 3716   4.541   2.803   4.008 -0.0476  0.3980  0.2737
   51CHL1   H14 3717   4.431   2.792   4.011  0.1764 -4.4409  0.0321
   51CHL1   C15 3718   4.588   2.896   4.122 -0.2987 -0.1616  0.2861
   51CHL1  H15A 3719   4.698   2.913   4.115 -0.4427  0.9821  0.5804
   51CHL1  H15B 3720   4.542   2.994   4.096  1.1867  0.6408  0.5599
   51CHL1   C16 3721   4.550   2.818   4.246 -0.0992  0.1756 -1.2622
   51CHL1  H16A 3722   4.633   2.824   4.320 -0.6989 -0.9270 -0.4594
   51CHL1  H16B 3723   4.465   2.870   4.295 -0.6259 -0.2365 -1.7357
   51CHL1   C17 3724   4.523   2.667   4.207  0.8681 -0.3746 -0.1247
   51CHL1   H17 3725   4.412   2.659   4.209  0.7536  0.6270 -1.1140
   51CHL1   C13 3726   4.584   2.661   4.065 -0.3228  0.8048 -0.4548
   51CHL1   C18 3727   4.735   2.636   4.068 -0.6352 -0.0906 -0.0688
   51CHL1  H18A 3728   4.774   2.649   3.965 -0.1369 -1.4389 -0.0782
   51CHL1  H18B 3729   4.794   2.702   4.135 -1.5931  0.4282  0.2845
   51CHL1  H18C 3730   4.757   2.531   4.099  0.0564 -0.0152 -0.2883
   51CHL1   C12 3731   4.525   2.557   3.968 -0.3140  0.4582  0.1269
   51CHL1  H12A 3732   4.565   2.454   3.985  1.2113  0.7114 -1.5845
   51CHL1  H12B 3733   4.415   2.570   3.969 -0.0248  3.6863  0.1773
   51CHL1   C11 3734   4.561   2.583   3.816  0.4069  0.5276  0.4742
   51CHL1  H11A 3735   4.670   2.565   3.811  0.3776  0.5294 -0.3458
   51CHL1  H11B 3736   4.516   2.502   3.754 -1.0074  2.2871 -0.9120
   51CHL1    C9 3737   4.527   2.724   3.765 -0.3420 -0.2440 -1.4810
   51CHL1    H9 3738   4.417   2.736   3.774 -0.2429 -0.6773  1.5876
   51CHL1   C10 3739   4.567   2.759   3.624  0.3191  0.1631  0.6206
   51CHL1   C19 3740   4.712   2.701   3.595 -0.0741  0.0057  0.1167
   51CHL1  H19A 3741   4.700   2.591   3.586 -0.8887  0.0267  0.8365
   51CHL1  H19B 3742   4.754   2.752   3.505  1.5852 -0.7729  0.4070
   51CHL1  H19C 3743   4.786   2.723   3.675  0.9339  1.2226 -1.0988
   51CHL1    C1 3744   4.471   2.672   3.533 -0.2942  0.4962  0.4492
   51CHL1   H1A 3745   4.500   2.566   3.553 -0.0853  1.0534  3.7824
   51CHL1   H1B 3746   4.368   2.677   3.574 -1.4314 -2.8609 -1.6069
   51CHL1    C2 3747   4.477   2.695   3.384 -0.2835 -0.0408 -0.2600
   51CHL1   H2A 3748   4.391   2.641   3.338 -1.6632  0.7219  1.3502
   51CHL1   H2B 3749   4.573   2.657   3.344 -1.0419 -1.9666 -0.3762
   51CHL1   C20 3750   4.573   2.559   4.304 -0.3128 -0.1907  0.0662
   51CHL1   H20 3751   4.683   2.561   4.294 -0.0687 -3.3347  0.8657
   51CHL1   C21 3752   4.513   2.425   4.276 -0.4576  0.0567  0.3146
   51CHL1  H21A 3753   4.548   2.345   4.345  1.1016  0.0709 -0.4132
   51CHL1  H21B 3754   4.531   2.383   4.174  1.7927 -1.7447  1.3540
   51CHL1  H21C 3755   4.403   2.440   4.288 -0.4744 -0.4258  0.8197
   51CHL1   C22 3756   4.537   2.596   4.451  0.1756 -0.0935  0.0119
   51CHL1  H22A 3757   4.521   2.705   4.465  1.2468 -0.1488  2.1436
   51CHL1  H22B 3758   4.456   2.536   4.496  1.8167 -0.3288  2.9353
   51CHL1   C23 3759   4.662   2.563   4.540  0.0331 -0.4370 -0.1833
   51CHL1  H23A 3760   4.691   2.458   4.519  0.8143 -0.4459  0.8510
   51CHL1  H23B 3761   4.744   2.625   4.498  0.3670  0.6582  1.9409
   51CHL1   C24 3762   4.644   2.612   4.693 -0.1161  0.2204 -0.4619
   51CHL1  H24A 3763   4.739   2.592   4.748 -0.5823 -0.1944  0.1913
   51CHL1  H24B 3764   4.624   2.721   4.691 -0.6749  0.1768  1.2427
   51CHL1   C25 3765   4.541   2.529   4.761  0.1180 -0.0088 -0.5862
   51CHL1   H25 3766   4.448   2.545   4.702 -0.5936  1.2166  0.8236
   51CHL1   C26 3767   4.572   2.379   4.765  0.3085 -0.2432  0.3158
   51CHL1  H26A 3768   4.569   2.330   4.665  0.9109 -0.3519  0.3467
   51CHL1  H26B 3769   4.667   2.348   4.813  0.2236 -0.7455  0.1703
   51CHL1  H26C 3770   4.489   2.334   4.823  0.5908 -1.6812 -0.3519
   51CHL1   C27 3771   4.527   2.590   4.907  0.0909 -0.8122  0.6490
   51CHL1  H27A 3772   4.432   2.555   4.952 -0.0543 -1.5140 -0.1705
   51CHL1  H27B 3773   4.618   2.568   4.967  1.0253  2.8972  0.8212
   51CHL1  H27C 3774   4.534   2.700   4.903 -0.6515 -0.7879 -0.3111
   52CHL1    C3 3775   4.210   6.800   2.967 -0.3042 -0.5233  0.5199
   52CHL1    H3 3776   4.123   6.822   3.033  0.8279  1.2207  1.5179
   52CHL1    O3 3777   4.172   6.821   2.826  0.4060  0.2134  0.3134
   52CHL1   H3' 3778   4.132   6.908   2.824  1.1232  0.5383 -0.6996
   52CHL1    C4 3779   4.322   6.905   2.999  0.2921  0.3760 -0.0402
   52CHL1   H4A 3780   4.411   6.894   2.932 -0.4146 -0.1582 -0.9160
   52CHL1   H4B 3781   4.265   6.997   2.973 -0.6299 -0.1344  0.1629
   52CHL1    C5 3782   4.362   6.888   3.144 -0.3274  0.2084 -0.0688
   52CHL1    C6 3783   4.352   6.996   3.222 -0.5859  0.0195 -0.2167
   52CHL1    H6 3784   4.315   7.088   3.174  1.8215  0.4697 -1.3622
   52CHL1    C7 3785   4.386   6.996   3.364 -0.1928 -0.5178 -0.5200
   52CHL1   H7A 3786   4.437   7.086   3.405 -0.8670 -1.3573  2.3434
   52CHL1   H7B 3787   4.291   6.978   3.419 -0.7820 -0.3756 -1.4624
   52CHL1    C8 3788   4.479   6.886   3.401 -0.2224 -0.3844  0.7962
   52CHL1    H8 3789   4.578   6.915   3.361 -0.3670 -1.2941 -0.2705
   52CHL1   C14 3790   4.497   6.877   3.557 -0.2247  0.1781 -0.0423
   52CHL1   H14 3791   4.392   6.856   3.586 -0.8134  0.5950 -1.7610
   52CHL1   C15 3792   4.535   7.001   3.628  0.4219  0.1300 -0.8616
   52CHL1  H15A 3793   4.622   7.054   3.583  1.8195  1.0533  2.5749
   52CHL1  H15B 3794   4.455   7.078   3.637  0.0162 -0.1749 -1.7735
   52CHL1   C16 3795   4.570   6.956   3.774 -0.1309  0.3042  0.8812
   52CHL1  H16A 3796   4.667   7.000   3.807  1.1009  0.3560 -2.3889
   52CHL1  H16B 3797   4.486   6.987   3.840 -1.4666 -0.3602 -0.4398
   52CHL1   C17 3798   4.567   6.796   3.775 -0.0801  0.5952 -0.5890
   52CHL1   H17 3799   4.466   6.777   3.817 -0.2527  2.5876  0.0316
   52CHL1   C13 3800   4.582   6.763   3.617  0.6441 -0.2678 -0.0373
   52CHL1   C18 3801   4.730   6.782   3.571  0.5176  0.7849 -0.0194
   52CHL1  H18A 3802   4.729   6.796   3.460 -1.1924 -0.3937 -0.1937
   52CHL1  H18B 3803   4.787   6.869   3.609  1.9456 -0.0441 -0.1834
   52CHL1  H18C 3804   4.788   6.688   3.583  1.7272  1.4055 -0.7540
   52CHL1   C12 3805   4.514   6.639   3.559 -0.0545  0.0349  0.0841
   52CHL1  H12A 3806   4.569   6.550   3.598 -0.6442  0.7335  2.7106
   52CHL1  H12B 3807   4.416   6.614   3.604 -0.0441 -0.0217  0.0764
   52CHL1   C11 3808   4.517   6.635   3.402  0.2063 -0.7157 -0.0464
   52CHL1  H11A 3809   4.619   6.633   3.358  0.3263  0.1084  0.1715
   52CHL1  H11B 3810   4.477   6.541   3.358  2.4123 -1.2565 -1.0415
   52CHL1    C9 3811   4.441   6.755   3.343 -0.4741 -0.3477  0.6570
   52CHL1    H9 3812   4.338   6.746   3.385 -0.1221  0.8850  1.8473
   52CHL1   C10 3813   4.419   6.747   3.188  0.4724  0.4807  0.4936
   52CHL1   C19 3814   4.554   6.740   3.115 -0.2410 -0.2297  0.4858
   52CHL1  H19A 3815   4.538   6.709   3.010  2.2131  1.4948 -0.5063
   52CHL1  H19B 3816   4.616   6.833   3.121 -0.5389  0.0801 -0.8677
   52CHL1  H19C 3817   4.620   6.662   3.159  0.3134 -0.3652 -0.5445
   52CHL1    C1 3818   4.322   6.640   3.136 -0.3165  0.2661  0.2623
   52CHL1   H1A 3819   4.363   6.537   3.134 -1.3738 -0.2295 -3.2671
   52CHL1   H1B 3820   4.224   6.632   3.189 -1.1392  2.3471 -0.8170
   52CHL1    C2 3821   4.269   6.661   2.994  0.3600  0.5615 -0.8913
   52CHL1   H2A 3822   4.196   6.582   2.966 -0.9460  1.0614  0.9585
   52CHL1   H2B 3823   4.359   6.658   2.928 -0.7325  0.9518 -2.4440
   52CHL1   C20 3824   4.665   6.723   3.874  0.1530 -0.0803 -0.2966
   52CHL1   H20 3825   4.768   6.726   3.831  0.3762 -1.8240  0.0556
   52CHL1   C21 3826   4.612   6.580   3.894 -0.4735  0.9268 -0.3683
   52CHL1  H21A 3827   4.661   6.535   3.983 -2.4732 -0.3096  0.1748
   52CHL1  H21B 3828   4.623   6.508   3.810 -2.8311  1.4987 -1.2349
   52CHL1  H21C 3829   4.504   6.582   3.917 -0.3605  2.0481  0.1021
   52CHL1   C22 3830   4.678   6.790   4.009 -0.0924  0.0725 -0.0812
   52CHL1  H22A 3831   4.750   6.723   4.062 -0.2420 -0.7264 -0.8652
   52CHL1  H22B 3832   4.708   6.897   4.009 -1.9896  0.6348  0.0367
   52CHL1   C23 3833   4.545   6.785   4.096 -0.1246  0.4237 -0.0647
   52CHL1  H23A 3834   4.461   6.814   4.028  0.3419  0.9403 -0.4256
   52CHL1  H23B 3835   4.535   6.681   4.134 -0.4143  0.0234 -1.1812
   52CHL1   C24 3836   4.552   6.882   4.218 -0.5266 -0.8913 -0.6229
   52CHL1  H24A 3837   4.637   6.847   4.280  0.5413 -0.4784 -1.8068
   52CHL1  H24B 3838   4.569   6.986   4.182 -0.8628 -0.2026  1.0840
   52CHL1   C25 3839   4.425   6.890   4.300 -0.5936  0.2090  0.5167
   52CHL1   H25 3840   4.335   6.888   4.235 -0.2608 -1.1614  0.0610
   52CHL1   C26 3841   4.409   6.776   4.401 -0.5728 -0.7275  0.7673
   52CHL1  H26A 3842   4.417   6.677   4.351 -0.2966 -1.0396  1.4142
   52CHL1  H26B 3843   4.487   6.774   4.480  0.9242  3.0217 -0.4339
   52CHL1  H26C 3844   4.305   6.782   4.442 -1.1483  0.0994 -0.7467
   52CHL1   C27 3845   4.420   7.016   4.384 -0.1470 -0.7736 -0.4712
   52CHL1  H27A 3846   4.329   7.030   4.446  1.3996  0.3072  1.7019
   52CHL1  H27B 3847   4.502   7.011   4.458 -0.4607  0.9481  0.0316
   52CHL1  H27C 3848   4.423   7.108   4.321  0.1889  1.6758  2.8410
   53CHL1    C3 3849   5.806   3.801   3.629  0.0205 -0.7160 -0.6543
   53CHL1    H3 3850   5.803   3.694   3.599 -1.0977 -0.5706 -1.0930
   53CHL1    O3 3851   5.798   3.880   3.510 -0.0016  0.0140  0.5755
   53CHL1   H3' 3852   5.883   3.862   3.469 -0.6761 -0.4525 -0.6450
   53CHL1    C4 3853   5.692   3.819   3.733  0.2580  0.0275 -0.2153
   53CHL1   H4A 3854   5.673   3.925   3.760  0.4593 -0.0906  0.4114
   53CHL1   H4B 3855   5.598   3.793   3.680 -1.1933  3.1792  0.5663
   53CHL1    C5 3856   5.712   3.750   3.868 -0.4779  0.0930 -0.1692
   53CHL1    C6 3857   5.618   3.666   3.916 -0.6864  0.5484  0.2207
   53CHL1    H6 3858   5.533   3.660   3.848 -0.6431 -0.4838  0.2455
   53CHL1    C7 3859   5.617   3.595   4.049  0.5499 -0.0153  0.0668
   53CHL1   H7A 3860   5.528   3.640   4.098  0.1803  0.4427 -1.0081
   53CHL1   H7B 3861   5.615   3.485   4.036 -1.4649 -0.1593  1.2258
   53CHL1    C8 3862   5.742   3.637   4.130 -0.3318 -0.4460 -0.0651
   53CHL1    H8 3863   5.707   3.734   4.172 -1.6670 -1.2989  0.8464
   53CHL1   C14 3864   5.777   3.531   4.244  0.0058 -0.3465 -0.3929
   53CHL1   H14 3865   5.795   3.438   4.187 -1.2611 -1.0246  0.2648
   53CHL1   C15 3866   5.656   3.495   4.335  0.4356  0.4450  0.1338
   53CHL1  H15A 3867   5.619   3.596   4.360  2.6271  1.4501 -0.4194
   53CHL1  H15B 3868   5.586   3.433   4.275  0.8263 -0.7742  0.8871
   53CHL1   C16 3869   5.726   3.419   4.450  0.2313  0.2606  0.6292
   53CHL1  H16A 3870   5.685   3.462   4.544 -0.9279 -0.3387  0.4102
   53CHL1  H16B 3871   5.700   3.311   4.445  2.5120 -0.2615 -2.4258
   53CHL1   C17 3872   5.882   3.438   4.432  0.3913  0.4193  0.2786
   53CHL1   H17 3873   5.916   3.350   4.374  2.3967  2.2610 -1.5378
   53CHL1   C13 3874   5.891   3.560   4.340  0.0391  0.4601  0.1258
   53CHL1   C18 3875   5.859   3.689   4.429  0.2727  0.5760 -0.1804
   53CHL1  H18A 3876   5.951   3.729   4.477  0.0820  2.8577 -1.5961
   53CHL1  H18B 3877   5.836   3.781   4.372 -1.3205 -0.1701 -0.8047
   53CHL1  H18C 3878   5.793   3.650   4.509  1.0844 -2.6504 -0.9285
   53CHL1   C12 3879   6.018   3.573   4.249 -0.1012 -0.5647  0.5296
   53CHL1  H12A 3880   6.111   3.613   4.295 -0.5879  1.1359  0.1130
   53CHL1  H12B 3881   6.054   3.480   4.199  0.4261  0.9898 -2.1961
   53CHL1   C11 3882   5.999   3.676   4.141  0.2741 -0.3169  0.3009
   53CHL1  H11A 3883   6.008   3.773   4.194 -1.4393  0.6969 -1.1380
   53CHL1  H11B 3884   6.084   3.671   4.069 -2.4040  0.4344 -3.2277
   53CHL1    C9 3885   5.866   3.656   4.050  0.0175 -0.9365  0.7222
   53CHL1    H9 3886   5.878   3.554   4.007 -0.2376 -0.9564  0.7006
   53CHL1   C10 3887   5.847   3.766   3.939 -0.8658  0.4871 -0.4564
   53CHL1   C19 3888   5.851   3.911   4.005  0.4885 -0.0180 -0.3687
   53CHL1  H19A 3889   5.958   3.939   4.016  0.2936  1.1260 -1.1432
   53CHL1  H19B 3890   5.808   3.985   3.934  0.2515  2.3642  2.1218
   53CHL1  H19C 3891   5.801   3.919   4.104  0.5334 -1.1426 -0.2399
   53CHL1    C1 3892   5.961   3.759   3.834 -0.3544  0.7578  0.3480
   53CHL1   H1A 3893   6.055   3.803   3.875 -1.0870  1.8378  0.8997
   53CHL1   H1B 3894   5.983   3.652   3.816 -1.9225  0.7770 -2.1064
   53CHL1    C2 3895   5.946   3.838   3.696 -0.2868 -0.2835  0.4315
   53CHL1   H2A 3896   6.020   3.821   3.615 -1.4314 -1.1347 -0.4817
   53CHL1   H2B 3897   5.936   3.948   3.708  2.0013 -0.1008  1.0372
   53CHL1   C20 3898   5.972   3.440   4.557  1.1379 -0.1647 -0.5394
   53CHL1   H20 3899   5.963   3.539   4.606  0.3783 -1.6180  2.5230
   53CHL1   C21 3900   6.117   3.415   4.511 -0.8057  0.0894  0.1438
   53CHL1  H21A 3901   6.164   3.327   4.560 -0.0271  1.3158  1.6704
   53CHL1  H21B 3902   6.182   3.503   4.532  0.4734 -0.7166 -0.3234
   53CHL1  H21C 3903   6.119   3.398   4.401 -2.4257  0.5876  0.0173
   53CHL1   C22 3904   5.938   3.314   4.645  0.2542 -0.8183  0.2098
   53CHL1  H22A 3905   5.829   3.318   4.666  0.3586  0.5085  0.5871
   53CHL1  H22B 3906   5.960   3.224   4.583 -2.7781 -0.2149 -1.9969
   53CHL1   C23 3907   6.007   3.300   4.779 -0.5574 -0.7701  0.3469
   53CHL1  H23A 3908   6.118   3.298   4.769 -0.4535  1.9310  0.2621
   53CHL1  H23B 3909   5.992   3.397   4.831  1.8855  0.0475 -0.3583
   53CHL1   C24 3910   5.976   3.172   4.846  0.1067 -0.1635  0.1242
   53CHL1  H24A 3911   5.866   3.164   4.857 -0.0272  0.3265 -0.7584
   53CHL1  H24B 3912   6.017   3.096   4.776  0.7699 -0.3991  0.7607
   53CHL1   C25 3913   6.024   3.160   4.990  0.0454 -0.2444  0.3356
   53CHL1   H25 3914   6.011   3.052   5.012 -1.3411 -0.5059 -1.5263
   53CHL1   C26 3915   6.183   3.168   5.000  0.0455 -0.1463 -0.8013
   53CHL1  H26A 3916   6.195   3.122   5.101 -1.8667 -0.4525 -0.6809
   53CHL1  H26B 3917   6.232   3.118   4.914  1.8084  2.2374 -1.2923
   53CHL1  H26C 3918   6.221   3.271   5.017  0.5155 -0.4819  0.3278
   53CHL1   C27 3919   5.953   3.247   5.089  0.0488 -0.2585 -0.0951
   53CHL1  H27A 3920   5.956   3.350   5.046 -0.0113  0.2020  0.9763
   53CHL1  H27B 3921   5.850   3.209   5.103 -0.7925  2.0178  0.2359
   53CHL1  H27C 3922   6.007   3.238   5.186 -1.0646  0.6593  0.6307
   54CHL1    C3 3923   4.717   4.250   3.376  1.0389 -0.2104 -0.0681
   54CHL1    H3 3924   4.632   4.180   3.366 -0.8291  2.1534 -2.0494
   54CHL1    O3 3925   4.731   4.301   3.244 -0.4934  0.6052 -0.1871
   54CHL1   H3' 3926   4.811   4.354   3.245  1.1722 -1.7192  1.6277
   54CHL1    C4 3927   4.679   4.369   3.471  0.1809 -0.3832  0.6417
   54CHL1   H4A 3928   4.760   4.443   3.455  1.1675 -2.0485 -3.3822
   54CHL1   H4B 3929   4.582   4.414   3.439  0.5713  1.5763  2.0576
   54CHL1    C5 3930   4.668   4.334   3.618  0.3014  0.6109 -0.2640
   54CHL1    C6 3931   4.556   4.341   3.696 -0.2668 -0.7095 -0.1411
   54CHL1    H6 3932   4.465   4.392   3.662 -0.8696 -0.5704  1.5903
   54CHL1    C7 3933   4.549   4.286   3.839 -0.9109 -0.0130  0.0586
   54CHL1   H7A 3934   4.499   4.355   3.910  1.1575 -1.8445  3.6122
   54CHL1   H7B 3935   4.497   4.188   3.835 -1.8068  0.4962 -1.4833
   54CHL1    C8 3936   4.683   4.264   3.911 -0.4251  0.0373  0.1878
   54CHL1    H8 3937   4.736   4.357   3.940 -0.2763 -0.5687  1.9520
   54CHL1   C14 3938   4.662   4.190   4.035  0.3510  0.7152 -0.0559
   54CHL1   H14 3939   4.642   4.085   4.007 -0.5216  0.6069  0.8901
   54CHL1   C15 3940   4.551   4.229   4.131 -0.1583 -0.3171  0.5181
   54CHL1  H15A 3941   4.550   4.338   4.153 -2.3338 -0.2584  0.3807
   54CHL1  H15B 3942   4.454   4.207   4.081  0.4726  1.4544 -1.6253
   54CHL1   C16 3943   4.578   4.148   4.256  0.5073 -0.4295 -0.2889
   54CHL1  H16A 3944   4.569   4.215   4.344 -0.7978  0.8605 -1.3495
   54CHL1  H16B 3945   4.516   4.057   4.272  1.0208 -1.0620 -1.7498
   54CHL1   C17 3946   4.731   4.102   4.248 -0.6408  0.0517  0.6637
   54CHL1   H17 3947   4.729   3.994   4.222 -0.3342 -0.2071  1.6581
   54CHL1   C13 3948   4.790   4.178   4.127  0.5510 -0.0112  0.2469
   54CHL1   C18 3949   4.836   4.314   4.173  0.8296  0.1829  0.7821
   54CHL1  H18A 3950   4.865   4.381   4.089 -2.0512  1.0573  0.3677
   54CHL1  H18B 3951   4.763   4.360   4.242  0.9384  0.2973  0.8221
   54CHL1  H18C 3952   4.928   4.297   4.233  2.1165  1.6805 -0.6359
   54CHL1   C12 3953   4.896   4.103   4.041  0.5560 -0.0020 -0.1484
   54CHL1  H12A 3954   4.994   4.087   4.092  0.6029 -0.1780 -0.2900
   54CHL1  H12B 3955   4.854   4.001   4.031  0.5360 -0.0925  0.7717
   54CHL1   C11 3956   4.915   4.172   3.906 -0.3482  0.1421  0.4150
   54CHL1  H11A 3957   4.956   4.274   3.923  4.4739 -1.3758 -0.4409
   54CHL1  H11B 3958   4.996   4.118   3.853  1.8534  3.1111  0.4932
   54CHL1    C9 3959   4.783   4.190   3.821 -0.4822 -0.3444 -0.1927
   54CHL1    H9 3960   4.736   4.093   3.796 -2.1778 -0.3247  2.4597
   54CHL1   C10 3961   4.803   4.261   3.677 -0.4591  0.2414  0.2482
   54CHL1   C19 3962   4.923   4.364   3.671  0.4194  0.5588 -0.5523
   54CHL1  H19A 3963   5.020   4.310   3.681 -0.6930 -1.2315  1.4535
   54CHL1  H19B 3964   4.925   4.423   3.577 -0.2746  1.3572 -0.0759
   54CHL1  H19C 3965   4.911   4.443   3.748 -0.2512  0.5613 -0.6559
   54CHL1    C1 3966   4.840   4.142   3.579  0.0972  0.5660  0.6402
   54CHL1   H1A 3967   4.939   4.096   3.602 -0.4989 -1.4838 -0.6366
   54CHL1   H1B 3968   4.759   4.066   3.588  0.8069 -0.3193 -0.2048
   54CHL1    C2 3969   4.844   4.175   3.420  0.2272 -0.6369 -1.1539
   54CHL1   H2A 3970   4.849   4.081   3.362  1.2966 -0.9913 -0.5283
   54CHL1   H2B 3971   4.932   4.241   3.400  1.5831 -1.1170  2.4343
   54CHL1   C20 3972   4.804   4.095   4.382  0.1341  0.1534  0.5986
   54CHL1   H20 3973   4.815   4.202   4.412  2.5683  0.3995 -0.9048
   54CHL1   C21 3974   4.954   4.052   4.369 -1.2817 -0.2552  0.2136
   54CHL1  H21A 3975   5.013   4.124   4.308  1.1186 -1.6652  0.7460
   54CHL1  H21B 3976   4.970   3.955   4.319  1.8429 -0.3317  1.1685
   54CHL1  H21C 3977   4.998   4.041   4.471 -2.4533  0.5512  0.8370
   54CHL1   C22 3978   4.730   4.012   4.496  0.3282 -0.2630  0.4140
   54CHL1  H22A 3979   4.648   3.955   4.447  1.8024 -1.3762 -0.8696
   54CHL1  H22B 3980   4.795   3.930   4.533  0.1058 -0.0280  1.3318
   54CHL1   C23 3981   4.673   4.109   4.605  0.5887  0.0409 -1.1411
   54CHL1  H23A 3982   4.758   4.145   4.667  0.2396 -1.4254  0.2762
   54CHL1  H23B 3983   4.632   4.196   4.549  2.6511  0.4555 -2.1003
   54CHL1   C24 3984   4.577   4.031   4.703  0.1626  0.1018 -0.0215
   54CHL1  H24A 3985   4.492   3.987   4.648  0.1308  0.8859 -0.6222
   54CHL1  H24B 3986   4.634   3.956   4.762 -2.0651 -0.5130  1.5057
   54CHL1   C25 3987   4.514   4.113   4.812  0.0068 -0.4109 -0.2111
   54CHL1   H25 3988   4.601   4.163   4.860 -0.5231 -1.2003  1.6523
   54CHL1   C26 3989   4.406   4.209   4.758 -0.0462  0.4706 -0.6444
   54CHL1  H26A 3990   4.350   4.262   4.838 -1.8187 -0.9789 -0.8515
   54CHL1  H26B 3991   4.441   4.287   4.686 -3.0994  2.5608 -0.0757
   54CHL1  H26C 3992   4.335   4.149   4.697 -0.0750  0.1502 -0.2958
   54CHL1   C27 3993   4.451   4.031   4.927  0.3911  0.0758 -0.8860
   54CHL1  H27A 3994   4.353   3.989   4.897  0.7415 -1.6114  0.1820
   54CHL1  H27B 3995   4.517   3.943   4.945  1.6214  1.1838  0.2068
   54CHL1  H27C 3996   4.454   4.097   5.017  0.2988 -2.2289  0.9048
   55CHL1    C3 3997   2.250   4.508   2.991 -0.0778 -0.7587 -0.7731
   55CHL1    H3 3998   2.155   4.564   2.982  0.5341  0.3746 -0.4113
   55CHL1    O3 3999   2.254   4.416   2.884  0.5158  0.7433  0.0496
   55CHL1   H3' 4000   2.337   4.370   2.898  1.2078  1.8406 -0.3043
   55CHL1    C4 4001   2.368   4.605   2.977 -0.5205  0.3215  0.1156
   55CHL1   H4A 4002   2.459   4.545   2.955 -1.5992 -0.2992 -3.1705
   55CHL1   H4B 4003   2.343   4.676   2.896 -0.3817  0.5727  0.2905
   55CHL1    C5 4004   2.384   4.688   3.103 -0.0255 -0.0878 -0.2517
   55CHL1    C6 4005   2.407   4.820   3.098 -0.0688 -0.7155 -0.2401
   55CHL1    H6 4006   2.409   4.857   2.995  2.6409 -0.9599 -0.3488
   55CHL1    C7 4007   2.440   4.916   3.211 -0.3918 -0.2019 -0.8101
   55CHL1   H7A 4008   2.526   4.981   3.184 -0.1694  0.7100  1.8587
   55CHL1   H7B 4009   2.345   4.971   3.230  0.1853  1.0685 -1.5408
   55CHL1    C8 4010   2.470   4.834   3.342 -0.6874  0.2934 -0.3497
   55CHL1    H8 4011   2.574   4.797   3.328 -0.6341  0.0773  0.5530
   55CHL1   C14 4012   2.475   4.922   3.465  0.1547  0.8373 -0.0856
   55CHL1   H14 4013   2.373   4.965   3.469 -0.5981 -0.5239 -2.5896
   55CHL1   C15 4014   2.572   5.038   3.467  0.4937 -0.1203  0.0106
   55CHL1  H15A 4015   2.673   5.014   3.428 -0.6146 -0.5865 -2.7431
   55CHL1  H15B 4016   2.537   5.116   3.396 -0.5937 -1.7821 -1.3400
   55CHL1   C16 4017   2.556   5.090   3.610  0.1652  0.4864 -0.1816
   55CHL1  H16A 4018   2.657   5.109   3.653 -0.2059  0.2210  0.8291
   55CHL1  H16B 4019   2.510   5.191   3.620 -0.3689  0.1400  1.0710
   55CHL1   C17 4020   2.486   4.976   3.697 -0.5970 -0.2438  0.7275
   55CHL1   H17 4021   2.378   4.992   3.715 -0.1485 -0.2366  4.0793
   55CHL1   C13 4022   2.499   4.850   3.603  0.1756 -0.5145  0.0086
   55CHL1   C18 4023   2.642   4.796   3.605 -0.6566 -0.0514  0.2111
   55CHL1  H18A 4024   2.640   4.729   3.694  2.2336 -0.3713  0.1057
   55CHL1  H18B 4025   2.663   4.721   3.526  0.8070  0.3881  0.1729
   55CHL1  H18C 4026   2.721   4.873   3.601 -0.3332 -0.3909  0.0562
   55CHL1   C12 4027   2.382   4.747   3.609 -0.6589 -0.9357  0.2000
   55CHL1  H12A 4028   2.398   4.683   3.699 -1.0376 -0.6726  0.4550
   55CHL1  H12B 4029   2.284   4.798   3.619  0.5753  1.6363 -0.1424
   55CHL1   C11 4030   2.375   4.647   3.493  0.0146 -0.0335 -0.0889
   55CHL1  H11A 4031   2.461   4.578   3.501  0.0019 -0.0215  0.1717
   55CHL1  H11B 4032   2.282   4.587   3.506  0.4384 -0.8131 -0.6193
   55CHL1    C9 4033   2.372   4.717   3.352 -0.3814 -0.7646 -0.1816
   55CHL1    H9 4034   2.276   4.770   3.364  0.3625  0.5893 -0.0182
   55CHL1   C10 4035   2.374   4.616   3.237  1.1482 -0.2347 -0.3180
   55CHL1   C19 4036   2.496   4.521   3.251  0.1909 -1.9377  0.2419
   55CHL1  H19A 4037   2.492   4.457   3.342  1.5103  0.3554  2.0250
   55CHL1  H19B 4038   2.497   4.447   3.169 -0.0583 -1.3119 -0.3345
   55CHL1  H19C 4039   2.591   4.577   3.240  0.5841 -2.9030 -1.6888
   55CHL1    C1 4040   2.238   4.533   3.240  0.1025  0.3868 -0.1049
   55CHL1   H1A 4041   2.235   4.463   3.326  1.8916 -0.1301 -0.3999
   55CHL1   H1B 4042   2.141   4.586   3.238 -1.6942 -2.6225 -0.2708
   55CHL1    C2 4043   2.230   4.429   3.121  0.8092  0.1494 -0.8264
   55CHL1   H2A 4044   2.126   4.392   3.124  1.4560 -1.8558 -1.6669
   55CHL1   H2B 4045   2.305   4.347   3.121 -0.1040 -0.7400  1.0859
   55CHL1   C20 4046   2.556   4.955   3.835  0.6492  0.3523  0.1365
   55CHL1   H20 4047   2.666   4.938   3.832  0.8511  1.2188  1.4235
   55CHL1   C21 4048   2.489   4.839   3.903 -0.7283 -0.3562 -0.1220
   55CHL1  H21A 4049   2.523   4.747   3.851  3.4378  2.4211 -2.8394
   55CHL1  H21B 4050   2.379   4.857   3.908 -0.3433  1.9538  1.1455
   55CHL1  H21C 4051   2.523   4.825   4.008 -0.2500 -0.3219 -0.2702
   55CHL1   C22 4052   2.542   5.089   3.923  0.1456  0.4264 -0.2589
   55CHL1  H22A 4053   2.553   5.182   3.864 -1.0397  0.7037 -0.0550
   55CHL1  H22B 4054   2.440   5.097   3.965 -0.3421  3.1714 -1.7535
   55CHL1   C23 4055   2.640   5.103   4.038 -1.2242 -0.1983  0.0884
   55CHL1  H23A 4056   2.626   5.018   4.108  1.1438  0.3409  1.3107
   55CHL1  H23B 4057   2.743   5.081   4.004 -1.2184 -0.9139  0.5353
   55CHL1   C24 4058   2.628   5.233   4.116  0.8149 -0.4882  0.1552
   55CHL1  H24A 4059   2.521   5.246   4.143  0.9116 -0.2327  0.4196
   55CHL1  H24B 4060   2.687   5.226   4.210  0.1450 -0.5306  0.5752
   55CHL1   C25 4061   2.690   5.353   4.052  0.2020 -0.3866 -0.2313
   55CHL1   H25 4062   2.648   5.376   3.952  2.6204 -0.0192 -1.2446
   55CHL1   C26 4063   2.662   5.477   4.136 -0.2184  0.1536  0.2384
   55CHL1  H26A 4064   2.689   5.455   4.241 -0.5688 -1.1526  0.0807
   55CHL1  H26B 4065   2.721   5.563   4.098 -0.4392  0.9304  1.5948
   55CHL1  H26C 4066   2.560   5.520   4.135  0.3903  1.6854 -0.7190
   55CHL1   C27 4067   2.850   5.351   4.044  0.3281 -0.4175 -0.2524
   55CHL1  H27A 4068   2.896   5.316   4.139  2.1072 -4.0996 -2.2426
   55CHL1  H27B 4069   2.859   5.268   3.970  0.4891  0.9293 -1.7918
   55CHL1  H27C 4070   2.886   5.451   4.013 -2.8619  1.8623  2.6618
   56CHL1    C3 4071   3.042   4.008   3.334 -0.8196  0.4944 -0.1604
   56CHL1    H3 4072   2.986   4.099   3.363 -0.4582 -0.1221  2.7923
   56CHL1    O3 4073   3.060   4.007   3.194  0.1088 -0.7039 -0.2970
   56CHL1   H3' 4074   3.137   3.953   3.174 -1.5446 -3.4532  0.2423
   56CHL1    C4 4075   3.178   4.007   3.412  0.1794  0.0830  0.1676
   56CHL1   H4A 4076   3.235   3.914   3.388 -1.8087 -1.2303  0.2051
   56CHL1   H4B 4077   3.234   4.098   3.381 -1.5338  1.8490  1.9771
   56CHL1    C5 4078   3.147   4.013   3.561 -1.2489 -0.1954  0.0390
   56CHL1    C6 4079   3.205   4.109   3.644  0.2168 -0.1609 -0.3589
   56CHL1    H6 4080   3.269   4.191   3.609 -1.6459  1.3408 -0.3949
   56CHL1    C7 4081   3.182   4.094   3.794 -0.7386 -0.0657  0.6339
   56CHL1   H7A 4082   3.270   4.143   3.842  0.0640  0.5526 -1.3318
   56CHL1   H7B 4083   3.103   4.160   3.836  1.0061  3.7969 -1.5976
   56CHL1    C8 4084   3.147   3.948   3.849  0.3861 -0.3275 -0.2800
   56CHL1    H8 4085   3.240   3.892   3.826  0.3714 -0.7568  0.6918
   56CHL1   C14 4086   3.110   3.955   3.996  0.1751 -0.1046 -0.1937
   56CHL1   H14 4087   3.026   4.028   3.993  0.2061 -0.0564  0.0820
   56CHL1   C15 4088   3.214   4.005   4.101  0.4204 -0.1695  0.3123
   56CHL1  H15A 4089   3.311   3.968   4.061 -0.6156 -2.4925 -0.2085
   56CHL1  H15B 4090   3.222   4.116   4.110 -0.1644 -0.0098 -0.8568
   56CHL1   C16 4091   3.160   3.939   4.230 -0.6222 -0.6361 -0.1655
   56CHL1  H16A 4092   3.251   3.893   4.274 -0.3642  1.0881  1.2211
   56CHL1  H16B 4093   3.119   4.018   4.297  2.1689  2.4840 -1.8804
   56CHL1   C17 4094   3.050   3.849   4.191 -0.0150  0.1043 -1.0768
   56CHL1   H17 4095   2.954   3.902   4.212 -0.2940 -1.6249  2.7714
   56CHL1   C13 4096   3.068   3.820   4.045  0.5621 -0.3625 -0.0910
   56CHL1   C18 4097   3.181   3.714   4.018  0.5746 -1.0405  0.1704
   56CHL1  H18A 4098   3.280   3.722   4.067 -0.3124  0.5819  1.7758
   56CHL1  H18B 4099   3.133   3.615   4.038  0.3781 -1.8756 -3.5511
   56CHL1  H18C 4100   3.207   3.697   3.911  0.9556 -2.4689  0.4670
   56CHL1   C12 4101   2.934   3.784   3.977  0.1956 -0.0911  0.9633
   56CHL1  H12A 4102   2.893   3.688   4.014  1.1647 -0.6873  0.5166
   56CHL1  H12B 4103   2.854   3.859   3.996 -1.0517 -0.6125 -1.7113
   56CHL1   C11 4104   2.950   3.777   3.821 -0.0528  0.7468  0.6074
   56CHL1  H11A 4105   2.998   3.681   3.791 -1.4368  0.0363  0.5768
   56CHL1  H11B 4106   2.854   3.780   3.765  1.3128  0.8150 -1.9163
   56CHL1    C9 4107   3.025   3.901   3.764 -0.3194  0.2382  1.3264
   56CHL1    H9 4108   2.951   3.983   3.768 -0.1661  0.3779  1.3041
   56CHL1   C10 4109   3.063   3.892   3.609 -0.7725  0.3874 -0.1311
   56CHL1   C19 4110   3.145   3.761   3.584  0.0154  0.3395  0.2397
   56CHL1  H19A 4111   3.225   3.752   3.661  0.8402 -1.9289 -0.8145
   56CHL1  H19B 4112   3.085   3.668   3.585  1.4187 -0.6028  0.4065
   56CHL1  H19C 4113   3.207   3.755   3.492 -0.2010  0.2611  0.0981
   56CHL1    C1 4114   2.934   3.898   3.527 -0.2159 -0.1768  0.1962
   56CHL1   H1A 4115   2.873   3.809   3.556 -1.1344  0.4455  0.2187
   56CHL1   H1B 4116   2.885   3.995   3.548  1.0205  0.9780 -1.8520
   56CHL1    C2 4117   2.960   3.891   3.379 -0.0483  0.0023  0.5151
   56CHL1   H2A 4118   2.860   3.907   3.333  0.2460  2.2751  0.5615
   56CHL1   H2B 4119   3.018   3.806   3.338  2.9235  2.0947 -0.0110
   56CHL1   C20 4120   3.047   3.726   4.281 -0.8055 -0.0780  0.3708
   56CHL1   H20 4121   3.116   3.648   4.241 -2.4905 -0.8950 -1.0519
   56CHL1   C21 4122   2.907   3.671   4.293 -0.2858  0.2439 -1.1261
   56CHL1  H21A 4123   2.829   3.749   4.310 -0.8102 -0.3979 -0.5453
   56CHL1  H21B 4124   2.900   3.597   4.375  0.2711  0.7255 -0.6340
   56CHL1  H21C 4125   2.875   3.616   4.202  1.9004 -2.1859 -0.5145
   56CHL1   C22 4126   3.086   3.755   4.433  0.3098 -0.3805  0.2305
   56CHL1  H22A 4127   3.086   3.662   4.494 -1.6751  0.3001  1.3428
   56CHL1  H22B 4128   3.189   3.798   4.433  0.3079 -0.3489 -0.8184
   56CHL1   C23 4129   2.997   3.856   4.505  0.4742 -0.6192 -0.4060
   56CHL1  H23A 4130   2.959   3.929   4.431  1.4580 -0.8844 -1.2034
   56CHL1  H23B 4131   2.915   3.788   4.535  0.5274 -0.8678 -0.8124
   56CHL1   C24 4132   3.061   3.909   4.632 -0.3945 -0.5952 -0.5785
   56CHL1  H24A 4133   3.120   3.821   4.667  1.0115 -0.0164 -1.3866
   56CHL1  H24B 4134   3.128   3.995   4.608  0.0712 -0.5757  0.6733
   56CHL1   C25 4135   2.969   3.967   4.738 -0.4558  0.5247  0.3898
   56CHL1   H25 4136   2.917   4.049   4.683 -0.3988 -0.2653 -0.8986
   56CHL1   C26 4137   2.856   3.871   4.782 -0.2335 -0.4438  0.7039
   56CHL1  H26A 4138   2.896   3.779   4.831  0.2787 -0.9867 -0.6781
   56CHL1  H26B 4139   2.788   3.922   4.853  0.1028  0.3667  0.4636
   56CHL1  H26C 4140   2.788   3.831   4.704  0.1114 -1.4986  0.9280
   56CHL1   C27 4141   3.057   4.014   4.853  0.1781 -0.1187  0.6386
   56CHL1  H27A 4142   3.146   4.072   4.820 -0.1988  1.1911  1.8350
   56CHL1  H27B 4143   2.999   4.075   4.925  0.2987  1.3979 -0.5249
   56CHL1  H27C 4144   3.081   3.927   4.918 -2.1573 -0.5555  0.9959
   57SAPC     N 4145   4.681   5.535   6.950 -0.1379  0.4069  0.8715
   57SAPC   C12 4146   4.710   5.674   7.006 -0.5910 -0.2050 -0.1580
   57SAPC  H12A 4147   4.780   5.668   7.088  0.1049 -0.4859 -0.7611
   57SAPC  H12B 4148   4.621   5.717   7.050 -0.5874 -0.8593  0.4978
   57SAPC   C13 4149   4.634   5.455   7.066  0.5624 -0.1247 -0.0190
   57SAPC  H13A 4150   4.545   5.502   7.105 -0.6317 -0.5736 -2.0639
   57SAPC  H13B 4151   4.609   5.350   7.056 -0.3811  0.2496 -2.2870
   57SAPC  H13C 4152   4.703   5.468   7.148 -0.4741  1.2831  0.6771
   57SAPC   C14 4153   4.577   5.543   6.848  0.1405 -0.3332  0.4560
   57SAPC  H14A 4154   4.547   5.441   6.832 -0.8755 -0.2517  1.6870
   57SAPC  H14B 4155   4.486   5.590   6.880 -0.9214 -2.9282  1.5234
   57SAPC  H14C 4156   4.612   5.582   6.754 -0.1845 -2.1677 -0.4570
   57SAPC   C15 4157   4.801   5.469   6.904 -0.1253  0.3298  0.7037
   57SAPC  H15A 4158   4.780   5.365   6.884 -1.9181  0.6665  0.6990
   57SAPC  H15B 4159   4.842   5.495   6.807 -0.5285 -2.0778 -0.1834
   57SAPC  H15C 4160   4.882   5.473   6.975  1.7448  0.7085 -1.3496
   57SAPC   C11 4161   4.765   5.788   6.909 -0.3269 -0.2676 -0.7583
   57SAPC  H11A 4162   4.753   5.884   6.963 -0.7460  0.0259 -1.3561
   57SAPC  H11B 4163   4.695   5.794   6.823  1.2567 -0.3889 -2.1261
   57SAPC     P 4164   5.010   5.780   6.984  0.2099  0.2308 -0.1547
   57SAPC   O13 4165   5.015   5.922   7.017  0.3187  0.0334 -0.1880
   57SAPC   O14 4166   4.988   5.684   7.093  0.4556  0.5197  0.3974
   57SAPC   O12 4167   4.902   5.761   6.869 -0.1204  0.1234 -0.2456
   57SAPC   O11 4168   5.149   5.743   6.921  0.4614 -0.2305  0.4877
   57SAPC    C1 4169   5.139   5.661   6.802 -0.0863  0.2123 -0.4613
   57SAPC    HA 4170   5.083   5.568   6.821 -1.0492  0.7067 -0.8126
   57SAPC    HB 4171   5.092   5.716   6.718 -0.9269 -0.3532 -0.3613
   57SAPC    C2 4172   5.285   5.623   6.765 -0.5246  0.6914  0.5624
   57SAPC    HS 4173   5.335   5.571   6.850  4.2730  1.1425 -1.6598
   57SAPC   O21 4174   5.346   5.746   6.727 -0.1820  0.0276 -0.4481
   57SAPC   C21 4175   5.484   5.745   6.724  0.5648  0.9514 -0.0204
   57SAPC   O22 4176   5.548   5.643   6.751  0.5892  0.2895 -0.0000
   57SAPC   C22 4177   5.540   5.885   6.698  0.3552  0.1189 -0.0852
   57SAPC   H2R 4178   5.454   5.938   6.650  1.7824  1.5720 -1.1497
   57SAPC   H2S 4179   5.579   5.938   6.788  2.2668 -0.2219 -0.6647
   57SAPC    C3 4180   5.298   5.510   6.654  0.1304  0.1596  0.2970
   57SAPC    HX 4181   5.219   5.441   6.691 -0.5031  0.9511  0.4443
   57SAPC    HY 4182   5.399   5.464   6.663 -0.1418 -0.8821 -1.3681
   57SAPC   O31 4183   5.281   5.547   6.515 -0.1276 -0.0585  0.2337
   57SAPC   C31 4184   5.159   5.553   6.466 -0.5003  0.5536 -0.6387
   57SAPC   O32 4185   5.060   5.517   6.529 -0.2943 -0.1361  0.2242
   57SAPC   C32 4186   5.157   5.604   6.324  0.3860  0.0204  0.2429
   57SAPC   H2X 4187   5.194   5.528   6.252 -0.6892 -1.1651  0.9013
   57SAPC   H2Y 4188   5.223   5.693   6.326  1.2917 -0.6329  0.2266
   57SAPC   C23 4189   5.655   5.873   6.602  0.2568  0.1642 -0.0159
   57SAPC   H3R 4190   5.626   5.837   6.501 -2.0328 -0.0316  0.6515
   57SAPC   H3S 4191   5.726   5.800   6.646 -0.3387  0.4269  1.4285
   57SAPC   C24 4192   5.730   6.008   6.578 -0.3830 -0.2684 -0.6199
   57SAPC   H4R 4193   5.794   6.000   6.488  2.1301  1.0977  0.9392
   57SAPC   H4S 4194   5.804   6.023   6.660  1.9115 -1.3793 -2.3765
   57SAPC   C25 4195   5.643   6.130   6.582 -0.5328  0.0566 -0.4745
   57SAPC   H5R 4196   5.581   6.131   6.673 -0.6295 -1.9537 -0.4669
   57SAPC   C26 4197   5.616   6.221   6.493  0.1164 -0.7146  0.0980
   57SAPC   H6R 4198   5.557   6.308   6.527  0.0233 -1.1493  1.0731
   57SAPC   C27 4199   5.679   6.250   6.355 -0.0637 -0.3534 -0.4217
   57SAPC   H7R 4200   5.777   6.297   6.377 -0.4950  0.5886 -0.4749
   57SAPC   H7S 4201   5.626   6.329   6.297  2.0166 -1.3172 -3.9172
   57SAPC   C28 4202   5.692   6.128   6.263 -0.0794 -0.6364 -0.4184
   57SAPC   H8R 4203   5.666   6.031   6.307  1.5300 -0.1705  1.7459
   57SAPC   C29 4204   5.739   6.139   6.136  0.0967 -0.4795  0.5789
   57SAPC   H9R 4205   5.735   6.052   6.070  0.2998 -0.6335  0.7700
   57SAPC  C210 4206   5.778   6.272   6.070 -0.1784 -0.5831 -0.5086
   57SAPC  H10R 4207   5.777   6.359   6.138 -0.4082  0.0901 -1.3567
   57SAPC  H10S 4208   5.713   6.305   5.986 -0.7599 -0.2708  0.0538
   57SAPC  C211 4209   5.910   6.260   6.006 -0.7054  0.7453 -0.1630
   57SAPC  H11R 4210   6.000   6.286   6.064 -0.9515  0.1242  0.5092
   57SAPC  C212 4211   5.933   6.217   5.877  0.0097  0.2540 -0.2325
   57SAPC  H12R 4212   6.038   6.212   5.846  0.0313 -2.0709  0.0366
   57SAPC  C213 4213   5.833   6.184   5.773 -0.3612  0.3307 -0.6576
   57SAPC  H13R 4214   5.729   6.223   5.787 -0.8110 -0.7612 -0.8595
   57SAPC  H13S 4215   5.809   6.076   5.777  0.7744  0.0971  0.1170
   57SAPC  C214 4216   5.881   6.224   5.633  0.8746  0.5172 -0.7722
   57SAPC  H14R 4217   5.957   6.154   5.597 -0.0655  0.0107 -1.8232
   57SAPC  C215 4218   5.838   6.325   5.553 -0.3609 -0.6652 -0.3607
   57SAPC  H15R 4219   5.869   6.327   5.448  2.4562  1.6911  0.3738
   57SAPC  C216 4220   5.747   6.431   5.600 -0.0386 -0.7744  0.0997
   57SAPC  H16R 4221   5.694   6.403   5.694  1.4373  1.1662  1.6029
   57SAPC  H16S 4222   5.671   6.467   5.528  0.1816  0.1986  0.3350
   57SAPC  C217 4223   5.822   6.562   5.642  0.1927 -0.3019 -0.5059
   57SAPC  H17R 4224   5.917   6.530   5.690 -0.1512  0.8501  1.0042
   57SAPC  H17S 4225   5.758   6.598   5.725  0.0838 -2.8268  0.5776
   57SAPC  C218 4226   5.840   6.659   5.533 -0.3345  0.2176 -0.5054
   57SAPC  H18R 4227   5.743   6.688   5.487 -0.4317  1.6489  0.5232
   57SAPC  H18S 4228   5.885   6.604   5.448  0.5714  0.0270  0.0820
   57SAPC  C219 4229   5.913   6.784   5.582 -0.0244 -0.1246 -0.3249
   57SAPC  H19R 4230   6.014   6.755   5.620 -0.4231 -0.5898  0.4051
   57SAPC  H19S 4231   5.859   6.825   5.669 -0.0296  3.3329 -1.7691
   57SAPC  C220 4232   5.945   6.895   5.475  0.5943 -0.4413  0.7110
   57SAPC  H20R 4233   5.996   6.855   5.385 -3.2677 -1.6608 -1.1396
   57SAPC  H20S 4234   5.999   6.979   5.523 -1.9451  2.6746 -1.4522
   57SAPC  H20T 4235   5.850   6.944   5.443  0.0893 -0.9152  1.4465
   57SAPC   C33 4236   5.013   5.652   6.286  0.2953 -0.0212  0.5118
   57SAPC   H3X 4237   4.972   5.726   6.357 -2.0334  0.2301 -0.9973
   57SAPC   H3Y 4238   4.939   5.570   6.293  0.7979 -0.4989  0.3592
   57SAPC   C34 4239   5.005   5.712   6.142  0.4918  0.3780 -1.0001
   57SAPC   H4X 4240   5.108   5.734   6.109  1.7689 -1.3613  1.5143
   57SAPC   H4Y 4241   4.939   5.802   6.146 -0.5409 -0.3846 -0.0530
   57SAPC   C35 4242   4.953   5.607   6.044  0.4321  0.9216 -0.7287
   57SAPC   H5X 4243   4.852   5.573   6.075  0.3190  1.7024 -0.2255
   57SAPC   H5Y 4244   5.004   5.509   6.031 -1.6185  0.0233 -2.8282
   57SAPC   C36 4245   4.946   5.669   5.899  0.2753 -0.3324 -0.2681
   57SAPC   H6X 4246   4.896   5.767   5.913 -0.5845 -0.6927 -0.7388
   57SAPC   H6Y 4247   4.897   5.594   5.833 -1.4862  1.3605 -0.9579
   57SAPC   C37 4248   5.093   5.683   5.845 -0.3120 -0.0094  0.4289
   57SAPC   H7X 4249   5.141   5.583   5.837 -0.2405 -0.0250  1.0171
   57SAPC   H7Y 4250   5.166   5.739   5.906  1.5826 -0.5039 -1.2724
   57SAPC   C38 4251   5.096   5.770   5.717 -0.3536  0.6215  0.8858
   57SAPC   H8X 4252   5.000   5.753   5.664 -0.6500  0.5254  1.4460
   57SAPC   H8Y 4253   5.167   5.727   5.642 -1.4651 -0.7254  0.5600
   57SAPC   C39 4254   5.130   5.926   5.735 -0.1219 -0.3864 -0.3104
   57SAPC   H9X 4255   5.214   5.921   5.807 -2.4556 -0.6241  2.5531
   57SAPC   H9Y 4256   5.048   5.979   5.788  0.7599  2.3764 -1.5057
   57SAPC  C310 4257   5.168   5.999   5.603  0.1536 -0.4323 -0.7086
   57SAPC  H10X 4258   5.124   6.100   5.610  1.3957  0.1545 -1.1038
   57SAPC  H10Y 4259   5.106   5.952   5.524  0.5994 -0.8227 -0.8355
   57SAPC  C311 4260   5.319   6.017   5.584 -0.2903 -0.5381 -0.2312
   57SAPC  H11X 4261   5.359   5.913   5.589 -3.2696 -1.7665  0.3127
   57SAPC  H11Y 4262   5.366   6.070   5.670 -2.5541  1.3339 -0.0595
   57SAPC  C312 4263   5.370   6.087   5.457 -0.0018 -0.3172  0.5901
   57SAPC  H12X 4264   5.313   6.181   5.442  0.2257 -0.0558  1.3267
   57SAPC  H12Y 4265   5.342   6.026   5.369  0.3773 -3.7600  2.7057
   57SAPC  C313 4266   5.516   6.119   5.478 -0.2247 -0.0667  1.0046
   57SAPC  H13X 4267   5.574   6.029   5.507 -0.9647 -0.8724  0.0606
   57SAPC  H13Y 4268   5.523   6.199   5.554 -1.5172  0.7252  0.3340
   57SAPC  C314 4269   5.584   6.161   5.352  0.3924 -0.1146  0.1772
   57SAPC  H14X 4270   5.576   6.080   5.277 -0.7505 -0.8327  1.0415
   57SAPC  H14Y 4271   5.691   6.177   5.378  0.6709 -1.6342  0.0803
   57SAPC  C315 4272   5.522   6.287   5.291  0.0742 -0.5965  0.5419
   57SAPC  H15X 4273   5.510   6.348   5.383  1.6948  3.8310 -1.8776
   57SAPC  H15Y 4274   5.419   6.271   5.253  0.9601 -0.4807 -2.1249
   57SAPC  C316 4275   5.614   6.370   5.190 -0.7595  0.8049 -0.6715
   57SAPC  H16X 4276   5.617   6.316   5.093  2.6184 -0.1492 -0.1642
   57SAPC  H16Y 4277   5.711   6.391   5.240 -1.2343  1.3408  0.0623
   57SAPC  C317 4278   5.563   6.516   5.163 -0.3667 -0.1482  0.1003
   57SAPC  H17X 4279   5.575   6.571   5.259  0.8235 -1.3338  0.6552
   57SAPC  H17Y 4280   5.457   6.515   5.129 -0.8398  1.1724  1.4423
   57SAPC  C318 4281   5.633   6.600   5.047 -0.7692  0.3167 -0.4856
   57SAPC  H18X 4282   5.738   6.621   5.075 -1.2494 -0.9057  2.6206
   57SAPC  H18Y 4283   5.572   6.688   5.018  0.0094  1.1870  0.4417
   57SAPC  H18Z 4284   5.647   6.542   4.953 -0.2174  1.1115 -0.9039
   58SAPC     N 4285   2.391   5.432   7.216 -0.1238 -0.0131  0.1575
   58SAPC   C12 4286   2.316   5.402   7.095  0.0869 -0.0762 -0.3920
   58SAPC  H12A 4287   2.291   5.494   7.044 -0.0779  0.2156  0.2023
   58SAPC  H12B 4288   2.232   5.340   7.122 -0.6273  0.4666 -1.2938
   58SAPC   C13 4289   2.299   5.506   7.311 -0.4340  1.1713  0.2393
   58SAPC  H13A 4290   2.284   5.609   7.280  0.7513  2.4053  3.3340
   58SAPC  H13B 4291   2.203   5.458   7.309  0.1386 -0.0048  0.2055
   58SAPC  H13C 4292   2.348   5.519   7.407  1.1374  1.8138 -0.5970
   58SAPC   C14 4293   2.439   5.303   7.282 -0.8893  0.1695 -0.0487
   58SAPC  H14A 4294   2.492   5.325   7.373  1.2441  0.1079 -1.2065
   58SAPC  H14B 4295   2.357   5.235   7.298  1.9008 -3.1512  1.4836
   58SAPC  H14C 4296   2.508   5.257   7.212 -0.7316  1.0388 -0.4855
   58SAPC   C15 4297   2.509   5.522   7.194  0.0814 -0.0236 -0.0818
   58SAPC  H15A 4298   2.488   5.618   7.150 -1.5858 -0.5488 -0.4752
   58SAPC  H15B 4299   2.574   5.535   7.280 -0.6954 -1.1733  0.7175
   58SAPC  H15C 4300   2.573   5.475   7.121  1.2353 -0.6711  1.2746
   58SAPC   C11 4301   2.397   5.321   6.987  0.0699  0.1279  0.1415
   58SAPC  H11A 4302   2.497   5.367   6.977  0.2613 -0.1866  0.5670
   58SAPC  H11B 4303   2.353   5.326   6.885 -0.0681  0.1543  0.2027
   58SAPC     P 4304   2.309   5.080   7.020 -0.0479  0.4933  0.0185
   58SAPC   O13 4305   2.343   4.957   7.089  0.8140 -0.1368 -0.6553
   58SAPC   O14 4306   2.174   5.141   7.053  0.2986  0.7049  0.6739
   58SAPC   O12 4307   2.428   5.185   7.031 -0.4636  0.0487  1.0097
   58SAPC   O11 4308   2.319   5.041   6.866 -0.3161 -0.5177 -0.0803
   58SAPC    C1 4309   2.444   5.051   6.801 -0.1491  0.0168  0.4695
   58SAPC    HA 4310   2.491   5.151   6.807  2.5642 -1.0544 -0.9870
   58SAPC    HB 4311   2.509   4.965   6.830 -2.0752 -1.1930  1.4271
   58SAPC    C2 4312   2.430   5.044   6.647  0.0390  0.6156  0.0245
   58SAPC    HS 4313   2.535   5.055   6.614  0.3068  2.3090  1.2809
   58SAPC   O21 4314   2.352   5.157   6.601 -0.4291 -0.0385  0.0940
   58SAPC   C21 4315   2.379   5.203   6.483  0.1194  0.4096  0.2561
   58SAPC   O22 4316   2.481   5.184   6.419  0.1788 -0.0498 -0.7081
   58SAPC   C22 4317   2.264   5.291   6.441  0.0484  0.0252 -0.0677
   58SAPC   H2R 4318   2.170   5.233   6.452 -0.7210  1.2631  0.1214
   58SAPC   H2S 4319   2.258   5.386   6.498  0.1049 -0.1001  0.1501
   58SAPC    C3 4320   2.367   4.905   6.602 -0.3012 -0.0740  0.3317
   58SAPC    HX 4321   2.260   4.896   6.628 -0.0911  0.6436  1.5101
   58SAPC    HY 4322   2.424   4.821   6.648  1.0142  0.6758  0.1108
   58SAPC   O31 4323   2.372   4.893   6.459 -0.3384  0.0531  0.2622
   58SAPC   C31 4324   2.491   4.865   6.405  0.2141 -0.3020  0.1371
   58SAPC   O32 4325   2.595   4.861   6.468 -0.2565 -0.6387 -0.0880
   58SAPC   C32 4326   2.479   4.827   6.263  0.1751 -0.2602  0.3162
   58SAPC   H2X 4327   2.426   4.729   6.261 -0.0474 -0.1989  1.9229
   58SAPC   H2Y 4328   2.579   4.811   6.218  0.1801 -1.4878  0.7162
   58SAPC   C23 4329   2.277   5.341   6.293  0.0061 -0.0959  0.4083
   58SAPC   H3R 4330   2.288   5.254   6.223 -0.3505  1.2225 -1.3611
   58SAPC   H3S 4331   2.368   5.404   6.291 -1.2477  1.7658 -0.6455
   58SAPC   C24 4332   2.156   5.424   6.255 -0.0774 -0.0839 -0.4657
   58SAPC   H4R 4333   2.187   5.474   6.161  0.9038 -2.1085 -1.2856
   58SAPC   H4S 4334   2.146   5.508   6.327  1.3733 -0.4585  0.2165
   58SAPC   C25 4335   2.020   5.345   6.239 -0.1901  0.4056  0.2633
   58SAPC   H5R 4336   1.949   5.357   6.323  0.5130  1.8709  0.6945
   58SAPC   C26 4337   1.982   5.265   6.140  0.0982  0.0696  1.0631
   58SAPC   H6R 4338   1.886   5.213   6.156 -0.9439  1.1550 -1.2004
   58SAPC   C27 4339   2.058   5.221   6.013 -0.0284 -0.4110  0.2867
   58SAPC   H7R 4340   2.082   5.114   5.999 -1.7791 -0.7089 -0.6757
   58SAPC   H7S 4341   2.157   5.272   6.007 -0.2067 -0.2579 -2.8391
   58SAPC   C28 4342   1.987   5.262   5.889  0.2878  0.0494  0.5105
   58SAPC   H8R 4343   1.999   5.368   5.862 -1.2465 -0.5386 -3.0104
   58SAPC   C29 4344   1.933   5.183   5.792  0.7289  0.4424 -0.2896
   58SAPC   H9R 4345   1.890   5.231   5.702  0.4583  0.2740 -0.2486
   58SAPC  C210 4346   1.924   5.031   5.787 -0.2367 -0.0293 -0.1040
   58SAPC  H10R 4347   1.982   4.987   5.870  1.0020 -1.1326 -1.4974
   58SAPC  H10S 4348   1.984   4.981   5.708 -0.8432 -0.6590 -0.1788
   58SAPC  C211 4349   1.784   4.985   5.796  0.1134 -0.5073 -0.7184
   58SAPC  H11R 4350   1.714   5.027   5.871 -0.5547 -0.9898 -1.0569
   58SAPC  C212 4351   1.733   4.886   5.724 -0.4037  0.1133 -0.0951
   58SAPC  H12R 4352   1.632   4.855   5.754 -0.3709  0.9646  0.9270
   58SAPC  C213 4353   1.804   4.818   5.611 -0.3228  0.6066  0.6784
   58SAPC  H13R 4354   1.855   4.727   5.650 -0.6559 -0.4467 -1.1920
   58SAPC  H13S 4355   1.878   4.885   5.561 -1.2170  1.4747  0.4858
   58SAPC  C214 4356   1.702   4.764   5.506 -0.0117 -0.6718 -0.8824
   58SAPC  H14R 4357   1.604   4.752   5.554  1.7822  1.0709  3.8094
   58SAPC  C215 4358   1.734   4.733   5.374 -0.1319  0.5723  0.7644
   58SAPC  H15R 4359   1.649   4.701   5.312 -1.3897  2.7291  1.2899
   58SAPC  C216 4360   1.856   4.757   5.288  0.5366  0.3207  0.0999
   58SAPC  H16R 4361   1.915   4.670   5.251 -0.6566 -0.8118  0.7758
   58SAPC  H16S 4362   1.929   4.810   5.354 -0.0721  1.7077 -0.3103
   58SAPC  C217 4363   1.823   4.841   5.163  0.1508  0.2110 -0.0473
   58SAPC  H17R 4364   1.772   4.934   5.192  1.4206  0.6848  0.7507
   58SAPC  H17S 4365   1.763   4.776   5.095 -0.4771  0.3700  0.3504
   58SAPC  C218 4366   1.950   4.889   5.092 -0.3349  0.3063  0.2542
   58SAPC  H18R 4367   2.013   4.805   5.055 -0.3766  0.5947 -0.4918
   58SAPC  H18S 4368   2.003   4.952   5.167 -1.9975  0.3321  1.4715
   58SAPC  C219 4369   1.930   4.971   4.967  0.2637  0.5792 -0.2704
   58SAPC  H19R 4370   1.896   5.069   5.007  2.0667  0.0598  2.8726
   58SAPC  H19S 4371   1.864   4.917   4.896  2.2212 -2.3623  0.0003
   58SAPC  C220 4372   2.055   4.987   4.896 -0.2671 -0.4662 -0.3318
   58SAPC  H20R 4373   2.138   4.996   4.969 -1.0410 -1.7843  0.7611
   58SAPC  H20S 4374   2.040   5.073   4.826 -1.8938 -1.2547 -1.0154
   58SAPC  H20T 4375   2.086   4.898   4.837  0.2692  0.9886 -2.3470
   58SAPC   C33 4376   2.409   4.946   6.184  0.1413  0.0338  0.4112
   58SAPC   H3X 4377   2.449   5.045   6.215 -0.2835  0.9568 -1.7803
   58SAPC   H3Y 4378   2.301   4.933   6.210  0.1106  1.5480  1.1361
   58SAPC   C34 4379   2.445   4.936   6.033 -0.5116 -0.2711 -0.6872
   58SAPC   H4X 4380   2.425   4.829   6.013  1.9006 -0.3776 -3.0019
   58SAPC   H4Y 4381   2.554   4.949   6.015 -0.5973  0.0037 -1.0148
   58SAPC   C35 4382   2.361   5.021   5.936 -0.5633 -0.7145  0.2598
   58SAPC   H5X 4383   2.381   5.129   5.953  0.5756 -0.6527 -1.2332
   58SAPC   H5Y 4384   2.259   4.987   5.961 -1.4058  0.8556 -0.8623
   58SAPC   C36 4385   2.397   5.000   5.785  0.1133  0.1743  0.2724
   58SAPC   H6X 4386   2.372   4.893   5.776 -0.1148  0.2120  0.4454
   58SAPC   H6Y 4387   2.506   5.004   5.761  0.2389  0.8212  0.8922
   58SAPC   C37 4388   2.316   5.092   5.696  0.4172 -0.1881  0.0808
   58SAPC   H7X 4389   2.382   5.180   5.685  2.4606 -1.7284 -0.5727
   58SAPC   H7Y 4390   2.229   5.134   5.751  1.9279  1.9160  0.9990
   58SAPC   C38 4391   2.293   5.039   5.552 -0.1166  0.1204  0.4514
   58SAPC   H8X 4392   2.231   4.946   5.553 -2.8639  1.8427  0.2126
   58SAPC   H8Y 4393   2.394   5.023   5.507 -0.1595 -1.4897  0.8703
   58SAPC   C39 4394   2.237   5.152   5.458  0.3851  0.3881  0.1294
   58SAPC   H9X 4395   2.309   5.235   5.442 -1.2972  2.1866  1.3345
   58SAPC   H9Y 4396   2.145   5.201   5.498 -1.3514 -1.1789 -1.7463
   58SAPC  C310 4397   2.192   5.074   5.328 -0.8738 -0.4788  0.5926
   58SAPC  H10X 4398   2.120   5.140   5.276 -1.0523  0.2846  1.7676
   58SAPC  H10Y 4399   2.121   4.995   5.362  0.2032  0.3791  5.7156
   58SAPC  C311 4400   2.302   5.028   5.232 -0.3468  0.1277 -0.0832
   58SAPC  H11X 4401   2.248   4.980   5.147 -1.1006  1.6901 -0.5207
   58SAPC  H11Y 4402   2.371   4.949   5.267  0.4826  0.1195 -1.6529
   58SAPC  C312 4403   2.379   5.139   5.163 -0.3407 -0.5075  0.1654
   58SAPC  H12X 4404   2.440   5.198   5.235 -1.8843 -1.0173  1.9617
   58SAPC  H12Y 4405   2.298   5.197   5.114 -0.4228 -0.8340 -0.0942
   58SAPC  C313 4406   2.461   5.081   5.049 -1.0045 -0.2730 -0.4899
   58SAPC  H13X 4407   2.406   5.000   4.997 -2.4342 -0.3946  1.1209
   58SAPC  H13Y 4408   2.552   5.032   5.089 -1.4151 -1.0514 -0.4847
   58SAPC  C314 4409   2.506   5.181   4.951 -0.2179  0.3561  0.6377
   58SAPC  H14X 4410   2.548   5.273   4.998 -0.4995  0.6523  0.3208
   58SAPC  H14Y 4411   2.418   5.210   4.890 -0.2442 -0.8064  0.1152
   58SAPC  C315 4412   2.603   5.120   4.855 -0.7055  0.3587  0.5854
   58SAPC  H15X 4413   2.563   5.019   4.830 -0.8823  0.7644 -0.8434
   58SAPC  H15Y 4414   2.707   5.118   4.895  1.5735  0.2074 -4.5863
   58SAPC  C316 4415   2.636   5.202   4.730  0.2174  0.4153 -0.4715
   58SAPC  H16X 4416   2.544   5.218   4.670 -0.8664  0.6936  1.2039
   58SAPC  H16Y 4417   2.712   5.147   4.669  0.8730  2.1567 -1.2998
   58SAPC  C317 4418   2.700   5.343   4.761  0.0278 -0.0730 -1.2906
   58SAPC  H17X 4419   2.784   5.332   4.832 -1.3078 -3.3353 -0.0189
   58SAPC  H17Y 4420   2.642   5.414   4.824  0.6764 -2.5060  2.3607
   58SAPC  C318 4421   2.764   5.419   4.642  0.2240  0.7073 -0.4131
   58SAPC  H18X 4422   2.790   5.522   4.674 -2.8343  1.9730 -1.6024
   58SAPC  H18Y 4423   2.680   5.434   4.571  1.3565 -0.6868 -2.1301
   58SAPC  H18Z 4424   2.854   5.374   4.595  1.7839  0.6501  2.3970
   59SAPC     N 4425   0.610   3.287   7.528  0.4342  0.3198 -0.4302
   59SAPC   C12 4426   0.531   3.222   7.414 -0.4176 -1.3826 -0.0199
   59SAPC  H12A 4427   0.434   3.268   7.420  1.0892  2.0432  0.2722
   59SAPC  H12B 4428   0.505   3.118   7.431 -3.0585 -1.1227 -1.9508
   59SAPC   C13 4429   0.548   3.258   7.665  0.9315  0.1758  0.1857
   59SAPC  H13A 4430   0.624   3.279   7.739 -0.0945  1.5215  0.8885
   59SAPC  H13B 4431   0.466   3.323   7.689 -0.1947  0.0410 -2.9031
   59SAPC  H13C 4432   0.517   3.155   7.673 -0.8635  0.4660 -2.0428
   59SAPC   C14 4433   0.746   3.218   7.518  0.0861  0.1890 -0.4124
   59SAPC  H14A 4434   0.810   3.260   7.594  0.2843  0.5348 -0.7696
   59SAPC  H14B 4435   0.751   3.113   7.545  1.9206  0.3155 -0.1203
   59SAPC  H14C 4436   0.780   3.233   7.417  0.0302 -0.2469 -0.5008
   59SAPC   C15 4437   0.628   3.431   7.507  1.0425  0.1033 -0.8470
   59SAPC  H15A 4438   0.534   3.478   7.530  1.9375  0.6761  1.8953
   59SAPC  H15B 4439   0.699   3.474   7.576  1.1414 -0.9078 -0.3076
   59SAPC  H15C 4440   0.660   3.455   7.406 -0.8304  1.7922 -1.0899
   59SAPC   C11 4441   0.588   3.237   7.272  0.4992 -0.9536  0.0529
   59SAPC  H11A 4442   0.520   3.176   7.209  1.2420 -2.3720  0.5642
   59SAPC  H11B 4443   0.685   3.184   7.263  1.8302  1.1055  1.4741
   59SAPC     P 4444   0.490   3.445   7.158 -0.1292 -0.0617  0.4638
   59SAPC   O13 4445   0.367   3.452   7.245 -0.0635 -0.3436 -0.1673
   59SAPC   O14 4446   0.542   3.580   7.117 -0.0972  0.3032  0.2225
   59SAPC   O12 4447   0.608   3.374   7.233 -0.6862 -0.3624  0.1897
   59SAPC   O11 4448   0.458   3.368   7.022 -0.3946 -0.4179 -0.3748
   59SAPC    C1 4449   0.566   3.319   6.940  0.0477 -0.0704  0.2767
   59SAPC    HA 4450   0.668   3.333   6.982 -0.0022 -2.3953  1.3068
   59SAPC    HB 4451   0.553   3.209   6.940 -2.0585  0.1430  0.5326
   59SAPC    C2 4452   0.575   3.380   6.799  0.0803  0.0444  1.1914
   59SAPC    HS 4453   0.550   3.488   6.804  1.9296  0.5220  0.7865
   59SAPC   O21 4454   0.484   3.301   6.715  0.2772 -0.3435  0.0929
   59SAPC   C21 4455   0.361   3.349   6.716  0.5933 -0.5075 -0.1737
   59SAPC   O22 4456   0.321   3.456   6.764 -0.2957  0.0426  0.2150
   59SAPC   C22 4457   0.276   3.249   6.631 -0.1297  0.0780  0.0494
   59SAPC   H2R 4458   0.193   3.307   6.586 -0.6647  1.1786  2.2673
   59SAPC   H2S 4459   0.346   3.206   6.557 -1.0945 -2.9588  0.7697
   59SAPC    C3 4460   0.722   3.392   6.738 -1.1437  0.1800  0.1744
   59SAPC    HX 4461   0.760   3.288   6.742  1.2915  1.0175  0.4688
   59SAPC    HY 4462   0.785   3.455   6.804 -0.0513 -0.9660  0.2551
   59SAPC   O31 4463   0.725   3.440   6.599 -0.2956 -0.4949 -0.0632
   59SAPC   C31 4464   0.701   3.572   6.584  0.0937 -0.1827  0.9593
   59SAPC   O32 4465   0.686   3.655   6.669 -0.0798  0.5429  0.1337
   59SAPC   C32 4466   0.699   3.601   6.435  1.1067 -0.6517  0.0480
   59SAPC   H2X 4467   0.636   3.523   6.386  1.5478 -0.1243 -1.4005
   59SAPC   H2Y 4468   0.803   3.582   6.403  1.3198 -0.5255  0.6610
   59SAPC   C23 4469   0.206   3.144   6.721 -0.3850 -0.7500 -0.0910
   59SAPC   H3R 4470   0.143   3.196   6.796  1.1237  1.6914 -0.4027
   59SAPC   H3S 4471   0.283   3.084   6.775 -0.2953  0.0896  0.7257
   59SAPC   C24 4472   0.120   3.049   6.639 -0.3623 -0.2783 -0.5226
   59SAPC   H4R 4473   0.074   2.973   6.706 -0.9583 -0.4263 -1.0879
   59SAPC   H4S 4474   0.186   2.997   6.567 -0.8815 -2.1773  0.3205
   59SAPC   C25 4475   0.013   3.119   6.569  0.2088  0.6488 -0.5901
   59SAPC   H5R 4476  -0.072   3.152   6.631 -1.1979 -0.6963 -1.7403
   59SAPC   C26 4477   0.001   3.135   6.435 -0.9013 -0.0996 -0.4282
   59SAPC   H6R 4478  -0.080   3.198   6.396 -0.6693 -0.0692 -0.8727
   59SAPC   C27 4479   0.106   3.108   6.332  0.7625  0.3062 -0.0737
   59SAPC   H7R 4480   0.065   3.026   6.269  0.9051  0.8770 -0.9118
   59SAPC   H7S 4481   0.199   3.065   6.376 -0.2622 -2.0188 -0.0441
   59SAPC   C28 4482   0.126   3.236   6.259 -0.6751 -0.7894  0.7299
   59SAPC   H8R 4483   0.124   3.331   6.315  0.7384 -0.1540 -0.2625
   59SAPC   C29 4484   0.142   3.249   6.128 -0.6056  0.1295  0.5730
   59SAPC   H9R 4485   0.151   3.353   6.093  0.6711  0.5100  1.9523
   59SAPC  C210 4486   0.134   3.141   6.024  0.6186 -0.1738  0.8695
   59SAPC  H10R 4487   0.156   3.042   6.069 -1.2293 -1.7768 -1.4814
   59SAPC  H10S 4488   0.209   3.159   5.943  1.6331  1.3893  2.1052
   59SAPC  C211 4489  -0.004   3.149   5.968 -0.7059  0.1809 -0.7567
   59SAPC  H11R 4490  -0.081   3.120   6.041 -0.0865  0.2549 -0.0540
   59SAPC  C212 4491  -0.048   3.173   5.841  0.3171 -0.1784  0.6037
   59SAPC  H12R 4492  -0.157   3.179   5.824  0.0005  1.1197  2.6788
   59SAPC  C213 4493   0.059   3.201   5.736  0.5370  0.0822  0.3766
   59SAPC  H13R 4494   0.007   3.192   5.638  2.2948  1.2470 -0.7204
   59SAPC  H13S 4495   0.132   3.116   5.736 -0.0685 -0.5245  3.0377
   59SAPC  C214 4496   0.131   3.336   5.741 -0.0953 -0.1463 -0.6141
   59SAPC  H14R 4497   0.205   3.345   5.822 -2.0360 -0.1425  1.2834
   59SAPC  C215 4498   0.103   3.442   5.667  0.7224 -0.1775 -0.0000
   59SAPC  H15R 4499   0.169   3.530   5.676  1.2157 -0.7556  2.8116
   59SAPC  C216 4500   0.010   3.463   5.551  0.1239  0.5409  0.4080
   59SAPC  H16R 4501  -0.078   3.524   5.581 -1.2216 -0.5589 -1.1305
   59SAPC  H16S 4502  -0.031   3.365   5.520  2.2744 -0.2467 -0.0918
   59SAPC  C217 4503   0.078   3.524   5.432 -0.6016 -0.4567 -0.4058
   59SAPC  H17R 4504   0.156   3.449   5.405 -1.1215 -0.9105 -0.6672
   59SAPC  H17S 4505   0.118   3.622   5.465 -1.2033 -1.0518  2.4137
   59SAPC  C218 4506  -0.012   3.565   5.318  0.0095  0.0251 -0.2614
   59SAPC  H18R 4507  -0.080   3.646   5.351 -0.5251 -1.7326  3.4741
   59SAPC  H18S 4508  -0.073   3.484   5.272  2.0646 -0.6013 -2.0704
   59SAPC  C219 4509   0.074   3.623   5.202 -0.0592 -1.1432  0.7448
   59SAPC  H19R 4510   0.006   3.631   5.114  1.5524 -0.6783 -0.5008
   59SAPC  H19S 4511   0.154   3.551   5.173  0.1743 -0.3057 -0.8039
   59SAPC  C220 4512   0.130   3.761   5.234  0.3582 -0.2480  0.4171
   59SAPC  H20R 4513   0.063   3.830   5.290  1.1637 -0.4641  1.6854
   59SAPC  H20S 4514   0.177   3.801   5.142  2.9024  1.3146  2.2686
   59SAPC  H20T 4515   0.208   3.761   5.314  1.6023  0.0223 -0.7679
   59SAPC   C33 4516   0.646   3.733   6.388 -0.5531 -0.7052 -0.2388
   59SAPC   H3X 4517   0.708   3.811   6.436 -1.8288 -0.8742  1.8241
   59SAPC   H3Y 4518   0.542   3.743   6.428 -0.9435 -0.6266 -1.2510
   59SAPC   C34 4519   0.652   3.752   6.237 -0.6377  0.2455  0.5417
   59SAPC   H4X 4520   0.580   3.831   6.207 -0.1257  0.7697  0.6524
   59SAPC   H4Y 4521   0.607   3.665   6.186 -2.1949  0.8596  0.8266
   59SAPC   C35 4522   0.786   3.781   6.170 -0.0546 -0.5660 -0.3015
   59SAPC   H5X 4523   0.851   3.692   6.184 -0.7825 -0.7688  2.2142
   59SAPC   H5Y 4524   0.822   3.866   6.230 -2.1698  2.1514 -2.5862
   59SAPC   C36 4525   0.768   3.821   6.022 -0.3447  0.2786  0.0450
   59SAPC   H6X 4526   0.679   3.886   6.007 -0.9224 -0.4874  0.0671
   59SAPC   H6Y 4527   0.742   3.724   5.974  0.4364  0.4581 -0.7482
   59SAPC   C37 4528   0.889   3.882   5.956  0.5059 -0.7638  0.1862
   59SAPC   H7X 4529   0.970   3.806   5.963  0.9415 -0.2385  1.0618
   59SAPC   H7Y 4530   0.905   3.975   6.016 -0.4528  0.2825 -1.1174
   59SAPC   C38 4531   0.857   3.924   5.806  0.2344 -0.2553  0.1515
   59SAPC   H8X 4532   0.778   4.003   5.809 -0.8444 -1.3218  1.0058
   59SAPC   H8Y 4533   0.809   3.831   5.769 -1.8006  0.7588  0.1109
   59SAPC   C39 4534   0.980   3.973   5.723  0.4721 -0.4507  0.6788
   59SAPC   H9X 4535   1.038   3.881   5.698  1.4038  0.2471  0.2356
   59SAPC   H9Y 4536   1.049   4.027   5.792 -0.2191  0.8014  0.4206
   59SAPC  C310 4537   0.961   4.065   5.599 -0.3069 -0.0907 -0.1957
   59SAPC  H10X 4538   1.063   4.090   5.563 -0.2744  1.7734  1.0738
   59SAPC  H10Y 4539   0.915   4.160   5.632  0.4888  0.7941 -1.5338
   59SAPC  C311 4540   0.868   4.014   5.489  0.0984 -0.4836  0.1022
   59SAPC  H11X 4541   0.834   4.099   5.426 -0.4600 -0.6207  0.2085
   59SAPC  H11Y 4542   0.788   3.963   5.546  1.0367  1.5239  3.5215
   59SAPC  C312 4543   0.943   3.919   5.397  0.1468  0.5320  0.7879
   59SAPC  H12X 4544   1.002   3.850   5.461  0.3126  0.0478  0.1177
   59SAPC  H12Y 4545   1.007   3.983   5.334  0.5316 -0.7050 -0.1125
   59SAPC  C313 4546   0.848   3.824   5.308  0.0847  0.3745 -0.4560
   59SAPC  H13X 4547   0.783   3.901   5.263  2.6777  2.1571 -1.3648
   59SAPC  H13Y 4548   0.787   3.756   5.373 -3.1308  0.7524 -2.8426
   59SAPC  C314 4549   0.933   3.744   5.219 -0.3157  0.4735  0.0750
   59SAPC  H14X 4550   1.016   3.704   5.280 -1.6632  1.7032  2.9053
   59SAPC  H14Y 4551   0.988   3.811   5.149  1.9964 -0.5531  0.8301
   59SAPC  C315 4552   0.850   3.636   5.153  0.1895 -0.5747  0.3864
   59SAPC  H15X 4553   0.756   3.678   5.111  1.3519  0.5586 -1.1937
   59SAPC  H15Y 4554   0.809   3.561   5.224  1.9843 -1.4407  0.5666
   59SAPC  C316 4555   0.935   3.586   5.041 -0.7653  0.0315 -0.3724
   59SAPC  H16X 4556   0.965   3.665   4.969  1.6611 -0.5272 -0.0515
   59SAPC  H16Y 4557   0.878   3.517   4.976  0.8760 -2.0962  0.3619
   59SAPC  C317 4558   1.068   3.528   5.084  0.1564  0.0832 -0.1680
   59SAPC  H17X 4559   1.144   3.604   5.113 -0.3181 -0.4863  2.9980
   59SAPC  H17Y 4560   1.113   3.483   4.993  0.7390  1.3781 -0.5429
   59SAPC  C318 4561   1.060   3.424   5.200 -0.2473 -0.2275 -0.2143
   59SAPC  H18X 4562   0.989   3.345   5.169  0.5622 -0.3600 -1.8233
   59SAPC  H18Y 4563   1.034   3.463   5.301  0.6230  0.7303 -0.3347
   59SAPC  H18Z 4564   1.163   3.381   5.204 -0.1842 -0.0638 -0.0262
   60SAPC     N 4565   3.286   6.593   7.482  0.0737 -0.4296 -0.0974
   60SAPC   C12 4566   3.300   6.698   7.595  0.4305  0.6305  0.3007
   60SAPC  H12A 4567   3.406   6.698   7.616  0.3096 -0.9601  1.1015
   60SAPC  H12B 4568   3.245   6.667   7.682  1.0319 -1.2901  0.0417
   60SAPC   C13 4569   3.143   6.566   7.455 -0.4323  0.1084  0.5093
   60SAPC  H13A 4570   3.105   6.647   7.395  1.3688  0.7732  0.2115
   60SAPC  H13B 4571   3.129   6.478   7.395 -1.3007 -0.4962  1.5582
   60SAPC  H13C 4572   3.076   6.558   7.540 -0.3930  2.5053  0.8526
   60SAPC   C14 4573   3.352   6.643   7.359 -0.5072  0.5289  0.2080
   60SAPC  H14A 4574   3.318   6.739   7.323 -0.2775  0.8383  0.7926
   60SAPC  H14B 4575   3.457   6.662   7.378 -0.3290  0.9138 -1.0303
   60SAPC  H14C 4576   3.352   6.569   7.281  1.6259 -0.0408  0.6644
   60SAPC   C15 4577   3.340   6.464   7.521 -0.6573 -0.2619 -0.2254
   60SAPC  H15A 4578   3.306   6.418   7.612  0.6599 -0.2417  0.3030
   60SAPC  H15B 4579   3.310   6.395   7.444 -4.7602  0.8402  0.1382
   60SAPC  H15C 4580   3.448   6.461   7.511 -0.7897  1.5183 -3.3980
   60SAPC   C11 4581   3.255   6.842   7.571 -0.2451  0.3035 -0.0944
   60SAPC  H11A 4582   3.315   6.890   7.491 -1.2168  2.5384  0.4196
   60SAPC  H11B 4583   3.279   6.905   7.660  1.5650 -2.2395  1.3363
   60SAPC     P 4584   3.052   6.987   7.512  0.2468  0.1434 -0.0463
   60SAPC   O13 4585   2.920   6.963   7.447 -0.3447 -0.0924  0.2971
   60SAPC   O14 4586   3.051   7.066   7.636  0.4450 -0.9231 -0.5760
   60SAPC   O12 4587   3.111   6.840   7.543 -0.5808 -0.3769 -0.1728
   60SAPC   O11 4588   3.161   7.054   7.410  0.2107 -0.0417  0.7804
   60SAPC    C1 4589   3.161   7.014   7.276  0.4054 -0.1358 -0.3222
   60SAPC    HA 4590   3.266   7.033   7.245 -0.0088  0.5878 -1.3297
   60SAPC    HB 4591   3.142   6.905   7.267 -0.5299  0.0235 -0.2981
   60SAPC    C2 4592   3.065   7.110   7.202  0.1379  0.3666 -0.1406
   60SAPC    HS 4593   2.965   7.106   7.251 -0.1489  0.7470 -0.6810
   60SAPC   O21 4594   3.069   7.072   7.065 -0.0256  0.2416 -0.0348
   60SAPC   C21 4595   2.973   7.121   6.989  0.0435  0.3823  0.5486
   60SAPC   O22 4596   2.889   7.205   7.026 -0.6141  0.1525 -0.3018
   60SAPC   C22 4597   2.987   7.056   6.857 -0.2278  0.0227  1.1614
   60SAPC   H2R 4598   3.093   7.036   6.833 -0.4924  1.4731 -1.5504
   60SAPC   H2S 4599   2.940   6.956   6.848  1.2101 -0.7061  1.5693
   60SAPC    C3 4600   3.116   7.257   7.214  0.0202  0.0912  0.5900
   60SAPC    HX 4601   3.156   7.277   7.316  1.2257 -0.2263  0.1958
   60SAPC    HY 4602   3.024   7.317   7.201 -0.3500 -0.7635 -1.0042
   60SAPC   O31 4603   3.206   7.292   7.108 -0.2785  0.4681 -0.0107
   60SAPC   C31 4604   3.241   7.418   7.107 -0.1457 -0.0454  0.4262
   60SAPC   O32 4605   3.198   7.505   7.172  0.6168 -0.3191  0.2995
   60SAPC   C32 4606   3.329   7.448   6.990 -0.0819 -0.1518 -0.1980
   60SAPC   H2X 4607   3.381   7.356   6.957  0.1413 -1.3286  3.0648
   60SAPC   H2Y 4608   3.417   7.496   7.038  1.0842 -4.0628  2.0152
   60SAPC   C23 4609   2.936   7.153   6.736 -0.3151 -0.1343 -0.2754
   60SAPC   H3R 4610   2.970   7.257   6.758 -0.8813  0.4618 -2.0953
   60SAPC   H3S 4611   2.825   7.156   6.743 -0.6258 -1.0110 -3.3756
   60SAPC   C24 4612   2.986   7.120   6.596  0.6810  0.2363 -1.1031
   60SAPC   H4R 4613   3.096   7.112   6.612  0.7021  1.5726 -0.4058
   60SAPC   H4S 4614   2.950   7.203   6.532  1.0640 -0.3585 -2.0971
   60SAPC   C25 4615   2.932   6.984   6.553 -0.0612 -0.5246 -0.3122
   60SAPC   H5R 4616   2.869   6.937   6.630 -2.0482 -0.2416 -1.6986
   60SAPC   C26 4617   2.928   6.944   6.422 -0.4947  0.2678 -0.2579
   60SAPC   H6R 4618   2.885   6.846   6.401 -0.9812  0.4692 -0.2091
   60SAPC   C27 4619   3.008   6.997   6.302 -0.5274 -0.1767  0.1418
   60SAPC   H7R 4620   3.036   6.912   6.236  1.2782 -0.1461  0.8089
   60SAPC   H7S 4621   3.109   7.023   6.341 -0.3292 -0.6546 -0.0439
   60SAPC   C28 4622   2.958   7.116   6.226  0.5619  0.2220 -0.3455
   60SAPC   H8R 4623   2.937   7.209   6.282 -1.7329 -0.9625  0.9121
   60SAPC   C29 4624   2.958   7.137   6.093 -0.0187  0.3812  0.5535
   60SAPC   H9R 4625   2.928   7.236   6.058  0.9185  0.5123  0.0965
   60SAPC  C210 4626   3.001   7.029   5.994  1.0702  0.4002  0.3997
   60SAPC  H10R 4627   2.906   6.975   5.970  0.3104  1.4369  0.9875
   60SAPC  H10S 4628   3.060   6.956   6.053 -0.7301 -0.9659  0.6050
   60SAPC  C211 4629   3.074   7.057   5.871  0.0037 -0.3976  0.4990
   60SAPC  H11R 4630   3.183   7.049   5.870 -0.0529 -1.6050 -1.2235
   60SAPC  C212 4631   3.013   7.112   5.763  0.0279  0.3393 -0.2723
   60SAPC  H12R 4632   3.069   7.127   5.669  2.7207 -2.1233  0.8061
   60SAPC  C213 4633   2.865   7.144   5.739 -0.7263 -0.6955  0.1270
   60SAPC  H13R 4634   2.867   7.255   5.731 -0.0379 -0.6039  1.3330
   60SAPC  H13S 4635   2.813   7.122   5.835 -1.4918 -1.0155 -0.3536
   60SAPC  C214 4636   2.809   7.066   5.624 -0.7480 -0.1764  0.1040
   60SAPC  H14R 4637   2.827   6.958   5.625 -2.4114 -0.4850  1.1102
   60SAPC  C215 4638   2.754   7.114   5.511 -0.1284 -0.0274  0.6583
   60SAPC  H15R 4639   2.706   7.045   5.439  0.2361  1.0457 -0.6608
   60SAPC  C216 4640   2.714   7.253   5.474  0.7611  0.2286 -0.7047
   60SAPC  H16R 4641   2.715   7.314   5.567  0.9263 -1.4104  0.4036
   60SAPC  H16S 4642   2.607   7.246   5.445  0.3062  1.1723  0.6269
   60SAPC  C217 4643   2.785   7.313   5.352 -0.1372  0.9544 -0.3983
   60SAPC  H17R 4644   2.892   7.328   5.378  0.0260  0.0308 -0.5216
   60SAPC  H17S 4645   2.739   7.412   5.328 -3.3604 -0.3207  0.0102
   60SAPC  C218 4646   2.776   7.227   5.219 -0.1915  0.1445 -0.2561
   60SAPC  H18R 4647   2.817   7.124   5.233 -0.5464  0.0790  0.3478
   60SAPC  H18S 4648   2.844   7.270   5.143 -0.6027  0.1967 -0.5995
   60SAPC  C219 4649   2.628   7.186   5.175 -0.2701 -0.1953  0.0194
   60SAPC  H19R 4650   2.563   7.138   5.252  0.2055  0.0423  0.5736
   60SAPC  H19S 4651   2.638   7.105   5.099 -1.2229 -1.2410  0.9636
   60SAPC  C220 4652   2.549   7.304   5.128 -0.1353 -0.2322  0.5345
   60SAPC  H20R 4653   2.528   7.381   5.205  0.2857 -0.3144  0.7354
   60SAPC  H20S 4654   2.458   7.271   5.075  0.3574  0.9660 -1.1424
   60SAPC  H20T 4655   2.597   7.359   5.045 -2.3830  3.6007  1.5059
   60SAPC   C33 4656   3.263   7.528   6.872 -0.2258 -0.0319 -0.2041
   60SAPC   H3X 4657   3.346   7.594   6.838  0.0418 -0.2285  0.0584
   60SAPC   H3Y 4658   3.195   7.610   6.900  0.6197  0.6323 -0.0439
   60SAPC   C34 4659   3.223   7.441   6.755  0.4688  0.0879  0.2186
   60SAPC   H4X 4660   3.156   7.355   6.772 -0.8723  0.7842 -1.3465
   60SAPC   H4Y 4661   3.316   7.402   6.707  1.3783 -1.7099  3.1416
   60SAPC   C35 4662   3.153   7.524   6.647  0.4998 -0.2470 -0.5103
   60SAPC   H5X 4663   3.222   7.611   6.639  0.9993 -0.1997  2.9655
   60SAPC   H5Y 4664   3.050   7.552   6.676  0.9303  1.8290 -0.7914
   60SAPC   C36 4665   3.138   7.453   6.516 -0.8645 -0.2176  0.3413
   60SAPC   H6X 4666   3.061   7.374   6.519 -1.4142  0.2028 -1.3665
   60SAPC   H6Y 4667   3.235   7.403   6.494 -0.8801 -0.8978  1.7569
   60SAPC   C37 4668   3.100   7.553   6.404 -0.6633  0.4570 -0.5832
   60SAPC   H7X 4669   3.171   7.638   6.401  1.1523 -0.7403  2.7924
   60SAPC   H7Y 4670   2.997   7.592   6.416 -2.0109 -1.9970 -2.9143
   60SAPC   C38 4671   3.097   7.482   6.272 -0.1105 -0.0189  0.3393
   60SAPC   H8X 4672   3.010   7.413   6.263 -0.7354  0.9841 -1.7038
   60SAPC   H8Y 4673   3.187   7.418   6.272  0.5720  0.8576  2.2783
   60SAPC   C39 4674   3.098   7.592   6.165  0.1155  0.2544  0.5759
   60SAPC   H9X 4675   3.193   7.651   6.166 -0.5518  1.3632  1.5425
   60SAPC   H9Y 4676   3.030   7.673   6.198  0.7398  0.1841  2.1383
   60SAPC  C310 4677   3.061   7.550   6.021  0.4990  0.6483  0.4253
   60SAPC  H10X 4678   2.954   7.519   6.022  1.4017 -3.1216 -1.2966
   60SAPC  H10Y 4679   3.122   7.462   5.990 -0.3857  0.1506  0.0821
   60SAPC  C311 4680   3.087   7.656   5.914 -0.0132 -0.0721 -0.1733
   60SAPC  H11X 4681   3.198   7.645   5.910  0.0269  0.4976 -0.6640
   60SAPC  H11Y 4682   3.044   7.757   5.931  0.2431  0.2667 -1.4325
   60SAPC  C312 4683   3.027   7.615   5.780  0.7293  0.2196  0.3185
   60SAPC  H12X 4684   2.919   7.640   5.789  0.2770 -0.9650 -1.4285
   60SAPC  H12Y 4685   3.034   7.507   5.757  1.0464  0.2464  0.2770
   60SAPC  C313 4686   3.085   7.695   5.661 -0.2620  0.0844 -0.3120
   60SAPC  H13X 4687   3.188   7.656   5.645  0.1486  0.7307  0.6668
   60SAPC  H13Y 4688   3.098   7.801   5.692  1.3699 -1.0745  3.4755
   60SAPC  C314 4689   2.995   7.668   5.528 -0.2790 -0.2749 -0.3979
   60SAPC  H14X 4690   2.888   7.696   5.540 -0.7627 -1.9554 -0.5331
   60SAPC  H14Y 4691   2.984   7.558   5.521  1.4208 -0.4580 -0.7404
   60SAPC  C315 4692   3.054   7.712   5.391  0.1523  0.1847  0.0219
   60SAPC  H15X 4693   3.160   7.678   5.392 -0.5884 -3.0502 -4.1204
   60SAPC  H15Y 4694   3.053   7.823   5.395 -0.0063  0.1574  2.3997
   60SAPC  C316 4695   2.976   7.651   5.276 -0.0050 -0.3629 -0.1131
   60SAPC  H16X 4696   2.872   7.686   5.296  0.8909  1.1020  2.4870
   60SAPC  H16Y 4697   2.970   7.540   5.275 -2.2989 -0.2868  0.4743
   60SAPC  C317 4698   3.019   7.692   5.132  0.0149 -0.2437 -0.8597
   60SAPC  H17X 4699   3.111   7.636   5.102 -0.8355 -1.1384 -1.8789
   60SAPC  H17Y 4700   3.034   7.802   5.134  0.7838 -0.3245  1.9683
   60SAPC  C318 4701   2.913   7.660   5.031  0.2075  0.0727  0.7415
   60SAPC  H18X 4702   2.807   7.686   5.054 -0.1166  0.4081 -1.0492
   60SAPC  H18Y 4703   2.903   7.550   5.018 -1.3475 -0.5951  5.3987
   60SAPC  H18Z 4704   2.956   7.697   4.936  0.3289 -2.4865 -0.2769
   61SAPC     N 4705   6.285   0.915   6.834  0.4977 -0.5994 -0.6997
   61SAPC   C12 4706   6.422   0.872   6.787  0.3157  0.3145  0.2880
   61SAPC  H12A 4707   6.466   0.955   6.734 -0.3243  2.0297  2.2911
   61SAPC  H12B 4708   6.407   0.793   6.716 -1.4696  0.7658  0.1192
   61SAPC   C13 4709   6.218   0.956   6.708 -0.1160 -0.1903  0.5683
   61SAPC  H13A 4710   6.227   0.892   6.622  0.1961  1.2551 -0.5292
   61SAPC  H13B 4711   6.111   0.949   6.720 -0.0175 -2.3997  0.4402
   61SAPC  H13C 4712   6.230   1.059   6.676 -4.3596  1.0527  2.2480
   61SAPC   C14 4713   6.217   0.795   6.894  0.3875 -0.2614  0.3162
   61SAPC  H14A 4714   6.286   0.756   6.968  0.4190 -0.4146  0.2044
   61SAPC  H14B 4715   6.121   0.827   6.931  1.3559  3.0770  0.3553
   61SAPC  H14C 4716   6.203   0.710   6.830 -0.7928  0.4893 -0.4678
   61SAPC   C15 4717   6.290   1.031   6.929  0.6620 -0.0876  0.0563
   61SAPC  H15A 4718   6.358   1.005   7.009  3.2287 -0.7620 -2.1984
   61SAPC  H15B 4719   6.336   1.118   6.885  1.1818 -1.2095 -1.7486
   61SAPC  H15C 4720   6.191   1.053   6.965  1.2361 -1.5316  2.7916
   61SAPC   C11 4721   6.516   0.813   6.900 -0.3942 -0.2559 -0.3102
   61SAPC  H11A 4722   6.527   0.885   6.984 -3.4179 -1.0437  0.8713
   61SAPC  H11B 4723   6.614   0.803   6.847  0.2338 -1.8516  1.0455
   61SAPC     P 4724   6.506   0.564   6.848  0.4872 -0.4128  0.3289
   61SAPC   O13 4725   6.656   0.555   6.840  0.6189 -0.3209  0.6585
   61SAPC   O14 4726   6.432   0.446   6.900  0.4918  0.0341 -0.0881
   61SAPC   O12 4727   6.482   0.689   6.941 -0.1671  0.3905 -0.4110
   61SAPC   O11 4728   6.456   0.601   6.703 -0.5204 -0.3795 -0.3614
   61SAPC    C1 4729   6.386   0.508   6.630  0.7798  0.2378 -0.9969
   61SAPC    HA 4730   6.416   0.405   6.656  1.8926  0.8192  0.1373
   61SAPC    HB 4731   6.276   0.506   6.638  0.5880 -0.4902 -3.1451
   61SAPC    C2 4732   6.409   0.531   6.474  0.1813 -0.0162  0.7272
   61SAPC    HS 4733   6.379   0.437   6.423 -0.6976 -0.4205  1.9382
   61SAPC   O21 4734   6.544   0.569   6.438  0.0950 -0.3539  0.2926
   61SAPC   C21 4735   6.632   0.471   6.420 -0.8122  0.1398 -0.1847
   61SAPC   O22 4736   6.610   0.350   6.431 -0.2356 -0.2983  0.0571
   61SAPC   C22 4737   6.770   0.532   6.390 -0.0960 -1.1130 -0.1488
   61SAPC   H2R 4738   6.792   0.609   6.466  0.1422 -0.0048 -1.3076
   61SAPC   H2S 4739   6.857   0.462   6.383  1.7844  1.0946 -0.1416
   61SAPC    C3 4740   6.312   0.649   6.419 -0.1338 -0.5706 -0.0770
   61SAPC    HX 4741   6.335   0.659   6.311  1.0115  1.3946  0.2991
   61SAPC    HY 4742   6.347   0.747   6.458  0.1105  1.6678 -5.1112
   61SAPC   O31 4743   6.178   0.617   6.433  0.1676 -0.4467 -0.7421
   61SAPC   C31 4744   6.094   0.719   6.447  1.0418 -0.2018  0.0976
   61SAPC   O32 4745   6.123   0.837   6.461 -0.3712 -0.0955  0.0212
   61SAPC   C32 4746   5.954   0.669   6.428  0.0737 -0.1184  0.3674
   61SAPC   H2X 4747   5.881   0.742   6.469  0.3195 -0.1378  0.8420
   61SAPC   H2Y 4748   5.943   0.574   6.485 -0.0429 -1.9820 -2.5200
   61SAPC   C23 4749   6.753   0.618   6.260  0.1963  0.6747 -0.0550
   61SAPC   H3R 4750   6.812   0.711   6.269  1.3059  0.0052 -0.2642
   61SAPC   H3S 4751   6.654   0.668   6.254 -0.5230 -0.7995 -1.3509
   61SAPC   C24 4752   6.801   0.551   6.127 -0.1971  0.5644 -0.2697
   61SAPC   H4R 4753   6.768   0.445   6.129 -1.0186  0.8225  1.1106
   61SAPC   H4S 4754   6.912   0.552   6.125 -0.1907 -0.3630 -0.7499
   61SAPC   C25 4755   6.758   0.619   6.002  0.7514 -0.4821  0.0163
   61SAPC   H5R 4756   6.836   0.682   5.956  2.3004 -2.5395 -0.3042
   61SAPC   C26 4757   6.632   0.619   5.945 -0.5310 -0.1299  0.1684
   61SAPC   H6R 4758   6.618   0.675   5.852 -2.5663 -1.5314 -0.4538
   61SAPC   C27 4759   6.504   0.565   5.998 -0.1074 -0.0380  0.0206
   61SAPC   H7R 4760   6.527   0.494   6.080  2.7594  1.5612  0.7534
   61SAPC   H7S 4761   6.460   0.510   5.912  0.9316 -1.0435  0.1042
   61SAPC   C28 4762   6.402   0.675   6.041 -0.1530  0.0124 -0.8394
   61SAPC   H8R 4763   6.432   0.765   6.096 -1.0459 -0.7157  0.9140
   61SAPC   C29 4764   6.271   0.676   6.012 -0.1542 -0.1628  0.2511
   61SAPC   H9R 4765   6.206   0.759   6.044  0.6547  0.4552  0.3370
   61SAPC  C210 4766   6.196   0.572   5.930 -0.1280 -0.8706  0.8326
   61SAPC  H10R 4767   6.104   0.530   5.975 -0.9562  1.5099  1.4745
   61SAPC  H10S 4768   6.261   0.483   5.914  1.5051  0.1164  1.6718
   61SAPC  C211 4769   6.160   0.630   5.795 -0.8131 -0.4324  0.1760
   61SAPC  H11R 4770   6.226   0.714   5.769 -0.1190 -0.8542  0.5393
   61SAPC  C212 4771   6.077   0.580   5.701 -0.5762  0.6445 -0.2221
   61SAPC  H12R 4772   6.073   0.623   5.599  0.5111 -2.7716 -1.8382
   61SAPC  C213 4773   5.999   0.452   5.720  0.1083 -0.7365 -0.2931
   61SAPC  H13R 4774   6.056   0.383   5.787 -0.5994 -1.8723 -0.8275
   61SAPC  H13S 4775   6.005   0.398   5.624 -0.9254 -0.3667 -0.5786
   61SAPC  C214 4776   5.857   0.469   5.767  0.2781  0.3334 -0.5798
   61SAPC  H14R 4777   5.841   0.434   5.870  2.7869 -0.0065 -0.2384
   61SAPC  C215 4778   5.746   0.509   5.700  0.5214  0.2614  0.4736
   61SAPC  H15R 4779   5.652   0.514   5.756 -1.5343 -2.5422 -2.4046
   61SAPC  C216 4780   5.739   0.552   5.557 -0.2818 -1.1192  0.3147
   61SAPC  H16R 4781   5.836   0.547   5.503 -0.3358  1.5110 -0.1558
   61SAPC  H16S 4782   5.716   0.661   5.555 -0.0669 -1.0818 -1.1897
   61SAPC  C217 4783   5.630   0.478   5.478 -0.0186 -0.0143 -0.0922
   61SAPC  H17R 4784   5.586   0.549   5.404  0.5067 -0.1257 -0.5135
   61SAPC  H17S 4785   5.545   0.452   5.545 -0.8691  1.7734 -0.4100
   61SAPC  C218 4786   5.670   0.348   5.410 -0.5343  0.8976 -0.8614
   61SAPC  H18R 4787   5.581   0.290   5.379 -0.2659 -1.2767  2.0868
   61SAPC  H18S 4788   5.728   0.292   5.487 -1.1032  1.0490 -0.3249
   61SAPC  C219 4789   5.745   0.376   5.278 -0.0538 -0.0652  0.1290
   61SAPC  H19R 4790   5.781   0.275   5.246 -2.4921 -1.0670  0.2947
   61SAPC  H19S 4791   5.841   0.430   5.292  0.3939 -1.0366  1.0192
   61SAPC  C220 4792   5.664   0.427   5.162  0.3009  0.0287 -0.3555
   61SAPC  H20R 4793   5.559   0.390   5.167  1.1518 -2.3421  1.6171
   61SAPC  H20S 4794   5.711   0.405   5.065  0.1777  0.4436 -0.5143
   61SAPC  H20T 4795   5.661   0.538   5.175 -0.0226 -0.0245  0.0487
   61SAPC   C33 4796   5.920   0.649   6.278  0.2505 -0.1147  0.6890
   61SAPC   H3X 4797   5.816   0.612   6.263  0.2273 -0.2282  1.1264
   61SAPC   H3Y 4798   5.993   0.573   6.242 -0.5269 -0.9890  0.9045
   61SAPC   C34 4799   5.940   0.788   6.207 -0.2498  0.3888 -0.1393
   61SAPC   H4X 4800   6.049   0.798   6.192 -0.1303 -2.4560 -1.7992
   61SAPC   H4Y 4801   5.904   0.874   6.267  0.1720 -0.6322  1.6477
   61SAPC   C35 4802   5.879   0.786   6.062  0.1264 -0.1298 -0.1946
   61SAPC   H5X 4803   5.771   0.777   6.084  0.6174 -0.6774  2.2647
   61SAPC   H5Y 4804   5.901   0.688   6.013  1.0654  1.4924 -3.3223
   61SAPC   C36 4805   5.939   0.893   5.974  0.0927  0.0396  0.5559
   61SAPC   H6X 4806   6.049   0.887   5.987 -0.0696  0.9618  2.7432
   61SAPC   H6Y 4807   5.907   0.989   6.020  0.9070  0.4688  0.2416
   61SAPC   C37 4808   5.895   0.876   5.824  0.5146 -0.3303  0.4307
   61SAPC   H7X 4809   5.792   0.916   5.812  0.7900  0.3603  0.3508
   61SAPC   H7Y 4810   5.881   0.771   5.790 -0.7219 -0.2949  0.7772
   61SAPC   C38 4811   6.003   0.951   5.743 -0.5593  0.8688  1.3824
   61SAPC   H8X 4812   6.097   0.892   5.747  0.3341  1.6549 -3.0381
   61SAPC   H8Y 4813   6.025   1.053   5.780  0.7951  0.2975  2.2085
   61SAPC   C39 4814   5.969   0.956   5.600 -0.7606 -0.6220 -0.2145
   61SAPC   H9X 4815   5.877   1.019   5.603 -1.1642 -1.1928 -0.2944
   61SAPC   H9Y 4816   5.958   0.854   5.555 -1.7660 -0.4237 -0.4418
   61SAPC  C310 4817   6.067   1.036   5.520 -0.6721  0.6718  0.3735
   61SAPC  H10X 4818   6.170   1.003   5.547 -0.2844  0.4564 -1.2586
   61SAPC  H10Y 4819   6.077   1.143   5.546  0.0282  0.5189  0.7583
   61SAPC  C311 4820   6.058   1.016   5.369 -0.1550 -0.2074  0.0720
   61SAPC  H11X 4821   6.088   0.911   5.353 -0.1312 -0.1782 -0.0772
   61SAPC  H11Y 4822   6.134   1.086   5.329  0.2570 -0.3366  0.6072
   61SAPC  C312 4823   5.928   1.050   5.298  0.1082  0.1404 -0.4508
   61SAPC  H12X 4824   5.945   1.080   5.193 -0.6887  2.0657 -0.0679
   61SAPC  H12Y 4825   5.892   1.149   5.334  0.6310  0.5102 -0.9262
   61SAPC  C313 4826   5.819   0.943   5.297 -0.0482  0.0075 -0.1257
   61SAPC  H13X 4827   5.716   0.972   5.266  0.1310  1.8989  0.9435
   61SAPC  H13Y 4828   5.801   0.913   5.402  0.6415 -0.5979 -0.1750
   61SAPC  C314 4829   5.862   0.829   5.211  0.2068 -0.3733 -0.7226
   61SAPC  H14X 4830   5.819   0.732   5.245  2.1419 -2.5592 -3.9042
   61SAPC  H14Y 4831   5.970   0.812   5.233 -0.1284 -0.6515  0.8910
   61SAPC  C315 4832   5.832   0.842   5.064  0.0078  0.1130  0.5075
   61SAPC  H15X 4833   5.892   0.926   5.024 -0.9365  0.4598 -0.2445
   61SAPC  H15Y 4834   5.725   0.869   5.047  0.9296  4.0034  0.0799
   61SAPC  C316 4835   5.881   0.709   4.997  0.0400 -0.3664 -0.0290
   61SAPC  H16X 4836   5.799   0.634   5.006 -0.2194  0.1093  2.1499
   61SAPC  H16Y 4837   5.974   0.678   5.050  0.0565 -1.8166 -0.8520
   61SAPC  C317 4838   5.919   0.732   4.852  0.8276 -0.1722 -0.4945
   61SAPC  H17X 4839   6.004   0.803   4.841 -1.3485  2.5014 -1.2694
   61SAPC  H17Y 4840   5.832   0.775   4.798  1.5609 -1.4083 -2.7991
   61SAPC  C318 4841   5.936   0.597   4.775 -0.3443 -0.0703  0.0184
   61SAPC  H18X 4842   5.936   0.617   4.666  2.8350 -1.7030 -0.4257
   61SAPC  H18Y 4843   5.855   0.527   4.807 -0.3325 -0.0451  0.1045
   61SAPC  H18Z 4844   6.029   0.543   4.803 -0.9171  0.1698  2.6236
   62SAPC     N 4845   1.233   1.077   6.848  0.1630 -0.7160 -0.6885
   62SAPC   C12 4846   1.160   0.947   6.871  0.2498  0.0014 -0.6270
   62SAPC  H12A 4847   1.160   0.936   6.979 -2.9018  0.3746 -0.5160
   62SAPC  H12B 4848   1.208   0.863   6.822  0.1698 -0.3180 -0.1682
   62SAPC   C13 4849   1.158   1.208   6.887  0.1036  0.3670  0.2969
   62SAPC  H13A 4850   1.209   1.293   6.844  1.1040 -0.6799 -0.6547
   62SAPC  H13B 4851   1.057   1.213   6.848 -0.5043  0.6799  1.8358
   62SAPC  H13C 4852   1.158   1.218   6.995  1.4498  1.7215  0.2130
   62SAPC   C14 4853   1.361   1.081   6.924  0.1965 -0.4591  0.0389
   62SAPC  H14A 4854   1.397   1.183   6.914 -0.1219 -0.1872  1.3790
   62SAPC  H14B 4855   1.332   1.054   7.025 -1.3386  0.1961 -0.1976
   62SAPC  H14C 4856   1.437   1.012   6.891  3.2800  2.7534 -0.2136
   62SAPC   C15 4857   1.265   1.080   6.705  0.5366 -0.0689  0.4066
   62SAPC  H15A 4858   1.175   1.076   6.646  0.4722  0.3388  0.4722
   62SAPC  H15B 4859   1.320   1.169   6.676  1.4842 -0.0950  2.0004
   62SAPC  H15C 4860   1.325   0.993   6.681  0.3809 -0.7526  2.3191
   62SAPC   C11 4861   1.014   0.950   6.829 -0.0370 -0.5659 -0.3453
   62SAPC  H11A 4862   0.952   1.026   6.881 -0.8649 -2.0572  0.9229
   62SAPC  H11B 4863   0.962   0.854   6.849 -0.1833 -0.7244 -1.4193
   62SAPC     P 4864   1.000   0.858   6.585 -0.4541 -0.5709 -0.1608
   62SAPC   O13 4865   1.044   0.735   6.653  0.3490 -0.7473 -0.1579
   62SAPC   O14 4866   0.876   0.870   6.505  0.3324 -0.3699  0.2740
   62SAPC   O12 4867   0.990   0.979   6.691  0.5779  0.3224  0.2487
   62SAPC   O11 4868   1.120   0.921   6.502  0.5768  0.1652 -0.6333
   62SAPC    C1 4869   1.190   0.859   6.399 -0.4226  0.0084  0.2770
   62SAPC    HA 4870   1.298   0.877   6.415 -0.1413 -0.5041 -0.9377
   62SAPC    HB 4871   1.187   0.748   6.408 -1.8465  0.0127  0.1085
   62SAPC    C2 4872   1.154   0.923   6.262  0.3421 -0.3200 -0.1369
   62SAPC    HS 4873   1.147   1.033   6.276 -0.5957 -0.4111  0.1820
   62SAPC   O21 4874   1.025   0.864   6.232  0.3710 -0.4866  0.6130
   62SAPC   C21 4875   0.939   0.947   6.180 -0.1828 -0.2019  1.2995
   62SAPC   O22 4876   0.956   1.061   6.142 -0.0670  0.3044  0.5898
   62SAPC   C22 4877   0.805   0.873   6.167  0.2168 -0.6234 -0.6062
   62SAPC   H2R 4878   0.834   0.780   6.114 -0.2037 -1.1175  0.0213
   62SAPC   H2S 4879   0.771   0.845   6.269 -2.6212  1.0983 -0.9662
   62SAPC    C3 4880   1.257   0.894   6.159  0.0414 -0.1749  0.3103
   62SAPC    HX 4881   1.217   0.928   6.061 -1.7807 -1.2073  0.6580
   62SAPC    HY 4882   1.257   0.783   6.148 -0.0046 -0.3575  1.9032
   62SAPC   O31 4883   1.389   0.927   6.195  0.0964  0.1650  0.3979
   62SAPC   C31 4884   1.432   1.057   6.186  0.0100  0.0331  0.2948
   62SAPC   O32 4885   1.369   1.152   6.151 -0.1663 -0.8620 -0.1893
   62SAPC   C32 4886   1.578   1.068   6.228  0.2611 -0.3148  0.0207
   62SAPC   H2X 4887   1.614   0.976   6.279 -1.9819 -0.4895  1.4138
   62SAPC   H2Y 4888   1.599   1.159   6.288 -1.3247 -0.8812  1.4925
   62SAPC   C23 4889   0.692   0.951   6.101  0.7052 -0.2026  0.3355
   62SAPC   H3R 4890   0.687   1.054   6.143  2.2027 -1.1038  2.9250
   62SAPC   H3S 4891   0.600   0.890   6.108 -0.4041  1.3424 -0.3521
   62SAPC   C24 4892   0.724   0.947   5.948  0.6764  0.0299 -0.6423
   62SAPC   H4R 4893   0.735   0.842   5.915  0.9290 -0.3509  0.6047
   62SAPC   H4S 4894   0.824   0.992   5.929  0.3392  1.8396  1.4419
   62SAPC   C25 4895   0.630   1.017   5.851  0.1006  0.3226 -0.4318
   62SAPC   H5R 4896   0.560   1.091   5.892 -0.7769 -0.4942 -0.4092
   62SAPC   C26 4897   0.646   1.002   5.718  0.4893  0.1768 -0.3819
   62SAPC   H6R 4898   0.576   1.052   5.650 -0.6201 -1.1402 -0.2601
   62SAPC   C27 4899   0.746   0.926   5.639 -0.8426 -0.1341 -0.0575
   62SAPC   H7R 4900   0.695   0.895   5.545 -1.0215  1.6601 -0.5852
   62SAPC   H7S 4901   0.773   0.836   5.699  1.5466  1.1529  0.9309
   62SAPC   C28 4902   0.857   1.029   5.616  0.2439  0.2807 -0.2413
   62SAPC   H8R 4903   0.932   1.040   5.695 -1.0347  0.3857  0.9976
   62SAPC   C29 4904   0.884   1.108   5.507 -0.1242 -0.0777 -0.3551
   62SAPC   H9R 4905   0.958   1.187   5.527 -2.4496  1.4952  3.0853
   62SAPC  C210 4906   0.800   1.111   5.381 -0.1866 -0.0949  0.0838
   62SAPC  H10R 4907   0.696   1.119   5.420 -0.1367  0.5391  0.0859
   62SAPC  H10S 4908   0.807   1.010   5.335 -4.5313 -0.9581  0.8973
   62SAPC  C211 4909   0.831   1.224   5.281 -0.1741  0.1154 -0.5232
   62SAPC  H11R 4910   0.790   1.323   5.308 -1.9020 -0.3571 -1.2771
   62SAPC  C212 4911   0.916   1.229   5.175  0.5630  0.0368  0.3226
   62SAPC  H12R 4912   0.924   1.322   5.117 -1.5472  0.9922  1.4675
   62SAPC  C213 4913   1.002   1.109   5.121  0.3623  0.2573  0.3085
   62SAPC  H13R 4914   1.025   1.128   5.013 -2.3212  0.6456 -0.2618
   62SAPC  H13S 4915   0.928   1.027   5.116 -0.1453  0.5898  1.8376
   62SAPC  C214 4916   1.116   1.079   5.209 -0.0422  0.3879 -0.0699
   62SAPC  H14R 4917   1.141   1.157   5.282 -1.1883  1.8071 -1.1315
   62SAPC  C215 4918   1.200   0.974   5.189 -0.2987  1.0981 -0.0153
   62SAPC  H15R 4919   1.292   0.962   5.249  0.1823 -3.4690 -1.2539
   62SAPC  C216 4920   1.191   0.866   5.082  0.2146 -0.7240 -0.1364
   62SAPC  H16R 4921   1.292   0.869   5.035  0.8368  2.0000  1.1540
   62SAPC  H16S 4922   1.123   0.907   5.005  2.9177  1.7317 -1.4397
   62SAPC  C217 4923   1.159   0.726   5.127  0.0950  0.0188 -0.0456
   62SAPC  H17R 4924   1.058   0.726   5.175 -0.9982  2.1268 -2.1192
   62SAPC  H17S 4925   1.234   0.689   5.200  0.7787  1.8973  0.2653
   62SAPC  C218 4926   1.164   0.626   5.010  0.0193  0.3290  0.7560
   62SAPC  H18R 4927   1.105   0.534   5.030 -2.7407  1.4487 -1.5380
   62SAPC  H18S 4928   1.265   0.579   5.004  0.4943  1.3658  0.3975
   62SAPC  C219 4929   1.147   0.681   4.870 -0.1677 -0.4028  0.3129
   62SAPC  H19R 4930   1.183   0.607   4.795 -0.9826 -0.9530  0.4461
   62SAPC  H19S 4931   1.218   0.765   4.855  0.3133 -1.1042 -1.5164
   62SAPC  C220 4932   1.005   0.727   4.828  0.0292 -0.2687 -0.5199
   62SAPC  H20R 4933   0.945   0.634   4.812  1.0483 -0.7927 -1.4472
   62SAPC  H20S 4934   1.002   0.795   4.740 -1.9794  1.3574  0.7232
   62SAPC  H20T 4935   0.960   0.790   4.907  1.9602 -1.4012  1.6196
   62SAPC   C33 4936   1.665   1.071   6.099 -0.3936 -0.2241  0.9131
   62SAPC   H3X 4937   1.772   1.082   6.127 -0.0085 -1.6740  0.1003
   62SAPC   H3Y 4938   1.638   1.161   6.040 -1.3239 -0.7823  0.4646
   62SAPC   C34 4939   1.641   0.950   6.002  0.0427  0.3380 -0.4898
   62SAPC   H4X 4940   1.532   0.936   5.986  0.0978  0.4760 -0.9826
   62SAPC   H4Y 4941   1.674   0.859   6.057  1.1518  1.2185  0.3411
   62SAPC   C35 4942   1.711   0.964   5.868  0.3761  0.8066 -0.0779
   62SAPC   H5X 4943   1.817   0.990   5.889  0.1553  2.6509 -1.0623
   62SAPC   H5Y 4944   1.657   1.052   5.827  0.0067  1.5201  1.8024
   62SAPC   C36 4945   1.695   0.842   5.778  0.2504  0.6288 -0.1247
   62SAPC   H6X 4946   1.585   0.826   5.787  0.2795  1.1283  1.2295
   62SAPC   H6Y 4947   1.746   0.748   5.810  1.1176  0.9568 -0.5142
   62SAPC   C37 4948   1.741   0.867   5.634  0.4455 -0.4389  0.2395
   62SAPC   H7X 4949   1.850   0.853   5.615  0.2240  0.2435 -1.9087
   62SAPC   H7Y 4950   1.725   0.972   5.601  0.2637 -1.3628 -3.0111
   62SAPC   C38 4951   1.648   0.802   5.539  0.7899 -0.4585 -0.7277
   62SAPC   H8X 4952   1.544   0.835   5.560  0.7434 -0.1543 -1.4159
   62SAPC   H8Y 4953   1.652   0.695   5.568  2.1993 -0.1166  0.4336
   62SAPC   C39 4954   1.667   0.827   5.388 -0.3666  0.5864  0.0307
   62SAPC   H9X 4955   1.668   0.934   5.361 -0.5663  0.5808  0.0005
   62SAPC   H9Y 4956   1.586   0.766   5.343  0.0856 -0.5162  0.6551
   62SAPC  C310 4957   1.797   0.764   5.337  0.3555  0.1436  0.0186
   62SAPC  H10X 4958   1.830   0.675   5.394  1.5699  0.3051 -0.4122
   62SAPC  H10Y 4959   1.886   0.827   5.355  0.0528  0.6493 -0.2389
   62SAPC  C311 4960   1.788   0.707   5.192 -0.1394 -0.2478 -0.2747
   62SAPC  H11X 4961   1.768   0.800   5.134  0.2227  1.2265  1.8573
   62SAPC  H11Y 4962   1.695   0.647   5.190 -0.0204 -0.4277 -0.6520
   62SAPC  C312 4963   1.901   0.609   5.160 -0.1529  0.3047 -0.2248
   62SAPC  H12X 4964   1.902   0.535   5.243  2.0587  1.0442  0.4810
   62SAPC  H12Y 4965   1.999   0.661   5.163 -0.3060  0.6087 -0.4416
   62SAPC  C313 4966   1.887   0.529   5.025  0.0537  0.5722 -0.5123
   62SAPC  H13X 4967   1.857   0.609   4.955 -2.9040  0.3364  0.3430
   62SAPC  H13Y 4968   1.806   0.453   5.017  0.8385 -0.4330  0.7595
   62SAPC  C314 4969   2.019   0.473   4.966  0.1770  0.4744 -0.3705
   62SAPC  H14X 4970   2.025   0.383   5.030 -3.3167  0.3536 -0.0109
   62SAPC  H14Y 4971   2.113   0.531   4.984 -0.0425  1.1183 -1.1827
   62SAPC  C315 4972   2.004   0.410   4.828  0.1850  0.1471 -0.8400
   62SAPC  H15X 4973   1.897   0.392   4.809  0.4202 -0.5304 -1.5318
   62SAPC  H15Y 4974   2.070   0.321   4.835  0.0389  0.1288  0.9097
   62SAPC  C316 4975   2.052   0.499   4.720  0.1345  0.2352  0.7324
   62SAPC  H16X 4976   2.156   0.528   4.744 -0.6392  0.1638  4.7379
   62SAPC  H16Y 4977   1.985   0.588   4.724 -1.6268 -1.0492  1.4812
   62SAPC  C317 4978   2.052   0.430   4.576  0.1574  0.2788  0.2140
   62SAPC  H17X 4979   2.076   0.505   4.498 -2.0056  1.1201  0.3030
   62SAPC  H17Y 4980   1.945   0.403   4.562 -0.3094  1.4088  1.3306
   62SAPC  C318 4981   2.138   0.310   4.561 -0.1878  0.9035 -0.1665
   62SAPC  H18X 4982   2.096   0.255   4.475 -1.4436  1.0014  0.3601
   62SAPC  H18Y 4983   2.130   0.249   4.653 -1.9536  0.0528 -0.8374
   62SAPC  H18Z 4984   2.244   0.338   4.543  0.2658 -0.8634 -0.3526
   63SAPC     N 4985   3.944   2.507   7.636  0.6329  0.6854  0.6140
   63SAPC   C12 4986   3.996   2.524   7.494  0.0845 -0.5410 -0.1934
   63SAPC  H12A 4987   3.937   2.471   7.421 -2.2449  1.6945 -0.0689
   63SAPC  H12B 4988   4.096   2.486   7.485  1.0671  1.6148  0.8678
   63SAPC   C13 4989   4.019   2.587   7.738  0.5877 -0.0141 -0.1260
   63SAPC  H13A 4990   4.122   2.553   7.731  0.4574 -0.3197 -0.6007
   63SAPC  H13B 4991   4.027   2.689   7.705  2.6700 -0.2136 -0.3795
   63SAPC  H13C 4992   3.981   2.570   7.838 -2.1434 -2.6042 -1.4664
   63SAPC   C14 4993   3.797   2.545   7.635  0.5781  0.2709 -0.4315
   63SAPC  H14A 4994   3.790   2.640   7.585 -0.9767  0.6912  0.5074
   63SAPC  H14B 4995   3.744   2.476   7.572  3.1446 -1.1170 -1.1888
   63SAPC  H14C 4996   3.752   2.559   7.732 -0.9607  1.3525 -1.2599
   63SAPC   C15 4997   3.947   2.360   7.674  0.1095  0.6283 -0.0641
   63SAPC  H15A 4998   3.916   2.351   7.777  2.1046  1.4365  0.6586
   63SAPC  H15B 4999   3.875   2.308   7.613 -0.1900  0.3673  0.4998
   63SAPC  H15C 5000   4.045   2.316   7.659 -0.4340 -1.5555  2.1585
   63SAPC   C11 5001   4.002   2.667   7.441 -0.6424  0.6758  0.5269
   63SAPC  H11A 5002   4.055   2.667   7.343 -0.7904 -0.6827  0.4193
   63SAPC  H11B 5003   4.067   2.725   7.510  2.4807 -2.2473  0.3018
   63SAPC     P 5004   3.862   2.885   7.389  0.7475  0.0071  0.6076
   63SAPC   O13 5005   3.721   2.926   7.394 -1.0073 -0.0430 -0.4943
   63SAPC   O14 5006   3.959   2.960   7.467 -0.1072 -0.3547 -0.5582
   63SAPC   O12 5007   3.876   2.733   7.423  0.9088 -0.0474  0.1725
   63SAPC   O11 5008   3.907   2.893   7.240 -0.3130  0.2076  0.6004
   63SAPC    C1 5009   3.814   2.835   7.151 -0.8061 -0.6583  0.9871
   63SAPC    HA 5010   3.772   2.740   7.190  0.2841 -2.5636 -2.0865
   63SAPC    HB 5011   3.728   2.900   7.122  0.7003  1.3648  0.8650
   63SAPC    C2 5012   3.887   2.803   7.013  0.0987 -0.1320 -0.4697
   63SAPC    HS 5013   3.896   2.692   7.012 -0.8305 -0.2222 -0.7328
   63SAPC   O21 5014   4.013   2.879   7.000  0.3165  0.6577 -0.0339
   63SAPC   C21 5015   4.099   2.820   6.923  0.0515  0.0323 -0.1826
   63SAPC   O22 5016   4.083   2.707   6.870  0.1760 -0.5408 -0.3045
   63SAPC   C22 5017   4.222   2.922   6.902 -0.5009 -0.0913 -0.7497
   63SAPC   H2R 5018   4.211   3.001   6.979  1.0350  1.0548 -1.6455
   63SAPC   H2S 5019   4.307   2.854   6.923 -0.9820 -0.5822 -0.3878
   63SAPC    C3 5020   3.794   2.840   6.894 -0.3017  0.4317  0.3054
   63SAPC    HX 5021   3.807   2.950   6.890  0.0954  0.4771  2.0625
   63SAPC    HY 5022   3.685   2.823   6.909 -0.9021  1.7164 -2.0529
   63SAPC   O31 5023   3.839   2.780   6.769  0.1715 -0.0229  0.1724
   63SAPC   C31 5024   3.812   2.649   6.750 -0.8622 -0.4648 -0.4033
   63SAPC   O32 5025   3.735   2.585   6.823 -0.5897 -0.9942  0.3017
   63SAPC   C32 5026   3.892   2.599   6.631 -0.1164  0.0937 -0.1071
   63SAPC   H2X 5027   3.925   2.495   6.650  1.0703  0.5037  0.1894
   63SAPC   H2Y 5028   3.981   2.665   6.620 -1.1054  1.4544 -0.3494
   63SAPC   C23 5029   4.245   3.002   6.770 -0.0190  0.3953  0.5191
   63SAPC   H3R 5030   4.145   3.040   6.740  0.0346 -0.0483 -0.2254
   63SAPC   H3S 5031   4.281   2.929   6.695 -0.6011  1.5789 -0.9553
   63SAPC   C24 5032   4.347   3.116   6.781  0.1649  0.1841 -0.5634
   63SAPC   H4R 5033   4.315   3.163   6.877  0.7820 -1.1672  0.3329
   63SAPC   H4S 5034   4.325   3.196   6.707 -1.3582  0.2046 -0.1343
   63SAPC   C25 5035   4.482   3.068   6.797 -0.0807 -1.3931  0.4755
   63SAPC   H5R 5036   4.510   3.031   6.897  3.9236 -0.8263 -0.2618
   63SAPC   C26 5037   4.577   3.076   6.698 -0.2019  0.8186  0.3569
   63SAPC   H6R 5038   4.675   3.038   6.730 -0.4951  0.0979  0.4139
   63SAPC   C27 5039   4.566   3.131   6.554 -0.5959  0.2554 -0.5606
   63SAPC   H7R 5040   4.637   3.214   6.534  2.4317 -2.0715 -0.3016
   63SAPC   H7S 5041   4.461   3.162   6.539 -0.0056  1.3821 -2.7858
   63SAPC   C28 5042   4.588   3.026   6.450  0.0883  0.1562  0.7320
   63SAPC   H8R 5043   4.570   2.924   6.484  1.7968 -0.9717 -1.4311
   63SAPC   C29 5044   4.606   3.054   6.320 -0.4157 -0.3293 -0.4101
   63SAPC   H9R 5045   4.623   2.967   6.254  2.3915 -0.7636  0.7173
   63SAPC  C210 5046   4.616   3.190   6.258  0.0874 -0.1467  0.7076
   63SAPC  H10R 5047   4.648   3.268   6.331  1.3312 -0.2691  0.3138
   63SAPC  H10S 5048   4.515   3.231   6.236  1.5385  1.6774 -3.5863
   63SAPC  C211 5049   4.700   3.197   6.135 -0.3356  0.0335 -0.1512
   63SAPC  H11R 5050   4.781   3.124   6.147  0.5608  1.1594  0.7769
   63SAPC  C212 5051   4.690   3.268   6.021  0.1775  0.0647 -0.4272
   63SAPC  H12R 5052   4.760   3.248   5.938  0.6979 -0.1215  0.0542
   63SAPC  C213 5053   4.586   3.372   6.002 -0.3296  0.2499 -0.1401
   63SAPC  H13R 5054   4.555   3.424   6.095  1.1233  0.5112  0.2227
   63SAPC  H13S 5055   4.497   3.324   5.955  0.4689 -1.6951  0.2396
   63SAPC  C214 5056   4.639   3.481   5.909  0.2384 -0.0749  0.7051
   63SAPC  H14R 5057   4.662   3.578   5.956 -1.5373  1.9146 -2.2043
   63SAPC  C215 5058   4.673   3.473   5.780 -0.1303 -0.5888  0.0003
   63SAPC  H15R 5059   4.714   3.563   5.732 -0.8771 -0.7677 -1.0192
   63SAPC  C216 5060   4.678   3.355   5.689  0.1191 -0.4998  0.3267
   63SAPC  H16R 5061   4.634   3.388   5.592  1.9210 -0.9804 -0.6991
   63SAPC  H16S 5062   4.617   3.270   5.726 -0.7260 -0.3930 -0.7600
   63SAPC  C217 5063   4.819   3.308   5.658 -0.3603  1.3238 -0.0971
   63SAPC  H17R 5064   4.875   3.308   5.754 -0.2688  0.4406 -0.1421
   63SAPC  H17S 5065   4.867   3.384   5.594  0.6336  0.8153  0.0222
   63SAPC  C218 5066   4.835   3.163   5.605  0.1769  0.0317 -0.1275
   63SAPC  H18R 5067   4.772   3.151   5.515 -1.2629  1.3856  0.6542
   63SAPC  H18S 5068   4.798   3.089   5.679 -0.9416 -0.9342 -1.6214
   63SAPC  C219 5069   4.977   3.125   5.552 -0.1753 -0.1014 -0.9695
   63SAPC  H19R 5070   5.052   3.126   5.634  0.3519  0.8110 -1.4589
   63SAPC  H19S 5071   5.012   3.202   5.481 -0.6071  1.7260  0.6945
   63SAPC  C220 5072   4.971   2.988   5.484 -0.7160  0.1137 -0.0083
   63SAPC  H20R 5073   5.072   2.948   5.462 -0.4014  0.7207  0.2978
   63SAPC  H20S 5074   4.910   2.998   5.392 -0.3242 -0.9593 -0.3997
   63SAPC  H20T 5075   4.928   2.906   5.545  0.8045 -1.7825 -1.3762
   63SAPC   C33 5076   3.792   2.607   6.509 -0.1012 -0.2508  0.4106
   63SAPC   H3X 5077   3.686   2.608   6.543 -0.1724  0.0604  0.1814
   63SAPC   H3Y 5078   3.808   2.521   6.441 -3.4814 -2.2179  1.8096
   63SAPC   C34 5079   3.806   2.730   6.412  0.3026  0.1598 -0.5686
   63SAPC   H4X 5080   3.914   2.752   6.416 -0.3729  4.1303  2.7537
   63SAPC   H4Y 5081   3.758   2.825   6.446 -1.3312 -0.9379  0.3383
   63SAPC   C35 5082   3.776   2.706   6.267  0.3731  0.0494  0.3362
   63SAPC   H5X 5083   3.665   2.705   6.264  0.3904  0.1227 -0.8121
   63SAPC   H5Y 5084   3.817   2.605   6.246 -0.4547  0.2801 -3.0380
   63SAPC   C36 5085   3.829   2.814   6.175  0.2488 -0.7667  0.4137
   63SAPC   H6X 5086   3.940   2.819   6.180  0.2715 -1.1841  0.3495
   63SAPC   H6Y 5087   3.780   2.900   6.225 -3.1938 -0.5966 -2.8299
   63SAPC   C37 5088   3.778   2.820   6.033  0.2287  0.2185 -0.1414
   63SAPC   H7X 5089   3.675   2.780   6.018  0.8394 -1.0929 -1.0043
   63SAPC   H7Y 5090   3.835   2.746   5.974 -0.0549  1.2768 -1.8042
   63SAPC   C38 5091   3.795   2.962   5.985 -0.3920  0.9641  0.3803
   63SAPC   H8X 5092   3.898   3.003   5.979 -0.5173  1.2952  0.4620
   63SAPC   H8Y 5093   3.732   3.032   6.044  0.1081  1.7581  0.0027
   63SAPC   C39 5094   3.753   2.984   5.836  0.1549  0.4724  0.2322
   63SAPC   H9X 5095   3.747   3.094   5.819  1.6746  0.6605  0.7425
   63SAPC   H9Y 5096   3.649   2.957   5.809  0.7270 -0.2808 -1.2894
   63SAPC  C310 5097   3.837   2.919   5.724 -0.5414  0.1944  0.1848
   63SAPC  H10X 5098   3.810   2.812   5.727  0.0243  0.0217 -0.5015
   63SAPC  H10Y 5099   3.942   2.939   5.754  0.0477  1.1897 -2.2501
   63SAPC  C311 5100   3.822   2.965   5.573 -0.4577 -0.9454 -0.1580
   63SAPC  H11X 5101   3.741   2.912   5.519  0.9813 -0.2575 -3.1829
   63SAPC  H11Y 5102   3.919   2.942   5.524 -1.1556  1.2109 -2.7078
   63SAPC  C312 5103   3.803   3.120   5.556 -0.4752 -0.4737  1.6061
   63SAPC  H12X 5104   3.892   3.179   5.586  1.0358 -2.4285  1.1857
   63SAPC  H12Y 5105   3.720   3.167   5.613 -1.7336  1.1303 -1.3632
   63SAPC  C313 5106   3.784   3.153   5.408 -0.0643 -0.7261 -0.4473
   63SAPC  H13X 5107   3.715   3.091   5.347  0.0630 -0.3509 -0.9815
   63SAPC  H13Y 5108   3.880   3.131   5.357  1.2949  0.0164  1.6523
   63SAPC  C314 5109   3.757   3.296   5.375  0.4679 -0.0195 -0.3661
   63SAPC  H14X 5110   3.829   3.366   5.422 -0.7214  1.9659 -1.3711
   63SAPC  H14Y 5111   3.659   3.321   5.421 -0.8457 -1.9055 -1.9641
   63SAPC  C315 5112   3.756   3.331   5.222  0.3977  0.4338  0.4105
   63SAPC  H15X 5113   3.684   3.262   5.173 -1.1445  3.1631 -1.4393
   63SAPC  H15Y 5114   3.851   3.315   5.168  0.4948 -0.1060  0.7369
   63SAPC  C316 5115   3.714   3.474   5.189 -0.1262  0.0371 -0.2843
   63SAPC  H16X 5116   3.621   3.490   5.246  1.1111 -0.6984  2.0828
   63SAPC  H16Y 5117   3.699   3.477   5.079 -0.8604  0.4521 -0.1752
   63SAPC  C317 5118   3.816   3.585   5.210 -0.3300  0.6404 -0.7265
   63SAPC  H17X 5119   3.911   3.564   5.156 -0.1564  0.2858 -0.2858
   63SAPC  H17Y 5120   3.840   3.597   5.317 -3.1646  2.2975 -0.1837
   63SAPC  C318 5121   3.756   3.730   5.180  0.5129 -0.0027  0.0637
   63SAPC  H18X 5122   3.666   3.756   5.240  0.0990  1.5444 -1.1557
   63SAPC  H18Y 5123   3.711   3.731   5.078 -3.9501  4.6486  1.6274
   63SAPC  H18Z 5124   3.836   3.806   5.185  1.9242 -1.3558 -1.0773
   64SAPC     N 5125   2.224   4.369   7.201  0.0603  0.2275  0.2680
   64SAPC   C12 5126   2.110   4.374   7.103  0.0217 -0.7519  0.5192
   64SAPC  H12A 5127   2.051   4.464   7.114 -2.0174 -1.7137 -1.5487
   64SAPC  H12B 5128   2.043   4.296   7.136 -0.2191 -0.6031  0.3905
   64SAPC   C13 5129   2.182   4.420   7.333 -0.2548 -0.0656 -0.0582
   64SAPC  H13A 5130   2.141   4.519   7.314  1.2367  0.7999  1.0225
   64SAPC  H13B 5131   2.103   4.360   7.377 -1.7073  0.8732 -1.2723
   64SAPC  H13C 5132   2.263   4.433   7.403  0.4752 -0.5506 -0.8005
   64SAPC   C14 5133   2.298   4.236   7.222  0.1586  0.3573 -0.1694
   64SAPC  H14A 5134   2.383   4.251   7.288  1.4883 -1.7444 -1.2767
   64SAPC  H14B 5135   2.228   4.168   7.267  0.0697  1.1862  0.9986
   64SAPC  H14C 5136   2.321   4.206   7.121 -0.9743 -0.5417 -0.1764
   64SAPC   C15 5137   2.340   4.457   7.155  0.1877  0.6191  0.3461
   64SAPC  H15A 5138   2.382   4.412   7.067  2.3327  0.1793  1.5351
   64SAPC  H15B 5139   2.299   4.554   7.129 -0.9629  0.0387 -0.0960
   64SAPC  H15C 5140   2.423   4.465   7.223  1.1171 -3.0603 -0.1566
   64SAPC   C11 5141   2.146   4.369   6.952  0.3393  0.2394  0.7121
   64SAPC  H11A 5142   2.221   4.445   6.920 -0.6015  0.8473 -0.1554
   64SAPC  H11B 5143   2.051   4.399   6.902  1.4125  2.3664 -0.1951
   64SAPC     P 5144   2.070   4.128   6.894 -0.2043 -0.3245 -0.6114
   64SAPC   O13 5145   2.135   4.001   6.918 -0.0828  0.0159  0.8496
   64SAPC   O14 5146   1.959   4.164   6.982 -0.0497 -1.0424  0.7245
   64SAPC   O12 5147   2.187   4.236   6.909  0.7365  0.2569  0.6602
   64SAPC   O11 5148   2.037   4.151   6.743  0.3188  0.2034  0.5574
   64SAPC    C1 5149   2.142   4.180   6.643  0.1398  0.0296 -0.4369
   64SAPC    HA 5150   2.176   4.286   6.644  1.2864 -0.1322  4.7929
   64SAPC    HB 5151   2.229   4.117   6.670 -1.2838 -0.4114  3.8192
   64SAPC    C2 5152   2.085   4.163   6.506  0.7789  0.2493  0.7737
   64SAPC    HS 5153   2.022   4.252   6.489  1.6419  1.1698  2.1911
   64SAPC   O21 5154   2.009   4.042   6.486 -0.4565  0.0666  0.0897
   64SAPC   C21 5155   1.901   4.060   6.400 -0.5959  0.2477  0.3075
   64SAPC   O22 5156   1.870   4.164   6.347 -0.9579  0.3222 -0.2572
   64SAPC   C22 5157   1.821   3.929   6.392 -0.0968 -0.1568  0.2041
   64SAPC   H2R 5158   1.894   3.846   6.376  0.7352  0.9653 -2.2920
   64SAPC   H2S 5159   1.770   3.919   6.491  1.3781  0.8455  1.1151
   64SAPC    C3 5160   2.200   4.169   6.401 -0.1333 -0.2338  0.1772
   64SAPC    HX 5161   2.263   4.078   6.409 -0.8542 -0.8433 -0.8446
   64SAPC    HY 5162   2.265   4.254   6.432 -1.3946  0.5475  0.7469
   64SAPC   O31 5163   2.161   4.180   6.265 -1.0334 -0.3187 -0.3445
   64SAPC   C31 5164   2.131   4.307   6.229 -0.1896 -0.0563 -0.2898
   64SAPC   O32 5165   2.122   4.402   6.308  0.4394  0.0939  0.2711
   64SAPC   C32 5166   2.103   4.315   6.077 -1.0745  0.0336  0.6509
   64SAPC   H2X 5167   2.029   4.396   6.058  2.3649  2.7171 -3.0955
   64SAPC   H2Y 5168   2.071   4.217   6.037  0.4180 -1.1442  2.1495
   64SAPC   C23 5169   1.715   3.925   6.281  0.3454  1.1786  0.4520
   64SAPC   H3R 5170   1.760   3.932   6.180 -0.3099  0.1916  0.0787
   64SAPC   H3S 5171   1.644   4.007   6.301  0.9593  1.3674  2.0191
   64SAPC   C24 5172   1.626   3.796   6.303 -0.6386  0.0590 -0.6218
   64SAPC   H4R 5173   1.532   3.807   6.245 -1.4355 -0.1004  0.5925
   64SAPC   H4S 5174   1.606   3.796   6.412  0.3991  0.9343 -0.4138
   64SAPC   C25 5175   1.706   3.673   6.260  0.4733 -0.6883 -0.4471
   64SAPC   H5R 5176   1.746   3.612   6.343 -0.2377 -1.6385 -0.7775
   64SAPC   C26 5177   1.741   3.629   6.136  0.6159 -0.6283  0.1196
   64SAPC   H6R 5178   1.815   3.548   6.122 -1.1416 -2.1088 -1.0966
   64SAPC   C27 5179   1.678   3.684   6.009 -0.5492  0.4938  0.8234
   64SAPC   H7R 5180   1.596   3.754   6.033 -0.7148  0.2477  0.9866
   64SAPC   H7S 5181   1.652   3.588   5.958  3.1874 -1.4071  2.1203
   64SAPC   C28 5182   1.786   3.764   5.936  1.0726 -0.3228  0.3686
   64SAPC   H8R 5183   1.814   3.856   5.989  2.3789 -0.6616  0.2979
   64SAPC   C29 5184   1.851   3.729   5.820 -0.2935 -0.7027  0.3978
   64SAPC   H9R 5185   1.918   3.808   5.784  0.6816 -1.2608  0.9654
   64SAPC  C210 5186   1.834   3.605   5.733 -0.5697  0.4847  0.2637
   64SAPC  H10R 5187   1.830   3.513   5.795  0.1057  0.5560  0.4208
   64SAPC  H10S 5188   1.927   3.585   5.677  0.1547 -2.0669  2.1769
   64SAPC  C211 5189   1.709   3.601   5.658 -0.4297 -0.0230 -0.1705
   64SAPC  H11R 5190   1.624   3.602   5.728  1.6539 -2.1683  2.6258
   64SAPC  C212 5191   1.692   3.563   5.529 -0.2174  0.1282 -0.5992
   64SAPC  H12R 5192   1.589   3.572   5.489 -0.0917  0.1300 -0.9305
   64SAPC  C213 5193   1.796   3.553   5.418  0.0051 -0.3683 -0.2406
   64SAPC  H13R 5194   1.829   3.447   5.407 -0.3816 -0.5260  0.1003
   64SAPC  H13S 5195   1.880   3.616   5.453 -1.1726  1.9439 -1.3308
   64SAPC  C214 5196   1.755   3.615   5.286 -0.1430 -0.2879 -0.3486
   64SAPC  H14R 5197   1.818   3.700   5.253 -0.6546  1.2618  2.3265
   64SAPC  C215 5198   1.661   3.581   5.199 -0.8824  0.4461  0.3047
   64SAPC  H15R 5199   1.661   3.651   5.114 -2.2783 -0.1953 -0.2416
   64SAPC  C216 5200   1.560   3.465   5.194  0.3306 -0.4259  0.8696
   64SAPC  H16R 5201   1.545   3.416   5.293  0.2688 -2.6677 -0.1965
   64SAPC  H16S 5202   1.590   3.389   5.120  0.0020  0.1935  0.0863
   64SAPC  C217 5203   1.420   3.512   5.151 -0.4324  0.1550 -0.8709
   64SAPC  H17R 5204   1.390   3.585   5.229 -2.1009 -1.8588  0.4935
   64SAPC  H17S 5205   1.347   3.428   5.152 -1.1874  0.7659 -1.9594
   64SAPC  C218 5206   1.412   3.575   5.011 -0.5172 -0.3554  0.3083
   64SAPC  H18R 5207   1.468   3.671   5.015 -1.5217  0.2381  0.3088
   64SAPC  H18S 5208   1.307   3.595   4.981  0.1050  0.2874 -1.5781
   64SAPC  C219 5209   1.484   3.492   4.906 -0.8367 -0.3944 -0.3400
   64SAPC  H19R 5210   1.433   3.393   4.902  0.5895 -1.1481 -0.7534
   64SAPC  H19S 5211   1.589   3.469   4.937 -0.7385 -0.0398 -0.4063
   64SAPC  C220 5212   1.485   3.552   4.770 -0.6220 -0.1496 -0.5240
   64SAPC  H20R 5213   1.540   3.649   4.770 -0.6375 -0.1164 -1.7845
   64SAPC  H20S 5214   1.385   3.575   4.729 -0.3035 -0.8254 -1.7455
   64SAPC  H20T 5215   1.534   3.481   4.700  1.3814  1.4574 -0.8588
   64SAPC   C33 5216   2.229   4.364   5.998 -0.5508  0.9562 -0.3299
   64SAPC   H3X 5217   2.295   4.277   6.017 -1.0841  0.7804  0.8202
   64SAPC   H3Y 5218   2.276   4.458   6.033  1.5746  0.3574 -1.4392
   64SAPC   C34 5219   2.196   4.382   5.851 -0.4480  0.0199 -0.3347
   64SAPC   H4X 5220   2.085   4.374   5.839 -1.0658  4.4405  0.7075
   64SAPC   H4Y 5221   2.245   4.307   5.785  1.5480 -1.4920  2.6628
   64SAPC   C35 5222   2.238   4.519   5.804  0.2624 -0.2591 -0.1333
   64SAPC   H5X 5223   2.347   4.530   5.822  0.2235 -1.2474  0.8257
   64SAPC   H5Y 5224   2.188   4.597   5.864  1.9853  0.7086  0.1065
   64SAPC   C36 5225   2.204   4.540   5.659 -0.2834 -0.2469 -0.1629
   64SAPC   H6X 5226   2.096   4.563   5.644  0.2168  2.1662 -0.3421
   64SAPC   H6Y 5227   2.247   4.460   5.594  1.0732  0.5691 -0.3063
   64SAPC   C37 5228   2.265   4.675   5.602  0.0504 -0.5098 -0.0643
   64SAPC   H7X 5229   2.371   4.685   5.631 -0.3130  0.1755  1.1051
   64SAPC   H7Y 5230   2.200   4.751   5.650 -0.1350 -0.5186 -0.2988
   64SAPC   C38 5231   2.247   4.692   5.451 -0.1360 -0.1675 -0.6714
   64SAPC   H8X 5232   2.287   4.795   5.438  2.0081 -0.7561  0.6865
   64SAPC   H8Y 5233   2.143   4.688   5.412 -0.5684  0.2460  0.4007
   64SAPC   C39 5234   2.327   4.596   5.359  0.4098  0.2301 -0.2998
   64SAPC   H9X 5235   2.286   4.494   5.374  1.4250 -0.4377 -1.8271
   64SAPC   H9Y 5236   2.434   4.595   5.389  0.0907 -2.7905  1.0372
   64SAPC  C310 5237   2.322   4.634   5.210 -0.4749  0.1340 -0.4525
   64SAPC  H10X 5238   2.377   4.728   5.187 -1.0786  0.4954 -0.4560
   64SAPC  H10Y 5239   2.215   4.646   5.182 -1.1349 -0.3377  1.7060
   64SAPC  C311 5240   2.378   4.526   5.114  0.5202  0.4889 -0.0656
   64SAPC  H11X 5241   2.322   4.430   5.113  0.2723  0.6357 -0.4231
   64SAPC  H11Y 5242   2.485   4.509   5.135  0.3894  0.1100  0.3114
   64SAPC  C312 5243   2.380   4.580   4.967  0.5670  0.3123 -0.6879
   64SAPC  H12X 5244   2.465   4.527   4.918  0.2456 -1.2656  0.3912
   64SAPC  H12Y 5245   2.403   4.689   4.969  1.7342  0.1124 -1.7920
   64SAPC  C313 5246   2.252   4.558   4.892 -0.0126  0.1273  0.2906
   64SAPC  H13X 5247   2.175   4.617   4.946  0.4312 -0.7054  1.9139
   64SAPC  H13Y 5248   2.230   4.451   4.876 -0.0055  0.5819 -3.6339
   64SAPC  C314 5249   2.264   4.628   4.754  0.7235 -0.6425 -0.6895
   64SAPC  H14X 5250   2.353   4.590   4.698  2.4475 -0.7421  1.9223
   64SAPC  H14Y 5251   2.276   4.738   4.763 -0.4199 -0.4457 -1.3856
   64SAPC  C315 5252   2.124   4.614   4.674 -0.3477  0.6912  0.2912
   64SAPC  H15X 5253   2.134   4.698   4.601  1.1395  0.3948  0.1157
   64SAPC  H15Y 5254   2.038   4.631   4.741  0.2734  0.7700  1.0788
   64SAPC  C316 5255   2.110   4.482   4.599  0.0550 -1.0834 -0.4416
   64SAPC  H16X 5256   2.064   4.414   4.673 -0.8552  1.3709  1.3885
   64SAPC  H16Y 5257   2.209   4.444   4.564  0.9407  1.2322 -0.6642
   64SAPC  C317 5258   2.022   4.497   4.475 -0.7156 -0.3984  0.1300
   64SAPC  H17X 5259   2.075   4.558   4.398  0.4406  2.2524  2.7999
   64SAPC  H17Y 5260   1.935   4.560   4.505 -3.0346 -3.3072 -0.0166
   64SAPC  C318 5261   1.962   4.372   4.420 -0.7735  0.4745  0.0614
   64SAPC  H18X 5262   1.880   4.399   4.350 -2.5025 -0.4381  1.6083
   64SAPC  H18Y 5263   1.913   4.314   4.502 -0.3981 -0.8909 -0.6581
   64SAPC  H18Z 5264   2.036   4.302   4.377 -1.4867  1.4811 -3.0238
   65SAPC     N 5265   6.581   6.113   1.960  0.5755  0.3435  0.2161
   65SAPC   C12 5266   6.604   6.003   2.065  0.1257  0.1946  0.4977
   65SAPC  H12A 5267   6.706   5.971   2.047  0.1574  0.4539  0.2083
   65SAPC  H12B 5268   6.530   5.926   2.050 -0.9224  0.8347  2.0999
   65SAPC   C13 5269   6.439   6.164   1.969 -0.0391 -0.2559 -0.0161
   65SAPC  H13A 5270   6.412   6.201   2.067  0.0488 -2.4593  0.8873
   65SAPC  H13B 5271   6.429   6.247   1.901 -0.8898 -0.8423 -0.6155
   65SAPC  H13C 5272   6.372   6.087   1.935  2.7284 -1.8953 -2.0983
   65SAPC   C14 5273   6.658   6.235   1.992 -0.5223 -0.2944 -0.1819
   65SAPC  H14A 5274   6.765   6.223   2.003 -0.6016 -1.7985 -0.7065
   65SAPC  H14B 5275   6.647   6.307   1.913  2.1097  0.2181 -0.1768
   65SAPC  H14C 5276   6.621   6.276   2.085  0.2011 -1.4936  0.6791
   65SAPC   C15 5277   6.597   6.057   1.822  0.2946  0.0899 -0.1710
   65SAPC  H15A 5278   6.696   6.020   1.800 -0.3074 -0.8585 -1.3931
   65SAPC  H15B 5279   6.530   5.973   1.813 -0.7085  0.9080 -0.5243
   65SAPC  H15C 5280   6.575   6.131   1.747 -1.9292 -0.1993  0.1307
   65SAPC   C11 5281   6.584   6.041   2.215 -0.3590 -0.9222  0.1722
   65SAPC  H11A 5282   6.644   6.131   2.242 -0.5014 -0.0917 -2.0026
   65SAPC  H11B 5283   6.633   5.959   2.271 -1.4958  0.0240  2.6725
   65SAPC     P 5284   6.345   5.936   2.267 -0.3933  0.1566  0.1048
   65SAPC   O13 5285   6.215   5.988   2.297  0.2438  0.1553 -0.9444
   65SAPC   O14 5286   6.343   5.848   2.152  0.0465 -0.2511 -0.7876
   65SAPC   O12 5287   6.446   6.052   2.242 -0.1935  0.1677 -0.0825
   65SAPC   O11 5288   6.406   5.854   2.391  0.3764 -0.7764 -0.2936
   65SAPC    C1 5289   6.440   5.924   2.507  0.1804 -0.1171  0.1812
   65SAPC    HA 5290   6.445   6.034   2.492 -1.6551 -0.1667 -1.0663
   65SAPC    HB 5291   6.359   5.908   2.580  0.9665 -1.3477  0.8272
   65SAPC    C2 5292   6.585   5.882   2.564  0.3088 -0.9775  0.7638
   65SAPC    HS 5293   6.641   5.887   2.468 -0.8537 -1.5274  0.0463
   65SAPC   O21 5294   6.567   5.754   2.624 -0.0978  0.0828 -0.3506
   65SAPC   C21 5295   6.682   5.686   2.635  0.4552 -0.1550  0.3865
   65SAPC   O22 5296   6.789   5.719   2.583  0.4083 -0.2610 -0.3631
   65SAPC   C22 5297   6.656   5.563   2.723 -0.7125  0.1914 -0.3616
   65SAPC   H2R 5298   6.596   5.591   2.813 -0.1819 -0.7154  0.2871
   65SAPC   H2S 5299   6.594   5.487   2.670  1.3832 -0.3369 -2.1577
   65SAPC    C3 5300   6.656   5.989   2.658  0.1387  0.0559 -0.7009
   65SAPC    HX 5301   6.686   6.087   2.614  0.4022  0.0804 -0.4757
   65SAPC    HY 5302   6.759   5.954   2.681  1.0118  2.1192 -1.1737
   65SAPC   O31 5303   6.571   6.027   2.771  0.4510  0.2692  0.3433
   65SAPC   C31 5304   6.599   5.955   2.882  0.0394  0.0890 -0.4509
   65SAPC   O32 5305   6.703   5.893   2.901 -0.0831 -0.2822  0.4033
   65SAPC   C32 5306   6.489   5.968   2.991 -0.4919 -0.1605 -0.1877
   65SAPC   H2X 5307   6.436   6.065   2.980 -0.2019 -0.0800 -0.9204
   65SAPC   H2Y 5308   6.534   5.984   3.092 -1.9834  0.2486  0.4375
   65SAPC   C23 5309   6.789   5.499   2.788 -0.2836 -0.2525  0.3865
   65SAPC   H3R 5310   6.832   5.559   2.870  0.4133 -1.8037  1.2060
   65SAPC   H3S 5311   6.877   5.492   2.720  0.0351 -0.0554  0.7765
   65SAPC   C24 5312   6.762   5.354   2.844  0.0954  0.0752  0.2283
   65SAPC   H4R 5313   6.698   5.365   2.934 -1.8019  2.0006 -1.2544
   65SAPC   H4S 5314   6.857   5.325   2.894  0.7131  1.0200 -0.3562
   65SAPC   C25 5315   6.695   5.249   2.754 -0.8614 -0.5543 -0.6582
   65SAPC   H5R 5316   6.758   5.182   2.693 -1.5492  0.6635 -2.8073
   65SAPC   C26 5317   6.569   5.217   2.754 -0.6540  0.5010  0.3131
   65SAPC   H6R 5318   6.536   5.146   2.676  0.7286  0.9492 -0.7263
   65SAPC   C27 5319   6.462   5.281   2.841 -0.0214 -0.4358  0.2038
   65SAPC   H7R 5320   6.369   5.275   2.780  0.2836 -0.1639 -0.2979
   65SAPC   H7S 5321   6.486   5.389   2.855  1.1821 -0.4581 -1.3462
   65SAPC   C28 5322   6.453   5.203   2.967  0.2127 -0.1235  0.4018
   65SAPC   H8R 5323   6.449   5.093   2.956 -2.7104 -0.0208 -0.4460
   65SAPC   C29 5324   6.442   5.243   3.096 -0.0889  0.2276  0.5285
   65SAPC   H9R 5325   6.433   5.162   3.170 -0.5832 -1.7138 -1.5384
   65SAPC  C210 5326   6.446   5.376   3.159 -0.0871  0.7992 -0.1689
   65SAPC  H10R 5327   6.361   5.388   3.230 -1.2046  1.9924 -1.6337
   65SAPC  H10S 5328   6.423   5.450   3.079  0.7511  0.7283 -0.4812
   65SAPC  C211 5329   6.586   5.383   3.210 -0.3916 -0.7040  0.4551
   65SAPC  H11R 5330   6.664   5.345   3.143 -1.6211 -2.2158 -0.1972
   65SAPC  C212 5331   6.624   5.421   3.339  0.0366  0.3774  0.6428
   65SAPC  H12R 5332   6.730   5.441   3.362 -0.2402 -0.3815  2.8456
   65SAPC  C213 5333   6.528   5.462   3.447  0.2971  0.1551  0.2402
   65SAPC  H13R 5334   6.426   5.464   3.402  1.4165 -1.3234 -2.5994
   65SAPC  H13S 5335   6.546   5.568   3.475 -3.1019  0.4249  1.9211
   65SAPC  C214 5336   6.545   5.382   3.579 -0.5535  0.1188  0.0835
   65SAPC  H14R 5337   6.634   5.419   3.631  0.7438 -1.5284 -0.8721
   65SAPC  C215 5338   6.481   5.271   3.622 -0.3647 -0.3327 -0.6468
   65SAPC  H15R 5339   6.523   5.223   3.712 -1.0741 -1.4954 -0.9193
   65SAPC  C216 5340   6.367   5.206   3.551 -0.3418  0.1456 -0.3921
   65SAPC  H16R 5341   6.359   5.100   3.584  0.0898 -0.3202 -1.6957
   65SAPC  H16S 5342   6.396   5.198   3.444  1.2042 -1.2229  0.0916
   65SAPC  C217 5343   6.231   5.271   3.565 -0.2837 -0.3235 -0.4292
   65SAPC  H17R 5344   6.226   5.361   3.500  0.4774 -0.6342 -0.9213
   65SAPC  H17S 5345   6.211   5.313   3.666  0.7773  1.4565 -0.9245
   65SAPC  C218 5346   6.114   5.180   3.527 -0.0210 -0.1180  0.1458
   65SAPC  H18R 5347   6.027   5.244   3.555  0.5736  0.3052  1.0886
   65SAPC  H18S 5348   6.117   5.100   3.605  0.3668  0.6953  0.9855
   65SAPC  C219 5349   6.117   5.129   3.380 -0.4899  0.0360  0.0525
   65SAPC  H19R 5350   6.210   5.068   3.371  0.3652  1.2554  0.3464
   65SAPC  H19S 5351   6.147   5.201   3.301 -1.2413 -1.7208 -1.9235
   65SAPC  C220 5352   5.999   5.043   3.330 -0.2424  0.3932 -0.0773
   65SAPC  H20R 5353   6.025   4.983   3.240 -2.0901  0.7313 -0.8771
   65SAPC  H20S 5354   5.911   5.108   3.311 -0.0984  0.3815 -0.8050
   65SAPC  H20T 5355   5.983   4.966   3.409  2.8446 -0.9338 -0.5948
   65SAPC   C33 5356   6.386   5.851   2.988  0.4119  0.0973  0.2075
   65SAPC   H3X 5357   6.422   5.753   3.027 -3.5530 -1.9034 -0.6667
   65SAPC   H3Y 5358   6.345   5.840   2.886  1.1761  0.6759 -0.1726
   65SAPC   C34 5359   6.265   5.886   3.079 -0.3581 -0.1033  0.0596
   65SAPC   H4X 5360   6.170   5.833   3.056 -2.2713  2.8764  0.5435
   65SAPC   H4Y 5361   6.245   5.994   3.067 -0.1623 -0.2291 -1.5292
   65SAPC   C35 5362   6.302   5.863   3.230  0.3095 -0.3451  0.2170
   65SAPC   H5X 5363   6.385   5.920   3.277  0.2832 -0.1278  0.0008
   65SAPC   H5Y 5364   6.330   5.757   3.247  0.3252 -0.5542 -1.0212
   65SAPC   C36 5365   6.183   5.901   3.319  0.2656  0.7138  0.1944
   65SAPC   H6X 5366   6.095   5.835   3.302 -1.7313  3.2596 -0.1370
   65SAPC   H6Y 5367   6.151   5.998   3.273  0.6757  0.6039 -0.3216
   65SAPC   C37 5368   6.205   5.922   3.472 -1.1209 -0.1716 -0.6568
   65SAPC   H7X 5369   6.111   5.963   3.514 -1.7844 -1.7029 -0.5989
   65SAPC   H7Y 5370   6.291   5.989   3.493  0.4806 -2.4172  0.3722
   65SAPC   C38 5371   6.226   5.793   3.544 -0.0296 -0.3821  1.0532
   65SAPC   H8X 5372   6.330   5.759   3.528  0.8237  0.8079  3.5990
   65SAPC   H8Y 5373   6.161   5.715   3.498  1.4291  0.0429 -1.9537
   65SAPC   C39 5374   6.195   5.797   3.687  0.2207  0.1138 -1.1724
   65SAPC   H9X 5375   6.086   5.815   3.698  0.3693 -0.2573  1.7523
   65SAPC   H9Y 5376   6.247   5.888   3.724  1.4614 -0.4068 -1.5631
   65SAPC  C310 5377   6.234   5.671   3.762  0.6648 -0.0031 -0.2138
   65SAPC  H10X 5378   6.341   5.644   3.745  0.9922  1.4474 -0.5852
   65SAPC  H10Y 5379   6.166   5.591   3.725  0.3638 -0.9517  2.2217
   65SAPC  C311 5380   6.203   5.692   3.911  0.9141 -0.6021  0.2275
   65SAPC  H11X 5381   6.097   5.715   3.934  1.0598  1.0944 -0.6113
   65SAPC  H11Y 5382   6.252   5.782   3.955 -0.8346 -0.3989  1.8381
   65SAPC  C312 5383   6.243   5.571   3.986 -0.1010  0.9881 -0.2767
   65SAPC  H12X 5384   6.340   5.524   3.959 -0.9160  0.2850 -2.1388
   65SAPC  H12Y 5385   6.170   5.494   3.953  0.9205 -0.0744 -0.1346
   65SAPC  C313 5386   6.232   5.596   4.135  0.4840 -0.7192 -0.2687
   65SAPC  H13X 5387   6.194   5.506   4.188  0.2357  0.0205  0.8425
   65SAPC  H13Y 5388   6.150   5.669   4.151  1.2480 -0.4335  3.1342
   65SAPC  C314 5389   6.357   5.646   4.202  0.3481  0.3169  0.1125
   65SAPC  H14X 5390   6.378   5.746   4.160 -0.2217 -0.3463 -1.8835
   65SAPC  H14Y 5391   6.425   5.560   4.180 -2.4148 -2.3494  1.2338
   65SAPC  C315 5392   6.339   5.663   4.356  0.0037 -0.4007  0.3364
   65SAPC  H15X 5393   6.320   5.560   4.391 -2.8544  0.3615  1.2988
   65SAPC  H15Y 5394   6.254   5.733   4.373  0.2318  0.3715 -1.3910
   65SAPC  C316 5395   6.467   5.717   4.421  0.7402 -0.6959 -0.0764
   65SAPC  H16X 5396   6.551   5.647   4.401  0.9373  0.2465 -3.1901
   65SAPC  H16Y 5397   6.456   5.699   4.530 -0.5896 -1.4477 -0.3105
   65SAPC  C317 5398   6.489   5.867   4.387 -0.3236 -0.2374 -0.0847
   65SAPC  H17X 5399   6.399   5.926   4.415 -0.1350 -0.8045  1.9335
   65SAPC  H17Y 5400   6.501   5.864   4.277  0.4914 -1.3596  0.0168
   65SAPC  C318 5401   6.610   5.950   4.439 -0.1374  0.2085 -0.2094
   65SAPC  H18X 5402   6.707   5.895   4.441  1.1570  2.3601 -0.5917
   65SAPC  H18Y 5403   6.582   5.983   4.541 -0.5635 -2.4268  0.6034
   65SAPC  H18Z 5404   6.620   6.037   4.370 -0.0067  0.1730 -0.2355
   66SAPC     N 5405   0.038   0.189   2.577  0.5199 -0.2857  0.4998
   66SAPC   C12 5406   0.174   0.243   2.560  0.9894 -0.6423 -0.0200
   66SAPC  H12A 5407   0.158   0.342   2.520 -0.3710 -0.5540  0.6730
   66SAPC  H12B 5408   0.225   0.186   2.484  3.0137 -0.2450  0.9863
   66SAPC   C13 5409   0.043   0.053   2.637 -0.2309 -0.7646  0.1501
   66SAPC  H13A 5410  -0.058   0.015   2.642  0.2327 -2.0107  0.2741
   66SAPC  H13B 5411   0.098  -0.012   2.571  0.0484  0.8462 -1.2686
   66SAPC  H13C 5412   0.087   0.055   2.735 -0.0044 -0.1946  0.0412
   66SAPC   C14 5413  -0.049   0.285   2.658  0.1871  0.7304  0.2812
   66SAPC  H14A 5414  -0.149   0.246   2.660  1.2488 -2.2739  2.8275
   66SAPC  H14B 5415  -0.013   0.286   2.760 -0.0077  0.1149  0.3592
   66SAPC  H14C 5416  -0.042   0.386   2.619 -1.4231  0.8458  0.2335
   66SAPC   C15 5417  -0.030   0.172   2.448  0.0522 -0.0402  0.6104
   66SAPC  H15A 5418  -0.136   0.161   2.466 -0.1384  0.3957 -0.1950
   66SAPC  H15B 5419  -0.019   0.267   2.397  1.8323  1.1043  2.9373
   66SAPC  H15C 5420   0.009   0.090   2.389  0.8396 -0.0023  1.0703
   66SAPC   C11 5421   0.258   0.279   2.680 -0.0327 -0.1577  0.3612
   66SAPC  H11A 5422   0.280   0.182   2.729 -0.7155  0.3194  1.6710
   66SAPC  H11B 5423   0.203   0.342   2.753  0.0406 -0.5003  0.7147
   66SAPC     P 5424   0.384   0.497   2.584  0.0816 -0.1726 -0.0294
   66SAPC   O13 5425   0.527   0.540   2.580  0.8508  0.2310  0.2105
   66SAPC   O14 5426   0.306   0.524   2.458  0.2276 -0.4352 -0.0720
   66SAPC   O12 5427   0.372   0.349   2.635 -0.3141  0.5106 -0.5360
   66SAPC   O11 5428   0.309   0.574   2.701  0.4565  0.2495 -0.5089
   66SAPC    C1 5429   0.293   0.722   2.695  0.7305  0.3238  0.3399
   66SAPC    HA 5430   0.388   0.774   2.721 -0.3216  1.6114  1.8069
   66SAPC    HB 5431   0.265   0.750   2.591 -0.2205  0.6827  0.6794
   66SAPC    C2 5432   0.180   0.773   2.789  0.3684 -0.6534  0.2919
   66SAPC    HS 5433   0.158   0.880   2.766  0.0288 -1.0800 -1.5193
   66SAPC   O21 5434   0.209   0.741   2.929  0.2932 -0.3339  0.1050
   66SAPC   C21 5435   0.170   0.836   3.010 -0.2027 -0.8388  0.0159
   66SAPC   O22 5436   0.110   0.937   2.979  0.1568  0.5141 -0.0793
   66SAPC   C22 5437   0.219   0.803   3.149 -0.2382  0.2517 -0.3932
   66SAPC   H2R 5438   0.310   0.741   3.135 -0.1721  0.0049  0.9714
   66SAPC   H2S 5439   0.248   0.898   3.200  1.3428 -0.2039 -0.3801
   66SAPC    C3 5440   0.044   0.708   2.747 -0.0254  0.3645  0.0295
   66SAPC    HX 5441   0.079   0.603   2.732  2.0374  1.3181 -2.4754
   66SAPC    HY 5442   0.017   0.742   2.645  0.6752 -2.0138 -1.0300
   66SAPC   O31 5443  -0.060   0.723   2.849 -0.3053 -0.4330  0.4968
   66SAPC   C31 5444  -0.077   0.628   2.933  0.6348 -0.2227 -0.2984
   66SAPC   O32 5445  -0.017   0.520   2.936  0.3202 -0.5964 -0.5702
   66SAPC   C32 5446  -0.186   0.683   3.031 -0.9463 -0.2696  0.6440
   66SAPC   H2X 5447  -0.269   0.698   2.959 -0.8790 -0.4020  0.5384
   66SAPC   H2Y 5448  -0.156   0.784   3.066 -0.5600  0.1261 -0.7753
   66SAPC   C23 5449   0.107   0.734   3.235 -0.7085 -0.5053  0.0340
   66SAPC   H3R 5450   0.081   0.640   3.182 -0.2590 -0.4373 -0.3150
   66SAPC   H3S 5451   0.016   0.798   3.239 -0.5374 -0.0854 -1.9468
   66SAPC   C24 5452   0.159   0.698   3.379  0.3341 -0.0362  1.5234
   66SAPC   H4R 5453   0.173   0.787   3.446 -0.6008  0.6839  0.7823
   66SAPC   H4S 5454   0.253   0.640   3.366 -0.7389 -2.3877  3.5072
   66SAPC   C25 5455   0.081   0.588   3.450  0.0521 -0.9059 -0.0694
   66SAPC   H5R 5456   0.017   0.519   3.395 -2.3814  1.2714 -0.1471
   66SAPC   C26 5457   0.097   0.566   3.584  0.0712 -0.5327  0.0948
   66SAPC   H6R 5458   0.042   0.482   3.628 -1.6896  0.2603 -0.5049
   66SAPC   C27 5459   0.195   0.653   3.677  0.0581  0.1334 -0.2007
   66SAPC   H7R 5460   0.232   0.744   3.625  1.0060  1.1929  2.1941
   66SAPC   H7S 5461   0.282   0.590   3.705  1.1581  1.5784 -0.2234
   66SAPC   C28 5462   0.124   0.707   3.800 -0.5794 -0.0031  0.0264
   66SAPC   H8R 5463   0.058   0.793   3.784  2.4663  2.4134 -0.3989
   66SAPC   C29 5464   0.137   0.661   3.926 -0.1129  0.6303  0.0887
   66SAPC   H9R 5465   0.074   0.709   4.002  0.3697  1.5820 -0.0953
   66SAPC  C210 5466   0.219   0.548   3.980  0.3176  0.8429 -0.1287
   66SAPC  H10R 5467   0.287   0.512   3.900 -0.3940 -0.0225 -0.3619
   66SAPC  H10S 5468   0.154   0.460   4.002  0.6015  0.5579 -0.4177
   66SAPC  C211 5469   0.311   0.562   4.094  0.4121 -0.5017 -0.5072
   66SAPC  H11R 5470   0.374   0.652   4.084 -1.5930  1.0693  0.2508
   66SAPC  C212 5471   0.306   0.498   4.212 -0.2548  0.6684  0.1115
   66SAPC  H12R 5472   0.369   0.525   4.298 -1.4571 -0.0633  1.2626
   66SAPC  C213 5473   0.220   0.382   4.258  1.0425 -0.9663  0.1708
   66SAPC  H13R 5474   0.286   0.328   4.329 -0.1511  0.5065  2.5897
   66SAPC  H13S 5475   0.202   0.307   4.178  0.8328 -0.9745  0.2238
   66SAPC  C214 5476   0.092   0.418   4.333  1.0560 -0.1886 -0.6751
   66SAPC  H14R 5477   0.099   0.503   4.402  1.1830 -0.7550  0.0254
   66SAPC  C215 5478  -0.016   0.336   4.361  0.3475 -0.6157  0.1991
   66SAPC  H15R 5479  -0.107   0.373   4.411 -0.0264 -2.4385  0.9232
   66SAPC  C216 5480  -0.032   0.198   4.310 -0.1834  0.2026  0.2226
   66SAPC  H16R 5481   0.060   0.168   4.255  0.3797  3.2566 -0.6572
   66SAPC  H16S 5482  -0.114   0.191   4.235  1.3083 -2.4670 -1.3438
   66SAPC  C217 5483  -0.065   0.082   4.402 -0.2772  0.0208 -0.5062
   66SAPC  H17R 5484  -0.110   0.007   4.335 -1.0606 -0.8023  0.8893
   66SAPC  H17S 5485  -0.134   0.115   4.483  1.2296 -0.6984  1.1242
   66SAPC  C218 5486   0.060   0.014   4.457 -0.4177  0.4936 -0.1956
   66SAPC  H18R 5487   0.133   0.078   4.511 -0.1215 -1.6946  2.2123
   66SAPC  H18S 5488   0.125  -0.025   4.375 -0.3598  0.5567 -0.1804
   66SAPC  C219 5489   0.014  -0.097   4.555 -0.2670 -0.0372  0.5670
   66SAPC  H19R 5490  -0.015  -0.185   4.493  2.8260  0.1746 -1.4261
   66SAPC  H19S 5491  -0.071  -0.058   4.615 -1.4771 -0.4279 -0.8099
   66SAPC  C220 5492   0.133  -0.130   4.637 -0.1254  0.2415 -0.3098
   66SAPC  H20R 5493   0.098  -0.198   4.717 -0.1580 -1.6843 -1.8925
   66SAPC  H20S 5494   0.170  -0.039   4.689 -1.8474  2.0283 -2.0395
   66SAPC  H20T 5495   0.223  -0.169   4.584 -0.1740  0.1958 -0.3580
   66SAPC   C33 5496  -0.223   0.595   3.148 -0.2523 -0.1789 -0.3689
   66SAPC   H3X 5497  -0.137   0.575   3.214 -1.9988 -1.4171  1.6634
   66SAPC   H3Y 5498  -0.265   0.497   3.118  1.2192 -1.4284  1.4452
   66SAPC   C34 5499  -0.331   0.658   3.234  0.0494  0.1317 -0.5903
   66SAPC   H4X 5500  -0.424   0.681   3.178  1.2356 -0.1765 -2.7918
   66SAPC   H4Y 5501  -0.295   0.759   3.264  1.0001  0.3890 -2.4412
   66SAPC   C35 5502  -0.356   0.565   3.356 -0.5699 -0.1800  0.1564
   66SAPC   H5X 5503  -0.256   0.525   3.382  1.2636  0.0476 -5.2102
   66SAPC   H5Y 5504  -0.414   0.478   3.318 -2.0424  1.9627 -2.9602
   66SAPC   C36 5505  -0.427   0.643   3.470  0.1530  0.0629 -0.6860
   66SAPC   H6X 5506  -0.517   0.687   3.421  0.9175  2.8345  0.2285
   66SAPC   H6Y 5507  -0.358   0.728   3.491 -0.9864  1.1347 -1.1322
   66SAPC   C37 5508  -0.465   0.567   3.594 -0.5020 -0.1079  0.3746
   66SAPC   H7X 5509  -0.521   0.474   3.572 -1.7339  0.6394  0.2671
   66SAPC   H7Y 5510  -0.532   0.629   3.658  0.6868  0.5375  1.0279
   66SAPC   C38 5511  -0.348   0.525   3.678  0.4605  0.5490  0.0763
   66SAPC   H8X 5512  -0.286   0.617   3.688 -0.8950  1.5502 -0.4556
   66SAPC   H8Y 5513  -0.289   0.445   3.628 -1.4776  0.4136 -2.1862
   66SAPC   C39 5514  -0.386   0.478   3.818 -0.0008  0.0262  0.3997
   66SAPC   H9X 5515  -0.463   0.398   3.811  1.9885 -1.9010 -0.8648
   66SAPC   H9Y 5516  -0.435   0.560   3.874  4.8725  2.4172  1.7389
   66SAPC  C310 5517  -0.270   0.424   3.896 -0.8950  0.0626  0.3073
   66SAPC  H10X 5518  -0.193   0.504   3.902 -1.2702  0.5019 -0.6227
   66SAPC  H10Y 5519  -0.221   0.335   3.853  0.5325  1.0250 -0.1597
   66SAPC  C311 5520  -0.293   0.390   4.043  0.5240  0.7299 -0.1016
   66SAPC  H11X 5521  -0.196   0.363   4.091  0.1145 -1.1493 -0.2299
   66SAPC  H11Y 5522  -0.355   0.297   4.043  2.1994 -0.4432 -0.4444
   66SAPC  C312 5523  -0.363   0.493   4.123 -0.8712 -0.1279 -0.5512
   66SAPC  H12X 5524  -0.473   0.484   4.105 -1.3500  1.4446  1.2791
   66SAPC  H12Y 5525  -0.330   0.594   4.092  1.9618 -0.6713  0.4357
   66SAPC  C313 5526  -0.348   0.476   4.275  0.1551 -0.6674 -0.2481
   66SAPC  H13X 5527  -0.414   0.557   4.314 -0.2109  0.0279 -2.2394
   66SAPC  H13Y 5528  -0.241   0.493   4.298  0.4924 -0.4506 -1.8636
   66SAPC  C314 5529  -0.388   0.340   4.326  0.2411  0.6035  0.2439
   66SAPC  H14X 5530  -0.323   0.260   4.283  1.1154  1.3329  0.1901
   66SAPC  H14Y 5531  -0.487   0.302   4.291 -0.3496  1.7274  0.6606
   66SAPC  C315 5532  -0.388   0.329   4.478  0.0487  0.1913  0.2344
   66SAPC  H15X 5533  -0.314   0.404   4.514  0.6001  1.5560 -3.3710
   66SAPC  H15Y 5534  -0.375   0.227   4.519  0.8331  0.4367  0.6101
   66SAPC  C316 5535  -0.519   0.379   4.558  0.5631 -0.2364 -0.0212
   66SAPC  H16X 5536  -0.591   0.298   4.532  1.2011 -0.8598  0.1111
   66SAPC  H16Y 5537  -0.549   0.475   4.511 -0.0870 -1.2688 -1.8543
   66SAPC  C317 5538  -0.502   0.389   4.710 -0.2857  0.2816  0.1407
   66SAPC  H17X 5539  -0.557   0.473   4.757  0.7222  0.8181  0.3955
   66SAPC  H17Y 5540  -0.394   0.412   4.719 -0.6005  0.9925  2.7130
   66SAPC  C318 5541  -0.538   0.256   4.773 -0.3756  0.8670  0.6472
   66SAPC  H18X 5542  -0.491   0.249   4.873 -0.1666 -1.9853  0.4109
   66SAPC  H18Y 5543  -0.483   0.174   4.724 -1.1646  0.5865  0.2080
   66SAPC  H18Z 5544  -0.649   0.246   4.779 -0.6339  0.5089 -2.7547
   67SAPC     N 5545   6.292   6.799   2.151 -0.1241  0.2943 -0.6292
   67SAPC   C12 5546   6.245   6.714   2.263  0.1700  0.4247 -0.1352
   67SAPC  H12A 5547   6.311   6.629   2.275 -2.5750 -1.9578 -0.4610
   67SAPC  H12B 5548   6.152   6.673   2.225  1.1393 -1.5360 -0.5414
   67SAPC   C13 5549   6.191   6.905   2.115  0.3651 -0.0060  0.3980
   67SAPC  H13A 5550   6.149   6.953   2.202 -3.3073  0.3005 -1.3154
   67SAPC  H13B 5551   6.222   6.979   2.043  0.1756  0.7485  1.0850
   67SAPC  H13C 5552   6.101   6.864   2.070  0.4187 -0.3691  0.6185
   67SAPC   C14 5553   6.424   6.867   2.184  0.2089 -0.3693 -0.3480
   67SAPC  H14A 5554   6.416   6.917   2.279  1.0064 -1.4519  0.3021
   67SAPC  H14B 5555   6.500   6.792   2.201 -0.4357 -0.9317  0.1180
   67SAPC  H14C 5556   6.460   6.931   2.105  1.7706  0.2270  0.8024
   67SAPC   C15 5557   6.316   6.717   2.022  0.1814 -0.3245 -0.2527
   67SAPC  H15A 5558   6.379   6.629   2.034 -0.1065 -0.7851 -1.9566
   67SAPC  H15B 5559   6.222   6.671   1.998  0.9527 -1.6952 -0.7557
   67SAPC  H15C 5560   6.351   6.779   1.941  1.2351 -1.9136 -1.0743
   67SAPC   C11 5561   6.228   6.777   2.405 -0.4525 -0.7230  0.2558
   67SAPC  H11A 5562   6.323   6.833   2.421 -0.3144 -0.7128 -0.5668
   67SAPC  H11B 5563   6.218   6.690   2.473 -0.2367  0.9960  2.6244
   67SAPC     P 5564   5.983   6.827   2.449  0.0953  0.3504  0.0817
   67SAPC   O13 5565   5.898   6.872   2.338  0.2509  0.3002  0.4159
   67SAPC   O14 5566   5.976   6.690   2.495  0.5397  0.9863 -1.1142
   67SAPC   O12 5567   6.126   6.877   2.400  0.2943  0.0715 -0.0295
   67SAPC   O11 5568   5.958   6.919   2.570 -0.2825  0.2190 -0.4526
   67SAPC    C1 5569   6.031   7.040   2.591  0.2036 -0.3289  0.2093
   67SAPC    HA 5570   6.082   7.079   2.500 -0.2326 -0.2087  0.0090
   67SAPC    HB 5571   5.974   7.121   2.643  0.1540  0.1355 -0.5532
   67SAPC    C2 5572   6.155   7.030   2.693  0.7471 -0.2328  0.5109
   67SAPC    HS 5573   6.229   6.965   2.641  0.3472 -2.1073  2.1774
   67SAPC   O21 5574   6.110   6.973   2.815 -0.7463 -0.5664 -0.0326
   67SAPC   C21 5575   6.198   6.898   2.876 -0.2219 -0.1226 -0.7231
   67SAPC   O22 5576   6.303   6.867   2.827 -0.1606 -0.0299  0.3720
   67SAPC   C22 5577   6.157   6.879   3.020  0.6395  0.4355 -0.8641
   67SAPC   H2R 5578   6.149   6.980   3.066  1.2053  0.8336 -1.6167
   67SAPC   H2S 5579   6.052   6.842   3.013  0.2193  1.4524 -0.2443
   67SAPC    C3 5580   6.209   7.173   2.729 -0.2781  0.2034  0.1396
   67SAPC    HX 5581   6.217   7.215   2.626  0.2232 -2.2797 -0.9005
   67SAPC    HY 5582   6.309   7.161   2.774 -2.4840 -3.5918  4.9503
   67SAPC   O31 5583   6.114   7.254   2.805  0.6686  0.9013 -0.2255
   67SAPC   C31 5584   6.162   7.281   2.931  0.0105  0.2327  0.4348
   67SAPC   O32 5585   6.271   7.250   2.970 -0.8894  0.5320 -0.1584
   67SAPC   C32 5586   6.065   7.359   3.016 -0.1470 -0.5799  0.0192
   67SAPC   H2X 5587   5.990   7.410   2.953  0.2487 -0.1963 -0.1443
   67SAPC   H2Y 5588   6.125   7.442   3.058 -2.5363  1.7798 -0.9940
   67SAPC   C23 5589   6.255   6.795   3.096 -1.1033 -0.0024 -0.2963
   67SAPC   H3R 5590   6.285   6.697   3.053 -1.5174 -0.5601  0.6744
   67SAPC   H3S 5591   6.209   6.770   3.193  1.2150 -3.0884  0.1365
   67SAPC   C24 5592   6.377   6.882   3.136  0.0974 -0.2939 -0.4487
   67SAPC   H4R 5593   6.343   6.949   3.218  0.9622 -1.1687  0.6694
   67SAPC   H4S 5594   6.408   6.949   3.053 -0.1562 -0.7040 -0.8791
   67SAPC   C25 5595   6.481   6.784   3.188 -0.4169  0.1446  0.5067
   67SAPC   H5R 5596   6.522   6.709   3.118 -3.4843 -1.1472 -0.0562
   67SAPC   C26 5597   6.527   6.777   3.311 -0.4297  0.4132  0.5269
   67SAPC   H6R 5598   6.611   6.711   3.336  1.2785  2.4955  0.5662
   67SAPC   C27 5599   6.482   6.853   3.434 -0.0702  0.0063  0.5221
   67SAPC   H7R 5600   6.453   6.957   3.406 -1.4605 -1.1691 -2.9788
   67SAPC   H7S 5601   6.571   6.873   3.497 -1.5788  2.3487  2.0975
   67SAPC   C28 5602   6.378   6.791   3.514  0.6431 -0.4945  0.5307
   67SAPC   H8R 5603   6.287   6.792   3.452  1.7853  1.8955 -1.2864
   67SAPC   C29 5604   6.367   6.756   3.637 -0.2807 -0.0650  0.0079
   67SAPC   H9R 5605   6.266   6.723   3.664 -0.7888  0.9185 -0.6203
   67SAPC  C210 5606   6.485   6.740   3.733 -0.3209  0.4552  0.3800
   67SAPC  H10R 5607   6.485   6.840   3.780  3.2558 -0.1788  2.1277
   67SAPC  H10S 5608   6.577   6.738   3.670 -0.6454 -2.3579 -0.1472
   67SAPC  C211 5609   6.475   6.619   3.828  0.0298  0.6929 -0.1551
   67SAPC  H11R 5610   6.451   6.522   3.781  0.1657  0.8397 -0.5312
   67SAPC  C212 5611   6.519   6.614   3.956 -0.2896 -0.0134 -0.2513
   67SAPC  H12R 5612   6.500   6.527   4.019  0.1678  0.6940  0.8989
   67SAPC  C213 5613   6.570   6.735   4.038  0.4918 -0.1811 -0.6561
   67SAPC  H13R 5614   6.610   6.818   3.977 -2.1801  1.7283 -0.0094
   67SAPC  H13S 5615   6.655   6.693   4.097  0.9571 -1.3227 -2.0730
   67SAPC  C214 5616   6.463   6.795   4.127  0.1737 -0.9065  0.4431
   67SAPC  H14R 5617   6.441   6.899   4.100 -0.3067 -1.2393 -0.4849
   67SAPC  C215 5618   6.407   6.744   4.237  0.1463  0.7417  0.0706
   67SAPC  H15R 5619   6.326   6.803   4.283  0.2187  0.4778  0.5418
   67SAPC  C216 5620   6.438   6.612   4.297 -0.2421 -0.3899  0.2954
   67SAPC  H16R 5621   6.537   6.574   4.261  0.5685  0.0531  1.9897
   67SAPC  H16S 5622   6.354   6.543   4.272 -0.5601 -0.1968  0.8370
   67SAPC  C217 5623   6.453   6.606   4.451  0.0992  0.3426  0.6689
   67SAPC  H17R 5624   6.540   6.671   4.474  0.0147  0.1093  1.6926
   67SAPC  H17S 5625   6.489   6.505   4.480  0.8093  0.1896 -0.6437
   67SAPC  C218 5626   6.319   6.647   4.513  0.1742  0.2054 -0.6631
   67SAPC  H18R 5627   6.236   6.591   4.465 -0.0363 -0.1430  0.0910
   67SAPC  H18S 5628   6.308   6.757   4.507  0.8253  0.3498  0.4859
   67SAPC  C219 5629   6.312   6.620   4.664  0.5893  1.2295 -0.0060
   67SAPC  H19R 5630   6.313   6.510   4.679  0.8962  1.1786 -0.3836
   67SAPC  H19S 5631   6.214   6.664   4.692 -0.0414 -0.5606  0.7758
   67SAPC  C220 5632   6.425   6.682   4.733 -1.1006  0.4607  0.3026
   67SAPC  H20R 5633   6.433   6.788   4.702 -0.4673 -0.0160 -1.2737
   67SAPC  H20S 5634   6.523   6.638   4.705 -0.5886  0.7332  1.5984
   67SAPC  H20T 5635   6.412   6.680   4.843  1.2295 -2.2471  0.6547
   67SAPC   C33 5636   6.006   7.267   3.127 -0.1552 -0.1594  0.9255
   67SAPC   H3X 5637   5.980   7.165   3.092 -2.0668 -0.3240  2.6522
   67SAPC   H3Y 5638   5.906   7.313   3.142 -0.9257 -0.8999 -1.4839
   67SAPC   C34 5639   6.087   7.267   3.256  0.1784  0.5048 -0.3773
   67SAPC   H4X 5640   6.086   7.364   3.310 -1.2496  0.3280 -0.0367
   67SAPC   H4Y 5641   6.195   7.243   3.253  0.2357 -0.4784  3.5825
   67SAPC   C35 5642   6.026   7.162   3.354 -0.3959  0.1845 -0.7001
   67SAPC   H5X 5643   6.028   7.059   3.314 -3.4940 -0.0244 -0.5286
   67SAPC   H5Y 5644   5.918   7.174   3.378 -0.3089  2.1703 -1.0852
   67SAPC   C36 5645   6.107   7.150   3.487 -0.4970 -0.0928 -0.2536
   67SAPC   H6X 5646   6.096   7.251   3.531  0.6928  1.1343 -2.5821
   67SAPC   H6Y 5647   6.215   7.141   3.462 -1.2540 -0.4137 -4.0306
   67SAPC   C37 5648   6.053   7.049   3.582 -0.0446 -0.1508 -0.0670
   67SAPC   H7X 5649   6.071   6.945   3.547 -0.5060 -0.5761  0.9230
   67SAPC   H7Y 5650   5.944   7.063   3.595  0.0380 -1.0932  2.1386
   67SAPC   C38 5651   6.126   7.060   3.717 -0.2168  0.1685 -0.8618
   67SAPC   H8X 5652   6.099   7.160   3.757  1.5635  0.7985 -1.1460
   67SAPC   H8Y 5653   6.237   7.058   3.704  0.0101  0.5505  0.7949
   67SAPC   C39 5654   6.066   6.954   3.815  0.3563 -0.0325 -0.2819
   67SAPC   H9X 5655   6.092   6.852   3.780 -0.4084 -0.2505 -0.2521
   67SAPC   H9Y 5656   5.955   6.956   3.802  0.0978  3.0218  1.4465
   67SAPC  C310 5657   6.111   6.979   3.958  0.5746 -0.1665 -0.5654
   67SAPC  H10X 5658   6.216   7.014   3.969  0.8339 -0.1677 -2.6949
   67SAPC  H10Y 5659   6.093   6.881   4.007 -0.9191 -1.8440 -4.1191
   67SAPC  C311 5660   6.021   7.082   4.035  0.1888  0.0283  0.0455
   67SAPC  H11X 5661   5.925   7.030   4.054 -0.9617  1.7900 -0.6788
   67SAPC  H11Y 5662   6.011   7.171   3.970  1.4525  0.9326  1.0294
   67SAPC  C312 5663   6.067   7.107   4.176 -0.4210  0.0362  0.0511
   67SAPC  H12X 5664   6.155   7.174   4.174 -0.3887 -0.0093 -0.1583
   67SAPC  H12Y 5665   6.092   7.006   4.216  2.6342  0.2247 -1.1584
   67SAPC  C313 5666   5.951   7.162   4.270 -0.2800 -0.0846 -0.5577
   67SAPC  H13X 5667   5.990   7.175   4.373 -0.6222 -0.0752 -0.4290
   67SAPC  H13Y 5668   5.874   7.083   4.271  0.9576 -1.3381 -0.7516
   67SAPC  C314 5669   5.881   7.287   4.231  0.0095 -0.0398 -0.3084
   67SAPC  H14X 5670   5.794   7.312   4.296  1.6285 -0.1650  2.0362
   67SAPC  H14Y 5671   5.856   7.275   4.124  1.2764  0.0119 -0.6157
   67SAPC  C315 5672   5.977   7.408   4.248 -0.2372  0.6292 -0.0077
   67SAPC  H15X 5673   5.924   7.491   4.196 -0.9590  0.1465 -0.0438
   67SAPC  H15Y 5674   6.076   7.387   4.202 -0.5711  0.7998 -0.8060
   67SAPC  C316 5675   5.990   7.450   4.403  0.0466  0.4884  0.1643
   67SAPC  H16X 5676   6.053   7.382   4.463  1.6044 -1.3029 -3.2545
   67SAPC  H16Y 5677   5.887   7.446   4.444  0.6114 -0.4176  1.5443
   67SAPC  C317 5678   6.061   7.582   4.416 -0.1293 -0.6356  0.3861
   67SAPC  H17X 5679   6.058   7.594   4.526 -0.0403 -3.4691  0.7579
   67SAPC  H17Y 5680   6.004   7.668   4.373 -0.8839 -0.4671  1.6488
   67SAPC  C318 5681   6.205   7.597   4.361 -0.5013 -0.0121  0.4251
   67SAPC  H18X 5682   6.255   7.694   4.379  2.0955 -1.1115 -0.3774
   67SAPC  H18Y 5683   6.198   7.585   4.251  0.4181  4.0767 -0.2288
   67SAPC  H18Z 5684   6.271   7.519   4.405 -1.7094 -2.8145 -2.3230
   68SAPC     N 5685   2.636   6.735   2.340  0.0950  0.1943 -0.2523
   68SAPC   C12 5686   2.579   6.663   2.458  0.4956 -0.3516  0.4240
   68SAPC  H12A 5687   2.477   6.694   2.472  0.8992  2.1457 -1.4521
   68SAPC  H12B 5688   2.630   6.687   2.550  1.1019  0.3847 -0.0912
   68SAPC   C13 5689   2.552   6.732   2.221  0.8156 -0.3189 -0.0623
   68SAPC  H13A 5690   2.550   6.635   2.173  1.0073  0.1901 -1.1361
   68SAPC  H13B 5691   2.451   6.769   2.233  1.4617  1.9031 -0.8915
   68SAPC  H13C 5692   2.600   6.792   2.145  0.7593 -0.4098 -0.1697
   68SAPC   C14 5693   2.645   6.880   2.381 -0.1879  0.2188  0.3097
   68SAPC  H14A 5694   2.691   6.898   2.477 -1.5040  1.4154  0.7489
   68SAPC  H14B 5695   2.699   6.936   2.306  0.0454  2.1761  1.8649
   68SAPC  H14C 5696   2.543   6.916   2.384  0.2291  1.3179  2.4043
   68SAPC   C15 5697   2.773   6.686   2.297  0.1104 -0.0684 -0.2511
   68SAPC  H15A 5698   2.823   6.762   2.238  1.8263  0.9922  2.4014
   68SAPC  H15B 5699   2.840   6.675   2.381  2.1289 -2.2948 -2.0145
   68SAPC  H15C 5700   2.775   6.590   2.248  0.7749  1.2887 -3.0757
   68SAPC   C11 5701   2.585   6.506   2.455  1.3064 -0.7126  0.5084
   68SAPC  H11A 5702   2.532   6.472   2.548  0.3350  1.3860  0.7826
   68SAPC  H11B 5703   2.693   6.481   2.455  1.2389 -1.0330  1.0050
   68SAPC     P 5704   2.548   6.328   2.271 -0.0218  0.3250  0.2981
   68SAPC   O13 5705   2.456   6.290   2.158  0.2994 -0.0138 -0.1991
   68SAPC   O14 5706   2.687   6.339   2.233 -0.0674  0.1929  0.3527
   68SAPC   O12 5707   2.502   6.455   2.351  0.1897 -0.4147  1.1113
   68SAPC   O11 5708   2.543   6.212   2.384 -0.0366  0.1092  0.4024
   68SAPC    C1 5709   2.424   6.142   2.432 -0.2744  0.4549 -0.2396
   68SAPC    HA 5710   2.332   6.156   2.371 -1.2131 -1.7165  0.5627
   68SAPC    HB 5711   2.446   6.034   2.415  0.0944  0.2872  1.2148
   68SAPC    C2 5712   2.398   6.176   2.583 -0.3984  0.0997 -0.4226
   68SAPC    HS 5713   2.311   6.116   2.618 -1.6555  1.5055 -1.0289
   68SAPC   O21 5714   2.364   6.316   2.600  0.2478 -0.0054  0.1663
   68SAPC   C21 5715   2.246   6.353   2.562  0.0472  0.4028 -0.0337
   68SAPC   O22 5716   2.152   6.288   2.520 -0.5869  0.2601 -0.9334
   68SAPC   C22 5717   2.233   6.498   2.594  0.1278  0.2981 -0.5005
   68SAPC   H2R 5718   2.319   6.557   2.553  0.7619 -1.4621 -1.8456
   68SAPC   H2S 5719   2.137   6.526   2.547 -0.1742 -2.2320 -1.5496
   68SAPC    C3 5720   2.528   6.141   2.655  0.1153  0.2516 -0.0262
   68SAPC    HX 5721   2.614   6.189   2.604  1.6637 -0.7354  1.5184
   68SAPC    HY 5722   2.536   6.030   2.649  3.1324  0.4707 -1.4977
   68SAPC   O31 5723   2.526   6.186   2.794  0.2907  0.6239 -0.1722
   68SAPC   C31 5724   2.442   6.122   2.882 -0.6003  0.1163 -0.6626
   68SAPC   O32 5725   2.366   6.032   2.844 -0.4917  0.8801 -0.8238
   68SAPC   C32 5726   2.455   6.164   3.028  0.3995  0.1960 -0.1378
   68SAPC   H2X 5727   2.401   6.259   3.046 -0.5274 -0.4123  0.3759
   68SAPC   H2Y 5728   2.561   6.185   3.053 -0.2525  0.3727  2.9392
   68SAPC   C23 5729   2.232   6.547   2.744  0.5335  1.2718 -0.3078
   68SAPC   H3R 5730   2.183   6.646   2.760 -0.3466  0.8984 -0.6024
   68SAPC   H3S 5731   2.336   6.559   2.781  0.9144 -1.4785 -0.2817
   68SAPC   C24 5732   2.148   6.444   2.832 -0.3729 -0.2949 -0.0817
   68SAPC   H4R 5733   2.169   6.466   2.939  4.3023 -1.1074 -0.5948
   68SAPC   H4S 5734   2.194   6.345   2.809 -1.9421 -1.2314  0.6819
   68SAPC   C25 5735   2.001   6.448   2.800  0.4499  0.2847 -0.4365
   68SAPC   H5R 5736   1.984   6.441   2.692  0.7578  1.3586 -0.5617
   68SAPC   C26 5737   1.898   6.476   2.883  0.2471 -0.2425 -0.4918
   68SAPC   H6R 5738   1.799   6.477   2.836  0.2169 -2.9594 -0.6524
   68SAPC   C27 5739   1.894   6.514   3.030 -0.6291  0.3703  0.2220
   68SAPC   H7R 5740   1.989   6.478   3.076 -0.2169 -0.6323 -1.3304
   68SAPC   H7S 5741   1.811   6.460   3.081 -2.6448  3.2991  0.2202
   68SAPC   C28 5742   1.868   6.662   3.059  0.7101 -0.4689  0.1826
   68SAPC   H8R 5743   1.830   6.725   2.977 -1.3825 -0.3493  1.1947
   68SAPC   C29 5744   1.893   6.726   3.176  0.0498 -0.5619 -0.4053
   68SAPC   H9R 5745   1.879   6.835   3.180 -0.3553 -0.6170 -0.3317
   68SAPC  C210 5746   1.933   6.676   3.309  0.3224  0.6641 -0.8709
   68SAPC  H10R 5747   1.949   6.566   3.312  2.9449  1.0041  0.3347
   68SAPC  H10S 5748   1.851   6.690   3.383  0.2246 -0.0349 -0.8442
   68SAPC  C211 5749   2.062   6.747   3.368 -0.2886  0.3731  0.7396
   68SAPC  H11R 5750   2.142   6.747   3.293  1.0732 -1.6830  2.0853
   68SAPC  C212 5751   2.105   6.777   3.490 -0.6454  0.9861 -0.5010
   68SAPC  H12R 5752   2.205   6.820   3.505 -0.9547  0.9580  1.9134
   68SAPC  C213 5753   2.016   6.735   3.608  0.2020 -0.0194  0.2983
   68SAPC  H13R 5754   2.080   6.673   3.676  0.0057 -2.3762 -1.5246
   68SAPC  H13S 5755   1.929   6.678   3.570  0.0401  1.6778 -2.0552
   68SAPC  C214 5756   1.977   6.850   3.689  0.2093 -1.2732  0.1870
   68SAPC  H14R 5757   1.951   6.944   3.637 -0.9209  0.1135  3.0010
   68SAPC  C215 5758   1.958   6.849   3.824  0.3814 -0.0680  0.4876
   68SAPC  H15R 5759   1.915   6.939   3.871 -0.7539  0.8368 -2.0982
   68SAPC  C216 5760   1.977   6.729   3.913 -0.2086  0.3689  0.0684
   68SAPC  H16R 5761   2.080   6.700   3.943  0.1543  2.2230  0.7249
   68SAPC  H16S 5762   1.940   6.635   3.865 -2.3760  0.8175  0.7695
   68SAPC  C217 5763   1.903   6.737   4.042  0.3363  0.0098 -0.0878
   68SAPC  H17R 5764   1.866   6.635   4.069 -2.5973  0.9601 -0.1870
   68SAPC  H17S 5765   1.812   6.798   4.027  0.2067 -0.3530 -0.8150
   68SAPC  C218 5766   1.985   6.802   4.154  0.0224  0.2252 -0.0686
   68SAPC  H18R 5767   2.042   6.886   4.109 -0.8400 -0.1755 -2.0328
   68SAPC  H18S 5768   2.056   6.725   4.189 -0.7969 -1.6044 -2.1903
   68SAPC  C219 5769   1.905   6.868   4.273  0.3471  0.1027  0.8433
   68SAPC  H19R 5770   1.814   6.922   4.240  0.8815  0.3813 -0.2121
   68SAPC  H19S 5771   1.976   6.944   4.313  0.4636  0.4044  0.0765
   68SAPC  C220 5772   1.860   6.759   4.376  0.0881  0.5712 -0.6130
   68SAPC  H20R 5773   1.935   6.687   4.415 -0.6271  0.4171  0.5229
   68SAPC  H20S 5774   1.775   6.698   4.340  0.1609 -1.7157  2.7251
   68SAPC  H20T 5775   1.824   6.815   4.464 -1.1252 -2.1236  0.7153
   68SAPC   C33 5776   2.398   6.060   3.125 -0.3297 -0.2657  0.2763
   68SAPC   H3X 5777   2.296   6.030   3.093  0.6367 -2.5844 -0.8521
   68SAPC   H3Y 5778   2.387   6.120   3.218  0.1363  1.8221 -0.9681
   68SAPC   C34 5779   2.493   5.945   3.160  0.2264 -0.5152 -0.5198
   68SAPC   H4X 5780   2.564   5.991   3.231  0.9661 -2.7976  0.3146
   68SAPC   H4Y 5781   2.550   5.907   3.072  0.1617  0.4592 -0.9934
   68SAPC   C35 5782   2.426   5.829   3.234  0.4026  0.0579  0.0418
   68SAPC   H5X 5783   2.505   5.762   3.274 -0.0508 -1.2826 -1.2359
   68SAPC   H5Y 5784   2.358   5.772   3.168  1.0189  0.4422 -0.9384
   68SAPC   C36 5785   2.337   5.857   3.355  0.1922  0.5695  0.5802
   68SAPC   H6X 5786   2.283   5.764   3.384 -2.9883  1.7468 -0.9814
   68SAPC   H6Y 5787   2.254   5.921   3.317 -0.3419 -1.8216 -2.7211
   68SAPC   C37 5788   2.397   5.912   3.479 -0.5793  0.4532  0.0935
   68SAPC   H7X 5789   2.436   6.012   3.450 -2.1495  1.3936  1.0641
   68SAPC   H7Y 5790   2.496   5.869   3.507 -0.2164  1.3584  0.2407
   68SAPC   C38 5791   2.291   5.923   3.587 -0.7175 -0.1994 -0.0856
   68SAPC   H8X 5792   2.260   5.820   3.613  1.0556 -0.4247  1.3356
   68SAPC   H8Y 5793   2.199   5.979   3.559  0.0170  0.8068 -0.5530
   68SAPC   C39 5794   2.347   5.973   3.720 -0.7445 -0.0849 -0.2604
   68SAPC   H9X 5795   2.384   6.076   3.702  0.5266 -0.4949 -0.0588
   68SAPC   H9Y 5796   2.439   5.916   3.742 -0.6152  0.2184 -0.0195
   68SAPC  C310 5797   2.245   5.983   3.830 -0.1301  0.2211  0.0722
   68SAPC  H10X 5798   2.206   5.880   3.821  1.9218 -0.4409 -2.1403
   68SAPC  H10Y 5799   2.168   6.055   3.796  1.0091  0.7548 -1.4944
   68SAPC  C311 5800   2.313   6.002   3.962  0.4437 -0.9316  0.3200
   68SAPC  H11X 5801   2.370   6.097   3.965 -2.7616  1.1497  0.5378
   68SAPC  H11Y 5802   2.386   5.920   3.980  0.2125 -1.6246 -1.6487
   68SAPC  C312 5803   2.205   5.995   4.071 -0.6201  0.2542 -0.2926
   68SAPC  H12X 5804   2.143   5.907   4.045 -1.1837  0.3801  0.5959
   68SAPC  H12Y 5805   2.142   6.086   4.080  1.4587  1.6333  1.5607
   68SAPC  C313 5806   2.279   5.969   4.212 -0.4979  0.0410  0.3700
   68SAPC  H13X 5807   2.348   6.051   4.240 -2.7618  1.2533  2.8063
   68SAPC  H13Y 5808   2.325   5.869   4.226 -1.8337 -0.5770  0.5090
   68SAPC  C314 5809   2.180   5.980   4.325  0.0454  0.2804  0.1945
   68SAPC  H14X 5810   2.093   5.913   4.307 -0.3215  0.2371  2.0045
   68SAPC  H14Y 5811   2.126   6.076   4.340 -0.5139  0.0752 -0.4385
   68SAPC  C315 5812   2.244   5.937   4.453 -0.9868 -0.6123  0.1618
   68SAPC  H15X 5813   2.310   5.849   4.438  1.1425  0.9695 -0.2378
   68SAPC  H15Y 5814   2.161   5.904   4.519 -0.4235 -0.2125  1.0858
   68SAPC  C316 5815   2.323   6.042   4.534 -0.1640  0.8483  0.0290
   68SAPC  H16X 5816   2.260   6.124   4.575 -1.8803 -0.4934  0.1952
   68SAPC  H16Y 5817   2.403   6.083   4.468  0.3011  0.7011  0.4940
   68SAPC  C317 5818   2.407   5.966   4.653 -0.4451  0.4946  0.1295
   68SAPC  H17X 5819   2.453   5.879   4.601  0.7830  1.8774 -1.2186
   68SAPC  H17Y 5820   2.337   5.942   4.736  0.3258 -0.5946  0.4868
   68SAPC  C318 5821   2.518   6.062   4.704  0.1801  0.2897 -0.1402
   68SAPC  H18X 5822   2.533   6.030   4.809 -0.1508  4.1309  1.2054
   68SAPC  H18Y 5823   2.476   6.164   4.697  1.3129  0.8256  0.5456
   68SAPC  H18Z 5824   2.608   6.045   4.641  0.7055 -0.4230  0.7826
   69SAPC     N 5825   1.781   5.026   2.488  0.1269  0.0627  0.1247
   69SAPC   C12 5826   1.733   4.916   2.389 -0.9247 -1.0900 -0.2913
   69SAPC  H12A 5827   1.801   4.832   2.392  0.0769 -0.2996 -0.1369
   69SAPC  H12B 5828   1.734   4.955   2.289 -2.0794 -1.0628 -0.2995
   69SAPC   C13 5829   1.706   5.155   2.469 -0.3330  0.1682 -0.6027
   69SAPC  H13A 5830   1.726   5.222   2.552 -4.0995 -0.6580  1.1495
   69SAPC  H13B 5831   1.751   5.200   2.382  0.8228 -1.4158 -0.8871
   69SAPC  H13C 5832   1.600   5.139   2.458 -0.8282  2.8223 -0.4001
   69SAPC   C14 5833   1.737   4.995   2.626 -0.1225 -0.1269 -0.5022
   69SAPC  H14A 5834   1.629   4.998   2.630 -0.1974 -1.0207 -1.3705
   69SAPC  H14B 5835   1.750   4.895   2.663 -3.7269 -0.6011 -0.1801
   69SAPC  H14C 5836   1.780   5.060   2.700 -0.0473 -1.2571  0.4712
   69SAPC   C15 5837   1.929   5.047   2.485 -0.2315 -0.2395  0.8373
   69SAPC  H15A 5838   1.953   5.092   2.390 -1.6659 -0.3286  0.4021
   69SAPC  H15B 5839   1.956   5.112   2.567  0.2746 -1.3569  1.5797
   69SAPC  H15C 5840   1.989   4.961   2.505  0.4778  0.2482  0.8412
   69SAPC   C11 5841   1.598   4.868   2.416  0.4233 -0.2719 -0.1315
   69SAPC  H11A 5842   1.589   4.820   2.515 -0.0468 -1.1575 -0.5958
   69SAPC  H11B 5843   1.573   4.792   2.339 -0.3717  0.7479 -0.9131
   69SAPC     P 5844   1.373   4.980   2.462  0.2029  0.3515  0.0563
   69SAPC   O13 5845   1.306   5.106   2.418 -0.0568  0.2548 -0.0046
   69SAPC   O14 5846   1.298   4.858   2.421  0.4617 -0.3938  0.2616
   69SAPC   O12 5847   1.509   4.980   2.394  0.0163  0.0192  0.1014
   69SAPC   O11 5848   1.397   4.973   2.620  0.5724 -0.0801  0.2091
   69SAPC    C1 5849   1.290   4.926   2.703 -0.1913  0.1933 -0.2401
   69SAPC    HA 5850   1.191   4.918   2.652 -0.3646  1.6076 -0.1539
   69SAPC    HB 5851   1.327   4.827   2.738 -1.3720 -0.1133  0.2149
   69SAPC    C2 5852   1.265   5.024   2.818  0.5446 -0.5025  0.7009
   69SAPC    HS 5853   1.228   5.122   2.782 -0.1959 -0.7846  0.6825
   69SAPC   O21 5854   1.385   5.037   2.891 -0.7452 -0.9155 -0.5133
   69SAPC   C21 5855   1.454   5.145   2.854  0.2214 -0.5229 -0.1654
   69SAPC   O22 5856   1.420   5.227   2.770  0.2385  0.4658  0.2996
   69SAPC   C22 5857   1.586   5.157   2.924 -0.9558 -0.0253 -0.3868
   69SAPC   H2R 5858   1.602   5.068   2.989  2.4090 -0.7684 -2.0430
   69SAPC   H2S 5859   1.661   5.155   2.842 -0.2039 -2.3314  0.2886
   69SAPC    C3 5860   1.154   4.963   2.912 -0.0012  0.2471 -0.0548
   69SAPC    HX 5861   1.179   4.855   2.903 -1.1404 -0.1718  1.2626
   69SAPC    HY 5862   1.054   4.981   2.866 -0.1646  0.3656  0.3377
   69SAPC   O31 5863   1.159   5.010   3.050  0.1230 -0.3340 -0.4424
   69SAPC   C31 5864   1.214   4.920   3.133 -0.0670  0.0615 -0.3583
   69SAPC   O32 5865   1.230   4.801   3.108  0.9996 -0.6454  0.3079
   69SAPC   C32 5866   1.236   4.991   3.264 -0.7215  0.1562 -0.7170
   69SAPC   H2X 5867   1.170   5.081   3.265 -1.8721 -0.6583 -0.6797
   69SAPC   H2Y 5868   1.334   5.041   3.258 -1.0928  0.7434 -2.1120
   69SAPC   C23 5869   1.585   5.291   3.010  0.4448  0.1759 -0.2449
   69SAPC   H3R 5870   1.531   5.369   2.953 -1.2880 -1.0145 -0.3069
   69SAPC   H3S 5871   1.692   5.316   3.026 -0.2465  1.8368  2.5387
   69SAPC   C24 5872   1.526   5.268   3.152  0.4769  0.1601  0.2798
   69SAPC   H4R 5873   1.429   5.216   3.141 -0.6793  1.9086  1.6914
   69SAPC   H4S 5874   1.495   5.369   3.187 -0.0038  0.2629 -0.4415
   69SAPC   C25 5875   1.628   5.191   3.239  0.0555 -1.0597  0.5288
   69SAPC   H5R 5876   1.668   5.095   3.202  1.8105  0.0984 -0.7666
   69SAPC   C26 5877   1.695   5.241   3.344  0.3212 -0.2408 -0.2443
   69SAPC   H6R 5878   1.772   5.182   3.396  0.3901  0.6983  0.7418
   69SAPC   C27 5879   1.665   5.374   3.407  0.8808 -0.1389  0.1081
   69SAPC   H7R 5880   1.624   5.450   3.337  0.0148 -0.6304  0.0755
   69SAPC   H7S 5881   1.766   5.416   3.430  2.0298 -1.9904 -1.2109
   69SAPC   C28 5882   1.575   5.364   3.533  0.3536 -0.0737 -0.4839
   69SAPC   H8R 5883   1.469   5.357   3.506 -0.3232  0.4365  1.8288
   69SAPC   C29 5884   1.609   5.378   3.661 -0.1944  0.9054 -0.4328
   69SAPC   H9R 5885   1.538   5.356   3.742 -1.2284 -0.4208 -1.6515
   69SAPC  C210 5886   1.745   5.413   3.713 -0.2093 -0.7092 -0.1765
   69SAPC  H10R 5887   1.767   5.506   3.657 -0.9103 -0.5242 -0.1628
   69SAPC  H10S 5888   1.828   5.348   3.679  2.6184  1.7590  1.5302
   69SAPC  C211 5889   1.767   5.453   3.859 -0.3547  0.1301 -0.0852
   69SAPC  H11R 5890   1.803   5.557   3.861  1.2507 -0.4097  0.8778
   69SAPC  C212 5891   1.746   5.380   3.965  0.5669 -0.4142 -0.7487
   69SAPC  H12R 5892   1.778   5.409   4.066  0.2249  2.9901 -1.4992
   69SAPC  C213 5893   1.681   5.237   3.974  0.3290 -0.6490  0.9380
   69SAPC  H13R 5894   1.761   5.159   3.966 -1.4955 -2.6795  1.4241
   69SAPC  H13S 5895   1.617   5.216   3.885  0.7375  1.7370  0.0249
   69SAPC  C214 5896   1.606   5.221   4.100  0.1329 -0.2959 -0.3560
   69SAPC  H14R 5897   1.505   5.264   4.103  0.3335  0.1601 -0.1539
   69SAPC  C215 5898   1.654   5.165   4.212 -0.2493  0.8864 -0.2176
   69SAPC  H15R 5899   1.580   5.170   4.293 -1.8791  2.8377 -1.7455
   69SAPC  C216 5900   1.782   5.096   4.246 -0.0321 -0.7670 -0.2842
   69SAPC  H16R 5901   1.861   5.148   4.187 -1.4875  0.5933 -1.0912
   69SAPC  H16S 5902   1.771   4.990   4.215 -3.1015 -0.3347 -0.9609
   69SAPC  C217 5903   1.823   5.110   4.396 -0.3280 -0.0140  0.0167
   69SAPC  H17R 5904   1.924   5.069   4.415 -0.0951 -0.3975 -1.8481
   69SAPC  H17S 5905   1.750   5.053   4.458  0.2873 -0.2883  0.4964
   69SAPC  C218 5906   1.812   5.260   4.439  0.4810  1.0079  0.7473
   69SAPC  H18R 5907   1.706   5.289   4.458 -0.3645  0.7690 -2.8393
   69SAPC  H18S 5908   1.837   5.316   4.347 -3.3144 -1.9214 -2.4465
   69SAPC  C219 5909   1.886   5.311   4.564 -0.3012  0.4810  0.4149
   69SAPC  H19R 5910   1.864   5.420   4.574 -2.6786 -0.0704  2.0449
   69SAPC  H19S 5911   1.995   5.305   4.543 -0.7828  0.3190 -2.5711
   69SAPC  C220 5912   1.852   5.244   4.694  0.4842  0.5038 -0.0689
   69SAPC  H20R 5913   1.884   5.310   4.778 -1.1300  0.6390  0.4730
   69SAPC  H20S 5914   1.892   5.141   4.700 -1.6952 -0.4736 -1.2338
   69SAPC  H20T 5915   1.744   5.221   4.703  1.0074 -2.3901 -0.2490
   69SAPC   C33 5916   1.223   4.894   3.388 -0.2211 -0.2044 -0.0145
   69SAPC   H3X 5917   1.140   4.823   3.365 -0.7208  0.6619 -0.9329
   69SAPC   H3Y 5918   1.196   4.940   3.485  1.2936 -4.1252  2.5561
   69SAPC   C34 5919   1.351   4.815   3.418 -0.8968  0.0396  0.4377
   69SAPC   H4X 5920   1.373   4.750   3.330 -0.3119  2.4472 -1.2776
   69SAPC   H4Y 5921   1.339   4.756   3.512 -1.0138 -0.9107 -0.1546
   69SAPC   C35 5922   1.473   4.908   3.439  0.3460 -0.2235  0.3531
   69SAPC   H5X 5923   1.445   5.005   3.484  1.7777 -0.0501  0.9059
   69SAPC   H5Y 5924   1.524   4.928   3.342 -1.1004  0.0272 -0.3894
   69SAPC   C36 5925   1.584   4.841   3.516 -0.2858 -0.2446 -0.4661
   69SAPC   H6X 5926   1.679   4.882   3.477 -0.4219  1.3768  0.8262
   69SAPC   H6Y 5927   1.590   4.730   3.507  1.3103 -0.1610 -0.6476
   69SAPC   C37 5928   1.596   4.871   3.666  0.2315  0.4771  0.0895
   69SAPC   H7X 5929   1.608   4.980   3.683  3.0044 -0.0533  2.0645
   69SAPC   H7Y 5930   1.690   4.828   3.707 -0.5159  1.1264  2.6535
   69SAPC   C38 5931   1.488   4.803   3.754  0.2253  0.5371  0.3075
   69SAPC   H8X 5932   1.492   4.692   3.749  0.8715  0.6072 -1.1176
   69SAPC   H8Y 5933   1.385   4.829   3.724  0.1212  0.0629  0.2557
   69SAPC   C39 5934   1.508   4.855   3.897 -0.4085  0.1315  0.1504
   69SAPC   H9X 5935   1.512   4.966   3.891  2.9021  0.1588  1.1095
   69SAPC   H9Y 5936   1.609   4.812   3.912  0.1841  1.3188 -0.3191
   69SAPC  C310 5937   1.413   4.801   4.006 -0.2717 -0.4441 -0.6039
   69SAPC  H10X 5938   1.454   4.699   4.023 -0.0704 -0.1051  1.2379
   69SAPC  H10Y 5939   1.309   4.784   3.970 -0.2814 -0.4302 -0.5829
   69SAPC  C311 5940   1.412   4.891   4.135 -0.2266  0.1294  0.5707
   69SAPC  H11X 5941   1.394   4.990   4.088  0.7925  0.1201  0.1452
   69SAPC  H11Y 5942   1.509   4.895   4.189  0.2685 -0.4413 -0.2558
   69SAPC  C312 5943   1.283   4.872   4.220  0.2988 -0.4357 -0.1540
   69SAPC  H12X 5944   1.295   4.776   4.276  1.8348  0.7682  1.6887
   69SAPC  H12Y 5945   1.195   4.883   4.154 -0.9291 -2.3623  1.0411
   69SAPC  C313 5946   1.272   4.982   4.331  0.2070 -0.4696 -0.9970
   69SAPC  H13X 5947   1.175   4.982   4.385 -0.2121  0.8135 -1.6970
   69SAPC  H13Y 5948   1.270   5.083   4.285 -0.2756  0.1751  0.3900
   69SAPC  C314 5949   1.382   4.982   4.431  0.3575 -0.3595  0.3042
   69SAPC  H14X 5950   1.410   5.088   4.451 -0.5423  0.0245 -0.3835
   69SAPC  H14Y 5951   1.471   4.921   4.404  0.0928 -1.5319  1.9224
   69SAPC  C315 5952   1.332   4.916   4.558  0.2217 -0.5795 -0.7619
   69SAPC  H15X 5953   1.290   4.819   4.524  1.5697 -1.6256  0.4430
   69SAPC  H15Y 5954   1.252   4.963   4.619 -0.4110 -1.6559 -0.7417
   69SAPC  C316 5955   1.447   4.877   4.652  0.5449  0.0946  0.1245
   69SAPC  H16X 5956   1.481   4.960   4.717 -2.6021  1.9962 -0.4478
   69SAPC  H16Y 5957   1.532   4.838   4.592 -0.2279  0.5157 -1.3168
   69SAPC  C317 5958   1.399   4.767   4.752 -0.4546 -0.5020  0.5580
   69SAPC  H17X 5959   1.421   4.667   4.709  0.2687  0.7286 -2.1100
   69SAPC  H17Y 5960   1.291   4.764   4.776 -0.8089 -1.2447 -1.0594
   69SAPC  C318 5961   1.474   4.768   4.890 -0.1541 -0.0232  0.1937
   69SAPC  H18X 5962   1.431   4.686   4.951  0.4930 -1.8616 -1.6930
   69SAPC  H18Y 5963   1.473   4.861   4.951 -0.3066 -1.4285  2.4062
   69SAPC  H18Z 5964   1.578   4.740   4.863  0.0296 -0.0318  0.9142
   70SAPC     N 5965   1.530   1.498   1.974 -0.1142 -0.5941 -0.3098
   70SAPC   C12 5966   1.628   1.437   2.078  0.1809 -0.1357  0.1166
   70SAPC  H12A 5967   1.613   1.494   2.169  0.2222 -0.0837  0.0906
   70SAPC  H12B 5968   1.729   1.466   2.053 -0.1271 -0.0103 -1.0346
   70SAPC   C13 5969   1.383   1.466   2.007 -0.3700  0.7782 -0.0649
   70SAPC  H13A 5970   1.337   1.543   2.068 -0.6871 -0.3810  1.2201
   70SAPC  H13B 5971   1.328   1.457   1.915  2.1410  0.5270 -1.6187
   70SAPC  H13C 5972   1.390   1.369   2.055  2.7401  0.6371 -0.5673
   70SAPC   C14 5973   1.553   1.649   1.961  0.1998  0.1134 -0.4188
   70SAPC  H14A 5974   1.564   1.690   2.061 -0.3162 -1.7375  0.4507
   70SAPC  H14B 5975   1.651   1.670   1.920  0.7862 -0.1007  0.7948
   70SAPC  H14C 5976   1.478   1.699   1.903  0.9935 -0.0735 -1.6554
   70SAPC   C15 5977   1.566   1.435   1.846 -0.4034 -0.0779  0.5471
   70SAPC  H15A 5978   1.519   1.491   1.766 -0.8161  0.1497  0.9477
   70SAPC  H15B 5979   1.671   1.435   1.821 -0.4790  0.9969  0.1669
   70SAPC  H15C 5980   1.546   1.329   1.847  1.2863 -0.4711 -1.2911
   70SAPC   C11 5981   1.621   1.284   2.105 -0.4400 -0.5543  0.0997
   70SAPC  H11A 5982   1.699   1.248   2.175 -0.3234 -1.7943 -0.6458
   70SAPC  H11B 5983   1.641   1.220   2.017  3.2828 -0.8651  0.9935
   70SAPC     P 5984   1.464   1.298   2.317 -0.1464  0.1258 -0.1491
   70SAPC   O13 5985   1.580   1.382   2.361  0.2412 -0.4741  0.0957
   70SAPC   O14 5986   1.326   1.356   2.321 -0.2211  0.4472 -0.3325
   70SAPC   O12 5987   1.494   1.244   2.166  0.1667 -0.3106 -0.0826
   70SAPC   O11 5988   1.478   1.167   2.405 -0.6473  0.5514 -0.0191
   70SAPC    C1 5989   1.360   1.085   2.439  0.3955 -0.6648  0.1811
   70SAPC    HA 5990   1.271   1.112   2.378  0.1097 -0.5164  0.6619
   70SAPC    HB 5991   1.383   0.976   2.434  2.2857 -0.4662  2.6058
   70SAPC    C2 5992   1.309   1.112   2.584 -0.2359 -0.1176  0.1550
   70SAPC    HS 5993   1.274   1.217   2.573  1.2863  0.6965  2.2965
   70SAPC   O21 5994   1.428   1.103   2.668  0.1194  0.4219  0.1927
   70SAPC   C21 5995   1.421   1.171   2.777  0.3037  0.1214  0.6403
   70SAPC   O22 5996   1.326   1.238   2.809 -0.3576  0.1938 -0.2564
   70SAPC   C22 5997   1.554   1.159   2.853  0.2590  0.1161  0.1016
   70SAPC   H2R 5998   1.601   1.064   2.821 -0.8247 -0.0500 -1.1083
   70SAPC   H2S 5999   1.614   1.245   2.815 -2.4887  1.2386 -2.1036
   70SAPC    C3 6000   1.191   1.018   2.625 -0.0094 -0.1864 -0.5429
   70SAPC    HX 6001   1.227   0.916   2.602 -1.8787 -0.7340 -1.1341
   70SAPC    HY 6002   1.104   1.033   2.558 -2.0834 -0.9500  1.8303
   70SAPC   O31 6003   1.155   1.015   2.771  0.2307 -0.4727 -0.8535
   70SAPC   C31 6004   1.054   1.087   2.806  0.5191 -0.2649 -0.0508
   70SAPC   O32 6005   0.990   1.161   2.732 -0.2096  0.2276 -0.1711
   70SAPC   C32 6006   1.032   1.060   2.955 -0.7209 -0.5930  0.1313
   70SAPC   H2X 6007   1.000   0.955   2.970  0.3909 -1.0687 -0.6952
   70SAPC   H2Y 6008   0.947   1.120   2.994 -0.5500 -1.2071  1.4982
   70SAPC   C23 6009   1.548   1.153   3.018  0.2925  0.3933  0.8816
   70SAPC   H3R 6010   1.486   1.061   3.032  2.1163 -1.6395 -2.7499
   70SAPC   H3S 6011   1.494   1.245   3.048  1.2932  1.1869  0.3047
   70SAPC   C24 6012   1.681   1.145   3.090 -0.3642  0.4653 -0.2154
   70SAPC   H4R 6013   1.721   1.041   3.083 -0.6793  0.2179  1.3581
   70SAPC   H4S 6014   1.646   1.166   3.193 -4.0937  3.0545 -1.7797
   70SAPC   C25 6015   1.779   1.252   3.053  0.6187 -0.2046  1.0435
   70SAPC   H5R 6016   1.751   1.315   2.968 -1.3738  1.2167  2.6619
   70SAPC   C26 6017   1.892   1.283   3.121 -0.3010  0.6773  0.1310
   70SAPC   H6R 6018   1.957   1.367   3.093 -0.3409  0.1430 -1.6910
   70SAPC   C27 6019   1.954   1.215   3.244 -0.3680 -0.0021 -0.4045
   70SAPC   H7R 6020   2.038   1.154   3.205  0.7543  1.3244 -0.1349
   70SAPC   H7S 6021   1.890   1.137   3.290 -1.0042 -0.7287 -2.4612
   70SAPC   C28 6022   1.994   1.315   3.356  0.3530  0.5380 -0.1052
   70SAPC   H8R 6023   2.043   1.403   3.312  0.0644  0.3284 -0.8667
   70SAPC   C29 6024   1.979   1.296   3.490 -0.2255 -0.1118  0.2325
   70SAPC   H9R 6025   2.021   1.376   3.553 -1.8137  0.8832  0.0746
   70SAPC  C210 6026   1.913   1.185   3.566 -0.4950  0.1829 -0.2931
   70SAPC  H10R 6027   1.990   1.135   3.628 -1.4976  1.3269  1.9989
   70SAPC  H10S 6028   1.871   1.107   3.499  0.2052 -0.2968 -0.1833
   70SAPC  C211 6029   1.806   1.248   3.657 -0.6187  0.8916  0.4563
   70SAPC  H11R 6030   1.719   1.271   3.593 -0.7634  2.0261  1.0286
   70SAPC  C212 6031   1.815   1.269   3.790 -0.0706  0.1088  0.4631
   70SAPC  H12R 6032   1.721   1.305   3.837 -0.1888  2.2968 -1.2646
   70SAPC  C213 6033   1.930   1.231   3.880  1.3506  0.4491 -0.0115
   70SAPC  H13R 6034   2.014   1.177   3.832  1.0031 -2.7120  2.5609
   70SAPC  H13S 6035   1.885   1.156   3.949  0.3348 -0.2807 -1.4234
   70SAPC  C214 6036   2.000   1.339   3.957 -0.1089  1.2739  0.0646
   70SAPC  H14R 6037   2.051   1.411   3.891  1.2512  0.1147 -0.1907
   70SAPC  C215 6038   2.026   1.347   4.088 -0.2170  0.6476 -0.2354
   70SAPC  H15R 6039   2.089   1.428   4.130  1.2871 -1.4618  1.8530
   70SAPC  C216 6040   1.974   1.242   4.178 -0.6542  0.3923 -0.5352
   70SAPC  H16R 6041   2.031   1.147   4.169  1.0742  1.2379  0.7012
   70SAPC  H16S 6042   1.871   1.214   4.148 -0.9633  2.5109 -1.6368
   70SAPC  C217 6043   1.986   1.295   4.325 -0.2998 -0.3422 -0.3615
   70SAPC  H17R 6044   1.932   1.227   4.395 -1.7771  1.4473  0.3118
   70SAPC  H17S 6045   1.939   1.396   4.331 -2.7365 -1.3894 -0.5996
   70SAPC  C218 6046   2.121   1.323   4.386 -0.1272 -0.5414 -0.2822
   70SAPC  H18R 6047   2.182   1.383   4.315  2.7389 -0.5253  1.9814
   70SAPC  H18S 6048   2.178   1.228   4.383 -0.6190 -0.8549  0.2754
   70SAPC  C219 6049   2.120   1.387   4.529  0.1677  0.3754  0.5082
   70SAPC  H19R 6050   2.070   1.486   4.529  0.2336  0.4189 -0.8190
   70SAPC  H19S 6051   2.228   1.399   4.554 -0.0948 -0.5668  2.2760
   70SAPC  C220 6052   2.063   1.294   4.641  0.2083  0.3938  1.5191
   70SAPC  H20R 6053   2.111   1.194   4.636 -0.2385  0.1862 -3.3829
   70SAPC  H20S 6054   1.954   1.275   4.637 -0.2344  2.8210  0.3589
   70SAPC  H20T 6055   2.078   1.352   4.735  0.0341  0.1557  1.6933
   70SAPC   C33 6056   1.157   1.083   3.048  0.0634  0.1925 -0.5199
   70SAPC   H3X 6057   1.164   1.191   3.073 -2.0931  0.4395 -0.8421
   70SAPC   H3Y 6058   1.253   1.046   3.006 -0.0093 -1.0514  0.3419
   70SAPC   C34 6059   1.157   1.002   3.181 -0.0557  0.2804 -1.3014
   70SAPC   H4X 6060   1.150   0.896   3.149 -0.7597 -0.0819 -0.0482
   70SAPC   H4Y 6061   1.075   1.025   3.253  1.2054 -1.3264  0.7784
   70SAPC   C35 6062   1.285   1.019   3.265  0.1759  0.3582  0.1349
   70SAPC   H5X 6063   1.370   1.003   3.195 -0.1018 -2.5267  0.3562
   70SAPC   H5Y 6064   1.286   0.936   3.338 -0.5910 -0.2085 -0.4862
   70SAPC   C36 6065   1.295   1.155   3.330 -0.2891 -0.0719 -0.0966
   70SAPC   H6X 6066   1.195   1.163   3.378 -1.8122 -3.3300 -2.3110
   70SAPC   H6Y 6067   1.310   1.224   3.244 -0.1052 -0.6040 -0.4978
   70SAPC   C37 6068   1.407   1.161   3.436 -0.2517  0.3488 -0.4043
   70SAPC   H7X 6069   1.379   1.096   3.521 -0.3914  2.5187  1.3087
   70SAPC   H7Y 6070   1.504   1.129   3.393 -0.1323 -1.0147  0.8249
   70SAPC   C38 6071   1.434   1.301   3.485 -1.0561 -0.1052 -0.7160
   70SAPC   H8X 6072   1.511   1.290   3.564 -3.0043  0.1020  1.2946
   70SAPC   H8Y 6073   1.346   1.350   3.531 -0.2771  1.5199 -0.9167
   70SAPC   C39 6074   1.492   1.400   3.379  0.4336 -0.7931 -0.1995
   70SAPC   H9X 6075   1.407   1.452   3.332 -1.1321 -0.6275  2.6142
   70SAPC   H9Y 6076   1.535   1.328   3.305 -0.3106 -1.7995  0.3220
   70SAPC  C310 6077   1.598   1.500   3.433  0.5119 -0.9180  0.0880
   70SAPC  H10X 6078   1.682   1.450   3.486  1.6683  1.0241  0.1739
   70SAPC  H10Y 6079   1.536   1.562   3.501 -1.5678 -0.9274 -1.7065
   70SAPC  C311 6080   1.657   1.583   3.322  0.1304  0.0894 -0.0047
   70SAPC  H11X 6081   1.567   1.616   3.266 -1.7710 -1.8881  1.7096
   70SAPC  H11Y 6082   1.720   1.515   3.261  3.2701  2.9779 -0.2857
   70SAPC  C312 6083   1.738   1.694   3.376 -0.5549  0.6030 -1.2289
   70SAPC  H12X 6084   1.658   1.751   3.427 -1.0357 -1.4029  0.3976
   70SAPC  H12Y 6085   1.780   1.755   3.294 -0.5336 -0.5544 -2.1050
   70SAPC  C313 6086   1.853   1.651   3.474 -0.4500 -0.7876  0.5368
   70SAPC  H13X 6087   1.935   1.590   3.429  0.9723 -1.8079  4.1626
   70SAPC  H13Y 6088   1.803   1.598   3.558 -0.3731  2.4201  2.7943
   70SAPC  C314 6089   1.930   1.779   3.537  0.1934  0.0385 -0.6278
   70SAPC  H14X 6090   1.847   1.833   3.589 -1.2071 -0.2298 -2.4803
   70SAPC  H14Y 6091   1.969   1.840   3.452 -1.5848  1.3624 -0.5553
   70SAPC  C315 6092   2.048   1.732   3.625  0.2934 -0.4464 -0.1220
   70SAPC  H15X 6093   2.118   1.674   3.561 -1.6309 -3.4078  0.2300
   70SAPC  H15Y 6094   2.009   1.660   3.701 -1.8709  0.9229  0.1561
   70SAPC  C316 6095   2.103   1.840   3.708 -0.1536 -0.8731 -0.3698
   70SAPC  H16X 6096   2.166   1.795   3.788 -1.2743 -2.2564 -0.2189
   70SAPC  H16Y 6097   2.019   1.879   3.769  0.8746  0.7407  0.0934
   70SAPC  C317 6098   2.182   1.946   3.639 -0.5997  0.3096 -0.7219
   70SAPC  H17X 6099   2.225   2.023   3.707  1.2936 -0.3239 -1.1379
   70SAPC  H17Y 6100   2.108   2.005   3.581 -0.8158  0.8574  0.0881
   70SAPC  C318 6101   2.305   1.900   3.553  0.4173 -0.0806  0.3006
   70SAPC  H18X 6102   2.378   1.866   3.629 -0.4277 -0.0548  1.1568
   70SAPC  H18Y 6103   2.358   1.985   3.506  2.4447 -0.4827  1.7319
   70SAPC  H18Z 6104   2.274   1.820   3.482  1.5625 -2.3537  2.2197
   71SAPC     N 6105   2.981   1.471   2.575  0.0838  0.8842  0.8122
   71SAPC   C12 6106   3.085   1.516   2.474 -0.0385 -0.2342  0.2164
   71SAPC  H12A 6107   3.089   1.624   2.473 -2.8887 -0.0612  1.1720
   71SAPC  H12B 6108   3.054   1.497   2.373 -1.2867 -1.1540  0.7473
   71SAPC   C13 6109   2.840   1.513   2.529  0.0089 -0.0823  0.2162
   71SAPC  H13A 6110   2.836   1.621   2.532  2.1886  0.0377  1.5670
   71SAPC  H13B 6111   2.810   1.478   2.432  0.7818 -3.7833  1.1400
   71SAPC  H13C 6112   2.765   1.480   2.600 -0.5652  1.5485  0.4108
   71SAPC   C14 6113   2.991   1.318   2.567  0.3055  0.3705 -0.2923
   71SAPC  H14A 6114   3.063   1.283   2.639  0.6101  1.5335 -0.0071
   71SAPC  H14B 6115   2.901   1.265   2.597  0.5975 -0.0946 -0.2286
   71SAPC  H14C 6116   3.023   1.282   2.470  2.2757 -1.1377  0.8467
   71SAPC   C15 6117   3.011   1.518   2.716 -0.3107 -0.5939  1.0167
   71SAPC  H15A 6118   3.022   1.625   2.706  0.3123 -0.7866 -0.8155
   71SAPC  H15B 6119   2.928   1.493   2.780  0.1562 -0.1709  1.8024
   71SAPC  H15C 6120   3.102   1.476   2.756  1.2429  1.7404  0.1409
   71SAPC   C11 6121   3.224   1.449   2.487 -0.3642  0.0165  0.3398
   71SAPC  H11A 6122   3.290   1.494   2.409 -1.5574  0.5457 -0.3954
   71SAPC  H11B 6123   3.218   1.342   2.461  1.0882  0.0042 -0.0655
   71SAPC     P 6124   3.329   1.622   2.653  0.1244 -0.6377 -0.3340
   71SAPC   O13 6125   3.470   1.633   2.649 -0.4720 -0.1098 -0.0302
   71SAPC   O14 6126   3.262   1.734   2.580 -0.0964 -0.0227 -0.0971
   71SAPC   O12 6127   3.288   1.475   2.616 -0.0990 -0.1297  0.1836
   71SAPC   O11 6128   3.287   1.637   2.809  0.1544  0.4558 -0.4139
   71SAPC    C1 6129   3.318   1.526   2.891 -0.1942 -0.3088  0.1313
   71SAPC    HA 6130   3.262   1.545   2.985 -1.7303 -0.1249 -0.7965
   71SAPC    HB 6131   3.283   1.429   2.850 -2.8371 -0.1660  1.8092
   71SAPC    C2 6132   3.472   1.533   2.926 -0.4969  0.0272 -0.2410
   71SAPC    HS 6133   3.527   1.510   2.832 -0.7786 -1.8876  0.0182
   71SAPC   O21 6134   3.490   1.427   3.020 -0.5434 -0.2188  0.4153
   71SAPC   C21 6135   3.596   1.409   3.093 -0.1277 -0.1139 -0.0713
   71SAPC   O22 6136   3.704   1.468   3.082  0.1800 -0.1372  0.1101
   71SAPC   C22 6137   3.555   1.297   3.188 -1.0533  0.4392 -0.4544
   71SAPC   H2R 6138   3.450   1.309   3.222 -0.5017  0.7394  1.2174
   71SAPC   H2S 6139   3.566   1.205   3.126  1.0646  0.3718 -0.0335
   71SAPC    C3 6140   3.520   1.672   2.976 -0.0809 -0.7376 -0.0670
   71SAPC    HX 6141   3.488   1.741   2.895  0.0502 -1.2320 -0.5477
   71SAPC    HY 6142   3.631   1.682   2.980 -0.0132  0.2295 -2.4385
   71SAPC   O31 6143   3.470   1.711   3.105 -0.3221  0.2344 -0.5072
   71SAPC   C31 6144   3.544   1.779   3.184 -0.6693 -0.7414  0.3004
   71SAPC   O32 6145   3.668   1.789   3.177  0.6223 -0.3625 -0.1360
   71SAPC   C32 6146   3.444   1.839   3.284 -0.1272  0.4644  0.4543
   71SAPC   H2X 6147   3.371   1.757   3.303  1.3639 -0.8259  0.8271
   71SAPC   H2Y 6148   3.390   1.924   3.237 -0.4948  1.1868  2.1473
   71SAPC   C23 6149   3.650   1.271   3.310 -0.2451  0.7426  0.5720
   71SAPC   H3R 6150   3.754   1.268   3.271  0.8160  4.6420  2.5669
   71SAPC   H3S 6151   3.619   1.171   3.348 -1.2332  1.2416  1.1187
   71SAPC   C24 6152   3.657   1.378   3.423 -0.3854 -0.1085  0.0063
   71SAPC   H4R 6153   3.718   1.458   3.375  2.6051 -1.1188  1.8714
   71SAPC   H4S 6154   3.720   1.335   3.503 -1.4055  0.9590  1.4466
   71SAPC   C25 6155   3.527   1.420   3.480 -0.2139  0.0206 -0.1294
   71SAPC   H5R 6156   3.474   1.471   3.398  0.9474  0.2640 -0.7505
   71SAPC   C26 6157   3.468   1.403   3.601 -0.0617 -0.6777 -0.4380
   71SAPC   H6R 6158   3.371   1.452   3.618 -0.5376 -1.0403 -1.9355
   71SAPC   C27 6159   3.525   1.343   3.726 -0.2481  0.3749 -0.0432
   71SAPC   H7R 6160   3.446   1.355   3.804 -1.1722 -1.5980 -0.6100
   71SAPC   H7S 6161   3.613   1.406   3.752 -0.8065  1.9023 -1.6218
   71SAPC   C28 6162   3.566   1.199   3.725  0.3677  0.1464  0.2836
   71SAPC   H8R 6163   3.564   1.129   3.640 -0.0020 -2.0513  2.0004
   71SAPC   C29 6164   3.593   1.134   3.840  0.1603  0.7794  0.0111
   71SAPC   H9R 6165   3.629   1.030   3.838 -0.3135  0.5988  0.5180
   71SAPC  C210 6166   3.609   1.194   3.974 -0.6074  0.0648 -0.3687
   71SAPC  H10R 6167   3.602   1.303   3.957 -0.2823 -0.1695 -2.3063
   71SAPC  H10S 6168   3.713   1.169   4.005 -0.7677 -1.5045 -0.9730
   71SAPC  C211 6169   3.514   1.139   4.073  0.7727 -0.6895 -0.3995
   71SAPC  H11R 6170   3.482   1.035   4.064 -0.5621 -0.2315 -1.2343
   71SAPC  C212 6171   3.476   1.214   4.179  0.7427 -0.0002  0.1659
   71SAPC  H12R 6172   3.411   1.166   4.254  1.9910  1.6755  2.4673
   71SAPC  C213 6173   3.526   1.353   4.209  0.6603  0.4407 -0.1879
   71SAPC  H13R 6174   3.443   1.414   4.250 -1.6969 -1.0912 -2.3322
   71SAPC  H13S 6175   3.553   1.403   4.113  0.1357  3.4232  1.1182
   71SAPC  C214 6176   3.648   1.339   4.290 -1.0622 -0.3361  0.0732
   71SAPC  H14R 6177   3.724   1.274   4.245 -0.7177 -0.5866  0.9930
   71SAPC  C215 6178   3.672   1.387   4.416  0.4361 -0.2158  1.1480
   71SAPC  H15R 6179   3.759   1.353   4.473  1.2205  2.2979  1.5777
   71SAPC  C216 6180   3.562   1.454   4.495 -0.2233  0.1110 -0.5257
   71SAPC  H16R 6181   3.485   1.383   4.531  0.5379 -0.4394  0.0577
   71SAPC  H16S 6182   3.495   1.523   4.439  1.4957  1.2769 -1.2414
   71SAPC  C217 6183   3.623   1.531   4.612 -0.0681  0.4023  0.0224
   71SAPC  H17R 6184   3.537   1.566   4.673 -1.0376  1.1474 -1.6992
   71SAPC  H17S 6185   3.677   1.624   4.584 -0.0171 -0.2887 -2.4087
   71SAPC  C218 6186   3.719   1.458   4.711  0.0981 -0.0334 -0.5289
   71SAPC  H18R 6187   3.755   1.527   4.790  4.3581 -1.5241 -0.9165
   71SAPC  H18S 6188   3.815   1.429   4.665  1.0456  1.4491  0.4069
   71SAPC  C219 6189   3.636   1.344   4.787  0.5918 -0.2063  0.1048
   71SAPC  H19R 6190   3.595   1.280   4.706 -0.5228  0.0118  0.4914
   71SAPC  H19S 6191   3.549   1.389   4.839  0.1979  0.4312 -1.0685
   71SAPC  C220 6192   3.722   1.258   4.876 -0.4355  0.0655  0.4784
   71SAPC  H20R 6193   3.809   1.222   4.816 -2.1821 -0.6585 -1.7695
   71SAPC  H20S 6194   3.658   1.178   4.918 -2.7920  1.8217  0.4385
   71SAPC  H20T 6195   3.778   1.324   4.945 -2.0323  3.8390 -1.5139
   71SAPC   C33 6196   3.517   1.887   3.411 -0.4456 -0.3359  0.4105
   71SAPC   H3X 6197   3.443   1.954   3.461  0.2506  1.8042 -1.2962
   71SAPC   H3Y 6198   3.602   1.958   3.403 -0.6067 -0.2937 -1.3328
   71SAPC   C34 6199   3.540   1.778   3.507 -0.3634  0.1651 -0.6638
   71SAPC   H4X 6200   3.627   1.714   3.484  0.2735  0.8956 -0.3187
   71SAPC   H4Y 6201   3.441   1.729   3.521 -0.5285  0.7081  0.1245
   71SAPC   C35 6202   3.569   1.831   3.655 -0.5858 -0.2330  0.1727
   71SAPC   H5X 6203   3.500   1.916   3.673  0.8490  1.1251 -0.5170
   71SAPC   H5Y 6204   3.672   1.871   3.658 -1.1074  1.9327 -3.5084
   71SAPC   C36 6205   3.560   1.724   3.768  0.1204  0.5452 -0.0812
   71SAPC   H6X 6206   3.647   1.656   3.761  0.2097  0.4698  1.3436
   71SAPC   H6Y 6207   3.466   1.665   3.764  0.8084 -0.4937 -2.2258
   71SAPC   C37 6208   3.581   1.794   3.897 -0.5679  0.0360 -0.0997
   71SAPC   H7X 6209   3.523   1.889   3.888  1.1791  1.2876  1.2645
   71SAPC   H7Y 6210   3.684   1.831   3.909 -0.9355  1.0324  0.0530
   71SAPC   C38 6211   3.536   1.721   4.017 -0.5314 -0.0036  0.8014
   71SAPC   H8X 6212   3.620   1.663   4.059 -1.1956 -1.9237 -0.3885
   71SAPC   H8Y 6213   3.453   1.653   3.988  0.3176 -1.0768  0.8197
   71SAPC   C39 6214   3.495   1.821   4.121 -0.0900 -0.7496  0.0151
   71SAPC   H9X 6215   3.402   1.875   4.094  1.4337  0.7434 -2.6720
   71SAPC   H9Y 6216   3.580   1.893   4.128 -0.8357  0.1063  0.5936
   71SAPC  C310 6217   3.467   1.769   4.261  0.4301 -0.3992 -0.3752
   71SAPC  H10X 6218   3.564   1.730   4.299  1.4411  3.3118  1.3414
   71SAPC  H10Y 6219   3.389   1.694   4.236  0.7170 -0.4388 -1.2031
   71SAPC  C311 6220   3.424   1.889   4.356  0.5501  0.3398  0.2036
   71SAPC  H11X 6221   3.374   1.974   4.305  2.8105  0.6450 -1.6347
   71SAPC  H11Y 6222   3.518   1.927   4.401  0.4988 -0.6868  1.2540
   71SAPC  C312 6223   3.325   1.835   4.463 -0.1154 -0.5700 -0.2185
   71SAPC  H12X 6224   3.386   1.770   4.528  1.3033  1.0392  0.1269
   71SAPC  H12Y 6225   3.249   1.778   4.404  0.1700  0.7213 -1.9321
   71SAPC  C313 6226   3.236   1.929   4.551  0.3860  0.3417 -0.6297
   71SAPC  H13X 6227   3.199   1.870   4.637  0.0539  1.5986  0.1234
   71SAPC  H13Y 6228   3.156   1.968   4.485  1.0576  1.0288 -1.0589
   71SAPC  C314 6229   3.319   2.052   4.588 -0.1517  0.4214 -0.4036
   71SAPC  H14X 6230   3.362   2.110   4.503  1.3869  0.3268  0.2839
   71SAPC  H14Y 6231   3.403   2.013   4.649  1.4238  0.3167 -2.5669
   71SAPC  C315 6232   3.237   2.160   4.669 -0.2621  0.4779 -0.0114
   71SAPC  H15X 6233   3.243   2.120   4.773  2.2170  0.7172 -0.0016
   71SAPC  H15Y 6234   3.134   2.156   4.628  0.4724 -1.7917 -1.8576
   71SAPC  C316 6235   3.289   2.300   4.660 -0.0530  0.5659 -0.5210
   71SAPC  H16X 6236   3.314   2.332   4.557 -0.8403  0.2708 -0.8115
   71SAPC  H16Y 6237   3.385   2.304   4.715  0.0748  1.3939 -0.7890
   71SAPC  C317 6238   3.194   2.404   4.719 -0.2681 -0.0225  0.0655
   71SAPC  H17X 6239   3.165   2.371   4.821 -0.0204 -0.2377  0.0688
   71SAPC  H17Y 6240   3.105   2.403   4.653  0.6669 -1.0690 -1.2532
   71SAPC  C318 6241   3.253   2.546   4.726 -0.0999  0.3938  0.7885
   71SAPC  H18X 6242   3.254   2.595   4.626  2.2084 -0.9473  0.0843
   71SAPC  H18Y 6243   3.358   2.532   4.760 -0.3988 -0.7721  1.2902
   71SAPC  H18Z 6244   3.189   2.613   4.788 -0.2264 -0.1394  1.2409
   72SAPC     N 6245   3.218   4.963   2.426 -0.4619 -0.3689  0.3873
   72SAPC   C12 6246   3.188   4.925   2.570 -0.1866 -0.1160  0.0124
   72SAPC  H12A 6247   3.149   5.012   2.620 -2.7928 -0.9668 -0.3595
   72SAPC  H12B 6248   3.282   4.909   2.620  0.1438  0.1486 -0.5178
   72SAPC   C13 6249   3.281   4.851   2.353 -0.5406  0.5725  0.0724
   72SAPC  H13A 6250   3.210   4.780   2.313 -1.7258  1.0571  1.2347
   72SAPC  H13B 6251   3.341   4.881   2.269  0.9088 -1.0922  0.4430
   72SAPC  H13C 6252   3.358   4.800   2.410  0.5219  3.1645  1.1166
   72SAPC   C14 6253   3.098   5.010   2.356 -0.6416  0.1183 -0.1447
   72SAPC  H14A 6254   3.023   4.934   2.370  0.0105 -0.0540  3.3229
   72SAPC  H14B 6255   3.079   5.106   2.402  1.6412  1.0712 -0.9946
   72SAPC  H14C 6256   3.113   5.034   2.252 -1.0602  3.0848  0.3796
   72SAPC   C15 6257   3.322   5.077   2.427  0.0089 -0.2993  0.2829
   72SAPC  H15A 6258   3.297   5.155   2.497 -0.1827  0.4863 -0.6465
   72SAPC  H15B 6259   3.418   5.038   2.459  0.4057  0.0163 -0.5145
   72SAPC  H15C 6260   3.344   5.110   2.327 -1.0039 -1.3516 -0.3046
   72SAPC   C11 6261   3.101   4.801   2.591 -0.2991  0.5662  0.3202
   72SAPC  H11A 6262   3.097   4.777   2.699 -2.3824  0.6807  0.3061
   72SAPC  H11B 6263   3.149   4.717   2.536 -3.4312 -0.6177 -0.7990
   72SAPC     P 6264   2.868   4.702   2.547 -0.3571 -0.3954  0.0506
   72SAPC   O13 6265   2.730   4.741   2.495 -0.5012  0.2941 -0.0207
   72SAPC   O14 6266   2.932   4.586   2.486 -0.0314 -0.1037 -0.1131
   72SAPC   O12 6267   2.961   4.829   2.548 -0.4035  0.5880  0.5826
   72SAPC   O11 6268   2.857   4.677   2.702  0.0242  0.5146 -0.1171
   72SAPC    C1 6269   2.799   4.767   2.799  0.3289 -0.3567 -0.0997
   72SAPC    HA 6270   2.815   4.872   2.768  1.8403 -0.0057  1.6973
   72SAPC    HB 6271   2.688   4.758   2.805  0.2462  0.5479 -0.1727
   72SAPC    C2 6272   2.862   4.754   2.940 -0.0069 -0.8489  0.6911
   72SAPC    HS 6273   2.967   4.787   2.930 -0.2420  1.2451  3.6929
   72SAPC   O21 6274   2.841   4.620   2.977 -0.7247  0.0194  0.3462
   72SAPC   C21 6275   2.938   4.572   3.057  0.3979  0.2934  0.0402
   72SAPC   O22 6276   3.038   4.624   3.097 -0.1192 -0.7800  0.0420
   72SAPC   C22 6277   2.889   4.432   3.080  0.3271 -0.0609  0.1382
   72SAPC   H2R 6278   2.779   4.433   3.090  0.2705  0.1448 -0.4781
   72SAPC   H2S 6279   2.917   4.370   2.992 -0.4113  0.1169 -0.2289
   72SAPC    C3 6280   2.803   4.856   3.048  0.2367 -0.1281  0.5993
   72SAPC    HX 6281   2.693   4.868   3.046  0.2223 -0.1978  0.8658
   72SAPC    HY 6282   2.837   4.955   3.013  0.2059  0.4496  2.1050
   72SAPC   O31 6283   2.844   4.820   3.192  0.1724 -0.1554  0.2378
   72SAPC   C31 6284   2.949   4.881   3.243 -0.3349 -0.2930  0.2290
   72SAPC   O32 6285   3.019   4.967   3.186  0.1983  0.3608 -0.4040
   72SAPC   C32 6286   2.977   4.832   3.389  0.3932 -0.5060  0.5348
   72SAPC   H2X 6287   3.029   4.735   3.375  0.5597 -0.4210  0.5673
   72SAPC   H2Y 6288   2.883   4.806   3.443 -0.9735 -0.0624 -1.5158
   72SAPC   C23 6289   2.952   4.373   3.204 -0.0774  0.8370  0.0322
   72SAPC   H3R 6290   3.063   4.366   3.203 -0.1887 -1.7838  0.2685
   72SAPC   H3S 6291   2.920   4.270   3.227 -0.4996  0.3540 -2.4458
   72SAPC   C24 6292   2.901   4.441   3.336  0.2175  0.2969  0.2655
   72SAPC   H4R 6293   2.820   4.376   3.374  1.3159 -0.4879  1.3257
   72SAPC   H4S 6294   2.848   4.539   3.328 -1.1623 -0.3988  0.6158
   72SAPC   C25 6295   3.020   4.455   3.433 -0.8264 -0.2511 -0.2701
   72SAPC   H5R 6296   3.121   4.474   3.395 -0.5696 -0.9004  0.0766
   72SAPC   C26 6297   3.012   4.443   3.568  1.1974 -0.2211  0.0312
   72SAPC   H6R 6298   3.098   4.435   3.637 -0.8959 -1.6498  2.6703
   72SAPC   C27 6299   2.876   4.443   3.634 -0.3171  0.3814  0.0382
   72SAPC   H7R 6300   2.787   4.453   3.569  0.2509  0.7216 -0.7037
   72SAPC   H7S 6301   2.861   4.528   3.704  0.3962  0.3729  0.2038
   72SAPC   C28 6302   2.845   4.330   3.733  0.5052 -0.0391  0.2501
   72SAPC   H8R 6303   2.928   4.265   3.763 -0.5697 -0.7864  1.7455
   72SAPC   C29 6304   2.728   4.312   3.789 -0.5991  0.4213  0.6250
   72SAPC   H9R 6305   2.712   4.225   3.854 -0.7814  0.0248  0.0552
   72SAPC  C210 6306   2.616   4.415   3.782  0.3483 -0.5047  0.1600
   72SAPC  H10R 6307   2.633   4.500   3.713  3.0972 -0.4809  0.7482
   72SAPC  H10S 6308   2.613   4.459   3.884 -0.1591  1.7372 -0.7717
   72SAPC  C211 6309   2.486   4.347   3.735  0.2877  0.2948  0.4671
   72SAPC  H11R 6310   2.493   4.278   3.650 -1.0611  0.6960  0.0023
   72SAPC  C212 6311   2.374   4.360   3.802  0.2844  0.4586 -0.3305
   72SAPC  H12R 6312   2.292   4.294   3.770  1.4951 -0.9447 -0.7067
   72SAPC  C213 6313   2.353   4.452   3.921  0.4198 -0.0561  0.6730
   72SAPC  H13R 6314   2.246   4.481   3.913 -0.0173 -2.0409 -1.7879
   72SAPC  H13S 6315   2.413   4.545   3.922 -0.9743  0.9401 -1.6656
   72SAPC  C214 6316   2.375   4.393   4.055 -0.3837 -0.3945  0.2353
   72SAPC  H14R 6317   2.394   4.285   4.048  1.8632  0.0567 -3.3027
   72SAPC  C215 6318   2.404   4.444   4.175  0.1029  0.1234 -0.3849
   72SAPC  H15R 6319   2.426   4.377   4.259 -1.6323 -4.1955 -3.0655
   72SAPC  C216 6320   2.420   4.592   4.203 -0.1388 -0.1188 -0.0519
   72SAPC  H16R 6321   2.327   4.648   4.181 -0.7444 -0.2741  1.9373
   72SAPC  H16S 6322   2.493   4.633   4.130  1.8865 -2.0270  0.8093
   72SAPC  C217 6323   2.461   4.633   4.341  1.2617  0.6100  0.1401
   72SAPC  H17R 6324   2.554   4.584   4.378  1.2605 -0.9281 -1.7125
   72SAPC  H17S 6325   2.386   4.604   4.417  0.1594 -1.1894 -1.5325
   72SAPC  C218 6326   2.465   4.784   4.371 -0.2507  0.2559 -0.2720
   72SAPC  H18R 6327   2.367   4.836   4.356  0.0539  0.7987 -0.4120
   72SAPC  H18S 6328   2.539   4.829   4.303 -0.5176  1.7305  0.3637
   72SAPC  C219 6329   2.519   4.810   4.510 -0.0877 -0.5571  0.6564
   72SAPC  H19R 6330   2.606   4.749   4.541  0.0446 -0.7555 -0.0767
   72SAPC  H19S 6331   2.442   4.795   4.588 -0.6724 -2.0964 -0.1821
   72SAPC  C220 6332   2.577   4.953   4.515  0.2655  0.7250  0.4285
   72SAPC  H20R 6333   2.484   5.012   4.517 -0.1665  0.0407  1.0206
   72SAPC  H20S 6334   2.635   4.971   4.422 -1.3838  0.9005 -0.5940
   72SAPC  H20T 6335   2.635   4.965   4.609  2.4042  2.7600 -1.0366
   72SAPC   C33 6336   3.072   4.925   3.476 -0.5439 -0.1516 -0.0061
   72SAPC   H3X 6337   3.134   4.990   3.410  0.7578 -1.1113  0.2460
   72SAPC   H3Y 6338   3.138   4.853   3.529 -0.8864  0.2034  0.9223
   72SAPC   C34 6339   2.996   5.005   3.584 -0.5675  0.6853  0.0220
   72SAPC   H4X 6340   2.934   4.936   3.645 -0.5970 -2.0253 -2.8070
   72SAPC   H4Y 6341   2.933   5.078   3.528  0.6486  0.5337 -1.6084
   72SAPC   C35 6342   3.099   5.080   3.681 -0.2175 -0.9263  0.3221
   72SAPC   H5X 6343   3.097   5.188   3.656 -0.2378 -0.6021  1.6789
   72SAPC   H5Y 6344   3.203   5.042   3.672 -0.4328 -1.4422 -0.0503
   72SAPC   C36 6345   3.056   5.082   3.829 -0.1588 -0.6439 -0.3777
   72SAPC   H6X 6346   2.945   5.086   3.829 -0.1671 -0.8625  0.2703
   72SAPC   H6Y 6347   3.079   5.181   3.872 -0.1749 -0.5066 -0.6773
   72SAPC   C37 6348   3.108   4.962   3.912  0.5998  0.1522  0.1670
   72SAPC   H7X 6349   3.214   4.982   3.937  0.3994 -0.0603  1.2108
   72SAPC   H7Y 6350   3.079   4.875   3.848 -1.8177  2.8086 -2.6271
   72SAPC   C38 6351   3.032   4.953   4.041  0.0871 -0.4127  0.3037
   72SAPC   H8X 6352   2.997   5.053   4.073  1.6845 -0.4378  2.3985
   72SAPC   H8Y 6353   3.111   4.924   4.114  1.1232  1.5273  0.0106
   72SAPC   C39 6354   2.914   4.853   4.043  0.5573 -0.0021 -0.1638
   72SAPC   H9X 6355   2.957   4.753   4.020  3.1723  0.9564  0.2340
   72SAPC   H9Y 6356   2.856   4.859   3.948  0.5337 -0.4874 -0.1836
   72SAPC  C310 6357   2.821   4.855   4.167  0.2789 -0.1966 -0.5665
   72SAPC  H10X 6358   2.718   4.824   4.136  0.0508 -0.3548  0.3290
   72SAPC  H10Y 6359   2.818   4.954   4.216  2.4175 -0.2837 -0.1810
   72SAPC  C311 6360   2.859   4.766   4.290 -0.7626  0.3807  0.1562
   72SAPC  H11X 6361   2.897   4.668   4.253  1.4997  0.1901  2.6272
   72SAPC  H11Y 6362   2.763   4.740   4.340 -1.0975  0.4232 -0.4629
   72SAPC  C312 6363   2.956   4.824   4.392 -0.4955 -0.0678  0.5736
   72SAPC  H12X 6364   2.902   4.912   4.435  0.5940  0.8099  0.2100
   72SAPC  H12Y 6365   3.044   4.867   4.339 -1.6492  1.5046 -0.1433
   72SAPC  C313 6366   2.998   4.726   4.501 -0.6891 -0.3727  0.6592
   72SAPC  H13X 6367   2.910   4.664   4.529 -1.9762  1.0887 -0.0458
   72SAPC  H13Y 6368   3.026   4.784   4.591 -0.5882  0.4684  0.0958
   72SAPC  C314 6369   3.120   4.646   4.452 -0.2681 -0.0912 -0.4822
   72SAPC  H14X 6370   3.195   4.724   4.428  0.2934 -0.9854 -1.7527
   72SAPC  H14Y 6371   3.100   4.585   4.361 -1.3845 -1.5271  0.6673
   72SAPC  C315 6372   3.183   4.547   4.554 -0.2881  0.9996  0.1013
   72SAPC  H15X 6373   3.096   4.513   4.613  0.8115 -2.6753 -0.1475
   72SAPC  H15Y 6374   3.250   4.609   4.617  0.1391  0.1818  0.4684
   72SAPC  C316 6375   3.253   4.427   4.492  0.1292  0.6722 -0.9107
   72SAPC  H16X 6376   3.342   4.455   4.432  0.5045  0.6238 -0.3886
   72SAPC  H16Y 6377   3.181   4.382   4.420 -1.5447 -1.9917  2.1566
   72SAPC  C317 6378   3.304   4.319   4.593 -0.2613  0.9691 -0.3347
   72SAPC  H17X 6379   3.225   4.270   4.653  1.6945 -0.4663  1.2007
   72SAPC  H17Y 6380   3.365   4.367   4.672 -0.7574 -0.8140  1.1987
   72SAPC  C318 6381   3.392   4.209   4.524 -0.0269 -0.1871  0.1970
   72SAPC  H18X 6382   3.448   4.151   4.600 -0.0954 -0.7848 -0.2041
   72SAPC  H18Y 6383   3.469   4.250   4.455  1.7153 -2.7966  0.4632
   72SAPC  H18Z 6384   3.336   4.143   4.453 -0.2269 -0.2302  0.3938
   73SLPC     N 6385   4.435   1.415   7.286  0.1915 -0.2098  0.1819
   73SLPC   C13 6386   4.494   1.402   7.428  0.3948  0.1036  0.1754
   73SLPC  H13A 6387   4.420   1.375   7.503 -0.0748  0.8345 -0.0181
   73SLPC  H13B 6388   4.577   1.334   7.415 -0.6378 -0.9867 -0.9766
   73SLPC  H13C 6389   4.539   1.494   7.461  1.6819 -1.8338  4.7977
   73SLPC   C14 6390   4.350   1.543   7.288  0.4371 -0.1098 -0.3732
   73SLPC  H14A 6391   4.421   1.624   7.291  1.2378 -0.7593 -1.0653
   73SLPC  H14B 6392   4.278   1.542   7.208 -0.3789 -1.3577  0.3386
   73SLPC  H14C 6393   4.281   1.555   7.370 -3.2286  0.7237 -3.2959
   73SLPC   C15 6394   4.343   1.294   7.257  0.0654 -0.6939  0.1765
   73SLPC  H15A 6395   4.280   1.271   7.342 -0.7337  0.2376 -0.1471
   73SLPC  H15B 6396   4.272   1.307   7.176 -0.1801 -2.3841  0.0880
   73SLPC  H15C 6397   4.407   1.209   7.241  0.2128 -0.8996  1.7371
   73SLPC   C12 6398   4.544   1.424   7.181  0.1354  0.3898 -0.2133
   73SLPC  H12A 6399   4.597   1.329   7.178 -0.7685 -0.1672  0.8459
   73SLPC  H12B 6400   4.610   1.506   7.205 -0.2709  0.4890  0.5854
   73SLPC   C11 6401   4.495   1.446   7.029  1.2624 -0.2047  0.3414
   73SLPC  H11A 6402   4.402   1.385   7.022  0.4106  1.0035  0.8109
   73SLPC  H11B 6403   4.550   1.394   6.947 -1.7823 -1.7548 -0.8623
   73SLPC     P 6404   4.593   1.681   6.962  0.3012  0.1085 -0.1178
   73SLPC   O13 6405   4.548   1.790   6.871  0.2655 -0.0162  0.2061
   73SLPC   O14 6406   4.644   1.726   7.092  0.0741  0.1157 -0.2115
   73SLPC   O12 6407   4.475   1.583   6.993  0.0382 -0.2114 -0.1661
   73SLPC   O11 6408   4.701   1.586   6.891 -0.2333 -0.1107  0.9373
   73SLPC    C1 6409   4.841   1.627   6.894  0.8630 -0.5925  0.2806
   73SLPC    HA 6410   4.844   1.721   6.835 -0.5825 -0.1840  0.8166
   73SLPC    HB 6411   4.874   1.638   6.999  2.2821 -1.4095 -0.0611
   73SLPC    C2 6412   4.937   1.515   6.839 -0.2969 -1.0690 -0.2311
   73SLPC    HS 6413   5.035   1.550   6.878 -1.7164  4.0118 -0.4948
   73SLPC   O21 6414   4.926   1.514   6.696  0.4346 -0.3088  0.1783
   73SLPC   C21 6415   5.038   1.526   6.623  0.1294 -0.7737 -0.6113
   73SLPC   O22 6416   5.151   1.533   6.672 -0.2150 -0.2929  0.3409
   73SLPC   C22 6417   5.003   1.522   6.472 -0.2866 -0.1683 -0.5164
   73SLPC   H2R 6418   5.042   1.421   6.447 -0.0829  0.0227 -0.9865
   73SLPC   H2S 6419   4.894   1.535   6.459 -0.3814  0.0124  0.3666
   73SLPC    C3 6420   4.903   1.377   6.903  0.5802 -0.1096  0.2640
   73SLPC    HX 6421   4.800   1.347   6.875  0.5924 -0.8754  0.9834
   73SLPC    HY 6422   4.892   1.392   7.013  0.9758 -0.1803  0.3157
   73SLPC   O31 6423   4.993   1.274   6.861  0.1602 -0.1511  0.1075
   73SLPC   C31 6424   5.109   1.275   6.923  0.1954  0.0878 -0.1982
   73SLPC   O32 6425   5.141   1.356   7.007 -0.6301 -0.0196  0.0686
   73SLPC   C32 6426   5.179   1.139   6.891 -0.4935 -0.0652  1.1007
   73SLPC   H2X 6427   5.172   1.117   6.782  0.9827  1.1618  0.7300
   73SLPC   H2Y 6428   5.111   1.064   6.937 -2.9311  1.4993  0.2058
   73SLPC   C23 6429   5.082   1.636   6.400 -0.4176 -0.2450  0.4042
   73SLPC   H3R 6430   5.192   1.627   6.414 -0.3549 -0.3770 -0.1518
   73SLPC   H3S 6431   5.047   1.733   6.442  1.2729  0.7371 -0.3292
   73SLPC   C24 6432   5.071   1.630   6.249  0.2634 -0.0888  0.7093
   73SLPC   H4R 6433   5.106   1.540   6.195  1.9021 -1.1134  3.2737
   73SLPC   H4S 6434   5.141   1.707   6.210  0.8439  0.4252  2.6592
   73SLPC   C25 6435   4.928   1.646   6.205 -0.0373 -0.4340  0.1152
   73SLPC   H5R 6436   4.885   1.736   6.253  1.2938  0.1376  0.2789
   73SLPC   H5S 6437   4.860   1.561   6.229  0.6661 -1.1870 -0.4795
   73SLPC   C26 6438   4.927   1.655   6.053  0.2853  0.7001  0.0562
   73SLPC   H6R 6439   4.823   1.663   6.016  0.8708 -0.7672 -2.0190
   73SLPC   H6S 6440   4.967   1.567   5.999  0.9057 -1.1147  3.2309
   73SLPC   C27 6441   4.985   1.788   6.005 -0.1043 -0.1320  0.2373
   73SLPC   H7R 6442   5.095   1.790   6.022  0.5009 -0.1162 -3.0119
   73SLPC   H7S 6443   4.933   1.865   6.065  0.9968  1.5172 -0.8255
   73SLPC   C28 6444   4.970   1.820   5.852  0.1575  0.2393  0.0894
   73SLPC   H8R 6445   4.988   1.929   5.835 -1.3793  0.2277 -2.0196
   73SLPC   H8S 6446   4.868   1.785   5.824 -0.5441  2.1155  0.1387
   73SLPC   C29 6447   5.070   1.752   5.772  0.1382  0.3248 -0.9344
   73SLPC   H9R 6448   5.149   1.697   5.825 -0.5810 -0.1382 -0.3214
   73SLPC  C210 6449   5.065   1.731   5.644 -0.1412 -0.0163 -0.3405
   73SLPC  H10R 6450   5.156   1.686   5.600 -0.2982 -1.3670  0.6462
   73SLPC  C211 6451   4.957   1.795   5.562 -0.1565 -0.1600  1.0076
   73SLPC  H11R 6452   4.896   1.868   5.618 -1.5217  0.5907 -1.3153
   73SLPC  H11S 6453   4.894   1.721   5.508 -0.6047 -1.6235  3.3953
   73SLPC  C212 6454   5.042   1.876   5.460  0.4460 -0.3421 -0.2693
   73SLPC  H12R 6455   5.068   1.971   5.508 -0.8625 -0.6475  1.1396
   73SLPC  C213 6456   5.073   1.857   5.328  0.6065 -0.7345 -0.2187
   73SLPC  H13R 6457   5.122   1.941   5.276  1.0745 -0.5524  0.4943
   73SLPC  C214 6458   5.030   1.738   5.254  0.2046 -0.3864  0.0394
   73SLPC  H14R 6459   4.952   1.770   5.182  1.0106 -1.4627 -1.3648
   73SLPC  H14S 6460   4.984   1.656   5.313 -1.0079 -1.1181 -1.8188
   73SLPC  C215 6461   5.149   1.678   5.170 -0.3868  0.2208  0.0122
   73SLPC  H15R 6462   5.226   1.643   5.241  1.4686  3.7362 -0.0137
   73SLPC  H15S 6463   5.197   1.762   5.114  0.2463  0.4081  0.8194
   73SLPC  C216 6464   5.107   1.566   5.077 -1.1433 -0.2032  0.6078
   73SLPC  H16R 6465   5.025   1.605   5.013  0.9010  1.2686 -1.2626
   73SLPC  H16S 6466   5.064   1.478   5.130 -2.0472 -1.1987 -1.6519
   73SLPC  C217 6467   5.221   1.510   4.997  0.0947  0.4830 -0.0670
   73SLPC  H17R 6468   5.189   1.410   4.964  1.2105 -0.5856  1.8988
   73SLPC  H17S 6469   5.310   1.500   5.063 -1.2186 -0.0265  1.6809
   73SLPC  C218 6470   5.243   1.598   4.873  0.6600 -0.1941  0.1218
   73SLPC  H18R 6471   5.158   1.593   4.802  0.3888 -1.7276  0.5175
   73SLPC  H18S 6472   5.332   1.576   4.811  0.5879  0.6095 -0.2784
   73SLPC  H18T 6473   5.246   1.706   4.898  1.8895 -0.1897 -0.0163
   73SLPC   C33 6474   5.321   1.127   6.945 -0.7231  0.1261 -0.4495
   73SLPC   H3X 6475   5.368   1.031   6.913 -0.9369  0.5908 -2.2320
   73SLPC   H3Y 6476   5.321   1.137   7.056  2.6136 -0.5201 -0.2705
   73SLPC   C34 6477   5.413   1.235   6.893  0.1475  0.2080  0.0932
   73SLPC   H4X 6478   5.521   1.223   6.913  0.3686  0.3412 -0.9654
   73SLPC   H4Y 6479   5.390   1.335   6.934  2.6026  0.1142  1.9082
   73SLPC   C35 6480   5.408   1.256   6.739  0.1666 -0.6193  0.2602
   73SLPC   H5X 6481   5.305   1.296   6.722  0.6815  0.4887 -0.3802
   73SLPC   H5Y 6482   5.428   1.155   6.699 -0.7232  0.2325 -2.5594
   73SLPC   C36 6483   5.511   1.350   6.688 -0.3353 -0.6840 -0.5395
   73SLPC   H6X 6484   5.600   1.286   6.671  0.7433  0.0413  1.8551
   73SLPC   H6Y 6485   5.545   1.427   6.761 -2.1757  0.5483 -0.8966
   73SLPC   C37 6486   5.489   1.429   6.561  0.3838 -0.8398  0.5231
   73SLPC   H7X 6487   5.582   1.479   6.528 -0.2894  1.1419  1.4640
   73SLPC   H7Y 6488   5.411   1.503   6.590  2.3845  1.5827  0.1049
   73SLPC   C38 6489   5.427   1.329   6.458 -0.8436 -0.7652 -0.1062
   73SLPC   H8X 6490   5.324   1.300   6.489 -2.8600 -0.3295 -5.3055
   73SLPC   H8Y 6491   5.488   1.237   6.446 -1.2579 -1.0126 -0.3427
   73SLPC   C39 6492   5.417   1.404   6.320  0.4265  0.2511  1.1895
   73SLPC   H9X 6493   5.521   1.415   6.282  0.2998  3.5209  1.5573
   73SLPC   H9Y 6494   5.356   1.496   6.325  0.7857  0.8309 -2.2972
   73SLPC  C310 6495   5.342   1.319   6.206 -0.5038 -0.0346 -0.3668
   73SLPC  H10X 6496   5.237   1.319   6.243  0.3503 -0.2069  2.2685
   73SLPC  H10Y 6497   5.376   1.213   6.202 -0.4487 -0.0602  0.5916
   73SLPC  C311 6498   5.338   1.382   6.071  0.0691 -0.4973  0.3404
   73SLPC  H11X 6499   5.445   1.400   6.049 -0.0805  1.3482  0.9262
   73SLPC  H11Y 6500   5.296   1.485   6.081 -0.0785 -0.4094 -0.9433
   73SLPC  C312 6501   5.262   1.298   5.972  0.0862  0.0919  0.2859
   73SLPC  H12X 6502   5.162   1.273   6.013 -0.3606 -1.9564 -1.8657
   73SLPC  H12Y 6503   5.321   1.204   5.964 -0.1612 -0.0678  0.3315
   73SLPC  C313 6504   5.244   1.371   5.841  0.3203  0.0219  0.6730
   73SLPC  H13X 6505   5.343   1.406   5.804  0.9332 -0.4394  1.8466
   73SLPC  H13Y 6506   5.179   1.459   5.862 -0.9930 -0.6090 -0.5392
   73SLPC  C314 6507   5.172   1.281   5.742 -0.4961  0.1585  0.8279
   73SLPC  H14X 6508   5.068   1.272   5.779 -1.2587  0.0271 -1.1779
   73SLPC  H14Y 6509   5.219   1.182   5.757 -1.7390 -0.7598 -0.8547
   73SLPC  C315 6510   5.167   1.346   5.600  0.2223  0.9375  0.4804
   73SLPC  H15X 6511   5.272   1.381   5.593  1.0624 -1.3018  1.0006
   73SLPC  H15Y 6512   5.091   1.427   5.597 -1.2141 -0.3747 -0.3519
   73SLPC  C316 6513   5.136   1.253   5.482 -0.1419  0.0829  0.8564
   73SLPC  H16X 6514   5.032   1.215   5.498 -0.4428  1.3437  2.0914
   73SLPC  H16Y 6515   5.200   1.164   5.499  0.0044 -0.0301 -0.2161
   73SLPC  C317 6516   5.160   1.317   5.345 -0.4217  0.2717 -0.2989
   73SLPC  H17X 6517   5.250   1.381   5.346  1.6879 -2.4846  1.1281
   73SLPC  H17Y 6518   5.066   1.374   5.328 -0.6632 -0.7332 -2.7353
   73SLPC  C318 6519   5.164   1.210   5.233 -0.2204 -0.3518  0.0913
   73SLPC  H18X 6520   5.100   1.120   5.244  0.0910 -0.7629 -1.3220
   73SLPC  H18Y 6521   5.266   1.169   5.220  0.2605  0.5040  1.0300
   73SLPC  H18Z 6522   5.147   1.264   5.138  0.0229  0.9460  0.7621
   74SLPC     N 6523   1.470   2.077   7.419  0.3893  0.1289  0.4958
   74SLPC   C13 6524   1.545   2.032   7.541 -0.3437 -0.2999  0.4534
   74SLPC  H13A 6525   1.538   2.110   7.616  2.8205  0.1257  0.4620
   74SLPC  H13B 6526   1.496   1.941   7.571 -1.6701  0.6361  1.2304
   74SLPC  H13C 6527   1.649   2.017   7.515 -0.5094  0.1304 -0.5426
   74SLPC   C14 6528   1.526   2.204   7.370 -0.1109  0.2793 -0.3302
   74SLPC  H14A 6529   1.520   2.275   7.452 -0.4912  0.3919 -0.4494
   74SLPC  H14B 6530   1.624   2.204   7.326  0.3207  1.3539  0.5617
   74SLPC  H14C 6531   1.476   2.231   7.278  0.5744 -0.1782 -0.8409
   74SLPC   C15 6532   1.327   2.088   7.447  0.0751  0.0083  0.5018
   74SLPC  H15A 6533   1.287   1.998   7.492 -0.4066  0.2114  0.4851
   74SLPC  H15B 6534   1.296   2.167   7.513  3.9912  0.3629  2.1941
   74SLPC  H15C 6535   1.261   2.099   7.362 -1.7473  0.5900  1.9378
   74SLPC   C12 6536   1.499   1.969   7.314  0.1908  0.1840  0.4418
   74SLPC  H12A 6537   1.459   1.877   7.355  0.2119  0.6862  1.6220
   74SLPC  H12B 6538   1.603   1.946   7.332 -0.1196  0.0124  2.2574
   74SLPC   C11 6539   1.479   1.986   7.162 -0.1625 -0.6081 -0.0882
   74SLPC  H11A 6540   1.538   1.909   7.106 -0.7144 -1.0226 -0.1065
   74SLPC  H11B 6541   1.509   2.090   7.136 -0.8586 -0.0186  1.3703
   74SLPC     P 6542   1.266   1.858   7.093 -0.6952  0.0036 -0.1013
   74SLPC   O13 6543   1.327   1.735   7.148  0.3686 -0.3039 -0.1680
   74SLPC   O14 6544   1.123   1.888   7.128 -0.5093 -0.0533  0.2026
   74SLPC   O12 6545   1.341   1.987   7.132 -0.1257 -0.1243 -0.0233
   74SLPC   O11 6546   1.274   1.844   6.935  0.2154 -0.0985 -0.7437
   74SLPC    C1 6547   1.380   1.774   6.865  0.6823 -0.1365  0.3359
   74SLPC    HA 6548   1.451   1.722   6.933 -0.9746  0.9363  3.0600
   74SLPC    HB 6549   1.328   1.706   6.794 -1.7397  1.2532  0.6596
   74SLPC    C2 6550   1.459   1.883   6.786 -1.1030  0.3583 -0.3421
   74SLPC    HS 6551   1.534   1.926   6.856 -2.6978  1.0568  0.9878
   74SLPC   O21 6552   1.371   1.981   6.731  0.0787 -0.1346  0.0194
   74SLPC   C21 6553   1.409   2.110   6.737  0.3798  0.4291  0.0231
   74SLPC   O22 6554   1.504   2.156   6.800  0.2978  0.5523 -0.2525
   74SLPC   C22 6555   1.316   2.194   6.646  0.8093  0.2444 -0.1273
   74SLPC   H2R 6556   1.234   2.136   6.599 -0.0564  0.7963  0.6768
   74SLPC   H2S 6557   1.273   2.267   6.718  0.2261  0.7208 -0.9373
   74SLPC    C3 6558   1.531   1.807   6.668  0.3625  0.3228 -0.2655
   74SLPC    HX 6559   1.444   1.753   6.625  1.9316 -1.5594 -1.2282
   74SLPC    HY 6560   1.598   1.730   6.714 -2.4991 -1.1817  1.6795
   74SLPC   O31 6561   1.589   1.890   6.567 -0.3222  0.5066 -0.0943
   74SLPC   C31 6562   1.675   1.986   6.609 -0.2997  0.0532 -0.0051
   74SLPC   O32 6563   1.717   2.007   6.721  0.6428  0.8248  0.2551
   74SLPC   C32 6564   1.709   2.065   6.484  1.0274  0.0373 -0.3794
   74SLPC   H2X 6565   1.744   2.168   6.508  2.3747 -0.8681  1.9047
   74SLPC   H2Y 6566   1.619   2.084   6.422 -1.2056 -1.3265  2.2462
   74SLPC   C23 6567   1.391   2.275   6.536  0.4720  0.1899 -0.0437
   74SLPC   H3R 6568   1.435   2.202   6.465 -0.2680 -0.2674 -0.0523
   74SLPC   H3S 6569   1.482   2.325   6.573  1.8708 -0.6792 -2.1185
   74SLPC   C24 6570   1.303   2.384   6.460 -0.3530  1.2293 -0.3536
   74SLPC   H4R 6571   1.379   2.441   6.401 -1.1687 -0.9396 -3.7529
   74SLPC   H4S 6572   1.259   2.449   6.539  0.6873  1.4392  0.0710
   74SLPC   C25 6573   1.195   2.333   6.361 -0.7516  0.2044  0.7425
   74SLPC   H5R 6574   1.102   2.278   6.388 -0.7988 -1.0714 -1.7382
   74SLPC   H5S 6575   1.252   2.260   6.299 -0.4052  0.6254  0.5670
   74SLPC   C26 6576   1.156   2.444   6.269  0.8180 -0.1510 -0.7332
   74SLPC   H6R 6577   1.239   2.516   6.252  0.8033  0.0655  0.0693
   74SLPC   H6S 6578   1.079   2.505   6.323  1.1205  0.3678 -0.8802
   74SLPC   C27 6579   1.101   2.393   6.132 -0.1475  0.2708  0.2743
   74SLPC   H7R 6580   1.060   2.290   6.143 -0.0995  0.3601  1.3618
   74SLPC   H7S 6581   1.191   2.387   6.067  1.3538  1.7873  2.1164
   74SLPC   C28 6582   1.010   2.484   6.046  0.3774  0.2522  0.4919
   74SLPC   H8R 6583   0.922   2.528   6.097 -0.3599 -0.3572 -0.2460
   74SLPC   H8S 6584   0.968   2.435   5.956  0.4532  1.6989 -0.3685
   74SLPC   C29 6585   1.082   2.606   5.989 -1.0362 -0.6154  0.1950
   74SLPC   H9R 6586   1.124   2.678   6.061  0.2674  0.0369 -1.1727
   74SLPC  C210 6587   1.099   2.627   5.856  0.7749  0.8298  0.2864
   74SLPC  H10R 6588   1.150   2.715   5.815  1.2057  0.7042  0.5455
   74SLPC  C211 6589   1.058   2.533   5.745  0.2823  0.2047  1.1647
   74SLPC  H11R 6590   1.013   2.434   5.769  0.7585 -0.4249 -0.4157
   74SLPC  H11S 6591   1.149   2.506   5.687  0.6081  0.4164  1.5669
   74SLPC  C212 6592   0.967   2.599   5.644 -0.3433 -0.4326  0.0807
   74SLPC  H12R 6593   0.870   2.638   5.680  0.3046  0.7631  0.5840
   74SLPC  C213 6594   0.993   2.630   5.517  0.6270 -0.0303 -0.2698
   74SLPC  H13R 6595   0.913   2.687   5.466 -1.1654 -1.7295  0.5076
   74SLPC  C214 6596   1.109   2.591   5.429 -0.2510 -0.2214  0.3444
   74SLPC  H14R 6597   1.146   2.487   5.443  0.5922  0.1861  1.2540
   74SLPC  H14S 6598   1.192   2.652   5.469  0.1322 -1.2069  1.0872
   74SLPC  C215 6599   1.073   2.616   5.282 -0.4321  0.3368  0.0384
   74SLPC  H15R 6600   0.999   2.699   5.287 -1.7625 -0.8907  2.7776
   74SLPC  H15S 6601   1.023   2.526   5.241  0.7421 -0.0698 -0.5271
   74SLPC  C216 6602   1.193   2.671   5.195  0.5295  0.0787  0.4232
   74SLPC  H16R 6603   1.283   2.607   5.211  0.6339  0.2695  0.6035
   74SLPC  H16S 6604   1.221   2.771   5.233  1.7972 -0.3859  0.7727
   74SLPC  C217 6605   1.158   2.673   5.050 -0.0872 -0.3270 -0.0344
   74SLPC  H17R 6606   1.231   2.732   4.992 -1.4200 -0.2098 -1.6499
   74SLPC  H17S 6607   1.061   2.725   5.040 -1.1497 -2.4309 -1.3374
   74SLPC  C218 6608   1.145   2.531   4.984  0.3900 -0.6494 -0.0921
   74SLPC  H18R 6609   1.113   2.542   4.878 -0.2456  0.0439  0.1631
   74SLPC  H18S 6610   1.078   2.472   5.050  0.3593 -1.7666 -1.0725
   74SLPC  H18T 6611   1.246   2.485   4.989  1.0363  0.7542  0.2787
   74SLPC   C33 6612   1.819   2.002   6.396 -0.0944  0.2938 -0.1763
   74SLPC   H3X 6613   1.905   1.965   6.455 -0.0675 -0.7675 -0.8619
   74SLPC   H3Y 6614   1.855   2.069   6.315 -0.4478 -0.4392 -0.9613
   74SLPC   C34 6615   1.770   1.877   6.316 -0.5921 -0.0821 -0.5592
   74SLPC   H4X 6616   1.661   1.882   6.294 -0.9454 -1.1339  0.7694
   74SLPC   H4Y 6617   1.780   1.793   6.388  0.6163  1.4699  1.1614
   74SLPC   C35 6618   1.847   1.841   6.188  0.3188 -0.4033 -0.0148
   74SLPC   H5X 6619   1.814   1.744   6.146  0.1559  0.2005 -1.3316
   74SLPC   H5Y 6620   1.958   1.837   6.191  0.3616 -0.4766 -1.1563
   74SLPC   C36 6621   1.811   1.935   6.067  0.0826  0.2380 -0.1770
   74SLPC   H6X 6622   1.847   2.039   6.081  3.2363 -0.7339 -0.4234
   74SLPC   H6Y 6623   1.703   1.935   6.039  0.2502  0.6820 -0.8338
   74SLPC   C37 6624   1.890   1.883   5.947  0.5491  0.6263 -0.4484
   74SLPC   H7X 6625   1.857   1.784   5.909 -0.1915  0.8415 -0.3751
   74SLPC   H7Y 6626   1.995   1.855   5.972  0.1047 -2.6794 -1.7479
   74SLPC   C38 6627   1.878   1.978   5.827 -0.1774  0.1155 -0.0305
   74SLPC   H8X 6628   1.911   2.081   5.853 -1.6548  1.1197 -1.7839
   74SLPC   H8Y 6629   1.769   1.989   5.804 -0.1804 -0.6266 -0.4071
   74SLPC   C39 6630   1.943   1.923   5.702  0.0176  0.7161 -0.0843
   74SLPC   H9X 6631   1.902   1.820   5.697 -0.5176  0.9932 -1.6614
   74SLPC   H9Y 6632   2.052   1.901   5.709  0.0012 -0.0107 -1.7131
   74SLPC  C310 6633   1.919   1.995   5.572 -0.1926  0.6411 -0.6045
   74SLPC  H10X 6634   1.960   2.097   5.588 -1.2262  0.7682  1.5281
   74SLPC  H10Y 6635   1.816   2.005   5.532 -1.0956 -0.4745  1.2877
   74SLPC  C311 6636   1.986   1.918   5.453 -0.4680  0.2140  0.4887
   74SLPC  H11X 6637   1.917   1.863   5.385  0.7658 -1.8616  0.8585
   74SLPC  H11Y 6638   2.055   1.840   5.489  2.4485  1.7247 -1.4245
   74SLPC  C312 6639   2.054   2.028   5.366 -0.3658 -0.1424  0.1793
   74SLPC  H12X 6640   2.136   2.080   5.420  0.3163  0.1840 -1.1213
   74SLPC  H12Y 6641   1.978   2.105   5.342 -0.6755 -0.6886 -0.6420
   74SLPC  C313 6642   2.121   1.964   5.239  0.1052  0.4972 -0.1233
   74SLPC  H13X 6643   2.044   1.930   5.167 -0.5265 -1.3462  1.3228
   74SLPC  H13Y 6644   2.179   1.873   5.267 -0.7770  0.0107  0.1745
   74SLPC  C314 6645   2.220   2.067   5.173 -0.1347 -0.5265 -0.1614
   74SLPC  H14X 6646   2.285   2.120   5.246  1.1845 -1.1871 -0.8216
   74SLPC  H14Y 6647   2.159   2.154   5.140  0.7274 -0.1283 -0.7261
   74SLPC  C315 6648   2.317   2.005   5.070  0.7458  0.1790 -0.5564
   74SLPC  H15X 6649   2.245   1.943   5.013  0.2756  0.8564 -0.7068
   74SLPC  H15Y 6650   2.388   1.938   5.122 -3.0062 -4.2255 -0.4203
   74SLPC  C316 6651   2.371   2.103   4.971  0.5876 -0.5037 -0.3791
   74SLPC  H16X 6652   2.286   2.150   4.917 -0.6469 -0.5498  1.4328
   74SLPC  H16Y 6653   2.435   2.054   4.894 -1.9544 -0.6597 -2.5684
   74SLPC  C317 6654   2.457   2.224   5.036  0.2021  0.1915  0.6305
   74SLPC  H17X 6655   2.539   2.183   5.098 -1.2794 -0.1101  2.4833
   74SLPC  H17Y 6656   2.391   2.293   5.093  1.3257  2.2310 -0.3972
   74SLPC  C318 6657   2.521   2.315   4.922  0.3550 -0.0477  0.0233
   74SLPC  H18X 6658   2.437   2.355   4.862  0.0532  3.0959  2.2904
   74SLPC  H18Y 6659   2.594   2.264   4.855  0.1982 -0.8025  0.4118
   74SLPC  H18Z 6660   2.570   2.406   4.963 -1.7785  0.9142  0.5523
   75SLPC     N 6661   5.270   6.820   6.972  0.0415 -0.6046  0.3458
   75SLPC   C13 6662   5.278   6.911   7.097  0.1226  0.2430  0.8097
   75SLPC  H13A 6663   5.188   6.885   7.150 -0.3956 -0.1469 -0.2303
   75SLPC  H13B 6664   5.368   6.884   7.151  0.0682 -1.0113  0.3110
   75SLPC  H13C 6665   5.295   7.014   7.068  1.2530  0.2584  1.4661
   75SLPC   C14 6666   5.136   6.827   6.917 -0.3051  0.1665  0.5696
   75SLPC  H14A 6667   5.111   6.737   6.863  2.8460  0.2051 -1.1252
   75SLPC  H14B 6668   5.071   6.827   7.004  0.3335 -0.2359  1.0581
   75SLPC  H14C 6669   5.104   6.918   6.867 -1.2150 -0.5108 -0.1118
   75SLPC   C15 6670   5.298   6.685   7.011 -0.2284  0.3390  0.2208
   75SLPC  H15A 6671   5.237   6.656   7.095  0.6603  0.6523  0.9931
   75SLPC  H15B 6672   5.295   6.614   6.930  2.8602  0.5564 -0.1918
   75SLPC  H15C 6673   5.403   6.678   7.033  0.0299 -0.8558 -1.2236
   75SLPC   C12 6674   5.373   6.858   6.869  0.2203  0.9826  0.6657
   75SLPC  H12A 6675   5.348   6.961   6.851 -1.9499  0.1659 -1.4976
   75SLPC  H12B 6676   5.353   6.806   6.776  0.1338  0.3853  1.0112
   75SLPC   C11 6677   5.520   6.850   6.908 -0.5412  0.3315 -0.0540
   75SLPC  H11A 6678   5.593   6.849   6.823 -0.0477 -1.0841  0.3529
   75SLPC  H11B 6679   5.543   6.748   6.946 -1.5287  0.2123  0.2428
   75SLPC     P 6680   5.554   7.104   6.943 -0.5192 -0.1510  0.1496
   75SLPC   O13 6681   5.449   7.180   7.007 -0.1951 -0.3437 -0.0669
   75SLPC   O14 6682   5.693   7.157   6.965  0.1802  0.5283  0.2974
   75SLPC   O12 6683   5.548   6.955   6.996  0.1066  0.4029  0.5867
   75SLPC   O11 6684   5.520   7.089   6.791  0.2865 -0.1618  0.1212
   75SLPC    C1 6685   5.413   7.157   6.723  0.3203 -0.3039 -0.9053
   75SLPC    HA 6686   5.410   7.125   6.617  0.7908 -0.2574 -0.9361
   75SLPC    HB 6687   5.314   7.127   6.763  0.0786  3.5588  2.0219
   75SLPC    C2 6688   5.430   7.311   6.713 -0.1382  0.5067 -0.5236
   75SLPC    HS 6689   5.417   7.362   6.811  1.7747 -0.6140  0.3862
   75SLPC   O21 6690   5.349   7.362   6.608 -0.0631 -0.0252  0.7551
   75SLPC   C21 6691   5.293   7.482   6.623  0.3198 -0.4649  0.6164
   75SLPC   O22 6692   5.307   7.551   6.726 -0.0126 -0.2340  0.5085
   75SLPC   C22 6693   5.212   7.511   6.493 -0.5643 -0.4779 -0.2020
   75SLPC   H2R 6694   5.207   7.431   6.416 -1.1868 -2.0651  1.4196
   75SLPC   H2S 6695   5.104   7.507   6.520 -0.7425 -0.7515 -0.9145
   75SLPC    C3 6696   5.576   7.342   6.666 -0.9657  0.5793  0.2972
   75SLPC    HX 6697   5.655   7.306   6.736  1.6685  1.6391 -1.9363
   75SLPC    HY 6698   5.608   7.448   6.674 -0.1579  0.4019 -0.4373
   75SLPC   O31 6699   5.617   7.281   6.544 -0.1548 -0.3421  0.0525
   75SLPC   C31 6700   5.587   7.345   6.432 -0.4890 -0.8093  0.0656
   75SLPC   O32 6701   5.544   7.463   6.430  0.2693 -0.0168 -0.4038
   75SLPC   C32 6702   5.604   7.252   6.310  0.4843  0.0467  0.2055
   75SLPC   H2X 6703   5.567   7.153   6.345  0.3250 -0.1096 -0.3910
   75SLPC   H2Y 6704   5.714   7.236   6.300  0.4599 -0.2102  0.3424
   75SLPC   C23 6705   5.251   7.647   6.432  0.4124  0.2777 -0.2667
   75SLPC   H3R 6706   5.346   7.639   6.375  0.6997 -0.1043  0.2615
   75SLPC   H3S 6707   5.264   7.726   6.509  0.6170 -0.4118  0.4238
   75SLPC   C24 6708   5.142   7.704   6.338  0.6192  0.4547  0.7655
   75SLPC   H4R 6709   5.142   7.815   6.348  0.8053  0.5252  0.0043
   75SLPC   H4S 6710   5.043   7.663   6.366  0.7941 -0.5693 -0.0656
   75SLPC   C25 6711   5.184   7.679   6.193  0.3521 -0.9147 -0.1063
   75SLPC   H5R 6712   5.196   7.570   6.181 -1.6514 -1.0990 -0.6950
   75SLPC   H5S 6713   5.274   7.744   6.184  2.1466 -3.0336  1.4166
   75SLPC   C26 6714   5.082   7.719   6.083  0.1608 -0.3698 -0.4462
   75SLPC   H6R 6715   5.054   7.826   6.093  0.8416 -0.0148 -1.9993
   75SLPC   H6S 6716   4.990   7.660   6.102  1.6635 -2.5534  0.3694
   75SLPC   C27 6717   5.139   7.701   5.947 -0.2363  0.1758 -0.3493
   75SLPC   H7R 6718   5.191   7.603   5.937  1.2845  1.0998 -2.1214
   75SLPC   H7S 6719   5.214   7.779   5.924  0.0843  0.3091  1.0696
   75SLPC   C28 6720   5.032   7.714   5.844 -0.1723 -0.2393 -0.0934
   75SLPC   H8R 6721   4.976   7.807   5.864 -1.1850 -1.0337  0.9189
   75SLPC   H8S 6722   4.965   7.627   5.861  1.3412 -1.4477  0.0338
   75SLPC   C29 6723   5.081   7.736   5.700  0.4111  0.4756  0.0916
   75SLPC   H9R 6724   5.090   7.844   5.683  0.3884  0.2503 -1.5203
   75SLPC  C210 6725   5.098   7.645   5.607 -0.4163 -0.1808 -0.6030
   75SLPC  H10R 6726   5.124   7.672   5.503  0.4552  1.7340  0.0683
   75SLPC  C211 6727   5.083   7.500   5.650 -0.0866 -0.5281  0.3701
   75SLPC  H11R 6728   4.977   7.467   5.647 -0.1800 -0.2851  0.9740
   75SLPC  H11S 6729   5.113   7.467   5.752 -0.8187  0.3786  0.8928
   75SLPC  C212 6730   5.155   7.431   5.543 -0.3746 -0.0606  0.6438
   75SLPC  H12R 6731   5.254   7.401   5.579  0.4912 -1.6300 -2.7179
   75SLPC  C213 6732   5.099   7.383   5.429  0.0014  0.0483  0.2819
   75SLPC  H13R 6733   5.158   7.310   5.372  0.4254  0.1140  0.6334
   75SLPC  C214 6734   4.961   7.403   5.374 -0.4947 -0.2688 -0.1225
   75SLPC  H14R 6735   4.903   7.475   5.435 -0.9498 -0.5057 -0.2757
   75SLPC  H14S 6736   4.914   7.303   5.382 -0.8664  0.0335  2.1121
   75SLPC  C215 6737   4.955   7.453   5.230 -0.6019  0.1329  0.6573
   75SLPC  H15R 6738   4.977   7.561   5.224  0.2400 -0.0636  0.0024
   75SLPC  H15S 6739   4.854   7.428   5.191  0.3038 -1.1251 -1.0054
   75SLPC  C216 6740   5.053   7.383   5.137  0.3466  0.1000  0.1253
   75SLPC  H16R 6741   5.064   7.276   5.163  0.2320  0.0668  0.0376
   75SLPC  H16S 6742   5.155   7.427   5.144  0.0076  0.6649  2.1447
   75SLPC  C217 6743   5.015   7.394   4.986  0.2671 -0.0825 -0.2852
   75SLPC  H17R 6744   5.106   7.376   4.924  0.8830 -0.2580  0.6578
   75SLPC  H17S 6745   4.991   7.502   4.971 -0.4096 -0.2038 -0.0762
   75SLPC  C218 6746   4.898   7.307   4.931 -0.0627  0.0379 -0.2237
   75SLPC  H18R 6747   4.806   7.345   4.981 -0.1615  2.4155 -2.0420
   75SLPC  H18S 6748   4.925   7.200   4.948 -2.6294 -0.4797  1.0866
   75SLPC  H18T 6749   4.887   7.343   4.827  1.4864  2.1260  0.2661
   75SLPC   C33 6750   5.513   7.303   6.191 -0.1873  1.0023 -0.4642
   75SLPC   H3X 6751   5.411   7.341   6.218 -1.2801 -0.6687 -2.0291
   75SLPC   H3Y 6752   5.488   7.226   6.115 -2.4736 -0.5006  1.6401
   75SLPC   C34 6753   5.570   7.422   6.112  0.3923 -0.2227  0.4907
   75SLPC   H4X 6754   5.669   7.391   6.072  0.6369 -0.3935  1.2060
   75SLPC   H4Y 6755   5.581   7.517   6.168  0.4981 -0.1952  0.4239
   75SLPC   C35 6756   5.482   7.451   5.990  0.9808  0.1555  0.6590
   75SLPC   H5X 6757   5.376   7.468   6.018  1.4011  0.9027  1.8787
   75SLPC   H5Y 6758   5.498   7.360   5.928  2.8548 -0.8282  2.4455
   75SLPC   C36 6759   5.518   7.575   5.907  0.2071  0.4466  0.1514
   75SLPC   H6X 6760   5.629   7.571   5.908  0.3313  2.5011  1.9336
   75SLPC   H6Y 6761   5.491   7.669   5.961 -0.4769  1.0564 -1.1939
   75SLPC   C37 6762   5.477   7.578   5.759  0.8047 -0.0318  0.1641
   75SLPC   H7X 6763   5.366   7.580   5.755  0.7865  0.8363  0.6654
   75SLPC   H7Y 6764   5.506   7.484   5.709 -0.2701  0.5119 -1.5864
   75SLPC   C38 6765   5.541   7.692   5.692 -0.1523 -0.1055  0.5438
   75SLPC   H8X 6766   5.644   7.659   5.667 -0.0758  0.6393 -0.1598
   75SLPC   H8Y 6767   5.557   7.779   5.758 -0.8949  1.1964 -0.9376
   75SLPC   C39 6768   5.463   7.740   5.565 -0.6027 -0.5718 -0.6759
   75SLPC   H9X 6769   5.501   7.828   5.508 -0.4001 -0.7775 -0.8627
   75SLPC   H9Y 6770   5.362   7.763   5.605  0.2041 -0.5849  1.5259
   75SLPC  C310 6771   5.451   7.635   5.449 -0.0677  0.8617 -0.2308
   75SLPC  H10X 6772   5.383   7.550   5.470 -0.2342  0.1715 -3.1037
   75SLPC  H10Y 6773   5.548   7.589   5.421 -1.6222 -2.1268 -1.2026
   75SLPC  C311 6774   5.398   7.691   5.314 -0.0322  0.1367 -1.5730
   75SLPC  H11X 6775   5.463   7.777   5.287  0.3781 -0.3293 -2.0869
   75SLPC  H11Y 6776   5.294   7.728   5.326 -0.0578 -0.2151 -0.6470
   75SLPC  C312 6777   5.404   7.588   5.201 -0.1413  0.3937 -0.0489
   75SLPC  H12X 6778   5.361   7.490   5.229  1.6174  0.4130  3.1407
   75SLPC  H12Y 6779   5.511   7.561   5.189 -0.2837 -0.0852 -0.2904
   75SLPC  C313 6780   5.337   7.634   5.071  0.0487 -0.3187  0.0144
   75SLPC  H13X 6781   5.356   7.740   5.047  0.0321 -0.4166 -0.4475
   75SLPC  H13Y 6782   5.227   7.619   5.083  0.4279 -2.6213  1.1958
   75SLPC  C314 6783   5.389   7.553   4.955  0.2488  0.9737 -0.0842
   75SLPC  H14X 6784   5.368   7.444   4.962  1.3155  0.8303  1.6884
   75SLPC  H14Y 6785   5.500   7.563   4.949  0.5470 -1.9878 -1.1581
   75SLPC  C315 6786   5.333   7.600   4.814 -0.0913 -0.2015 -0.0941
   75SLPC  H15X 6787   5.362   7.707   4.804 -0.9907  0.1348  0.6354
   75SLPC  H15Y 6788   5.223   7.584   4.824  0.1189 -0.5961  2.0467
   75SLPC  C316 6789   5.383   7.524   4.695 -0.1253  0.1597  0.2317
   75SLPC  H16X 6790   5.365   7.580   4.601  0.4584 -0.0377 -0.0042
   75SLPC  H16Y 6791   5.336   7.423   4.689  0.1731  0.0305  0.0288
   75SLPC  C317 6792   5.536   7.502   4.695  0.0264  0.3307  0.0537
   75SLPC  H17X 6793   5.564   7.460   4.794 -0.1970 -0.0530 -0.0439
   75SLPC  H17Y 6794   5.592   7.598   4.688 -0.0886  0.4007  0.0928
   75SLPC  C318 6795   5.581   7.418   4.583  0.4774  0.1434  0.5292
   75SLPC  H18X 6796   5.549   7.459   4.484 -0.6464 -1.0971  0.3464
   75SLPC  H18Y 6797   5.532   7.319   4.587 -2.4208  1.3752 -0.8342
   75SLPC  H18Z 6798   5.691   7.405   4.583  0.2919 -1.8181 -0.8072
   76SLPC     N 6799   5.778   6.794   7.334  0.0760 -0.1322 -0.1559
   76SLPC   C13 6800   5.756   6.921   7.403  0.0663 -0.1379 -0.5074
   76SLPC  H13A 6801   5.662   6.917   7.456  0.7410  0.2183  0.7554
   76SLPC  H13B 6802   5.826   6.955   7.478 -0.9227  0.0821  0.3353
   76SLPC  H13C 6803   5.738   6.992   7.323  0.4422 -0.4772 -0.9022
   76SLPC   C14 6804   5.659   6.775   7.237  0.7263  0.3546  0.0062
   76SLPC  H14A 6805   5.655   6.668   7.224  0.2573  0.2228  1.1944
   76SLPC  H14B 6806   5.564   6.812   7.271  0.5260  1.7226 -1.8833
   76SLPC  H14C 6807   5.679   6.814   7.138  1.5964  2.1569  0.8366
   76SLPC   C15 6808   5.760   6.685   7.432 -0.3252  0.3054  0.3228
   76SLPC  H15A 6809   5.823   6.686   7.520  1.2732 -2.4723 -0.6644
   76SLPC  H15B 6810   5.657   6.684   7.463  0.0241 -1.6427  1.5463
   76SLPC  H15C 6811   5.781   6.592   7.381 -2.7058  0.0052 -0.1896
   76SLPC   C12 6812   5.910   6.790   7.264 -0.4837  0.0938  0.1139
   76SLPC  H12A 6813   5.988   6.805   7.337 -2.3594  1.7227  1.9219
   76SLPC  H12B 6814   5.909   6.871   7.193 -0.3768 -1.5170 -1.8471
   76SLPC   C11 6815   5.940   6.660   7.174 -0.2054 -0.3370  0.0082
   76SLPC  H11A 6816   5.905   6.574   7.237 -0.8225  0.2059  0.4223
   76SLPC  H11B 6817   6.049   6.648   7.158  0.0437  1.7798 -0.1113
   76SLPC     P 6818   5.927   6.728   6.932 -0.2097  0.2598 -0.1582
   76SLPC   O13 6819   5.833   6.733   6.817 -0.1592 -0.2115  0.1241
   76SLPC   O14 6820   5.972   6.860   6.977 -0.2662  0.5215  0.3174
   76SLPC   O12 6821   5.858   6.658   7.060 -0.1476  0.3230  0.5591
   76SLPC   O11 6822   6.048   6.633   6.897 -0.0500  0.4219  0.5199
   76SLPC    C1 6823   6.181   6.677   6.857  0.2190  0.6477  0.0575
   76SLPC    HA 6824   6.204   6.766   6.918 -1.4475  1.9400 -1.0982
   76SLPC    HB 6825   6.249   6.592   6.879 -0.9395 -0.9500 -2.1320
   76SLPC    C2 6826   6.191   6.707   6.703  0.2431 -0.0389  0.3929
   76SLPC    HS 6827   6.123   6.794   6.691 -1.9136 -1.2535  2.7253
   76SLPC   O21 6828   6.156   6.598   6.615  0.3295 -0.7890 -0.2900
   76SLPC   C21 6829   6.101   6.641   6.502 -0.2116 -0.0777  0.2147
   76SLPC   O22 6830   6.077   6.757   6.470  0.6377  0.5197  0.2100
   76SLPC   C22 6831   6.056   6.527   6.419  0.9593  0.1875  0.8725
   76SLPC   H2R 6832   6.020   6.441   6.480  2.1445 -0.9642  0.0087
   76SLPC   H2S 6833   5.967   6.561   6.362 -0.3796  0.2701  2.9025
   76SLPC    C3 6834   6.337   6.742   6.661 -0.3896  0.0177 -0.0431
   76SLPC    HX 6835   6.389   6.645   6.670 -3.3006 -1.7901 -1.2721
   76SLPC    HY 6836   6.376   6.819   6.731 -1.1882  1.7953 -1.4801
   76SLPC   O31 6837   6.352   6.794   6.530  0.1232  0.1838 -0.7328
   76SLPC   C31 6838   6.319   6.918   6.496  0.2876 -0.0500 -0.3768
   76SLPC   O32 6839   6.265   6.998   6.570  0.5041 -0.4864 -0.0461
   76SLPC   C32 6840   6.328   6.941   6.343  0.1890 -0.1863  0.0783
   76SLPC   H2X 6841   6.314   7.050   6.334 -2.8252 -0.3792  1.3257
   76SLPC   H2Y 6842   6.236   6.893   6.302  0.6220  0.5790 -1.8882
   76SLPC   C23 6843   6.173   6.462   6.340  0.0003  0.0776 -0.3245
   76SLPC   H3R 6844   6.151   6.359   6.305 -2.2671  0.5789 -0.4736
   76SLPC   H3S 6845   6.263   6.444   6.403 -0.7474 -0.3552  0.6481
   76SLPC   C24 6846   6.213   6.529   6.204  0.3396  0.4821  0.2037
   76SLPC   H4R 6847   6.244   6.636   6.210 -2.0102  1.2053  0.5152
   76SLPC   H4S 6848   6.114   6.543   6.156 -0.9780 -1.8739  2.0565
   76SLPC   C25 6849   6.304   6.457   6.104 -0.2166  0.7484 -0.8923
   76SLPC   H5R 6850   6.272   6.352   6.091 -2.1794  0.6585  3.3539
   76SLPC   H5S 6851   6.404   6.467   6.152 -1.7005 -0.8731  2.8449
   76SLPC   C26 6852   6.306   6.515   5.955 -0.0219 -0.1364 -1.4953
   76SLPC   H6R 6853   6.349   6.617   5.963  0.4455 -0.3552 -1.1916
   76SLPC   H6S 6854   6.201   6.530   5.921 -0.2502 -0.5619 -0.9940
   76SLPC   C27 6855   6.364   6.422   5.854  0.0164 -0.1828  0.2986
   76SLPC   H7R 6856   6.292   6.338   5.863 -0.0947 -0.1882 -0.5460
   76SLPC   H7S 6857   6.462   6.388   5.894  0.0066  1.8754  2.2597
   76SLPC   C28 6858   6.380   6.469   5.711 -0.9409  0.1825 -0.4603
   76SLPC   H8R 6859   6.438   6.392   5.656  3.9226  0.9654  2.9769
   76SLPC   H8S 6860   6.450   6.554   5.722 -0.6486 -0.0193 -0.7371
   76SLPC   C29 6861   6.266   6.523   5.638  0.1072 -0.0648  0.2473
   76SLPC   H9R 6862   6.233   6.625   5.663  0.9923  0.2744  0.0525
   76SLPC  C210 6863   6.205   6.460   5.532  0.0453  0.1594  0.0474
   76SLPC  H10R 6864   6.116   6.505   5.485 -0.1643 -1.9559 -1.7186
   76SLPC  C211 6865   6.237   6.319   5.472  0.5043  0.4929 -0.1843
   76SLPC  H11R 6866   6.149   6.253   5.459  1.0356 -1.1651  3.4860
   76SLPC  H11S 6867   6.311   6.264   5.534 -0.3749  0.2133  0.6429
   76SLPC  C212 6868   6.312   6.345   5.341 -0.0870  0.4924 -0.2182
   76SLPC  H12R 6869   6.422   6.345   5.336 -0.0685 -0.8590 -0.2345
   76SLPC  C213 6870   6.252   6.383   5.226 -0.0079  0.8890 -0.1883
   76SLPC  H13R 6871   6.312   6.384   5.134 -1.9503 -1.0310 -1.5989
   76SLPC  C214 6872   6.106   6.401   5.205 -0.1409 -0.3461  0.1521
   76SLPC  H14R 6873   6.042   6.382   5.294 -0.8980 -1.9646 -0.6952
   76SLPC  H14S 6874   6.074   6.314   5.145 -0.5034 -0.5223  0.5966
   76SLPC  C215 6875   6.061   6.541   5.147 -0.5548 -0.6563 -0.2910
   76SLPC  H15R 6876   6.084   6.611   5.230 -1.1633  0.6749 -1.2247
   76SLPC  H15S 6877   5.951   6.538   5.134 -0.5672  0.2443 -0.4299
   76SLPC  C216 6878   6.144   6.576   5.031  0.0305 -0.7700  0.7258
   76SLPC  H16R 6879   6.139   6.490   4.961 -1.1528  0.2797 -0.5297
   76SLPC  H16S 6880   6.249   6.586   5.067  0.1859  0.4744 -0.0152
   76SLPC  C217 6881   6.110   6.715   4.978  0.6666  0.0532  0.4527
   76SLPC  H17R 6882   6.019   6.718   4.914  0.5381  0.3258  0.6425
   76SLPC  H17S 6883   6.190   6.735   4.904 -0.3497 -1.5606 -1.1274
   76SLPC  C218 6884   6.126   6.838   5.072  0.3475  0.4452 -0.7301
   76SLPC  H18R 6885   6.231   6.845   5.107  0.0192 -1.6644  0.8776
   76SLPC  H18S 6886   6.057   6.818   5.157  2.5890  0.8988  1.3029
   76SLPC  H18T 6887   6.095   6.929   5.017 -1.0953  1.1757  1.1947
   76SLPC   C33 6888   6.460   6.886   6.287 -0.0668 -0.1035 -0.1773
   76SLPC   H3X 6889   6.471   6.779   6.317 -0.6566 -0.7335 -2.0673
   76SLPC   H3Y 6890   6.550   6.948   6.305 -0.1581  0.7587 -2.4173
   76SLPC   C34 6891   6.460   6.881   6.132  0.1149  0.0755  0.0987
   76SLPC   H4X 6892   6.363   6.839   6.098 -0.4904  1.1602  0.4412
   76SLPC   H4Y 6893   6.546   6.821   6.096  1.2046  0.3337  2.1119
   76SLPC   C35 6894   6.465   7.022   6.068  0.0691 -0.2207 -0.0920
   76SLPC   H5X 6895   6.543   7.085   6.116  0.8719 -0.1970 -1.3889
   76SLPC   H5Y 6896   6.367   7.069   6.093  0.8466  0.5371  1.7748
   76SLPC   C36 6897   6.500   7.015   5.920 -0.4466 -0.7940 -0.7024
   76SLPC   H6X 6898   6.604   6.979   5.909  0.9642  1.6447  2.9644
   76SLPC   H6Y 6899   6.496   7.122   5.889  1.3936 -0.5726 -0.2605
   76SLPC   C37 6900   6.405   6.951   5.827 -0.3953  0.1182  0.6598
   76SLPC   H7X 6901   6.305   6.999   5.839 -1.1059 -1.0046 -0.5532
   76SLPC   H7Y 6902   6.395   6.841   5.842 -2.2583 -0.0014 -1.0223
   76SLPC   C38 6903   6.449   6.961   5.680 -0.2151 -0.2374  0.7393
   76SLPC   H8X 6904   6.436   6.872   5.615  2.4559 -0.4500  0.3826
   76SLPC   H8Y 6905   6.560   6.971   5.678 -0.3060  0.8742 -0.5127
   76SLPC   C39 6906   6.391   7.090   5.614  0.0480  0.3153  0.0603
   76SLPC   H9X 6907   6.405   7.190   5.662 -1.8942  0.8151 -0.3160
   76SLPC   H9Y 6908   6.282   7.077   5.629  0.2665 -1.9019 -0.0599
   76SLPC  C310 6909   6.425   7.079   5.459 -0.3634  0.5460 -0.8661
   76SLPC  H10X 6910   6.370   6.994   5.414 -0.4042  1.3200 -2.3411
   76SLPC  H10Y 6911   6.532   7.052   5.466 -0.7611 -0.7384  0.7198
   76SLPC  C311 6912   6.423   7.205   5.375  0.9102  0.1259 -0.3127
   76SLPC  H11X 6913   6.467   7.187   5.275 -4.6629 -0.5761 -3.0149
   76SLPC  H11Y 6914   6.468   7.288   5.433 -0.9527  0.3324  0.9272
   76SLPC  C312 6915   6.276   7.245   5.342 -0.3348  0.0650 -0.2998
   76SLPC  H12X 6916   6.214   7.226   5.432 -0.5596 -0.2242 -0.5163
   76SLPC  H12Y 6917   6.250   7.175   5.259 -1.5412  0.5098 -0.3011
   76SLPC  C313 6918   6.263   7.380   5.279 -0.5181 -0.1140 -0.0015
   76SLPC  H13X 6919   6.264   7.451   5.364  1.1944 -0.2568  0.1325
   76SLPC  H13Y 6920   6.158   7.389   5.243 -1.0219 -0.8695  1.2187
   76SLPC  C314 6921   6.356   7.414   5.166 -0.0761  0.8333  0.0096
   76SLPC  H14X 6922   6.358   7.334   5.089  3.6232  2.3041 -1.6570
   76SLPC  H14Y 6923   6.462   7.403   5.197 -0.0453  0.4419 -0.2281
   76SLPC  C315 6924   6.340   7.549   5.095  0.3343  0.1201  0.5233
   76SLPC  H15X 6925   6.244   7.546   5.038  1.4513  0.7946 -1.4938
   76SLPC  H15Y 6926   6.415   7.552   5.013 -0.0354  0.3423  0.1885
   76SLPC  C316 6927   6.346   7.669   5.186  0.1016  0.4070 -0.1006
   76SLPC  H16X 6928   6.432   7.671   5.257  1.3220  2.6470 -1.5192
   76SLPC  H16Y 6929   6.252   7.679   5.245 -0.8038 -0.4326 -1.3516
   76SLPC  C317 6930   6.350   7.803   5.108  0.1865  0.9604 -0.5194
   76SLPC  H17X 6931   6.445   7.831   5.058  0.2879  1.8542  0.1565
   76SLPC  H17Y 6932   6.324   7.891   5.170 -0.6593  0.3887 -0.0336
   76SLPC  C318 6933   6.235   7.805   5.002  0.1391  0.3641 -0.3121
   76SLPC  H18X 6934   6.267   7.750   4.911  2.4921 -0.3487  0.8459
   76SLPC  H18Y 6935   6.199   7.905   4.971 -2.1055 -0.1043  0.5872
   76SLPC  H18Z 6936   6.148   7.757   5.052  0.4993 -1.1950 -1.0915
   77SLPC     N 6937   0.181   0.205   7.006 -0.1555  0.2153  0.5710
   77SLPC   C13 6938   0.248   0.232   6.869  0.2195 -0.4803 -0.0037
   77SLPC  H13A 6939   0.256   0.151   6.799 -1.1526 -0.8453  0.2166
   77SLPC  H13B 6940   0.194   0.310   6.818  1.7922  0.9108  0.3908
   77SLPC  H13C 6941   0.346   0.272   6.891  0.3786 -0.9778  0.2045
   77SLPC   C14 6942   0.175   0.346   7.064 -0.1122 -0.7087 -0.5101
   77SLPC  H14A 6943   0.126   0.347   7.161  0.2455  4.3909 -0.1301
   77SLPC  H14B 6944   0.271   0.386   7.093 -1.3910  1.6395  0.8436
   77SLPC  H14C 6945   0.135   0.416   6.993  1.2439 -0.0121 -0.6008
   77SLPC   C15 6946   0.267   0.111   7.090  0.3123  0.2678  0.2952
   77SLPC  H15A 6947   0.283   0.024   7.026  0.1071 -0.1427  0.7961
   77SLPC  H15B 6948   0.366   0.152   7.103  1.1728 -1.6358  0.1065
   77SLPC  H15C 6949   0.221   0.080   7.182 -1.2623 -1.2497 -0.9357
   77SLPC   C12 6950   0.043   0.153   6.976 -0.4309  1.0100 -0.3165
   77SLPC  H12A 6951  -0.020   0.233   6.941 -1.4069  0.2835 -0.2535
   77SLPC  H12B 6952   0.002   0.117   7.069  1.7792 -1.4092 -0.1430
   77SLPC   C11 6953   0.042   0.039   6.868 -0.1842 -0.4159 -0.1314
   77SLPC  H11A 6954   0.075   0.079   6.769  1.7637  2.5473  1.5408
   77SLPC  H11B 6955  -0.064   0.009   6.856 -0.3475 -1.9337  3.7062
   77SLPC     P 6956   0.059  -0.186   6.990 -0.0967  0.0862  0.4984
   77SLPC   O13 6957   0.159  -0.289   7.023 -0.5431  0.4651 -0.2497
   77SLPC   O14 6958  -0.033  -0.140   7.095 -0.1395 -0.3768  0.2119
   77SLPC   O12 6959   0.126  -0.074   6.902 -0.4863 -0.0502 -0.2038
   77SLPC   O11 6960  -0.032  -0.234   6.868  0.6286  0.2148  0.2745
   77SLPC    C1 6961  -0.005  -0.353   6.791  0.9905 -0.3464 -0.3930
   77SLPC    HA 6962   0.023  -0.436   6.860 -2.0426 -0.9860  0.2069
   77SLPC    HB 6963  -0.108  -0.383   6.764  0.2367  1.4829  0.3198
   77SLPC    C2 6964   0.089  -0.326   6.675 -0.4756 -0.0787 -1.0944
   77SLPC    HS 6965   0.179  -0.267   6.704  0.6559 -1.8241 -0.9521
   77SLPC   O21 6966   0.001  -0.263   6.583  0.4329 -0.7011 -0.3024
   77SLPC   C21 6967   0.048  -0.182   6.503  0.1567 -0.2117 -0.0933
   77SLPC   O22 6968   0.164  -0.152   6.482 -0.3886  0.2860 -0.4371
   77SLPC   C22 6969  -0.065  -0.136   6.413 -0.6981  0.6635  0.1276
   77SLPC   H2R 6970  -0.156  -0.117   6.474 -0.6820  0.1533  0.3128
   77SLPC   H2S 6971  -0.037  -0.033   6.381 -0.4649  1.2325  2.0220
   77SLPC    C3 6972   0.157  -0.458   6.625 -0.0946 -0.7437 -0.0480
   77SLPC    HX 6973   0.073  -0.530   6.622  1.6075 -3.0781  2.4332
   77SLPC    HY 6974   0.224  -0.491   6.708 -1.6597 -2.8384  0.4799
   77SLPC   O31 6975   0.224  -0.430   6.504  0.1817  0.2457 -0.2909
   77SLPC   C31 6976   0.234  -0.533   6.423 -0.0590 -0.1729  0.0176
   77SLPC   O32 6977   0.202  -0.649   6.450  0.2136 -0.3160 -0.0464
   77SLPC   C32 6978   0.311  -0.495   6.293 -0.1153 -0.5215 -0.9418
   77SLPC   H2X 6979   0.418  -0.504   6.322  0.4578  3.1162 -1.3510
   77SLPC   H2Y 6980   0.287  -0.387   6.283 -0.9014 -0.5330  0.5696
   77SLPC   C23 6981  -0.081  -0.224   6.282  0.2135 -1.0383  0.1069
   77SLPC   H3R 6982  -0.172  -0.189   6.228  0.5641  0.0855  0.2076
   77SLPC   H3S 6983  -0.097  -0.332   6.303  0.7710 -0.8313  1.8098
   77SLPC   C24 6984   0.040  -0.202   6.190 -0.9741 -0.4770 -1.0093
   77SLPC   H4R 6985   0.131  -0.238   6.242  1.3991 -0.1176 -4.5843
   77SLPC   H4S 6986   0.045  -0.093   6.170 -1.6661 -0.3435 -0.4793
   77SLPC   C25 6987   0.028  -0.278   6.056  0.1067 -0.0211 -0.1762
   77SLPC   H5R 6988  -0.027  -0.373   6.072  1.2562 -0.4988  1.2018
   77SLPC   H5S 6989   0.125  -0.323   6.025  0.1336 -1.4239  1.7598
   77SLPC   C26 6990  -0.026  -0.198   5.935 -0.3700 -0.2194 -0.1413
   77SLPC   H6R 6991   0.040  -0.109   5.942  1.5299 -1.6256  0.8956
   77SLPC   H6S 6992  -0.129  -0.162   5.952 -0.4406 -0.0366 -0.8939
   77SLPC   C27 6993  -0.004  -0.267   5.804  0.1149  0.2869  0.2574
   77SLPC   H7R 6994  -0.086  -0.337   5.776  1.1445 -2.0312  2.6331
   77SLPC   H7S 6995   0.089  -0.327   5.812  1.2232  1.9601  0.4080
   77SLPC   C28 6996   0.025  -0.167   5.687 -0.0681 -0.1648 -0.7928
   77SLPC   H8R 6997   0.088  -0.218   5.612  2.0345  0.6431  0.3575
   77SLPC   H8S 6998   0.076  -0.073   5.716 -1.2822  0.2938 -0.0256
   77SLPC   C29 6999  -0.109  -0.125   5.637  0.4958 -0.3495  0.2049
   77SLPC   H9R 7000  -0.192  -0.092   5.702 -0.9193 -0.5740 -1.4170
   77SLPC  C210 7001  -0.146  -0.142   5.507 -0.2437 -0.4488  0.2083
   77SLPC  H10R 7002  -0.242  -0.101   5.472 -1.1425 -1.8641  0.9297
   77SLPC  C211 7003  -0.065  -0.194   5.392  0.6936 -0.2406  0.1577
   77SLPC  H11R 7004  -0.139  -0.227   5.316  1.6970  1.8240 -1.8385
   77SLPC  H11S 7005  -0.005  -0.283   5.422  1.6343  0.4217  0.3080
   77SLPC  C212 7006   0.025  -0.085   5.331  0.0895 -0.1591  0.8754
   77SLPC  H12R 7007   0.122  -0.084   5.383  0.0738 -1.8162  1.0187
   77SLPC  C213 7008   0.002   0.002   5.228  0.4498 -0.2253  0.1605
   77SLPC  H13R 7009   0.075   0.079   5.200  0.6363 -0.4893 -0.0821
   77SLPC  C214 7010  -0.127   0.022   5.151  0.3098  0.4040  0.2471
   77SLPC  H14R 7011  -0.162   0.128   5.150 -1.9245 -0.2921 -0.1702
   77SLPC  H14S 7012  -0.221  -0.022   5.190  0.2306 -0.3695 -0.7730
   77SLPC  C215 7013  -0.106  -0.024   5.007 -0.4691 -0.6386 -0.0245
   77SLPC  H15R 7014  -0.201  -0.054   4.958  0.4849 -2.1564 -1.0518
   77SLPC  H15S 7015  -0.049  -0.120   5.007  0.2376 -0.2193  0.2045
   77SLPC  C216 7016  -0.050   0.087   4.919 -0.8203  0.2013  0.1385
   77SLPC  H16R 7017  -0.011   0.039   4.826 -1.8720  1.4897 -1.0201
   77SLPC  H16S 7018   0.033   0.139   4.972  1.2126 -0.2816 -2.3736
   77SLPC  C217 7019  -0.160   0.186   4.875  0.3060  0.0494  0.5297
   77SLPC  H17R 7020  -0.190   0.248   4.963 -0.7386  1.6644 -0.9057
   77SLPC  H17S 7021  -0.245   0.138   4.823  2.4846  0.2407 -3.6226
   77SLPC  C218 7022  -0.110   0.287   4.769  0.0531 -0.0462 -0.2214
   77SLPC  H18R 7023  -0.196   0.351   4.737 -0.7527 -0.7408  0.4961
   77SLPC  H18S 7024  -0.080   0.223   4.683 -0.7854  0.4621 -0.9120
   77SLPC  H18T 7025  -0.028   0.349   4.811  0.2830 -0.8988  0.6182
   77SLPC   C33 7026   0.256  -0.562   6.164 -0.4952 -0.3286 -0.8362
   77SLPC   H3X 7027   0.149  -0.536   6.154 -0.3963  1.1995  1.2630
   77SLPC   H3Y 7028   0.276  -0.671   6.164  1.4185 -0.0459  0.6295
   77SLPC   C34 7029   0.333  -0.513   6.039 -0.1669 -0.4825 -0.4275
   77SLPC   H4X 7030   0.439  -0.543   6.024  0.0617 -0.0710  0.3397
   77SLPC   H4Y 7031   0.322  -0.403   6.038 -3.4249 -0.5485  3.1656
   77SLPC   C35 7032   0.260  -0.571   5.912  0.0267 -0.0311 -0.5275
   77SLPC   H5X 7033   0.152  -0.554   5.929  0.3870  1.1031  0.8328
   77SLPC   H5Y 7034   0.287  -0.678   5.928  1.0038  0.2827  0.0206
   77SLPC   C36 7035   0.322  -0.520   5.778  0.1610  0.2110  0.8740
   77SLPC   H6X 7036   0.428  -0.553   5.776 -0.5325 -2.2152  0.9381
   77SLPC   H6Y 7037   0.301  -0.411   5.781 -0.1737  0.1273  1.9741
   77SLPC   C37 7038   0.252  -0.573   5.650  0.1437  0.0310 -0.5190
   77SLPC   H7X 7039   0.145  -0.543   5.650 -0.1663 -1.0186  0.1166
   77SLPC   H7Y 7040   0.241  -0.682   5.669 -1.9146  0.3811  0.5265
   77SLPC   C38 7041   0.339  -0.545   5.519 -0.1154 -0.2825  0.2000
   77SLPC   H8X 7042   0.434  -0.602   5.527  1.0109  1.5600  0.2997
   77SLPC   H8Y 7043   0.373  -0.440   5.520  1.1229 -0.6475 -0.4846
   77SLPC   C39 7044   0.238  -0.561   5.404 -0.8365 -0.2949  0.4770
   77SLPC   H9X 7045   0.145  -0.501   5.415 -0.7432 -0.2799  1.2770
   77SLPC   H9Y 7046   0.196  -0.664   5.406 -0.1675 -0.5881 -0.2588
   77SLPC  C310 7047   0.300  -0.521   5.272  0.7207  0.6951 -0.5646
   77SLPC  H10X 7048   0.250  -0.582   5.193 -3.1597  3.1592 -0.2775
   77SLPC  H10Y 7049   0.406  -0.554   5.274  0.7681  0.8431 -0.6944
   77SLPC  C311 7050   0.279  -0.374   5.229  0.2192 -0.3505 -0.4202
   77SLPC  H11X 7051   0.325  -0.304   5.302  1.9431  0.3514 -2.0954
   77SLPC  H11Y 7052   0.170  -0.355   5.215  0.2233 -0.4310 -0.5646
   77SLPC  C312 7053   0.341  -0.343   5.097  0.3680 -0.2751  0.3564
   77SLPC  H12X 7054   0.304  -0.390   5.004 -0.7790  3.5905 -1.3338
   77SLPC  H12Y 7055   0.448  -0.370   5.105  0.1215 -0.7871  3.1605
   77SLPC  C313 7056   0.319  -0.196   5.051 -0.6660  0.7836 -0.2134
   77SLPC  H13X 7057   0.361  -0.126   5.127  1.7439 -0.0269 -0.7299
   77SLPC  H13Y 7058   0.209  -0.180   5.052 -0.6868  0.7540 -1.3425
   77SLPC  C314 7059   0.392  -0.169   4.919  0.0858  0.4173  0.1867
   77SLPC  H14X 7060   0.381  -0.061   4.896  3.3511  1.1801  1.6255
   77SLPC  H14Y 7061   0.338  -0.224   4.839  0.8323  0.0156 -0.0482
   77SLPC  C315 7062   0.539  -0.201   4.922 -0.4251 -0.5669  0.6423
   77SLPC  H15X 7063   0.589  -0.159   4.832  2.0579  0.5979  2.4560
   77SLPC  H15Y 7064   0.548  -0.312   4.923  0.8473 -0.4839  0.4437
   77SLPC  C316 7065   0.623  -0.143   5.041  0.2670  0.7531  0.0244
   77SLPC  H16X 7066   0.581  -0.169   5.140  0.9096 -1.2468 -0.1756
   77SLPC  H16Y 7067   0.630  -0.033   5.038  0.7143  0.7441  0.5331
   77SLPC  C317 7068   0.767  -0.191   5.041  0.4100 -1.0124  0.4749
   77SLPC  H17X 7069   0.814  -0.151   4.949  0.5834 -0.0200  0.9734
   77SLPC  H17Y 7070   0.769  -0.302   5.043 -3.5301 -1.3169 -1.6275
   77SLPC  C318 7071   0.841  -0.123   5.156  0.1668  0.4598 -1.0307
   77SLPC  H18X 7072   0.778  -0.106   5.246  0.9352  0.9573 -0.5695
   77SLPC  H18Y 7073   0.878  -0.029   5.109 -0.4403  0.3663 -1.6996
   77SLPC  H18Z 7074   0.930  -0.180   5.192 -1.2990 -2.0397 -1.1805
   78SLPC     N 7075   2.666   4.034   6.915 -0.6098  0.5238  0.4978
   78SLPC   C13 7076   2.552   4.002   6.836 -0.6044  0.5831  0.0375
   78SLPC  H13A 7077   2.470   4.072   6.839 -0.7228  0.5629 -1.8115
   78SLPC  H13B 7078   2.579   3.986   6.733 -1.8342 -1.7708  0.0120
   78SLPC  H13C 7079   2.512   3.906   6.863  2.6461 -0.7757  0.5242
   78SLPC   C14 7080   2.774   3.934   6.891  0.3050 -0.2063 -0.5355
   78SLPC  H14A 7081   2.871   3.977   6.913 -0.1195  0.7472 -0.5128
   78SLPC  H14B 7082   2.763   3.844   6.950  0.5684  0.2572  0.2272
   78SLPC  H14C 7083   2.787   3.910   6.786 -0.5418  3.4259 -1.5870
   78SLPC   C15 7084   2.633   4.022   7.058  0.2807 -0.7986  0.4368
   78SLPC  H15A 7085   2.591   3.925   7.081 -1.8669 -0.5952 -2.1752
   78SLPC  H15B 7086   2.712   4.048   7.127 -0.1540  0.5591  0.4504
   78SLPC  H15C 7087   2.550   4.091   7.063  0.8305 -0.0156 -0.7842
   78SLPC   C12 7088   2.713   4.177   6.874 -0.0477 -1.2482 -0.9088
   78SLPC  H12A 7089   2.799   4.193   6.937 -0.6957  2.3721 -0.6993
   78SLPC  H12B 7090   2.631   4.242   6.902 -1.1076 -1.7610 -2.6339
   78SLPC   C11 7091   2.746   4.205   6.724  0.1338 -0.1800  0.4219
   78SLPC  H11A 7092   2.776   4.311   6.710 -0.2677 -0.1416 -0.1508
   78SLPC  H11B 7093   2.651   4.192   6.668  0.9084  0.7489 -1.1872
   78SLPC     P 7094   3.001   4.127   6.711  0.1978  0.1670  0.2102
   78SLPC   O13 7095   3.020   4.217   6.824  0.3322  0.6595 -0.2295
   78SLPC   O14 7096   3.058   3.992   6.721 -0.1027  0.2487 -0.6477
   78SLPC   O12 7097   2.848   4.115   6.676 -0.5147  0.3119  0.4290
   78SLPC   O11 7098   3.054   4.190   6.580 -0.0443  0.2905  0.2412
   78SLPC    C1 7099   3.134   4.317   6.576  0.5906  0.0536  0.0477
   78SLPC    HA 7100   3.206   4.327   6.660  0.7902  0.8192 -0.1980
   78SLPC    HB 7101   3.198   4.304   6.486  0.9112 -0.2931  0.3290
   78SLPC    C2 7102   3.043   4.442   6.564  0.2468  0.3566  0.1795
   78SLPC    HS 7103   2.964   4.432   6.641 -1.3140 -0.5282 -1.4660
   78SLPC   O21 7104   2.979   4.437   6.435 -0.1483 -0.6538 -0.2814
   78SLPC   C21 7105   2.860   4.489   6.427 -0.7509 -0.0674 -0.1438
   78SLPC   O22 7106   2.791   4.536   6.519  0.0574  0.1595 -0.7267
   78SLPC   C22 7107   2.827   4.492   6.278 -0.4722  0.2094 -0.1559
   78SLPC   H2R 7108   2.863   4.591   6.242 -1.4687  0.4214 -0.5893
   78SLPC   H2S 7109   2.887   4.415   6.224  1.8921  2.0210 -0.2578
   78SLPC    C3 7110   3.121   4.578   6.597 -0.1925  0.6976 -0.3141
   78SLPC    HX 7111   3.180   4.551   6.687 -0.4066 -0.3953 -0.4844
   78SLPC    HY 7112   3.051   4.655   6.635 -2.0620 -0.3258 -1.5099
   78SLPC   O31 7113   3.203   4.614   6.490 -0.9245 -0.1267 -0.1124
   78SLPC   C31 7114   3.152   4.699   6.410  0.0644 -0.0193 -0.5360
   78SLPC   O32 7115   3.041   4.751   6.416 -0.5047 -0.0362 -0.0914
   78SLPC   C32 7116   3.256   4.752   6.309 -0.6477  0.0547 -0.9083
   78SLPC   H2X 7117   3.335   4.798   6.373 -1.6110  0.7812 -0.2273
   78SLPC   H2Y 7118   3.202   4.833   6.256 -0.7540  0.8991  0.4298
   78SLPC   C23 7119   2.672   4.485   6.249 -0.4343  0.8115  0.2447
   78SLPC   H3R 7120   2.614   4.563   6.304 -1.7779 -0.3506  0.5392
   78SLPC   H3S 7121   2.639   4.388   6.291  2.0524 -0.4083 -0.4599
   78SLPC   C24 7122   2.636   4.491   6.093 -0.4569 -0.3082 -0.4857
   78SLPC   H4R 7123   2.693   4.571   6.042  1.3219 -0.7895  0.6656
   78SLPC   H4S 7124   2.526   4.503   6.090 -0.7152 -1.9966  0.9312
   78SLPC   C25 7125   2.680   4.361   6.023 -0.1877 -0.5418 -0.5034
   78SLPC   H5R 7126   2.636   4.273   6.075  0.5456 -0.8832 -0.4585
   78SLPC   H5S 7127   2.790   4.351   6.026 -0.1389  0.0960 -0.0491
   78SLPC   C26 7128   2.616   4.346   5.879 -0.8187  0.1795  0.3337
   78SLPC   H6R 7129   2.507   4.367   5.890 -1.0830 -1.2912  0.6851
   78SLPC   H6S 7130   2.618   4.238   5.856  2.7456 -0.0988  1.3742
   78SLPC   C27 7131   2.685   4.429   5.767 -0.7633 -0.3531 -0.1371
   78SLPC   H7R 7132   2.778   4.370   5.752  0.2641  1.3190 -0.5560
   78SLPC   H7S 7133   2.714   4.534   5.785 -1.8629  0.1424 -1.1176
   78SLPC   C28 7134   2.606   4.430   5.630  0.1134  0.0873  0.4659
   78SLPC   H8R 7135   2.655   4.500   5.560  0.7974 -2.1271 -1.3832
   78SLPC   H8S 7136   2.514   4.485   5.660  1.2958  0.8613  2.9093
   78SLPC   C29 7137   2.554   4.296   5.577  0.3969  0.0238  0.3346
   78SLPC   H9R 7138   2.518   4.219   5.647 -1.2070  0.6202  0.2017
   78SLPC  C210 7139   2.581   4.253   5.451  0.2434 -0.3914  0.0446
   78SLPC  H10R 7140   2.527   4.165   5.415 -0.6775  0.6296 -1.1869
   78SLPC  C211 7141   2.643   4.337   5.341 -0.1070  0.0507  0.0638
   78SLPC  H11R 7142   2.669   4.438   5.380 -0.9502  0.3137 -0.0461
   78SLPC  H11S 7143   2.576   4.354   5.255  0.6513  1.7093 -0.2366
   78SLPC  C212 7144   2.776   4.277   5.296 -0.7537 -0.7273  0.7106
   78SLPC  H12R 7145   2.833   4.220   5.370  2.0497  0.9749 -0.0096
   78SLPC  C213 7146   2.837   4.305   5.176 -0.5277  0.0792  0.5838
   78SLPC  H13R 7147   2.939   4.268   5.158 -0.5655  0.8147 -1.3820
   78SLPC  C214 7148   2.794   4.386   5.057 -0.0986  1.0254 -0.1155
   78SLPC  H14R 7149   2.684   4.400   5.067 -0.8916 -3.1254 -0.7515
   78SLPC  H14S 7150   2.795   4.319   4.967 -3.4037  1.1743 -0.3884
   78SLPC  C215 7151   2.888   4.503   5.022 -0.1910  0.0142  0.3763
   78SLPC  H15R 7152   2.993   4.469   5.023 -0.3547 -0.5196 -0.2218
   78SLPC  H15S 7153   2.881   4.586   5.096  0.0379  1.7064 -1.4131
   78SLPC  C216 7154   2.876   4.546   4.878  0.4766 -0.2757  0.2792
   78SLPC  H16R 7155   2.903   4.459   4.814 -1.1597 -1.1217  0.6745
   78SLPC  H16S 7156   2.961   4.615   4.858  0.8825 -0.7519  0.3420
   78SLPC  C217 7157   2.740   4.598   4.822  0.6824 -0.1979 -0.1961
   78SLPC  H17R 7158   2.655   4.529   4.841 -0.5325  1.6256  1.3795
   78SLPC  H17S 7159   2.765   4.622   4.716 -0.4846  0.8470 -0.2587
   78SLPC  C218 7160   2.688   4.724   4.890  0.4251  0.7763  0.7156
   78SLPC  H18R 7161   2.754   4.809   4.862  2.2251  0.2753  3.0835
   78SLPC  H18S 7162   2.674   4.719   5.001  0.9715 -0.1023  0.7530
   78SLPC  H18T 7163   2.590   4.746   4.843  1.7090  1.9469 -1.5551
   78SLPC   C33 7164   3.306   4.638   6.207 -0.4126 -0.2283  0.3323
   78SLPC   H3X 7165   3.379   4.579   6.267  0.5697 -0.1740 -0.7932
   78SLPC   H3Y 7166   3.371   4.685   6.131 -0.8931 -1.3383 -0.7994
   78SLPC   C34 7167   3.206   4.548   6.137  0.1029 -0.4229 -0.2880
   78SLPC   H4X 7168   3.144   4.491   6.209  1.3893 -1.0097  0.3974
   78SLPC   H4Y 7169   3.261   4.482   6.066  0.3456  1.5713 -2.0434
   78SLPC   C35 7170   3.098   4.618   6.055  0.0063  0.6581  0.1847
   78SLPC   H5X 7171   3.071   4.716   6.100  2.2403  1.3254  0.1826
   78SLPC   H5Y 7172   3.009   4.552   6.050  1.1360 -1.0063  1.3571
   78SLPC   C36 7173   3.134   4.638   5.908 -0.0541 -0.0076 -0.1856
   78SLPC   H6X 7174   3.212   4.564   5.878  0.9865  1.0753 -0.2501
   78SLPC   H6Y 7175   3.186   4.736   5.910  0.4588 -0.2594  2.7650
   78SLPC   C37 7176   3.012   4.639   5.819  0.6514 -0.0702 -0.0546
   78SLPC   H7X 7177   2.934   4.707   5.858 -0.3427 -1.3810  0.3190
   78SLPC   H7Y 7178   2.961   4.540   5.824  0.9535 -0.3102 -1.2310
   78SLPC   C38 7179   3.033   4.649   5.665  0.4138  0.0414  0.7679
   78SLPC   H8X 7180   3.117   4.712   5.630  2.2660 -3.0000 -0.6502
   78SLPC   H8Y 7181   2.939   4.679   5.614  0.9639  0.5824  0.0390
   78SLPC   C39 7182   3.067   4.515   5.598  0.2125  0.8441  0.7022
   78SLPC   H9X 7183   2.995   4.435   5.626  1.3201  0.2271  1.8386
   78SLPC   H9Y 7184   3.166   4.483   5.635  0.1003 -1.0085 -0.4600
   78SLPC  C310 7185   3.048   4.530   5.447 -0.2765  0.5899  0.0897
   78SLPC  H10X 7186   3.094   4.621   5.403  0.2712  0.5398  0.5417
   78SLPC  H10Y 7187   2.939   4.520   5.426 -0.3549 -1.9785  1.3034
   78SLPC  C311 7188   3.117   4.416   5.357 -0.7572 -0.6862 -0.0413
   78SLPC  H11X 7189   3.086   4.426   5.250  0.0905 -0.7903 -0.3079
   78SLPC  H11Y 7190   3.080   4.320   5.397  0.2227  0.0561  2.8692
   78SLPC  C312 7191   3.270   4.413   5.361  0.7231 -0.0099  0.2424
   78SLPC  H12X 7192   3.312   4.412   5.464  0.5698  1.1548  0.3277
   78SLPC  H12Y 7193   3.307   4.504   5.309  0.2043 -0.2336 -0.5444
   78SLPC  C313 7194   3.329   4.298   5.278  0.0615  0.0202 -0.1449
   78SLPC  H13X 7195   3.315   4.203   5.332 -1.3834  0.0360 -0.4561
   78SLPC  H13Y 7196   3.439   4.316   5.272  0.0177  0.8617  1.1319
   78SLPC  C314 7197   3.267   4.280   5.129 -0.6015 -0.1525 -0.1575
   78SLPC  H14X 7198   3.158   4.261   5.137 -0.9009  1.0777 -1.0054
   78SLPC  H14Y 7199   3.317   4.194   5.079 -0.8260 -0.4924  0.1984
   78SLPC  C315 7200   3.283   4.412   5.049  0.7588 -0.2771  0.0892
   78SLPC  H15X 7201   3.246   4.499   5.107 -1.6131  0.2127 -1.9702
   78SLPC  H15Y 7202   3.218   4.407   4.959  0.6877  0.4931  0.0888
   78SLPC  C316 7203   3.426   4.425   4.979 -0.0124 -0.0360  0.0869
   78SLPC  H16X 7204   3.436   4.342   4.905  1.7455 -0.4154  0.7173
   78SLPC  H16Y 7205   3.510   4.419   5.051 -0.8727  0.1683  1.1312
   78SLPC  C317 7206   3.449   4.567   4.922  0.7725  0.9843 -0.1018
   78SLPC  H17X 7207   3.434   4.639   5.005 -1.6504  1.3201 -0.7607
   78SLPC  H17Y 7208   3.363   4.591   4.856 -1.2995 -0.1545  2.0050
   78SLPC  C318 7209   3.595   4.574   4.871  0.2414  0.4569  0.2194
   78SLPC  H18X 7210   3.616   4.680   4.848 -0.0700  0.3457 -0.6315
   78SLPC  H18Y 7211   3.608   4.525   4.771  0.6405  0.9022  0.0499
   78SLPC  H18Z 7212   3.678   4.558   4.943  0.9010  1.2123 -0.3535
   79SLPC     N 7213   2.261   6.718   7.092 -0.1469 -0.4709 -1.0898
   79SLPC   C13 7214   2.255   6.691   6.937  0.1205 -0.8423  0.0663
   79SLPC  H13A 7215   2.278   6.780   6.882  2.8118 -2.1975 -1.1894
   79SLPC  H13B 7216   2.341   6.632   6.908  0.0912 -0.5772 -0.5703
   79SLPC  H13C 7217   2.159   6.651   6.907 -0.1449  1.4273 -2.4593
   79SLPC   C14 7218   2.409   6.748   7.124 -0.6134  0.1909 -1.0266
   79SLPC  H14A 7219   2.476   6.674   7.084  1.3932  1.5604 -0.3643
   79SLPC  H14B 7220   2.445   6.830   7.063 -1.0033  1.5322  0.4613
   79SLPC  H14C 7221   2.427   6.762   7.230  1.0944 -0.4796 -1.1993
   79SLPC   C15 7222   2.215   6.586   7.151 -0.0907 -0.2103  0.2360
   79SLPC  H15A 7223   2.273   6.505   7.108  0.0293  0.5459 -1.0685
   79SLPC  H15B 7224   2.222   6.583   7.259 -1.8513 -0.3455  0.3778
   79SLPC  H15C 7225   2.117   6.561   7.114 -0.3590  0.5489  0.4193
   79SLPC   C12 7226   2.173   6.827   7.143  0.6351 -0.6506  0.6536
   79SLPC  H12A 7227   2.207   6.916   7.092  0.8267  0.4472  2.6225
   79SLPC  H12B 7228   2.179   6.843   7.249  0.5385  1.3291  0.4028
   79SLPC   C11 7229   2.016   6.813   7.128  0.1026  0.0789  0.0578
   79SLPC  H11A 7230   1.976   6.893   7.194  1.7474 -0.0869  1.3325
   79SLPC  H11B 7231   1.983   6.720   7.180 -0.6295  0.7076  0.7482
   79SLPC     P 7232   1.979   6.957   6.914  0.1261 -0.0478  0.2989
   79SLPC   O13 7233   1.840   7.015   6.901 -0.0477 -0.9426 -0.3985
   79SLPC   O14 7234   2.084   7.054   6.956  0.0536  0.3343  0.2874
   79SLPC   O12 7235   1.969   6.823   6.992 -0.4804  0.4160 -0.4874
   79SLPC   O11 7236   2.026   6.917   6.769 -0.5909 -0.3770 -0.2737
   79SLPC    C1 7237   1.975   6.801   6.703  0.6991 -0.5654 -0.3172
   79SLPC    HA 7238   2.056   6.743   6.654 -0.2399 -1.8767 -0.3764
   79SLPC    HB 7239   1.918   6.730   6.766  0.1885  0.6504  0.6339
   79SLPC    C2 7240   1.884   6.847   6.586  0.0869  0.4698  0.1051
   79SLPC    HS 7241   1.805   6.918   6.620 -0.2271 -0.0134  0.4053
   79SLPC   O21 7242   1.827   6.726   6.541 -0.1703  0.1434 -0.1177
   79SLPC   C21 7243   1.697   6.738   6.492 -0.1297  0.3545  0.1919
   79SLPC   O22 7244   1.629   6.839   6.487 -0.8373 -0.6916  0.5439
   79SLPC   C22 7245   1.648   6.596   6.440  0.1173  0.9480 -0.2715
   79SLPC   H2R 7246   1.737   6.531   6.453  0.1196  1.2313  1.3126
   79SLPC   H2S 7247   1.570   6.564   6.512  0.7471  0.4854  0.2107
   79SLPC    C3 7248   1.967   6.922   6.474 -0.2943 -0.1353 -0.1649
   79SLPC    HX 7249   2.061   6.864   6.461  0.2420  0.6222  0.2907
   79SLPC    HY 7250   1.995   7.024   6.508 -0.3699 -0.3067  0.4239
   79SLPC   O31 7251   1.899   6.921   6.345  1.1728 -0.0781  0.1341
   79SLPC   C31 7252   1.820   7.031   6.315  0.4297 -0.2329  0.3886
   79SLPC   O32 7253   1.818   7.130   6.390 -0.4740 -0.3359 -0.2129
   79SLPC   C32 7254   1.719   7.003   6.199  0.6356 -0.1767 -0.0647
   79SLPC   H2X 7255   1.618   7.034   6.234  0.4246 -1.0048  0.0878
   79SLPC   H2Y 7256   1.712   6.892   6.189  2.0356 -0.2680 -0.1533
   79SLPC   C23 7257   1.579   6.589   6.299  0.3213 -0.5445  0.2716
   79SLPC   H3R 7258   1.535   6.683   6.262 -0.6202 -0.4106  1.6365
   79SLPC   H3S 7259   1.490   6.522   6.304  0.0634 -0.2959 -0.7976
   79SLPC   C24 7260   1.675   6.537   6.188  0.4730 -0.2792  0.3565
   79SLPC   H4R 7261   1.710   6.436   6.215  0.9921  0.1619  1.3909
   79SLPC   H4S 7262   1.769   6.596   6.195 -0.0740  0.5990  0.6057
   79SLPC   C25 7263   1.627   6.546   6.045  0.4826 -0.7148 -0.5972
   79SLPC   H5R 7264   1.603   6.652   6.023 -0.6448 -0.3308  2.0833
   79SLPC   H5S 7265   1.533   6.485   6.039 -0.2844  0.3652  0.1839
   79SLPC   C26 7266   1.720   6.501   5.938  0.1410 -0.6637  0.3141
   79SLPC   H6R 7267   1.754   6.396   5.950 -0.6685 -1.0544 -0.6831
   79SLPC   H6S 7268   1.811   6.565   5.938 -0.7341  0.6480  1.0557
   79SLPC   C27 7269   1.666   6.515   5.788  0.3357 -1.1751 -0.1499
   79SLPC   H7R 7270   1.651   6.624   5.775  0.5355 -1.0395  0.7009
   79SLPC   H7S 7271   1.576   6.454   5.765  0.4584 -2.3462  2.1729
   79SLPC   C28 7272   1.772   6.483   5.680 -0.6356 -0.3881  0.0428
   79SLPC   H8R 7273   1.874   6.518   5.708 -1.2987  0.3650  1.6600
   79SLPC   H8S 7274   1.739   6.556   5.604  1.7549  0.5881 -0.1364
   79SLPC   C29 7275   1.764   6.347   5.626  0.1601  0.7673 -0.4512
   79SLPC   H9R 7276   1.709   6.274   5.686  1.2423 -1.9264 -2.5132
   79SLPC  C210 7277   1.802   6.312   5.502 -0.0984  0.5613  0.0616
   79SLPC  H10R 7278   1.795   6.206   5.473  3.2938  0.3692 -0.4430
   79SLPC  C211 7279   1.858   6.401   5.390 -0.4817  0.9708  0.4169
   79SLPC  H11R 7280   1.902   6.332   5.315 -2.1990 -0.5495  0.7167
   79SLPC  H11S 7281   1.946   6.452   5.435 -1.0406  1.0506  1.4494
   79SLPC  C212 7282   1.755   6.488   5.323 -0.3084 -0.2986  0.0751
   79SLPC  H12R 7283   1.657   6.506   5.370 -1.3057  0.3368 -2.0928
   79SLPC  C213 7284   1.767   6.541   5.201  0.2456  0.4929 -0.8489
   79SLPC  H13R 7285   1.684   6.602   5.162 -0.0629  1.2655  0.9270
   79SLPC  C214 7286   1.886   6.524   5.105  0.2465  0.1520 -0.1901
   79SLPC  H14R 7287   1.850   6.456   5.025  0.8997  1.1584 -1.3783
   79SLPC  H14S 7288   1.978   6.482   5.150 -0.3458 -2.1153 -0.9432
   79SLPC  C215 7289   1.919   6.648   5.024 -0.4667  0.0708  0.3190
   79SLPC  H15R 7290   2.007   6.614   4.965 -2.3004 -0.9755 -1.9619
   79SLPC  H15S 7291   1.959   6.739   5.075  0.2509  0.1168 -0.3116
   79SLPC  C216 7292   1.800   6.697   4.938  0.2498 -0.0996  0.0287
   79SLPC  H16R 7293   1.718   6.735   5.002 -0.9026  0.3585 -1.6544
   79SLPC  H16S 7294   1.752   6.606   4.894 -1.2148  1.4345 -1.7044
   79SLPC  C217 7295   1.832   6.799   4.833  0.3296 -0.3732  0.3894
   79SLPC  H17R 7296   1.881   6.751   4.747  2.1849  1.3699  0.4012
   79SLPC  H17S 7297   1.905   6.876   4.865  0.1112  0.7286 -1.6008
   79SLPC  C218 7298   1.698   6.855   4.780  0.1559 -0.6806 -0.7136
   79SLPC  H18R 7299   1.726   6.942   4.716  2.2572 -1.7524 -1.3529
   79SLPC  H18S 7300   1.636   6.886   4.866  0.2709  4.1900 -2.0808
   79SLPC  H18T 7301   1.642   6.777   4.725 -1.4202 -0.2062  0.1520
   79SLPC   C33 7302   1.751   7.070   6.057  0.2317 -0.2034 -0.4551
   79SLPC   H3X 7303   1.767   7.179   6.072 -0.3039  0.1971 -2.4351
   79SLPC   H3Y 7304   1.664   7.072   5.988  1.3566  0.1409 -1.9399
   79SLPC   C34 7305   1.850   6.992   5.984 -0.3057 -0.2266  0.3198
   79SLPC   H4X 7306   1.818   6.888   5.962 -0.0068 -0.8794  2.6675
   79SLPC   H4Y 7307   1.942   6.964   6.041 -0.8332 -1.7179  0.4795
   79SLPC   C35 7308   1.897   7.067   5.857  0.0117  0.4983  0.4397
   79SLPC   H5X 7309   1.987   7.016   5.817 -2.1705 -2.7413 -0.8007
   79SLPC   H5Y 7310   1.932   7.171   5.871  0.1211  0.4249  0.7442
   79SLPC   C36 7311   1.798   7.059   5.734 -0.4733  0.1289  0.2509
   79SLPC   H6X 7312   1.704   7.111   5.761  0.4483  0.5360  2.9488
   79SLPC   H6Y 7313   1.783   6.951   5.709  0.0805 -0.0223  0.5604
   79SLPC   C37 7314   1.851   7.135   5.605 -1.1963  0.0090  0.0579
   79SLPC   H7X 7315   1.953   7.097   5.586 -0.3572  0.3802  3.2355
   79SLPC   H7Y 7316   1.852   7.242   5.635 -0.5691  0.3739 -1.2141
   79SLPC   C38 7317   1.773   7.131   5.470 -0.0633 -0.2071  0.2630
   79SLPC   H8X 7318   1.841   7.174   5.393 -1.1208 -0.6217 -0.9564
   79SLPC   H8Y 7319   1.674   7.181   5.464  0.0462  0.2125  1.6089
   79SLPC   C39 7320   1.760   6.996   5.413 -0.8388  0.3778 -0.1226
   79SLPC   H9X 7321   1.691   6.936   5.476 -0.2106  0.4796  0.6784
   79SLPC   H9Y 7322   1.856   6.941   5.407 -2.0845 -1.8527 -0.5571
   79SLPC  C310 7323   1.693   6.993   5.269 -0.1399  0.3330  0.2332
   79SLPC  H10X 7324   1.642   6.896   5.250 -0.3255 -0.1972  2.9301
   79SLPC  H10Y 7325   1.767   7.016   5.190  0.4122 -3.7260 -0.6476
   79SLPC  C311 7326   1.577   7.097   5.256  1.6684 -0.5450 -0.3150
   79SLPC  H11X 7327   1.618   7.200   5.263  1.5935 -0.4928 -0.6482
   79SLPC  H11Y 7328   1.510   7.086   5.344  3.1910  0.8359  1.0849
   79SLPC  C312 7329   1.489   7.083   5.129 -0.2926  0.1139 -0.2590
   79SLPC  H12X 7330   1.390   7.131   5.140 -1.4507 -2.2590  0.5216
   79SLPC  H12Y 7331   1.474   6.979   5.092  2.4307  0.0627 -1.4579
   79SLPC  C313 7332   1.569   7.151   5.017 -0.4813 -0.6486  0.4803
   79SLPC  H13X 7333   1.663   7.095   4.998 -0.4739 -0.4539 -0.0916
   79SLPC  H13Y 7334   1.583   7.259   5.038 -1.2885 -0.8504  2.1372
   79SLPC  C314 7335   1.500   7.151   4.879  0.1803  0.2882  0.3280
   79SLPC  H14X 7336   1.391   7.176   4.879  0.2740  0.7303 -0.3872
   79SLPC  H14Y 7337   1.516   7.052   4.832  1.9829  0.9615 -0.5620
   79SLPC  C315 7338   1.565   7.245   4.773 -0.2488  0.4662  0.3766
   79SLPC  H15X 7339   1.513   7.213   4.679 -1.3315  1.7390  0.5168
   79SLPC  H15Y 7340   1.673   7.233   4.751 -0.6267 -0.1854 -1.3119
   79SLPC  C316 7341   1.533   7.393   4.800 -0.1612  0.1851  0.3565
   79SLPC  H16X 7342   1.595   7.432   4.883  2.3337 -0.5528 -1.0659
   79SLPC  H16Y 7343   1.424   7.405   4.821 -0.1777  0.0311  0.3599
   79SLPC  C317 7344   1.561   7.485   4.683  0.9290 -0.2177  0.7553
   79SLPC  H17X 7345   1.539   7.590   4.710 -1.5016 -0.5081  0.1772
   79SLPC  H17Y 7346   1.484   7.454   4.609 -0.2230 -0.0057  1.8358
   79SLPC  C318 7347   1.710   7.475   4.623 -0.1687  0.3487  0.0233
   79SLPC  H18X 7348   1.792   7.475   4.698  3.3183  0.4356 -3.4395
   79SLPC  H18Y 7349   1.720   7.563   4.556 -0.0894 -0.0268 -0.4669
   79SLPC  H18Z 7350   1.734   7.388   4.558  4.0342  1.6201 -0.4288
   80SLPC     N 7351   0.150   3.716   6.960 -0.1863 -0.4865  0.1459
   80SLPC   C13 7352   0.301   3.715   6.942  0.9418 -0.6781 -0.1598
   80SLPC  H13A 7353   0.341   3.617   6.963 -2.4971 -1.7832  2.0455
   80SLPC  H13B 7354   0.332   3.744   6.842  0.1570 -2.1599 -0.8704
   80SLPC  H13C 7355   0.349   3.789   7.003 -0.3391  0.0659 -0.0053
   80SLPC   C14 7356   0.103   3.861   6.940  0.4175 -0.2811  0.4500
   80SLPC  H14A 7357   0.140   3.911   6.851 -0.3647  1.7693  1.2228
   80SLPC  H14B 7358  -0.004   3.857   6.933  0.4904 -1.4883 -0.3693
   80SLPC  H14C 7359   0.135   3.922   7.023  0.4832 -0.4085  0.5174
   80SLPC   C15 7360   0.113   3.677   7.099  0.3024 -0.4066  0.9211
   80SLPC  H15A 7361   0.161   3.587   7.133 -0.1251 -0.1007  2.3932
   80SLPC  H15B 7362   0.133   3.751   7.175  0.8305 -0.5044  0.8804
   80SLPC  H15C 7363   0.006   3.663   7.096  0.5074 -2.0199  0.4792
   80SLPC   C12 7364   0.092   3.621   6.862  0.3521 -0.4150  0.3438
   80SLPC  H12A 7365   0.115   3.517   6.876  1.3984 -0.1235  0.9236
   80SLPC  H12B 7366   0.133   3.654   6.767 -1.5610  0.0688 -0.3681
   80SLPC   C11 7367  -0.061   3.635   6.851  0.3638 -0.4072 -0.1178
   80SLPC  H11A 7368  -0.099   3.559   6.779  1.2669 -1.8925  0.9294
   80SLPC  H11B 7369  -0.099   3.734   6.818  3.0473  1.5895  2.2553
   80SLPC     P 7370  -0.132   3.447   7.032 -0.0457 -0.4833 -0.2359
   80SLPC   O13 7371  -0.028   3.366   6.969  0.0902 -0.2458 -0.0135
   80SLPC   O14 7372  -0.121   3.464   7.180 -0.0935  0.0335  0.0523
   80SLPC   O12 7373  -0.124   3.590   6.969  0.1943 -0.2155  0.2982
   80SLPC   O11 7374  -0.279   3.396   6.991 -0.0433 -0.3231  0.4780
   80SLPC    C1 7375  -0.348   3.446   6.874 -0.5983 -0.3263  0.7695
   80SLPC    HA 7376  -0.458   3.443   6.892 -0.7780 -2.0307 -0.2745
   80SLPC    HB 7377  -0.322   3.551   6.850  0.4480 -0.8583 -0.5650
   80SLPC    C2 7378  -0.307   3.363   6.748 -0.1361  0.0175  0.1245
   80SLPC    HS 7379  -0.197   3.371   6.732  0.0941 -1.5888  0.7283
   80SLPC   O21 7380  -0.387   3.400   6.636 -0.1117  0.4040 -0.1610
   80SLPC   C21 7381  -0.323   3.422   6.523  0.0445  0.4879 -0.0742
   80SLPC   O22 7382  -0.204   3.436   6.513 -0.0114  0.5644 -0.5696
   80SLPC   C22 7383  -0.415   3.422   6.399  0.5230 -0.5332  0.0684
   80SLPC   H2R 7384  -0.459   3.320   6.410 -0.4380 -0.3450 -1.7393
   80SLPC   H2S 7385  -0.490   3.502   6.418 -1.3910 -2.3933  0.7828
   80SLPC    C3 7386  -0.314   3.214   6.779 -0.3560  0.5239 -1.0627
   80SLPC    HX 7387  -0.405   3.210   6.842  0.4308  1.4100  0.1454
   80SLPC    HY 7388  -0.222   3.188   6.836  0.4677  3.8632 -0.6468
   80SLPC   O31 7389  -0.328   3.137   6.656 -0.3567 -0.0766 -0.0623
   80SLPC   C31 7390  -0.348   3.010   6.672  0.6520 -0.2497  0.3494
   80SLPC   O32 7391  -0.373   2.956   6.779  1.1436  0.2182  0.0201
   80SLPC   C32 7392  -0.333   2.939   6.540  0.6882  0.4428  0.3786
   80SLPC   H2X 7393  -0.382   2.842   6.560  1.9140 -0.0588  1.0523
   80SLPC   H2Y 7394  -0.225   2.915   6.530  0.8271  2.0102 -3.7840
   80SLPC   C23 7395  -0.346   3.445   6.260 -0.0948  0.0054 -0.6908
   80SLPC   H3R 7396  -0.258   3.378   6.250  0.2809  0.3903 -0.0163
   80SLPC   H3S 7397  -0.305   3.547   6.253  1.4977 -0.5447  0.1881
   80SLPC   C24 7398  -0.442   3.428   6.138 -0.9355  0.1901 -0.5500
   80SLPC   H4R 7399  -0.502   3.335   6.137 -3.0051  1.4487 -3.1494
   80SLPC   H4S 7400  -0.381   3.429   6.045 -0.9784 -2.8986 -0.7298
   80SLPC   C25 7401  -0.547   3.547   6.127 -0.2874  0.2594 -0.1262
   80SLPC   H5R 7402  -0.512   3.652   6.131 -0.4346  0.3164 -0.2886
   80SLPC   H5S 7403  -0.617   3.542   6.213 -0.1981  0.8564 -0.0142
   80SLPC   C26 7404  -0.621   3.536   5.991  0.8181  0.0122 -0.5900
   80SLPC   H6R 7405  -0.694   3.453   5.987  0.2912  0.2098  2.5968
   80SLPC   H6S 7406  -0.538   3.531   5.917  1.3872  1.5491 -0.0981
   80SLPC   C27 7407  -0.704   3.666   5.966  0.0992 -0.5486  0.6992
   80SLPC   H7R 7408  -0.630   3.749   5.973 -0.3070 -0.2849  2.1675
   80SLPC   H7S 7409  -0.788   3.685   6.037  0.6270 -1.9531  1.7439
   80SLPC   C28 7410  -0.768   3.687   5.827 -0.6064  0.4455 -0.1465
   80SLPC   H8R 7411  -0.838   3.601   5.817  0.6939 -0.7005  0.2363
   80SLPC   H8S 7412  -0.683   3.678   5.755  0.3450 -1.2885  1.1044
   80SLPC   C29 7413  -0.833   3.826   5.826  0.5672  0.4773 -0.5001
   80SLPC   H9R 7414  -0.909   3.843   5.904  1.5160  0.6220  0.4130
   80SLPC  C210 7415  -0.810   3.925   5.738  0.3405 -0.4629  0.9640
   80SLPC  H10R 7416  -0.850   4.025   5.758  4.6058  1.3325  1.6693
   80SLPC  C211 7417  -0.725   3.920   5.612  0.4716 -0.6451  0.2154
   80SLPC  H11R 7418  -0.675   3.822   5.599  0.7723 -0.2256 -2.3968
   80SLPC  H11S 7419  -0.649   4.000   5.619  0.1884 -0.0262 -2.6504
   80SLPC  C212 7420  -0.808   3.937   5.485  0.4287  0.2676 -0.1751
   80SLPC  H12R 7421  -0.896   3.873   5.474 -1.7128  2.9626  0.1124
   80SLPC  C213 7422  -0.787   4.024   5.383 -0.0315  0.7099 -0.1009
   80SLPC  H13R 7423  -0.857   4.025   5.298 -1.3929  2.5993  0.9797
   80SLPC  C214 7424  -0.676   4.125   5.376 -0.3752  1.3096  0.0135
   80SLPC  H14R 7425  -0.642   4.108   5.272  0.6105  0.7832  0.4048
   80SLPC  H14S 7426  -0.590   4.095   5.440 -2.2385 -0.2746  1.9036
   80SLPC  C215 7427  -0.711   4.267   5.415  0.4904 -0.6533 -0.0373
   80SLPC  H15R 7428  -0.698   4.283   5.524  0.2178 -0.6534 -0.0045
   80SLPC  H15S 7429  -0.820   4.278   5.398  0.3162 -0.3370  1.1790
   80SLPC  C216 7430  -0.640   4.381   5.329 -0.9611  0.7540 -0.4907
   80SLPC  H16R 7431  -0.646   4.480   5.380  1.1288  0.5809  0.1710
   80SLPC  H16S 7432  -0.699   4.392   5.236  0.1249 -1.0122 -1.4410
   80SLPC  C217 7433  -0.492   4.352   5.290 -0.3596 -0.2039  0.6406
   80SLPC  H17R 7434  -0.494   4.270   5.215  0.7467  0.6601 -0.3689
   80SLPC  H17S 7435  -0.430   4.340   5.381 -0.5037 -2.1430  0.5343
   80SLPC  C218 7436  -0.443   4.476   5.206  0.4633  0.5833 -0.3770
   80SLPC  H18R 7437  -0.467   4.560   5.275 -0.6408  0.8014 -0.9887
   80SLPC  H18S 7438  -0.505   4.490   5.115  1.4463 -0.2592 -1.2063
   80SLPC  H18T 7439  -0.338   4.463   5.173  1.3975 -0.2956  2.6866
   80SLPC   C33 7440  -0.384   3.007   6.410  0.4524 -0.3861 -0.6348
   80SLPC   H3X 7441  -0.345   3.111   6.408 -2.4828  0.8799  1.1270
   80SLPC   H3Y 7442  -0.495   3.013   6.402  0.4176 -0.7387 -0.4203
   80SLPC   C34 7443  -0.349   2.937   6.274  0.3047  0.7869  1.1100
   80SLPC   H4X 7444  -0.404   2.840   6.270  1.6167 -0.1399  3.5910
   80SLPC   H4Y 7445  -0.239   2.923   6.269  0.0117 -1.6595 -1.6551
   80SLPC   C35 7446  -0.388   3.031   6.158 -0.1133  0.1183 -0.0089
   80SLPC   H5X 7447  -0.357   3.136   6.173 -1.7286  0.2570  3.0251
   80SLPC   H5Y 7448  -0.498   3.041   6.154 -0.2729 -1.1631  0.5194
   80SLPC   C36 7449  -0.345   2.957   6.032 -0.4180  0.3672 -0.4740
   80SLPC   H6X 7450  -0.374   2.850   6.027 -0.2305  0.3108 -0.3632
   80SLPC   H6Y 7451  -0.234   2.956   6.031 -0.3791 -0.4819  1.2269
   80SLPC   C37 7452  -0.386   3.034   5.907 -0.4188  0.3048  0.2369
   80SLPC   H7X 7453  -0.340   3.135   5.916  0.5442 -0.2199  1.6811
   80SLPC   H7Y 7454  -0.497   3.034   5.900 -0.5177  0.5169  1.4634
   80SLPC   C38 7455  -0.334   2.986   5.768 -0.3904 -0.4728  0.1178
   80SLPC   H8X 7456  -0.368   2.881   5.755 -1.2511 -0.0760 -0.9878
   80SLPC   H8Y 7457  -0.223   2.996   5.774 -0.4695 -0.3133  2.8205
   80SLPC   C39 7458  -0.403   3.056   5.650  0.1723  0.8245 -0.2538
   80SLPC   H9X 7459  -0.503   3.010   5.638  0.0212  1.3711 -1.1520
   80SLPC   H9Y 7460  -0.337   3.034   5.564  0.9995 -1.0929  0.7973
   80SLPC  C310 7461  -0.438   3.205   5.655  0.3032 -0.4436  0.2455
   80SLPC  H10X 7462  -0.347   3.265   5.680  0.0436 -0.7133  1.9476
   80SLPC  H10Y 7463  -0.520   3.214   5.729  1.3410  0.3568  1.3284
   80SLPC  C311 7464  -0.499   3.255   5.520 -0.3292  0.4599 -0.1899
   80SLPC  H11X 7465  -0.595   3.205   5.495 -0.8367  0.8099  1.0004
   80SLPC  H11Y 7466  -0.429   3.250   5.434 -1.2834 -1.0357 -0.9276
   80SLPC  C312 7467  -0.536   3.404   5.537  0.1962  0.4760 -0.0196
   80SLPC  H12X 7468  -0.447   3.467   5.560 -0.1943  0.4849  1.5927
   80SLPC  H12Y 7469  -0.590   3.405   5.634 -0.9793 -1.8337 -0.5946
   80SLPC  C313 7470  -0.624   3.455   5.425  0.4177 -0.1851  0.1230
   80SLPC  H13X 7471  -0.657   3.553   5.465  4.8883  1.4481  0.4288
   80SLPC  H13Y 7472  -0.707   3.383   5.418  1.1205 -0.8451 -2.5029
   80SLPC  C314 7473  -0.566   3.488   5.288  0.1479 -0.5117 -0.0817
   80SLPC  H14X 7474  -0.535   3.398   5.232 -3.0049 -1.7351 -0.0818
   80SLPC  H14Y 7475  -0.486   3.564   5.301  0.6988 -1.1064  0.0537
   80SLPC  C315 7476  -0.675   3.544   5.199  0.3929  0.1373  0.2158
   80SLPC  H15X 7477  -0.722   3.636   5.240 -1.6884  0.0494 -1.7930
   80SLPC  H15Y 7478  -0.757   3.470   5.195 -0.6549  1.2519  0.4709
   80SLPC  C316 7479  -0.625   3.581   5.058  0.2703  0.8965 -0.4645
   80SLPC  H16X 7480  -0.642   3.488   5.000  1.0536  1.0994 -1.0483
   80SLPC  H16Y 7481  -0.516   3.603   5.054  0.9353 -1.9732  0.1516
   80SLPC  C317 7482  -0.707   3.684   4.982  0.2037  0.4145 -0.4472
   80SLPC  H17X 7483  -0.710   3.767   5.056  0.7066  0.8682 -0.9261
   80SLPC  H17Y 7484  -0.810   3.646   4.966  0.0835  0.4397  0.2454
   80SLPC  C318 7485  -0.657   3.725   4.844 -0.0805 -0.4243  0.4214
   80SLPC  H18X 7486  -0.683   3.642   4.775 -1.1175 -2.3698  2.9580
   80SLPC  H18Y 7487  -0.546   3.729   4.844 -0.0993  0.1554  0.0291
   80SLPC  H18Z 7488  -0.691   3.829   4.827 -0.8503 -0.5273  1.2197
   81SLPC     N 7489   0.769   2.723   2.488  0.0238 -0.1272  0.7121
   81SLPC   C13 7490   0.742   2.634   2.591  0.2911  0.3024  0.4306
   81SLPC  H13A 7491   0.788   2.660   2.686 -0.7389 -3.7177  2.2532
   81SLPC  H13B 7492   0.637   2.627   2.612  0.4795 -1.8107  0.8890
   81SLPC  H13C 7493   0.766   2.532   2.566 -1.6298  0.0882 -0.7095
   81SLPC   C14 7494   0.746   2.866   2.533  0.2103  0.2285 -0.2369
   81SLPC  H14A 7495   0.806   2.891   2.619  0.3397  0.7208 -0.4710
   81SLPC  H14B 7496   0.780   2.926   2.450 -0.0462  1.1377  0.3063
   81SLPC  H14C 7497   0.641   2.880   2.551  0.0613 -0.0877 -0.8441
   81SLPC   C15 7498   0.686   2.698   2.370  0.0117 -0.0206  0.2115
   81SLPC  H15A 7499   0.725   2.740   2.279  0.5397 -1.2451 -0.1593
   81SLPC  H15B 7500   0.682   2.595   2.338  0.3761  1.0656 -3.8208
   81SLPC  H15C 7501   0.583   2.728   2.388  0.0504 -0.1091  0.6074
   81SLPC   C12 7502   0.917   2.710   2.453 -0.3048  0.2594  0.7432
   81SLPC  H12A 7503   0.979   2.764   2.524  0.2614 -0.5137  0.8447
   81SLPC  H12B 7504   0.926   2.751   2.353  1.0003 -3.0606 -0.6265
   81SLPC   C11 7505   0.973   2.565   2.437  0.5387  0.4330 -0.1411
   81SLPC  H11A 7506   1.072   2.588   2.392  0.7607  0.1892  0.2151
   81SLPC  H11B 7507   0.908   2.515   2.361 -0.3412  1.1427  0.1284
   81SLPC     P 7508   1.099   2.513   2.654 -0.0311  0.5086 -0.1489
   81SLPC   O13 7509   1.153   2.387   2.696 -0.8528 -0.3793 -0.2024
   81SLPC   O14 7510   1.196   2.614   2.599  0.5111 -0.1146  0.4033
   81SLPC   O12 7511   0.979   2.484   2.557 -0.6923  0.2796  0.0620
   81SLPC   O11 7512   1.030   2.583   2.776  0.0236 -0.2349 -0.8871
   81SLPC    C1 7513   0.932   2.512   2.853 -0.0268 -0.7789 -0.0879
   81SLPC    HA 7514   0.836   2.569   2.851  0.1268 -0.4949  0.4463
   81SLPC    HB 7515   0.907   2.409   2.820  1.5589 -0.4379 -2.6605
   81SLPC    C2 7516   0.982   2.514   3.010 -0.0595  0.4907 -0.3047
   81SLPC    HS 7517   0.909   2.467   3.079 -1.4182  2.0605 -0.6052
   81SLPC   O21 7518   1.035   2.640   3.062  0.3016  0.1244 -0.0145
   81SLPC   C21 7519   0.939   2.709   3.115  1.1454  0.3997 -0.3452
   81SLPC   O22 7520   0.825   2.674   3.136 -0.4508 -0.3009  0.4073
   81SLPC   C22 7521   0.978   2.852   3.138  0.0689  0.3689 -0.0019
   81SLPC   H2R 7522   1.031   2.880   3.044  3.1188 -2.4518  0.6769
   81SLPC   H2S 7523   0.888   2.916   3.152  0.4097  1.0964 -1.0290
   81SLPC    C3 7524   1.101   2.409   3.013  0.1063  0.7348  0.0836
   81SLPC    HX 7525   1.188   2.456   2.963  0.5673 -0.3029 -0.1131
   81SLPC    HY 7526   1.070   2.316   2.961  1.3173 -1.6387  3.2197
   81SLPC   O31 7527   1.149   2.376   3.148 -0.0466  0.1096  0.1499
   81SLPC   C31 7528   1.068   2.291   3.215  1.0974 -0.1294  0.5434
   81SLPC   O32 7529   0.966   2.247   3.163  0.2739  0.0023 -0.7103
   81SLPC   C32 7530   1.102   2.274   3.367 -0.0545 -0.2929 -0.2599
   81SLPC   H2X 7531   1.203   2.227   3.369  0.6616  1.1828  0.5233
   81SLPC   H2Y 7532   1.021   2.203   3.394 -1.0753  0.5461 -1.0522
   81SLPC   C23 7533   1.087   2.862   3.247 -0.3265 -0.1539 -0.4065
   81SLPC   H3R 7534   1.155   2.945   3.217  0.8781 -1.1401 -0.4929
   81SLPC   H3S 7535   1.155   2.774   3.245  0.2848  0.2591 -3.8341
   81SLPC   C24 7536   1.032   2.889   3.385 -0.2657 -0.2896 -0.1944
   81SLPC   H4R 7537   0.964   2.806   3.414  1.4426 -1.1180  1.7939
   81SLPC   H4S 7538   0.970   2.981   3.389 -2.9168 -1.9813  1.3940
   81SLPC   C25 7539   1.146   2.897   3.484  0.4032 -0.2307 -0.5603
   81SLPC   H5R 7540   1.202   2.991   3.461  0.2455  0.1591  0.5935
   81SLPC   H5S 7541   1.224   2.822   3.459  1.5752  2.1187 -5.3303
   81SLPC   C26 7542   1.113   2.892   3.630 -0.3495  0.4832  0.7503
   81SLPC   H6R 7543   1.088   2.788   3.659 -0.7837  0.3059 -0.1997
   81SLPC   H6S 7544   1.023   2.955   3.648 -1.2924  0.0125 -1.9278
   81SLPC   C27 7545   1.229   2.938   3.713  0.0993  0.0181 -0.3860
   81SLPC   H7R 7546   1.266   3.031   3.663 -1.3249  0.7434 -0.1209
   81SLPC   H7S 7547   1.314   2.866   3.702  0.0054  0.0240 -1.2794
   81SLPC   C28 7548   1.194   2.972   3.861 -0.3252  0.1383  0.5798
   81SLPC   H8R 7549   1.136   3.067   3.867 -0.7819 -0.0502 -0.6289
   81SLPC   H8S 7550   1.291   3.000   3.908 -0.6255  1.1679  0.6159
   81SLPC   C29 7551   1.135   2.862   3.937 -0.0175 -0.7221 -0.7151
   81SLPC   H9R 7552   1.093   2.782   3.874 -0.8273 -0.4064 -0.5958
   81SLPC  C210 7553   1.102   2.870   4.063 -0.0176 -0.0940 -0.6366
   81SLPC  H10R 7554   1.038   2.789   4.101 -0.0237  0.2542  0.1131
   81SLPC  C211 7555   1.142   2.966   4.167 -0.7297 -0.0947  0.2344
   81SLPC  H11R 7556   1.056   3.009   4.223 -0.1371  0.0517  1.0499
   81SLPC  H11S 7557   1.201   3.053   4.131  0.3876 -0.6931  0.5978
   81SLPC  C212 7558   1.241   2.898   4.258  0.6933 -0.0749  0.0638
   81SLPC  H12R 7559   1.341   2.874   4.219  0.4253 -1.7285  0.3238
   81SLPC  C213 7560   1.221   2.860   4.388 -0.3971 -0.0509  0.1363
   81SLPC  H13R 7561   1.292   2.800   4.446 -1.6952  0.9460  2.9530
   81SLPC  C214 7562   1.092   2.868   4.473  0.1138 -0.1410 -0.0869
   81SLPC  H14R 7563   1.089   2.786   4.548 -0.4118  1.2572  1.4590
   81SLPC  H14S 7564   0.999   2.871   4.412 -2.8333  1.6395  4.0815
   81SLPC  C215 7565   1.112   2.990   4.566 -0.4720  0.4619 -0.2422
   81SLPC  H15R 7566   1.212   2.981   4.614 -0.6576 -0.5879 -0.0411
   81SLPC  H15S 7567   1.034   2.999   4.645 -1.2592  1.7830 -1.1197
   81SLPC  C216 7568   1.090   3.126   4.499 -0.5510  0.3591  0.5143
   81SLPC  H16R 7569   1.022   3.108   4.413  1.7212 -1.0555 -1.0937
   81SLPC  H16S 7570   1.189   3.158   4.460 -1.2467  2.2084  0.1806
   81SLPC  C217 7571   1.050   3.244   4.590 -0.4497  0.1716  0.0575
   81SLPC  H17R 7572   0.940   3.248   4.604 -0.2786 -1.5616  2.5944
   81SLPC  H17S 7573   1.086   3.330   4.529 -0.7280 -0.0342 -0.4020
   81SLPC  C218 7574   1.114   3.246   4.722  0.9655 -0.4889  0.2691
   81SLPC  H18R 7575   1.225   3.247   4.712  1.3896  1.6476  3.6691
   81SLPC  H18S 7576   1.074   3.164   4.785 -0.2501  1.4216  2.1038
   81SLPC  H18T 7577   1.096   3.341   4.776  2.2872 -0.0674  0.0266
   81SLPC   C33 7578   1.086   2.400   3.457  0.4460  0.2810 -0.3241
   81SLPC   H3X 7579   1.151   2.488   3.437 -1.3576  1.3357 -1.8399
   81SLPC   H3Y 7580   1.107   2.359   3.559 -0.1230  1.8608  0.4604
   81SLPC   C34 7581   0.946   2.471   3.443  0.5076 -0.4012 -0.0670
   81SLPC   H4X 7582   0.862   2.399   3.451 -1.4045  1.5462 -1.2249
   81SLPC   H4Y 7583   0.939   2.518   3.343  0.8506  1.3744  0.6941
   81SLPC   C35 7584   0.933   2.562   3.567 -0.5766  0.3598 -0.1958
   81SLPC   H5X 7585   1.013   2.638   3.574 -0.3849  0.4534 -2.7188
   81SLPC   H5Y 7586   0.954   2.489   3.648  1.5076  0.8734 -0.2336
   81SLPC   C36 7587   0.790   2.618   3.582  0.1540  0.4976 -0.0517
   81SLPC   H6X 7588   0.729   2.525   3.588 -0.1892  0.4433 -2.9595
   81SLPC   H6Y 7589   0.767   2.672   3.488  2.5558  0.1249 -0.9063
   81SLPC   C37 7590   0.778   2.707   3.709  1.4023  0.4267  0.0091
   81SLPC   H7X 7591   0.682   2.761   3.707  0.7085 -0.7400  0.8366
   81SLPC   H7Y 7592   0.859   2.783   3.694  2.4145 -0.4214  0.9972
   81SLPC   C38 7593   0.823   2.624   3.831 -0.4997  0.4549 -0.1856
   81SLPC   H8X 7594   0.932   2.603   3.823 -0.8736 -1.2083 -1.8320
   81SLPC   H8Y 7595   0.771   2.527   3.813 -2.4199  1.6293 -1.4314
   81SLPC   C39 7596   0.778   2.679   3.958  0.4372 -0.1136  0.0985
   81SLPC   H9X 7597   0.668   2.695   3.960  0.2285 -1.5278  1.5846
   81SLPC   H9Y 7598   0.827   2.777   3.976 -1.6067  1.1231 -0.6387
   81SLPC  C310 7599   0.810   2.595   4.079 -0.2793  0.5633  0.5454
   81SLPC  H10X 7600   0.912   2.557   4.058 -0.6319  0.6411 -1.5064
   81SLPC  H10Y 7601   0.751   2.500   4.079 -0.4314  0.6407 -0.4744
   81SLPC  C311 7602   0.798   2.664   4.212 -0.1210  0.8058 -0.8159
   81SLPC  H11X 7603   0.839   2.767   4.214  0.2330  0.6679  1.2001
   81SLPC  H11Y 7604   0.850   2.605   4.290 -0.7372  1.4974  0.1476
   81SLPC  C312 7605   0.655   2.675   4.255  0.0397 -0.2453 -0.3574
   81SLPC  H12X 7606   0.625   2.586   4.314  0.8821 -0.4786 -0.2629
   81SLPC  H12Y 7607   0.582   2.680   4.172  0.8099  1.8470 -0.9651
   81SLPC  C313 7608   0.639   2.798   4.340  0.1499 -0.5423 -0.7548
   81SLPC  H13X 7609   0.531   2.808   4.365  1.1172  0.8073  3.8799
   81SLPC  H13Y 7610   0.681   2.895   4.307 -1.9632  0.8899  0.5553
   81SLPC  C314 7611   0.707   2.775   4.482 -0.8724  0.1902 -0.5470
   81SLPC  H14X 7612   0.714   2.869   4.541 -1.6339 -0.2065  0.1965
   81SLPC  H14Y 7613   0.812   2.747   4.458 -0.0468  1.8271  0.9291
   81SLPC  C315 7614   0.628   2.674   4.573  0.0133  0.2878  0.9116
   81SLPC  H15X 7615   0.617   2.577   4.520  0.6614  0.9633 -0.5168
   81SLPC  H15Y 7616   0.522   2.706   4.586 -0.0938  0.7943 -0.9395
   81SLPC  C316 7617   0.689   2.650   4.711  0.3987  0.0978 -0.3178
   81SLPC  H16X 7618   0.712   2.744   4.765  0.8313 -0.5034  0.5766
   81SLPC  H16Y 7619   0.790   2.604   4.699  0.3340  0.1530 -1.1357
   81SLPC  C317 7620   0.609   2.559   4.813 -0.9209 -0.6517 -0.6544
   81SLPC  H17X 7621   0.595   2.455   4.778 -2.0695 -0.6684 -0.1801
   81SLPC  H17Y 7622   0.515   2.607   4.849 -0.5582 -0.3714 -0.0544
   81SLPC  C318 7623   0.694   2.559   4.943 -0.4451  0.1948 -0.3439
   81SLPC  H18X 7624   0.716   2.662   4.977  1.2510 -0.8162  1.9424
   81SLPC  H18Y 7625   0.791   2.508   4.925 -0.2262  0.0141  1.1629
   81SLPC  H18Z 7626   0.643   2.507   5.027 -0.2776 -0.1150 -0.4324
   82SLPC     N 7627   5.340   0.778   2.530 -0.1066 -0.0604  0.5152
   82SLPC   C13 7628   5.214   0.834   2.472 -0.2836 -0.2282  0.2497
   82SLPC  H13A 7629   5.197   0.937   2.499 -0.1041 -0.1810  0.1907
   82SLPC  H13B 7630   5.225   0.827   2.365  2.2787 -0.2445  0.4452
   82SLPC  H13C 7631   5.135   0.764   2.495 -0.5573 -0.3545 -1.0366
   82SLPC   C14 7632   5.361   0.641   2.484  0.2075  0.6457 -0.1025
   82SLPC  H14A 7633   5.273   0.581   2.498 -0.6445  1.7642 -0.5304
   82SLPC  H14B 7634   5.387   0.637   2.379  1.7747  0.6460  0.2632
   82SLPC  H14C 7635   5.444   0.591   2.531 -0.8803 -1.1399  0.0208
   82SLPC   C15 7636   5.317   0.773   2.675  0.4337 -0.4073 -0.3124
   82SLPC  H15A 7637   5.407   0.739   2.725 -0.6997 -1.8402  0.8440
   82SLPC  H15B 7638   5.288   0.870   2.712  0.6667 -0.4329 -0.0606
   82SLPC  H15C 7639   5.243   0.699   2.699 -1.0663  1.1206 -0.0950
   82SLPC   C12 7640   5.454   0.868   2.501 -0.0334  0.0789  0.4989
   82SLPC  H12A 7641   5.436   0.962   2.551  0.8409 -0.3362  1.6552
   82SLPC  H12B 7642   5.456   0.886   2.395 -1.7000 -1.0504  0.2400
   82SLPC   C11 7643   5.599   0.818   2.546  0.1821 -0.8014 -0.1579
   82SLPC  H11A 7644   5.671   0.892   2.504  1.3454 -0.9014  1.5601
   82SLPC  H11B 7645   5.625   0.728   2.486 -1.9806 -0.9574 -0.9351
   82SLPC     P 7646   5.631   0.942   2.776  0.7002  0.0820 -0.0975
   82SLPC   O13 7647   5.757   1.015   2.749 -0.1485 -0.7058  0.5132
   82SLPC   O14 7648   5.497   1.015   2.760 -0.2909  0.5010  0.0360
   82SLPC   O12 7649   5.620   0.805   2.690 -0.5908 -0.3623 -0.2132
   82SLPC   O11 7650   5.639   0.882   2.921  0.1693 -0.4595  0.1471
   82SLPC    C1 7651   5.679   0.744   2.947 -0.5034  0.4951  0.8550
   82SLPC    HA 7652   5.763   0.715   2.880 -1.1015 -1.3105  0.8339
   82SLPC    HB 7653   5.718   0.722   3.048 -1.8160 -0.9300  1.0900
   82SLPC    C2 7654   5.564   0.640   2.918  0.7765 -0.0685  0.2205
   82SLPC    HS 7655   5.516   0.668   2.821  0.7938 -0.5515  0.0686
   82SLPC   O21 7656   5.482   0.653   3.027  0.0319 -0.4520 -0.1211
   82SLPC   C21 7657   5.358   0.609   3.013  0.9175 -0.1401  1.0390
   82SLPC   O22 7658   5.312   0.570   2.908  0.2355  0.6757  0.2649
   82SLPC   C22 7659   5.275   0.627   3.134 -0.4482  0.5062 -0.2522
   82SLPC   H2R 7660   5.193   0.693   3.100  1.3254  1.9119 -2.0431
   82SLPC   H2S 7661   5.236   0.526   3.155 -0.7334  0.3306 -1.5579
   82SLPC    C3 7662   5.605   0.492   2.897  0.4284 -0.0447  0.5106
   82SLPC    HX 7663   5.701   0.486   2.842  0.8491  1.9580  0.9614
   82SLPC    HY 7664   5.522   0.444   2.841  0.4207 -0.8379  1.1847
   82SLPC   O31 7665   5.642   0.416   3.016 -0.0293  0.1443  0.3449
   82SLPC   C31 7666   5.562   0.316   3.043 -0.0690  0.0153  0.4794
   82SLPC   O32 7667   5.451   0.296   2.996  0.9186  0.4239 -0.0193
   82SLPC   C32 7668   5.633   0.218   3.144  0.3692  0.5347  0.2021
   82SLPC   H2X 7669   5.575   0.255   3.231 -0.7574  0.8318 -0.6650
   82SLPC   H2Y 7670   5.741   0.245   3.148  0.6988 -0.4039 -1.4178
   82SLPC   C23 7671   5.342   0.706   3.253  0.0633  0.0034 -0.2907
   82SLPC   H3R 7672   5.262   0.736   3.323 -1.1092  1.2840 -2.1114
   82SLPC   H3S 7673   5.379   0.807   3.226 -1.3910  0.9140  0.9743
   82SLPC   C24 7674   5.453   0.634   3.339  0.4847 -0.6489  0.7946
   82SLPC   H4R 7675   5.496   0.704   3.414  1.5910  0.4166 -0.7918
   82SLPC   H4S 7676   5.535   0.613   3.267 -0.6230 -0.4983 -0.5407
   82SLPC   C25 7677   5.421   0.501   3.400  0.1380 -0.7860  0.2400
   82SLPC   H5R 7678   5.410   0.418   3.327 -1.0765 -0.6199  0.2104
   82SLPC   H5S 7679   5.326   0.503   3.459  0.2114 -2.6837  0.4706
   82SLPC   C26 7680   5.533   0.454   3.488 -0.5002  0.3116  1.5949
   82SLPC   H6R 7681   5.541   0.509   3.584 -0.3777  1.8231  0.7547
   82SLPC   H6S 7682   5.634   0.463   3.442 -0.2444 -0.5109  1.9891
   82SLPC   C27 7683   5.510   0.310   3.531 -0.0956 -0.3173  0.0117
   82SLPC   H7R 7684   5.520   0.244   3.442  0.7241  0.4010 -0.4514
   82SLPC   H7S 7685   5.408   0.318   3.574  0.1449  2.0299  0.3039
   82SLPC   C28 7686   5.614   0.266   3.633  0.4973 -0.3435 -0.1176
   82SLPC   H8R 7687   5.715   0.290   3.592 -0.2587  2.1662 -0.6517
   82SLPC   H8S 7688   5.617   0.154   3.634 -0.5683 -0.4324 -2.4100
   82SLPC   C29 7689   5.596   0.318   3.772  0.4633  0.2903 -0.1818
   82SLPC   H9R 7690   5.507   0.278   3.822  0.9732 -1.2062 -0.4145
   82SLPC  C210 7691   5.671   0.405   3.835  0.8393 -0.6873 -0.1882
   82SLPC  H10R 7692   5.641   0.463   3.924  0.9260 -0.6456 -0.1863
   82SLPC  C211 7693   5.792   0.453   3.769 -0.3659 -0.1466 -0.2350
   82SLPC  H11R 7694   5.779   0.480   3.662 -0.7965 -0.5532 -0.2896
   82SLPC  H11S 7695   5.865   0.369   3.773 -1.1832 -0.8512  0.3554
   82SLPC  C212 7696   5.858   0.577   3.830  0.3090  0.0820 -0.3977
   82SLPC  H12R 7697   5.917   0.552   3.919  1.6680 -0.2100 -1.3343
   82SLPC  C213 7698   5.862   0.703   3.784 -0.3427  0.8691  0.3581
   82SLPC  H13R 7699   5.913   0.770   3.856  1.5384  0.3408 -0.4118
   82SLPC  C214 7700   5.793   0.768   3.664  0.1281 -0.0319 -0.4986
   82SLPC  H14R 7701   5.733   0.859   3.685 -1.8630 -1.4597  0.3284
   82SLPC  H14S 7702   5.711   0.708   3.621 -0.9202  1.2000 -0.2690
   82SLPC  C215 7703   5.891   0.780   3.555  0.0798 -0.7706 -0.0271
   82SLPC  H15R 7704   5.929   0.678   3.533 -2.6068 -2.2524  1.6808
   82SLPC  H15S 7705   5.983   0.836   3.584 -1.1186  0.7530  0.9950
   82SLPC  C216 7706   5.831   0.841   3.423  0.2781  0.6657 -0.7226
   82SLPC  H16R 7707   5.767   0.929   3.445 -1.4879 -0.2610 -1.9282
   82SLPC  H16S 7708   5.760   0.764   3.387  0.3421  0.5471 -0.5950
   82SLPC  C217 7709   5.941   0.869   3.319 -0.7447 -0.2990  0.4190
   82SLPC  H17R 7710   5.998   0.777   3.294 -1.5294 -0.7577  0.2710
   82SLPC  H17S 7711   6.010   0.937   3.373 -1.1331  0.7269 -0.3467
   82SLPC  C218 7712   5.882   0.935   3.194  0.5255  0.0945  0.6954
   82SLPC  H18R 7713   5.964   0.956   3.123 -0.9975  1.4344 -0.7484
   82SLPC  H18S 7714   5.829   1.030   3.218 -0.3332  0.2531 -1.6038
   82SLPC  H18T 7715   5.808   0.877   3.135  0.4304  2.8300 -2.1220
   82SLPC   C33 7716   5.608   0.067   3.121 -0.1821  0.2651 -0.7965
   82SLPC   H3X 7717   5.660   0.035   3.029 -0.1005  1.2052 -1.0889
   82SLPC   H3Y 7718   5.498   0.051   3.120 -0.4145  1.3288  1.4025
   82SLPC   C34 7719   5.662  -0.030   3.231  1.2212 -0.5572 -0.3612
   82SLPC   H4X 7720   5.612  -0.128   3.213  1.4865 -0.9717  0.9978
   82SLPC   H4Y 7721   5.633   0.005   3.333  0.2181 -1.7560 -0.2013
   82SLPC   C35 7722   5.811  -0.049   3.238  0.1912 -0.1310  0.4417
   82SLPC   H5X 7723   5.861   0.046   3.268  1.1005 -0.6310  0.5633
   82SLPC   H5Y 7724   5.850  -0.074   3.137  0.6030 -2.0432  1.0393
   82SLPC   C36 7725   5.863  -0.161   3.337 -0.2335 -0.3345 -0.3839
   82SLPC   H6X 7726   5.973  -0.153   3.333 -0.0446 -1.6524  0.8906
   82SLPC   H6Y 7727   5.832  -0.263   3.305  1.2932 -0.1074 -2.7668
   82SLPC   C37 7728   5.825  -0.143   3.485  0.0303 -0.2020 -0.6995
   82SLPC   H7X 7729   5.714  -0.145   3.487  0.0338 -0.0876  1.1183
   82SLPC   H7Y 7730   5.841  -0.039   3.523 -1.5911  0.3951 -1.5771
   82SLPC   C38 7731   5.884  -0.241   3.580 -0.6712 -0.8617  0.8669
   82SLPC   H8X 7732   5.994  -0.223   3.580 -0.9983  1.4746  0.9404
   82SLPC   H8Y 7733   5.875  -0.342   3.535  0.1095 -0.1953 -0.8920
   82SLPC   C39 7734   5.836  -0.240   3.730 -0.5004 -0.1750 -0.6338
   82SLPC   H9X 7735   5.725  -0.250   3.731 -0.9925  3.6343  0.9693
   82SLPC   H9Y 7736   5.862  -0.141   3.773 -1.9344  0.8102 -1.9275
   82SLPC  C310 7737   5.904  -0.355   3.810  0.0771 -0.4636  0.1934
   82SLPC  H10X 7738   6.013  -0.362   3.792  0.3835 -1.5850  2.1476
   82SLPC  H10Y 7739   5.863  -0.447   3.762  1.4576 -0.3294 -1.3168
   82SLPC  C311 7740   5.861  -0.357   3.960 -0.0290  0.2634 -0.7943
   82SLPC  H11X 7741   5.912  -0.441   4.012  0.4389  0.6577 -0.6065
   82SLPC  H11Y 7742   5.751  -0.376   3.959 -0.6711  3.4799 -0.4933
   82SLPC  C312 7743   5.889  -0.227   4.038 -0.5149 -0.4505  0.0363
   82SLPC  H12X 7744   5.824  -0.145   4.001 -0.9494 -0.7734  0.0838
   82SLPC  H12Y 7745   5.996  -0.202   4.019 -0.5441 -2.1659 -2.9249
   82SLPC  C313 7746   5.880  -0.254   4.187  1.0664  0.0731 -0.7641
   82SLPC  H13X 7747   5.928  -0.342   4.235 -0.8938 -0.0213  1.1759
   82SLPC  H13Y 7748   5.772  -0.266   4.209  0.9538  0.1082 -1.2848
   82SLPC  C314 7749   5.909  -0.131   4.268 -0.2953  0.5657  0.3137
   82SLPC  H14X 7750   5.875  -0.043   4.210  2.4308  0.0479 -2.3211
   82SLPC  H14Y 7751   6.018  -0.114   4.254 -0.1498 -1.6118 -1.8408
   82SLPC  C315 7752   5.870  -0.140   4.414 -0.2968  0.1087 -0.3352
   82SLPC  H15X 7753   5.938  -0.206   4.471 -1.2322  0.9883  1.9253
   82SLPC  H15Y 7754   5.760  -0.157   4.419  0.0084 -1.8476  0.1988
   82SLPC  C316 7755   5.894  -0.001   4.486  0.7746  0.6517  0.1437
   82SLPC  H16X 7756   5.841   0.081   4.433 -1.0512 -0.8520 -0.5083
   82SLPC  H16Y 7757   5.998   0.031   4.467 -0.0154  2.4366 -1.4618
   82SLPC  C317 7758   5.854  -0.014   4.634 -0.0156  0.2502  0.8128
   82SLPC  H17X 7759   5.915  -0.097   4.675  0.6545 -0.0273 -0.6474
   82SLPC  H17Y 7760   5.749  -0.045   4.649  0.1514  0.3000  2.2086
   82SLPC  C318 7761   5.870   0.110   4.712 -0.3721  0.1630 -0.5656
   82SLPC  H18X 7762   5.845   0.089   4.818 -1.1405 -0.7097 -0.9020
   82SLPC  H18Y 7763   5.793   0.185   4.681 -1.9064 -1.4501 -0.8579
   82SLPC  H18Z 7764   5.972   0.149   4.695 -1.2009  1.9212 -1.8846
   83SLPC     N 7765   1.756   0.492   2.217  0.3342  0.5054 -0.0458
   83SLPC   C13 7766   1.871   0.507   2.313 -0.3994  0.2086  0.3417
   83SLPC  H13A 7767   1.844   0.549   2.408  0.2696 -0.1257  0.6832
   83SLPC  H13B 7768   1.901   0.405   2.331 -0.9257  0.0900  0.5496
   83SLPC  H13C 7769   1.956   0.560   2.274 -1.6959  2.1641  0.0470
   83SLPC   C14 7770   1.806   0.423   2.097 -0.3837  0.3303 -0.6138
   83SLPC  H14A 7771   1.868   0.494   2.044 -0.8964  1.3081  0.0573
   83SLPC  H14B 7772   1.858   0.333   2.127 -0.4265  0.6641  0.5401
   83SLPC  H14C 7773   1.730   0.391   2.028  1.1078  0.7158 -2.5187
   83SLPC   C15 7774   1.686   0.619   2.200 -0.4106 -0.5013  0.4164
   83SLPC  H15A 7775   1.615   0.626   2.118 -0.1645 -1.0801  0.1489
   83SLPC  H15B 7776   1.624   0.636   2.287 -1.4813  3.3405 -0.8813
   83SLPC  H15C 7777   1.753   0.702   2.191  0.3121 -1.0121  1.0014
   83SLPC   C12 7778   1.659   0.389   2.286  0.2027 -0.0553  0.8498
   83SLPC  H12A 7779   1.724   0.303   2.289  0.6670  0.1940 -0.8432
   83SLPC  H12B 7780   1.577   0.360   2.222  1.2028 -2.9450  0.7415
   83SLPC   C11 7781   1.594   0.423   2.425  0.6630 -0.3648  0.0922
   83SLPC  H11A 7782   1.675   0.451   2.496  2.2586 -1.0457 -1.3856
   83SLPC  H11B 7783   1.540   0.331   2.457  0.1878 -0.1987 -0.2198
   83SLPC     P 7784   1.479   0.655   2.502  0.1784  0.0579  0.0887
   83SLPC   O13 7785   1.604   0.735   2.506 -0.0100 -0.3639  0.8593
   83SLPC   O14 7786   1.358   0.725   2.451  0.1651  0.3025  0.2903
   83SLPC   O12 7787   1.500   0.528   2.411 -0.1045  0.3722 -0.4869
   83SLPC   O11 7788   1.445   0.598   2.644  0.5023  0.1543 -0.4998
   83SLPC    C1 7789   1.545   0.567   2.741  0.2605  0.0221  0.3086
   83SLPC    HA 7790   1.512   0.489   2.813 -0.1082  0.4349  0.5903
   83SLPC    HB 7791   1.637   0.523   2.697 -0.1793 -0.6558  0.0483
   83SLPC    C2 7792   1.582   0.687   2.824 -0.1319  0.4710 -0.3638
   83SLPC    HS 7793   1.640   0.750   2.753  3.1407 -0.8620  0.9266
   83SLPC   O21 7794   1.672   0.637   2.924 -0.2132 -0.4053 -0.5080
   83SLPC   C21 7795   1.773   0.726   2.957 -0.5147  0.5039  0.0618
   83SLPC   O22 7796   1.790   0.835   2.898 -0.0847  0.2907  0.3205
   83SLPC   C22 7797   1.863   0.654   3.061  0.3837 -0.0671 -0.3376
   83SLPC   H2R 7798   1.822   0.565   3.113  0.5603  1.2508  2.2070
   83SLPC   H2S 7799   1.950   0.625   2.999  1.0537 -0.1525  0.6231
   83SLPC    C3 7800   1.461   0.770   2.896  0.8201  0.9315  0.0085
   83SLPC    HX 7801   1.393   0.792   2.811  1.5663 -1.5685 -1.3221
   83SLPC    HY 7802   1.497   0.865   2.941  1.7566  0.1426  0.9942
   83SLPC   O31 7803   1.393   0.693   2.998  0.5555  0.4723  0.2999
   83SLPC   C31 7804   1.441   0.699   3.123  0.0353 -0.2502 -0.0439
   83SLPC   O32 7805   1.512   0.794   3.163  0.1416  0.4279 -0.3528
   83SLPC   C32 7806   1.389   0.582   3.200  0.3254 -0.0889  0.0482
   83SLPC   H2X 7807   1.396   0.486   3.145 -0.6206 -0.2122  0.1209
   83SLPC   H2Y 7808   1.281   0.600   3.219  0.2523  1.3754 -1.5357
   83SLPC   C23 7809   1.922   0.745   3.181  0.6473  0.8331  0.1592
   83SLPC   H3R 7810   1.922   0.850   3.144 -0.8358  1.1253  0.9231
   83SLPC   H3S 7811   2.028   0.716   3.201  0.2020  0.8761  2.9348
   83SLPC   C24 7812   1.838   0.746   3.313  0.1047 -0.3078 -0.3579
   83SLPC   H4R 7813   1.841   0.647   3.363  1.1926  0.5381  1.3249
   83SLPC   H4S 7814   1.732   0.775   3.293  0.0022  0.4897  1.1611
   83SLPC   C25 7815   1.886   0.856   3.403 -0.1807  0.7321 -0.6510
   83SLPC   H5R 7816   1.854   0.956   3.366 -3.3396 -0.2533 -0.8700
   83SLPC   H5S 7817   1.997   0.852   3.404 -0.1385 -0.1023 -3.1423
   83SLPC   C26 7818   1.827   0.847   3.548  0.0665  0.4083 -0.1556
   83SLPC   H6R 7819   1.718   0.864   3.546  0.2432  1.7733 -2.7368
   83SLPC   H6S 7820   1.872   0.929   3.607  0.9409 -1.4973  1.9812
   83SLPC   C27 7821   1.867   0.722   3.626  0.5317 -0.4260  0.5122
   83SLPC   H7R 7822   1.978   0.713   3.619  1.0353  2.6241  2.7071
   83SLPC   H7S 7823   1.832   0.630   3.573  2.2886 -0.0651 -1.4082
   83SLPC   C28 7824   1.816   0.728   3.762  0.1896 -0.0285  0.4853
   83SLPC   H8R 7825   1.824   0.626   3.804  0.2263  0.3548  1.4363
   83SLPC   H8S 7826   1.707   0.750   3.758  0.6935  2.6311 -1.7292
   83SLPC   C29 7827   1.899   0.817   3.855  0.0306  0.2064  0.3076
   83SLPC   H9R 7828   2.008   0.813   3.839  0.0353 -0.7981  0.5359
   83SLPC  C210 7829   1.850   0.895   3.949  0.3236 -0.1134  0.1836
   83SLPC  H10R 7830   1.921   0.929   4.026 -1.0154 -1.1420  1.9352
   83SLPC  C211 7831   1.707   0.927   3.987  0.0167  0.4770 -0.7349
   83SLPC  H11R 7832   1.647   0.931   3.893  1.6192  1.3846 -1.7687
   83SLPC  H11S 7833   1.707   1.020   4.048 -1.4602 -1.5029  2.5208
   83SLPC  C212 7834   1.652   0.817   4.085 -0.4579  0.8380 -0.0645
   83SLPC  H12R 7835   1.616   0.723   4.042  2.7902 -0.7590  0.4340
   83SLPC  C213 7836   1.681   0.821   4.218  0.0165 -0.5666 -0.1729
   83SLPC  H13R 7837   1.643   0.748   4.290  1.2615  0.5115  1.6419
   83SLPC  C214 7838   1.736   0.933   4.301 -0.4581 -0.6699  0.3756
   83SLPC  H14R 7839   1.814   0.986   4.242  0.8823 -2.3226  0.6075
   83SLPC  H14S 7840   1.801   0.900   4.385  1.4117  2.2326  0.2282
   83SLPC  C215 7841   1.628   1.036   4.353  0.0942  0.2143 -0.5666
   83SLPC  H15R 7842   1.567   1.079   4.270 -0.1066 -0.8676 -0.9893
   83SLPC  H15S 7843   1.662   1.123   4.413  1.9577 -0.7236 -0.1840
   83SLPC  C216 7844   1.520   0.964   4.442  0.0155 -0.5167 -1.1156
   83SLPC  H16R 7845   1.585   0.929   4.525 -0.3358  1.2400 -0.0433
   83SLPC  H16S 7846   1.468   0.875   4.402 -0.6225 -0.6870  0.0548
   83SLPC  C217 7847   1.412   1.058   4.505  0.0170 -0.4791  0.0567
   83SLPC  H17R 7848   1.323   0.995   4.523  0.6907 -2.2879 -2.3866
   83SLPC  H17S 7849   1.394   1.145   4.439 -0.5787  1.7384  2.9418
   83SLPC  C218 7850   1.448   1.129   4.628 -0.0560 -0.5458  0.0944
   83SLPC  H18R 7851   1.364   1.193   4.663 -1.2412 -0.7488 -2.1545
   83SLPC  H18S 7852   1.542   1.187   4.623  0.4828 -1.1683  2.1518
   83SLPC  H18T 7853   1.464   1.053   4.707  0.0645 -0.0251  0.5777
   83SLPC   C33 7854   1.457   0.560   3.338 -0.4255  0.2326 -0.7803
   83SLPC   H3X 7855   1.565   0.543   3.318 -0.7528 -1.0060 -1.5883
   83SLPC   H3Y 7856   1.420   0.467   3.386  0.2813 -0.5560 -1.7152
   83SLPC   C34 7857   1.429   0.669   3.440 -0.2767 -0.2410 -0.3047
   83SLPC   H4X 7858   1.318   0.673   3.435 -0.2529  0.1007 -0.5517
   83SLPC   H4Y 7859   1.467   0.765   3.400  0.3337 -1.0653 -1.7669
   83SLPC   C35 7860   1.485   0.636   3.583  0.4389 -0.4703  0.3279
   83SLPC   H5X 7861   1.590   0.671   3.582  0.3556 -0.2278 -0.9657
   83SLPC   H5Y 7862   1.475   0.528   3.605 -1.0459 -0.4856 -0.2750
   83SLPC   C36 7863   1.407   0.706   3.699 -0.2416  0.2404 -0.4718
   83SLPC   H6X 7864   1.471   0.714   3.790 -0.4921 -0.9098 -0.1712
   83SLPC   H6Y 7865   1.322   0.637   3.717  0.5796 -0.6803 -0.0149
   83SLPC   C37 7866   1.352   0.850   3.668  0.7487 -0.6080 -0.4590
   83SLPC   H7X 7867   1.281   0.843   3.583 -0.2922 -1.1580  0.4313
   83SLPC   H7Y 7868   1.438   0.916   3.643  1.2963 -1.0217  0.2856
   83SLPC   C38 7869   1.266   0.921   3.780  1.1238  0.0393  0.2994
   83SLPC   H8X 7870   1.183   0.851   3.804 -0.6476  1.9610  0.0373
   83SLPC   H8Y 7871   1.225   1.019   3.748  0.0491  0.7512  3.5150
   83SLPC   C39 7872   1.354   0.943   3.907 -0.0692  0.4657  0.9017
   83SLPC   H9X 7873   1.445   0.994   3.869  0.0246  1.1055  1.9474
   83SLPC   H9Y 7874   1.386   0.846   3.950  3.2759  0.9861 -0.1546
   83SLPC  C310 7875   1.273   1.021   4.008 -0.5274  0.5386  0.2714
   83SLPC  H10X 7876   1.338   1.020   4.099  1.1236 -3.2261 -0.7689
   83SLPC  H10Y 7877   1.176   0.973   4.032  0.6303 -1.5379  1.0430
   83SLPC  C311 7878   1.245   1.172   3.975  0.0077  0.3933  0.2899
   83SLPC  H11X 7879   1.198   1.231   4.056 -0.4955 -0.5379  0.6911
   83SLPC  H11Y 7880   1.173   1.169   3.891 -1.7443 -1.6548  1.7646
   83SLPC  C312 7881   1.374   1.255   3.938 -0.4156  0.4145 -0.0514
   83SLPC  H12X 7882   1.419   1.199   3.853  0.9786  0.1650  0.8235
   83SLPC  H12Y 7883   1.455   1.262   4.014 -0.2348 -0.5502 -0.1442
   83SLPC  C313 7884   1.339   1.399   3.883  0.1504  0.2913 -0.5002
   83SLPC  H13X 7885   1.278   1.460   3.953 -1.7480 -0.2717 -1.5870
   83SLPC  H13Y 7886   1.285   1.378   3.788  0.9598  1.4040 -1.2327
   83SLPC  C314 7887   1.458   1.475   3.832  0.7665 -0.2847 -0.2959
   83SLPC  H14X 7888   1.425   1.533   3.744  1.6275  2.7559  1.2334
   83SLPC  H14Y 7889   1.527   1.395   3.798 -0.2707 -2.0551  1.5009
   83SLPC  C315 7890   1.527   1.574   3.930  0.5449  0.1101  0.3435
   83SLPC  H15X 7891   1.542   1.513   4.021 -0.8986  2.4319  2.2599
   83SLPC  H15Y 7892   1.463   1.658   3.962  1.9734  1.2144  0.4236
   83SLPC  C316 7893   1.659   1.621   3.884  0.5541 -0.0124  0.2286
   83SLPC  H16X 7894   1.639   1.659   3.782 -0.7488  1.2886  0.9493
   83SLPC  H16Y 7895   1.737   1.542   3.870  0.3839 -0.1082 -0.1813
   83SLPC  C317 7896   1.719   1.733   3.973  0.3431 -0.4357  0.7478
   83SLPC  H17X 7897   1.649   1.816   3.952 -0.8502 -1.9883 -1.8739
   83SLPC  H17Y 7898   1.811   1.772   3.925 -2.1697  5.2984 -0.3175
   83SLPC  C318 7899   1.740   1.695   4.118  0.6857 -0.4645 -0.3817
   83SLPC  H18X 7900   1.783   1.773   4.185  0.0358  0.0200 -0.5193
   83SLPC  H18Y 7901   1.810   1.609   4.132  2.6146  1.3953  2.4623
   83SLPC  H18Z 7902   1.639   1.672   4.158 -0.7135  2.0767 -2.2093
   84SLPC     N 7903   0.647   5.006   2.249 -0.2751 -0.3847  0.6206
   84SLPC   C13 7904   0.513   4.946   2.242 -0.7029 -0.8483 -0.1764
   84SLPC  H13A 7905   0.511   4.850   2.193 -2.1496 -0.7556 -0.3192
   84SLPC  H13B 7906   0.462   4.940   2.337 -0.1572 -0.8694  0.1225
   84SLPC  H13C 7907   0.445   5.009   2.187 -1.2806  0.8274  2.2561
   84SLPC   C14 7908   0.718   5.002   2.114  0.4054  0.1966  0.2099
   84SLPC  H14A 7909   0.662   5.047   2.034  1.7315 -0.8358 -1.3945
   84SLPC  H14B 7910   0.819   5.041   2.122  0.7624 -0.9943  2.2282
   84SLPC  H14C 7911   0.732   4.899   2.085 -1.4808 -0.5783  1.8059
   84SLPC   C15 7912   0.731   4.934   2.343  0.4315 -0.3321  0.3907
   84SLPC  H15A 7913   0.701   4.932   2.447  0.0979 -2.0932  0.2885
   84SLPC  H15B 7914   0.759   4.836   2.308  0.2053 -0.8588  1.5997
   84SLPC  H15C 7915   0.829   4.980   2.340  1.0012 -1.5510 -0.2123
   84SLPC   C12 7916   0.649   5.159   2.294  0.0488  0.5366  0.4422
   84SLPC  H12A 7917   0.585   5.214   2.228  0.3128  0.8711  0.4630
   84SLPC  H12B 7918   0.748   5.197   2.276  0.3244 -0.9571 -1.6104
   84SLPC   C11 7919   0.598   5.180   2.439  0.4427 -0.5927 -0.0941
   84SLPC  H11A 7920   0.603   5.289   2.456 -1.2169 -0.0540 -2.5149
   84SLPC  H11B 7921   0.655   5.126   2.518  1.8414  0.5618 -0.2785
   84SLPC     P 7922   0.340   5.223   2.410  0.2690  0.1546 -0.1493
   84SLPC   O13 7923   0.390   5.345   2.348  0.3358  0.1408  0.2486
   84SLPC   O14 7924   0.244   5.145   2.333  0.1092  0.4391 -0.1217
   84SLPC   O12 7925   0.461   5.137   2.449 -0.0778  0.0342 -0.8733
   84SLPC   O11 7926   0.276   5.268   2.543  0.3187  0.2455  0.0814
   84SLPC    C1 7927   0.292   5.186   2.659 -0.3578 -0.7692  0.2343
   84SLPC    HA 7928   0.198   5.203   2.715 -0.9378  2.0242 -1.4483
   84SLPC    HB 7929   0.305   5.077   2.638 -1.7633 -0.7409 -0.9204
   84SLPC    C2 7930   0.410   5.246   2.750  0.0122 -0.9394 -0.0375
   84SLPC    HS 7931   0.512   5.215   2.718 -0.5083 -2.7232 -0.0998
   84SLPC   O21 7932   0.380   5.175   2.869  0.2942 -0.3021 -0.1581
   84SLPC   C21 7933   0.477   5.164   2.960  0.4954  0.4246  0.5522
   84SLPC   O22 7934   0.597   5.187   2.934 -0.0216  0.5119  0.2091
   84SLPC   C22 7935   0.422   5.112   3.090 -0.0278 -0.3197  0.6460
   84SLPC   H2R 7936   0.317   5.077   3.079  0.5460 -2.0952  0.4324
   84SLPC   H2S 7937   0.489   5.026   3.113  1.4569  0.3773 -0.8336
   84SLPC    C3 7938   0.398   5.397   2.766 -0.9050 -0.5387  0.4638
   84SLPC    HX 7939   0.291   5.423   2.761 -0.7550  0.1655  0.8101
   84SLPC    HY 7940   0.442   5.446   2.676 -2.7981 -0.1428 -0.2792
   84SLPC   O31 7941   0.453   5.442   2.895  0.5829  0.3316  0.2993
   84SLPC   C31 7942   0.467   5.574   2.907  1.0573 -0.3256 -0.3213
   84SLPC   O32 7943   0.432   5.653   2.822  0.6641  0.6188 -0.2602
   84SLPC   C32 7944   0.519   5.606   3.045 -0.1451  0.5185  0.0376
   84SLPC   H2X 7945   0.490   5.533   3.123  0.1747  1.4684  1.0643
   84SLPC   H2Y 7946   0.480   5.706   3.073  1.7031  1.1520  0.5443
   84SLPC   C23 7947   0.440   5.223   3.205  0.2551  0.2661 -0.3474
   84SLPC   H3R 7948   0.420   5.326   3.169  0.9614  0.6604  0.3426
   84SLPC   H3S 7949   0.546   5.222   3.238  0.2588 -0.0791 -0.3651
   84SLPC   C24 7950   0.347   5.199   3.331  0.3986  0.0899 -0.1207
   84SLPC   H4R 7951   0.353   5.094   3.369 -1.5943 -0.2709 -0.6445
   84SLPC   H4S 7952   0.245   5.227   3.296  0.0662  0.2285  0.9088
   84SLPC   C25 7953   0.393   5.278   3.455  0.3506 -0.0307 -0.3838
   84SLPC   H5R 7954   0.354   5.381   3.445  1.5527  0.4818  0.0078
   84SLPC   H5S 7955   0.504   5.278   3.465  0.3723  1.5492 -0.4383
   84SLPC   C26 7956   0.339   5.207   3.583 -0.2840  0.4264  0.5484
   84SLPC   H6R 7957   0.375   5.103   3.565 -0.8203  0.3353 -0.0417
   84SLPC   H6S 7958   0.229   5.191   3.586  0.0768 -3.2406 -0.6606
   84SLPC   C27 7959   0.406   5.261   3.710 -0.5955 -0.5255 -0.3253
   84SLPC   H7R 7960   0.381   5.369   3.719 -1.1981 -0.7538  0.9718
   84SLPC   H7S 7961   0.515   5.277   3.695 -1.0814  2.0494 -1.8542
   84SLPC   C28 7962   0.359   5.192   3.849 -0.7305  0.8883 -0.0367
   84SLPC   H8R 7963   0.250   5.196   3.871 -0.4357  2.4968  1.3047
   84SLPC   H8S 7964   0.404   5.249   3.933 -1.3268  0.7512  0.3841
   84SLPC   C29 7965   0.398   5.047   3.848 -0.6975  0.2519  0.2326
   84SLPC   H9R 7966   0.306   4.988   3.833 -1.0125  0.6691  0.5052
   84SLPC  C210 7967   0.518   4.988   3.853 -0.1479  0.1921 -0.8767
   84SLPC  H10R 7968   0.501   4.880   3.865 -4.8224  0.5899 -2.1735
   84SLPC  C211 7969   0.651   5.052   3.869 -0.1938  0.2949 -0.8183
   84SLPC  H11R 7970   0.685   5.029   3.972 -1.2317  0.1264 -0.5021
   84SLPC  H11S 7971   0.631   5.161   3.860 -1.4057 -0.0359 -2.4578
   84SLPC  C212 7972   0.768   4.999   3.792  0.4642 -0.2238  0.3217
   84SLPC  H12R 7973   0.835   4.940   3.855 -0.7656 -0.5795  1.3360
   84SLPC  C213 7974   0.798   5.032   3.663  0.7788  0.2474  0.4838
   84SLPC  H13R 7975   0.866   4.968   3.606 -1.6486  0.3894 -2.9170
   84SLPC  C214 7976   0.707   5.110   3.561 -0.3545 -0.0479  0.3006
   84SLPC  H14R 7977   0.753   5.202   3.518  0.8558 -0.5604  0.4686
   84SLPC  H14S 7978   0.622   5.144   3.624 -0.2229  0.2087  0.3433
   84SLPC  C215 7979   0.673   5.018   3.447  0.0342  0.5919 -0.3291
   84SLPC  H15R 7980   0.574   5.052   3.410 -0.6637 -1.7166 -0.7497
   84SLPC  H15S 7981   0.656   4.916   3.486 -1.2619  0.9829  0.1961
   84SLPC  C216 7982   0.777   5.025   3.333  0.1413  0.5026 -0.0868
   84SLPC  H16R 7983   0.873   4.993   3.378 -0.2236  1.9187  1.7800
   84SLPC  H16S 7984   0.788   5.132   3.305 -0.9531  0.9544  1.1113
   84SLPC  C217 7985   0.752   4.932   3.213  1.5681  0.0251  0.5331
   84SLPC  H17R 7986   0.665   4.982   3.166  1.0592 -2.9721 -2.0605
   84SLPC  H17S 7987   0.715   4.839   3.261 -0.0116  0.5807  0.4659
   84SLPC  C218 7988   0.863   4.906   3.116 -0.5959  0.2686  0.4877
   84SLPC  H18R 7989   0.934   4.836   3.165  1.5546  1.1536 -1.2386
   84SLPC  H18S 7990   0.910   5.003   3.092 -1.1038  0.0463 -1.6350
   84SLPC  H18T 7991   0.826   4.859   3.022  0.1748  1.4832 -0.4530
   84SLPC   C33 7992   0.674   5.614   3.043  0.4631  0.3745 -0.0222
   84SLPC   H3X 7993   0.716   5.678   2.962  1.6121 -0.8329 -0.4088
   84SLPC   H3Y 7994   0.718   5.513   3.026  3.2281  1.6485 -1.0619
   84SLPC   C34 7995   0.752   5.657   3.170 -0.1149 -0.0503  0.0178
   84SLPC   H4X 7996   0.725   5.761   3.198 -2.2051 -0.0853 -1.5701
   84SLPC   H4Y 7997   0.856   5.652   3.131  0.2230  3.2648  0.2555
   84SLPC   C35 7998   0.720   5.583   3.298  0.3639  0.7437  0.2984
   84SLPC   H5X 7999   0.758   5.482   3.270 -0.8481 -0.1645  1.7739
   84SLPC   H5Y 8000   0.609   5.584   3.305  0.3963 -2.1204  2.9148
   84SLPC   C36 8001   0.779   5.635   3.425  0.1720  0.2137 -0.5030
   84SLPC   H6X 8002   0.755   5.740   3.453  0.0019 -0.0437  0.3216
   84SLPC   H6Y 8003   0.888   5.624   3.404 -0.0641 -0.8733 -1.2009
   84SLPC   C37 8004   0.739   5.544   3.531 -0.1464  0.2727 -0.2325
   84SLPC   H7X 8005   0.776   5.443   3.507 -0.3117 -0.1536  1.2076
   84SLPC   H7Y 8006   0.630   5.532   3.549  0.1382 -0.0613  1.4692
   84SLPC   C38 8007   0.791   5.583   3.677 -0.2766 -0.0074 -0.2387
   84SLPC   H8X 8008   0.760   5.687   3.699  0.0806  0.6044 -2.4104
   84SLPC   H8Y 8009   0.902   5.572   3.687 -0.6382 -2.9213  1.8597
   84SLPC   C39 8010   0.723   5.486   3.774 -0.3297  0.4791 -0.3674
   84SLPC   H9X 8011   0.727   5.377   3.755  1.6798  0.4100  0.2484
   84SLPC   H9Y 8012   0.614   5.510   3.772 -0.3208  0.6539 -3.3904
   84SLPC  C310 8013   0.778   5.509   3.910 -0.3099  0.4311 -0.3777
   84SLPC  H10X 8014   0.758   5.613   3.942  1.1459  0.8776 -0.8460
   84SLPC  H10Y 8015   0.889   5.510   3.912 -0.2975 -0.0695  1.9223
   84SLPC  C311 8016   0.730   5.412   4.020 -0.3270 -0.3540  0.8007
   84SLPC  H11X 8017   0.791   5.431   4.111  0.0407  4.1390 -0.1854
   84SLPC  H11Y 8018   0.753   5.318   3.964  1.4266  1.3521 -1.5040
   84SLPC  C312 8019   0.581   5.409   4.068 -0.0811  0.2778  0.2367
   84SLPC  H12X 8020   0.551   5.305   4.096  0.5865  0.0337  0.0720
   84SLPC  H12Y 8021   0.520   5.449   3.985  0.6458 -0.3379 -0.6104
   84SLPC  C313 8022   0.550   5.491   4.190 -0.8492  0.1004  0.2035
   84SLPC  H13X 8023   0.552   5.601   4.171 -0.8621 -0.1749 -1.5129
   84SLPC  H13Y 8024   0.617   5.464   4.274  0.6962 -0.5597 -1.1972
   84SLPC  C314 8025   0.410   5.454   4.238  0.1746 -0.1997 -0.0452
   84SLPC  H14X 8026   0.344   5.443   4.149  2.3319 -1.7399 -1.5626
   84SLPC  H14Y 8027   0.360   5.528   4.304  1.4008 -0.9287  1.8028
   84SLPC  C315 8028   0.411   5.322   4.320 -0.1215 -0.4204  0.5364
   84SLPC  H15X 8029   0.465   5.365   4.407  0.0573 -1.1229  0.7763
   84SLPC  H15Y 8030   0.468   5.239   4.275  0.4564 -0.0276  0.5414
   84SLPC  C316 8031   0.272   5.259   4.356  0.1945  0.4713 -0.7137
   84SLPC  H16X 8032   0.199   5.340   4.378 -1.5557 -0.9767 -0.9492
   84SLPC  H16Y 8033   0.279   5.192   4.445 -2.8598 -0.2761 -0.9346
   84SLPC  C317 8034   0.219   5.174   4.246  0.2241  0.3004 -0.2646
   84SLPC  H17X 8035   0.288   5.092   4.218  0.4097  1.0713 -2.2025
   84SLPC  H17Y 8036   0.203   5.243   4.161  1.0252  0.0949 -0.5912
   84SLPC  C318 8037   0.085   5.115   4.286  0.1182 -0.2990 -0.1396
   84SLPC  H18X 8038   0.075   5.068   4.387 -2.8629 -0.6085 -0.4865
   84SLPC  H18Y 8039   0.049   5.026   4.230 -0.4849  0.9075 -1.7379
   84SLPC  H18Z 8040   0.010   5.197   4.283 -2.5518 -2.4526  1.5084
   85SLPC     N 8041   3.756   2.022   2.366 -0.0139  0.2244 -0.1700
   85SLPC   C13 8042   3.675   2.005   2.234  0.1215  0.3725  0.3985
   85SLPC  H13A 8043   3.667   1.901   2.210  1.9814 -0.1220  1.6585
   85SLPC  H13B 8044   3.579   2.052   2.247 -0.3404 -0.6019  0.5768
   85SLPC  H13C 8045   3.732   2.038   2.148 -0.5407 -1.7540 -0.9154
   85SLPC   C14 8046   3.894   1.965   2.362  0.4301  0.5125 -0.5058
   85SLPC  H14A 8047   3.940   1.969   2.459 -0.2756 -3.4945  0.1517
   85SLPC  H14B 8048   3.888   1.862   2.331  2.1183 -0.0462  0.8789
   85SLPC  H14C 8049   3.954   2.013   2.286  0.3157  0.0801 -0.8745
   85SLPC   C15 8050   3.664   1.964   2.481 -0.3166 -0.0858  0.3579
   85SLPC  H15A 8051   3.657   1.857   2.463 -0.2146 -0.2716  1.3627
   85SLPC  H15B 8052   3.716   1.969   2.576  0.0559 -0.1048  0.1574
   85SLPC  H15C 8053   3.562   1.997   2.489 -0.0360  0.4303  2.4002
   85SLPC   C12 8054   3.760   2.168   2.405 -0.7722  0.1228  1.4293
   85SLPC  H12A 8055   3.796   2.176   2.506 -0.2955 -1.3097  1.4023
   85SLPC  H12B 8056   3.662   2.214   2.407 -0.0680  1.7727  0.0999
   85SLPC   C11 8057   3.838   2.262   2.302 -0.7833 -0.5611 -0.2640
   85SLPC  H11A 8058   3.806   2.365   2.329  0.6908  0.3768 -1.8834
   85SLPC  H11B 8059   3.808   2.255   2.195 -0.4080  0.3037 -0.4324
   85SLPC     P 8060   4.061   2.296   2.440  0.0527  0.2986 -0.0272
   85SLPC   O13 8061   4.159   2.190   2.478  0.3779 -0.0244  0.4388
   85SLPC   O14 8062   4.116   2.432   2.420  0.2540 -0.7457 -0.7890
   85SLPC   O12 8063   3.983   2.242   2.306 -0.9521  0.2045  0.7350
   85SLPC   O11 8064   3.952   2.282   2.555 -0.0917  0.1247  0.4141
   85SLPC    C1 8065   3.923   2.395   2.639 -0.1627 -0.1229 -0.1713
   85SLPC    HA 8066   4.018   2.451   2.657  0.2505  0.3253 -3.2088
   85SLPC    HB 8067   3.843   2.459   2.596  0.1256  1.2806  1.2507
   85SLPC    C2 8068   3.875   2.356   2.789 -0.2644  0.4281  0.1021
   85SLPC    HS 8069   3.836   2.454   2.823 -0.4526  0.1117  0.7998
   85SLPC   O21 8070   3.983   2.315   2.880 -0.0363  0.0691  0.3432
   85SLPC   C21 8071   4.071   2.401   2.912 -1.2172  0.0288  0.0236
   85SLPC   O22 8072   4.073   2.517   2.874  0.3339 -0.5628 -0.3847
   85SLPC   C22 8073   4.166   2.330   3.009 -0.0435  0.5888 -0.0555
   85SLPC   H2R 8074   4.101   2.251   3.053  1.9100 -1.2379 -0.2879
   85SLPC   H2S 8075   4.241   2.278   2.945  1.1020  1.9390  0.1577
   85SLPC    C3 8076   3.756   2.253   2.783  0.3305  0.1044  0.1739
   85SLPC    HX 8077   3.777   2.152   2.740  2.2772  0.3742  0.3963
   85SLPC    HY 8078   3.675   2.300   2.723  0.7976  0.9644  0.2013
   85SLPC   O31 8079   3.702   2.248   2.921  0.0755 -0.2304  0.1963
   85SLPC   C31 8080   3.752   2.161   3.012 -0.4153 -0.2168  0.0512
   85SLPC   O32 8081   3.822   2.068   2.989 -0.2308  0.1846 -0.2015
   85SLPC   C32 8082   3.732   2.226   3.152 -0.1919  0.1536 -0.1355
   85SLPC   H2X 8083   3.622   2.239   3.162 -0.2849 -0.3314 -0.5157
   85SLPC   H2Y 8084   3.780   2.326   3.150 -0.9916  0.5355 -0.7750
   85SLPC   C23 8085   4.217   2.422   3.124  0.3099 -0.0462 -0.4520
   85SLPC   H3R 8086   4.152   2.507   3.154  1.5314  0.5552  0.6049
   85SLPC   H3S 8087   4.309   2.467   3.083  2.4853 -2.6026  1.2942
   85SLPC   C24 8088   4.260   2.357   3.260  0.1248  0.0210  0.4673
   85SLPC   H4R 8089   4.310   2.445   3.306  1.1230  0.2797 -1.0543
   85SLPC   H4S 8090   4.334   2.275   3.249 -2.1540 -2.1580  0.4345
   85SLPC   C25 8091   4.144   2.296   3.345 -0.1775 -0.0378 -0.0485
   85SLPC   H5R 8092   4.089   2.379   3.395  0.5116 -0.1991  1.0224
   85SLPC   H5S 8093   4.082   2.235   3.277  1.0340 -0.7181 -0.5676
   85SLPC   C26 8094   4.214   2.208   3.450  0.1117 -0.0573 -0.1321
   85SLPC   H6R 8095   4.298   2.155   3.401 -0.3310  1.1527 -2.3349
   85SLPC   H6S 8096   4.147   2.124   3.476  0.0834 -0.1177 -0.4003
   85SLPC   C27 8097   4.265   2.278   3.578  0.0573  1.1834  0.8015
   85SLPC   H7R 8098   4.185   2.327   3.637 -0.5499  1.0508  0.1106
   85SLPC   H7S 8099   4.335   2.360   3.548  2.2325 -0.6750  0.5075
   85SLPC   C28 8100   4.353   2.186   3.671 -0.1094 -0.2081  0.0672
   85SLPC   H8R 8101   4.423   2.250   3.728  1.3159  0.0648 -1.8551
   85SLPC   H8S 8102   4.422   2.131   3.603  1.0334  0.6241  0.5362
   85SLPC   C29 8103   4.280   2.084   3.753  0.7468 -0.4740 -0.7080
   85SLPC   H9R 8104   4.254   1.986   3.712  0.7200 -0.2510 -1.2314
   85SLPC  C210 8105   4.265   2.105   3.886  0.3255  0.4682 -0.5756
   85SLPC  H10R 8106   4.204   2.032   3.942 -0.7288  2.2768  0.7239
   85SLPC  C211 8107   4.304   2.232   3.960 -0.4456 -0.3438 -0.6787
   85SLPC  H11R 8108   4.288   2.315   3.887 -0.6668  0.6723  0.4801
   85SLPC  H11S 8109   4.411   2.232   3.990 -0.1428  2.3319 -1.5068
   85SLPC  C212 8110   4.223   2.265   4.080 -0.0235 -0.0395  0.0839
   85SLPC  H12R 8111   4.164   2.354   4.058 -0.7038 -0.3963  0.4207
   85SLPC  C213 8112   4.215   2.203   4.204  0.5000  0.1049 -0.0362
   85SLPC  H13R 8113   4.156   2.251   4.283  0.8964  2.4830 -1.0694
   85SLPC  C214 8114   4.285   2.082   4.250  0.0248 -0.4106  0.5843
   85SLPC  H14R 8115   4.370   2.048   4.187 -0.1156 -3.2268  1.7965
   85SLPC  H14S 8116   4.221   1.992   4.256  0.2073 -0.4407  2.9241
   85SLPC  C215 8117   4.344   2.107   4.392 -0.4643  0.3815 -1.2144
   85SLPC  H15R 8118   4.276   2.136   4.474  1.4898 -2.9245  1.8764
   85SLPC  H15S 8119   4.413   2.194   4.382 -1.0360  1.0916  0.6218
   85SLPC  C216 8120   4.430   1.991   4.443 -0.5549 -0.4268 -0.4791
   85SLPC  H16R 8121   4.525   2.000   4.388 -0.2182 -0.5370  0.0725
   85SLPC  H16S 8122   4.383   1.893   4.419 -0.2367 -0.7893  0.3318
   85SLPC  C217 8123   4.476   2.000   4.595 -0.5884  0.0737 -0.8813
   85SLPC  H17R 8124   4.544   2.087   4.610  2.8890 -2.0194 -3.0569
   85SLPC  H17S 8125   4.529   1.906   4.622 -2.3221 -0.4543  0.9287
   85SLPC  C218 8126   4.358   1.992   4.698  0.0219  0.0720 -0.1832
   85SLPC  H18R 8127   4.313   2.094   4.706  0.6707  0.2153  4.3687
   85SLPC  H18S 8128   4.386   1.966   4.802 -1.2894 -0.0244  0.1729
   85SLPC  H18T 8129   4.279   1.917   4.677 -1.7837  1.3043  1.7497
   85SLPC   C33 8130   3.777   2.143   3.276 -0.1884  0.5600  0.4730
   85SLPC   H3X 8131   3.888   2.142   3.284  0.1789  0.0549 -3.2403
   85SLPC   H3Y 8132   3.756   2.034   3.273  0.6055  0.3370  1.9843
   85SLPC   C34 8133   3.728   2.214   3.406  0.0997  0.7928  0.1879
   85SLPC   H4X 8134   3.617   2.218   3.405 -0.0334 -1.7581  0.4797
   85SLPC   H4Y 8135   3.766   2.318   3.390  0.9809  0.1104 -2.7656
   85SLPC   C35 8136   3.780   2.128   3.521 -0.1313  0.2786 -0.4278
   85SLPC   H5X 8137   3.883   2.091   3.498 -0.9967 -1.4650 -1.7582
   85SLPC   H5Y 8138   3.720   2.035   3.529  0.6663 -0.3133 -1.0718
   85SLPC   C36 8139   3.780   2.207   3.651  0.2974 -0.2595 -0.1032
   85SLPC   H6X 8140   3.674   2.223   3.678  0.3649 -3.0329  2.4020
   85SLPC   H6Y 8141   3.824   2.306   3.627 -1.1517 -0.2664 -3.1948
   85SLPC   C37 8142   3.839   2.138   3.772  0.6955  0.5314  0.6826
   85SLPC   H7X 8143   3.945   2.113   3.750  0.0056 -0.7452 -1.3908
   85SLPC   H7Y 8144   3.784   2.042   3.772 -0.4407  1.1519 -0.4969
   85SLPC   C38 8145   3.821   2.221   3.898  0.1764 -0.3230  0.2224
   85SLPC   H8X 8146   3.716   2.259   3.901  0.7834  1.4812 -0.2363
   85SLPC   H8Y 8147   3.899   2.299   3.912 -1.0797  0.6015  2.7463
   85SLPC   C39 8148   3.834   2.123   4.019  0.0743  0.1429  0.3571
   85SLPC   H9X 8149   3.927   2.064   4.002 -0.7624 -1.7414  1.9142
   85SLPC   H9Y 8150   3.748   2.052   4.011  1.0834 -0.9470 -1.4538
   85SLPC  C310 8151   3.822   2.203   4.149  0.1735  0.3706 -0.5073
   85SLPC  H10X 8152   3.721   2.242   4.171 -0.5028 -1.6834  0.2576
   85SLPC  H10Y 8153   3.888   2.293   4.142 -1.2565  1.4161 -0.9973
   85SLPC  C311 8154   3.853   2.121   4.276 -0.5927  0.4941 -0.2848
   85SLPC  H11X 8155   3.955   2.078   4.262 -0.8834  0.0359 -1.0629
   85SLPC  H11Y 8156   3.777   2.042   4.294 -2.7509  2.5411  0.0440
   85SLPC  C312 8157   3.857   2.210   4.400  0.5923  0.9736 -0.5855
   85SLPC  H12X 8158   3.756   2.245   4.430  0.0508  0.3494 -1.6488
   85SLPC  H12Y 8159   3.913   2.303   4.378 -0.7626  1.5493 -1.7784
   85SLPC  C313 8160   3.915   2.141   4.520  0.1828  0.3836  0.0394
   85SLPC  H13X 8161   4.015   2.095   4.504  0.6787  1.0211  1.1462
   85SLPC  H13Y 8162   3.851   2.064   4.569  0.4723 -0.6510 -1.1525
   85SLPC  C314 8163   3.952   2.248   4.625 -0.0455  0.0867  0.5389
   85SLPC  H14X 8164   3.861   2.311   4.622  0.5443  0.9356 -0.4024
   85SLPC  H14Y 8165   4.042   2.309   4.603  1.1968 -0.5052  3.5308
   85SLPC  C315 8166   3.967   2.193   4.767 -0.3652 -0.6522 -0.7300
   85SLPC  H15X 8167   4.019   2.095   4.776 -1.4727 -1.2240 -0.3109
   85SLPC  H15Y 8168   3.874   2.192   4.829 -0.0078  1.2430 -0.1005
   85SLPC  C316 8169   4.048   2.280   4.861 -0.4398 -0.2886  0.8684
   85SLPC  H16X 8170   4.010   2.383   4.849 -0.6141 -0.4526 -0.0386
   85SLPC  H16Y 8171   4.150   2.278   4.816  0.1428  0.4927  2.0775
   85SLPC  C317 8172   4.066   2.245   5.007  0.2706  0.2219  0.3725
   85SLPC  H17X 8173   4.098   2.140   5.021  2.5973  0.7327 -0.5800
   85SLPC  H17Y 8174   3.962   2.249   5.047 -0.5692  1.1479 -1.7454
   85SLPC  C318 8175   4.161   2.342   5.087 -0.5028  0.4508  0.4397
   85SLPC  H18X 8176   4.118   2.444   5.084  1.6715  1.4557  1.3206
   85SLPC  H18Y 8177   4.266   2.344   5.050 -1.0665  1.8726 -1.2056
   85SLPC  H18Z 8178   4.166   2.323   5.197 -1.3066  1.0499  0.5893
   86SLPC     N 8179   5.702   5.646   2.203  0.1448  0.1532  0.1273
   86SLPC   C13 8180   5.837   5.620   2.260 -0.1279 -0.6363  0.6282
   86SLPC  H13A 8181   5.894   5.543   2.210  1.1027 -0.1907  1.2964
   86SLPC  H13B 8182   5.897   5.710   2.261 -4.3316  2.5060 -0.4921
   86SLPC  H13C 8183   5.822   5.586   2.362 -3.3728  0.8441  0.7724
   86SLPC   C14 8184   5.617   5.519   2.197 -0.4390  0.0572 -0.1509
   86SLPC  H14A 8185   5.669   5.435   2.152  0.8523  0.5227  0.4235
   86SLPC  H14B 8186   5.590   5.478   2.293 -0.8213  0.1592 -0.2142
   86SLPC  H14C 8187   5.522   5.542   2.152  0.9361  2.6732 -1.9717
   86SLPC   C15 8188   5.720   5.700   2.067  0.0274 -0.1399 -0.0409
   86SLPC  H15A 8189   5.622   5.715   2.026 -1.3076  0.2038  3.0137
   86SLPC  H15B 8190   5.758   5.801   2.077  0.3161 -0.4163  2.1710
   86SLPC  H15C 8191   5.786   5.636   2.010  0.0700 -0.2904  0.1740
   86SLPC   C12 8192   5.632   5.755   2.282 -0.2581 -0.0357 -1.0583
   86SLPC  H12A 8193   5.538   5.780   2.234 -2.1096  0.6369  2.5604
   86SLPC  H12B 8194   5.687   5.847   2.278  0.2378 -0.3179 -0.8353
   86SLPC   C11 8195   5.600   5.720   2.430 -0.2929  0.2024 -0.5686
   86SLPC  H11A 8196   5.563   5.812   2.479 -0.1498  0.1740 -0.4037
   86SLPC  H11B 8197   5.689   5.680   2.483  1.6811  2.8484 -1.6575
   86SLPC     P 8198   5.462   5.549   2.577  0.1455  0.1207  0.4074
   86SLPC   O13 8199   5.314   5.546   2.606 -0.2028 -0.2324  0.7065
   86SLPC   O14 8200   5.523   5.413   2.552  0.0631 -0.3149 -0.3582
   86SLPC   O12 8201   5.488   5.631   2.445  0.1417  0.7388  0.1140
   86SLPC   O11 8202   5.557   5.631   2.684 -0.2731 -0.0448 -0.5153
   86SLPC    C1 8203   5.621   5.557   2.792 -0.1467  0.6081 -0.4364
   86SLPC    HA 8204   5.665   5.461   2.758 -0.9136  0.2512 -0.4239
   86SLPC    HB 8205   5.714   5.608   2.826 -0.6469  1.0914  0.2179
   86SLPC    C2 8206   5.533   5.546   2.912  0.2093  0.6564 -0.9381
   86SLPC    HS 8207   5.428   5.544   2.877 -0.4483  1.1326  0.8603
   86SLPC   O21 8208   5.540   5.666   2.991 -0.4716 -0.2648 -0.1105
   86SLPC   C21 8209   5.431   5.710   3.052  0.0963  1.0709 -0.0953
   86SLPC   O22 8210   5.317   5.665   3.045  0.3299 -0.1946 -0.8502
   86SLPC   C22 8211   5.480   5.796   3.170  0.0119  0.1334  0.1993
   86SLPC   H2R 8212   5.526   5.724   3.241 -1.7617 -0.8308  0.4374
   86SLPC   H2S 8213   5.551   5.871   3.128 -2.5140  0.5624 -3.8028
   86SLPC    C3 8214   5.578   5.433   3.008 -0.6114 -1.0599  0.2831
   86SLPC    HX 8215   5.682   5.450   3.043 -0.7016  0.9731 -0.2630
   86SLPC    HY 8216   5.569   5.333   2.961 -1.1141 -1.4637  1.2222
   86SLPC   O31 8217   5.496   5.438   3.131 -0.5435  0.7786  0.6892
   86SLPC   C31 8218   5.386   5.368   3.120  0.3245 -0.8652 -0.2690
   86SLPC   O32 8219   5.341   5.315   3.022  0.0934  0.6235  0.2082
   86SLPC   C32 8220   5.304   5.381   3.248  0.2346  0.0215  0.2635
   86SLPC   H2X 8221   5.304   5.286   3.305  0.8601  0.1600  0.5059
   86SLPC   H2Y 8222   5.198   5.405   3.226 -0.0264 -1.6873 -0.4786
   86SLPC   C23 8223   5.385   5.881   3.251 -0.4588 -0.0787 -0.1210
   86SLPC   H3R 8224   5.290   5.823   3.254 -0.4027 -0.1175  1.4024
   86SLPC   H3S 8225   5.376   5.979   3.200  1.0278  0.1418 -0.0217
   86SLPC   C24 8226   5.431   5.892   3.394 -0.3919 -0.2263 -0.5695
   86SLPC   H4R 8227   5.532   5.939   3.390  0.0583 -1.1050  0.3611
   86SLPC   H4S 8228   5.456   5.796   3.442 -0.1496 -0.1933 -0.6258
   86SLPC   C25 8229   5.334   5.973   3.484  0.0034  0.4731 -0.0419
   86SLPC   H5R 8230   5.241   5.911   3.486 -0.0156  0.4096 -1.6302
   86SLPC   H5S 8231   5.316   6.071   3.434  0.6078 -0.0232 -1.2704
   86SLPC   C26 8232   5.374   5.971   3.629  0.4792  0.0963  0.1369
   86SLPC   H6R 8233   5.478   6.011   3.630  0.6148 -0.2400 -0.0905
   86SLPC   H6S 8234   5.380   5.867   3.668 -1.4442  0.6212  2.0064
   86SLPC   C27 8235   5.277   6.042   3.726  0.2628 -0.2150  0.2547
   86SLPC   H7R 8236   5.189   5.978   3.751  0.5154 -0.6376  0.0773
   86SLPC   H7S 8237   5.238   6.140   3.691  1.1108  0.1748  0.3688
   86SLPC   C28 8238   5.339   6.088   3.865 -0.9609  0.3556 -0.4277
   86SLPC   H8R 8239   5.400   6.003   3.902 -2.6726 -0.9975 -0.5650
   86SLPC   H8S 8240   5.257   6.105   3.938  0.0012  1.2696  0.4634
   86SLPC   C29 8241   5.433   6.196   3.842 -0.5924 -0.0892 -0.2527
   86SLPC   H9R 8242   5.472   6.210   3.740  0.9864  1.0974  0.4883
   86SLPC  C210 8243   5.468   6.288   3.938  0.2089  0.2105  0.4727
   86SLPC  H10R 8244   5.531   6.372   3.904  1.3778 -0.7292  0.2530
   86SLPC  C211 8245   5.420   6.291   4.083 -0.1965  0.0479 -0.1674
   86SLPC  H11R 8246   5.463   6.202   4.133 -1.5795 -1.3027 -1.2664
   86SLPC  H11S 8247   5.309   6.279   4.086 -0.3527  1.4752  1.2325
   86SLPC  C212 8248   5.454   6.419   4.153  0.8669 -1.2280 -0.5422
   86SLPC  H12R 8249   5.483   6.506   4.094 -0.4888 -0.1266  0.3652
   86SLPC  C213 8250   5.456   6.440   4.291  0.3466 -0.4087  0.4049
   86SLPC  H13R 8251   5.497   6.534   4.330 -0.5836  0.0342  0.3503
   86SLPC  C214 8252   5.413   6.343   4.398 -0.1855 -0.4355 -0.2290
   86SLPC  H14R 8253   5.496   6.341   4.472  2.2452 -0.1653 -2.8020
   86SLPC  H14S 8254   5.410   6.238   4.362  2.4832 -1.1402  1.3108
   86SLPC  C215 8255   5.287   6.391   4.471 -0.3887  0.4431  0.1946
   86SLPC  H15R 8256   5.282   6.324   4.559  0.8670  1.5613  1.1585
   86SLPC  H15S 8257   5.203   6.377   4.400 -1.9668  0.6737  1.9414
   86SLPC  C216 8258   5.294   6.531   4.533 -0.4978 -0.5583 -0.6033
   86SLPC  H16R 8259   5.289   6.609   4.454 -2.1541  0.3890  0.3908
   86SLPC  H16S 8260   5.391   6.554   4.583 -0.4414  1.1811 -1.4308
   86SLPC  C217 8261   5.180   6.565   4.629 -1.1279 -0.0856  0.0370
   86SLPC  H17R 8262   5.172   6.498   4.718 -0.0297 -0.7037 -0.3116
   86SLPC  H17S 8263   5.088   6.543   4.571 -2.7793 -0.5443  2.6791
   86SLPC  C218 8264   5.179   6.713   4.666 -0.1321  0.0274 -0.7928
   86SLPC  H18R 8265   5.090   6.735   4.729 -0.5778  0.3554 -1.5254
   86SLPC  H18S 8266   5.183   6.780   4.577  0.9681  0.6628 -0.2877
   86SLPC  H18T 8267   5.266   6.739   4.730  1.0131 -2.1436 -1.3666
   86SLPC   C33 8268   5.348   5.485   3.353 -0.2479  0.1549  0.3656
   86SLPC   H3X 8269   5.334   5.590   3.320  0.2324  0.2055  0.3229
   86SLPC   H3Y 8270   5.452   5.464   3.386  0.9969  3.5919 -1.0239
   86SLPC   C34 8271   5.250   5.469   3.476 -0.0305  0.2586 -0.3442
   86SLPC   H4X 8272   5.245   5.360   3.498 -1.3755 -0.4641 -3.6357
   86SLPC   H4Y 8273   5.147   5.498   3.447  0.3048  2.9514  0.8835
   86SLPC   C35 8274   5.270   5.549   3.599  0.0479  0.5242 -0.2923
   86SLPC   H5X 8275   5.267   5.656   3.570 -0.4655  1.2871  2.3247
   86SLPC   H5Y 8276   5.372   5.525   3.635 -1.0891 -2.4751  1.3271
   86SLPC   C36 8277   5.164   5.519   3.702  0.2871  0.2138 -0.2303
   86SLPC   H6X 8278   5.184   5.418   3.744  0.5854  0.1894 -0.4264
   86SLPC   H6Y 8279   5.065   5.520   3.653 -0.4300  0.3827  1.1826
   86SLPC   C37 8280   5.183   5.621   3.817  0.6373  0.6936 -1.1063
   86SLPC   H7X 8281   5.189   5.724   3.775 -1.1025  1.0824 -0.4686
   86SLPC   H7Y 8282   5.274   5.597   3.877 -1.9343  1.3938  3.5923
   86SLPC   C38 8283   5.059   5.612   3.916 -0.7155  0.3141  0.7831
   86SLPC   H8X 8284   5.079   5.638   4.022  2.5128  0.6671  0.1682
   86SLPC   H8Y 8285   5.030   5.505   3.924 -1.6908  0.3300 -1.7302
   86SLPC   C39 8286   4.946   5.700   3.856  0.5647  0.2655  0.5202
   86SLPC   H9X 8287   4.927   5.661   3.754 -3.3447  0.4215  1.0677
   86SLPC   H9Y 8288   4.985   5.802   3.836  1.8836 -0.5592 -1.4808
   86SLPC  C310 8289   4.812   5.700   3.934 -0.5416  0.0030 -0.1863
   86SLPC  H10X 8290   4.791   5.596   3.966 -1.4984  0.8137  2.0306
   86SLPC  H10Y 8291   4.728   5.734   3.870 -0.6965 -1.3587 -0.7358
   86SLPC  C311 8292   4.820   5.784   4.059 -0.0723 -0.3929 -0.8218
   86SLPC  H11X 8293   4.894   5.741   4.130 -0.5068  2.8502  1.8315
   86SLPC  H11Y 8294   4.722   5.784   4.111  0.2111  0.9488 -0.2439
   86SLPC  C312 8295   4.866   5.934   4.049 -0.3723  0.2283  0.3719
   86SLPC  H12X 8296   4.794   5.973   3.974 -0.3443  1.3682  0.9089
   86SLPC  H12Y 8297   4.965   5.937   4.000 -0.1985  1.9352  0.7651
   86SLPC  C313 8298   4.871   6.019   4.170  0.2394  0.4160 -1.1690
   86SLPC  H13X 8299   4.779   5.990   4.225 -1.2673 -0.8913 -4.1240
   86SLPC  H13Y 8300   4.854   6.126   4.144 -2.0006  0.7819  1.3030
   86SLPC  C314 8301   5.003   6.027   4.254  0.0326  0.2005  0.2573
   86SLPC  H14X 8302   5.084   6.066   4.189  1.4692 -1.5418  0.9377
   86SLPC  H14Y 8303   5.029   5.922   4.276 -2.5115 -0.4406  0.5745
   86SLPC  C315 8304   4.995   6.111   4.388 -0.9176 -0.1565  0.5197
   86SLPC  H15X 8305   4.974   6.216   4.357 -0.9865 -0.1108  0.7192
   86SLPC  H15Y 8306   5.100   6.117   4.426 -0.1747  1.3408 -1.5284
   86SLPC  C316 8307   4.894   6.071   4.487  0.2675  0.9251  0.2631
   86SLPC  H16X 8308   4.881   5.961   4.475  1.4534  0.6377  1.3054
   86SLPC  H16Y 8309   4.799   6.122   4.464  1.1124  2.4360  0.0097
   86SLPC  C317 8310   4.934   6.095   4.635  0.0731  0.5645  0.4491
   86SLPC  H17X 8311   5.030   6.045   4.660  0.5026  1.0069 -0.2971
   86SLPC  H17Y 8312   4.848   6.058   4.695  0.1741 -1.7163 -0.6958
   86SLPC  C318 8313   4.949   6.244   4.664  0.2935  0.3778  0.0746
   86SLPC  H18X 8314   4.850   6.289   4.639 -0.7002 -1.5694  0.3472
   86SLPC  H18Y 8315   5.027   6.303   4.611 -2.5601  3.1576 -1.3651
   86SLPC  H18Z 8316   4.971   6.261   4.772  1.0983 -0.6147  0.0802
   87SLPC     N 8317   3.360   6.023   2.176  0.5853 -1.0578  0.4006
   87SLPC   C13 8318   3.502   6.007   2.132  1.0865  0.1179 -0.8235
   87SLPC  H13A 8319   3.556   6.101   2.129  1.6530 -0.1861 -0.5245
   87SLPC  H13B 8320   3.553   5.938   2.198 -0.9982 -2.6081 -1.9042
   87SLPC  H13C 8321   3.498   5.955   2.038 -0.3019  0.0563 -0.7471
   87SLPC   C14 8322   3.359   6.043   2.323 -0.3882 -0.2963  0.2836
   87SLPC  H14A 8323   3.259   6.061   2.359 -0.5386 -0.5473 -0.0039
   87SLPC  H14B 8324   3.382   5.954   2.378  2.1750 -1.1113 -1.8990
   87SLPC  H14C 8325   3.427   6.124   2.346  0.7157 -0.6819 -1.4031
   87SLPC   C15 8326   3.269   5.906   2.143  0.0381  0.3830  0.6010
   87SLPC  H15A 8327   3.272   5.887   2.036 -1.0734 -0.2923  0.6806
   87SLPC  H15B 8328   3.301   5.824   2.205 -0.1098 -0.3339 -0.2482
   87SLPC  H15C 8329   3.167   5.925   2.172 -0.0789  1.5521 -0.4726
   87SLPC   C12 8330   3.303   6.146   2.105  0.0447 -1.3007  0.2674
   87SLPC  H12A 8331   3.200   6.166   2.130 -0.4089 -1.0833 -1.6787
   87SLPC  H12B 8332   3.285   6.121   2.002 -1.0481 -0.6686  0.2871
   87SLPC   C11 8333   3.393   6.272   2.106 -0.1764  0.2739 -0.6237
   87SLPC  H11A 8334   3.358   6.344   2.028  1.2926 -0.0472 -1.6144
   87SLPC  H11B 8335   3.493   6.246   2.066 -0.9373 -0.8838 -1.9216
   87SLPC     P 8336   3.273   6.403   2.303  0.1004 -0.3271  0.1265
   87SLPC   O13 8337   3.286   6.553   2.304 -0.2031  0.3828 -0.1682
   87SLPC   O14 8338   3.144   6.342   2.247  0.8493 -0.0259  0.1775
   87SLPC   O12 8339   3.405   6.339   2.235  0.3360 -0.7198 -0.1045
   87SLPC   O11 8340   3.283   6.361   2.458  0.1363 -0.5010  0.9408
   87SLPC    C1 8341   3.405   6.328   2.519  0.2429  0.3491  0.2222
   87SLPC    HA 8342   3.476   6.260   2.467  1.3106  1.0266  0.7750
   87SLPC    HB 8343   3.470   6.416   2.537 -1.4459  1.8050 -0.5530
   87SLPC    C2 8344   3.383   6.255   2.656 -0.1654 -0.0073  0.7288
   87SLPC    HS 8345   3.479   6.258   2.713 -0.1974  0.0340  0.7817
   87SLPC   O21 8346   3.347   6.120   2.630  0.2592  0.1701 -0.8308
   87SLPC   C21 8347   3.387   6.037   2.723  0.6352 -0.2702 -0.1127
   87SLPC   O22 8348   3.454   6.055   2.823 -0.2348 -0.1553  0.0936
   87SLPC   C22 8349   3.321   5.898   2.693 -0.1949 -0.9377  0.0370
   87SLPC   H2R 8350   3.212   5.919   2.683  0.0080 -0.5485 -1.4566
   87SLPC   H2S 8351   3.379   5.857   2.608  1.2518  1.2763 -0.1236
   87SLPC    C3 8352   3.273   6.322   2.734 -0.5127  0.2010 -0.2133
   87SLPC    HX 8353   3.177   6.308   2.681  0.0421 -0.4361 -1.0791
   87SLPC    HY 8354   3.278   6.433   2.724  0.7177  0.4568  2.3378
   87SLPC   O31 8355   3.264   6.290   2.876  0.5715  0.3129 -0.8554
   87SLPC   C31 8356   3.362   6.334   2.946  0.0238  0.0436 -0.1705
   87SLPC   O32 8357   3.451   6.408   2.902  0.6974  0.6014  0.2128
   87SLPC   C32 8358   3.350   6.280   3.089 -0.4093 -0.5086  0.2605
   87SLPC   H2X 8359   3.359   6.169   3.089 -2.6309 -0.8411 -2.9752
   87SLPC   H2Y 8360   3.252   6.310   3.131 -0.9697 -1.0556 -0.6324
   87SLPC   C23 8361   3.332   5.804   2.822  0.1516 -0.2612 -0.3923
   87SLPC   H3R 8362   3.438   5.809   2.854  0.2548 -1.8828 -0.4160
   87SLPC   H3S 8363   3.320   5.696   2.801  1.1245 -0.3599 -0.4796
   87SLPC   C24 8364   3.241   5.852   2.936  0.0988 -0.2489 -0.9657
   87SLPC   H4R 8365   3.143   5.871   2.888 -0.2615  2.6688  0.7071
   87SLPC   H4S 8366   3.279   5.950   2.970 -2.5731  0.1986  1.1280
   87SLPC   C25 8367   3.213   5.748   3.049 -0.2895  0.0214 -0.4363
   87SLPC   H5R 8368   3.307   5.727   3.103 -0.5455  0.1337  0.0639
   87SLPC   H5S 8369   3.165   5.656   3.009 -1.4628 -0.2943  1.5454
   87SLPC   C26 8370   3.101   5.806   3.139  0.1153 -0.8147  0.7488
   87SLPC   H6R 8371   3.008   5.816   3.079  0.6219 -1.6464 -0.2298
   87SLPC   H6S 8372   3.145   5.908   3.142  1.4977 -1.3700  0.2494
   87SLPC   C27 8373   3.080   5.760   3.282 -0.1853 -0.2825  0.7703
   87SLPC   H7R 8374   3.090   5.649   3.284  1.0365 -0.1806  2.6790
   87SLPC   H7S 8375   2.982   5.798   3.315  0.1244  0.6981  0.5768
   87SLPC   C28 8376   3.188   5.824   3.375 -0.6473  0.3024  0.1732
   87SLPC   H8R 8377   3.178   5.935   3.369 -0.4648  0.3675  0.9419
   87SLPC   H8S 8378   3.289   5.790   3.346 -1.1627 -1.9375  0.8126
   87SLPC   C29 8379   3.179   5.787   3.525  0.0318  1.2565  0.2034
   87SLPC   H9R 8380   3.211   5.684   3.542  0.8131  1.3773 -0.4682
   87SLPC  C210 8381   3.172   5.871   3.624  0.2531  0.0087 -0.9675
   87SLPC  H10R 8382   3.153   5.823   3.722 -0.7222 -0.0347 -1.1727
   87SLPC  C211 8383   3.173   6.016   3.623 -0.1240  0.2288  0.3609
   87SLPC  H11R 8384   3.074   6.058   3.652 -0.1799  0.8892 -0.7377
   87SLPC  H11S 8385   3.178   6.054   3.518  2.8437 -1.5366 -0.2414
   87SLPC  C212 8386   3.294   6.082   3.689 -0.0200  0.3522  0.3130
   87SLPC  H12R 8387   3.367   6.119   3.616  0.3843  0.3321  0.6981
   87SLPC  C213 8388   3.329   6.097   3.817 -0.4383 -0.1803  0.0647
   87SLPC  H13R 8389   3.430   6.124   3.852  0.0318 -1.7568  0.0521
   87SLPC  C214 8390   3.242   6.063   3.930  0.8122 -0.0287 -0.0227
   87SLPC  H14R 8391   3.139   6.028   3.907  0.4940 -0.4753  1.8606
   87SLPC  H14S 8392   3.217   6.156   3.985  1.6220  0.5857 -0.6694
   87SLPC  C215 8393   3.290   5.947   4.027 -1.0916  0.2976  0.3088
   87SLPC  H15R 8394   3.301   5.864   3.954  4.3280  2.6322 -2.0141
   87SLPC  H15S 8395   3.211   5.920   4.101  1.4476  0.3683  3.2215
   87SLPC  C216 8396   3.424   5.977   4.097 -0.3399 -0.9743 -0.4748
   87SLPC  H16R 8397   3.406   6.029   4.194 -1.2105 -0.3139 -0.9740
   87SLPC  H16S 8398   3.484   6.050   4.039  1.3691 -1.0026  1.1933
   87SLPC  C217 8399   3.501   5.853   4.147 -0.7466 -0.1126  0.0705
   87SLPC  H17R 8400   3.571   5.885   4.227 -1.1358  0.8168  0.0568
   87SLPC  H17S 8401   3.549   5.810   4.056 -1.0738  0.4402 -0.3702
   87SLPC  C218 8402   3.419   5.752   4.210 -0.1164 -0.5488 -0.3067
   87SLPC  H18R 8403   3.379   5.781   4.309  0.2427 -0.2066 -0.2607
   87SLPC  H18S 8404   3.492   5.671   4.228 -0.2885 -0.8520 -0.9280
   87SLPC  H18T 8405   3.346   5.706   4.140  0.4588 -1.1953 -0.4829
   87SLPC   C33 8406   3.459   6.343   3.179  0.3732  0.1207 -0.2071
   87SLPC   H3X 8407   3.462   6.453   3.170 -2.4325  0.2458 -0.3325
   87SLPC   H3Y 8408   3.562   6.318   3.145  0.8717  1.6634  0.1140
   87SLPC   C34 8409   3.447   6.331   3.332  0.2645 -0.6574  0.1337
   87SLPC   H4X 8410   3.457   6.223   3.356 -0.1115 -1.3236 -2.4326
   87SLPC   H4Y 8411   3.343   6.362   3.354  0.4141  0.6222 -0.8217
   87SLPC   C35 8412   3.557   6.395   3.424 -0.1408  0.6188  0.1483
   87SLPC   H5X 8413   3.558   6.506   3.416 -0.6457  0.7696  1.8935
   87SLPC   H5Y 8414   3.654   6.352   3.390  0.1085 -0.8302  2.5128
   87SLPC   C36 8415   3.541   6.333   3.563 -0.5299 -0.3849  0.3445
   87SLPC   H6X 8416   3.561   6.223   3.562 -1.6691 -0.5943 -0.2091
   87SLPC   H6Y 8417   3.437   6.348   3.598 -0.6192  1.0191 -0.4502
   87SLPC   C37 8418   3.633   6.388   3.664 -0.8321 -0.0435 -0.3349
   87SLPC   H7X 8419   3.625   6.499   3.664 -0.6802 -0.0291 -1.1455
   87SLPC   H7Y 8420   3.742   6.368   3.649 -1.0541 -1.4107 -0.2481
   87SLPC   C38 8421   3.603   6.336   3.805  0.3743  0.2963  0.2286
   87SLPC   H8X 8422   3.601   6.226   3.815  1.7383  0.3951  2.4524
   87SLPC   H8Y 8423   3.503   6.366   3.843 -0.7552 -1.2071 -1.4090
   87SLPC   C39 8424   3.701   6.383   3.910 -0.1096 -0.6842  0.1758
   87SLPC   H9X 8425   3.764   6.467   3.874 -0.4061 -0.3061  0.5274
   87SLPC   H9Y 8426   3.769   6.304   3.948 -0.6921 -0.4845  1.7131
   87SLPC  C310 8427   3.623   6.453   4.027  0.2829  0.2693 -0.6538
   87SLPC  H10X 8428   3.561   6.379   4.082  0.7612 -0.6029 -1.2550
   87SLPC  H10Y 8429   3.557   6.534   3.990 -2.0035 -1.1403  0.1748
   87SLPC  C311 8430   3.720   6.504   4.137  0.5372 -0.0319  0.2656
   87SLPC  H11X 8431   3.664   6.578   4.198 -0.0488 -1.2213  1.2016
   87SLPC  H11Y 8432   3.806   6.563   4.100  1.1579 -1.0731  0.0131
   87SLPC  C312 8433   3.786   6.384   4.212  0.5055 -0.3865 -0.9453
   87SLPC  H12X 8434   3.867   6.343   4.149  0.4508 -0.2386 -1.1138
   87SLPC  H12Y 8435   3.706   6.307   4.215  1.9213 -1.8896 -0.4469
   87SLPC  C313 8436   3.830   6.407   4.354 -1.1800 -0.2723  0.1687
   87SLPC  H13X 8437   3.853   6.310   4.403  2.1667  0.4949  0.3288
   87SLPC  H13Y 8438   3.748   6.464   4.403  0.0009  0.7946  0.9942
   87SLPC  C314 8439   3.960   6.484   4.349 -0.2343 -0.6071 -0.0599
   87SLPC  H14X 8440   3.961   6.561   4.270  1.7249 -0.1185  0.3831
   87SLPC  H14Y 8441   4.040   6.415   4.315  0.3567 -0.0731  0.2134
   87SLPC  C315 8442   4.001   6.553   4.486  0.8398 -0.0838 -1.1024
   87SLPC  H15X 8443   3.925   6.630   4.510  1.5328  1.5565 -3.6894
   87SLPC  H15Y 8444   4.094   6.610   4.462  0.1906  1.5390  0.0877
   87SLPC  C316 8445   4.030   6.459   4.607  0.2560  0.3254  0.7031
   87SLPC  H16X 8446   3.940   6.402   4.640  0.1182 -0.5217 -1.0432
   87SLPC  H16Y 8447   4.076   6.520   4.687  1.5301  2.4854 -1.5666
   87SLPC  C317 8448   4.114   6.339   4.579 -0.4051  0.3538  0.5178
   87SLPC  H17X 8449   4.200   6.368   4.514 -2.2519  1.8626 -1.3911
   87SLPC  H17Y 8450   4.057   6.270   4.514  0.6772  0.9560 -1.1357
   87SLPC  C318 8451   4.166   6.247   4.700  0.0351 -0.8145  0.4757
   87SLPC  H18X 8452   4.236   6.165   4.672  2.1256  0.6428  1.2267
   87SLPC  H18Y 8453   4.079   6.208   4.756  0.7646 -0.1374  2.1198
   87SLPC  H18Z 8454   4.236   6.305   4.764  0.6447 -1.4107  0.3651
   88SLPC     N 8455   3.962   4.760   2.340  0.1416 -0.2709 -0.2681
   88SLPC   C13 8456   4.028   4.646   2.414 -0.1425 -0.4266  0.8415
   88SLPC  H13A 8457   3.952   4.582   2.454 -0.3143  0.1975  1.5300
   88SLPC  H13B 8458   4.085   4.583   2.347 -1.3686 -0.0165 -0.6473
   88SLPC  H13C 8459   4.086   4.687   2.496 -0.4941  1.5256  0.1848
   88SLPC   C14 8460   3.847   4.703   2.257  0.5611 -0.6136  0.0661
   88SLPC  H14A 8461   3.804   4.771   2.184 -1.8927 -1.9515  0.1514
   88SLPC  H14B 8462   3.889   4.622   2.199  0.9848 -0.8176  0.6508
   88SLPC  H14C 8463   3.773   4.653   2.317 -1.2869 -1.4166 -2.6831
   88SLPC   C15 8464   4.064   4.836   2.259  0.4569 -0.2758 -0.6712
   88SLPC  H15A 8465   4.125   4.895   2.325  0.8134  1.5225 -2.5249
   88SLPC  H15B 8466   4.131   4.772   2.203  0.8301 -1.1120  0.6767
   88SLPC  H15C 8467   4.019   4.909   2.194 -1.3772 -1.0412 -0.3279
   88SLPC   C12 8468   3.902   4.859   2.441  0.2384  0.6607 -0.1107
   88SLPC  H12A 8469   3.823   4.815   2.500  0.4490  0.8862  0.3419
   88SLPC  H12B 8470   3.855   4.941   2.391 -0.0248  2.6463  3.0970
   88SLPC   C11 8471   3.998   4.922   2.543 -0.7571 -0.9464 -0.3154
   88SLPC  H11A 8472   3.952   5.008   2.597  2.2897 -0.9664  2.6581
   88SLPC  H11B 8473   4.083   4.972   2.492 -0.0608 -1.4245  0.3508
   88SLPC     P 8474   3.944   4.785   2.766 -0.3066  0.1168 -0.2819
   88SLPC   O13 8475   3.817   4.732   2.717 -0.3392 -0.2436  0.3209
   88SLPC   O14 8476   4.020   4.697   2.855  0.3272 -0.0058 -0.6774
   88SLPC   O12 8477   4.036   4.830   2.642 -0.0552  0.6020  0.7009
   88SLPC   O11 8478   3.913   4.926   2.834  0.4546  0.0638  0.0225
   88SLPC    C1 8479   4.018   5.022   2.865 -0.3619 -0.4804  0.0962
   88SLPC    HA 8480   4.105   5.032   2.797  0.3616 -0.5284  0.9939
   88SLPC    HB 8481   3.976   5.124   2.880  0.1969 -0.0532 -1.1412
   88SLPC    C2 8482   4.082   4.991   3.000 -0.9150  0.2898  1.2477
   88SLPC    HS 8483   4.117   4.886   2.992 -1.0084  0.3146  0.3837
   88SLPC   O21 8484   3.978   5.016   3.104  0.2442 -0.2115  0.8175
   88SLPC   C21 8485   3.962   4.908   3.179  0.5382  0.5210 -0.3523
   88SLPC   O22 8486   4.019   4.803   3.175 -0.3159  0.4449 -0.1376
   88SLPC   C22 8487   3.846   4.927   3.269 -0.1460 -0.3875 -0.5820
   88SLPC   H2R 8488   3.763   4.969   3.209 -1.0358 -2.1709 -0.6501
   88SLPC   H2S 8489   3.823   4.826   3.307  0.3428 -0.3617 -0.2006
   88SLPC    C3 8490   4.198   5.090   3.027  0.4684 -0.1951  0.6737
   88SLPC    HX 8491   4.158   5.194   3.030 -0.6820 -0.5991  4.3549
   88SLPC    HY 8492   4.256   5.079   2.933 -1.8426 -1.4710 -0.7284
   88SLPC   O31 8493   4.268   5.073   3.154  0.5875 -0.0189  0.0051
   88SLPC   C31 8494   4.363   4.983   3.157 -0.2244  0.0400  0.0815
   88SLPC   O32 8495   4.390   4.900   3.071 -0.0579  0.0345 -0.7232
   88SLPC   C32 8496   4.433   4.991   3.293 -0.5336  0.5650 -0.2724
   88SLPC   H2X 8497   4.356   4.965   3.368  2.2897 -0.1179  2.6018
   88SLPC   H2Y 8498   4.469   5.095   3.305 -3.3234  1.6880 -0.8269
   88SLPC   C23 8499   3.876   5.026   3.389 -0.9028  0.6400  0.0399
   88SLPC   H3R 8500   3.780   5.062   3.432 -0.8229  0.1099  0.6824
   88SLPC   H3S 8501   3.929   5.116   3.351  1.0305 -0.8759 -0.9905
   88SLPC   C24 8502   3.958   4.961   3.494 -0.0367 -0.0973  0.2143
   88SLPC   H4R 8503   4.043   4.902   3.452 -1.0468 -0.9644 -0.6509
   88SLPC   H4S 8504   3.894   4.887   3.546 -1.0758  0.2554 -0.5282
   88SLPC   C25 8505   4.018   5.048   3.609 -0.3595  0.6651  0.0575
   88SLPC   H5R 8506   3.948   5.118   3.659 -2.6134 -1.8472  0.6807
   88SLPC   H5S 8507   4.097   5.106   3.557 -1.9788  2.4690 -0.4723
   88SLPC   C26 8508   4.087   4.950   3.708 -0.4982 -0.0259  0.0400
   88SLPC   H6R 8509   4.153   4.878   3.655 -1.0593 -1.1544  0.8338
   88SLPC   H6S 8510   4.004   4.894   3.755 -1.5143  0.6012 -0.9631
   88SLPC   C27 8511   4.176   5.022   3.807 -0.0913 -0.4839  0.2567
   88SLPC   H7R 8512   4.118   5.067   3.890 -1.1546 -0.2103 -0.6083
   88SLPC   H7S 8513   4.234   5.105   3.760  2.5057 -1.7548  1.0391
   88SLPC   C28 8514   4.285   4.930   3.861  0.4910 -0.7383 -0.3259
   88SLPC   H8R 8515   4.349   4.904   3.774  2.2782  0.3044  0.6138
   88SLPC   H8S 8516   4.246   4.834   3.901 -1.5759 -0.1936 -0.9125
   88SLPC   C29 8517   4.361   5.006   3.962 -0.0118 -0.3354  0.2050
   88SLPC   H9R 8518   4.368   5.113   3.940  1.3265 -0.8308 -2.1757
   88SLPC  C210 8519   4.424   4.950   4.069 -0.0363  0.0398  0.5524
   88SLPC  H10R 8520   4.480   5.017   4.136  0.4697  0.8013 -0.5972
   88SLPC  C211 8521   4.415   4.805   4.111 -0.3650 -0.4722 -0.0233
   88SLPC  H11R 8522   4.517   4.768   4.137 -1.0573 -2.0411  0.6162
   88SLPC  H11S 8523   4.392   4.740   4.024 -1.9254  0.0325 -0.0123
   88SLPC  C212 8524   4.314   4.777   4.214  0.1452  0.1536 -0.4314
   88SLPC  H12R 8525   4.214   4.745   4.180  0.3629  1.6188 -2.6606
   88SLPC  C213 8526   4.335   4.796   4.346  0.1717 -0.4247 -0.3542
   88SLPC  H13R 8527   4.266   4.756   4.422  1.4205  1.4831  1.9162
   88SLPC  C214 8528   4.473   4.838   4.400  0.2102 -0.2548  0.2370
   88SLPC  H14R 8529   4.483   4.942   4.363 -2.6472 -0.2976 -0.9078
   88SLPC  H14S 8530   4.558   4.780   4.359 -0.6564  0.0111 -2.0838
   88SLPC  C215 8531   4.487   4.829   4.551 -0.5608  0.0991 -0.3727
   88SLPC  H15R 8532   4.455   4.729   4.584 -0.1822 -0.1152 -0.6446
   88SLPC  H15S 8533   4.412   4.900   4.591 -0.3556 -0.4112  0.9780
   88SLPC  C216 8534   4.622   4.867   4.610 -0.4325 -0.1607 -0.3012
   88SLPC  H16R 8535   4.638   4.976   4.619  0.7843 -0.0859 -2.6519
   88SLPC  H16S 8536   4.686   4.834   4.525  3.4558  0.9742  1.9378
   88SLPC  C217 8537   4.653   4.803   4.746  0.0821 -0.4417  0.1539
   88SLPC  H17R 8538   4.635   4.694   4.728 -0.0707 -0.0134 -2.7618
   88SLPC  H17S 8539   4.580   4.842   4.820  1.0148  1.0972  0.3040
   88SLPC  C218 8540   4.793   4.829   4.805 -0.5241 -0.3035 -0.0698
   88SLPC  H18R 8541   4.872   4.788   4.738 -0.4605 -1.7477  0.8646
   88SLPC  H18S 8542   4.789   4.774   4.901  0.7872  0.7953  0.6393
   88SLPC  H18T 8543   4.819   4.936   4.821  0.0216 -0.7590  2.3938
   88SLPC   C33 8544   4.543   4.891   3.315  0.5108  0.1908  0.4146
   88SLPC   H3X 8545   4.633   4.933   3.265  1.4539 -2.1157  0.0450
   88SLPC   H3Y 8546   4.517   4.792   3.271 -1.6159  1.1092 -0.5300
   88SLPC   C34 8547   4.576   4.871   3.466 -0.0808 -0.6199  0.0456
   88SLPC   H4X 8548   4.484   4.869   3.529  0.0533 -1.0613  0.2287
   88SLPC   H4Y 8549   4.612   4.971   3.499 -1.1399 -0.6991  1.5340
   88SLPC   C35 8550   4.670   4.758   3.501  0.0522  0.2493  0.1873
   88SLPC   H5X 8551   4.748   4.746   3.423 -1.7812  0.6585 -1.7929
   88SLPC   H5Y 8552   4.601   4.672   3.508  0.7179 -0.4262 -1.2283
   88SLPC   C36 8553   4.745   4.768   3.629 -0.3885 -0.2809 -0.4199
   88SLPC   H6X 8554   4.807   4.859   3.639 -0.0441 -0.1804 -2.8692
   88SLPC   H6Y 8555   4.813   4.680   3.634  0.1380  0.0489 -1.5460
   88SLPC   C37 8556   4.658   4.778   3.751 -0.8352 -0.1034 -0.0270
   88SLPC   H7X 8557   4.597   4.690   3.778 -0.8596  0.2957  1.3124
   88SLPC   H7Y 8558   4.591   4.864   3.732 -0.1180 -0.3162 -4.6622
   88SLPC   C38 8559   4.736   4.805   3.886  0.1232  0.4540  0.1592
   88SLPC   H8X 8560   4.659   4.840   3.958 -0.8358  0.4667 -0.8643
   88SLPC   H8Y 8561   4.812   4.886   3.875 -0.6472  1.0103 -1.3074
   88SLPC   C39 8562   4.807   4.672   3.933 -0.1069  0.1490 -0.0416
   88SLPC   H9X 8563   4.874   4.649   3.847  1.0872  0.6332  0.7259
   88SLPC   H9Y 8564   4.731   4.596   3.962  0.5390 -0.7468 -0.6432
   88SLPC  C310 8565   4.892   4.703   4.061  0.2646  0.2360 -0.9051
   88SLPC  H10X 8566   4.952   4.792   4.031 -0.5461  0.2988 -2.4683
   88SLPC  H10Y 8567   4.966   4.621   4.074 -0.5310 -0.0420  3.0916
   88SLPC  C311 8568   4.815   4.723   4.188  0.0751  0.8351 -0.7811
   88SLPC  H11X 8569   4.753   4.632   4.200  1.1438 -0.0904 -1.8973
   88SLPC  H11Y 8570   4.753   4.815   4.189 -0.5559  0.4158 -0.0534
   88SLPC  C312 8571   4.916   4.756   4.304 -0.6381  0.2638  0.0647
   88SLPC  H12X 8572   5.004   4.689   4.297  0.0454  1.3152 -2.6484
   88SLPC  H12Y 8573   4.860   4.733   4.397 -0.2534 -1.0977 -0.0157
   88SLPC  C313 8574   4.959   4.903   4.310 -0.3984  0.3216  0.2428
   88SLPC  H13X 8575   4.874   4.956   4.357 -2.2691 -2.0935 -0.2258
   88SLPC  H13Y 8576   4.966   4.951   4.210  0.8146  3.1443  1.5788
   88SLPC  C314 8577   5.083   4.943   4.387  0.3598  0.1787  0.2201
   88SLPC  H14X 8578   5.108   5.048   4.360 -0.4424  0.2644 -0.2185
   88SLPC  H14Y 8579   5.165   4.876   4.353 -0.3908 -0.5718 -0.1664
   88SLPC  C315 8580   5.048   4.945   4.536  0.6118 -0.0202 -0.0744
   88SLPC  H15X 8581   5.001   4.850   4.568  1.3857 -0.4002 -0.0238
   88SLPC  H15Y 8582   4.973   5.023   4.559 -0.8623 -1.5639  0.5399
   88SLPC  C316 8583   5.171   4.963   4.627 -0.0674 -0.1884  1.2086
   88SLPC  H16X 8584   5.255   4.896   4.599 -1.3046 -0.7412 -1.4779
   88SLPC  H16Y 8585   5.138   4.928   4.727 -0.3226 -3.7979  0.0081
   88SLPC  C317 8586   5.209   5.110   4.627 -0.3242  0.6262 -0.1800
   88SLPC  H17X 8587   5.112   5.160   4.650  0.1489  1.2959  0.3998
   88SLPC  H17Y 8588   5.234   5.138   4.523 -1.1702  1.2037 -0.2396
   88SLPC  C318 8589   5.301   5.150   4.741 -0.3702  0.2963 -0.2825
   88SLPC  H18X 8590   5.311   5.260   4.742 -0.3863  0.2946  0.7285
   88SLPC  H18Y 8591   5.403   5.105   4.743  0.0099  1.1513  0.8057
   88SLPC  H18Z 8592   5.255   5.125   4.839  0.6079  0.8250  0.3299
   89SAPE     N 8593   1.202   0.539   6.721  0.3296 -0.1025 -0.2110
   89SAPE   HN1 8594   1.202   0.555   6.824  2.3280  0.6566 -0.2819
   89SAPE   HN2 8595   1.147   0.622   6.691 -1.8819 -1.3933  0.0692
   89SAPE   HN3 8596   1.132   0.464   6.705 -0.6164  0.2176  1.9925
   89SAPE   C12 8597   1.343   0.540   6.674  0.6195 -0.2577  0.2989
   89SAPE  H12A 8598   1.333   0.500   6.571  0.3516  3.5397 -1.2941
   89SAPE  H12B 8599   1.389   0.461   6.737 -2.2709 -1.4639  1.0992
   89SAPE   C11 8600   1.420   0.676   6.693 -0.3349  0.5948  0.3435
   89SAPE  H11A 8601   1.403   0.752   6.614 -0.0070  1.5856  1.1986
   89SAPE  H11B 8602   1.528   0.656   6.676 -0.7012 -1.4912  0.1784
   89SAPE     P 8603   1.494   0.710   6.939 -0.2297  0.5551  0.1615
   89SAPE   O13 8604   1.479   0.818   7.042  0.0066 -0.5523 -0.3214
   89SAPE   O14 8605   1.461   0.572   6.980 -0.2043 -0.1559 -0.3309
   89SAPE   O12 8606   1.401   0.740   6.817 -0.4353 -0.3021 -0.3531
   89SAPE   O11 8607   1.638   0.720   6.861 -0.2535 -0.3528 -0.0554
   89SAPE    C1 8608   1.668   0.856   6.824 -0.2477 -0.4671  0.0434
   89SAPE    HA 8609   1.584   0.903   6.769 -2.2034 -2.9108  0.8022
   89SAPE    HB 8610   1.687   0.912   6.919  0.4307 -0.6723  0.0390
   89SAPE    C2 8611   1.797   0.870   6.737 -0.4653 -0.3491  0.1192
   89SAPE    HS 8612   1.813   0.979   6.720 -3.4024 -0.2258 -3.0959
   89SAPE   O21 8613   1.802   0.799   6.614 -0.0949  0.4476  0.0026
   89SAPE   C21 8614   1.716   0.840   6.521  0.2837  1.1574  0.2817
   89SAPE   O22 8615   1.663   0.945   6.508 -0.3666 -0.1847 -0.0935
   89SAPE   C22 8616   1.720   0.733   6.412  0.3617  0.0885 -0.3373
   89SAPE   H2R 8617   1.734   0.786   6.315 -1.7891 -0.4369 -1.0004
   89SAPE   H2S 8618   1.800   0.659   6.433  0.5628  0.6272  0.8746
   89SAPE    C3 8619   1.922   0.817   6.819 -0.5567 -0.2244 -0.5183
   89SAPE    HX 8620   1.891   0.720   6.863  1.6463  0.2260  2.3364
   89SAPE    HY 8621   1.938   0.885   6.905 -1.1112  0.4181 -0.9135
   89SAPE   O31 8622   2.049   0.804   6.743 -0.4775  0.4763 -0.1685
   89SAPE   C31 8623   2.075   0.682   6.698 -0.4193 -0.1280  0.7941
   89SAPE   O32 8624   2.017   0.578   6.729  0.1434  0.1605  0.1765
   89SAPE   C32 8625   2.178   0.687   6.586  0.1020 -0.6168  0.3965
   89SAPE   H2X 8626   2.233   0.591   6.594  0.5393 -0.2987  1.2901
   89SAPE   H2Y 8627   2.248   0.773   6.597 -0.9581  0.1853  1.0151
   89SAPE   C23 8628   1.585   0.660   6.379  0.4114 -0.1547  0.0667
   89SAPE   H3R 8629   1.504   0.735   6.369  0.5880  0.1600  0.9334
   89SAPE   H3S 8630   1.571   0.588   6.462  2.0343  0.6256  1.0733
   89SAPE   C24 8631   1.593   0.590   6.248 -0.4915 -0.2000 -0.0925
   89SAPE   H4R 8632   1.681   0.522   6.237  0.1894  0.8474 -1.2652
   89SAPE   H4S 8633   1.608   0.671   6.175 -1.9103  0.3681  0.2015
   89SAPE   C25 8634   1.468   0.506   6.222  0.1633  0.3876 -0.0874
   89SAPE   H5R 8635   1.436   0.447   6.309 -0.0738  1.2691  0.4386
   89SAPE   C26 8636   1.383   0.514   6.113 -0.3831 -0.0422 -0.4890
   89SAPE   H6R 8637   1.296   0.448   6.096 -0.3345  0.2046 -1.8098
   89SAPE   C27 8638   1.409   0.602   5.997  0.1169  0.2269 -0.7617
   89SAPE   H7R 8639   1.417   0.709   6.027 -2.2665  0.1521  0.3031
   89SAPE   H7S 8640   1.319   0.617   5.933 -1.1638  0.8307  1.1121
   89SAPE   C28 8641   1.516   0.541   5.908  0.0592  0.2370 -0.8692
   89SAPE   H8R 8642   1.609   0.537   5.968 -0.2032  1.7587 -0.2961
   89SAPE   C29 8643   1.506   0.501   5.779 -0.1957  0.6408 -0.4956
   89SAPE   H9R 8644   1.599   0.473   5.728  1.1939  1.3165  1.5408
   89SAPE  C210 8645   1.396   0.525   5.673 -0.3004  1.0082 -0.9292
   89SAPE  H10R 8646   1.434   0.575   5.581 -0.5422 -0.5615 -1.9374
   89SAPE  H10S 8647   1.318   0.594   5.712 -1.6832  0.3429 -2.3741
   89SAPE  C211 8648   1.329   0.398   5.629 -0.2428 -0.1990 -0.5183
   89SAPE  H11R 8649   1.388   0.307   5.647  0.5086  0.3532 -0.1048
   89SAPE  C212 8650   1.210   0.398   5.576 -0.2200 -0.0083  0.1262
   89SAPE  H12R 8651   1.179   0.301   5.536  1.1032 -0.0930 -0.7707
   89SAPE  C213 8652   1.122   0.516   5.546  0.5252  0.3129 -1.0831
   89SAPE  H13R 8653   1.034   0.466   5.501 -0.2557  0.9554 -0.3045
   89SAPE  H13S 8654   1.158   0.574   5.459 -2.1781  0.6134 -2.1096
   89SAPE  C214 8655   1.063   0.606   5.653 -0.2569  0.1542  0.7422
   89SAPE  H14R 8656   1.025   0.554   5.742 -1.5375  1.2941  0.9017
   89SAPE  C215 8657   1.077   0.741   5.661 -0.3081 -0.6909  0.4160
   89SAPE  H15R 8658   1.019   0.799   5.734 -0.4167  0.9115 -0.8768
   89SAPE  C216 8659   1.162   0.825   5.566  0.0430 -0.0190 -0.2805
   89SAPE  H16R 8660   1.097   0.901   5.517  0.3119 -1.1509 -2.5542
   89SAPE  H16S 8661   1.189   0.765   5.476 -1.5411  0.2563 -0.9834
   89SAPE  C217 8662   1.269   0.921   5.612  0.3318  0.7815 -0.5214
   89SAPE  H17R 8663   1.327   0.973   5.532  1.9130  0.3849  0.3286
   89SAPE  H17S 8664   1.338   0.854   5.668 -0.5315  0.4828  0.2072
   89SAPE  C218 8665   1.226   1.026   5.716  0.7120 -0.6407 -0.0621
   89SAPE  H18R 8666   1.163   0.975   5.791 -2.3257  1.1988 -1.1992
   89SAPE  H18S 8667   1.153   1.096   5.671 -0.8735 -1.5512  1.0303
   89SAPE  C219 8668   1.335   1.107   5.786  0.2414  0.4619  0.1381
   89SAPE  H19R 8669   1.422   1.045   5.815  0.8336  0.5898 -1.3096
   89SAPE  H19S 8670   1.289   1.147   5.879 -0.7230  1.3323 -0.6904
   89SAPE  C220 8671   1.390   1.229   5.713 -0.2807 -0.4966  0.1308
   89SAPE  H20R 8672   1.450   1.204   5.623  0.7418  0.8764  0.3871
   89SAPE  H20S 8673   1.464   1.284   5.775  1.2655 -0.8297 -1.3425
   89SAPE  H20T 8674   1.312   1.302   5.684  0.5286  0.3844  0.1059
   89SAPE   C33 8675   2.110   0.692   6.446  0.1379  0.6385  0.9817
   89SAPE   H3X 8676   2.035   0.773   6.462  0.5418  0.8423  1.8955
   89SAPE   H3Y 8677   2.049   0.601   6.426  0.2781  0.9147 -0.9543
   89SAPE   C34 8678   2.194   0.730   6.325  0.6355  0.8283 -0.3670
   89SAPE   H4X 8679   2.261   0.650   6.288  1.0761  0.1297  1.8439
   89SAPE   H4Y 8680   2.247   0.824   6.351 -0.2674  1.4367 -0.6608
   89SAPE   C35 8681   2.098   0.760   6.208  0.6675  0.1078 -0.1403
   89SAPE   H5X 8682   2.024   0.837   6.238 -0.5541 -0.3052 -1.8900
   89SAPE   H5Y 8683   2.030   0.673   6.197  0.9902 -0.2943  0.8915
   89SAPE   C36 8684   2.170   0.799   6.084  0.6323  0.5044 -0.1813
   89SAPE   H6X 8685   2.212   0.717   6.023 -1.0818 -0.5014 -0.0774
   89SAPE   H6Y 8686   2.256   0.853   6.130  1.5095  0.6731 -1.9275
   89SAPE   C37 8687   2.096   0.893   5.998  0.4996  0.6996  0.0209
   89SAPE   H7X 8688   2.082   0.991   6.048  1.0896 -0.0298  1.7043
   89SAPE   H7Y 8689   1.998   0.844   5.976  0.6424 -0.2206  1.3110
   89SAPE   C38 8690   2.170   0.934   5.870  0.0183 -0.1458  0.3307
   89SAPE   H8X 8691   2.208   0.843   5.817 -0.0161  1.7714 -3.2837
   89SAPE   H8Y 8692   2.239   1.017   5.894 -3.3667  2.2606  2.7030
   89SAPE   C39 8693   2.088   1.007   5.766 -0.8632 -0.0210  0.0049
   89SAPE   H9X 8694   2.064   1.113   5.788 -0.9624 -0.0177 -0.1196
   89SAPE   H9Y 8695   1.991   0.955   5.753 -0.6262 -0.3644 -0.4070
   89SAPE  C310 8696   2.141   1.010   5.619  0.5195  0.2505  0.8000
   89SAPE  H10X 8697   2.150   0.905   5.582 -3.2715 -0.0356  0.3463
   89SAPE  H10Y 8698   2.244   1.047   5.599  1.3118 -1.9403  0.4911
   89SAPE  C311 8699   2.041   1.080   5.522  0.5606  0.3506 -0.3434
   89SAPE  H11X 8700   2.038   1.188   5.547  2.1184  0.2642  0.3543
   89SAPE  H11Y 8701   1.938   1.046   5.546  0.4083 -1.0163 -2.6264
   89SAPE  C312 8702   2.059   1.037   5.381 -0.0279  0.0410  0.1208
   89SAPE  H12X 8703   2.076   0.927   5.379 -1.7270 -0.3000  1.6984
   89SAPE  H12Y 8704   2.142   1.098   5.339  1.2722 -0.1568  2.2503
   89SAPE  C313 8705   1.930   1.083   5.294 -0.5548 -0.3976  0.1223
   89SAPE  H13X 8706   1.910   1.190   5.313  1.3269 -0.3013  1.8613
   89SAPE  H13Y 8707   1.839   1.031   5.331 -1.3754 -0.0258 -1.3085
   89SAPE  C314 8708   1.956   1.053   5.146 -0.5493 -0.1678  0.5740
   89SAPE  H14X 8709   1.942   0.944   5.133  3.6043 -0.8292  0.4668
   89SAPE  H14Y 8710   2.060   1.081   5.120 -1.2257  2.0548  0.0012
   89SAPE  C315 8711   1.850   1.128   5.051  0.2030  0.6304 -0.2512
   89SAPE  H15X 8712   1.847   1.237   5.071 -1.0671  0.2254  2.0669
   89SAPE  H15Y 8713   1.750   1.087   5.075  0.1142  1.0620  0.1165
   89SAPE  C316 8714   1.866   1.099   4.901  0.3631 -0.0388  0.0570
   89SAPE  H16X 8715   1.865   0.989   4.882 -1.2121  0.0366 -0.4458
   89SAPE  H16Y 8716   1.962   1.137   4.860 -1.7351  1.8109 -3.6020
   89SAPE  C317 8717   1.740   1.160   4.832 -0.5489  0.2871 -0.1438
   89SAPE  H17X 8718   1.647   1.119   4.876 -1.5527  1.9253 -0.6440
   89SAPE  H17Y 8719   1.748   1.124   4.727 -2.7716  0.4268 -0.4207
   89SAPE  C318 8720   1.734   1.310   4.835 -0.2154 -0.4658 -0.0042
   89SAPE  H18X 8721   1.704   1.356   4.932  0.5804 -0.1830  0.1129
   89SAPE  H18Y 8722   1.661   1.352   4.762  1.5039  0.6864 -1.1387
   89SAPE  H18Z 8723   1.837   1.344   4.811 -0.8581  0.7341 -1.1986
   90SAPE     N 8724   5.245   4.814   7.077  0.7236  0.0656  0.6578
   90SAPE   HN1 8725   5.145   4.836   7.061  1.4220  3.7640  0.4979
   90SAPE   HN2 8726   5.293   4.816   6.985  0.1532  2.9032  0.3265
   90SAPE   HN3 8727   5.258   4.717   7.114  1.4338 -0.3270 -0.5589
   90SAPE   C12 8728   5.286   4.927   7.170 -0.3626  0.2644  0.0589
   90SAPE  H12A 8729   5.394   4.908   7.187 -0.8903 -4.1215 -0.1450
   90SAPE  H12B 8730   5.224   4.913   7.261  0.8489 -1.9644  0.6207
   90SAPE   C11 8731   5.254   5.060   7.110  0.4041  0.2167  0.4580
   90SAPE  H11A 8732   5.289   5.143   7.176  1.4064  0.0853  0.1126
   90SAPE  H11B 8733   5.144   5.075   7.105  0.1157 -1.9364 -0.3773
   90SAPE     P 8734   5.283   5.202   6.892 -0.4544  0.2837  0.2276
   90SAPE   O13 8735   5.218   5.308   6.973  0.3207  0.2713 -0.8609
   90SAPE   O14 8736   5.409   5.235   6.829 -0.6440 -0.0450  0.0615
   90SAPE   O12 8737   5.306   5.076   6.983 -0.3351 -0.4797 -0.3641
   90SAPE   O11 8738   5.179   5.156   6.778  0.1834 -0.1251 -0.0739
   90SAPE    C1 8739   5.218   5.031   6.716 -0.0500  0.2130 -0.4941
   90SAPE    HA 8740   5.320   4.997   6.741 -0.4831 -0.0038  1.1157
   90SAPE    HB 8741   5.140   4.952   6.730  1.6967 -1.4630  0.1389
   90SAPE    C2 8742   5.213   5.058   6.560 -1.2719  0.6689  0.2275
   90SAPE    HS 8743   5.270   5.153   6.551  0.2466 -0.2195  0.1903
   90SAPE   O21 8744   5.074   5.072   6.522  0.3805 -0.6461 -0.1474
   90SAPE   C21 8745   5.044   5.165   6.435  0.4211 -0.5465  0.4638
   90SAPE   O22 8746   5.116   5.248   6.382 -0.1642 -0.0031  0.4120
   90SAPE   C22 8747   4.891   5.169   6.411 -0.5550 -0.1412 -0.8129
   90SAPE   H2R 8748   4.862   5.070   6.369 -0.4417 -0.7883  0.5528
   90SAPE   H2S 8749   4.844   5.170   6.512  2.2940  1.2642  0.6207
   90SAPE    C3 8750   5.285   4.953   6.472  0.3449  0.7618  0.0242
   90SAPE    HX 8751   5.225   4.861   6.484 -3.2486  2.8641 -0.4434
   90SAPE    HY 8752   5.392   4.939   6.497  0.3091  2.0074  0.9660
   90SAPE   O31 8753   5.279   5.003   6.335  0.3694  0.0862 -0.4946
   90SAPE   C31 8754   5.367   5.103   6.313 -0.2375 -0.7233 -0.2496
   90SAPE   O32 8755   5.452   5.135   6.396  0.3484 -0.3818  0.6620
   90SAPE   C32 8756   5.348   5.162   6.168 -0.6722 -0.1037  0.1304
   90SAPE   H2X 8757   5.244   5.144   6.134 -1.1585  0.4956  1.2310
   90SAPE   H2Y 8758   5.416   5.104   6.103 -1.5345 -0.3993 -0.5336
   90SAPE   C23 8759   4.821   5.289   6.341 -0.6488  0.1489 -0.5774
   90SAPE   H3R 8760   4.871   5.385   6.366  0.4045 -0.4537 -0.3173
   90SAPE   H3S 8761   4.714   5.292   6.370 -0.4817 -1.0833  0.2126
   90SAPE   C24 8762   4.822   5.285   6.186  0.5279 -0.2409  0.0909
   90SAPE   H4R 8763   4.921   5.313   6.144 -0.2552  1.2316 -0.8510
   90SAPE   H4S 8764   4.751   5.367   6.161 -2.3808 -1.3510  3.8237
   90SAPE   C25 8765   4.780   5.151   6.126  0.3948  0.2414  0.0127
   90SAPE   H5R 8766   4.671   5.138   6.136  0.3794  0.7012  0.5233
   90SAPE   C26 8767   4.859   5.070   6.050  0.2197  0.6338 -0.3242
   90SAPE   H6R 8768   4.824   4.972   6.014  3.1979 -0.6206 -0.0847
   90SAPE   C27 8769   5.005   5.090   6.011 -0.3151  0.9315  0.2217
   90SAPE   H7R 8770   5.076   5.017   6.056 -0.5282  0.5216 -0.1022
   90SAPE   H7S 8771   5.048   5.188   6.041  2.0457  0.4046 -1.1897
   90SAPE   C28 8772   5.029   5.073   5.864  0.7104 -0.2770 -0.1492
   90SAPE   H8R 8773   5.094   4.988   5.838 -1.2980 -1.5720 -1.1706
   90SAPE   C29 8774   4.994   5.158   5.766 -0.3660 -0.1915  0.8019
   90SAPE   H9R 8775   5.033   5.130   5.667 -1.5619  1.1224 -0.0713
   90SAPE  C210 8776   4.925   5.293   5.773  0.6659 -0.2198  0.1165
   90SAPE  H10R 8777   4.999   5.376   5.766  0.8650 -0.0200  3.1758
   90SAPE  H10S 8778   4.871   5.301   5.870  0.3416  0.4427 -0.1136
   90SAPE  C211 8779   4.824   5.313   5.660  0.1618  0.4251 -0.3997
   90SAPE  H11R 8780   4.731   5.254   5.662 -0.0881  0.8330  0.9691
   90SAPE  C212 8781   4.847   5.391   5.554  0.1689  0.0950  0.1206
   90SAPE  H12R 8782   4.768   5.388   5.477 -0.3426 -1.3842  0.6648
   90SAPE  C213 8783   4.973   5.471   5.533  0.2812  0.6219  0.1731
   90SAPE  H13R 8784   5.052   5.392   5.534 -1.2560 -0.9706 -0.0898
   90SAPE  H13S 8785   4.996   5.539   5.618  0.5036 -0.2311  0.8269
   90SAPE  C214 8786   4.990   5.536   5.399  0.1873  0.0693 -0.1432
   90SAPE  H14R 8787   4.935   5.632   5.393 -0.5921 -0.4599 -2.2406
   90SAPE  C215 8788   5.058   5.485   5.294 -0.5423 -0.8544 -0.1232
   90SAPE  H15R 8789   5.057   5.545   5.201 -0.2896 -0.3426  0.2011
   90SAPE  C216 8790   5.139   5.357   5.282 -0.6743 -0.5738 -0.2382
   90SAPE  H16R 8791   5.152   5.295   5.373  5.2328 -0.6056 -0.7280
   90SAPE  H16S 8792   5.242   5.375   5.244 -0.5477  1.1912  0.8159
   90SAPE  C217 8793   5.065   5.269   5.180 -0.1225 -0.0861  0.9109
   90SAPE  H17R 8794   5.126   5.177   5.170  0.0239  0.1547 -0.7377
   90SAPE  H17S 8795   5.069   5.320   5.081 -0.2989  0.4470  1.1699
   90SAPE  C218 8796   4.928   5.216   5.229 -0.4733  0.4127  0.0342
   90SAPE  H18R 8797   4.924   5.229   5.339  0.3563  0.0850  0.1094
   90SAPE  H18S 8798   4.918   5.108   5.206  2.1573  0.0234  0.3585
   90SAPE  C219 8799   4.813   5.284   5.159  0.2774 -0.5247 -0.0103
   90SAPE  H19R 8800   4.824   5.275   5.049 -0.5905  0.3536 -0.1946
   90SAPE  H19S 8801   4.811   5.390   5.194  1.5502 -0.7170  0.6711
   90SAPE  C220 8802   4.680   5.223   5.201 -0.2734  0.0749 -0.7345
   90SAPE  H20R 8803   4.671   5.210   5.311 -0.1408 -2.5743 -0.9652
   90SAPE  H20S 8804   4.650   5.125   5.156  1.5858 -0.7984 -0.1545
   90SAPE  H20T 8805   4.601   5.298   5.176 -1.1683 -1.1717 -1.8555
   90SAPE   C33 8806   5.372   5.319   6.185  0.2104  0.3591 -0.7545
   90SAPE   H3X 8807   5.478   5.333   6.216  0.2345  0.9270 -1.0841
   90SAPE   H3Y 8808   5.304   5.350   6.267 -0.1883  0.1241 -0.9952
   90SAPE   C34 8809   5.334   5.383   6.055 -0.3350  0.1327 -0.1487
   90SAPE   H4X 8810   5.348   5.493   6.054 -1.9905  0.3760 -0.2652
   90SAPE   H4Y 8811   5.225   5.381   6.030  0.2311 -0.0358 -2.9812
   90SAPE   C35 8812   5.413   5.331   5.926 -0.3221  0.3483  0.3124
   90SAPE   H5X 8813   5.409   5.221   5.911  0.3014  0.4645 -0.8538
   90SAPE   H5Y 8814   5.519   5.364   5.928  0.0018 -0.6768  0.8439
   90SAPE   C36 8815   5.353   5.392   5.801  0.3655  0.4572  0.6361
   90SAPE   H6X 8816   5.364   5.502   5.794  0.2407  0.3963 -0.7277
   90SAPE   H6Y 8817   5.248   5.357   5.794 -0.2294  2.4657 -1.6243
   90SAPE   C37 8818   5.425   5.334   5.668  0.0390  0.3977 -0.1108
   90SAPE   H7X 8819   5.406   5.225   5.666  0.8872  0.1888  1.5541
   90SAPE   H7Y 8820   5.533   5.341   5.694 -0.6507 -0.4019  3.5440
   90SAPE   C38 8821   5.377   5.408   5.543  0.2008 -0.2832 -0.2556
   90SAPE   H8X 8822   5.269   5.426   5.562 -0.1297 -0.8443 -1.5328
   90SAPE   H8Y 8823   5.386   5.336   5.459 -0.2742 -0.6284 -0.0181
   90SAPE   C39 8824   5.445   5.544   5.518 -0.3407  0.0737  0.1215
   90SAPE   H9X 8825   5.552   5.516   5.510  0.0810  1.6740 -0.2760
   90SAPE   H9Y 8826   5.451   5.600   5.614  0.2036 -0.2974  0.3103
   90SAPE  C310 8827   5.405   5.631   5.400 -0.1293  0.1369 -0.6726
   90SAPE  H10X 8828   5.366   5.728   5.436 -1.1187 -0.3915 -0.2625
   90SAPE  H10Y 8829   5.311   5.590   5.358 -0.5214 -0.2280  0.5422
   90SAPE  C311 8830   5.505   5.678   5.290 -0.9250  0.0284 -0.8775
   90SAPE  H11X 8831   5.559   5.595   5.240 -1.3565  0.1296 -1.5241
   90SAPE  H11Y 8832   5.581   5.729   5.354 -0.3134 -2.0204  0.1224
   90SAPE  C312 8833   5.453   5.773   5.192 -0.1391 -0.8616  1.2986
   90SAPE  H12X 8834   5.535   5.846   5.172 -0.0888 -1.2324  0.0834
   90SAPE  H12Y 8835   5.364   5.821   5.239  0.4331  1.1255  0.4561
   90SAPE  C313 8836   5.399   5.713   5.054 -0.8028  0.2075  0.3256
   90SAPE  H13X 8837   5.334   5.782   4.997  1.2206  0.7453 -1.4738
   90SAPE  H13Y 8838   5.341   5.621   5.079 -2.4883  1.5541  1.5027
   90SAPE  C314 8839   5.515   5.664   4.968 -0.3176 -0.2383 -0.0995
   90SAPE  H14X 8840   5.544   5.569   5.019  1.5267 -0.9721 -2.3826
   90SAPE  H14Y 8841   5.602   5.732   4.979 -1.5364  1.5887 -1.2866
   90SAPE  C315 8842   5.489   5.644   4.826 -0.3632  0.5963 -0.2935
   90SAPE  H15X 8843   5.467   5.741   4.777  1.8151  0.1285 -2.3919
   90SAPE  H15Y 8844   5.396   5.585   4.816 -2.4067  3.8316 -2.3065
   90SAPE  C316 8845   5.608   5.579   4.751 -0.5038  0.5645  0.8139
   90SAPE  H16X 8846   5.623   5.473   4.782 -1.6990 -0.0719 -0.6717
   90SAPE  H16Y 8847   5.698   5.633   4.788 -0.3513  1.2015 -0.4459
   90SAPE  C317 8848   5.598   5.576   4.598  0.3425  0.4479 -0.3216
   90SAPE  H17X 8849   5.689   5.525   4.558 -0.7210 -2.5565  0.7777
   90SAPE  H17Y 8850   5.603   5.676   4.550 -2.0776 -0.2611 -2.2876
   90SAPE  C318 8851   5.481   5.502   4.535  0.4986  0.2099  0.4322
   90SAPE  H18X 8852   5.473   5.396   4.567 -0.3311  0.6629  1.7832
   90SAPE  H18Y 8853   5.501   5.507   4.426 -0.7929  2.3841  0.2434
   90SAPE  H18Z 8854   5.380   5.541   4.557  0.1282  0.7222 -1.9021
   91SAPE     N 8855   1.840   0.448   6.865 -0.2191  0.1249 -0.6480
   91SAPE   HN1 8856   1.769   0.468   6.792  0.5429 -0.7347 -1.6489
   91SAPE   HN2 8857   1.916   0.515   6.842  0.7742 -1.2115 -1.3674
   91SAPE   HN3 8858   1.865   0.347   6.857  2.7300  0.6299  0.9907
   91SAPE   C12 8859   1.785   0.473   7.006 -0.0173  1.2748  0.3594
   91SAPE  H12A 8860   1.697   0.405   7.015 -3.1855  4.7382 -1.4645
   91SAPE  H12B 8861   1.747   0.577   7.003  0.8280  1.6409  1.7320
   91SAPE   C11 8862   1.895   0.478   7.115  0.0754  0.1484 -0.3343
   91SAPE  H11A 8863   1.963   0.391   7.126  0.7200  0.4861 -1.4794
   91SAPE  H11B 8864   1.839   0.498   7.209 -0.4888 -1.5616 -0.2679
   91SAPE     P 8865   2.105   0.632   7.171 -0.2867 -0.0725  0.0660
   91SAPE   O13 8866   2.052   0.684   7.301 -0.2903 -0.5449  0.0474
   91SAPE   O14 8867   2.201   0.518   7.176 -0.3669 -1.1303 -0.0846
   91SAPE   O12 8868   1.979   0.591   7.082  0.4330  0.1165  0.1377
   91SAPE   O11 8869   2.169   0.753   7.091  0.0092 -0.1404  0.5731
   91SAPE    C1 8870   2.313   0.775   7.104  0.3861  0.1463  0.5450
   91SAPE    HA 8871   2.339   0.872   7.152  1.2750 -0.7848  2.0219
   91SAPE    HB 8872   2.366   0.705   7.172  1.9502 -0.9584 -1.6891
   91SAPE    C2 8873   2.388   0.774   6.963 -0.5935 -0.5258  0.2140
   91SAPE    HS 8874   2.495   0.788   6.987 -0.4081 -0.2905 -0.7207
   91SAPE   O21 8875   2.341   0.881   6.883  0.2381  0.1908  0.3637
   91SAPE   C21 8876   2.433   0.926   6.789 -0.2413 -0.2163  0.4307
   91SAPE   O22 8877   2.542   0.883   6.762 -0.2884  0.0634 -0.7771
   91SAPE   C22 8878   2.370   1.053   6.735 -0.0930  0.2062 -0.1340
   91SAPE   H2R 8879   2.267   1.027   6.701 -0.1765  1.4972 -0.9539
   91SAPE   H2S 8880   2.378   1.121   6.822 -1.3898 -0.0215  0.1797
   91SAPE    C3 8881   2.366   0.629   6.900 -0.5084 -0.1910 -0.2475
   91SAPE    HX 8882   2.257   0.607   6.895 -0.8292  1.5186 -1.3611
   91SAPE    HY 8883   2.401   0.544   6.963 -2.2758 -2.1393 -1.7636
   91SAPE   O31 8884   2.412   0.625   6.771  0.3912  0.3445  0.2603
   91SAPE   C31 8885   2.537   0.573   6.750 -0.0619  0.3050 -0.7138
   91SAPE   O32 8886   2.619   0.544   6.834  0.1820  0.0313 -0.5773
   91SAPE   C32 8887   2.552   0.574   6.600 -0.4076  0.0110  0.5799
   91SAPE   H2X 8888   2.490   0.657   6.559  0.4332 -0.4142 -1.7279
   91SAPE   H2Y 8889   2.522   0.472   6.568  3.1597 -1.8277  2.5811
   91SAPE   C23 8890   2.459   1.133   6.637  0.2026  0.2308  0.0531
   91SAPE   H3R 8891   2.554   1.157   6.690 -1.5726  1.2027  3.0280
   91SAPE   H3S 8892   2.423   1.233   6.606  1.1057  0.2236 -1.0876
   91SAPE   C24 8893   2.493   1.067   6.505  0.6476  0.4103  0.0252
   91SAPE   H4R 8894   2.537   0.967   6.522  0.8964 -0.0284 -2.7329
   91SAPE   H4S 8895   2.567   1.130   6.451 -0.6582  0.6607 -1.5718
   91SAPE   C25 8896   2.365   1.062   6.424  0.3601  0.0684 -0.1542
   91SAPE   H5R 8897   2.283   1.010   6.476 -1.2638  1.0046 -1.6816
   91SAPE   C26 8898   2.339   1.126   6.308 -0.5046  0.4773 -0.0684
   91SAPE   H6R 8899   2.236   1.118   6.270  0.4271 -2.0169 -2.4234
   91SAPE   C27 8900   2.437   1.218   6.229  0.0574  0.6798 -0.6177
   91SAPE   H7R 8901   2.542   1.207   6.263 -1.2548 -0.5958  3.6933
   91SAPE   H7S 8902   2.407   1.322   6.253 -2.4147  0.0504 -0.6570
   91SAPE   C28 8903   2.417   1.201   6.078  0.0189  0.2948 -0.5559
   91SAPE   H8R 8904   2.388   1.098   6.053 -0.8276  0.1678  0.8457
   91SAPE   C29 8905   2.435   1.288   5.979  0.3007 -0.0412 -0.1951
   91SAPE   H9R 8906   2.418   1.252   5.876  0.4851 -1.3351  0.2006
   91SAPE  C210 8907   2.459   1.430   5.989  0.0452 -0.4736 -0.2946
   91SAPE  H10R 8908   2.554   1.459   5.938 -0.7084  1.6455 -0.5826
   91SAPE  H10S 8909   2.485   1.471   6.089  0.4666  1.2198 -1.0609
   91SAPE  C211 8910   2.350   1.513   5.926 -0.3032 -0.3930 -0.0054
   91SAPE  H11R 8911   2.281   1.567   5.994  1.8027  0.6828  1.3717
   91SAPE  C212 8912   2.338   1.533   5.790 -0.7395  0.2993  0.1598
   91SAPE  H12R 8913   2.260   1.598   5.749 -0.1634  0.5710 -0.5183
   91SAPE  C213 8914   2.431   1.466   5.678  0.8421 -0.5868 -0.2455
   91SAPE  H13R 8915   2.512   1.421   5.738  0.2415  0.2761  1.2586
   91SAPE  H13S 8916   2.476   1.538   5.606 -1.0633  1.3331  0.3950
   91SAPE  C214 8917   2.359   1.355   5.604  0.2113 -0.2060  0.0736
   91SAPE  H14R 8918   2.368   1.257   5.653  3.3423 -0.7951 -1.4669
   91SAPE  C215 8919   2.287   1.365   5.489  1.1414  0.2367  0.1395
   91SAPE  H15R 8920   2.243   1.272   5.451 -0.0482  0.0507  1.8511
   91SAPE  C216 8921   2.260   1.491   5.413 -0.0618 -0.4428  0.4063
   91SAPE  H16R 8922   2.301   1.576   5.472  0.2373 -0.8543  0.7977
   91SAPE  H16S 8923   2.151   1.511   5.403  0.6114  2.6096 -2.8229
   91SAPE  C217 8924   2.314   1.476   5.268  0.1339  0.0495  0.5713
   91SAPE  H17R 8925   2.417   1.434   5.270 -0.5032 -1.7819 -1.3746
   91SAPE  H17S 8926   2.323   1.583   5.240 -0.2659  0.0990  0.6359
   91SAPE  C218 8927   2.222   1.406   5.164 -1.0679  0.7919  0.3019
   91SAPE  H18R 8928   2.247   1.298   5.167 -0.3883  0.9519  0.6504
   91SAPE  H18S 8929   2.251   1.452   5.067 -0.5305 -0.5205 -0.1773
   91SAPE  C219 8930   2.073   1.425   5.184  1.3460  0.1541  0.0388
   91SAPE  H19R 8931   2.050   1.404   5.290  0.8603 -0.6340 -0.2164
   91SAPE  H19S 8932   2.025   1.345   5.124  2.6586 -0.9571  0.4123
   91SAPE  C220 8933   2.021   1.565   5.151 -0.1384  0.0365  0.3881
   91SAPE  H20R 8934   2.041   1.650   5.219 -1.8401  1.2290 -0.5107
   91SAPE  H20S 8935   1.910   1.571   5.158 -0.1433  1.1461 -0.4498
   91SAPE  H20T 8936   2.059   1.591   5.050  0.1832  0.9354  0.7391
   91SAPE   C33 8937   2.693   0.606   6.552 -0.2891 -0.0629  0.4285
   91SAPE   H3X 8938   2.765   0.526   6.580  0.0386  0.4949  1.2064
   91SAPE   H3Y 8939   2.733   0.691   6.611  0.5919 -0.5704  0.5734
   91SAPE   C34 8940   2.711   0.637   6.402 -0.2014  0.1364  0.4399
   91SAPE   H4X 8941   2.805   0.687   6.369 -0.0383 -0.7106 -0.4127
   91SAPE   H4Y 8942   2.632   0.712   6.379 -0.7026 -0.7180 -0.7657
   91SAPE   C35 8943   2.666   0.514   6.312 -0.1131  0.2759  0.0289
   91SAPE   H5X 8944   2.556   0.501   6.327 -0.1051 -0.0787 -0.1973
   91SAPE   H5Y 8945   2.716   0.424   6.354 -0.8473 -0.8684 -1.4362
   91SAPE   C36 8946   2.698   0.533   6.160  0.0446  0.4815 -0.3989
   91SAPE   H6X 8947   2.669   0.441   6.104  3.0839 -1.4392  0.9010
   91SAPE   H6Y 8948   2.808   0.546   6.151  0.0008  0.1219 -1.6724
   91SAPE   C37 8949   2.616   0.652   6.091  0.1460  0.1223 -0.5447
   91SAPE   H7X 8950   2.641   0.751   6.134 -1.0636  1.7743 -3.3491
   91SAPE   H7Y 8951   2.513   0.623   6.121  0.1399  0.4580 -0.2530
   91SAPE   C38 8952   2.632   0.648   5.934 -0.5329  0.2810 -0.6068
   91SAPE   H8X 8953   2.625   0.546   5.892  1.4962  0.7601 -2.2434
   91SAPE   H8Y 8954   2.739   0.671   5.920  0.2536 -1.6842  1.5656
   91SAPE   C39 8955   2.548   0.747   5.854 -0.6108  0.4600 -0.2028
   91SAPE   H9X 8956   2.555   0.841   5.913 -0.0551  0.2792  0.0283
   91SAPE   H9Y 8957   2.441   0.716   5.851  0.0010 -1.6959 -2.1573
   91SAPE  C310 8958   2.605   0.767   5.717  0.2807 -0.0862  0.8030
   91SAPE  H10X 8959   2.642   0.674   5.669  0.9310  0.8222 -0.5456
   91SAPE  H10Y 8960   2.700   0.825   5.730  0.6396 -0.3798 -0.3696
   91SAPE  C311 8961   2.502   0.840   5.630  0.1008 -0.4232 -0.2813
   91SAPE  H11X 8962   2.476   0.938   5.676 -0.3017 -0.8375  0.3854
   91SAPE  H11Y 8963   2.409   0.780   5.635 -0.4252  0.2449 -1.4108
   91SAPE  C312 8964   2.547   0.865   5.487 -0.1458 -0.2597  0.3456
   91SAPE  H12X 8965   2.594   0.770   5.454 -0.2988 -0.3175  0.2919
   91SAPE  H12Y 8966   2.632   0.935   5.479 -0.8998  0.6669  0.2476
   91SAPE  C313 8967   2.435   0.907   5.391  0.4483 -0.1418  0.8990
   91SAPE  H13X 8968   2.346   0.963   5.427 -0.6980 -0.0137 -1.8439
   91SAPE  H13Y 8969   2.388   0.816   5.347 -1.8970  1.1209  0.6193
   91SAPE  C314 8970   2.485   0.991   5.277 -0.3549 -0.2621  0.0035
   91SAPE  H14X 8971   2.582   0.945   5.248 -0.0714  0.5310 -0.3440
   91SAPE  H14Y 8972   2.491   1.097   5.311  0.1000 -0.0690 -0.6723
   91SAPE  C315 8973   2.380   0.982   5.167  0.3718 -0.7723  0.5240
   91SAPE  H15X 8974   2.298   1.048   5.202  2.1589  1.5344  0.6190
   91SAPE  H15Y 8975   2.341   0.879   5.150 -2.5185  0.3893 -0.6313
   91SAPE  C316 8976   2.448   1.040   5.047 -0.2803  0.1037 -0.1427
   91SAPE  H16X 8977   2.550   0.998   5.037  0.5217  1.8316  0.3478
   91SAPE  H16Y 8978   2.461   1.149   5.062 -0.5756  0.5364 -2.5945
   91SAPE  C317 8979   2.380   1.012   4.915  0.0839  0.0325 -0.3368
   91SAPE  H17X 8980   2.283   1.067   4.912  0.6632  1.0638 -0.6791
   91SAPE  H17Y 8981   2.356   0.905   4.896  1.7632 -0.7054  1.4182
   91SAPE  C318 8982   2.445   1.063   4.790  0.0600 -1.1711  0.1981
   91SAPE  H18X 8983   2.534   1.000   4.770  0.0449 -0.7337 -1.3835
   91SAPE  H18Y 8984   2.484   1.166   4.809 -1.4457 -0.8487  1.7057
   91SAPE  H18Z 8985   2.382   1.046   4.700 -0.2915 -0.4048  0.2916
   92SAPE     N 8986   3.557   1.982   7.298 -0.0695  0.4767  0.6355
   92SAPE   HN1 8987   3.649   1.978   7.346  0.0726 -0.8062  0.2875
   92SAPE   HN2 8988   3.517   1.890   7.270  2.4856 -0.9572  1.4069
   92SAPE   HN3 8989   3.582   2.038   7.214  2.6937 -0.4264  0.7681
   92SAPE   C12 8990   3.468   2.045   7.403  0.9718  0.0685 -0.5366
   92SAPE  H12A 8991   3.507   2.147   7.419  0.1026  0.7676 -2.5227
   92SAPE  H12B 8992   3.477   1.985   7.497  2.3155 -0.2006 -0.8088
   92SAPE   C11 8993   3.317   2.041   7.368  0.0464 -0.0208  0.0853
   92SAPE  H11A 8994   3.269   2.115   7.436  2.1327  2.1022 -0.6483
   92SAPE  H11B 8995   3.277   1.937   7.372  0.6947 -0.2673  0.2982
   92SAPE     P 8996   3.143   2.130   7.186 -0.1555  0.0954 -0.0166
   92SAPE   O13 8997   3.044   2.052   7.253  0.0859  0.2069  0.5197
   92SAPE   O14 8998   3.132   2.276   7.199 -0.2614  0.0394  0.0559
   92SAPE   O12 8999   3.291   2.086   7.237  0.6616  0.3117 -0.3899
   92SAPE   O11 9000   3.143   2.105   7.032  0.2216 -0.2218  0.0783
   92SAPE    C1 9001   3.204   1.991   6.973  0.1071 -0.5807 -0.4538
   92SAPE    HA 9002   3.190   1.900   7.034  0.0497 -1.0706 -1.1813
   92SAPE    HB 9003   3.158   1.970   6.874 -1.2775  1.2538 -0.2446
   92SAPE    C2 9004   3.356   2.022   6.933  0.8088  0.5040  0.1535
   92SAPE    HS 9005   3.409   2.055   7.025  1.4701  0.7189 -0.2999
   92SAPE   O21 9006   3.343   2.123   6.834  0.1594  0.3207  0.1470
   92SAPE   C21 9007   3.448   2.206   6.838  0.1408  0.0744 -0.2132
   92SAPE   O22 9008   3.519   2.228   6.937  0.3699 -0.0860  0.4289
   92SAPE   C22 9009   3.448   2.289   6.708 -0.0709 -0.2244 -0.4738
   92SAPE   H2R 9010   3.344   2.324   6.695 -0.9978 -1.8449  1.9708
   92SAPE   H2S 9011   3.509   2.381   6.723 -0.3934  0.2065 -1.6844
   92SAPE    C3 9012   3.422   1.888   6.878 -0.0466 -0.6711 -0.1679
   92SAPE    HX 9013   3.347   1.862   6.800 -2.8442  2.3745  1.2892
   92SAPE    HY 9014   3.418   1.799   6.945  1.2065 -0.6611 -0.0641
   92SAPE   O31 9015   3.557   1.894   6.821 -0.0067  0.4638 -0.1458
   92SAPE   C31 9016   3.651   1.877   6.912  0.4250 -0.2071 -0.1274
   92SAPE   O32 9017   3.635   1.888   7.030  0.0375 -0.1934  0.4445
   92SAPE   C32 9018   3.782   1.851   6.852  0.1365  0.5221 -0.0095
   92SAPE   H2X 9019   3.864   1.887   6.916  1.2068  0.7172 -1.4400
   92SAPE   H2Y 9020   3.789   1.905   6.755  0.5461 -1.2904 -1.0329
   92SAPE   C23 9021   3.506   2.196   6.600 -0.3438  0.1101  0.1480
   92SAPE   H3R 9022   3.471   2.253   6.511 -1.0978 -0.5069  0.0400
   92SAPE   H3S 9023   3.444   2.103   6.597 -1.2887  0.7501 -1.8418
   92SAPE   C24 9024   3.654   2.167   6.614  0.5354 -0.8803 -0.1429
   92SAPE   H4R 9025   3.663   2.121   6.714 -0.2792 -0.5147  0.1146
   92SAPE   H4S 9026   3.708   2.263   6.620 -2.3989  0.9047 -0.2814
   92SAPE   C25 9027   3.695   2.081   6.497 -0.3909 -0.5451  0.3492
   92SAPE   H5R 9028   3.685   1.971   6.500 -1.1565 -0.5131 -0.4361
   92SAPE   C26 9029   3.731   2.125   6.374 -0.2705  0.0148  0.5037
   92SAPE   H6R 9030   3.755   2.051   6.296 -2.1350  0.8632 -0.9633
   92SAPE   C27 9031   3.740   2.266   6.321  0.0502  0.3574  0.7612
   92SAPE   H7R 9032   3.839   2.289   6.276 -0.3127  0.3133 -0.0624
   92SAPE   H7S 9033   3.753   2.349   6.395  2.0885  2.1740 -1.4436
   92SAPE   C28 9034   3.619   2.308   6.237 -0.2070  0.4101 -0.2967
   92SAPE   H8R 9035   3.540   2.319   6.313 -0.0735  1.1310 -0.2522
   92SAPE   C29 9036   3.608   2.334   6.105  0.0177 -0.1266 -0.2458
   92SAPE   H9R 9037   3.511   2.362   6.062  0.9531  4.3884  0.0791
   92SAPE  C210 9038   3.704   2.323   5.994 -0.6329 -0.5657  0.1773
   92SAPE  H10R 9039   3.676   2.239   5.928  0.1950  0.1687 -1.1484
   92SAPE  H10S 9040   3.811   2.325   6.025 -0.6372 -1.9033  0.3071
   92SAPE  C211 9041   3.694   2.450   5.915  0.6884 -0.3244  0.5012
   92SAPE  H11R 9042   3.678   2.537   5.980 -1.5203 -1.0118  0.9657
   92SAPE  C212 9043   3.701   2.474   5.777 -0.6458 -0.6627 -0.1679
   92SAPE  H12R 9044   3.672   2.575   5.743  1.0667 -0.0904  0.0029
   92SAPE  C213 9045   3.714   2.367   5.671  0.8137 -0.4006 -0.2804
   92SAPE  H13R 9046   3.816   2.324   5.681  0.2396 -2.0175 -1.1383
   92SAPE  H13S 9047   3.726   2.420   5.574  1.5265  0.1674  0.1035
   92SAPE  C214 9048   3.609   2.258   5.667  1.0177  1.1069 -0.4029
   92SAPE  H14R 9049   3.543   2.237   5.753  1.0788 -3.1455 -1.1788
   92SAPE  C215 9050   3.599   2.175   5.560 -0.4317 -1.0515  0.5729
   92SAPE  H15R 9051   3.517   2.102   5.553 -1.0134 -0.3885  0.2768
   92SAPE  C216 9052   3.689   2.173   5.435  0.5315 -0.3741 -0.3612
   92SAPE  H16R 9053   3.740   2.074   5.437  0.2711 -0.5035  1.3069
   92SAPE  H16S 9054   3.769   2.249   5.443 -1.3099  1.6150 -0.0650
   92SAPE  C217 9055   3.611   2.180   5.305 -0.1070  0.4958 -0.1470
   92SAPE  H17R 9056   3.556   2.276   5.292  2.5721  2.4060  1.3776
   92SAPE  H17S 9057   3.528   2.111   5.327  0.1807  0.1069 -0.2704
   92SAPE  C218 9058   3.687   2.139   5.178  0.0239  0.2557  0.3134
   92SAPE  H18R 9059   3.740   2.046   5.206 -2.5958 -0.8752  1.9432
   92SAPE  H18S 9060   3.759   2.213   5.139  0.6040 -1.2694 -1.6975
   92SAPE  C219 9061   3.585   2.104   5.065  0.4353  0.1062  0.0426
   92SAPE  H19R 9062   3.515   2.030   5.109  0.4785 -2.1226 -3.2715
   92SAPE  H19S 9063   3.636   2.060   4.977 -1.0124 -0.6041 -0.4622
   92SAPE  C220 9064   3.507   2.229   5.013 -0.7444  0.1275  0.1100
   92SAPE  H20R 9065   3.451   2.209   4.919  0.4848 -1.0957 -0.4034
   92SAPE  H20S 9066   3.564   2.322   4.991 -2.1577  1.2711  1.0999
   92SAPE  H20T 9067   3.429   2.249   5.090 -0.8202  0.7633 -0.1333
   92SAPE   C33 9068   3.807   1.704   6.808  0.2259  1.1078 -0.0961
   92SAPE   H3X 9069   3.739   1.693   6.720  2.1008 -1.7622 -1.3802
   92SAPE   H3Y 9070   3.767   1.638   6.888 -0.0484  0.7679 -0.5021
   92SAPE   C34 9071   3.954   1.666   6.762 -0.4121 -0.3699  0.1940
   92SAPE   H4X 9072   3.970   1.556   6.749  1.6536 -0.1051  0.1496
   92SAPE   H4Y 9073   4.022   1.715   6.834 -0.8644 -2.4283  2.1411
   92SAPE   C35 9074   3.992   1.730   6.626  0.0342  0.2313  0.1173
   92SAPE   H5X 9075   4.102   1.727   6.616  0.1613 -0.8680  1.5836
   92SAPE   H5Y 9076   3.956   1.835   6.637 -2.5816 -0.8397  4.1330
   92SAPE   C36 9077   3.932   1.668   6.498  0.1465  0.2617  0.1144
   92SAPE   H6X 9078   3.827   1.637   6.515 -0.2570  1.7686  0.4523
   92SAPE   H6Y 9079   3.991   1.576   6.477 -0.7478 -0.2435 -0.2261
   92SAPE   C37 9080   3.940   1.761   6.374 -0.0782 -0.1215  0.4564
   92SAPE   H7X 9081   3.882   1.853   6.398 -1.2906 -0.8661  0.4760
   92SAPE   H7Y 9082   3.868   1.711   6.306 -1.6189 -1.1702  2.7271
   92SAPE   C38 9083   4.076   1.785   6.317 -1.0909 -0.8834 -0.5982
   92SAPE   H8X 9084   4.138   1.695   6.297  2.6517  1.4930 -0.5889
   92SAPE   H8Y 9085   4.127   1.848   6.392 -0.7283 -0.9222 -0.8106
   92SAPE   C39 9086   4.071   1.887   6.199 -0.0271  0.0204 -0.3445
   92SAPE   H9X 9087   4.173   1.916   6.167  2.0433 -3.6712  2.0747
   92SAPE   H9Y 9088   4.004   1.973   6.220 -2.2196 -1.6768  0.0455
   92SAPE  C310 9089   4.010   1.808   6.084  0.1258  0.0602  0.2190
   92SAPE  H10X 9090   3.908   1.774   6.111 -0.3673  0.2038 -1.3597
   92SAPE  H10Y 9091   4.074   1.722   6.056 -0.3178 -0.7086  1.4825
   92SAPE  C311 9092   3.990   1.886   5.957 -0.0787 -0.2901  0.4758
   92SAPE  H11X 9093   4.091   1.919   5.925  0.3686 -0.3617  1.7427
   92SAPE  H11Y 9094   3.927   1.975   5.980  0.3397  0.1179  0.0584
   92SAPE  C312 9095   3.916   1.810   5.849  0.4864  0.4635  0.0765
   92SAPE  H12X 9096   3.811   1.786   5.878  0.3659 -0.9269 -1.3317
   92SAPE  H12Y 9097   3.966   1.712   5.832 -2.1997 -0.9391 -0.2595
   92SAPE  C313 9098   3.907   1.888   5.715  0.1547  0.2926  0.0739
   92SAPE  H13X 9099   3.855   1.983   5.739 -0.8323 -0.2648  0.1946
   92SAPE  H13Y 9100   3.840   1.836   5.643  0.8201 -0.5466  0.0406
   92SAPE  C314 9101   4.048   1.912   5.651  0.4191 -0.3266  0.9628
   92SAPE  H14X 9102   4.102   1.815   5.661 -0.4253 -0.8475  0.5886
   92SAPE  H14Y 9103   4.092   1.992   5.715  2.3335 -1.6499  1.3810
   92SAPE  C315 9104   4.042   1.971   5.513 -0.1193  0.0865 -0.1765
   92SAPE  H15X 9105   3.962   2.048   5.505 -0.9004 -0.6297  0.5506
   92SAPE  H15Y 9106   4.013   1.883   5.452 -1.0624 -0.6404  1.2668
   92SAPE  C316 9107   4.162   2.050   5.459  0.2241  0.4007 -0.7838
   92SAPE  H16X 9108   4.146   2.062   5.350  0.1939 -2.3502 -1.1696
   92SAPE  H16Y 9109   4.256   1.992   5.465  0.1275  0.3623  2.5483
   92SAPE  C317 9110   4.187   2.183   5.520 -0.3035 -0.0215  0.2695
   92SAPE  H17X 9111   4.191   2.184   5.631  0.0902  0.2060  0.2550
   92SAPE  H17Y 9112   4.099   2.244   5.490  0.2285 -0.2725 -2.0214
   92SAPE  C318 9113   4.313   2.246   5.454 -0.3138 -0.2116  0.1040
   92SAPE  H18X 9114   4.307   2.257   5.343  3.5831  2.5345 -0.0284
   92SAPE  H18Y 9115   4.407   2.191   5.477  0.5962  0.1882 -2.3226
   92SAPE  H18Z 9116   4.316   2.348   5.496 -0.6212  1.0022 -2.5834
   93SAPE     N 9117   4.843   6.124   6.972  0.2473  0.3850  0.1097
   93SAPE   HN1 9118   4.757   6.094   7.023 -1.1434  1.6977 -1.3684
   93SAPE   HN2 9119   4.819   6.107   6.872  0.1736  1.9587 -0.1552
   93SAPE   HN3 9120   4.921   6.060   6.997 -0.8343 -1.2840 -0.6135
   93SAPE   C12 9121   4.877   6.266   7.001 -0.2506 -0.3005  1.0477
   93SAPE  H12A 9122   4.808   6.323   7.067  0.3218  2.8225 -0.8259
   93SAPE  H12B 9123   4.890   6.316   6.903 -1.1340 -2.6025 -0.3140
   93SAPE   C11 9124   5.014   6.264   7.069  0.7317 -0.2733 -0.4718
   93SAPE  H11A 9125   5.016   6.180   7.141 -1.0008 -1.9152 -2.2511
   93SAPE  H11B 9126   5.035   6.363   7.117  1.5741 -1.0731  0.8737
   93SAPE     P 9127   5.197   6.343   6.894 -0.0754 -0.1585 -0.1693
   93SAPE   O13 9128   5.103   6.450   6.851  0.0487  0.8134  0.1503
   93SAPE   O14 9129   5.316   6.374   6.978  0.4589 -0.7411 -0.2529
   93SAPE   O12 9130   5.124   6.233   6.978  0.0014 -0.1742 -0.3878
   93SAPE   O11 9131   5.245   6.270   6.768 -0.4085 -0.1203 -0.1567
   93SAPE    C1 9132   5.277   6.127   6.775 -0.2641 -0.4883  0.4522
   93SAPE    HA 9133   5.386   6.102   6.775 -0.3322 -0.7902  0.7842
   93SAPE    HB 9134   5.244   6.067   6.863 -1.6801 -1.7608 -0.8916
   93SAPE    C2 9135   5.203   6.050   6.665  1.1796  0.5659  0.1132
   93SAPE    HS 9136   5.225   5.941   6.676  2.7920  0.7425 -0.9125
   93SAPE   O21 9137   5.259   6.097   6.539  0.4185 -0.2063  0.2416
   93SAPE   C21 9138   5.276   6.011   6.441  0.2095  0.3363 -1.0229
   93SAPE   O22 9139   5.262   5.891   6.453  0.7411  0.1846 -0.4258
   93SAPE   C22 9140   5.300   6.081   6.308 -0.9349  0.0113  0.8433
   93SAPE   H2R 9141   5.251   6.180   6.322  0.2573  0.5412  1.4182
   93SAPE   H2S 9142   5.408   6.094   6.286 -1.6418  1.3508 -2.4663
   93SAPE    C3 9143   5.054   6.072   6.667  0.3704  0.5746 -0.2355
   93SAPE    HX 9144   5.057   6.179   6.637  3.3694  0.3143 -1.2092
   93SAPE    HY 9145   5.023   6.059   6.773 -0.0939 -1.3101 -0.5629
   93SAPE   O31 9146   4.977   5.986   6.583  0.5795 -0.5792  0.3697
   93SAPE   C31 9147   4.843   6.008   6.592 -0.5478 -0.2461 -0.8832
   93SAPE   O32 9148   4.790   6.071   6.684 -0.0802 -0.1849 -0.3307
   93SAPE   C32 9149   4.779   5.949   6.476  0.7799 -0.0590  0.4188
   93SAPE   H2X 9150   4.673   5.946   6.508  0.8652 -1.4682  0.5957
   93SAPE   H2Y 9151   4.812   5.845   6.459 -1.5765 -1.1970  2.3343
   93SAPE   C23 9152   5.226   6.005   6.194 -0.1863 -0.0961  0.0716
   93SAPE   H3R 9153   5.126   5.973   6.231 -0.9576 -0.6005 -2.2801
   93SAPE   H3S 9154   5.281   5.913   6.165 -1.0322 -0.2061 -1.2870
   93SAPE   C24 9155   5.211   6.092   6.068  0.1724  0.0818  0.4643
   93SAPE   H4R 9156   5.166   6.192   6.087 -0.9646 -0.2746 -0.2580
   93SAPE   H4S 9157   5.132   6.044   6.006  1.6041 -1.0505 -0.5382
   93SAPE   C25 9158   5.343   6.092   5.995  0.4182 -0.0110  1.0652
   93SAPE   H5R 9159   5.382   5.989   5.984 -0.9679 -0.5446  0.8825
   93SAPE   C26 9160   5.407   6.193   5.947 -0.6896 -0.5064 -0.7630
   93SAPE   H6R 9161   5.501   6.175   5.893 -2.0018 -2.2023 -2.6400
   93SAPE   C27 9162   5.372   6.337   5.962  0.5555  0.1232  0.0639
   93SAPE   H7R 9163   5.384   6.361   6.070  2.5549 -0.1642 -0.0555
   93SAPE   H7S 9164   5.268   6.358   5.929 -0.0758 -0.5287  1.5271
   93SAPE   C28 9165   5.463   6.432   5.888  0.1233 -0.2044  0.3465
   93SAPE   H8R 9166   5.569   6.444   5.915  1.7398 -2.1048 -4.1754
   93SAPE   C29 9167   5.432   6.505   5.778 -1.0090  0.1483  0.1415
   93SAPE   H9R 9168   5.517   6.559   5.734  0.5781 -0.5501  2.1450
   93SAPE  C210 9169   5.302   6.521   5.700 -0.7766  0.2947  0.3252
   93SAPE  H10R 9170   5.299   6.629   5.677 -1.7498  0.1820 -0.1383
   93SAPE  H10S 9171   5.212   6.501   5.763 -0.8164 -2.4421 -0.4673
   93SAPE  C211 9172   5.290   6.442   5.569 -0.2768 -0.4715 -0.0384
   93SAPE  H11R 9173   5.288   6.334   5.590 -0.2814 -0.3283  0.7338
   93SAPE  C212 9174   5.258   6.482   5.444  0.1419  0.0881 -0.1545
   93SAPE  H12R 9175   5.252   6.409   5.362  1.4304  0.5879 -0.7307
   93SAPE  C213 9176   5.245   6.628   5.402  0.4328 -0.1410  0.3765
   93SAPE  H13R 9177   5.339   6.668   5.358  1.1596  0.8193  2.6585
   93SAPE  H13S 9178   5.227   6.690   5.492  0.7810  2.0034 -0.9477
   93SAPE  C214 9179   5.121   6.655   5.315 -0.0234  0.0521  0.4499
   93SAPE  H14R 9180   5.029   6.619   5.363  0.5483 -0.3085  1.2978
   93SAPE  C215 9181   5.114   6.723   5.200  0.9182  1.0398 -0.4455
   93SAPE  H15R 9182   5.013   6.737   5.158  0.6291  1.4741  0.3625
   93SAPE  C216 9183   5.224   6.774   5.121 -0.3504  0.3675  0.1843
   93SAPE  H16R 9184   5.211   6.735   5.018 -1.6508 -1.4488  0.9852
   93SAPE  H16S 9185   5.321   6.735   5.161 -0.3127 -0.6827 -0.8579
   93SAPE  C217 9186   5.219   6.931   5.119 -0.3057  0.2349 -0.2463
   93SAPE  H17R 9187   5.285   6.965   5.202  0.6228 -1.3793 -0.2987
   93SAPE  H17S 9188   5.116   6.965   5.144 -0.3501 -1.5283  2.3809
   93SAPE  C218 9189   5.268   7.012   5.001 -0.0305 -1.3019  0.4036
   93SAPE  H18R 9190   5.360   6.962   4.965  0.2022  0.5043 -1.6786
   93SAPE  H18S 9191   5.290   7.116   5.035 -3.0874 -0.3019 -0.3821
   93SAPE  C219 9192   5.164   7.030   4.884 -0.2361  0.7205  0.3901
   93SAPE  H19R 9193   5.067   7.060   4.931 -0.8567 -0.6115 -0.0138
   93SAPE  H19S 9194   5.139   6.928   4.848  0.7070  0.2260  1.0857
   93SAPE  C220 9195   5.207   7.124   4.769 -0.1387 -0.0381  0.3253
   93SAPE  H20R 9196   5.223   7.227   4.807  0.7296 -0.3691  0.8864
   93SAPE  H20S 9197   5.130   7.119   4.688 -0.4896  1.9195  0.4897
   93SAPE  H20T 9198   5.308   7.092   4.735  0.7148  0.1050  2.5956
   93SAPE   C33 9199   4.783   6.037   6.350 -0.1286 -0.6274 -0.8977
   93SAPE   H3X 9200   4.887   6.025   6.314  0.9854  0.6218  1.6343
   93SAPE   H3Y 9201   4.751   6.144   6.355  1.9384 -0.0029  0.4132
   93SAPE   C34 9202   4.696   5.960   6.251  0.4139  0.4462 -0.2437
   93SAPE   H4X 9203   4.586   5.959   6.269  0.1841 -0.1187 -1.5293
   93SAPE   H4Y 9204   4.723   5.852   6.255  0.4816  0.4388 -0.7456
   93SAPE   C35 9205   4.725   6.013   6.111  0.0941 -0.4157  1.1100
   93SAPE   H5X 9206   4.835   6.004   6.095  0.2710  1.3990  1.0825
   93SAPE   H5Y 9207   4.709   6.123   6.119  3.5511  0.8308 -3.8754
   93SAPE   C36 9208   4.648   5.940   6.005  0.2530 -0.8131 -0.0022
   93SAPE   H6X 9209   4.540   5.966   6.012  0.7610  1.2763  1.1614
   93SAPE   H6Y 9210   4.657   5.832   6.026 -0.0877 -0.7888  0.2904
   93SAPE   C37 9211   4.686   5.974   5.862 -0.4543  0.7607  0.5491
   93SAPE   H7X 9212   4.794   5.998   5.846 -0.8719  0.6797 -3.2375
   93SAPE   H7Y 9213   4.625   6.059   5.826 -3.6015 -0.4951  2.5105
   93SAPE   C38 9214   4.651   5.859   5.761 -0.1248  0.5393 -0.1167
   93SAPE   H8X 9215   4.542   5.845   5.750 -0.5403  1.1203  2.6210
   93SAPE   H8Y 9216   4.685   5.761   5.801 -0.5279  0.2700 -0.4232
   93SAPE   C39 9217   4.721   5.876   5.624  0.1604  0.0584  0.0233
   93SAPE   H9X 9218   4.831   5.863   5.634  0.3674  1.2036 -0.5703
   93SAPE   H9Y 9219   4.704   5.976   5.579  2.6606 -0.1265 -1.4828
   93SAPE  C310 9220   4.671   5.771   5.525  0.0943  0.4615  0.0597
   93SAPE  H10X 9221   4.563   5.756   5.545  0.3643 -0.0368  1.2025
   93SAPE  H10Y 9222   4.721   5.677   5.557  0.6306  1.3174  1.8642
   93SAPE  C311 9223   4.689   5.813   5.370 -0.0520  0.0282  0.1975
   93SAPE  H11X 9224   4.787   5.861   5.349 -0.3533 -0.5017 -2.8422
   93SAPE  H11Y 9225   4.604   5.882   5.352 -1.9179 -1.9056  1.1113
   93SAPE  C312 9226   4.674   5.690   5.281  0.0592  0.9138 -0.2755
   93SAPE  H12X 9227   4.570   5.656   5.299  0.1478 -0.1080 -1.5555
   93SAPE  H12Y 9228   4.750   5.616   5.314  0.5926  1.4476 -0.2916
   93SAPE  C313 9229   4.691   5.720   5.126 -0.9562 -0.1533 -0.0236
   93SAPE  H13X 9230   4.650   5.822   5.111 -0.6631 -0.2971 -2.0691
   93SAPE  H13Y 9231   4.630   5.658   5.056 -1.3102  0.2384 -0.0705
   93SAPE  C314 9232   4.839   5.695   5.087 -0.0655  0.3099 -0.7144
   93SAPE  H14X 9233   4.853   5.585   5.081 -0.3733  0.3375 -2.7428
   93SAPE  H14Y 9234   4.908   5.728   5.167 -0.5069 -0.6424  0.0834
   93SAPE  C315 9235   4.864   5.748   4.948 -0.2073 -0.0227 -0.2113
   93SAPE  H15X 9236   4.869   5.859   4.947 -1.5336  0.0541  0.2736
   93SAPE  H15Y 9237   4.790   5.701   4.880  1.5430 -3.1462 -0.1695
   93SAPE  C316 9238   4.990   5.691   4.885 -0.2578 -0.0335 -0.5270
   93SAPE  H16X 9239   4.996   5.580   4.890 -0.5864 -0.0240  0.4140
   93SAPE  H16Y 9240   5.057   5.722   4.968  0.2765  0.1085 -1.0063
   93SAPE  C317 9241   5.028   5.759   4.757  0.2729 -0.2274 -0.7964
   93SAPE  H17X 9242   5.072   5.857   4.786  1.6713 -1.4983  1.7754
   93SAPE  H17Y 9243   4.940   5.775   4.692 -0.7091  1.9050  0.8978
   93SAPE  C318 9244   5.132   5.683   4.670 -0.3742  0.1538  0.3292
   93SAPE  H18X 9245   5.200   5.767   4.644  1.9095 -1.4324  0.9286
   93SAPE  H18Y 9246   5.100   5.628   4.579  1.7409  0.5616 -0.7140
   93SAPE  H18Z 9247   5.190   5.617   4.737  1.9850  0.0398 -1.7004
   94SAPE     N 9248   5.946   0.914   7.626 -0.0447 -0.7057 -0.1473
   94SAPE   HN1 9249   5.990   0.959   7.709  0.8040 -0.4481 -0.7191
   94SAPE   HN2 9250   5.893   0.833   7.664 -0.9210  0.6103  1.5108
   94SAPE   HN3 9251   6.022   0.867   7.572  1.3080  0.8954  0.2946
   94SAPE   C12 9252   5.862   0.996   7.527 -0.2385 -0.3182  0.0160
   94SAPE  H12A 9253   5.925   1.086   7.506 -2.1432  0.7449 -1.3574
   94SAPE  H12B 9254   5.769   1.033   7.576  0.6163  1.2470  0.5366
   94SAPE   C11 9255   5.849   0.921   7.395  0.1132 -0.8649 -0.7942
   94SAPE  H11A 9256   5.941   0.921   7.332 -0.5792  1.8875 -1.9458
   94SAPE  H11B 9257   5.783   0.979   7.328  0.0059  1.4009  1.1414
   94SAPE     P 9258   5.660   0.722   7.362  0.2112  0.0292  0.0768
   94SAPE   O13 9259   5.688   0.589   7.309 -0.8851 -0.4266 -0.7285
   94SAPE   O14 9260   5.569   0.726   7.482 -0.2418  0.0366 -0.3541
   94SAPE   O12 9261   5.797   0.788   7.416 -0.7688  0.2930 -0.5181
   94SAPE   O11 9262   5.600   0.816   7.250  0.0739  0.2559 -0.2556
   94SAPE    C1 9263   5.625   0.793   7.108 -0.1659 -0.0512 -0.1413
   94SAPE    HA 9264   5.616   0.685   7.081  0.2593 -0.2499  0.4735
   94SAPE    HB 9265   5.548   0.850   7.052 -0.7627 -0.1810  0.5236
   94SAPE    C2 9266   5.760   0.839   7.064 -0.2031  0.1068  0.2103
   94SAPE    HS 9267   5.834   0.796   7.135  2.4265  1.8118 -1.3321
   94SAPE   O21 9268   5.766   0.978   7.066  0.1975 -0.5969  0.3919
   94SAPE   C21 9269   5.882   1.034   7.022  0.3476  0.4263  0.6330
   94SAPE   O22 9270   5.991   0.976   7.035 -0.0809 -0.1933 -0.2906
   94SAPE   C22 9271   5.861   1.169   6.963  0.2509  0.1397 -0.1906
   94SAPE   H2R 9272   5.806   1.143   6.871 -0.7328  0.2329  0.3534
   94SAPE   H2S 9273   5.792   1.231   7.025 -0.3656  0.4322 -1.1528
   94SAPE    C3 9274   5.789   0.773   6.926 -1.0708  0.2971 -0.6036
   94SAPE    HX 9275   5.781   0.662   6.932 -2.6865  0.4618  1.5676
   94SAPE    HY 9276   5.892   0.801   6.896 -1.1006  0.7403 -0.2976
   94SAPE   O31 9277   5.697   0.825   6.824 -0.0361 -0.4094 -0.1069
   94SAPE   C31 9278   5.751   0.889   6.723  0.6654 -0.3919 -0.4456
   94SAPE   O32 9279   5.864   0.922   6.707  0.3581  0.1697 -0.1489
   94SAPE   C32 9280   5.643   0.921   6.616  0.1262 -0.0788  0.3121
   94SAPE   H2X 9281   5.554   0.957   6.672 -0.2318  0.0620 -0.3359
   94SAPE   H2Y 9282   5.627   0.821   6.570  1.2707 -0.6579  1.1188
   94SAPE   C23 9283   5.999   1.238   6.948  0.4682 -0.2752 -0.2694
   94SAPE   H3R 9284   6.062   1.169   6.888  3.4055  0.0496  2.1847
   94SAPE   H3S 9285   6.050   1.253   7.046  0.6770 -3.1282  0.1547
   94SAPE   C24 9286   5.984   1.377   6.877  0.9288 -0.7480 -0.0952
   94SAPE   H4R 9287   6.091   1.392   6.849  1.1342 -0.2570  0.8923
   94SAPE   H4S 9288   5.955   1.449   6.957  2.0278  0.2879 -0.6036
   94SAPE   C25 9289   5.888   1.403   6.762 -0.2194 -0.6881 -0.1465
   94SAPE   H5R 9290   5.801   1.466   6.785 -0.8406 -0.5911 -2.5564
   94SAPE   C26 9291   5.894   1.352   6.639  0.7288 -0.6025 -0.0602
   94SAPE   H6R 9292   5.813   1.376   6.568  1.3971  1.2473 -0.2480
   94SAPE   C27 9293   5.988   1.247   6.587 -0.2925  0.7612  0.2563
   94SAPE   H7R 9294   5.966   1.151   6.639 -3.7517  0.4848 -1.4555
   94SAPE   H7S 9295   6.093   1.272   6.616 -0.7391  0.7602  2.0062
   94SAPE   C28 9296   5.981   1.218   6.437 -0.7011 -0.1484  0.2980
   94SAPE   H8R 9297   5.978   1.111   6.412 -0.4199  0.0933 -0.8420
   94SAPE   C29 9298   5.984   1.304   6.330 -0.7158  0.1817 -0.2406
   94SAPE   H9R 9299   5.982   1.266   6.227 -2.8387  0.0730 -0.2136
   94SAPE  C210 9300   5.988   1.455   6.329 -0.0630  0.0810 -0.2628
   94SAPE  H10R 9301   6.096   1.482   6.337  0.2207 -1.2326  0.7169
   94SAPE  H10S 9302   5.954   1.515   6.415  0.9762  0.6358 -0.2234
   94SAPE  C211 9303   5.925   1.516   6.202 -0.0013 -0.2218 -0.9426
   94SAPE  H11R 9304   5.819   1.542   6.215 -0.1656 -1.6849  1.4749
   94SAPE  C212 9305   5.990   1.526   6.085 -0.2794  0.4885  0.2285
   94SAPE  H12R 9306   5.934   1.566   5.999 -0.0196  0.1596 -0.0940
   94SAPE  C213 9307   6.133   1.498   6.049 -0.5505 -0.4591 -0.7347
   94SAPE  H13R 9308   6.195   1.475   6.138  0.5346  0.3605 -1.2433
   94SAPE  H13S 9309   6.170   1.582   5.986 -0.8510  0.2739  0.0526
   94SAPE  C214 9310   6.136   1.376   5.956  0.1336 -0.0129 -0.3412
   94SAPE  H14R 9311   6.095   1.287   6.006 -1.4705  0.3828 -0.8949
   94SAPE  C215 9312   6.178   1.359   5.831 -1.1066 -0.5499  0.1035
   94SAPE  H15R 9313   6.182   1.253   5.801 -2.2268 -1.2462  2.2147
   94SAPE  C216 9314   6.250   1.461   5.739 -0.0333 -0.3230 -0.0461
   94SAPE  H16R 9315   6.345   1.424   5.697 -0.0049  1.6801 -1.9411
   94SAPE  H16S 9316   6.270   1.559   5.787  2.8726  0.0209 -1.7426
   94SAPE  C217 9317   6.162   1.497   5.616  0.4387  0.3174 -0.0186
   94SAPE  H17R 9318   6.128   1.402   5.570  3.6786 -1.1929  0.3996
   94SAPE  H17S 9319   6.222   1.553   5.541 -0.3860  0.6685 -0.4196
   94SAPE  C218 9320   6.048   1.595   5.645  0.4673 -0.8858 -0.3601
   94SAPE  H18R 9321   6.099   1.686   5.681 -2.2992 -0.3824  2.6807
   94SAPE  H18S 9322   5.989   1.551   5.728  0.0156 -0.1280 -0.2705
   94SAPE  C219 9323   5.958   1.620   5.517 -0.5767 -0.3822 -0.5506
   94SAPE  H19R 9324   5.925   1.521   5.480 -0.5830 -1.5757  2.3427
   94SAPE  H19S 9325   6.025   1.658   5.437  1.6919 -1.5322  0.6884
   94SAPE  C220 9326   5.834   1.713   5.539  0.7076  0.5449 -1.6896
   94SAPE  H20R 9327   5.871   1.804   5.592 -0.0351  0.3910 -0.8805
   94SAPE  H20S 9328   5.767   1.662   5.611  0.0785  1.6697 -1.4597
   94SAPE  H20T 9329   5.792   1.743   5.441 -2.1240 -0.1962 -0.7817
   94SAPE   C33 9330   5.683   1.026   6.506 -0.4336 -0.2885 -1.1830
   94SAPE   H3X 9331   5.792   1.029   6.486 -0.7580  0.9062 -2.9944
   94SAPE   H3Y 9332   5.659   1.127   6.547  2.1156  0.8407 -2.2174
   94SAPE   C34 9333   5.608   1.020   6.372  0.2418  0.0567  0.5087
   94SAPE   H4X 9334   5.497   1.027   6.383  0.2584  1.2366  0.1271
   94SAPE   H4Y 9335   5.625   0.916   6.336 -0.7974 -0.3553  1.1478
   94SAPE   C35 9336   5.658   1.124   6.276 -0.0282  0.1779  1.0096
   94SAPE   H5X 9337   5.769   1.134   6.266  0.0841  1.5080  2.9323
   94SAPE   H5Y 9338   5.633   1.228   6.308  1.0686  1.3029 -1.5039
   94SAPE   C36 9339   5.636   1.109   6.121 -0.2489  0.3591 -0.1864
   94SAPE   H6X 9340   5.531   1.080   6.103  0.1179  0.0164 -1.9047
   94SAPE   H6Y 9341   5.695   1.021   6.088 -0.7706  0.7290 -2.2374
   94SAPE   C37 9342   5.700   1.232   6.050 -0.7069 -0.2497  0.1471
   94SAPE   H7X 9343   5.805   1.253   6.078 -1.1798  1.2569  0.9556
   94SAPE   H7Y 9344   5.635   1.316   6.084 -1.5174  0.0883 -2.0604
   94SAPE   C38 9345   5.685   1.230   5.896  0.5946 -0.3010  0.5257
   94SAPE   H8X 9346   5.585   1.187   5.876  0.6204 -1.2646  2.3330
   94SAPE   H8Y 9347   5.759   1.162   5.849 -0.7424 -0.7802 -0.9785
   94SAPE   C39 9348   5.694   1.371   5.822  0.5221  0.4542 -0.2127
   94SAPE   H9X 9349   5.786   1.425   5.852  0.5127 -1.1381  3.2269
   94SAPE   H9Y 9350   5.606   1.425   5.863 -0.7779  0.3724 -2.7232
   94SAPE  C310 9351   5.683   1.363   5.666 -0.1436 -0.1279 -0.1230
   94SAPE  H10X 9352   5.730   1.271   5.625  0.7287  0.2636 -0.0214
   94SAPE  H10Y 9353   5.719   1.458   5.620 -1.7107  0.1276 -0.9087
   94SAPE  C311 9354   5.533   1.348   5.619 -0.0888  0.2251  0.2474
   94SAPE  H11X 9355   5.468   1.437   5.628 -2.1128 -1.0926 -0.5044
   94SAPE  H11Y 9356   5.485   1.269   5.682 -0.1545  0.3940  0.4092
   94SAPE  C312 9357   5.536   1.305   5.464  0.4376  0.4992  0.1240
   94SAPE  H12X 9358   5.429   1.280   5.448 -0.3737  2.5313  1.8057
   94SAPE  H12Y 9359   5.596   1.212   5.461  0.0336  0.0907  2.6097
   94SAPE  C313 9360   5.577   1.415   5.369  0.9853  0.5402  0.0359
   94SAPE  H13X 9361   5.684   1.442   5.381  1.5656 -1.0541 -1.2390
   94SAPE  H13Y 9362   5.518   1.502   5.405  0.2179 -0.3132  0.8868
   94SAPE  C314 9363   5.534   1.399   5.223  0.5911 -0.3553 -0.6217
   94SAPE  H14X 9364   5.524   1.499   5.177  1.9640 -0.1776 -0.5764
   94SAPE  H14Y 9365   5.431   1.357   5.223  0.8754 -1.0877 -0.9974
   94SAPE  C315 9366   5.636   1.308   5.151  0.0902  0.1877 -0.3681
   94SAPE  H15X 9367   5.664   1.227   5.221  0.1358  0.4907 -0.0371
   94SAPE  H15Y 9368   5.726   1.370   5.131 -0.0338  0.3420 -0.4478
   94SAPE  C316 9369   5.587   1.235   5.022 -0.1566 -0.5086 -0.4993
   94SAPE  H16X 9370   5.552   1.309   4.947 -2.4370 -0.2824  0.7103
   94SAPE  H16Y 9371   5.491   1.182   5.039 -0.4108  0.0965  0.0202
   94SAPE  C317 9372   5.695   1.153   4.948  0.0733  0.4904  0.6016
   94SAPE  H17X 9373   5.731   1.081   5.024  1.4673  1.1059  0.5424
   94SAPE  H17Y 9374   5.781   1.218   4.922 -1.1598  1.5377 -1.0572
   94SAPE  C318 9375   5.645   1.080   4.821  0.0960  0.9441 -0.2176
   94SAPE  H18X 9376   5.705   0.996   4.780 -1.5294  0.4391 -1.6567
   94SAPE  H18Y 9377   5.630   1.156   4.742 -1.2598 -1.1021 -2.0389
   94SAPE  H18Z 9378   5.544   1.039   4.840 -0.2087  1.4263 -0.8022
   95SAPE     N 9379   0.876   1.197   6.600 -0.6220 -0.4549 -0.5251
   95SAPE   HN1 9380   0.913   1.111   6.644 -0.9489 -1.3710 -1.9752
   95SAPE   HN2 9381   0.880   1.271   6.673 -2.5405 -0.2330 -0.6064
   95SAPE   HN3 9382   0.778   1.178   6.570 -0.9329  0.6323 -0.2353
   95SAPE   C12 9383   0.955   1.248   6.485  0.4638  0.2475 -0.2714
   95SAPE  H12A 9384   0.913   1.195   6.397 -2.9462  3.9905 -1.2071
   95SAPE  H12B 9385   1.060   1.222   6.510  0.6171  1.1088  0.0178
   95SAPE   C11 9386   0.932   1.399   6.476  0.1173 -0.5856  0.3591
   95SAPE  H11A 9387   0.827   1.410   6.441  1.4414  0.0611 -4.0658
   95SAPE  H11B 9388   0.986   1.433   6.385  0.1657 -1.9399 -0.1439
   95SAPE     P 9389   1.099   1.534   6.625 -0.1683 -0.1936 -0.2479
   95SAPE   O13 9390   1.085   1.617   6.747  0.4782 -0.3630 -0.2915
   95SAPE   O14 9391   1.196   1.422   6.641 -0.2778  0.0811 -0.4445
   95SAPE   O12 9392   0.962   1.468   6.593  0.3504  0.4227 -0.4161
   95SAPE   O11 9393   1.147   1.626   6.506 -0.8041  0.0689 -0.8776
   95SAPE    C1 9394   1.066   1.730   6.442 -0.2461 -0.7285  0.0446
   95SAPE    HA 9395   1.043   1.702   6.337  1.0589  1.5074 -0.8958
   95SAPE    HB 9396   0.976   1.749   6.504 -0.7682 -0.6294 -0.7242
   95SAPE    C2 9397   1.145   1.867   6.431 -0.3485 -0.3632 -0.0318
   95SAPE    HS 9398   1.179   1.890   6.535 -0.0245  0.8816 -0.3874
   95SAPE   O21 9399   1.063   1.971   6.373  0.4183 -0.0198  0.7193
   95SAPE   C21 9400   0.970   2.017   6.452  0.9910 -0.7441 -0.6745
   95SAPE   O22 9401   0.959   2.001   6.574 -0.1921  0.3886  0.4546
   95SAPE   C22 9402   0.873   2.093   6.372  0.2590 -1.1089 -0.1304
   95SAPE   H2R 9403   0.793   2.140   6.434  1.4668 -0.3112  0.8796
   95SAPE   H2S 9404   0.915   2.172   6.306 -0.0859 -0.6260  0.2129
   95SAPE    C3 9405   1.272   1.853   6.354 -0.1788 -0.7554 -0.7859
   95SAPE    HX 9406   1.334   1.772   6.397  1.7334  0.5192 -1.0055
   95SAPE    HY 9407   1.330   1.947   6.370 -2.0285  0.4923 -1.0079
   95SAPE   O31 9408   1.257   1.829   6.211  0.2918  0.3001  0.1006
   95SAPE   C31 9409   1.369   1.792   6.154  0.1671  0.5498 -0.4733
   95SAPE   O32 9410   1.476   1.781   6.213  0.7571 -0.0530  0.1950
   95SAPE   C32 9411   1.341   1.765   6.004 -0.2821  0.2824  0.3910
   95SAPE   H2X 9412   1.253   1.823   5.970 -0.7777  0.8868  2.5176
   95SAPE   H2Y 9413   1.330   1.655   6.006 -1.1632  0.3561  0.0106
   95SAPE   C23 9414   0.805   1.991   6.280 -0.6543 -0.3398 -0.6791
   95SAPE   H3R 9415   0.763   1.908   6.340  0.2272 -0.5247 -0.3052
   95SAPE   H3S 9416   0.880   1.944   6.214  0.5429  0.3099  0.1744
   95SAPE   C24 9417   0.688   2.048   6.200  0.4481  0.2223 -0.4228
   95SAPE   H4R 9418   0.733   2.135   6.148 -1.3850  1.3892 -0.1586
   95SAPE   H4S 9419   0.611   2.099   6.262 -0.0279  1.1826 -1.7461
   95SAPE   C25 9420   0.612   1.943   6.126  0.0744 -0.2787  0.2782
   95SAPE   H5R 9421   0.532   1.891   6.180 -0.4213  0.1748 -0.0085
   95SAPE   C26 9422   0.627   1.919   5.992 -0.9134 -0.5324  0.2327
   95SAPE   H6R 9423   0.561   1.838   5.959  0.1497 -2.0846  1.7716
   95SAPE   C27 9424   0.732   1.984   5.899 -0.4784 -0.4896 -0.1165
   95SAPE   H7R 9425   0.781   2.067   5.954  0.2118  0.4253 -2.0254
   95SAPE   H7S 9426   0.685   2.033   5.811 -0.0069  1.0441  0.4511
   95SAPE   C28 9427   0.839   1.884   5.862  0.0356 -0.1277 -0.3054
   95SAPE   H8R 9428   0.815   1.780   5.888 -0.8523  0.5161  1.6407
   95SAPE   C29 9429   0.957   1.917   5.807  0.0743  0.8429 -0.1834
   95SAPE   H9R 9430   1.027   1.836   5.785 -0.1287  1.2740 -2.6159
   95SAPE  C210 9431   0.998   2.054   5.761 -0.3108  0.5151 -0.4591
   95SAPE  H10R 9432   0.930   2.137   5.792 -2.1152 -0.3223 -2.0071
   95SAPE  H10S 9433   0.978   2.048   5.652 -2.4301  1.7079 -0.2010
   95SAPE  C211 9434   1.138   2.087   5.804 -0.2046 -0.2622 -0.0156
   95SAPE  H11R 9435   1.157   2.112   5.910 -0.6372 -0.0778  0.0230
   95SAPE  C212 9436   1.247   2.091   5.722  0.4432 -0.2936 -0.4140
   95SAPE  H12R 9437   1.343   2.115   5.770 -0.3969 -0.7871  1.6404
   95SAPE  C213 9438   1.248   2.061   5.571 -0.2684  0.8879  0.0988
   95SAPE  H13R 9439   1.172   1.984   5.544  0.6813  0.1066 -0.3706
   95SAPE  H13S 9440   1.347   2.021   5.542 -0.9918 -0.8819 -0.0757
   95SAPE  C214 9441   1.223   2.178   5.482  0.0455  0.2115  0.4906
   95SAPE  H14R 9442   1.250   2.276   5.525 -2.7737  1.6200 -0.6456
   95SAPE  C215 9443   1.210   2.170   5.350 -0.4792 -0.5430  0.3460
   95SAPE  H15R 9444   1.224   2.261   5.290  2.8055 -0.6944  0.6873
   95SAPE  C216 9445   1.193   2.049   5.269  0.3503  0.4006 -0.4497
   95SAPE  H16R 9446   1.094   2.053   5.220  0.2486  2.8359 -0.1849
   95SAPE  H16S 9447   1.186   1.957   5.330  0.3221 -0.2617 -1.4406
   95SAPE  C217 9448   1.295   2.034   5.158  0.4529  0.4580 -0.1480
   95SAPE  H17R 9449   1.285   1.928   5.128 -0.2238  0.6288 -0.5671
   95SAPE  H17S 9450   1.398   2.056   5.193 -0.0220 -0.6812  2.1098
   95SAPE  C218 9451   1.257   2.118   5.036 -0.3680 -0.0047  0.3052
   95SAPE  H18R 9452   1.277   2.226   5.056  0.3407 -0.3087  1.2936
   95SAPE  H18S 9453   1.148   2.118   5.015 -0.4753 -0.0475  0.8575
   95SAPE  C219 9454   1.346   2.067   4.920  0.4644 -0.5273  0.9728
   95SAPE  H19R 9455   1.333   1.959   4.896  1.1928 -0.0499 -1.9754
   95SAPE  H19S 9456   1.449   2.069   4.960  1.1981 -1.9422 -0.7221
   95SAPE  C220 9457   1.327   2.145   4.783 -0.4468 -0.3320  0.1129
   95SAPE  H20R 9458   1.312   2.070   4.703  1.3359  1.0964 -1.6798
   95SAPE  H20S 9459   1.418   2.208   4.766  1.0949 -1.3276  3.6892
   95SAPE  H20T 9460   1.239   2.212   4.788  0.4555  0.8590  0.5717
   95SAPE   C33 9461   1.461   1.799   5.910  0.4258 -0.5358 -0.1007
   95SAPE   H3X 9462   1.551   1.747   5.950  0.4860 -1.0618 -0.8954
   95SAPE   H3Y 9463   1.484   1.908   5.909 -0.1351 -0.4257 -0.8165
   95SAPE   C34 9464   1.449   1.742   5.768 -0.4751  0.5500  0.0093
   95SAPE   H4X 9465   1.348   1.752   5.724  0.6054  0.8017 -2.5989
   95SAPE   H4Y 9466   1.476   1.634   5.778  0.7688  0.9356  1.2053
   95SAPE   C35 9467   1.558   1.800   5.670 -0.4769 -0.4067  0.0019
   95SAPE   H5X 9468   1.659   1.756   5.679  0.0564  0.7611 -0.0861
   95SAPE   H5Y 9469   1.544   1.908   5.692 -1.3311 -0.5116  0.0127
   95SAPE   C36 9470   1.518   1.791   5.523 -0.2016  0.5860  0.0932
   95SAPE   H6X 9471   1.418   1.833   5.497 -0.4035  0.8906  1.2769
   95SAPE   H6Y 9472   1.499   1.683   5.504  1.6286 -0.0626  1.6802
   95SAPE   C37 9473   1.635   1.834   5.428  0.5714  0.7571  0.2795
   95SAPE   H7X 9474   1.721   1.770   5.456 -0.6389 -1.0398  0.0551
   95SAPE   H7Y 9475   1.645   1.942   5.451 -2.7160  1.6219 -1.5945
   95SAPE   C38 9476   1.605   1.817   5.280  0.0791  0.4589 -0.1345
   95SAPE   H8X 9477   1.514   1.867   5.240 -0.4209 -2.1576 -2.5167
   95SAPE   H8Y 9478   1.593   1.709   5.261 -0.0354  0.7045 -1.5777
   95SAPE   C39 9479   1.729   1.864   5.193 -0.0260 -0.2354 -0.0625
   95SAPE   H9X 9480   1.805   1.783   5.190  0.2361  0.0248 -2.6004
   95SAPE   H9Y 9481   1.767   1.960   5.231 -3.0351  1.4960 -1.0755
   95SAPE  C310 9482   1.692   1.890   5.052  0.6103  0.5416 -0.1131
   95SAPE  H10X 9483   1.786   1.925   5.003 -0.4023  1.2414 -1.6186
   95SAPE  H10Y 9484   1.617   1.970   5.040  1.5266  1.6701  1.2919
   95SAPE  C311 9485   1.646   1.753   4.981 -0.5556  0.0938  0.4154
   95SAPE  H11X 9486   1.537   1.753   5.000 -0.4776  0.4199  0.8729
   95SAPE  H11Y 9487   1.707   1.686   5.045 -0.9798 -1.4604 -0.7631
   95SAPE  C312 9488   1.676   1.742   4.836  0.3321  0.7299 -0.0088
   95SAPE  H12X 9489   1.655   1.637   4.807 -0.3020  0.9037 -0.2033
   95SAPE  H12Y 9490   1.781   1.750   4.801  0.0531  0.4517 -0.9432
   95SAPE  C313 9491   1.590   1.831   4.751  0.1636 -0.3357 -0.3325
   95SAPE  H13X 9492   1.591   1.934   4.792  3.4179 -0.0385 -0.8653
   95SAPE  H13Y 9493   1.485   1.796   4.745  0.2384 -0.5838 -0.2320
   95SAPE  C314 9494   1.634   1.844   4.612  0.1198 -0.1406 -0.7144
   95SAPE  H14X 9495   1.727   1.904   4.607 -1.1950  1.9260 -1.7394
   95SAPE  H14Y 9496   1.551   1.902   4.566 -1.3517 -1.0908  0.6324
   95SAPE  C315 9497   1.646   1.713   4.528 -0.4243  0.5361 -0.0333
   95SAPE  H15X 9498   1.730   1.653   4.568  1.6717  2.8069 -0.7481
   95SAPE  H15Y 9499   1.673   1.740   4.424 -0.4049  0.9388  0.0732
   95SAPE  C316 9500   1.514   1.637   4.521 -0.5829  0.3569 -0.4625
   95SAPE  H16X 9501   1.442   1.712   4.483  1.7152  2.2493 -1.3317
   95SAPE  H16Y 9502   1.483   1.612   4.625  2.4948  1.6317  0.8782
   95SAPE  C317 9503   1.509   1.510   4.438  0.3453  0.0699 -0.1857
   95SAPE  H17X 9504   1.486   1.549   4.336 -0.3683 -0.6165 -0.2965
   95SAPE  H17Y 9505   1.418   1.451   4.463  0.7808 -0.7941 -0.5977
   95SAPE  C318 9506   1.632   1.422   4.451  0.6652 -0.5094 -0.9874
   95SAPE  H18X 9507   1.626   1.329   4.390  0.2825 -0.4593 -1.0306
   95SAPE  H18Y 9508   1.644   1.394   4.557  0.9433 -1.5960 -1.2927
   95SAPE  H18Z 9509   1.711   1.485   4.405 -0.0608  0.8329 -0.4455
   96SAPE     N 9510   4.367   4.055   7.437 -0.0633  0.7413  0.2395
   96SAPE   HN1 9511   4.337   4.131   7.372  0.3202  2.3699  1.8746
   96SAPE   HN2 9512   4.293   3.986   7.462  0.1876  0.2397 -0.4026
   96SAPE   HN3 9513   4.390   4.101   7.528  0.3408 -0.6814  0.8814
   96SAPE   C12 9514   4.486   3.979   7.385  0.1801  0.5766  0.1646
   96SAPE  H12A 9515   4.466   3.957   7.278  0.2307  0.5165  0.1677
   96SAPE  H12B 9516   4.488   3.886   7.445 -0.7064 -0.5952 -1.5401
   96SAPE   C11 9517   4.614   4.072   7.382 -0.3238  0.2430  0.7027
   96SAPE  H11A 9518   4.694   4.009   7.339  0.7170  1.1573  1.2674
   96SAPE  H11B 9519   4.634   4.101   7.488 -3.4009  0.8625  1.2251
   96SAPE     P 9520   4.634   4.195   7.151 -0.1139 -0.3482 -0.0350
   96SAPE   O13 9521   4.579   4.327   7.099  0.0413 -0.4441  0.6968
   96SAPE   O14 9522   4.775   4.173   7.136 -0.3180  0.6822 -0.0629
   96SAPE   O12 9523   4.597   4.194   7.303 -0.5878 -0.0525 -1.0803
   96SAPE   O11 9524   4.579   4.068   7.082  0.5463 -0.3113  0.4005
   96SAPE    C1 9525   4.657   3.952   7.055 -0.6510 -0.4312 -0.0677
   96SAPE    HA 9526   4.725   3.909   7.132  0.9753 -3.3703 -2.8751
   96SAPE    HB 9527   4.582   3.871   7.045  0.1127 -1.0027 -1.5308
   96SAPE    C2 9528   4.733   3.971   6.920 -0.3374 -0.3202  0.0512
   96SAPE    HS 9529   4.806   4.054   6.935 -1.2146  0.2022  1.6379
   96SAPE   O21 9530   4.635   3.991   6.818 -0.2517  0.2611  0.1891
   96SAPE   C21 9531   4.667   4.089   6.731 -0.3775 -0.4085  0.1825
   96SAPE   O22 9532   4.775   4.145   6.725 -0.5631 -0.6447  0.0358
   96SAPE   C22 9533   4.543   4.111   6.640  0.8090 -0.3048 -0.1658
   96SAPE   H2R 9534   4.519   4.017   6.586 -1.2707  1.3715 -2.3782
   96SAPE   H2S 9535   4.462   4.132   6.713 -1.9443 -1.9979 -2.5142
   96SAPE    C3 9536   4.824   3.847   6.888  0.4606 -0.7715  0.0560
   96SAPE    HX 9537   4.756   3.759   6.878  0.9678 -1.4831  2.2826
   96SAPE    HY 9538   4.882   3.835   6.982 -1.4828 -0.4709  1.3515
   96SAPE   O31 9539   4.902   3.856   6.766 -0.4286  0.0052 -0.3502
   96SAPE   C31 9540   4.998   3.946   6.765 -0.2433 -0.4448 -0.3605
   96SAPE   O32 9541   5.040   3.996   6.867 -0.0935 -0.1746 -0.4499
   96SAPE   C32 9542   5.063   3.960   6.628  0.4025  0.1267  0.9555
   96SAPE   H2X 9543   4.996   4.027   6.569 -0.4410 -1.1386  0.4466
   96SAPE   H2Y 9544   5.078   3.862   6.578  2.2350 -0.4419  2.5102
   96SAPE   C23 9545   4.556   4.227   6.533  0.0391 -0.5554  0.3988
   96SAPE   H3R 9546   4.590   4.319   6.584  0.9666  0.6314 -2.2042
   96SAPE   H3S 9547   4.451   4.242   6.498 -0.3387  1.1266  2.0953
   96SAPE   C24 9548   4.644   4.192   6.409  0.2948 -0.2400 -0.1713
   96SAPE   H4R 9549   4.585   4.125   6.344  0.8006 -0.7130 -0.1506
   96SAPE   H4S 9550   4.732   4.131   6.437 -0.1915 -0.0459  1.9600
   96SAPE   C25 9551   4.672   4.312   6.323 -0.2640  0.7694 -0.5173
   96SAPE   H5R 9552   4.654   4.405   6.379 -1.7199  1.0732 -1.4409
   96SAPE   C26 9553   4.744   4.305   6.215 -0.2569 -0.3226  0.2754
   96SAPE   H6R 9554   4.774   4.397   6.162 -0.1595 -0.8715 -0.6248
   96SAPE   C27 9555   4.791   4.175   6.159  0.8678 -0.4382 -1.0000
   96SAPE   H7R 9556   4.713   4.098   6.174  0.6622 -0.6411 -2.9550
   96SAPE   H7S 9557   4.892   4.141   6.190  0.0405 -0.7459  1.6589
   96SAPE   C28 9558   4.793   4.177   6.008 -0.2294 -0.6201 -0.9482
   96SAPE   H8R 9559   4.726   4.247   5.956 -0.5689 -0.9385 -0.9439
   96SAPE   C29 9560   4.878   4.108   5.931  0.3423  0.0287 -0.0077
   96SAPE   H9R 9561   4.865   4.135   5.825 -2.2691  3.8699  1.0601
   96SAPE  C210 9562   4.974   4.001   5.968 -0.1293  0.3702  0.7934
   96SAPE  H10R 9563   4.907   3.917   5.994  0.9053 -0.0711  2.1744
   96SAPE  H10S 9564   5.022   4.024   6.066 -0.4806  0.0800  1.0340
   96SAPE  C211 9565   5.077   3.978   5.864 -0.4620 -0.8874  0.4358
   96SAPE  H11R 9566   5.165   4.042   5.879 -0.9961  0.1835 -0.7130
   96SAPE  C212 9567   5.094   3.882   5.772 -0.7303  0.0384 -1.1390
   96SAPE  H12R 9568   5.181   3.880   5.705 -0.2712  0.5437 -0.5664
   96SAPE  C213 9569   4.986   3.783   5.739  0.1714 -0.1856 -0.0807
   96SAPE  H13R 9570   4.923   3.827   5.659  0.1192  1.9581  1.0586
   96SAPE  H13S 9571   4.926   3.769   5.832  0.0794 -1.0978 -0.2747
   96SAPE  C214 9572   5.043   3.646   5.709 -0.3669 -0.3776 -0.2429
   96SAPE  H14R 9573   5.070   3.583   5.795  1.0849 -1.5323 -1.4663
   96SAPE  C215 9574   5.060   3.593   5.586  0.0993 -0.1894  0.0326
   96SAPE  H15R 9575   5.104   3.492   5.580 -2.3132 -1.3403  0.5493
   96SAPE  C216 9576   5.024   3.655   5.451  0.2036 -0.8138  0.0759
   96SAPE  H16R 9577   5.007   3.763   5.467  0.4499 -1.0687  2.3869
   96SAPE  H16S 9578   4.926   3.619   5.413 -1.1222  0.8257  1.7591
   96SAPE  C217 9579   5.119   3.654   5.333 -0.1929 -0.7485 -0.7204
   96SAPE  H17R 9580   5.215   3.709   5.347 -0.9455  0.2879  0.6150
   96SAPE  H17S 9581   5.077   3.706   5.245  0.3466  1.0475  0.0132
   96SAPE  C218 9582   5.158   3.508   5.289  0.5794  0.0383  0.7715
   96SAPE  H18R 9583   5.076   3.439   5.260  0.2426  0.7318  0.0380
   96SAPE  H18S 9584   5.205   3.462   5.379  0.2462 -3.3241 -0.6596
   96SAPE  C219 9585   5.269   3.498   5.184  0.2293  0.1821  0.0366
   96SAPE  H19R 9586   5.358   3.556   5.219  2.1770 -1.7598 -1.4166
   96SAPE  H19S 9587   5.241   3.543   5.087  0.3156 -0.0678 -0.1053
   96SAPE  C220 9588   5.317   3.357   5.158  0.4807 -0.2416  0.7537
   96SAPE  H20R 9589   5.232   3.293   5.127  0.3972 -1.0980  2.6139
   96SAPE  H20S 9590   5.381   3.305   5.233 -0.3692 -1.3839  0.7244
   96SAPE  H20T 9591   5.377   3.354   5.065 -2.1385 -0.8840 -1.0140
   96SAPE   C33 9592   5.189   4.045   6.638  0.4240 -0.4827  0.4465
   96SAPE   H3X 9593   5.256   4.006   6.719  0.4687  1.4176  1.3827
   96SAPE   H3Y 9594   5.167   4.151   6.665 -0.6434 -0.3010 -1.0042
   96SAPE   C34 9595   5.272   4.050   6.502 -0.4313 -0.4668 -0.3882
   96SAPE   H4X 9596   5.353   4.126   6.503  1.5130 -2.3889 -1.6124
   96SAPE   H4Y 9597   5.206   4.088   6.421 -1.8644 -3.1294 -0.5664
   96SAPE   C35 9598   5.343   3.924   6.452  0.6866 -0.2798 -0.4476
   96SAPE   H5X 9599   5.280   3.839   6.417  0.5768 -0.2815 -0.2478
   96SAPE   H5Y 9600   5.402   3.881   6.536  0.4282 -1.3661 -0.7982
   96SAPE   C36 9601   5.434   3.954   6.334 -0.5606  0.6641  0.0772
   96SAPE   H6X 9602   5.520   3.885   6.338  1.3425  2.6624 -2.5842
   96SAPE   H6Y 9603   5.487   4.051   6.349 -0.7440  0.5567  1.5634
   96SAPE   C37 9604   5.370   3.951   6.196  0.0892  0.5616  0.5275
   96SAPE   H7X 9605   5.303   4.040   6.186  0.7160  0.9566 -0.3028
   96SAPE   H7Y 9606   5.309   3.859   6.185 -0.8625  0.8924  2.5255
   96SAPE   C38 9607   5.479   3.964   6.089 -0.0532 -0.5246 -1.5253
   96SAPE   H8X 9608   5.570   3.902   6.109  0.1509 -0.5327 -2.4259
   96SAPE   H8Y 9609   5.502   4.072   6.098 -1.5515 -0.3673  1.4161
   96SAPE   C39 9610   5.429   3.929   5.946 -0.2496 -0.6368 -0.4808
   96SAPE   H9X 9611   5.356   4.010   5.921 -0.1840 -0.9252 -1.6513
   96SAPE   H9Y 9612   5.379   3.830   5.947 -1.9131  0.0365 -3.8622
   96SAPE  C310 9613   5.550   3.921   5.852  0.8178 -0.0496  0.1668
   96SAPE  H10X 9614   5.626   3.854   5.897  1.0521  0.9866  1.3723
   96SAPE  H10Y 9615   5.611   4.010   5.826 -0.2279 -0.4328 -4.4980
   96SAPE  C311 9616   5.506   3.872   5.717 -0.2365 -0.0594 -0.0513
   96SAPE  H11X 9617   5.424   3.800   5.738 -0.3177  0.3101  0.9479
   96SAPE  H11Y 9618   5.592   3.815   5.675 -1.2190  0.1076 -2.4516
   96SAPE  C312 9619   5.466   3.980   5.625  1.2291  0.4819  1.0338
   96SAPE  H12X 9620   5.555   4.044   5.607  0.5227  1.1290 -0.2285
   96SAPE  H12Y 9621   5.389   4.052   5.659  0.2614  1.2536 -2.3829
   96SAPE  C313 9622   5.425   3.910   5.494 -0.7434 -0.2143  0.1558
   96SAPE  H13X 9623   5.332   3.851   5.509 -1.5885  1.4529  1.9375
   96SAPE  H13Y 9624   5.510   3.838   5.481  0.4634  1.2103 -0.1348
   96SAPE  C314 9625   5.425   3.994   5.365 -0.7100  0.0309  0.1495
   96SAPE  H14X 9626   5.530   4.013   5.334 -1.3739  0.6639 -1.8756
   96SAPE  H14Y 9627   5.384   4.094   5.389 -1.6445 -0.0419 -1.0352
   96SAPE  C315 9628   5.341   3.943   5.248  0.4896  0.9445 -0.2265
   96SAPE  H15X 9629   5.238   3.929   5.287  0.6683  0.2126  0.0020
   96SAPE  H15Y 9630   5.385   3.847   5.216 -0.1016 -0.0160  1.6707
   96SAPE  C316 9631   5.347   4.024   5.107 -0.6570  0.0649 -0.0782
   96SAPE  H16X 9632   5.316   4.128   5.130  0.5300  0.6471 -1.0485
   96SAPE  H16Y 9633   5.279   3.962   5.043  0.5296 -0.7272 -0.6044
   96SAPE  C317 9634   5.495   4.021   5.057  0.1081 -0.0415  0.0504
   96SAPE  H17X 9635   5.527   3.916   5.038 -0.7488 -0.4834  0.9670
   96SAPE  H17Y 9636   5.544   4.070   5.143 -0.2785 -0.9180  0.7963
   96SAPE  C318 9637   5.503   4.100   4.929 -0.2462  0.1515  0.1430
   96SAPE  H18X 9638   5.418   4.080   4.859  0.2818 -3.2470  0.2726
   96SAPE  H18Y 9639   5.600   4.081   4.878  0.1186 -2.2723  1.5898
   96SAPE  H18Z 9640   5.488   4.207   4.951 -1.1038  0.0828 -0.0336
   97SAPE     N 9641   4.994   5.291   7.401 -0.8280  0.1197  0.7103
   97SAPE   HN1 9642   5.007   5.336   7.309 -0.6625 -0.7650  0.2848
   97SAPE   HN2 9643   5.005   5.358   7.480  0.9636  1.0996 -0.3109
   97SAPE   HN3 9644   5.070   5.220   7.403 -1.4254 -0.7311 -2.1462
   97SAPE   C12 9645   4.862   5.228   7.389 -0.3326  0.4401 -0.3096
   97SAPE  H12A 9646   4.817   5.261   7.293 -2.5284 -1.3918  0.0096
   97SAPE  H12B 9647   4.802   5.262   7.477 -0.7015 -1.4365  0.2094
   97SAPE   C11 9648   4.861   5.074   7.382 -0.7340 -0.5550 -0.4045
   97SAPE  H11A 9649   4.752   5.053   7.372 -0.3963 -4.3725  2.0892
   97SAPE  H11B 9650   4.887   5.039   7.484 -0.6385  2.8174  0.8530
   97SAPE     P 9651   4.876   4.932   7.169  0.2716 -0.1708 -0.0409
   97SAPE   O13 9652   4.975   4.856   7.091 -0.0429  0.4020  0.2045
   97SAPE   O14 9653   4.777   4.844   7.231  0.2063  0.2269  0.0781
   97SAPE   O12 9654   4.939   5.029   7.271 -0.5083 -0.1416 -0.2042
   97SAPE   O11 9655   4.779   5.021   7.079 -0.4062 -0.6286 -0.0251
   97SAPE    C1 9656   4.839   5.086   6.972  0.0863 -0.8549 -0.5277
   97SAPE    HA 9657   4.815   5.194   6.978  0.0378 -0.7875 -1.6802
   97SAPE    HB 9658   4.950   5.078   6.962 -0.0116 -3.0237 -0.4812
   97SAPE    C2 9659   4.781   5.027   6.838  0.4827  0.4001 -0.1668
   97SAPE    HS 9660   4.820   5.084   6.751  2.9149 -1.4422 -0.3989
   97SAPE   O21 9661   4.635   5.024   6.827 -0.1790  0.5735  0.5624
   97SAPE   C21 9662   4.583   5.148   6.815  1.1549 -0.1500  0.3773
   97SAPE   O22 9663   4.647   5.249   6.788  0.5062  0.3149 -0.2825
   97SAPE   C22 9664   4.434   5.161   6.856  0.5800 -0.1142  0.0711
   97SAPE   H2R 9665   4.416   5.091   6.940 -0.7100 -0.6738 -0.6503
   97SAPE   H2S 9666   4.403   5.264   6.883 -3.6882 -1.1725 -0.1596
   97SAPE    C3 9667   4.822   4.875   6.825 -0.0193  0.0193 -0.2857
   97SAPE    HX 9668   4.769   4.808   6.896 -0.7070  0.6585 -0.1826
   97SAPE    HY 9669   4.930   4.875   6.851 -0.1494 -0.9030  0.3175
   97SAPE   O31 9670   4.791   4.833   6.690 -0.2769 -0.5554 -0.8096
   97SAPE   C31 9671   4.887   4.754   6.636 -0.1294  0.2107  0.6808
   97SAPE   O32 9672   4.996   4.723   6.683  0.6338  0.0918 -0.2766
   97SAPE   C32 9673   4.829   4.698   6.500  0.0108  0.3199  0.2503
   97SAPE   H2X 9674   4.767   4.780   6.458 -1.2630 -0.8928 -0.3064
   97SAPE   H2Y 9675   4.763   4.611   6.522  2.5077 -1.8823 -0.3473
   97SAPE   C23 9676   4.324   5.132   6.749  0.1686  0.2875 -0.3180
   97SAPE   H3R 9677   4.223   5.156   6.788 -1.0683 -3.1860 -0.9995
   97SAPE   H3S 9678   4.317   5.021   6.737  2.3435  0.3305 -2.9558
   97SAPE   C24 9679   4.345   5.191   6.605 -0.2298  0.5984  0.3866
   97SAPE   H4R 9680   4.340   5.302   6.605 -1.1016  0.6427 -2.7912
   97SAPE   H4S 9681   4.253   5.162   6.551 -0.5015 -0.1103  1.2077
   97SAPE   C25 9682   4.462   5.141   6.515  0.8665 -0.1675 -0.2788
   97SAPE   H5R 9683   4.562   5.124   6.557  1.2289 -1.0843 -1.4636
   97SAPE   C26 9684   4.450   5.105   6.383 -0.0939  0.0654  0.2002
   97SAPE   H6R 9685   4.540   5.083   6.324  0.8700  0.4666  1.4719
   97SAPE   C27 9686   4.330   5.124   6.294 -0.7381 -0.1076  0.0639
   97SAPE   H7R 9687   4.242   5.177   6.338 -0.4675  0.3837  0.0087
   97SAPE   H7S 9688   4.304   5.020   6.265  1.5708 -0.7140  0.0563
   97SAPE   C28 9689   4.354   5.189   6.163  0.2781 -0.1287 -0.8904
   97SAPE   H8R 9690   4.442   5.254   6.164 -0.5339  0.9962 -0.9718
   97SAPE   C29 9691   4.295   5.160   6.047  0.4349  1.0300  0.1516
   97SAPE   H9R 9692   4.325   5.215   5.956 -0.2750 -0.5646 -1.0891
   97SAPE  C210 9693   4.184   5.060   6.027 -0.3518  0.0733 -0.4392
   97SAPE  H10R 9694   4.185   4.977   6.102 -0.2942 -1.1364 -1.7316
   97SAPE  H10S 9695   4.195   5.004   5.932 -0.0563  0.5660 -0.6967
   97SAPE  C211 9696   4.049   5.130   6.035 -0.0272 -0.3111 -0.2766
   97SAPE  H11R 9697   4.022   5.172   6.134  1.4994  1.8791 -0.7338
   97SAPE  C212 9698   3.954   5.132   5.942 -0.1010 -0.0490  0.3222
   97SAPE  H12R 9699   3.855   5.175   5.965 -1.0265 -0.8421 -1.9655
   97SAPE  C213 9700   3.971   5.073   5.805  0.1997  0.7580 -0.8226
   97SAPE  H13R 9701   3.874   5.099   5.759 -0.1380  0.9123 -0.0356
   97SAPE  H13S 9702   3.983   4.962   5.808 -1.5312  0.5646  0.4396
   97SAPE  C214 9703   4.075   5.117   5.704  0.4742  0.2308 -0.6798
   97SAPE  H14R 9704   4.155   5.182   5.741  2.5074 -1.1104 -2.4885
   97SAPE  C215 9705   4.085   5.073   5.577  0.7477  0.3915 -0.2643
   97SAPE  H15R 9706   4.163   5.105   5.506  1.8589 -2.5017 -0.4811
   97SAPE  C216 9707   3.973   4.995   5.518  0.0434  0.4056 -0.5041
   97SAPE  H16R 9708   3.882   5.057   5.499  0.7764  1.2522 -1.3873
   97SAPE  H16S 9709   3.945   4.912   5.587  1.3366  0.5706  0.2454
   97SAPE  C217 9710   4.007   4.934   5.386  0.0425 -0.3418  0.3196
   97SAPE  H17R 9711   4.087   4.858   5.395 -0.4976 -1.1226 -1.1876
   97SAPE  H17S 9712   4.041   5.015   5.318  1.8830  0.1640  1.7758
   97SAPE  C218 9713   3.877   4.886   5.317 -0.2996  0.1683 -0.1606
   97SAPE  H18R 9714   3.790   4.955   5.332 -1.9006 -2.1639  2.2180
   97SAPE  H18S 9715   3.850   4.792   5.369  0.5266  0.6169  1.1014
   97SAPE  C219 9716   3.884   4.869   5.167  1.4339  0.0913 -0.6578
   97SAPE  H19R 9717   3.972   4.818   5.123  2.2146  0.5064  0.3988
   97SAPE  H19S 9718   3.906   4.963   5.111  3.0372  0.1645  0.0577
   97SAPE  C220 9719   3.756   4.812   5.110 -0.2348  0.3339 -0.0503
   97SAPE  H20R 9720   3.776   4.801   5.001 -0.7998  0.7645 -0.2077
   97SAPE  H20S 9721   3.669   4.882   5.118 -0.3540  0.2386 -0.4526
   97SAPE  H20T 9722   3.743   4.711   5.153  0.9166 -0.0109 -0.4915
   97SAPE   C33 9723   4.947   4.680   6.394 -0.4849  0.2374  0.0854
   97SAPE   H3X 9724   5.001   4.585   6.414 -1.0758 -0.4102 -1.3181
   97SAPE   H3Y 9725   5.019   4.763   6.409  1.1769 -1.4155  1.8991
   97SAPE   C34 9726   4.897   4.674   6.247 -0.0619  0.3184 -0.2803
   97SAPE   H4X 9727   4.832   4.762   6.232 -0.2678  0.3233  0.5730
   97SAPE   H4Y 9728   4.833   4.583   6.240 -0.5608  0.6947 -0.6727
   97SAPE   C35 9729   5.014   4.667   6.145  0.7818 -0.1049 -0.0305
   97SAPE   H5X 9730   5.085   4.589   6.180  0.7064 -0.1337  0.0589
   97SAPE   H5Y 9731   5.072   4.762   6.144  1.6733 -0.6427 -1.4289
   97SAPE   C36 9732   4.973   4.660   5.999 -0.2651 -0.0278  0.4144
   97SAPE   H6X 9733   5.063   4.633   5.940 -0.9250 -0.3012 -0.4910
   97SAPE   H6Y 9734   4.932   4.759   5.973  0.9003  1.1047  2.6712
   97SAPE   C37 9735   4.869   4.555   5.961 -0.3333  0.8929 -0.6027
   97SAPE   H7X 9736   4.772   4.572   6.013 -1.0609  1.5507 -2.1070
   97SAPE   H7Y 9737   4.903   4.453   5.989 -0.3098  1.2388  0.7049
   97SAPE   C38 9738   4.845   4.557   5.814  0.5437 -0.2729  0.8023
   97SAPE   H8X 9739   4.948   4.550   5.774  1.2573 -1.8130  2.7527
   97SAPE   H8Y 9740   4.791   4.651   5.788 -0.1981 -1.0863 -0.7309
   97SAPE   C39 9741   4.768   4.439   5.756  0.4999 -0.1280  0.0202
   97SAPE   H9X 9742   4.669   4.431   5.806 -0.8263  1.4624 -2.1522
   97SAPE   H9Y 9743   4.838   4.355   5.773  1.4184  0.9359  1.7023
   97SAPE  C310 9744   4.738   4.459   5.601  0.2694 -0.2747  0.2537
   97SAPE  H10X 9745   4.824   4.491   5.537  0.4170 -0.1067  0.5338
   97SAPE  H10Y 9746   4.662   4.540   5.603 -1.3989 -1.7994 -0.1279
   97SAPE  C311 9747   4.692   4.331   5.539 -0.2691 -0.3955 -0.2336
   97SAPE  H11X 9748   4.618   4.295   5.614 -1.7070  1.4878 -0.6841
   97SAPE  H11Y 9749   4.768   4.251   5.545  0.3203  0.2146  0.7219
   97SAPE  C312 9750   4.634   4.347   5.396 -0.2237  0.7391  0.0584
   97SAPE  H12X 9751   4.625   4.247   5.348  1.0044  0.8375 -0.3899
   97SAPE  H12Y 9752   4.702   4.413   5.338 -0.0591  0.4400 -0.0876
   97SAPE  C313 9753   4.489   4.399   5.399  0.2512  0.0598  0.7161
   97SAPE  H13X 9754   4.504   4.502   5.438  0.0292  1.0074 -1.5225
   97SAPE  H13Y 9755   4.432   4.330   5.464  0.3012  3.0120  4.1994
   97SAPE  C314 9756   4.421   4.398   5.262 -0.6161  0.7085 -0.3550
   97SAPE  H14X 9757   4.391   4.293   5.241  2.1007  0.2506 -2.4129
   97SAPE  H14Y 9758   4.485   4.450   5.188 -0.7150 -1.3606 -1.9934
   97SAPE  C315 9759   4.282   4.476   5.255  0.4292  0.4970  0.0734
   97SAPE  H15X 9760   4.297   4.586   5.267  0.1299  0.6785 -1.0618
   97SAPE  H15Y 9761   4.218   4.431   5.334  0.4245 -0.1211 -0.2801
   97SAPE  C316 9762   4.208   4.461   5.118  0.7075  0.0012 -0.1603
   97SAPE  H16X 9763   4.204   4.352   5.098  2.2859 -0.1236  0.1086
   97SAPE  H16Y 9764   4.270   4.496   5.032 -0.3930  1.8464 -0.2522
   97SAPE  C317 9765   4.068   4.526   5.122 -0.2963  0.3017 -0.0794
   97SAPE  H17X 9766   4.024   4.508   5.022  1.8200  1.4467 -1.2819
   97SAPE  H17Y 9767   4.084   4.632   5.151 -1.4730  0.4874 -0.0814
   97SAPE  C318 9768   3.966   4.478   5.224  0.7162  0.3700  0.3093
   97SAPE  H18X 9769   3.948   4.369   5.213  2.8054  0.0947 -0.9214
   97SAPE  H18Y 9770   3.879   4.544   5.202 -0.2598 -0.8549  0.3981
   97SAPE  H18Z 9771   4.008   4.500   5.324  2.6903 -2.6395  0.2777
   98SAPE     N 9772   2.866   5.379   6.721  0.1738 -0.1035  0.3603
   98SAPE   HN1 9773   2.876   5.388   6.824  0.8917 -0.2967  0.3117
   98SAPE   HN2 9774   2.844   5.282   6.689 -0.5515 -0.8989  3.0548
   98SAPE   HN3 9775   2.953   5.415   6.677 -0.2576  2.1154  1.1732
   98SAPE   C12 9776   2.755   5.468   6.676 -0.3347 -0.5802 -1.4779
   98SAPE  H12A 9777   2.652   5.434   6.700  0.7558 -2.4678  0.7771
   98SAPE  H12B 9778   2.754   5.472   6.565 -2.5326  2.0870 -1.4884
   98SAPE   C11 9779   2.773   5.611   6.725  0.2387 -0.2891  0.1515
   98SAPE  H11A 9780   2.789   5.613   6.835 -0.6723  0.0794  0.2818
   98SAPE  H11B 9781   2.682   5.674   6.712  1.3365  1.2681 -0.2383
   98SAPE     P 9782   2.934   5.803   6.686  0.1248  0.1514  0.3188
   98SAPE   O13 9783   2.845   5.900   6.614 -0.0551  0.4940  0.3976
   98SAPE   O14 9784   2.938   5.824   6.833  0.9782 -0.4939  0.4601
   98SAPE   O12 9785   2.885   5.667   6.658  0.0760  0.1348  0.7118
   98SAPE   O11 9786   3.078   5.809   6.636 -0.2895  0.0429  0.1047
   98SAPE    C1 9787   3.159   5.698   6.593 -0.0667  0.5090  0.2979
   98SAPE    HA 9788   3.264   5.729   6.612 -0.0534 -0.8603  2.9198
   98SAPE    HB 9789   3.142   5.609   6.657 -0.7704  0.2893 -0.1761
   98SAPE    C2 9790   3.144   5.686   6.441 -0.0861  0.8609  0.3518
   98SAPE    HS 9791   3.224   5.621   6.399 -1.0450  1.1227 -2.0416
   98SAPE   O21 9792   3.167   5.807   6.368 -0.0482  0.1358  0.3542
   98SAPE   C21 9793   3.291   5.856   6.360  0.7813  0.5939 -0.6819
   98SAPE   O22 9794   3.390   5.796   6.392 -0.2628 -0.1304  0.1410
   98SAPE   C22 9795   3.297   5.994   6.300  0.0733  0.2039  0.0630
   98SAPE   H2R 9796   3.201   6.048   6.284  1.6017  3.2051  0.2222
   98SAPE   H2S 9797   3.350   6.065   6.367  0.2823  1.2187 -1.1547
   98SAPE    C3 9798   3.010   5.621   6.394 -0.0463 -0.7706 -0.3659
   98SAPE    HX 9799   2.933   5.698   6.418  1.8364  0.8845  0.6609
   98SAPE    HY 9800   2.991   5.528   6.451  0.2130 -0.6466 -0.0758
   98SAPE   O31 9801   3.015   5.584   6.256 -0.0488 -0.1954 -0.2055
   98SAPE   C31 9802   2.935   5.652   6.168 -0.2499 -0.3642 -0.4704
   98SAPE   O32 9803   2.856   5.736   6.200 -0.8291 -0.9750  0.0064
   98SAPE   C32 9804   2.964   5.612   6.024 -0.1504  0.1127  0.0255
   98SAPE   H2X 9805   2.886   5.550   5.975 -0.1381 -0.4736  0.7299
   98SAPE   H2Y 9806   3.063   5.562   6.026  1.8770  3.5577 -2.7895
   98SAPE   C23 9807   3.383   5.993   6.167 -0.1860  0.3407 -0.0379
   98SAPE   H3R 9808   3.356   5.912   6.096  0.0118  1.0064 -0.9052
   98SAPE   H3S 9809   3.487   5.962   6.188  0.2528  1.6586 -0.1463
   98SAPE   C24 9810   3.373   6.123   6.081  0.3886 -0.1413  0.6613
   98SAPE   H4R 9811   3.465   6.133   6.020 -0.1806 -0.1606 -0.2175
   98SAPE   H4S 9812   3.366   6.210   6.150 -1.2860  0.6094 -0.3845
   98SAPE   C25 9813   3.250   6.121   5.990 -0.0600  0.3915  0.1724
   98SAPE   H5R 9814   3.152   6.099   6.035 -0.2986 -2.6374 -1.5462
   98SAPE   C26 9815   3.250   6.116   5.852  1.2248 -0.1923 -0.1586
   98SAPE   H6R 9816   3.149   6.106   5.810  0.1598  0.8772  2.0314
   98SAPE   C27 9817   3.370   6.140   5.766  0.8528  0.2015 -0.1340
   98SAPE   H7R 9818   3.443   6.205   5.820  1.5179 -1.8132  1.5419
   98SAPE   H7S 9819   3.338   6.199   5.678 -1.7957 -0.7497  0.1136
   98SAPE   C28 9820   3.445   6.007   5.718 -0.6948  0.0749 -0.0555
   98SAPE   H8R 9821   3.445   5.938   5.803 -1.0823 -0.5172 -0.5231
   98SAPE   C29 9822   3.492   5.979   5.598  0.0846  0.2489 -0.1836
   98SAPE   H9R 9823   3.543   5.885   5.575 -0.5706 -0.3761  0.8495
   98SAPE  C210 9824   3.494   6.088   5.484  0.3048 -0.0832 -0.3952
   98SAPE  H10R 9825   3.567   6.051   5.408 -0.4734  0.7201 -1.5592
   98SAPE  H10S 9826   3.514   6.189   5.524 -1.2212 -0.8961  2.7111
   98SAPE  C211 9827   3.358   6.103   5.420  0.1927 -0.2147  0.7599
   98SAPE  H11R 9828   3.283   6.143   5.489  1.3500  0.8119  1.4586
   98SAPE  C212 9829   3.326   6.085   5.289  0.3483  0.1078  0.1936
   98SAPE  H12R 9830   3.221   6.093   5.256  0.6248 -0.9918 -1.0638
   98SAPE  C213 9831   3.417   6.027   5.176  1.2215  0.0941 -0.4398
   98SAPE  H13R 9832   3.366   5.945   5.122  0.1999 -0.7991  1.7402
   98SAPE  H13S 9833   3.498   5.967   5.224  1.6475  0.4888 -0.6528
   98SAPE  C214 9834   3.494   6.115   5.085  0.7863 -0.5380  0.7251
   98SAPE  H14R 9835   3.603   6.105   5.074  0.9408 -0.9768  2.2859
   98SAPE  C215 9836   3.441   6.217   5.015  0.4935  0.3394  0.3635
   98SAPE  H15R 9837   3.494   6.262   4.930 -1.5413  1.0824 -0.5721
   98SAPE  C216 9838   3.299   6.268   5.000 -0.0062  0.1962  1.4132
   98SAPE  H16R 9839   3.226   6.210   5.061 -2.6816  1.3598 -0.4587
   98SAPE  H16S 9840   3.270   6.247   4.895  0.4888  0.1858  1.2755
   98SAPE  C217 9841   3.272   6.415   5.043 -0.4091 -0.6565 -0.3695
   98SAPE  H17R 9842   3.311   6.425   5.147 -1.3691 -1.1210  0.0516
   98SAPE  H17S 9843   3.163   6.431   5.055 -0.1695  0.6089  0.2345
   98SAPE  C218 9844   3.321   6.521   4.941  0.1212  0.2385 -0.2273
   98SAPE  H18R 9845   3.431   6.533   4.946  0.5893 -2.8993 -0.9125
   98SAPE  H18S 9846   3.266   6.608   4.983  0.5687 -0.1934  1.3453
   98SAPE  C219 9847   3.280   6.505   4.790 -0.1750  0.1960 -0.0555
   98SAPE  H19R 9848   3.330   6.414   4.751 -0.4343  0.9657 -2.3102
   98SAPE  H19S 9849   3.311   6.586   4.721  0.4867  0.1152  0.1363
   98SAPE  C220 9850   3.124   6.504   4.773  0.4020 -0.0192  0.2812
   98SAPE  H20R 9851   3.093   6.610   4.788 -0.2130 -0.2610  0.7557
   98SAPE  H20S 9852   3.071   6.450   4.854 -0.1334 -1.9041 -1.2637
   98SAPE  H20T 9853   3.097   6.465   4.673 -0.5670  0.7573  0.2285
   98SAPE   C33 9854   3.001   5.733   5.931 -0.4313 -0.6741 -0.5172
   98SAPE   H3X 9855   3.091   5.783   5.971 -0.8781 -0.0604 -0.2698
   98SAPE   H3Y 9856   2.915   5.803   5.927 -0.9998 -1.3689 -0.8434
   98SAPE   C34 9857   3.037   5.685   5.793 -0.1223  0.0783  0.0697
   98SAPE   H4X 9858   2.941   5.661   5.742 -0.5499  0.2726  0.7594
   98SAPE   H4Y 9859   3.091   5.588   5.802  2.3239  1.4176  0.5588
   98SAPE   C35 9860   3.123   5.779   5.705 -0.1589  0.1539  0.8124
   98SAPE   H5X 9861   3.210   5.797   5.772  0.3620 -1.8685  0.7352
   98SAPE   H5Y 9862   3.074   5.877   5.684 -2.1719 -1.0953 -0.6155
   98SAPE   C36 9863   3.174   5.719   5.576 -0.6956  0.7315  0.1861
   98SAPE   H6X 9864   3.235   5.628   5.594 -2.1433 -0.2811  0.0934
   98SAPE   H6Y 9865   3.256   5.779   5.531  0.3541 -0.6248  0.2378
   98SAPE   C37 9866   3.058   5.687   5.480 -0.6088  0.5950  0.4837
   98SAPE   H7X 9867   3.020   5.777   5.428 -1.1826 -1.0225 -2.0509
   98SAPE   H7Y 9868   2.974   5.657   5.547 -0.9188  0.2457 -0.0549
   98SAPE   C38 9869   3.092   5.569   5.380 -0.3210  0.0763 -0.2187
   98SAPE   H8X 9870   3.004   5.539   5.319 -1.0699  1.1643  0.2982
   98SAPE   H8Y 9871   3.113   5.476   5.437  1.2196 -0.4765 -1.6117
   98SAPE   C39 9872   3.208   5.599   5.287  0.3651 -0.3217  0.1634
   98SAPE   H9X 9873   3.246   5.500   5.253 -2.6217 -1.8470  0.8942
   98SAPE   H9Y 9874   3.290   5.644   5.347 -0.7426  2.9301 -0.5571
   98SAPE  C310 9875   3.183   5.677   5.162  0.8429  0.5789  0.0383
   98SAPE  H10X 9876   3.154   5.781   5.188 -2.4446 -0.4188  0.9021
   98SAPE  H10Y 9877   3.091   5.641   5.110  0.3046  2.4377 -0.4066
   98SAPE  C311 9878   3.296   5.680   5.060  0.5320 -0.6364 -0.8324
   98SAPE  H11X 9879   3.341   5.580   5.046 -0.3992 -1.3593  1.0804
   98SAPE  H11Y 9880   3.373   5.752   5.094 -1.8317  0.9611  1.5825
   98SAPE  C312 9881   3.239   5.727   4.921 -0.6188 -0.9207 -0.1811
   98SAPE  H12X 9882   3.190   5.826   4.932  0.3449 -0.6001  1.7736
   98SAPE  H12Y 9883   3.158   5.661   4.884 -0.2427 -1.0419 -0.7945
   98SAPE  C313 9884   3.347   5.730   4.813 -0.0923 -0.6161 -0.3101
   98SAPE  H13X 9885   3.387   5.627   4.809  0.3287 -0.5128  0.8823
   98SAPE  H13Y 9886   3.421   5.799   4.859  0.7632 -2.3001  0.9745
   98SAPE  C314 9887   3.303   5.772   4.673 -0.3031  0.0502  0.0591
   98SAPE  H14X 9888   3.396   5.783   4.614  0.4741  2.1199  1.5703
   98SAPE  H14Y 9889   3.245   5.867   4.675 -1.7173 -0.7513 -0.8135
   98SAPE  C315 9890   3.195   5.680   4.609 -0.0653  0.8000 -0.0162
   98SAPE  H15X 9891   3.184   5.724   4.507  0.9186  2.0418  0.3813
   98SAPE  H15Y 9892   3.103   5.696   4.669 -0.2130  1.5018 -0.4164
   98SAPE  C316 9893   3.249   5.533   4.588 -0.7527  0.2091  0.4990
   98SAPE  H16X 9894   3.272   5.486   4.685  1.2705 -2.9086 -1.3297
   98SAPE  H16Y 9895   3.348   5.546   4.538 -0.4498 -2.4805  0.2702
   98SAPE  C317 9896   3.157   5.435   4.515  0.2682  0.0211 -0.0476
   98SAPE  H17X 9897   3.068   5.410   4.577  1.0944  0.5215  1.3693
   98SAPE  H17Y 9898   3.203   5.334   4.504  1.3367  0.4690  0.1909
   98SAPE  C318 9899   3.101   5.486   4.382  0.2948 -0.4818  0.6812
   98SAPE  H18X 9900   3.020   5.559   4.400  1.0442  0.8622 -1.0897
   98SAPE  H18Y 9901   3.082   5.410   4.305  1.9322  2.2753 -2.7400
   98SAPE  H18Z 9902   3.182   5.543   4.331 -0.0988 -0.7703 -0.2685
   99SAPE     N 9903   3.894   4.969   7.347 -0.4364  0.4021 -0.2437
   99SAPE   HN1 9904   3.903   4.890   7.414 -0.0253  0.0343 -0.7230
   99SAPE   HN2 9905   3.977   5.031   7.347  0.3358 -0.5426 -2.1262
   99SAPE   HN3 9906   3.801   5.014   7.361 -0.5514  0.0668  0.0989
   99SAPE   C12 9907   3.889   4.914   7.208  0.0391 -0.2935 -0.1791
   99SAPE  H12A 9908   3.979   4.852   7.193 -0.3560 -1.0738  0.5893
   99SAPE  H12B 9909   3.906   5.003   7.144 -0.1269 -0.6560 -0.7339
   99SAPE   C11 9910   3.752   4.867   7.155  0.1908  0.3035 -0.7077
   99SAPE  H11A 9911   3.752   4.854   7.044 -1.4737  0.3949 -0.7413
   99SAPE  H11B 9912   3.682   4.952   7.169 -0.9456 -0.4102 -1.8924
   99SAPE     P 9913   3.779   4.613   7.177  0.1673 -0.0032 -0.0723
   99SAPE   O13 9914   3.854   4.542   7.286  0.3138  0.1077  0.4651
   99SAPE   O14 9915   3.673   4.543   7.105  0.8607  0.7258  0.3364
   99SAPE   O12 9916   3.720   4.747   7.226 -0.5917  0.1490  0.0863
   99SAPE   O11 9917   3.883   4.643   7.060 -0.7946  0.7420 -0.1792
   99SAPE    C1 9918   3.917   4.539   6.962 -0.0235  0.1514  0.0908
   99SAPE    HA 9919   3.934   4.436   6.999  0.5659  0.1276 -0.2343
   99SAPE    HB 9920   3.831   4.539   6.891  1.3666  2.2262 -1.7486
   99SAPE    C2 9921   4.045   4.566   6.874  0.6404 -0.1044 -1.2728
   99SAPE    HS 9922   4.042   4.656   6.809  1.7284  2.7600  2.2766
   99SAPE   O21 9923   4.086   4.449   6.801 -0.5284 -0.0564  0.0600
   99SAPE   C21 9924   4.017   4.425   6.692  0.3431  0.5573  0.3715
   99SAPE   O22 9925   3.932   4.499   6.638 -0.2167  0.1723  0.2013
   99SAPE   C22 9926   4.043   4.290   6.633 -0.1630  0.0389 -0.6107
   99SAPE   H2R 9927   3.957   4.280   6.563  0.5326  1.8779 -1.7964
   99SAPE   H2S 9928   4.135   4.288   6.570 -0.8838 -0.1166 -1.6848
   99SAPE    C3 9929   4.169   4.594   6.965 -0.0695  0.2960 -0.3981
   99SAPE    HX 9930   4.197   4.520   7.044  0.3374  1.0510  0.1769
   99SAPE    HY 9931   4.144   4.684   7.025 -0.8061 -1.9296  2.9102
   99SAPE   O31 9932   4.299   4.611   6.899  0.8065 -0.1631 -0.0424
   99SAPE   C31 9933   4.309   4.722   6.829  0.2696 -0.4644 -0.8224
   99SAPE   O32 9934   4.240   4.820   6.856  0.0649  0.0737 -0.1412
   99SAPE   C32 9935   4.413   4.717   6.718 -0.2580  0.2963 -0.4704
   99SAPE   H2X 9936   4.487   4.636   6.737 -0.9742 -0.4416 -0.7977
   99SAPE   H2Y 9937   4.459   4.818   6.708 -2.6105  1.2101 -3.0060
   99SAPE   C23 9938   4.029   4.175   6.745 -0.0243 -0.1352  0.7103
   99SAPE   H3R 9939   3.925   4.148   6.774  0.4075 -2.2520  0.4821
   99SAPE   H3S 9940   4.097   4.193   6.831 -1.4152 -0.2309  1.8677
   99SAPE   C24 9941   4.079   4.034   6.688  0.1102 -0.1989 -0.2792
   99SAPE   H4R 9942   4.096   3.969   6.776  1.5514  0.2589 -0.1872
   99SAPE   H4S 9943   4.183   4.061   6.657 -0.6840  0.8904 -2.1442
   99SAPE   C25 9944   4.003   3.961   6.582  0.7142  0.5881  0.3647
   99SAPE   H5R 9945   3.943   3.881   6.629 -0.8284 -1.3644 -4.3410
   99SAPE   C26 9946   4.026   3.957   6.454  0.5154 -0.7398 -0.6576
   99SAPE   H6R 9947   3.957   3.900   6.390  0.3360  0.8676 -1.9921
   99SAPE   C27 9948   4.123   4.037   6.368 -0.4315  0.2652 -0.1380
   99SAPE   H7R 9949   4.162   3.969   6.289  0.2839  0.8518 -0.3044
   99SAPE   H7S 9950   4.213   4.081   6.417  0.5590 -1.2047 -0.5550
   99SAPE   C28 9951   4.050   4.142   6.296  0.3303  0.6904 -0.0680
   99SAPE   H8R 9952   3.942   4.128   6.281  0.8894 -2.0748 -2.5370
   99SAPE   C29 9953   4.101   4.250   6.229 -0.5172  0.3651 -0.1788
   99SAPE   H9R 9954   4.023   4.317   6.189 -2.1734 -1.6203 -0.4465
   99SAPE  C210 9955   4.243   4.297   6.228 -0.8313 -0.0412  0.0343
   99SAPE  H10R 9956   4.300   4.281   6.322 -0.1137 -1.5281 -0.6059
   99SAPE  H10S 9957   4.240   4.407   6.220  0.3678  0.0950  1.0168
   99SAPE  C211 9958   4.334   4.229   6.138 -0.1888  0.0177 -0.1477
   99SAPE  H11R 9959   4.322   4.122   6.161 -1.5773  0.3367  0.7690
   99SAPE  C212 9960   4.400   4.274   6.028 -0.0149  0.4272 -0.9591
   99SAPE  H12R 9961   4.464   4.199   5.979 -0.9463 -1.1018  0.0635
   99SAPE  C213 9962   4.398   4.414   5.969  0.1428 -0.7125 -0.0868
   99SAPE  H13R 9963   4.500   4.454   5.987  0.6940 -2.4270  0.7193
   99SAPE  H13S 9964   4.327   4.485   6.016  0.1690  1.3038 -2.8454
   99SAPE  C214 9965   4.383   4.400   5.817  0.1221  0.3625 -0.6327
   99SAPE  H14R 9966   4.413   4.303   5.775 -0.2121  0.3843 -0.9328
   99SAPE  C215 9967   4.341   4.496   5.733 -0.6353  0.2847  0.3409
   99SAPE  H15R 9968   4.333   4.468   5.627 -0.3969  0.8237  0.1777
   99SAPE  C216 9969   4.286   4.632   5.763  0.6036  0.6947  0.7508
   99SAPE  H16R 9970   4.342   4.702   5.698  0.6149 -0.3449 -0.3860
   99SAPE  H16S 9971   4.293   4.655   5.871  0.9357 -0.1214  0.9032
   99SAPE  C217 9972   4.144   4.643   5.702  0.5319  0.2831  0.1960
   99SAPE  H17R 9973   4.135   4.603   5.599  0.1578 -2.6556  1.2929
   99SAPE  H17S 9974   4.129   4.753   5.696  1.9278  0.4626 -0.2172
   99SAPE  C218 9975   4.027   4.589   5.786 -0.3286  0.0623 -1.1323
   99SAPE  H18R 9976   4.050   4.614   5.891 -1.3781 -0.6807 -0.7178
   99SAPE  H18S 9977   4.019   4.478   5.778  1.4416 -0.2288  0.4699
   99SAPE  C219 9978   3.898   4.653   5.744 -0.9234 -0.0876 -0.7451
   99SAPE  H19R 9979   3.878   4.758   5.774 -2.6832 -0.2622 -1.1987
   99SAPE  H19S 9980   3.826   4.588   5.800  1.9149 -3.6469 -0.8987
   99SAPE  C220 9981   3.873   4.621   5.590 -0.3763  0.1567  0.1576
   99SAPE  H20R 9982   3.959   4.630   5.520 -0.6647  0.3528 -0.1746
   99SAPE  H20S 9983   3.800   4.697   5.554 -0.6873 -0.2343 -0.0444
   99SAPE  H20T 9984   3.834   4.517   5.584 -0.9561  0.4224 -0.9104
   99SAPE   C33 9985   4.341   4.686   6.582  0.1942 -0.0192 -0.5415
   99SAPE   H3X 9986   4.269   4.766   6.555 -0.1429 -0.2661 -0.3827
   99SAPE   H3Y 9987   4.286   4.591   6.601 -1.2250  0.9482  0.3668
   99SAPE   C34 9988   4.443   4.670   6.479  0.1446  0.0250  0.3493
   99SAPE   H4X 9989   4.486   4.568   6.473  3.6394  1.3923  0.2616
   99SAPE   H4Y 9990   4.524   4.742   6.498 -0.0759  0.0619  1.1959
   99SAPE   C35 9991   4.387   4.707   6.338 -0.1630 -0.5628 -0.1952
   99SAPE   H5X 9992   4.341   4.808   6.338  0.8440 -0.0934  0.3615
   99SAPE   H5Y 9993   4.309   4.638   6.298  1.1172 -1.6925 -0.8384
   99SAPE   C36 9994   4.495   4.710   6.234  0.2646 -0.5119  0.2911
   99SAPE   H6X 9995   4.534   4.606   6.222  0.1468 -0.4985 -0.2232
   99SAPE   H6Y 9996   4.579   4.771   6.274 -0.4064 -0.0727  1.0544
   99SAPE   C37 9997   4.449   4.785   6.109 -0.3183 -0.1787 -0.4296
   99SAPE   H7X 9998   4.422   4.888   6.140  1.0701 -0.4794  2.0567
   99SAPE   H7Y 9999   4.360   4.730   6.073 -0.6282 -0.0438  0.1199
   99SAPE   C3810000   4.542   4.794   5.989  0.1455 -0.1202 -0.4911
   99SAPE   H8X10001   4.522   4.695   5.942  0.8104 -0.4467 -0.0961
   99SAPE   H8Y10002   4.649   4.800   6.017  0.3067 -0.1789 -1.0937
   99SAPE   C3910003   4.513   4.895   5.879 -0.2565 -0.6562  0.6019
   99SAPE   H9X10004   4.540   4.992   5.925  1.3314 -2.8906  4.9411
   99SAPE   H9Y10005   4.407   4.884   5.849  0.4861  0.1685 -2.6521
   99SAPE  C31010006   4.595   4.889   5.753  0.1061  0.1136 -0.2729
   99SAPE  H10X10007   4.599   4.780   5.735 -0.9062 -0.0352  0.3761
   99SAPE  H10Y10008   4.701   4.920   5.769  0.5113 -0.1184 -2.2697
   99SAPE  C31110009   4.543   4.972   5.635  0.0343  0.0511  0.2849
   99SAPE  H11X10010   4.579   5.075   5.657  3.4284 -0.5244 -1.8097
   99SAPE  H11Y10011   4.434   4.960   5.621  0.1410 -1.2197  0.4399
   99SAPE  C31210012   4.610   4.948   5.499  0.5042  0.1349 -0.3191
   99SAPE  H12X10013   4.720   4.955   5.514  0.6436  2.5217 -1.9719
   99SAPE  H12Y10014   4.574   5.025   5.429  1.2262  1.0457  0.2889
   99SAPE  C31310015   4.580   4.798   5.449  0.1436 -0.5480  0.2443
   99SAPE  H13X10016   4.474   4.775   5.470 -0.2630  0.0649 -1.0178
   99SAPE  H13Y10017   4.650   4.729   5.501  2.9713  1.1972 -0.9538
   99SAPE  C31410018   4.594   4.782   5.297  0.2171  0.0188  0.2929
   99SAPE  H14X10019   4.518   4.841   5.241  1.7343  2.0507  0.2605
   99SAPE  H14Y10020   4.586   4.674   5.271  1.2093  0.3226 -1.4582
   99SAPE  C31510021   4.722   4.826   5.237  0.1114  0.6291  0.1988
   99SAPE  H15X10022   4.738   4.933   5.264  1.6799  0.0179  1.8883
   99SAPE  H15Y10023   4.732   4.817   5.127  3.1002  0.0223  0.4456
   99SAPE  C31610024   4.842   4.752   5.296  0.3745  0.0759 -0.0328
   99SAPE  H16X10025   4.837   4.647   5.258  0.5530  0.0731 -0.0518
   99SAPE  H16Y10026   4.842   4.740   5.406  0.0666  0.3067 -0.0065
   99SAPE  C31710027   4.985   4.795   5.251 -0.3047 -0.9170 -0.1716
   99SAPE  H17X10028   5.060   4.742   5.313  1.9471  3.1482  1.0039
   99SAPE  H17Y10029   5.012   4.898   5.285  0.9635 -1.0813 -0.6389
   99SAPE  C31810030   4.999   4.786   5.095 -0.7946 -0.3619  0.9782
   99SAPE  H18X10031   4.931   4.863   5.052 -1.4246 -0.8659  1.0549
   99SAPE  H18Y10032   4.969   4.691   5.048 -0.4646  0.5936 -1.2887
   99SAPE  H18Z10033   5.102   4.800   5.056 -2.0032  0.5938 -2.2022
  100SAPE     N10034   3.016   2.865   6.880 -0.1948 -0.1662 -0.1697
  100SAPE   HN110035   3.120   2.870   6.887 -0.0738  1.5850 -2.1985
  100SAPE   HN210036   2.985   2.767   6.896 -0.0144 -0.5740 -2.0835
  100SAPE   HN310037   2.983   2.892   6.786  0.5527 -0.0945 -0.4156
  100SAPE   C1210038   2.953   2.942   6.996  0.1923 -0.0529 -0.5179
  100SAPE  H12A10039   2.994   3.045   6.997 -1.8387  0.7984 -0.0482
  100SAPE  H12B10040   2.998   2.889   7.083  0.5745 -0.6667 -1.0720
  100SAPE   C1110041   2.798   2.937   6.999 -0.2546 -0.3633 -0.2543
  100SAPE  H11A10042   2.758   2.834   6.991  0.3324 -0.6126 -0.0361
  100SAPE  H11B10043   2.772   3.004   6.914  0.1442  2.6289  1.8136
  100SAPE     P10044   2.625   3.083   7.124 -0.2059 -0.1796  0.3033
  100SAPE   O1310045   2.580   3.099   7.265  0.1813 -0.6244  0.0179
  100SAPE   O1410046   2.631   3.212   7.057  0.9400 -0.4900 -0.2554
  100SAPE   O1210047   2.761   2.998   7.119  1.0822 -0.2769  0.0967
  100SAPE   O1110048   2.529   2.999   7.038  0.1256 -0.1825  0.6754
  100SAPE    C110049   2.389   3.009   7.055  0.4540 -0.3106 -0.6018
  100SAPE    HA10050   2.365   2.936   7.135  1.8467 -0.0781  0.0471
  100SAPE    HB10051   2.361   3.111   7.089  0.2505  0.3049 -2.4613
  100SAPE    C210052   2.321   2.982   6.922  0.0063 -0.5258 -0.5661
  100SAPE    HS10053   2.219   3.022   6.938  0.5882  1.0485 -0.6027
  100SAPE   O2110054   2.322   2.837   6.902 -0.8293 -0.3488  0.3351
  100SAPE   C2110055   2.210   2.796   6.853  0.4686 -0.5061  0.1985
  100SAPE   O2210056   2.112   2.861   6.829  0.5604  0.2488 -0.6698
  100SAPE   C2210057   2.238   2.652   6.806 -0.2014 -0.6653  0.1720
  100SAPE   H2R10058   2.329   2.662   6.742  1.3137  1.8795  2.4896
  100SAPE   H2S10059   2.264   2.601   6.901  1.6969  4.0285  2.5239
  100SAPE    C310060   2.392   3.049   6.805  0.2946 -0.4443  0.0813
  100SAPE    HX10061   2.502   3.040   6.803  0.2237 -1.3577 -0.2736
  100SAPE    HY10062   2.366   3.156   6.818 -0.3005 -0.3746 -1.4749
  100SAPE   O3110063   2.338   3.006   6.677  0.2294 -0.6566 -0.6060
  100SAPE   C3110064   2.417   2.948   6.589  0.9142 -0.3725  0.4136
  100SAPE   O3210065   2.528   2.901   6.603  0.4009 -0.6532 -0.5645
  100SAPE   C3210066   2.334   2.942   6.460 -0.5500  0.6138 -0.5359
  100SAPE   H2X10067   2.370   3.028   6.399  0.6903  0.8178  0.4490
  100SAPE   H2Y10068   2.227   2.966   6.477 -0.6708 -0.1125 -0.2437
  100SAPE   C2310069   2.112   2.582   6.745 -0.5731  0.1626 -0.1715
  100SAPE   H3R10070   2.069   2.626   6.652 -0.5488  1.8511  0.5932
  100SAPE   H3S10071   2.029   2.585   6.818  0.0530  3.1406  0.5263
  100SAPE   C2410072   2.148   2.430   6.721 -0.7835 -0.4126 -0.5672
  100SAPE   H4R10073   2.203   2.384   6.806 -0.5253  1.6603  0.4509
  100SAPE   H4S10074   2.230   2.429   6.646 -1.0241 -0.8093 -0.8279
  100SAPE   C2510075   2.035   2.339   6.680  0.1030 -0.4344 -0.1287
  100SAPE   H5R10076   1.967   2.318   6.764  0.1674  1.1057  0.3491
  100SAPE   C2610077   2.010   2.289   6.559 -0.3801 -0.2843  0.2531
  100SAPE   H6R10078   1.933   2.211   6.552 -0.0804 -0.8884  2.7853
  100SAPE   C2710079   2.072   2.323   6.426 -0.8315 -0.1498 -0.7482
  100SAPE   H7R10080   2.122   2.240   6.372 -1.7544 -0.6086 -0.9149
  100SAPE   H7S10081   2.159   2.387   6.452 -0.5361 -1.2857  1.2219
  100SAPE   C2810082   1.975   2.376   6.330 -0.6310 -0.1971 -0.0359
  100SAPE   H8R10083   1.874   2.391   6.370 -0.6200  0.0976 -0.1132
  100SAPE   C2910084   2.001   2.413   6.201 -0.0210 -0.4108  0.2250
  100SAPE   H9R10085   1.922   2.449   6.133 -1.5946 -3.9268 -0.0633
  100SAPE  C21010086   2.130   2.402   6.124 -0.2534 -0.2524  0.2353
  100SAPE  H10R10087   2.122   2.304   6.071 -2.1674 -0.6580  1.1583
  100SAPE  H10S10088   2.210   2.389   6.200  1.0079 -2.3668 -1.3080
  100SAPE  C21110089   2.155   2.515   6.022 -0.6432  0.0964 -0.5258
  100SAPE  H11R10090   2.134   2.612   6.070  1.2554 -0.1124  0.8416
  100SAPE  C21210091   2.200   2.512   5.894 -0.3571  0.2507  0.3350
  100SAPE  H12R10092   2.224   2.607   5.842 -0.5501 -0.4760 -1.1291
  100SAPE  C21310093   2.237   2.385   5.811 -0.1930 -0.4091 -0.0405
  100SAPE  H13R10094   2.261   2.299   5.877  0.5883 -1.2097 -1.3135
  100SAPE  H13S10095   2.329   2.419   5.758 -1.5370  1.3192 -1.4004
  100SAPE  C21410096   2.120   2.348   5.722 -0.6464 -0.4057  0.3235
  100SAPE  H14R10097   2.035   2.311   5.781 -2.2053 -0.4543 -1.7967
  100SAPE  C21510098   2.106   2.373   5.587  0.3345 -0.4514  0.6606
  100SAPE  H15R10099   2.010   2.349   5.538  0.8363 -1.4980  0.1423
  100SAPE  C21610100   2.204   2.443   5.496  0.3907  0.2347 -0.1742
  100SAPE  H16R10101   2.222   2.373   5.411 -0.7466  0.1334 -0.3488
  100SAPE  H16S10102   2.307   2.457   5.534  1.0536 -1.5549 -1.1411
  100SAPE  C21710103   2.143   2.575   5.443 -0.2295 -0.8667 -0.1393
  100SAPE  H17R10104   2.139   2.650   5.526 -0.4963 -0.4765 -0.4998
  100SAPE  H17S10105   2.038   2.569   5.407  0.1255 -3.0044 -0.9423
  100SAPE  C21810106   2.224   2.642   5.330 -0.0172 -0.1640 -0.0480
  100SAPE  H18R10107   2.333   2.648   5.351 -0.1433  0.8835  0.3519
  100SAPE  H18S10108   2.198   2.747   5.307  0.4073 -0.6017 -2.9614
  100SAPE  C21910109   2.200   2.576   5.193  0.3905 -0.1013 -0.0261
  100SAPE  H19R10110   2.099   2.595   5.151 -0.6055 -1.5404  1.5443
  100SAPE  H19S10111   2.213   2.466   5.204  0.3864 -0.1905 -0.8716
  100SAPE  C22010112   2.304   2.620   5.092 -0.6042 -0.2090  0.2351
  100SAPE  H20R10113   2.404   2.597   5.134 -0.3562  0.9848  0.3076
  100SAPE  H20S10114   2.299   2.729   5.073  3.0569 -0.1034 -0.8462
  100SAPE  H20T10115   2.305   2.561   4.998  0.0753 -0.2296  0.2541
  100SAPE   C3310116   2.362   2.806   6.392  0.7346 -0.3548 -1.3167
  100SAPE   H3X10117   2.336   2.724   6.462 -1.9098  0.0190 -1.7640
  100SAPE   H3Y10118   2.473   2.809   6.385  0.7725 -2.2069 -2.1788
  100SAPE   C3410119   2.292   2.798   6.255 -0.4320 -0.2982 -0.5838
  100SAPE   H4X10120   2.190   2.840   6.271  0.3444  0.4518  3.9500
  100SAPE   H4Y10121   2.287   2.691   6.228 -1.1162 -0.5529  0.4696
  100SAPE   C3510122   2.371   2.878   6.148  0.2286  0.2201  0.4656
  100SAPE   H5X10123   2.467   2.823   6.133  0.1881  0.5657 -1.2949
  100SAPE   H5Y10124   2.375   2.982   6.186  1.1087 -0.4662  2.3643
  100SAPE   C3610125   2.302   2.879   6.008 -0.4320  0.4796  1.0333
  100SAPE   H6X10126   2.198   2.916   6.007 -1.2418 -1.6726  0.7681
  100SAPE   H6Y10127   2.301   2.770   5.985 -1.1599  0.6216  0.3878
  100SAPE   C3710128   2.394   2.959   5.902  0.2440  0.2104  0.2804
  100SAPE   H7X10129   2.496   2.916   5.903 -0.1716 -0.9843 -1.8891
  100SAPE   H7Y10130   2.410   3.064   5.935 -2.4269  0.9602 -0.5179
  100SAPE   C3810131   2.331   2.958   5.762 -0.4965 -0.1908 -0.5140
  100SAPE   H8X10132   2.242   3.025   5.754 -1.4921 -1.5878 -1.7191
  100SAPE   H8Y10133   2.304   2.852   5.740  0.4755 -1.0554  2.0583
  100SAPE   C3910134   2.423   3.009   5.655 -0.4285 -0.3951 -0.2362
  100SAPE   H9X10135   2.530   2.984   5.674 -0.6720  0.6054  3.0251
  100SAPE   H9Y10136   2.422   3.120   5.655  1.2591 -0.3267  1.1339
  100SAPE  C31010137   2.386   2.953   5.516 -1.1955  0.2002 -0.3488
  100SAPE  H10X10138   2.275   2.957   5.509 -1.2696 -1.1090 -0.1693
  100SAPE  H10Y10139   2.407   2.844   5.519 -1.7460  0.1206  0.7346
  100SAPE  C31110140   2.454   3.022   5.398  0.3897  0.2672 -0.0665
  100SAPE  H11X10141   2.564   3.006   5.405  0.5435  1.3238  0.1103
  100SAPE  H11Y10142   2.434   3.132   5.394  1.4498  0.7100  3.4205
  100SAPE  C31210143   2.397   2.966   5.265 -0.4287  0.0055  0.2189
  100SAPE  H12X10144   2.286   2.974   5.259 -0.5363  1.3133  2.8607
  100SAPE  H12Y10145   2.427   2.860   5.251 -4.6117 -1.2082 -1.0284
  100SAPE  C31310146   2.447   3.048   5.147  0.4067  0.2028 -0.1444
  100SAPE  H13X10147   2.553   3.064   5.176  0.2428 -1.3006  1.4013
  100SAPE  H13Y10148   2.399   3.148   5.159 -1.0747 -0.7046  2.3427
  100SAPE  C31410149   2.409   2.990   5.004 -0.0655  0.1901 -0.2806
  100SAPE  H14X10150   2.299   2.983   4.994  0.1450 -3.0551 -1.3252
  100SAPE  H14Y10151   2.443   2.885   4.991 -0.3856 -0.4048  2.8833
  100SAPE  C31510152   2.447   3.081   4.892 -0.4166 -0.6416  0.0500
  100SAPE  H15X10153   2.556   3.100   4.886 -0.4777 -0.0086  0.7607
  100SAPE  H15Y10154   2.393   3.176   4.915  0.4908 -0.3776  1.1814
  100SAPE  C31610155   2.403   3.027   4.747  0.2322 -0.1065  0.3560
  100SAPE  H16X10156   2.465   2.938   4.724 -0.8022 -0.8976  0.5395
  100SAPE  H16Y10157   2.436   3.109   4.680  0.6559 -0.3191  0.3018
  100SAPE  C31710158   2.247   3.006   4.736 -0.2405  0.3196 -0.2260
  100SAPE  H17X10159   2.202   3.089   4.794 -1.9919 -0.3912 -0.5104
  100SAPE  H17Y10160   2.232   2.908   4.785 -1.0340  0.3242 -0.4432
  100SAPE  C31810161   2.204   2.998   4.590  0.1107 -0.0953 -0.6613
  100SAPE  H18X10162   2.095   3.020   4.585  0.5794  2.2791 -1.9869
  100SAPE  H18Y10163   2.241   2.913   4.528  0.5914  0.6244 -1.3912
  100SAPE  H18Z10164   2.244   3.085   4.533  0.9828 -0.6625 -0.9324
  101SAPE     N10165   1.688   5.019   7.195  0.2216 -0.0817  0.0710
  101SAPE   HN110166   1.776   5.033   7.142 -0.1051 -0.8719 -0.7149
  101SAPE   HN210167   1.661   5.116   7.222 -0.9333  0.0308 -1.3422
  101SAPE   HN310168   1.708   4.968   7.283 -2.2425 -0.9549  0.2012
  101SAPE   C1210169   1.591   4.942   7.109 -0.6542 -0.5922 -0.1036
  101SAPE  H12A10170   1.577   4.996   7.013 -1.9760 -1.2884 -0.3327
  101SAPE  H12B10171   1.495   4.942   7.164  0.4812  2.0649  2.1283
  101SAPE   C1110172   1.643   4.799   7.109 -0.2766  1.3355  0.1920
  101SAPE  H11A10173   1.587   4.726   7.046 -1.7172  0.8363  1.9570
  101SAPE  H11B10174   1.635   4.767   7.215 -1.2066  0.4383 -0.1294
  101SAPE     P10175   1.873   4.657   7.074  0.2020  0.1324 -0.3531
  101SAPE   O1310176   1.943   4.649   7.208 -0.5540 -0.4112 -0.1897
  101SAPE   O1410177   1.796   4.539   7.041  0.0636  0.1403 -0.8511
  101SAPE   O1210178   1.779   4.786   7.070  0.5778 -0.1145  0.3627
  101SAPE   O1110179   1.977   4.682   6.955 -0.2798 -0.8285  0.1151
  101SAPE    C110180   1.985   4.813   6.891 -0.6271  0.6060 -0.4902
  101SAPE    HA10181   2.016   4.895   6.959 -1.3601  0.3930  0.1116
  101SAPE    HB10182   2.075   4.806   6.825  0.8608  1.3867  1.3671
  101SAPE    C210183   1.856   4.850   6.809 -0.3739  0.0134  1.2506
  101SAPE    HS10184   1.781   4.890   6.881 -1.3130  1.9817 -0.7089
  101SAPE   O2110185   1.804   4.735   6.739  0.2803  0.3125 -0.0053
  101SAPE   C2110186   1.697   4.753   6.667  0.2703  0.7471  0.1000
  101SAPE   O2210187   1.633   4.858   6.660 -0.3005 -0.2693 -0.0501
  101SAPE   C2210188   1.646   4.611   6.624 -0.2425  0.0618 -1.0652
  101SAPE   H2R10189   1.733   4.561   6.575  1.0733  2.6908 -1.6327
  101SAPE   H2S10190   1.616   4.551   6.712 -3.3652  0.2656 -1.8852
  101SAPE    C310191   1.887   4.970   6.712  0.2638 -0.1753 -0.1502
  101SAPE    HX10192   1.951   5.050   6.756  1.0492  0.0716 -1.6842
  101SAPE    HY10193   1.790   5.020   6.693  0.3757  0.6060  1.1839
  101SAPE   O3110194   1.953   4.932   6.593 -0.1241  0.8231  0.5773
  101SAPE   C3110195   1.940   5.019   6.494 -0.7737  0.4167 -0.7617
  101SAPE   O3210196   1.879   5.125   6.493 -0.4033 -0.4150  0.1377
  101SAPE   C3210197   2.020   4.972   6.381 -0.3849 -0.8766 -0.3386
  101SAPE   H2X10198   2.130   4.970   6.397  0.0055 -3.7914 -2.5575
  101SAPE   H2Y10199   1.998   5.047   6.302 -2.0495 -0.4193  0.5162
  101SAPE   C2310200   1.533   4.617   6.524 -0.7891  1.4159 -0.2686
  101SAPE   H3R10201   1.562   4.655   6.424 -1.8425  0.8878 -0.7869
  101SAPE   H3S10202   1.455   4.688   6.559 -2.1483 -0.5723  0.9383
  101SAPE   C2410203   1.454   4.482   6.511  0.2109  0.3593 -0.3431
  101SAPE   H4R10204   1.375   4.495   6.434 -0.2943 -1.1269 -0.1050
  101SAPE   H4S10205   1.392   4.463   6.600  0.9856 -0.8715 -0.0402
  101SAPE   C2510206   1.543   4.369   6.479 -0.3568  0.5145 -0.1457
  101SAPE   H5R10207   1.633   4.360   6.541  0.4354 -3.2173 -1.6110
  101SAPE   C2610208   1.528   4.277   6.379  0.2860  0.8962 -0.7467
  101SAPE   H6R10209   1.602   4.196   6.371 -0.2416  0.2905  0.2090
  101SAPE   C2710210   1.414   4.276   6.284  0.1763 -0.1121  0.0750
  101SAPE   H7R10211   1.448   4.209   6.202  1.5449 -0.9775  1.3004
  101SAPE   H7S10212   1.404   4.372   6.229  0.4002  1.1730  2.1652
  101SAPE   C2810213   1.274   4.229   6.340 -0.8396 -0.5953 -0.1604
  101SAPE   H8R10214   1.273   4.249   6.449  0.8599 -1.9576  0.1445
  101SAPE   C2910215   1.171   4.169   6.286 -0.0480  0.6126  0.3716
  101SAPE   H9R10216   1.082   4.156   6.349 -2.4758  0.4254 -2.8167
  101SAPE  C21010217   1.172   4.136   6.135 -0.4286  0.1507 -0.2762
  101SAPE  H10R10218   1.151   4.028   6.122  0.2641 -0.1052  0.5831
  101SAPE  H10S10219   1.277   4.139   6.100 -0.3820  0.5725 -0.1059
  101SAPE  C21110220   1.087   4.228   6.049  0.8141 -0.9342  0.4889
  101SAPE  H11R10221   0.990   4.251   6.096  1.3682  0.4495  1.0240
  101SAPE  C21210222   1.126   4.292   5.938  0.6468  0.7123  0.2452
  101SAPE  H12R10223   1.057   4.351   5.877 -0.7679 -1.1085 -0.0249
  101SAPE  C21310224   1.255   4.277   5.871  0.8779  0.0910  0.3126
  101SAPE  H13R10225   1.236   4.230   5.772 -4.5231  3.2177 -0.5539
  101SAPE  H13S10226   1.317   4.208   5.931 -0.4431 -0.1886  1.4178
  101SAPE  C21410227   1.314   4.413   5.848  0.5608 -0.1709 -0.4354
  101SAPE  H14R10228   1.308   4.482   5.934  1.3937 -0.0128 -0.4919
  101SAPE  C21510229   1.368   4.448   5.735 -0.5245  0.1084  0.3318
  101SAPE  H15R10230   1.407   4.551   5.728 -2.7718  0.9780 -0.3367
  101SAPE  C21610231   1.401   4.370   5.616 -0.1689 -0.0267 -0.4667
  101SAPE  H16R10232   1.401   4.261   5.640 -0.8658  0.5727  2.7386
  101SAPE  H16S10233   1.506   4.384   5.581  1.0151 -2.3515  1.8160
  101SAPE  C21710234   1.305   4.400   5.497 -0.0098 -0.3429  0.1958
  101SAPE  H17R10235   1.306   4.507   5.467  1.3675 -0.0691  1.1214
  101SAPE  H17S10236   1.205   4.385   5.543 -0.1548 -2.0536 -0.5955
  101SAPE  C21810237   1.336   4.319   5.377  0.2439  0.3985 -0.5275
  101SAPE  H18R10238   1.336   4.209   5.396  0.1799  0.5886  0.6488
  101SAPE  H18S10239   1.435   4.338   5.330  0.6962  0.0312  0.2669
  101SAPE  C21910240   1.225   4.342   5.274  0.4108  0.2266  0.5677
  101SAPE  H19R10241   1.259   4.300   5.177  0.0709  1.5072 -0.1157
  101SAPE  H19S10242   1.214   4.449   5.249  0.3107  0.4043  1.3333
  101SAPE  C22010243   1.094   4.286   5.322 -0.0622 -0.5129 -0.3287
  101SAPE  H20R10244   1.114   4.182   5.355 -1.1180  0.4165  3.7649
  101SAPE  H20S10245   1.017   4.288   5.241 -0.0180 -1.0991 -0.3901
  101SAPE  H20T10246   1.061   4.348   5.408 -0.0638  1.5423 -1.7323
  101SAPE   C3310247   1.979   4.831   6.317 -0.9308 -0.0007  0.4261
  101SAPE   H3X10248   2.041   4.752   6.366 -0.4665 -1.1614 -1.9190
  101SAPE   H3Y10249   2.037   4.823   6.223  0.5540  1.9086  1.1095
  101SAPE   C3410250   1.837   4.791   6.298 -0.1977 -0.1839  0.2427
  101SAPE   H4X10251   1.767   4.863   6.249  0.1344 -0.5226 -0.7427
  101SAPE   H4Y10252   1.780   4.765   6.389 -2.9095  1.2464 -0.9110
  101SAPE   C3510253   1.832   4.691   6.181  0.0067 -0.1695 -0.2112
  101SAPE   H5X10254   1.897   4.604   6.204 -0.0937 -0.1388  0.1903
  101SAPE   H5Y10255   1.884   4.742   6.098 -0.6579 -2.0066 -1.8498
  101SAPE   C3610256   1.687   4.661   6.137  0.4393 -0.2906  0.1251
  101SAPE   H6X10257   1.645   4.743   6.075  2.2551  0.8566  0.3242
  101SAPE   H6Y10258   1.641   4.652   6.238  0.1417  0.1731  0.0352
  101SAPE   C3710259   1.671   4.523   6.067  0.4496 -0.5999 -1.0346
  101SAPE   H7X10260   1.716   4.532   5.966  0.1319  0.3921 -1.1000
  101SAPE   H7Y10261   1.560   4.516   6.067  0.3573  0.3204 -3.2299
  101SAPE   C3810262   1.740   4.395   6.130 -0.1901 -1.5021  0.3725
  101SAPE   H8X10263   1.718   4.381   6.238  0.2263  0.1190  0.6968
  101SAPE   H8Y10264   1.850   4.409   6.134 -0.4087  0.5411 -0.0624
  101SAPE   C3910265   1.705   4.265   6.059  0.5021 -0.2778 -0.5105
  101SAPE   H9X10266   1.596   4.245   6.070  1.0295 -1.8136  3.1502
  101SAPE   H9Y10267   1.754   4.182   6.113  0.4352  0.0243  0.0284
  101SAPE  C31010268   1.755   4.275   5.920  0.0912 -1.0694  0.1921
  101SAPE  H10X10269   1.862   4.306   5.918 -0.0149 -0.6945  0.2455
  101SAPE  H10Y10270   1.696   4.347   5.860  2.4207  0.6642 -0.1772
  101SAPE  C31110271   1.744   4.148   5.846 -0.4927  0.5622 -0.1555
  101SAPE  H11X10272   1.636   4.131   5.826 -0.2930 -0.1887 -0.6495
  101SAPE  H11Y10273   1.784   4.059   5.899 -0.2488  1.1451  0.6556
  101SAPE  C31210274   1.816   4.140   5.712  0.1316 -0.2162  0.0883
  101SAPE  H12X10275   1.797   4.036   5.676  1.0117 -1.1479  2.1462
  101SAPE  H12Y10276   1.926   4.147   5.715  0.2281 -1.7618  2.0173
  101SAPE  C31310277   1.771   4.247   5.616 -0.2535  0.3672  0.9238
  101SAPE  H13X10278   1.784   4.344   5.669  0.1919  0.3272  0.8927
  101SAPE  H13Y10279   1.665   4.228   5.589  0.4119 -0.3264 -1.4353
  101SAPE  C31410280   1.838   4.252   5.479 -0.4080 -0.5558 -0.1041
  101SAPE  H14X10281   1.865   4.149   5.447 -2.8863 -1.3904  0.2718
  101SAPE  H14Y10282   1.925   4.317   5.500 -1.3978  0.2652  1.6487
  101SAPE  C31510283   1.765   4.321   5.370 -0.0289 -0.5674  0.2498
  101SAPE  H15X10284   1.745   4.428   5.394 -0.5363 -0.7317  0.5894
  101SAPE  H15Y10285   1.661   4.283   5.361  0.2340 -1.1440 -0.4531
  101SAPE  C31610286   1.845   4.314   5.240 -0.0584 -0.7349 -0.0292
  101SAPE  H16X10287   1.860   4.206   5.220  1.1939 -0.3178 -1.5607
  101SAPE  H16Y10288   1.952   4.345   5.246 -0.8331  1.9427  2.7351
  101SAPE  C31710289   1.782   4.392   5.120 -0.5946  0.0361  0.0669
  101SAPE  H17X10290   1.852   4.378   5.035  0.8343  1.2847  0.9820
  101SAPE  H17Y10291   1.768   4.499   5.147 -0.7077  0.1029 -0.2649
  101SAPE  C31810292   1.645   4.338   5.081 -0.1520 -0.2440  0.4897
  101SAPE  H18X10293   1.650   4.232   5.050  1.1541  0.5562 -2.3637
  101SAPE  H18Y10294   1.595   4.404   5.007  0.0761  0.3649  0.8683
  101SAPE  H18Z10295   1.567   4.331   5.160 -1.5297 -0.5164 -0.8485
  102SAPE     N10296   0.765   3.711   7.038  0.7455  0.9501 -0.0094
  102SAPE   HN110297   0.837   3.636   7.029 -0.3254  0.0089 -1.0608
  102SAPE   HN210298   0.684   3.653   7.067  1.3921  1.1010  2.2414
  102SAPE   HN310299   0.744   3.755   6.946  3.5242 -0.7419 -1.5840
  102SAPE   C1210300   0.784   3.814   7.140  0.0827 -0.0349 -0.5131
  102SAPE  H12A10301   0.884   3.859   7.126 -0.1799  1.6230  2.2975
  102SAPE  H12B10302   0.787   3.765   7.239 -0.4412  5.4833  2.6093
  102SAPE   C1110303   0.663   3.908   7.151  0.0739 -0.1095  0.4039
  102SAPE  H11A10304   0.662   3.947   7.255  1.8929 -0.6298  0.6438
  102SAPE  H11B10305   0.565   3.856   7.144  1.2688 -2.3643 -0.8374
  102SAPE     P10306   0.644   4.008   6.896 -0.0929  0.1126  0.1931
  102SAPE   O1310307   0.514   3.941   6.866  0.0687 -0.1872  0.4422
  102SAPE   O1410308   0.666   4.142   6.845  0.1991  0.1351  1.0325
  102SAPE   O1210309   0.674   4.010   7.052 -0.1946  0.3966  0.7068
  102SAPE   O1110310   0.769   3.920   6.853  0.6238  0.1131  0.3890
  102SAPE    C110311   0.895   3.983   6.827 -0.1368  0.1533  0.3413
  102SAPE    HA10312   0.887   4.094   6.822 -0.4771  0.0938 -0.8857
  102SAPE    HB10313   0.953   3.963   6.919  0.1864  1.5410  0.4567
  102SAPE    C210314   0.968   3.942   6.692  0.9502 -0.6754  0.1843
  102SAPE    HS10315   1.060   4.003   6.678 -0.3722  0.8731 -2.5509
  102SAPE   O2110316   0.876   3.969   6.578 -0.4498 -0.5653  0.0863
  102SAPE   C2110317   0.876   4.097   6.549  1.0190  0.5700 -0.4038
  102SAPE   O2210318   0.961   4.175   6.585  0.3056 -0.1356 -0.3503
  102SAPE   C2210319   0.769   4.125   6.447  0.0944 -0.2301 -0.1043
  102SAPE   H2R10320   0.785   4.068   6.354 -0.1066  1.3357 -1.1463
  102SAPE   H2S10321   0.666   4.102   6.483 -0.2919  0.4780 -0.7155
  102SAPE    C310322   1.002   3.794   6.686  0.2883  0.6110  0.0209
  102SAPE    HX10323   0.908   3.737   6.668  1.7794 -1.7243 -0.7636
  102SAPE    HY10324   1.039   3.770   6.788  1.2718  0.8881 -0.2597
  102SAPE   O3110325   1.099   3.768   6.585 -0.5212  0.6452 -0.0511
  102SAPE   C3110326   1.223   3.782   6.633 -0.6695 -0.4142  0.5849
  102SAPE   O3210327   1.252   3.817   6.748  0.2109  0.0028 -0.8337
  102SAPE   C3210328   1.328   3.763   6.526  0.2644  0.4146 -0.8073
  102SAPE   H2X10329   1.429   3.758   6.571  0.4260 -0.5894 -1.2430
  102SAPE   H2Y10330   1.327   3.852   6.460  2.4896  0.4534 -0.8611
  102SAPE   C2310331   0.782   4.272   6.405 -0.5555 -0.4826  0.3041
  102SAPE   H3R10332   0.886   4.310   6.398  1.0881 -4.6865 -1.6836
  102SAPE   H3S10333   0.737   4.336   6.484 -0.7577  1.0631 -1.0069
  102SAPE   C2410334   0.698   4.309   6.279 -0.3624 -0.2954  0.0430
  102SAPE   H4R10335   0.703   4.420   6.269 -1.0758 -0.2440  0.2166
  102SAPE   H4S10336   0.596   4.275   6.308  0.1188 -2.0613 -0.2530
  102SAPE   C2510337   0.737   4.237   6.157  0.2665  0.5576  0.1969
  102SAPE   H5R10338   0.763   4.133   6.183 -0.7466  0.4495  0.8242
  102SAPE   C2610339   0.726   4.267   6.026 -0.5739 -0.5317  0.2487
  102SAPE   H6R10340   0.771   4.198   5.954  0.8508 -0.5802  1.1489
  102SAPE   C2710341   0.670   4.401   5.968  0.2541 -0.2633  0.4927
  102SAPE   H7R10342   0.748   4.444   5.902  0.4619 -1.8826 -0.3552
  102SAPE   H7S10343   0.634   4.465   6.051 -0.2791  0.5715 -0.3592
  102SAPE   C2810344   0.546   4.380   5.892  0.0350  0.2028  0.6193
  102SAPE   H8R10345   0.458   4.363   5.955 -0.2833 -1.1836 -0.1721
  102SAPE   C2910346   0.546   4.371   5.756 -0.3127  0.3855  0.5911
  102SAPE   H9R10347   0.445   4.370   5.712 -0.2418  1.3115  0.3822
  102SAPE  C21010348   0.666   4.387   5.654 -0.2590 -0.5696 -0.7349
  102SAPE  H10R10349   0.656   4.336   5.555  1.1968  1.5477 -2.0656
  102SAPE  H10S10350   0.755   4.341   5.702  0.9553  0.5193 -1.8440
  102SAPE  C21110351   0.710   4.531   5.637 -0.5840 -0.2628  0.2825
  102SAPE  H11R10352   0.707   4.593   5.728  0.4239 -1.5168  1.2038
  102SAPE  C21210353   0.741   4.596   5.526  0.4150 -0.1504  0.1521
  102SAPE  H12R10354   0.771   4.701   5.529 -0.7357  0.2889 -1.7934
  102SAPE  C21310355   0.738   4.535   5.392 -0.1536  0.6986  1.1954
  102SAPE  H13R10356   0.677   4.442   5.399  0.7614 -0.0621 -0.3269
  102SAPE  H13S10357   0.844   4.501   5.381 -0.3533  0.8409 -2.0396
  102SAPE  C21410358   0.694   4.629   5.280 -0.0225  0.0646 -0.3703
  102SAPE  H14R10359   0.587   4.646   5.265  0.1462 -0.2119 -1.9934
  102SAPE  C21510360   0.780   4.709   5.214  0.2370  0.8047  0.2867
  102SAPE  H15R10361   0.741   4.783   5.142  3.6225  1.3400 -1.1966
  102SAPE  C21610362   0.925   4.735   5.243 -0.4957  0.3103  0.5649
  102SAPE  H16R10363   0.961   4.693   5.339  2.0932 -0.3843 -0.6383
  102SAPE  H16S10364   0.936   4.846   5.240 -1.1151  0.3574 -0.3830
  102SAPE  C21710365   1.025   4.658   5.159 -0.0552 -0.6204 -0.4029
  102SAPE  H17R10366   1.016   4.549   5.180 -0.6475 -0.9503 -2.1925
  102SAPE  H17S10367   1.131   4.676   5.186 -0.6104  0.1079  1.4020
  102SAPE  C21810368   1.013   4.678   5.003 -0.2238 -0.1276  0.4789
  102SAPE  H18R10369   1.026   4.783   4.968 -2.3849  0.3114  0.8124
  102SAPE  H18S10370   0.905   4.673   4.976 -0.1331  0.5794 -0.0499
  102SAPE  C21910371   1.108   4.585   4.924  0.3563  0.1321 -0.6001
  102SAPE  H19R10372   1.208   4.590   4.972  0.4354  0.3901 -0.7844
  102SAPE  H19S10373   1.115   4.623   4.819  1.5724  2.3206  0.2023
  102SAPE  C22010374   1.061   4.437   4.941  0.1418  0.4407  0.6536
  102SAPE  H20R10375   1.084   4.408   5.046  1.2355  1.8124  0.8291
  102SAPE  H20S10376   1.133   4.372   4.887  0.4550  0.0708  1.4985
  102SAPE  H20T10377   0.955   4.429   4.908  0.2492  2.0346 -0.1828
  102SAPE   C3310378   1.301   3.639   6.436  0.1570 -0.0742  0.3105
  102SAPE   H3X10379   1.243   3.562   6.491  0.2695  0.2241  0.8613
  102SAPE   H3Y10380   1.398   3.591   6.409  0.1191 -0.6058  1.0906
  102SAPE   C3410381   1.241   3.676   6.301 -0.0118 -0.0490  0.5438
  102SAPE   H4X10382   1.274   3.776   6.269 -0.1807 -0.0679  0.3087
  102SAPE   H4Y10383   1.130   3.675   6.309 -0.0117  0.8220  0.7108
  102SAPE   C3510384   1.282   3.580   6.185 -0.1052  0.5837  0.2779
  102SAPE   H5X10385   1.262   3.476   6.218 -0.7713  0.4133 -0.6142
  102SAPE   H5Y10386   1.391   3.588   6.167 -0.0286 -1.2510 -0.2660
  102SAPE   C3610387   1.192   3.595   6.060 -1.2707  0.2229  0.1464
  102SAPE   H6X10388   1.092   3.635   6.085 -2.7709 -3.6432  0.9566
  102SAPE   H6Y10389   1.168   3.489   6.039  0.1734 -0.3116  1.0297
  102SAPE   C3710390   1.267   3.668   5.943  0.4664  0.4267 -0.9228
  102SAPE   H7X10391   1.197   3.652   5.858 -1.4726 -0.0981  0.6794
  102SAPE   H7Y10392   1.358   3.610   5.917 -0.8353 -1.2691 -1.8837
  102SAPE   C3810393   1.299   3.816   5.970  0.4175  0.0292  0.3093
  102SAPE   H8X10394   1.351   3.822   6.068  0.1248  1.7889  0.3982
  102SAPE   H8Y10395   1.205   3.873   5.985  0.0768  0.0168 -1.5113
  102SAPE   C3910396   1.388   3.888   5.872 -0.0451  0.0635  0.1439
  102SAPE   H9X10397   1.494   3.856   5.875 -0.6361 -1.9318  1.7306
  102SAPE   H9Y10398   1.389   3.997   5.894 -1.8423  0.5014 -1.6089
  102SAPE  C31010399   1.356   3.871   5.724  0.5782 -0.4898  0.2211
  102SAPE  H10X10400   1.262   3.924   5.698  1.1228 -0.2494 -1.4400
  102SAPE  H10Y10401   1.343   3.765   5.693 -0.0392  0.5378 -3.6607
  102SAPE  C31110402   1.472   3.926   5.635  0.0586  0.0370  0.2483
  102SAPE  H11X10403   1.565   3.886   5.682  0.3077  0.3328  0.0086
  102SAPE  H11Y10404   1.472   4.035   5.659  0.0429  0.1652 -0.3330
  102SAPE  C31210405   1.469   3.890   5.485  0.3854 -0.2227 -0.4251
  102SAPE  H12X10406   1.365   3.906   5.449  0.3543 -0.2113 -0.3313
  102SAPE  H12Y10407   1.491   3.781   5.475  2.8581  0.0012  1.4603
  102SAPE  C31310408   1.577   3.949   5.393  0.1881  0.0458 -0.5466
  102SAPE  H13X10409   1.674   3.907   5.429 -0.9932 -2.9470 -0.5772
  102SAPE  H13Y10410   1.572   4.057   5.420 -1.8637 -0.2532  0.4271
  102SAPE  C31410411   1.556   3.924   5.244 -0.3260  0.0781 -0.3704
  102SAPE  H14X10412   1.524   3.819   5.227 -0.7428 -0.7195  4.0243
  102SAPE  H14Y10413   1.654   3.943   5.195  0.0972  2.0488  1.1015
  102SAPE  C31510414   1.444   4.004   5.186 -0.0048 -0.1943 -0.2622
  102SAPE  H15X10415   1.465   4.110   5.213 -0.0023 -0.1468 -0.4510
  102SAPE  H15Y10416   1.353   3.969   5.240  1.3878  0.7265  2.9629
  102SAPE  C31610417   1.437   4.009   5.036  0.1321  0.2589  0.4068
  102SAPE  H16X10418   1.433   3.906   4.995 -1.8863 -0.1462  1.4816
  102SAPE  H16Y10419   1.538   4.047   5.007  0.9666 -2.5008 -0.6918
  102SAPE  C31710420   1.327   4.104   4.988 -0.1554  0.2293 -0.1841
  102SAPE  H17X10421   1.363   4.208   4.976 -0.5293  0.3151 -0.5796
  102SAPE  H17Y10422   1.257   4.120   5.073  0.4302  0.1877  0.3156
  102SAPE  C31810423   1.255   4.066   4.859 -0.0254  0.0331 -0.4892
  102SAPE  H18X10424   1.199   3.974   4.885  1.1532 -0.5125  0.1970
  102SAPE  H18Y10425   1.328   4.047   4.778 -0.5258 -1.0183 -0.7066
  102SAPE  H18Z10426   1.172   4.137   4.835 -0.7005 -0.5879 -0.0418
  103SAPE     N10427   5.860   1.030   2.505 -0.1683  0.2868 -0.3382
  103SAPE   HN110428   5.780   1.030   2.439 -0.7606 -0.2657  0.3586
  103SAPE   HN210429   5.918   0.950   2.472  0.0361  0.4603 -0.4011
  103SAPE   HN310430   5.822   1.027   2.602 -0.4225 -0.4747 -0.4600
  103SAPE   C1210431   5.918   1.165   2.486  0.0541 -0.2318 -0.3608
  103SAPE  H12A10432   5.942   1.173   2.378  2.5258  1.2630  0.2433
  103SAPE  H12B10433   6.013   1.173   2.542  0.9836 -0.6641 -1.8216
  103SAPE   C1110434   5.809   1.266   2.538 -0.0588 -0.3878 -0.1556
  103SAPE  H11A10435   5.837   1.367   2.501 -0.0683 -1.2105 -2.5671
  103SAPE  H11B10436   5.800   1.259   2.648 -2.6302 -0.9437 -0.3284
  103SAPE     P10437   5.571   1.329   2.454  0.1073 -0.2957  0.1716
  103SAPE   O1310438   5.596   1.406   2.330 -0.4894  0.4304 -0.0046
  103SAPE   O1410439   5.445   1.256   2.467 -0.2210  0.6511  0.2873
  103SAPE   O1210440   5.690   1.230   2.471  0.1563 -0.3744  0.3934
  103SAPE   O1110441   5.588   1.420   2.579 -0.2890 -0.3339  0.2600
  103SAPE    C110442   5.557   1.388   2.716  0.0180 -0.0118  0.0145
  103SAPE    HA10443   5.449   1.360   2.719 -1.3425  3.3476 -5.0051
  103SAPE    HB10444   5.617   1.303   2.756 -1.6433 -1.4427 -0.3777
  103SAPE    C210445   5.573   1.516   2.803 -0.1777 -0.1496  0.0807
  103SAPE    HS10446   5.505   1.592   2.758  0.4175  0.4343  0.1377
  103SAPE   O2110447   5.713   1.558   2.797  0.0217  0.3518  0.0682
  103SAPE   C2110448   5.730   1.691   2.780  0.0702  0.1584  0.2683
  103SAPE   O2210449   5.649   1.770   2.737 -0.3086 -0.2121  0.2625
  103SAPE   C2210450   5.885   1.716   2.801  1.1801  0.8597 -0.3842
  103SAPE   H2R10451   5.919   1.676   2.898 -0.1049  1.3422  0.2877
  103SAPE   H2S10452   5.936   1.650   2.727  2.2793  1.5607 -0.2724
  103SAPE    C310453   5.532   1.487   2.950 -0.1374  0.0771  0.2279
  103SAPE    HX10454   5.618   1.431   2.990  0.5486  0.2063 -1.0193
  103SAPE    HY10455   5.435   1.435   2.961 -1.2929  1.8291 -1.0164
  103SAPE   O3110456   5.527   1.617   3.017  0.3706  0.8428 -0.5225
  103SAPE   C3110457   5.550   1.608   3.149  0.4933 -0.5572 -0.0090
  103SAPE   O3210458   5.566   1.502   3.206  0.2736  0.0118  0.4390
  103SAPE   C3210459   5.552   1.756   3.206  0.5660 -0.1515 -0.1292
  103SAPE   H2X10460   5.528   1.748   3.314  0.8378  2.2488  0.1671
  103SAPE   H2Y10461   5.469   1.812   3.157  0.2110  0.3666  1.0275
  103SAPE   C2310462   5.905   1.861   2.785 -0.0173  0.1302 -0.1994
  103SAPE   H3R10463   5.869   1.910   2.692 -1.5000  0.2865  0.4396
  103SAPE   H3S10464   6.015   1.873   2.775 -0.1677  0.2936 -2.0646
  103SAPE   C2410465   5.864   1.925   2.918 -0.4226 -1.0355 -0.1941
  103SAPE   H4R10466   5.892   1.865   3.007  1.1256  2.2171  1.6717
  103SAPE   H4S10467   5.753   1.933   2.909 -0.3982 -1.4534 -0.9568
  103SAPE   C2510468   5.913   2.068   2.921  0.4018 -0.6043  0.2733
  103SAPE   H5R10469   5.857   2.134   2.853  0.1974  0.1705  1.1666
  103SAPE   C2610470   6.011   2.116   3.003  0.4278 -0.7900  0.6051
  103SAPE   H6R10471   6.044   2.221   2.996 -1.6020 -0.1361  0.2558
  103SAPE   C2710472   6.095   2.038   3.102 -0.1396  0.2633  0.2613
  103SAPE   H7R10473   6.024   1.960   3.138 -1.0258 -1.6907 -4.8553
  103SAPE   H7S10474   6.128   2.107   3.183  2.2652 -1.6496  1.0343
  103SAPE   C2810475   6.216   1.977   3.037  0.3751  0.4210  0.1682
  103SAPE   H8R10476   6.245   2.027   2.944 -0.4469 -0.4934 -0.6102
  103SAPE   C2910477   6.262   1.855   3.062 -0.4221  0.5215 -0.2691
  103SAPE   H9R10478   6.348   1.807   3.014  0.6861 -2.1191  3.8617
  103SAPE  C21010479   6.224   1.780   3.181 -0.0610 -0.1208  0.4925
  103SAPE  H10R10480   6.122   1.740   3.165  0.0009 -0.2358  0.3781
  103SAPE  H10S10481   6.218   1.848   3.269  0.3314  1.3970 -0.6128
  103SAPE  C21110482   6.308   1.657   3.203 -0.7614 -0.3978 -0.5536
  103SAPE  H11R10483   6.369   1.628   3.117 -1.0394 -0.0768 -0.8656
  103SAPE  C21210484   6.299   1.573   3.310 -0.0519  0.0701  0.4200
  103SAPE  H12R10485   6.378   1.498   3.328 -1.6476 -2.2440 -1.4874
  103SAPE  C21310486   6.209   1.600   3.439  0.5153  0.3639  0.1990
  103SAPE  H13R10487   6.138   1.515   3.443 -0.3466  1.1081  1.6643
  103SAPE  H13S10488   6.149   1.693   3.427 -0.8974 -0.6934 -1.3238
  103SAPE  C21410489   6.307   1.608   3.557  0.6481 -0.1344 -0.1191
  103SAPE  H14R10490   6.364   1.700   3.578  0.0937  0.2314 -0.1971
  103SAPE  C21510491   6.333   1.502   3.635  0.2346 -0.2325  0.1014
  103SAPE  H15R10492   6.397   1.500   3.725 -0.6126 -3.8237  0.7746
  103SAPE  C21610493   6.287   1.362   3.611 -0.1747 -0.2219  0.4021
  103SAPE  H16R10494   6.213   1.355   3.529 -2.1174 -0.9457  2.1222
  103SAPE  H16S10495   6.234   1.314   3.696  0.0872 -0.8403  0.2268
  103SAPE  C21710496   6.406   1.264   3.581  0.1607 -0.9655 -1.0343
  103SAPE  H17R10497   6.473   1.281   3.668  1.7168 -2.4922 -1.8702
  103SAPE  H17S10498   6.467   1.293   3.493  1.4147  1.4922  0.5356
  103SAPE  C21810499   6.357   1.122   3.579  0.5529  0.5938  0.2630
  103SAPE  H18R10500   6.446   1.056   3.577  0.4963  0.5371 -0.5450
  103SAPE  H18S10501   6.313   1.102   3.479  1.8969  1.6019 -0.5605
  103SAPE  C21910502   6.267   1.064   3.688  0.2820 -0.2165  0.2295
  103SAPE  H19R10503   6.162   1.098   3.676  0.2937 -0.3877 -0.3509
  103SAPE  H19S10504   6.293   1.114   3.784 -1.9229  3.0271 -0.6962
  103SAPE  C22010505   6.284   0.917   3.705 -0.0328  1.0097  0.6146
  103SAPE  H20R10506   6.255   0.867   3.611  0.5212 -0.5352  1.2191
  103SAPE  H20S10507   6.216   0.870   3.779 -0.4269 -0.9377 -0.8937
  103SAPE  H20T10508   6.390   0.890   3.727 -0.2208 -2.2264 -1.7057
  103SAPE   C3310509   5.694   1.814   3.199  0.2451 -0.3874 -0.5875
  103SAPE   H3X10510   5.691   1.924   3.185  0.4442  0.0163  2.0788
  103SAPE   H3Y10511   5.737   1.768   3.107 -2.7155 -1.7845 -1.4410
  103SAPE   C3410512   5.783   1.784   3.319 -0.0219 -0.5458 -0.0898
  103SAPE   H4X10513   5.883   1.815   3.283 -0.0861  0.0356  0.2146
  103SAPE   H4Y10514   5.776   1.676   3.344 -0.5798 -0.1863  1.4596
  103SAPE   C3510515   5.754   1.866   3.442 -0.2084 -0.0051 -0.3009
  103SAPE   H5X10516   5.656   1.831   3.481 -0.1088  0.8381  0.7610
  103SAPE   H5Y10517   5.749   1.971   3.406  1.1373  0.8599  1.8144
  103SAPE   C3610518   5.844   1.869   3.559 -0.1714  0.8334  0.3329
  103SAPE   H6X10519   5.804   1.946   3.628 -1.8746 -0.0392  0.3658
  103SAPE   H6Y10520   5.934   1.911   3.507 -0.8901 -0.7854 -2.4655
  103SAPE   C3710521   5.870   1.735   3.629  0.1725 -0.1325 -0.2751
  103SAPE   H7X10522   5.946   1.683   3.565  2.6328  0.2477  2.1589
  103SAPE   H7Y10523   5.780   1.672   3.643  0.9889 -1.8149 -2.0470
  103SAPE   C3810524   5.953   1.753   3.754 -0.0158  0.5234  0.9448
  103SAPE   H8X10525   5.889   1.815   3.820 -1.5360 -0.9453  0.8896
  103SAPE   H8Y10526   6.046   1.812   3.736  1.9660 -2.5708  0.4318
  103SAPE   C3910527   5.990   1.611   3.804 -0.2795 -0.4766 -0.2899
  103SAPE   H9X10528   6.041   1.553   3.725  1.7241  0.6295  0.1257
  103SAPE   H9Y10529   5.894   1.560   3.829 -0.4181 -0.0428  0.1009
  103SAPE  C31010530   6.075   1.621   3.933  0.3900 -0.2407 -0.6152
  103SAPE  H10X10531   6.164   1.686   3.922 -0.5088  1.2830  0.7489
  103SAPE  H10Y10532   6.125   1.524   3.957 -0.3549 -0.0270  2.0817
  103SAPE  C31110533   5.990   1.659   4.051 -1.4190 -0.0642  0.1627
  103SAPE  H11X10534   5.894   1.606   4.035 -1.1337  0.1397 -2.6112
  103SAPE  H11Y10535   5.965   1.767   4.042  2.1882  0.9488  0.6330
  103SAPE  C31210536   6.032   1.624   4.194 -0.3898  0.1027  0.4918
  103SAPE  H12X10537   6.135   1.645   4.229 -0.0572 -0.2251 -0.2596
  103SAPE  H12Y10538   6.058   1.516   4.189  1.3313  0.4656  0.8247
  103SAPE  C31310539   5.926   1.657   4.303 -0.7177 -0.1967 -0.0721
  103SAPE  H13X10540   5.838   1.600   4.265  1.2688 -1.8419 -2.5502
  103SAPE  H13Y10541   5.906   1.766   4.309  0.4937 -0.0563  4.1753
  103SAPE  C31410542   5.953   1.603   4.448 -0.0914  0.0704  0.1620
  103SAPE  H14X10543   6.040   1.654   4.496  1.0176 -0.8541 -0.7865
  103SAPE  H14Y10544   5.974   1.494   4.454 -1.1957 -0.2444 -1.3168
  103SAPE  C31510545   5.819   1.610   4.525  0.2507  0.0049 -0.2875
  103SAPE  H15X10546   5.746   1.554   4.462 -0.2041  1.0670 -0.7319
  103SAPE  H15Y10547   5.794   1.718   4.519  2.2453  0.5434  0.5307
  103SAPE  C31610548   5.825   1.553   4.665  0.1253 -0.4675  0.4711
  103SAPE  H16X10549   5.902   1.605   4.725 -1.0906  1.7023  0.2465
  103SAPE  H16Y10550   5.851   1.445   4.664  1.6565 -0.1480  1.8129
  103SAPE  C31710551   5.683   1.565   4.727  0.0068 -0.4182 -0.6244
  103SAPE  H17X10552   5.665   1.674   4.742 -1.2107 -0.7396  0.3718
  103SAPE  H17Y10553   5.682   1.515   4.826 -1.3967 -0.5720 -0.7051
  103SAPE  C31810554   5.571   1.503   4.647 -0.1143  0.0613 -0.4074
  103SAPE  H18X10555   5.611   1.407   4.607  1.6342  0.5211  0.1615
  103SAPE  H18Y10556   5.553   1.561   4.554 -0.4049  0.0159 -0.3807
  103SAPE  H18Z10557   5.480   1.480   4.705  0.7155 -1.3821  0.3961
  104SAPE     N10558   6.536   1.452   2.868 -0.0434  1.0896  0.4217
  104SAPE   HN110559   6.612   1.457   2.938  0.2657  1.1647  0.0843
  104SAPE   HN210560   6.534   1.545   2.823  1.1826  0.7823 -0.3160
  104SAPE   HN310561   6.447   1.425   2.915  0.2433 -2.3840 -0.7291
  104SAPE   C1210562   6.566   1.351   2.760 -0.1402 -0.0121 -0.6123
  104SAPE  H12A10563   6.582   1.243   2.781  2.8503  0.6842  1.2106
  104SAPE  H12B10564   6.670   1.375   2.729 -0.1859 -0.6802 -1.3209
  104SAPE   C1110565   6.471   1.362   2.637 -0.5734  0.2732 -0.0458
  104SAPE  H11A10566   6.512   1.297   2.558  2.8272  0.4836  1.3594
  104SAPE  H11B10567   6.482   1.462   2.590 -0.5817  0.0484 -0.5237
  104SAPE     P10568   6.270   1.194   2.700  0.1784 -0.0278 -0.1588
  104SAPE   O1310569   6.256   1.132   2.568  0.0479 -0.0455 -0.3913
  104SAPE   O1410570   6.354   1.119   2.797  0.1059  0.1282 -0.1263
  104SAPE   O1210571   6.337   1.340   2.674 -0.0009 -0.5231  0.0914
  104SAPE   O1110572   6.122   1.223   2.760 -0.7026  0.4474 -0.1130
  104SAPE    C110573   6.088   1.352   2.810 -0.1855 -0.2720 -0.5933
  104SAPE    HA10574   6.165   1.431   2.798 -0.2446 -0.0909  0.1660
  104SAPE    HB10575   5.998   1.391   2.759  0.3202  1.2174 -0.3792
  104SAPE    C210576   6.059   1.349   2.969 -0.2976  0.3619  0.5880
  104SAPE    HS10577   6.064   1.455   3.003  0.2891 -0.1306  2.1133
  104SAPE   O2110578   6.144   1.258   3.045 -0.4507  0.0570  0.2308
  104SAPE   C2110579   6.270   1.294   3.062  0.5195  0.3606  0.1502
  104SAPE   O2210580   6.322   1.398   3.025  0.3874  0.7300 -0.3106
  104SAPE   C2210581   6.347   1.186   3.135  0.0666  0.2518  0.4193
  104SAPE   H2R10582   6.319   1.166   3.240 -0.0377  1.4822  0.6327
  104SAPE   H2S10583   6.322   1.092   3.081 -0.5225  0.5782  0.1188
  104SAPE    C310584   5.910   1.314   2.978  0.2547 -0.8890  0.2869
  104SAPE    HX10585   5.889   1.232   2.906 -1.2898  0.6386 -1.0653
  104SAPE    HY10586   5.848   1.397   2.939 -0.1237 -0.3688  1.9122
  104SAPE   O3110587   5.853   1.274   3.105 -0.3571  0.2982 -0.2142
  104SAPE   C3110588   5.874   1.362   3.199 -0.0652 -0.1750  0.1069
  104SAPE   O3210589   5.912   1.479   3.176  0.0853 -0.1917 -0.9255
  104SAPE   C3210590   5.808   1.306   3.329 -0.1161 -0.7571 -0.4304
  104SAPE   H2X10591   5.861   1.209   3.339  1.5420 -0.1099 -2.3686
  104SAPE   H2Y10592   5.699   1.288   3.320 -0.4337  0.3525  0.7936
  104SAPE   C2310593   6.497   1.208   3.127  0.1635  0.0393 -0.1969
  104SAPE   H3R10594   6.517   1.309   3.170 -2.5508  1.7163 -2.4947
  104SAPE   H3S10595   6.534   1.201   3.023  1.6441  1.6774  0.1742
  104SAPE   C2410596   6.571   1.103   3.211 -0.8366  0.2140 -0.1699
  104SAPE   H4R10597   6.558   0.998   3.177 -1.0603 -0.2522  1.2744
  104SAPE   H4S10598   6.530   1.110   3.314 -3.0870 -2.5238 -0.7235
  104SAPE   C2510599   6.716   1.130   3.225  0.2745  0.6987 -0.1327
  104SAPE   H5R10600   6.768   1.147   3.129  1.9157  0.6078  0.6990
  104SAPE   C2610601   6.800   1.137   3.335  0.1776 -0.2958  0.1867
  104SAPE   H6R10602   6.909   1.150   3.325  0.2443 -0.6155  0.4831
  104SAPE   C2710603   6.763   1.126   3.480 -0.0029  0.0828  0.8802
  104SAPE   H7R10604   6.691   1.207   3.504 -1.2717 -0.9858  0.7649
  104SAPE   H7S10605   6.851   1.165   3.536  2.0978 -1.7853 -0.9148
  104SAPE   C2810606   6.708   0.991   3.528 -0.9676  0.0576  0.1763
  104SAPE   H8R10607   6.698   0.908   3.457 -2.6374 -0.7181  1.2602
  104SAPE   C2910608   6.698   0.956   3.658  0.1994 -0.0932 -0.0537
  104SAPE   H9R10609   6.659   0.855   3.680  1.4907 -0.7921 -0.8684
  104SAPE  C21010610   6.719   1.051   3.780  0.6250 -0.1488 -0.4002
  104SAPE  H10R10611   6.715   1.160   3.762  2.4909  0.1019  0.4970
  104SAPE  H10S10612   6.820   1.041   3.825  0.2432 -1.2513  0.2513
  104SAPE  C21110613   6.608   1.029   3.890  0.1085 -1.1359  0.2196
  104SAPE  H11R10614   6.506   1.006   3.857  0.5607 -2.3291 -0.3989
  104SAPE  C21210615   6.612   1.062   4.021  0.2409  0.5661 -0.1029
  104SAPE  H12R10616   6.518   1.049   4.078  0.0544 -1.1370 -0.7612
  104SAPE  C21310617   6.735   1.104   4.107  0.1156 -0.2515 -0.0081
  104SAPE  H13R10618   6.690   1.143   4.200  2.1799  0.3521  0.7869
  104SAPE  H13S10619   6.782   1.196   4.066  3.6201 -2.3915 -1.2397
  104SAPE  C21410620   6.840   1.000   4.136  0.0681 -0.2977  0.1413
  104SAPE  H14R10621   6.897   0.973   4.046  2.4744  1.0017  1.1966
  104SAPE  C21510622   6.873   0.944   4.246 -0.8298  0.1748 -0.7822
  104SAPE  H15R10623   6.949   0.865   4.244 -1.3508 -0.3241 -2.0409
  104SAPE  C21610624   6.806   0.961   4.383  0.4392 -0.6195  1.0364
  104SAPE  H16R10625   6.730   1.043   4.388  0.8797 -0.1208 -0.1188
  104SAPE  H16S10626   6.883   0.981   4.460 -0.3620  0.7470  1.5178
  104SAPE  C21710627   6.738   0.838   4.441  0.0560 -0.8798  0.6922
  104SAPE  H17R10628   6.814   0.759   4.462 -0.2210 -1.5824 -0.8317
  104SAPE  H17S10629   6.667   0.798   4.365 -1.2650  2.0179  0.2805
  104SAPE  C21810630   6.662   0.861   4.574 -0.4362  0.9990  0.2975
  104SAPE  H18R10631   6.597   0.950   4.565 -1.5183  0.1959 -0.0205
  104SAPE  H18S10632   6.741   0.889   4.647  0.7649  0.0987 -0.6145
  104SAPE  C21910633   6.569   0.752   4.614  0.1911 -0.1300  0.1098
  104SAPE  H19R10634   6.620   0.654   4.606 -0.6105 -0.4462 -1.6236
  104SAPE  H19S10635   6.486   0.754   4.541  1.1924 -1.9324 -1.1744
  104SAPE  C22010636   6.517   0.778   4.758 -0.2916  0.5300 -0.5932
  104SAPE  H20R10637   6.577   0.752   4.848 -0.5745  0.0869 -0.5304
  104SAPE  H20S10638   6.414   0.742   4.779 -0.3649  2.1384  2.4304
  104SAPE  H20T10639   6.502   0.888   4.772 -1.6241  0.1700  1.3182
  104SAPE   C3310640   5.838   1.397   3.454  0.2009 -0.9464 -0.1459
  104SAPE   H3X10641   5.787   1.494   3.440  0.8535 -0.6226 -0.3078
  104SAPE   H3Y10642   5.947   1.412   3.470 -0.0923 -1.0244  2.2795
  104SAPE   C3410643   5.787   1.325   3.573 -0.1926  0.9156  0.4419
  104SAPE   H4X10644   5.699   1.258   3.560  0.1463  0.7330 -1.2003
  104SAPE   H4Y10645   5.757   1.408   3.640 -1.6551  0.4439  0.3938
  104SAPE   C3510646   5.896   1.244   3.653  0.3177 -0.0501 -0.7895
  104SAPE   H5X10647   5.964   1.321   3.696  0.7862 -0.8201 -0.1261
  104SAPE   H5Y10648   5.950   1.172   3.589 -1.3150 -1.6420 -0.4421
  104SAPE   C3610649   5.830   1.158   3.766  0.7887 -0.5515 -0.0744
  104SAPE   H6X10650   5.756   1.098   3.709  0.5615  1.6262 -2.2397
  104SAPE   H6Y10651   5.782   1.235   3.830 -1.7010 -0.7749 -1.5452
  104SAPE   C3710652   5.926   1.077   3.845  0.2444  1.1759  0.0751
  104SAPE   H7X10653   6.017   1.139   3.859  0.2672  1.8989 -2.6903
  104SAPE   H7Y10654   5.961   0.990   3.786  1.4738  2.3744 -1.0234
  104SAPE   C3810655   5.868   1.036   3.981 -0.2486 -0.2463  0.4378
  104SAPE   H8X10656   5.786   0.963   3.961 -0.1727 -0.3320  0.4401
  104SAPE   H8Y10657   5.825   1.131   4.019 -0.5421 -0.8092  1.5471
  104SAPE   C3910658   5.958   0.982   4.090 -0.1442 -0.4127 -0.5280
  104SAPE   H9X10659   6.020   0.900   4.048  2.9976  1.1597  0.6899
  104SAPE   H9Y10660   5.900   0.941   4.176 -1.5249 -2.3964 -2.3134
  104SAPE  C31010661   6.051   1.099   4.138 -0.5171  0.8636 -0.5346
  104SAPE  H10X10662   6.062   1.182   4.064  2.4570  0.7958 -0.3068
  104SAPE  H10Y10663   6.151   1.056   4.163 -1.0239 -0.2291 -0.3691
  104SAPE  C31110664   5.993   1.145   4.272 -0.4410  0.1036 -0.1840
  104SAPE  H11X10665   5.971   1.055   4.332 -1.0850 -1.1584 -2.2184
  104SAPE  H11Y10666   5.897   1.198   4.256 -0.1870  0.4002 -0.7813
  104SAPE  C31210667   6.091   1.226   4.360 -0.5091 -0.0142  0.1361
  104SAPE  H12X10668   6.093   1.335   4.342  1.9139 -0.1177 -0.7280
  104SAPE  H12Y10669   6.195   1.199   4.331 -1.1701 -2.5556 -0.1211
  104SAPE  C31310670   6.064   1.187   4.509  0.2852  0.6907 -0.1945
  104SAPE  H13X10671   6.074   1.078   4.527 -0.3505  0.7951  0.8748
  104SAPE  H13Y10672   5.957   1.211   4.528 -0.5122 -1.0389 -2.1111
  104SAPE  C31410673   6.152   1.262   4.612  0.0049  0.0238 -0.1973
  104SAPE  H14X10674   6.150   1.368   4.580 -0.8315 -0.3269 -1.4075
  104SAPE  H14Y10675   6.257   1.226   4.615  0.0855  0.3081  1.0817
  104SAPE  C31510676   6.088   1.265   4.748  0.1093 -0.2791 -0.2077
  104SAPE  H15X10677   6.102   1.164   4.792 -0.5815 -1.3959 -2.3847
  104SAPE  H15Y10678   5.979   1.283   4.737  0.2903  1.8964  1.1233
  104SAPE  C31610679   6.166   1.365   4.847  0.1218 -0.2895 -0.1097
  104SAPE  H16X10680   6.208   1.450   4.789 -0.2071  1.1117  1.6472
  104SAPE  H16Y10681   6.243   1.309   4.905  0.4485 -0.2477 -0.4962
  104SAPE  C31710682   6.072   1.407   4.962  0.3978 -0.7018  0.5770
  104SAPE  H17X10683   5.977   1.438   4.914 -0.0676 -0.1610  1.8091
  104SAPE  H17Y10684   6.115   1.499   5.008  0.0534 -1.4741  2.5634
  104SAPE  C31810685   6.045   1.298   5.073 -0.8414 -0.0551  0.0302
  104SAPE  H18X10686   6.149   1.289   5.112 -0.1958  1.8757 -1.1176
  104SAPE  H18Y10687   5.999   1.210   5.023  0.7372 -0.3541 -0.9576
  104SAPE  H18Z10688   5.977   1.344   5.147 -1.2713  0.5271 -0.7218
  105SAPE     N10689   1.999   6.559   2.176  0.0793  0.3692 -0.0915
  105SAPE   HN110690   2.026   6.500   2.257 -2.0113  1.5688  1.6047
  105SAPE   HN210691   2.035   6.535   2.081  0.7841  0.1622  0.2206
  105SAPE   HN310692   2.047   6.651   2.190 -1.2317  0.9491  0.7445
  105SAPE   C1210693   1.850   6.589   2.155  0.0256  0.3957 -0.5466
  105SAPE  H12A10694   1.805   6.488   2.155 -0.7597  0.7231  0.8662
  105SAPE  H12B10695   1.832   6.634   2.055 -0.0484 -0.3491 -0.8707
  105SAPE   C1110696   1.788   6.676   2.268  0.1056 -0.2190 -0.8599
  105SAPE  H11A10697   1.816   6.632   2.366 -2.9782 -2.2070 -0.7346
  105SAPE  H11B10698   1.677   6.676   2.269  0.0476  1.6957  1.2243
  105SAPE     P10699   1.971   6.878   2.291  0.4585  0.2328  0.1931
  105SAPE   O1310700   2.058   6.841   2.177 -0.4860  0.9505  0.1493
  105SAPE   O1410701   1.948   7.023   2.316  0.0977 -0.1056  0.2330
  105SAPE   O1210702   1.835   6.810   2.264  0.6520  0.5476  0.2114
  105SAPE   O1110703   2.025   6.807   2.421 -0.1071 -0.3790  0.6638
  105SAPE    C110704   1.967   6.799   2.551  0.2824 -0.0849 -0.2366
  105SAPE    HA10705   1.857   6.811   2.552  0.3352  0.3434  0.2538
  105SAPE    HB10706   1.995   6.699   2.591 -0.8403  0.1655  1.2428
  105SAPE    C210707   2.038   6.908   2.644  0.2491 -0.1179 -0.0577
  105SAPE    HS10708   2.016   7.009   2.604 -0.9939  0.0472  0.9690
  105SAPE   O2110709   2.177   6.886   2.637  0.1879 -0.3962  0.2881
  105SAPE   C2110710   2.248   6.984   2.686 -0.5504 -0.4446 -0.4151
  105SAPE   O2210711   2.209   7.090   2.724 -0.6253 -1.1836 -0.1097
  105SAPE   C2210712   2.393   6.926   2.704 -0.1435  0.2360 -0.2475
  105SAPE   H2R10713   2.391   6.824   2.660  3.5311 -0.2139  0.2822
  105SAPE   H2S10714   2.453   6.993   2.639 -1.0502  1.0222 -0.3044
  105SAPE    C310715   1.978   6.908   2.787  0.4135 -0.3583  0.4371
  105SAPE    HX10716   2.024   6.989   2.847 -0.5681 -0.5324  1.4578
  105SAPE    HY10717   2.001   6.813   2.839  1.4673 -1.3645 -1.6999
  105SAPE   O3110718   1.839   6.933   2.792  0.2788 -0.2071 -0.2271
  105SAPE   C3110719   1.789   7.051   2.752 -0.1932 -0.2373 -0.3151
  105SAPE   O3210720   1.859   7.143   2.705  0.3426 -0.1288 -0.1860
  105SAPE   C3210721   1.638   7.056   2.779 -0.4316 -0.6996 -0.1170
  105SAPE   H2X10722   1.586   6.959   2.761  0.1595 -0.6052 -2.6943
  105SAPE   H2Y10723   1.598   7.132   2.709  0.0242 -0.0121  0.3526
  105SAPE   C2310724   2.452   6.938   2.841 -0.1728  0.4193 -0.0569
  105SAPE   H3R10725   2.440   7.039   2.884 -0.9618  0.1692  0.3379
  105SAPE   H3S10726   2.562   6.942   2.849  0.0088 -0.9428 -1.3654
  105SAPE   C2410727   2.390   6.831   2.941  0.1931  0.2435  0.4524
  105SAPE   H4R10728   2.426   6.731   2.909 -2.4939 -0.1894 -1.6471
  105SAPE   H4S10729   2.282   6.817   2.918  0.2128 -1.0389  1.0987
  105SAPE   C2510730   2.398   6.848   3.094 -0.3708  0.6717 -0.0213
  105SAPE   H5R10731   2.482   6.792   3.137  0.9404  1.8272 -0.9897
  105SAPE   C2610732   2.321   6.924   3.172  0.4772 -0.2907 -0.5343
  105SAPE   H6R10733   2.338   6.930   3.281 -0.4255  0.4082 -0.4245
  105SAPE   C2710734   2.199   7.012   3.131 -0.3809 -0.5629 -0.4118
  105SAPE   H7R10735   2.144   7.044   3.222  0.0872  1.1979 -0.7002
  105SAPE   H7S10736   2.128   6.952   3.069 -0.0183  0.0469 -1.4389
  105SAPE   C2810737   2.237   7.136   3.055  0.1404 -0.3398 -0.0277
  105SAPE   H8R10738   2.193   7.139   2.954  0.8891  0.3649 -0.3488
  105SAPE   C2910739   2.301   7.253   3.105  0.0397  0.4227  0.1216
  105SAPE   H9R10740   2.322   7.332   3.032  3.0463  1.3593  1.8211
  105SAPE  C21010741   2.354   7.284   3.240  0.4556  1.1200 -0.6163
  105SAPE  H10R10742   2.464   7.292   3.249  0.7980 -0.0354 -3.0907
  105SAPE  H10S10743   2.334   7.190   3.296  0.4029  1.3354 -0.2698
  105SAPE  C21110744   2.294   7.407   3.306  1.0130 -0.2793 -0.2168
  105SAPE  H11R10745   2.304   7.503   3.254  1.6059  0.5570  1.3754
  105SAPE  C21210746   2.230   7.405   3.424  0.4493 -0.4306 -0.2152
  105SAPE  H12R10747   2.198   7.500   3.470 -1.2469 -1.2336  0.3363
  105SAPE  C21310748   2.190   7.283   3.499  0.0459 -1.0245  0.2691
  105SAPE  H13R10749   2.192   7.192   3.435 -0.7729 -0.5847 -0.3958
  105SAPE  H13S10750   2.083   7.284   3.530 -0.8311  2.1144 -2.3175
  105SAPE  C21410751   2.291   7.292   3.607 -0.1148  0.6618 -0.2910
  105SAPE  H14R10752   2.399   7.279   3.586 -0.0503  1.7955 -0.7888
  105SAPE  C21510753   2.260   7.327   3.733  0.5015 -0.6173 -0.1107
  105SAPE  H15R10754   2.343   7.344   3.803  2.3171  1.2146 -2.4905
  105SAPE  C21610755   2.126   7.350   3.803  0.7905  0.3559 -0.0573
  105SAPE  H16R10756   2.033   7.329   3.746 -0.8216  2.1003  1.7552
  105SAPE  H16S10757   2.103   7.455   3.831  2.7088  0.8566 -0.1996
  105SAPE  C21710758   2.121   7.251   3.924 -0.0169 -0.0566  1.1473
  105SAPE  H17R10759   2.203   7.282   3.991 -0.9574  0.6725  1.9970
  105SAPE  H17S10760   2.137   7.149   3.884 -0.1262  1.1973 -2.4625
  105SAPE  C21810761   1.986   7.242   3.990  0.1967 -0.3475 -0.2025
  105SAPE  H18R10762   1.995   7.148   4.048 -0.6435  0.1806  0.8245
  105SAPE  H18S10763   1.897   7.238   3.924  0.3588  2.4659 -0.7510
  105SAPE  C21910764   1.956   7.349   4.097  0.4282  0.0825 -0.4366
  105SAPE  H19R10765   1.912   7.441   4.052 -1.0719  0.3484  1.4531
  105SAPE  H19S10766   2.053   7.383   4.140 -0.8422  2.6124  0.6895
  105SAPE  C22010767   1.864   7.304   4.213  0.3800 -0.2739 -0.2582
  105SAPE  H20R10768   1.923   7.231   4.273 -0.5002 -1.6336 -1.0000
  105SAPE  H20S10769   1.772   7.256   4.173 -0.2022  1.0186 -0.5232
  105SAPE  H20T10770   1.840   7.395   4.273 -1.4016 -1.9548  1.7199
  105SAPE   C3310771   1.611   7.103   2.929  1.0306 -0.5914 -0.2738
  105SAPE   H3X10772   1.506   7.137   2.944  1.5172  0.4445  1.0868
  105SAPE   H3Y10773   1.676   7.193   2.942 -1.9445  1.6062  0.6717
  105SAPE   C3410774   1.643   6.996   3.026  0.2529 -0.5742 -0.1393
  105SAPE   H4X10775   1.735   6.944   2.993  0.3774 -0.6065  0.2501
  105SAPE   H4Y10776   1.566   6.916   3.027 -0.9476  0.5472  0.9468
  105SAPE   C3510777   1.672   7.046   3.173 -0.4392  0.3422  0.0501
  105SAPE   H5X10778   1.669   6.960   3.244  1.0470 -0.3650 -0.6966
  105SAPE   H5Y10779   1.594   7.119   3.201 -0.1154  0.2811  1.1967
  105SAPE   C3610780   1.809   7.103   3.196  0.2428 -0.0004 -0.0870
  105SAPE   H6X10781   1.829   7.178   3.117  0.2594 -0.0471 -0.1270
  105SAPE   H6Y10782   1.893   7.032   3.184  1.3893  1.2457  0.4153
  105SAPE   C3710783   1.821   7.184   3.330  0.7033 -0.0583  0.5472
  105SAPE   H7X10784   1.773   7.282   3.309 -1.5820 -1.3386 -0.6758
  105SAPE   H7Y10785   1.929   7.204   3.345  0.4776  1.0730  0.7041
  105SAPE   C3810786   1.766   7.110   3.458  0.5185 -0.5991 -0.5482
  105SAPE   H8X10787   1.841   7.034   3.488 -1.0957 -2.8109 -1.8330
  105SAPE   H8Y10788   1.661   7.079   3.437  0.0788  0.2375  0.3066
  105SAPE   C3910789   1.756   7.211   3.580 -0.9363 -0.4942 -0.4561
  105SAPE   H9X10790   1.693   7.301   3.563  1.6628  1.4048 -0.6345
  105SAPE   H9Y10791   1.861   7.245   3.585 -0.1979 -2.4281 -1.5051
  105SAPE  C31010792   1.719   7.125   3.711 -0.3342 -0.0933 -0.2260
  105SAPE  H10X10793   1.807   7.112   3.776  0.4900 -0.6641 -1.4116
  105SAPE  H10Y10794   1.660   7.036   3.679 -1.9777  1.2726 -1.1594
  105SAPE  C31110795   1.612   7.197   3.799 -0.0638  0.2722 -0.2389
  105SAPE  H11X10796   1.511   7.194   3.753 -0.6819 -2.4315  1.1014
  105SAPE  H11Y10797   1.641   7.303   3.791  0.9198 -0.1551 -4.7857
  105SAPE  C31210798   1.586   7.149   3.942  0.0155  0.5016 -0.9206
  105SAPE  H12X10799   1.689   7.151   3.984 -0.0028 -0.1997 -0.8192
  105SAPE  H12Y10800   1.545   7.045   3.944 -2.1120  1.2981 -0.4125
  105SAPE  C31310801   1.491   7.239   4.023  0.4349 -0.5043 -0.1621
  105SAPE  H13X10802   1.389   7.241   3.979 -0.2096 -0.4090  1.2653
  105SAPE  H13Y10803   1.524   7.344   4.014  2.5099 -0.9660  1.2969
  105SAPE  C31410804   1.471   7.200   4.174 -0.1127  0.6382  0.4990
  105SAPE  H14X10805   1.564   7.223   4.229  0.2762  2.8660 -0.9321
  105SAPE  H14Y10806   1.460   7.090   4.161  4.0512  0.1870 -0.4824
  105SAPE  C31510807   1.347   7.254   4.244 -0.0912  0.4574  0.3175
  105SAPE  H15X10808   1.343   7.180   4.327  1.6741 -0.7084 -0.5788
  105SAPE  H15Y10809   1.248   7.249   4.195 -0.2264  0.1679  0.6113
  105SAPE  C31610810   1.366   7.394   4.301 -0.3235  0.5316  0.1099
  105SAPE  H16X10811   1.410   7.457   4.221  1.1283 -0.2634  0.2496
  105SAPE  H16Y10812   1.442   7.383   4.382  0.5115 -0.3753 -0.7758
  105SAPE  C31710813   1.240   7.460   4.368  0.0554 -0.3934 -0.1429
  105SAPE  H17X10814   1.259   7.557   4.417 -3.6070  0.2949  0.1270
  105SAPE  H17Y10815   1.204   7.386   4.442  1.3596 -1.2958 -0.3700
  105SAPE  C31810816   1.124   7.489   4.273 -0.0476 -0.4845  0.0031
  105SAPE  H18X10817   1.040   7.532   4.331  1.0671  1.3254  0.3485
  105SAPE  H18Y10818   1.085   7.406   4.210  1.2991 -0.6485 -0.6653
  105SAPE  H18Z10819   1.156   7.573   4.208  1.0673 -1.0777 -0.2544
  106SAPE     N10820   2.653   2.314   2.542  0.0640  0.1235  0.3795
  106SAPE   HN110821   2.640   2.354   2.447 -0.3608  2.4410  1.3444
  106SAPE   HN210822   2.747   2.344   2.575 -0.1481 -0.4629  1.5994
  106SAPE   HN310823   2.641   2.211   2.534 -2.3856  0.4267 -0.5006
  106SAPE   C1210824   2.567   2.368   2.651  0.7552 -0.4521 -0.4132
  106SAPE  H12A10825   2.567   2.314   2.748 -2.4326 -2.5409 -1.4182
  106SAPE  H12B10826   2.467   2.335   2.617  0.5030  1.0650 -1.1899
  106SAPE   C1110827   2.585   2.517   2.674  0.1551  0.1225 -0.2075
  106SAPE  H11A10828   2.489   2.551   2.718 -0.1490 -0.9037 -0.0737
  106SAPE  H11B10829   2.603   2.568   2.576  0.5203  0.8408  0.2217
  106SAPE     P10830   2.843   2.532   2.734 -0.5554  0.4546  0.1069
  106SAPE   O1310831   2.882   2.435   2.629  0.1713  0.2129  0.5695
  106SAPE   O1410832   2.880   2.674   2.718  0.1445  0.5856  0.2026
  106SAPE   O1210833   2.692   2.532   2.771 -0.3131  0.0204 -0.3454
  106SAPE   O1110834   2.912   2.484   2.869 -0.4654  0.3140 -0.1582
  106SAPE    C110835   2.909   2.566   2.984  0.2711  0.0688 -0.7084
  106SAPE    HA10836   2.866   2.666   2.966  0.9337  0.0930 -2.2122
  106SAPE    HB10837   2.841   2.509   3.052 -0.2407  1.2777 -0.1847
  106SAPE    C210838   3.053   2.569   3.048  0.0086  0.3966 -1.3523
  106SAPE    HS10839   3.117   2.597   2.961  0.1565 -0.4236 -1.5209
  106SAPE   O2110840   3.084   2.433   3.102 -0.5185 -0.3948  0.2399
  106SAPE   C2110841   3.137   2.350   3.025  0.1879 -0.3028  1.2929
  106SAPE   O2210842   3.179   2.373   2.909  0.4142  0.8946  0.1019
  106SAPE   C2210843   3.137   2.207   3.086  0.3576  0.2402  0.7360
  106SAPE   H2R10844   3.040   2.185   3.135 -0.6399 -0.6607 -1.4953
  106SAPE   H2S10845   3.125   2.139   2.998  0.4806  0.9240  0.1791
  106SAPE    C310846   3.054   2.670   3.165 -1.1607  0.0589  0.4099
  106SAPE    HX10847   3.029   2.769   3.121  0.9982  1.0771  1.3255
  106SAPE    HY10848   3.162   2.657   3.188 -1.0074 -1.6959 -1.0059
  106SAPE   O3110849   2.959   2.638   3.264  0.2028 -0.3862  0.1951
  106SAPE   C3110850   3.001   2.654   3.382  0.0325  0.1978  0.3372
  106SAPE   O3210851   3.106   2.704   3.417  0.7064  0.1758 -0.4546
  106SAPE   C3210852   2.881   2.602   3.470  0.2481 -0.1870 -0.1122
  106SAPE   H2X10853   2.846   2.504   3.431 -0.4098  0.1588 -0.3944
  106SAPE   H2Y10854   2.801   2.677   3.455  0.4374  0.4499  1.7633
  106SAPE   C2310855   3.257   2.179   3.173 -0.2846 -0.0245  0.6351
  106SAPE   H3R10856   3.355   2.228   3.154 -1.5966  2.5220  0.0631
  106SAPE   H3S10857   3.276   2.069   3.174 -0.2856 -0.0502 -0.6571
  106SAPE   C2410858   3.217   2.197   3.317  0.6474  0.2912 -0.1375
  106SAPE   H4R10859   3.278   2.126   3.375  1.0836  0.2789 -0.6077
  106SAPE   H4S10860   3.109   2.171   3.329  0.5592  0.1871 -1.0799
  106SAPE   C2510861   3.223   2.342   3.356  0.3450  0.2119  0.1729
  106SAPE   H5R10862   3.238   2.420   3.280  1.3632 -0.3788 -0.2661
  106SAPE   C2610863   3.221   2.378   3.485 -0.3503 -0.3352 -0.5811
  106SAPE   H6R10864   3.229   2.486   3.505  1.2023  0.0078 -2.7232
  106SAPE   C2710865   3.214   2.281   3.602  0.0118 -0.2222  0.1775
  106SAPE   H7R10866   3.159   2.189   3.571 -2.8564  0.9048  1.5862
  106SAPE   H7S10867   3.152   2.323   3.684  0.2857 -1.1266  0.8563
  106SAPE   C2810868   3.355   2.253   3.641  0.0727 -0.5374 -0.6699
  106SAPE   H8R10869   3.434   2.261   3.565 -1.4437  4.1486 -2.0533
  106SAPE   C2910870   3.395   2.236   3.768 -0.7743 -0.2507  1.1108
  106SAPE   H9R10871   3.502   2.219   3.785  0.1689  3.8183  0.3059
  106SAPE  C21010872   3.318   2.264   3.894  0.1199 -0.2426  0.1708
  106SAPE  H10R10873   3.225   2.317   3.867 -0.1622 -1.5007 -1.5374
  106SAPE  H10S10874   3.382   2.319   3.966 -0.7734  1.1975 -0.1134
  106SAPE  C21110875   3.259   2.141   3.967 -0.1776 -0.3541 -0.5348
  106SAPE  H11R10876   3.247   2.051   3.905  4.2262 -1.4697 -0.0961
  106SAPE  C21210877   3.190   2.142   4.082  0.2247  0.0545 -0.0396
  106SAPE  H12R10878   3.146   2.046   4.112 -0.9744  0.3501 -0.7802
  106SAPE  C21310879   3.154   2.262   4.168  0.1925 -0.0894 -0.2658
  106SAPE  H13R10880   3.104   2.341   4.108  3.2316  1.7908 -0.5236
  106SAPE  H13S10881   3.247   2.310   4.207 -0.0953  1.2186 -1.1060
  106SAPE  C21410882   3.068   2.225   4.286  0.4772 -0.0927  0.2837
  106SAPE  H14R10883   3.082   2.128   4.335 -1.8442 -0.4635  0.3589
  106SAPE  C21510884   2.988   2.314   4.353 -0.1868 -0.3476 -0.0547
  106SAPE  H15R10885   2.947   2.278   4.449  2.1414  0.5499  1.3595
  106SAPE  C21610886   2.940   2.449   4.324  0.4627  0.5231 -0.0473
  106SAPE  H16R10887   2.830   2.454   4.308  0.1697 -0.8218  1.2654
  106SAPE  H16S10888   2.999   2.495   4.243 -0.9828  2.8092  0.1192
  106SAPE  C21710889   2.951   2.538   4.447  0.7852  0.5773  0.6256
  106SAPE  H17R10890   2.910   2.636   4.415  1.5652  0.4410 -0.8944
  106SAPE  H17S10891   3.059   2.547   4.472  1.5974 -2.2304 -1.3953
  106SAPE  C21810892   2.867   2.506   4.575 -0.7604 -0.0277 -0.6046
  106SAPE  H18R10893   2.909   2.579   4.647  1.9521 -1.0461 -1.0372
  106SAPE  H18S10894   2.886   2.401   4.605 -1.1335 -0.0876 -0.5689
  106SAPE  C21910895   2.715   2.540   4.558 -0.0692  0.0567  0.4985
  106SAPE  H19R10896   2.679   2.486   4.467 -0.0693 -0.6817  0.9254
  106SAPE  H19S10897   2.716   2.648   4.535  1.1306  0.5891  2.7725
  106SAPE  C22010898   2.617   2.509   4.665  0.1268 -0.5412 -0.0926
  106SAPE  H20R10899   2.511   2.530   4.638  0.1462 -2.0643 -1.5194
  106SAPE  H20S10900   2.641   2.549   4.766 -2.8511 -1.5846  1.1705
  106SAPE  H20T10901   2.616   2.400   4.687  0.9893 -0.5897 -0.2794
  106SAPE   C3310902   2.910   2.588   3.616  0.4780 -0.2110  0.5868
  106SAPE   H3X10903   2.978   2.672   3.644 -0.5314  0.4156  1.2179
  106SAPE   H3Y10904   2.965   2.492   3.629 -0.3267 -0.6708  0.6625
  106SAPE   C3410905   2.777   2.580   3.699  0.3072  0.0893  0.6716
  106SAPE   H4X10906   2.713   2.495   3.669  1.3904 -1.1471  1.7180
  106SAPE   H4Y10907   2.714   2.671   3.704  0.2399  0.0705  0.2602
  106SAPE   C3510908   2.816   2.572   3.850  0.1276  0.5198 -0.2391
  106SAPE   H5X10909   2.888   2.653   3.874  0.2166  0.1440  0.8393
  106SAPE   H5Y10910   2.870   2.477   3.870  2.0959  1.3051 -1.5627
  106SAPE   C3610911   2.693   2.580   3.940 -0.2787 -0.0703  0.2579
  106SAPE   H6X10912   2.620   2.502   3.909 -2.1030  1.9727 -0.8803
  106SAPE   H6Y10913   2.634   2.673   3.927  0.1243  0.4207  1.7653
  106SAPE   C3710914   2.738   2.580   4.083  0.6939  0.8577  0.4586
  106SAPE   H7X10915   2.803   2.669   4.096  1.2388  1.2063 -3.4912
  106SAPE   H7Y10916   2.789   2.485   4.108 -1.4450 -0.2402  0.8916
  106SAPE   C3810917   2.614   2.586   4.171 -0.3188  0.3004 -0.5472
  106SAPE   H8X10918   2.538   2.662   4.144 -0.7823 -0.4788 -1.4932
  106SAPE   H8Y10919   2.649   2.613   4.273 -0.7693 -0.5698 -0.1461
  106SAPE   C3910920   2.538   2.452   4.180 -0.2010  0.3140 -0.3382
  106SAPE   H9X10921   2.612   2.379   4.220 -1.2869  0.1854  1.5764
  106SAPE   H9Y10922   2.497   2.428   4.080 -1.2892  1.2906 -0.1490
  106SAPE  C31010923   2.419   2.454   4.283 -0.2094 -0.1920 -0.4590
  106SAPE  H10X10924   2.333   2.508   4.239 -0.0123  1.3215  0.8976
  106SAPE  H10Y10925   2.453   2.519   4.367 -0.1390 -0.9063  0.0744
  106SAPE  C31110926   2.373   2.319   4.331 -0.1469 -0.8020  0.4379
  106SAPE  H11X10927   2.344   2.336   4.437  1.5870 -0.4495  0.8800
  106SAPE  H11Y10928   2.464   2.256   4.331  0.3170 -0.1918 -1.4242
  106SAPE  C31210929   2.260   2.264   4.240 -0.7315  0.1171  0.7205
  106SAPE  H12X10930   2.305   2.246   4.140  0.2961  2.1124  0.7673
  106SAPE  H12Y10931   2.177   2.338   4.235 -1.5046 -0.6839  1.2680
  106SAPE  C31310932   2.207   2.127   4.294 -0.3238  0.1792  0.0076
  106SAPE  H13X10933   2.297   2.064   4.311 -1.0661 -0.3915  2.1613
  106SAPE  H13Y10934   2.145   2.091   4.209  0.8657  0.3543 -0.9727
  106SAPE  C31410935   2.117   2.135   4.419 -0.4167  0.5549 -0.2274
  106SAPE  H14X10936   2.021   2.181   4.385  0.1939  1.0208 -1.3586
  106SAPE  H14Y10937   2.148   2.212   4.492 -1.7239  2.6137 -1.7165
  106SAPE  C31510938   2.088   1.997   4.478  0.1200  0.1280 -0.4956
  106SAPE  H15X10939   2.173   1.930   4.499 -1.6445 -1.2935  2.7783
  106SAPE  H15Y10940   2.019   1.938   4.414 -0.1591 -0.5991  0.4684
  106SAPE  C31610941   2.021   2.014   4.618 -0.0757  0.2046 -0.2522
  106SAPE  H16X10942   1.924   2.067   4.608 -0.8999 -0.6883  2.2248
  106SAPE  H16Y10943   2.088   2.077   4.680 -0.3733  2.0420 -1.7294
  106SAPE  C31710944   2.006   1.876   4.690 -0.4342 -0.2514  0.9184
  106SAPE  H17X10945   1.957   1.809   4.616 -0.7372  0.3528  0.5742
  106SAPE  H17Y10946   1.937   1.871   4.777 -1.9014 -2.4592 -0.2501
  106SAPE  C31810947   2.143   1.824   4.736  0.3526  0.7529 -0.5348
  106SAPE  H18X10948   2.228   1.824   4.664 -1.2538  0.9605 -2.5337
  106SAPE  H18Y10949   2.129   1.724   4.781  1.2399  0.9866  0.2945
  106SAPE  H18Z10950   2.180   1.897   4.811  0.1856  0.8477 -0.5429
  107SAPE     N10951   0.037   4.962   2.321 -0.1555 -0.2404 -0.7923
  107SAPE   HN110952   0.060   4.863   2.344  1.1894  0.3433  0.5970
  107SAPE   HN210953  -0.033   4.966   2.244  1.1332  3.0734 -1.9895
  107SAPE   HN310954   0.117   5.019   2.288 -0.4613  1.8894  1.8029
  107SAPE   C1210955  -0.025   5.028   2.444 -0.2885 -0.2379  0.2250
  107SAPE  H12A10956  -0.061   5.128   2.413 -0.9111 -0.8030 -0.9438
  107SAPE  H12B10957   0.048   5.024   2.528  1.8228  0.4768 -1.4737
  107SAPE   C1110958  -0.156   4.951   2.489 -0.5450  0.0928  0.6049
  107SAPE  H11A10959  -0.201   5.018   2.565  0.0047  0.0299  0.9955
  107SAPE  H11B10960  -0.122   4.856   2.535 -1.1419 -1.0762 -1.2838
  107SAPE     P10961  -0.384   4.979   2.346  0.5196  0.0652 -0.0598
  107SAPE   O1310962  -0.362   5.108   2.278 -0.2513  0.3749 -0.3326
  107SAPE   O1410963  -0.479   4.890   2.275 -0.1379 -0.7673 -0.4619
  107SAPE   O1210964  -0.241   4.914   2.379 -0.1806  0.1302  0.2000
  107SAPE   O1110965  -0.445   5.006   2.490 -0.2617  0.0239 -0.2769
  107SAPE    C110966  -0.572   4.948   2.518 -0.3133  0.8954  0.1760
  107SAPE    HA10967  -0.648   5.009   2.465 -0.0168  1.1943  0.0911
  107SAPE    HB10968  -0.578   4.844   2.478 -0.7056  0.9328  0.1362
  107SAPE    C210969  -0.611   4.944   2.670 -0.3490 -0.2758 -0.0380
  107SAPE    HS10970  -0.708   4.889   2.675 -0.6005  0.2331  0.7838
  107SAPE   O2110971  -0.615   5.076   2.725  0.7108  0.0328  0.6646
  107SAPE   C2110972  -0.733   5.135   2.704  0.4283  0.0288 -0.8278
  107SAPE   O2210973  -0.833   5.088   2.653  0.3497 -0.0638 -0.1265
  107SAPE   C2210974  -0.726   5.275   2.774  0.0167  0.1427  0.0937
  107SAPE   H2R10975  -0.648   5.257   2.851  0.5714 -0.7886 -0.6602
  107SAPE   H2S10976  -0.689   5.349   2.700 -0.8619 -0.6045 -1.1370
  107SAPE    C310977  -0.508   4.856   2.741  0.5865 -0.1910  0.1141
  107SAPE    HX10978  -0.406   4.898   2.732 -0.6193  3.2944  1.3324
  107SAPE    HY10979  -0.505   4.755   2.694 -3.3037 -0.9830  1.1839
  107SAPE   O3110980  -0.545   4.838   2.881  0.2931  0.2167  0.1586
  107SAPE   C3110981  -0.450   4.786   2.967 -0.1333 -0.0709  0.8120
  107SAPE   O3210982  -0.338   4.747   2.936 -0.4834  0.0859  0.3560
  107SAPE   C3210983  -0.500   4.804   3.112 -0.2119  0.1001  0.0793
  107SAPE   H2X10984  -0.603   4.765   3.126 -0.6341 -0.2366 -3.2188
  107SAPE   H2Y10985  -0.490   4.913   3.130  0.0435  0.0650  0.1589
  107SAPE   C2310986  -0.853   5.318   2.842  0.1848 -0.7054  0.2245
  107SAPE   H3R10987  -0.874   5.244   2.922  2.2685 -0.0156  1.4788
  107SAPE   H3S10988  -0.933   5.310   2.765  0.0879  0.3290  0.2008
  107SAPE   C2410989  -0.838   5.466   2.885  0.5168  0.3108 -0.0200
  107SAPE   H4R10990  -0.936   5.499   2.924  0.4162  1.3449 -1.0867
  107SAPE   H4S10991  -0.828   5.532   2.796 -1.3173 -1.0062 -1.2906
  107SAPE   C2510992  -0.719   5.492   2.975 -0.3974 -0.0182 -0.4856
  107SAPE   H5R10993  -0.622   5.492   2.921 -1.2470  0.4255 -2.0797
  107SAPE   C2610994  -0.730   5.487   3.114 -0.0002 -0.5010 -0.4625
  107SAPE   H6R10995  -0.643   5.499   3.179  0.4506 -0.7533 -1.0115
  107SAPE   C2710996  -0.856   5.469   3.193  0.8447  0.1734  0.4777
  107SAPE   H7R10997  -0.844   5.411   3.287 -0.6156  0.5228  0.9123
  107SAPE   H7S10998  -0.925   5.404   3.135  1.4498  0.9550 -1.1621
  107SAPE   C2810999  -0.935   5.590   3.226  0.6442  0.6612  0.0878
  107SAPE   H8R11000  -0.915   5.666   3.149 -1.5836  0.8427 -0.3974
  107SAPE   C2911001  -1.022   5.619   3.326 -0.0799  0.8555 -0.3690
  107SAPE   H9R11002  -1.074   5.716   3.321  0.3481  1.0705 -0.7400
  107SAPE  C21011003  -1.054   5.539   3.452 -0.8833  0.2603  0.1525
  107SAPE  H10R11004  -1.073   5.431   3.433  0.3069 -0.0075  0.4097
  107SAPE  H10S11005  -1.147   5.581   3.495 -1.1709  1.7520 -1.7922
  107SAPE  C21111006  -0.943   5.539   3.560 -0.8846 -0.4438  0.4657
  107SAPE  H11R11007  -0.838   5.536   3.527 -1.2500 -2.1284 -0.7054
  107SAPE  C21211008  -0.963   5.544   3.691 -0.2242 -0.3378  0.0616
  107SAPE  H12R11009  -0.871   5.556   3.749 -0.5084  1.2586  0.2378
  107SAPE  C21311010  -1.102   5.555   3.758 -0.4692  0.4261 -0.4369
  107SAPE  H13R11011  -1.110   5.510   3.859 -3.2786  0.1537 -0.6952
  107SAPE  H13S11012  -1.176   5.495   3.701 -1.2536  1.3855 -0.4630
  107SAPE  C21411013  -1.161   5.695   3.759  0.6355  0.0844 -0.1580
  107SAPE  H14R11014  -1.166   5.739   3.658 -3.6975 -0.6923 -0.4858
  107SAPE  C21511015  -1.207   5.770   3.862  0.2479  0.5842 -0.7306
  107SAPE  H15R11016  -1.249   5.870   3.849 -0.2365  0.5445  0.4205
  107SAPE  C21611017  -1.212   5.721   4.011 -0.1440  0.0427  0.1296
  107SAPE  H16R11018  -1.123   5.770   4.057  0.1401  0.4842 -0.8783
  107SAPE  H16S11019  -1.200   5.610   4.010 -3.1923 -0.3602 -1.0050
  107SAPE  C21711020  -1.343   5.748   4.081 -0.4487 -0.9274  1.2769
  107SAPE  H17R11021  -1.411   5.671   4.040  2.1581 -2.8345  0.2588
  107SAPE  H17S11022  -1.372   5.851   4.051  2.5909  0.1685  1.6426
  107SAPE  C21811023  -1.317   5.750   4.232  0.7766  1.0112 -0.2152
  107SAPE  H18R11024  -1.223   5.797   4.266  1.3387 -1.4998  2.0034
  107SAPE  H18S11025  -1.296   5.641   4.236 -3.5197 -0.0424 -0.5874
  107SAPE  C21911026  -1.443   5.763   4.313  0.3434  0.4648 -0.0959
  107SAPE  H19R11027  -1.419   5.752   4.421  1.7290 -2.3251 -0.5972
  107SAPE  H19S11028  -1.514   5.681   4.288  2.1899 -1.5368  0.9469
  107SAPE  C22011029  -1.516   5.892   4.283 -0.5501  0.3138  1.0533
  107SAPE  H20R11030  -1.564   5.879   4.184  0.8442 -3.1765  0.6918
  107SAPE  H20S11031  -1.437   5.970   4.287  0.4217 -0.5637 -0.2666
  107SAPE  H20T11032  -1.583   5.913   4.369  0.6659  2.5821  1.5271
  107SAPE   C3311033  -0.401   4.733   3.212 -0.2964  0.1027  0.1855
  107SAPE   H3X11034  -0.298   4.733   3.171  0.6159 -0.2745  2.3200
  107SAPE   H3Y11035  -0.426   4.626   3.194  1.1262 -0.1275 -0.5965
  107SAPE   C3411036  -0.418   4.771   3.361  0.0313  0.0625  0.3336
  107SAPE   H4X11037  -0.408   4.882   3.355 -1.0870  0.1957  0.7172
  107SAPE   H4Y11038  -0.335   4.730   3.422 -0.1870  0.2309  0.7451
  107SAPE   C3511039  -0.554   4.743   3.418  0.2967 -0.4693 -0.4763
  107SAPE   H5X11040  -0.572   4.633   3.425  1.6598 -0.6055  1.8715
  107SAPE   H5Y11041  -0.635   4.792   3.359  0.3899 -0.2998 -0.4627
  107SAPE   C3611042  -0.552   4.798   3.562 -0.0800  0.1722  0.3761
  107SAPE   H6X11043  -0.546   4.909   3.567  2.0382  0.0708  1.3249
  107SAPE   H6Y11044  -0.455   4.757   3.598  0.9019  1.5883 -0.5633
  107SAPE   C3711045  -0.664   4.743   3.649 -0.4365  1.1198  0.2269
  107SAPE   H7X11046  -0.642   4.637   3.673 -0.8026  0.1111 -3.3160
  107SAPE   H7Y11047  -0.762   4.741   3.597  0.5793 -1.8826 -1.8709
  107SAPE   C3811048  -0.688   4.832   3.773  0.4359  0.0126  0.0339
  107SAPE   H8X11049  -0.769   4.791   3.836  0.4499  1.3484  0.9533
  107SAPE   H8Y11050  -0.721   4.933   3.742  2.0468  0.2987 -0.8573
  107SAPE   C3911051  -0.569   4.841   3.861 -0.2147 -0.4964 -0.5272
  107SAPE   H9X11052  -0.502   4.920   3.822 -1.5166  1.9067  1.7409
  107SAPE   H9Y11053  -0.510   4.747   3.856 -1.1396 -1.0365 -3.2495
  107SAPE  C31011054  -0.598   4.901   4.006 -0.0844 -0.5478 -0.1650
  107SAPE  H10X11055  -0.648   4.999   3.990  1.6193  0.3300 -0.3038
  107SAPE  H10Y11056  -0.501   4.895   4.059 -0.0490 -0.3650 -0.2073
  107SAPE  C31111057  -0.701   4.825   4.098 -0.1104 -0.4330 -0.2730
  107SAPE  H11X11058  -0.675   4.717   4.092 -2.2929 -0.9303 -1.7878
  107SAPE  H11Y11059  -0.801   4.844   4.054  0.3355  0.6639 -0.8746
  107SAPE  C31211060  -0.706   4.871   4.249 -0.5538 -0.2102 -0.1170
  107SAPE  H12X11061  -0.747   4.974   4.252 -1.6243 -0.6353  0.3828
  107SAPE  H12Y11062  -0.605   4.883   4.294 -0.5152  1.2902 -0.5409
  107SAPE  C31311063  -0.778   4.771   4.328  0.0730 -0.2443 -0.0939
  107SAPE  H13X11064  -0.717   4.679   4.316  1.3227  0.4546  0.7213
  107SAPE  H13Y11065  -0.874   4.735   4.286  1.0925 -1.8160 -1.2186
  107SAPE  C31411066  -0.811   4.783   4.480  0.1189 -0.0392 -0.4317
  107SAPE  H14X11067  -0.908   4.734   4.500  0.7011 -0.3306  1.9538
  107SAPE  H14Y11068  -0.811   4.893   4.493  2.4273 -0.1077  0.6415
  107SAPE  C31511069  -0.702   4.732   4.577 -0.1969 -0.2597  0.1647
  107SAPE  H15X11070  -0.614   4.799   4.577  0.0476 -0.5812  0.2368
  107SAPE  H15Y11071  -0.670   4.629   4.552 -0.7823 -0.3087 -0.4018
  107SAPE  C31611072  -0.758   4.727   4.717 -0.2038  0.1699 -0.3502
  107SAPE  H16X11073  -0.848   4.662   4.715  0.7159 -1.1577  0.2341
  107SAPE  H16Y11074  -0.780   4.829   4.755  0.9302  0.2945  0.0193
  107SAPE  C31711075  -0.653   4.671   4.823  0.3531 -0.5203  0.1526
  107SAPE  H17X11076  -0.613   4.577   4.778  1.4155  1.0889 -2.5243
  107SAPE  H17Y11077  -0.717   4.643   4.910 -0.4479 -0.9351 -0.5435
  107SAPE  C31811078  -0.542   4.767   4.863  0.5554  0.3475 -0.0528
  107SAPE  H18X11079  -0.489   4.818   4.779 -2.5868  2.0005 -1.2281
  107SAPE  H18Y11080  -0.465   4.721   4.929  0.4704 -0.6745 -0.6495
  107SAPE  H18Z11081  -0.593   4.851   4.916  1.2541  2.3366 -2.3355
  108SAPE     N11082   4.294   0.872   2.464  0.5015 -0.0250 -0.9649
  108SAPE   HN111083   4.340   0.936   2.532 -1.2575  1.0694 -0.7268
  108SAPE   HN211084   4.334   0.778   2.483 -0.2654 -0.1656  0.0827
  108SAPE   HN311085   4.320   0.914   2.373  0.6096  0.7372 -0.5922
  108SAPE   C1211086   4.141   0.877   2.495  0.2099 -0.6308  0.3432
  108SAPE  H12A11087   4.094   0.810   2.419  0.7813 -1.9332  1.1060
  108SAPE  H12B11088   4.103   0.980   2.481  0.1566 -0.7520 -0.4885
  108SAPE   C1111089   4.101   0.821   2.630 -0.2167 -0.5236 -0.0470
  108SAPE  H11A11090   3.990   0.820   2.627 -0.3050  0.5789  1.4679
  108SAPE  H11B11091   4.125   0.898   2.706 -2.6868  0.8688 -0.5605
  108SAPE     P11092   4.082   0.569   2.668 -0.0797  0.1408 -0.1306
  108SAPE   O1311093   4.030   0.530   2.535 -0.2070 -0.3201 -0.4976
  108SAPE   O1411094   4.159   0.475   2.747 -0.4100  0.4572 -0.5871
  108SAPE   O1211095   4.167   0.695   2.646  0.1094  1.0506 -0.5415
  108SAPE   O1111096   3.965   0.605   2.767  0.0855 -0.6860  0.2656
  108SAPE    C111097   3.981   0.689   2.881 -0.1290  0.8098 -0.2083
  108SAPE    HA11098   4.078   0.742   2.879 -0.3001  1.1167 -0.3928
  108SAPE    HB11099   3.899   0.764   2.877 -1.2431 -0.3531  0.0193
  108SAPE    C211100   3.974   0.593   3.009  0.1124  0.3089  0.5339
  108SAPE    HS11101   4.051   0.515   2.988 -0.5510  0.2557 -2.1535
  108SAPE   O2111102   3.838   0.548   3.025  0.1779 -0.3380 -0.3904
  108SAPE   C2111103   3.821   0.418   3.050  0.1501 -0.3375 -0.3475
  108SAPE   O2211104   3.911   0.339   3.056 -0.1714  0.5624  0.1598
  108SAPE   C2211105   3.679   0.393   3.102  0.1047  0.4570 -0.0206
  108SAPE   H2R11106   3.607   0.477   3.096 -1.6181 -1.0354 -1.2353
  108SAPE   H2S11107   3.635   0.313   3.039 -0.3243  0.9286 -0.3234
  108SAPE    C311108   4.006   0.659   3.142 -0.2653  0.3080 -0.1184
  108SAPE    HX11109   3.930   0.738   3.157 -1.1484 -0.7873  1.4802
  108SAPE    HY11110   4.098   0.720   3.135 -0.4061  1.1912  3.7055
  108SAPE   O3111111   4.011   0.573   3.259  0.5435  0.1312 -0.1104
  108SAPE   C3111112   4.124   0.496   3.264  0.5639 -0.7802 -0.0437
  108SAPE   O3211113   4.218   0.510   3.190 -0.7596  0.4454 -0.2365
  108SAPE   C3211114   4.112   0.391   3.378 -0.2155  0.3480  0.0430
  108SAPE   H2X11115   4.205   0.394   3.438 -0.1932 -0.7836  0.0891
  108SAPE   H2Y11116   4.104   0.295   3.322 -0.8534  1.1501 -1.3040
  108SAPE   C2311117   3.667   0.336   3.248 -0.2246  0.3119  0.0010
  108SAPE   H3R11118   3.699   0.414   3.321 -1.8376 -1.3928  2.7159
  108SAPE   H3S11119   3.731   0.246   3.253  1.3948  1.3707 -0.8650
  108SAPE   C2411120   3.523   0.306   3.280 -0.3307  0.5651  0.2112
  108SAPE   H4R11121   3.454   0.392   3.270 -1.2262 -0.1124  0.4252
  108SAPE   H4S11122   3.518   0.293   3.391 -3.7676 -2.0734 -0.0634
  108SAPE   C2511123   3.479   0.180   3.223 -0.1690 -0.3846  0.0836
  108SAPE   H5R11124   3.442   0.182   3.120 -2.8084 -1.4277  0.9399
  108SAPE   C2611125   3.458   0.056   3.276  0.2804  0.0014 -0.2648
  108SAPE   H6R11126   3.428  -0.029   3.213  1.6547 -0.5683 -0.1843
  108SAPE   C2711127   3.472   0.017   3.421 -0.2199 -0.1225 -0.4105
  108SAPE   H7R11128   3.409  -0.071   3.443 -1.0561  0.7077  0.6798
  108SAPE   H7S11129   3.427   0.091   3.491 -2.2569 -3.0040  1.5145
  108SAPE   C2811130   3.614  -0.021   3.457 -0.6242  0.2226  0.2371
  108SAPE   H8R11131   3.663  -0.098   3.395 -0.3048  0.2736  0.4281
  108SAPE   C2911132   3.676   0.016   3.576  0.2560 -0.0455  0.4781
  108SAPE   H9R11133   3.761  -0.045   3.610  0.8511 -0.1439 -1.1042
  108SAPE  C21011134   3.611   0.109   3.670 -0.3284  0.4779 -0.2854
  108SAPE  H10R11135   3.582   0.201   3.615  1.9637  1.1149 -0.5157
  108SAPE  H10S11136   3.688   0.152   3.737 -0.3811  1.0836 -0.6040
  108SAPE  C21111137   3.497   0.033   3.746 -0.1670 -0.1621  0.1455
  108SAPE  H11R11138   3.434  -0.032   3.684 -0.6225 -0.0992  0.5404
  108SAPE  C21211139   3.464   0.054   3.875 -0.4753 -0.3515  0.3655
  108SAPE  H12R11140   3.385  -0.004   3.924 -0.0347  0.2396  1.8494
  108SAPE  C21311141   3.527   0.152   3.972  0.0953  0.3713  0.3836
  108SAPE  H13R11142   3.610   0.207   3.923 -0.2151  0.0724 -0.4833
  108SAPE  H13S11143   3.583   0.077   4.031  2.2356  0.2773 -1.6230
  108SAPE  C21411144   3.445   0.248   4.054 -0.1337  0.5435  0.5264
  108SAPE  H14R11145   3.453   0.350   4.014  1.7859  0.9598  1.8201
  108SAPE  C21511146   3.376   0.218   4.168  0.2126  0.1856  0.5879
  108SAPE  H15R11147   3.328   0.299   4.225  0.6648  0.2395  0.8873
  108SAPE  C21611148   3.356   0.080   4.231  0.1677  0.4229  0.1015
  108SAPE  H16R11149   3.413   0.086   4.326 -0.4213  2.1040  0.3770
  108SAPE  H16S11150   3.403   0.002   4.167 -1.4115  0.0200 -0.6302
  108SAPE  C21711151   3.206   0.039   4.258 -0.2931  0.5776 -0.6148
  108SAPE  H17R11152   3.185  -0.068   4.280 -0.0486  0.6690  0.0871
  108SAPE  H17S11153   3.146   0.057   4.166 -0.9552  1.4124 -0.0404
  108SAPE  C21811154   3.143   0.110   4.379  0.0921  0.2276 -0.6087
  108SAPE  H18R11155   3.123   0.216   4.354  0.8198  0.6801  0.6186
  108SAPE  H18S11156   3.213   0.110   4.465 -1.4942  1.6998  0.7459
  108SAPE  C21911157   3.005   0.062   4.422 -0.8893  0.4077  0.4642
  108SAPE  H19R11158   2.936   0.064   4.335  0.2377 -1.7433 -0.5812
  108SAPE  H19S11159   2.959   0.131   4.495  1.7089  0.2944  2.3524
  108SAPE  C22011160   2.999  -0.076   4.485  0.4522  0.2323 -0.8207
  108SAPE  H20R11161   3.079  -0.143   4.446  1.0743 -1.7780  3.3687
  108SAPE  H20S11162   2.902  -0.126   4.467  0.5817 -0.7364  0.9744
  108SAPE  H20T11163   3.030  -0.073   4.591  1.3169 -0.0712 -1.0539
  108SAPE   C3311164   3.993   0.418   3.470  0.2783  0.6086 -0.4321
  108SAPE   H3X11165   3.893   0.388   3.431 -0.4700 -0.0564  1.8482
  108SAPE   H3Y11166   3.998   0.527   3.490  0.7244  0.3131  1.2094
  108SAPE   C3411167   4.004   0.337   3.604 -0.9231  0.5174 -0.9048
  108SAPE   H4X11168   4.103   0.364   3.647 -0.6345  0.8038 -1.7191
  108SAPE   H4Y11169   4.008   0.229   3.580  0.5061 -0.0165  1.4255
  108SAPE   C3511170   3.889   0.368   3.694  0.7741  0.0034 -0.2225
  108SAPE   H5X11171   3.794   0.368   3.637  0.5545 -2.8734 -0.0019
  108SAPE   H5Y11172   3.870   0.276   3.754  2.2016 -0.8719 -1.0386
  108SAPE   C3611173   3.900   0.489   3.797 -0.1804  0.5656  0.2189
  108SAPE   H6X11174   3.869   0.584   3.748 -0.8800 -0.1337 -0.7399
  108SAPE   H6Y11175   4.001   0.500   3.842  0.2309  1.7237 -0.9046
  108SAPE   C3711176   3.807   0.469   3.916  0.6092  0.3797 -0.3700
  108SAPE   H7X11177   3.812   0.361   3.942  2.7993  0.2830 -0.9456
  108SAPE   H7Y11178   3.701   0.492   3.893  0.7226  1.6919  0.3638
  108SAPE   C3811179   3.849   0.558   4.037 -0.0429  0.4566 -0.8512
  108SAPE   H8X11180   3.899   0.647   3.995  0.1262  0.8389  0.1309
  108SAPE   H8Y11181   3.940   0.505   4.073 -1.2324 -0.6280  0.7101
  108SAPE   C3911182   3.760   0.582   4.156  0.1958 -0.3554 -0.4171
  108SAPE   H9X11183   3.672   0.632   4.111  1.2311  1.3945 -0.5696
  108SAPE   H9Y11184   3.808   0.664   4.213 -1.0873  0.1656 -0.0614
  108SAPE  C31011185   3.739   0.460   4.253  0.1152 -0.0999 -0.5163
  108SAPE  H10X11186   3.712   0.370   4.194 -2.0758  0.5716 -0.6205
  108SAPE  H10Y11187   3.656   0.484   4.323 -0.3707  0.6003 -1.3067
  108SAPE  C31111188   3.860   0.439   4.347 -0.3854  0.8727  0.0606
  108SAPE  H11X11189   3.887   0.524   4.413  1.0658  2.1316 -2.0502
  108SAPE  H11Y11190   3.946   0.424   4.278 -0.3370  2.4471 -0.2454
  108SAPE  C31211191   3.845   0.302   4.425 -0.5687 -0.5240 -0.2521
  108SAPE  H12X11192   3.828   0.215   4.357  2.7748  0.7661 -3.0462
  108SAPE  H12Y11193   3.760   0.321   4.494 -0.1150  0.0823  0.1443
  108SAPE  C31311194   3.972   0.281   4.518  0.5174  0.3281  0.1816
  108SAPE  H13X11195   3.978   0.375   4.577 -1.6850  0.3697  0.3953
  108SAPE  H13Y11196   4.062   0.277   4.452  1.2792  1.0177  1.1419
  108SAPE  C31411197   3.971   0.158   4.606 -0.1138 -0.1074  0.0156
  108SAPE  H14X11198   3.943   0.068   4.547  1.6397 -1.4861  1.1855
  108SAPE  H14Y11199   3.896   0.182   4.685  0.4407 -0.1913  0.5755
  108SAPE  C31511200   4.095   0.133   4.687  0.4834 -0.0725 -0.2603
  108SAPE  H15X11201   4.111   0.227   4.743  0.5951  0.2589 -0.8324
  108SAPE  H15Y11202   4.184   0.110   4.625  0.1236 -2.2821 -0.0204
  108SAPE  C31611203   4.073   0.010   4.786 -0.0285  0.7011 -0.2511
  108SAPE  H16X11204   4.071  -0.074   4.713 -0.7380  0.3663  0.1392
  108SAPE  H16Y11205   3.969   0.019   4.826  0.1055 -0.5020  0.3988
  108SAPE  C31711206   4.173  -0.002   4.893 -0.0033 -0.1567 -0.2906
  108SAPE  H17X11207   4.156   0.066   4.978  1.9986 -2.8540  2.4812
  108SAPE  H17Y11208   4.268   0.025   4.843 -1.0445  1.8216 -1.3333
  108SAPE  C31811209   4.185  -0.144   4.950 -0.5437 -0.0607  0.3677
  108SAPE  H18X11210   4.102  -0.147   5.024 -2.3663  0.2021 -1.5693
  108SAPE  H18Y11211   4.281  -0.162   5.003 -0.0495  2.2317  0.3752
  108SAPE  H18Z11212   4.158  -0.223   4.877 -0.8665  0.2229  0.1723
  109SAPE     N11213   3.515   6.698   2.413  0.2064  0.0566  0.0661
  109SAPE   HN111214   3.422   6.652   2.404  0.3552 -0.3403  0.5124
  109SAPE   HN211215   3.509   6.775   2.344 -1.5760  0.1972  0.3220
  109SAPE   HN311216   3.593   6.635   2.385 -0.5260  0.3710 -3.1109
  109SAPE   C1211217   3.528   6.747   2.554  0.4773 -0.5338 -0.3254
  109SAPE  H12A11218   3.503   6.855   2.549  0.6626 -0.4814 -0.1424
  109SAPE  H12B11219   3.631   6.737   2.595  0.3265  1.3737  0.6106
  109SAPE   C1111220   3.434   6.677   2.655 -0.0753 -0.2206  0.1160
  109SAPE  H11A11221   3.446   6.711   2.759 -0.0947 -3.7300  1.4100
  109SAPE  H11B11222   3.457   6.568   2.658 -0.0060 -0.1827  1.6562
  109SAPE     P11223   3.200   6.785   2.648  0.5486 -0.0140 -0.3982
  109SAPE   O1311224   3.245   6.917   2.606  0.0245 -0.0985 -0.4301
  109SAPE   O1411225   3.068   6.738   2.598 -0.0501 -0.6239  0.3124
  109SAPE   O1211226   3.304   6.679   2.600  0.2147 -0.2711 -0.1570
  109SAPE   O1111227   3.219   6.790   2.802  0.5822 -0.8075 -0.5541
  109SAPE    C111228   3.190   6.690   2.893 -0.5066 -0.5402  0.7864
  109SAPE    HA11229   3.220   6.592   2.850  0.4071  0.3062 -0.5520
  109SAPE    HB11230   3.244   6.706   2.989 -0.5233  1.2384  0.5268
  109SAPE    C211231   3.041   6.686   2.929 -0.0674  0.1208  0.2620
  109SAPE    HS11232   2.978   6.674   2.838  0.1272  0.3945  0.0886
  109SAPE   O2111233   3.000   6.798   3.019 -0.0194  0.3562  0.3652
  109SAPE   C2111234   2.866   6.809   3.023  0.5711  0.3296 -0.4202
  109SAPE   O2211235   2.787   6.752   2.950 -0.3702 -0.1264  0.5099
  109SAPE   C2211236   2.829   6.922   3.116 -0.2737  0.1846  0.2284
  109SAPE   H2R11237   2.728   6.953   3.080 -0.0689 -1.4720 -1.9837
  109SAPE   H2S11238   2.820   6.881   3.219 -1.4605  1.0583  0.5007
  109SAPE    C311239   3.019   6.553   3.006 -0.4610 -0.2888  0.0301
  109SAPE    HX11240   3.075   6.487   2.937  0.6998  0.7775 -0.0868
  109SAPE    HY11241   2.919   6.506   3.002  0.5440 -2.6175  0.7453
  109SAPE   O3111242   3.097   6.547   3.128  0.0489 -0.0715 -0.3272
  109SAPE   C3111243   3.034   6.593   3.234 -0.2660  0.1158  0.0777
  109SAPE   O3211244   2.915   6.622   3.244  0.2177 -0.3974 -0.1553
  109SAPE   C3211245   3.137   6.629   3.351  0.0178 -0.3475 -0.6832
  109SAPE   H2X11246   3.173   6.732   3.330  1.1310 -0.8104 -1.1508
  109SAPE   H2Y11247   3.225   6.564   3.335 -0.5752 -0.8875 -1.9019
  109SAPE   C2311248   2.933   7.047   3.128 -1.1531 -0.7020 -0.2189
  109SAPE   H3R11249   2.888   7.144   3.157  0.9291  0.8149 -1.7159
  109SAPE   H3S11250   2.974   7.069   3.026 -0.4752  2.8845  0.6872
  109SAPE   C2411251   3.054   7.013   3.222  0.9490  0.6862  0.4523
  109SAPE   H4R11252   3.120   6.928   3.195  0.1519  0.5748 -1.2504
  109SAPE   H4S11253   3.000   6.979   3.312 -0.0445 -1.5171 -0.8928
  109SAPE   C2511254   3.149   7.126   3.259 -0.5220  0.3807  0.1428
  109SAPE   H5R11255   3.210   7.158   3.173 -1.4115  1.2151 -0.1916
  109SAPE   C2611256   3.176   7.177   3.373  0.9022 -0.4502 -0.9543
  109SAPE   H6R11257   3.255   7.254   3.378  1.4954 -0.7999 -3.6983
  109SAPE   C2711258   3.104   7.155   3.513  0.3840 -0.2366  0.2318
  109SAPE   H7R11259   3.012   7.096   3.492 -0.0208 -0.0078  1.2835
  109SAPE   H7S11260   3.080   7.257   3.551 -1.1028 -1.0874  1.7417
  109SAPE   C2811261   3.177   7.085   3.623  0.2768 -0.2257  0.8661
  109SAPE   H8R11262   3.276   7.047   3.596  0.6794  0.5391  1.2403
  109SAPE   C2911263   3.141   7.078   3.748  0.2228 -0.1433 -0.7590
  109SAPE   H9R11264   3.205   7.032   3.824 -1.4539 -1.5059 -0.1024
  109SAPE  C21011265   3.020   7.155   3.810 -0.6529 -0.2333 -0.5694
  109SAPE  H10R11266   2.941   7.157   3.731  0.0477 -1.4865 -1.3322
  109SAPE  H10S11267   3.041   7.260   3.836  1.1059 -0.7057  0.0178
  109SAPE  C21111268   2.962   7.089   3.930  0.5085 -0.3217  0.0874
  109SAPE  H11R11269   2.906   6.998   3.903 -1.0786  0.4566  0.6090
  109SAPE  C21211270   2.970   7.134   4.057  0.4586 -0.3771 -0.7581
  109SAPE  H12R11271   2.923   7.073   4.136  2.0763 -3.2475 -1.8908
  109SAPE  C21311272   3.030   7.269   4.106  1.1857 -0.2553 -0.1391
  109SAPE  H13R11273   3.091   7.317   4.026 -0.7287  2.1899 -0.2687
  109SAPE  H13S11274   3.097   7.250   4.193 -0.8261  2.0719  2.1062
  109SAPE  C21411275   2.909   7.360   4.160 -0.2904  0.1847  0.3516
  109SAPE  H14R11276   2.862   7.426   4.085 -0.0269 -1.9014 -1.7748
  109SAPE  C21511277   2.867   7.358   4.288  0.6593 -0.0451 -0.3688
  109SAPE  H15R11278   2.768   7.400   4.311 -1.5315 -4.0505 -1.5367
  109SAPE  C21611279   2.910   7.274   4.402 -0.0718 -0.1526 -0.0735
  109SAPE  H16R11280   2.973   7.336   4.469  0.6906 -0.9459 -0.0362
  109SAPE  H16S11281   2.971   7.194   4.355  2.4305  1.4110  0.3513
  109SAPE  C21711282   2.783   7.220   4.476 -0.1952 -0.2357  0.6987
  109SAPE  H17R11283   2.807   7.121   4.520 -0.7608 -1.8399 -2.3062
  109SAPE  H17S11284   2.718   7.187   4.393 -0.9171  2.3262  0.1526
  109SAPE  C21811285   2.713   7.323   4.572 -0.0996  0.1426  0.8776
  109SAPE  H18R11286   2.648   7.401   4.526 -0.6934  0.0356  1.5152
  109SAPE  H18S11287   2.784   7.369   4.644  0.0310  1.3108  0.0296
  109SAPE  C21911288   2.603   7.260   4.646 -0.1256  0.6503  0.0486
  109SAPE  H19R11289   2.637   7.165   4.692 -2.3200 -1.1820 -1.9018
  109SAPE  H19S11290   2.530   7.220   4.573 -0.6579  1.4227  0.1553
  109SAPE  C22011291   2.532   7.349   4.748  0.0018  0.0203 -0.0981
  109SAPE  H20R11292   2.602   7.370   4.831 -0.4840 -4.0101  1.5611
  109SAPE  H20S11293   2.447   7.291   4.790 -0.5342 -0.4674 -1.7607
  109SAPE  H20T11294   2.500   7.443   4.699  2.8821  2.4037  2.2115
  109SAPE   C3311295   3.082   6.612   3.491  0.1598 -0.4414 -0.6100
  109SAPE   H3X11296   3.025   6.517   3.505 -0.2075  0.2239  3.6036
  109SAPE   H3Y11297   3.013   6.695   3.517  1.5983  0.2812  1.0964
  109SAPE   C3411298   3.189   6.588   3.604  0.8987  0.1201 -0.0881
  109SAPE   H4X11299   3.222   6.691   3.632  0.3152  0.9517 -2.2485
  109SAPE   H4Y11300   3.271   6.527   3.561 -1.1087 -1.0347 -2.4776
  109SAPE   C3511301   3.113   6.524   3.726  0.6338  0.0609 -0.1665
  109SAPE   H5X11302   3.082   6.421   3.701  0.7277  0.4312 -1.9391
  109SAPE   H5Y11303   3.026   6.590   3.747  0.6696  0.0181  0.1197
  109SAPE   C3611304   3.214   6.505   3.839  0.4854  0.8193 -0.4044
  109SAPE   H6X11305   3.260   6.605   3.851 -2.7057  2.3342  0.4605
  109SAPE   H6Y11306   3.292   6.430   3.816 -0.1184  0.2602 -0.6790
  109SAPE   C3711307   3.141   6.470   3.972 -0.4988 -0.1625 -0.6760
  109SAPE   H7X11308   3.092   6.371   3.957 -0.4466 -0.4952  1.1193
  109SAPE   H7Y11309   3.071   6.556   3.977  1.1945  1.2088  0.9835
  109SAPE   C3811310   3.232   6.469   4.101  0.2471 -0.1188  0.0856
  109SAPE   H8X11311   3.270   6.571   4.117 -1.8332  0.7449 -0.1392
  109SAPE   H8Y11312   3.323   6.408   4.082  0.8432 -0.1432  2.6744
  109SAPE   C3911313   3.170   6.402   4.226  0.1925 -0.3958  0.2542
  109SAPE   H9X11314   3.128   6.302   4.203 -1.5558  0.0990  1.1011
  109SAPE   H9Y11315   3.082   6.463   4.257  0.4450 -0.7017  1.6525
  109SAPE  C31011316   3.257   6.405   4.350 -0.9043 -0.3647  0.4327
  109SAPE  H10X11317   3.203   6.371   4.441  0.3299 -0.5053  1.1374
  109SAPE  H10Y11318   3.279   6.513   4.366 -0.6940 -0.2581 -0.5110
  109SAPE  C31111319   3.386   6.315   4.353  0.7662 -0.2169 -0.5025
  109SAPE  H11X11320   3.472   6.359   4.299 -1.1644  2.1154 -1.8851
  109SAPE  H11Y11321   3.350   6.233   4.287  0.6346 -0.8887  0.3817
  109SAPE  C31211322   3.429   6.262   4.490 -0.6766  0.3261  0.1513
  109SAPE  H12X11323   3.345   6.216   4.546 -2.2530 -1.4445 -3.3511
  109SAPE  H12Y11324   3.475   6.339   4.556 -0.7746  1.5759 -1.1935
  109SAPE  C31311325   3.533   6.157   4.468 -0.3700  0.2122  0.0029
  109SAPE  H13X11326   3.612   6.176   4.392  2.4773 -0.6980  2.5702
  109SAPE  H13Y11327   3.481   6.070   4.421  1.0856  0.0871 -1.4961
  109SAPE  C31411328   3.595   6.115   4.603  0.1994 -0.1288  0.3867
  109SAPE  H14X11329   3.522   6.093   4.684 -1.2861  2.5196 -0.1127
  109SAPE  H14Y11330   3.654   6.199   4.646 -2.5053  1.4352  1.3448
  109SAPE  C31511331   3.693   6.000   4.586  0.3063  0.5731  0.2290
  109SAPE  H15X11332   3.781   6.031   4.525  1.4432 -1.1295  0.9122
  109SAPE  H15Y11333   3.633   5.924   4.531 -2.2992  1.2493  1.9628
  109SAPE  C31611334   3.743   5.937   4.709 -0.1154 -0.3269 -0.5520
  109SAPE  H16X11335   3.822   5.864   4.684  2.6050  2.3333 -0.3221
  109SAPE  H16Y11336   3.660   5.886   4.763  0.6269 -0.2920  0.6592
  109SAPE  C31711337   3.827   6.025   4.803  0.3429  0.5873  0.7344
  109SAPE  H17X11338   3.770   6.120   4.814  0.7141  0.8453  0.4677
  109SAPE  H17Y11339   3.927   6.047   4.759  1.0308 -0.5306  1.6869
  109SAPE  C31811340   3.864   5.969   4.942 -0.2619  0.3414  0.7374
  109SAPE  H18X11341   3.771   5.927   4.985 -0.4431 -1.5645 -1.3599
  109SAPE  H18Y11342   3.903   6.034   5.023 -0.1045 -0.4827  1.3351
  109SAPE  H18Z11343   3.926   5.877   4.927  0.3424  0.6330  1.3691
  110SAPE     N11344   0.023   2.817   2.820  0.6731 -0.1953 -0.0990
  110SAPE   HN111345  -0.022   2.727   2.795  0.7453  0.0882 -1.3088
  110SAPE   HN211346   0.008   2.883   2.740  1.2838  1.4812  1.1114
  110SAPE   HN311347   0.124   2.794   2.827  0.8578  0.6735  0.2004
  110SAPE   C1211348  -0.033   2.871   2.946 -0.4819 -0.0323 -0.2218
  110SAPE  H12A11349  -0.144   2.861   2.948 -0.7405  2.2562  3.3300
  110SAPE  H12B11350  -0.002   2.977   2.946  0.9782 -0.4194 -1.2771
  110SAPE   C1111351   0.025   2.785   3.065  0.2336  0.3077  0.3850
  110SAPE  H11A11352  -0.003   2.680   3.043  1.1602  0.1588 -0.1020
  110SAPE  H11B11353  -0.011   2.821   3.164 -0.5457 -2.5344  1.2456
  110SAPE     P11354   0.255   2.679   3.014 -0.5427  0.1805  0.2863
  110SAPE   O1311355   0.191   2.548   3.050 -0.4837  0.1706 -0.6412
  110SAPE   O1411356   0.265   2.714   2.871  0.3848 -0.3053  0.3069
  110SAPE   O1211357   0.168   2.791   3.077 -0.2791  1.1313  0.2713
  110SAPE   O1111358   0.385   2.705   3.091 -0.5461 -0.1580  0.0372
  110SAPE    C111359   0.386   2.694   3.234  0.2961  0.1808 -0.5508
  110SAPE    HA11360   0.465   2.761   3.274 -0.6375  0.2911  1.2374
  110SAPE    HB11361   0.292   2.720   3.287  0.7410  0.6505  0.0152
  110SAPE    C211362   0.428   2.553   3.289 -0.4595  0.7127  0.7750
  110SAPE    HS11363   0.351   2.480   3.254 -0.8363  0.3297  2.3055
  110SAPE   O2111364   0.460   2.552   3.425  0.8172  0.1888  0.3545
  110SAPE   C2111365   0.354   2.560   3.508  0.3552  0.0153 -0.1476
  110SAPE   O2211366   0.236   2.552   3.470  0.0670 -0.5332 -0.2557
  110SAPE   C2211367   0.403   2.583   3.647  0.3588  0.0208 -0.4023
  110SAPE   H2R11368   0.455   2.489   3.676  0.3461 -1.0676 -3.5268
  110SAPE   H2S11369   0.480   2.663   3.647  1.1418 -0.6959  0.7354
  110SAPE    C311370   0.552   2.507   3.202  0.0048  0.2062 -0.6945
  110SAPE    HX11371   0.521   2.512   3.096 -0.1359 -1.9541 -0.8074
  110SAPE    HY11372   0.640   2.572   3.221  0.1861  0.2799 -1.7609
  110SAPE   O3111373   0.595   2.374   3.250 -0.2785 -0.3521  0.1927
  110SAPE   C3111374   0.538   2.275   3.185 -0.0662  0.1012 -0.9434
  110SAPE   O3211375   0.453   2.288   3.100  0.0834  0.3498 -0.5713
  110SAPE   C3211376   0.587   2.138   3.239  0.4153  0.3686  0.9424
  110SAPE   H2X11377   0.648   2.098   3.155  1.8078  0.0124  2.0757
  110SAPE   H2Y11378   0.503   2.072   3.267  0.6147 -0.1527  0.3451
  110SAPE   C2311379   0.292   2.632   3.742 -0.0735 -0.4942 -0.1552
  110SAPE   H3R11380   0.302   2.621   3.852  0.0153 -0.2844 -0.1432
  110SAPE   H3S11381   0.196   2.583   3.713 -1.1313  1.9132 -0.9460
  110SAPE   C2411382   0.250   2.781   3.721 -0.4892  0.5863 -0.3737
  110SAPE   H4R11383   0.152   2.795   3.772  1.2773  1.1209  3.1191
  110SAPE   H4S11384   0.229   2.804   3.614 -2.4274 -0.6202 -0.3022
  110SAPE   C2511385   0.360   2.874   3.778  0.3729  0.0141 -0.4520
  110SAPE   H5R11386   0.449   2.884   3.715  0.4974  0.7859 -0.1629
  110SAPE   C2611387   0.365   2.921   3.906 -0.5300  0.1405 -0.1558
  110SAPE   H6R11388   0.450   2.983   3.937  0.3771 -1.0333 -0.2348
  110SAPE   C2711389   0.258   2.896   4.008  0.0923 -0.0985  0.3361
  110SAPE   H7R11390   0.171   2.839   3.967  0.0786 -0.9578  1.5045
  110SAPE   H7S11391   0.221   2.998   4.034  1.9779  0.5934  0.4246
  110SAPE   C2811392   0.312   2.810   4.120 -0.3625 -0.2952 -0.2570
  110SAPE   H8R11393   0.353   2.713   4.091 -0.7191 -0.2428 -0.9421
  110SAPE   C2911394   0.278   2.842   4.253 -0.8448  0.4911 -0.0254
  110SAPE   H9R11395   0.313   2.775   4.333  0.2413  0.1767 -0.7352
  110SAPE  C21011396   0.190   2.960   4.311 -0.3685  0.2070  0.1335
  110SAPE  H10R11397   0.135   2.935   4.404  0.6656 -0.9834  0.4533
  110SAPE  H10S11398   0.113   2.991   4.238 -3.1485 -3.6802  1.0781
  110SAPE  C21111399   0.281   3.074   4.344  0.1262 -0.1663 -0.5075
  110SAPE  H11R11400   0.326   3.126   4.258  3.1591 -0.4414  0.8090
  110SAPE  C21211401   0.329   3.107   4.462 -0.7336 -0.3563  0.3226
  110SAPE  H12R11402   0.409   3.183   4.464 -1.0037 -0.0522 -0.2728
  110SAPE  C21311403   0.312   3.051   4.599  1.1716  0.7637 -0.6621
  110SAPE  H13R11404   0.260   2.953   4.596  0.3339  0.8617  3.7836
  110SAPE  H13S11405   0.229   3.113   4.640  0.1020 -2.2859  2.2877
  110SAPE  C21411406   0.426   3.064   4.694  0.2384 -0.4007  1.0223
  110SAPE  H14R11407   0.492   3.149   4.672 -0.2637 -0.4695 -0.9437
  110SAPE  C21511408   0.456   2.994   4.795 -0.1293  0.3008 -0.2692
  110SAPE  H15R11409   0.550   3.015   4.848  1.1893 -1.3328 -1.8362
  110SAPE  C21611410   0.369   2.875   4.831 -0.1040  0.5590 -0.2618
  110SAPE  H16R11411   0.411   2.807   4.908 -2.0863  0.6634  0.9841
  110SAPE  H16S11412   0.344   2.810   4.745  0.2455  0.6984 -0.4740
  110SAPE  C21711413   0.236   2.922   4.894 -0.2234 -0.6283 -0.4242
  110SAPE  H17R11414   0.174   2.976   4.820  1.1891 -1.8189 -2.5862
  110SAPE  H17S11415   0.265   2.985   4.980  0.1457  1.9668 -2.3271
  110SAPE  C21811416   0.141   2.812   4.946 -0.2021  0.0096 -0.2690
  110SAPE  H18R11417   0.125   2.736   4.867  0.1658 -0.2348 -0.1100
  110SAPE  H18S11418   0.039   2.851   4.967 -0.0304  0.5298 -0.3988
  110SAPE  C21911419   0.198   2.734   5.064  0.5561  0.2179 -0.7238
  110SAPE  H19R11420   0.232   2.793   5.152  0.3971 -1.1460  0.2921
  110SAPE  H19S11421   0.301   2.702   5.037  0.1452 -2.4480  0.5097
  110SAPE  C22011422   0.122   2.609   5.109 -0.7489 -0.2341 -0.2455
  110SAPE  H20R11423   0.190   2.551   5.175  2.9970  3.5764 -0.3237
  110SAPE  H20S11424   0.091   2.534   5.033 -0.1842  2.1478 -2.9861
  110SAPE  H20T11425   0.031   2.637   5.166  0.1108  1.0729  0.5569
  110SAPE   C3311426   0.670   2.149   3.363  0.2429 -0.0626  0.0554
  110SAPE   H3X11427   0.612   2.218   3.428 -0.5534 -0.9954  0.3407
  110SAPE   H3Y11428   0.769   2.197   3.342  0.0631 -0.0936 -0.9153
  110SAPE   C3411429   0.696   2.011   3.432 -0.4506 -0.1564  0.0607
  110SAPE   H4X11430   0.766   1.955   3.368 -2.1645 -1.0737 -1.0820
  110SAPE   H4Y11431   0.594   1.967   3.426 -1.4759  1.7974  1.6910
  110SAPE   C3511432   0.727   2.013   3.578 -0.4152  0.8534 -0.5656
  110SAPE   H5X11433   0.745   1.907   3.606 -0.1453  0.6119 -1.5951
  110SAPE   H5Y11434   0.633   2.039   3.630 -1.3076 -1.5001 -0.8629
  110SAPE   C3611435   0.857   2.094   3.616  0.6514 -0.1276  0.1341
  110SAPE   H6X11436   0.859   2.200   3.582  4.2877 -0.0921  0.0886
  110SAPE   H6Y11437   0.937   2.038   3.564  1.7192  0.7468  0.7911
  110SAPE   C3711438   0.880   2.095   3.773 -0.5572 -0.3987 -0.0507
  110SAPE   H7X11439   0.990   2.086   3.789 -0.5307 -1.7727 -0.8481
  110SAPE   H7Y11440   0.846   1.996   3.810  1.2226 -1.5131 -1.1957
  110SAPE   C3811441   0.823   2.207   3.861 -0.4131 -0.4497  0.6329
  110SAPE   H8X11442   0.883   2.298   3.839  1.6253 -1.6007  1.1549
  110SAPE   H8Y11443   0.845   2.184   3.967 -0.4119  2.2826  1.3162
  110SAPE   C3911444   0.670   2.225   3.839  0.0283 -0.4099  0.0930
  110SAPE   H9X11445   0.615   2.130   3.858 -1.8596  0.2344 -1.7830
  110SAPE   H9Y11446   0.643   2.262   3.737  1.8760 -0.0461 -0.2970
  110SAPE  C31011447   0.605   2.314   3.945  0.1096  0.7116  0.0818
  110SAPE  H10X11448   0.639   2.418   3.924  0.6478  0.1772 -1.9415
  110SAPE  H10Y11449   0.636   2.289   4.049  0.2500  1.6606  0.2795
  110SAPE  C31111450   0.448   2.295   3.932 -0.0022  0.1597 -0.2762
  110SAPE  H11X11451   0.431   2.194   3.976  2.3546  0.0423  0.5018
  110SAPE  H11Y11452   0.422   2.302   3.824  1.9470  4.8497 -0.6992
  110SAPE  C31211453   0.383   2.398   4.032 -0.5669  0.6252  0.3805
  110SAPE  H12X11454   0.274   2.412   4.013 -0.8105 -1.3669  0.0046
  110SAPE  H12Y11455   0.437   2.493   4.018 -0.1063  0.2368 -0.5752
  110SAPE  C31311456   0.397   2.355   4.176 -0.1754  0.5569 -0.4655
  110SAPE  H13X11457   0.503   2.339   4.205 -0.1221  2.8552  0.8973
  110SAPE  H13Y11458   0.357   2.252   4.171  2.9564 -0.6894 -2.4336
  110SAPE  C31411459   0.326   2.438   4.285 -0.4704  1.0184  0.3120
  110SAPE  H14X11460   0.222   2.463   4.253 -0.5556 -1.0803 -1.2924
  110SAPE  H14Y11461   0.384   2.528   4.315  1.1835 -0.3315  1.3649
  110SAPE  C31511462   0.323   2.352   4.407  0.0451  0.4404  0.2579
  110SAPE  H15X11463   0.424   2.313   4.429  0.7972  2.8872  1.5214
  110SAPE  H15Y11464   0.268   2.257   4.394 -0.1836 -0.1518  4.2432
  110SAPE  C31611465   0.277   2.428   4.533  0.1014  0.2224 -0.1712
  110SAPE  H16X11466   0.209   2.509   4.498  0.4939  0.4948 -0.3096
  110SAPE  H16Y11467   0.365   2.486   4.568  0.9754  0.5276 -2.6514
  110SAPE  C31711468   0.216   2.333   4.643  0.0991 -0.8843  0.7439
  110SAPE  H17X11469   0.285   2.246   4.653  0.3518 -0.6969  0.6404
  110SAPE  H17Y11470   0.117   2.298   4.608 -0.0027 -1.6256  1.7286
  110SAPE  C31811471   0.194   2.423   4.765  0.7160 -0.6639 -0.1697
  110SAPE  H18X11472   0.296   2.431   4.809 -0.1184 -0.7356  1.8503
  110SAPE  H18Y11473   0.132   2.371   4.841  0.8924 -0.3181  0.2157
  110SAPE  H18Z11474   0.142   2.520   4.747 -1.1754 -1.5863  0.0608
  111SAPE     N11475   6.619   4.279   2.578  0.0150  0.4634 -0.2440
  111SAPE   HN111476   6.589   4.210   2.649 -0.7691  0.4781 -0.5471
  111SAPE   HN211477   6.607   4.246   2.479 -0.4163  2.3107 -0.8437
  111SAPE   HN311478   6.717   4.307   2.600 -0.5811  0.7567  2.2787
  111SAPE   C1211479   6.530   4.401   2.592  0.0924  0.5188  0.2439
  111SAPE  H12A11480   6.436   4.385   2.535  0.7975  2.3431 -1.5475
  111SAPE  H12B11481   6.586   4.487   2.550  1.8079 -0.6522  0.0197
  111SAPE   C1111482   6.479   4.425   2.736  0.6821 -0.0524 -0.0024
  111SAPE  H11A11483   6.410   4.511   2.739  0.0817 -0.4491 -1.7178
  111SAPE  H11B11484   6.569   4.454   2.795  1.0071 -1.3212  0.1681
  111SAPE     P11485   6.274   4.279   2.798  0.4423 -0.0799  0.5370
  111SAPE   O1311486   6.218   4.299   2.663 -0.0386 -0.4450  0.2695
  111SAPE   O1411487   6.253   4.147   2.859  0.5442  0.1948  0.1284
  111SAPE   O1211488   6.429   4.303   2.789  0.0015  0.0863  0.9075
  111SAPE   O1111489   6.234   4.396   2.894 -0.1323 -0.1061  0.3654
  111SAPE    C111490   6.265   4.379   3.035 -0.3148 -0.6143 -0.1371
  111SAPE    HA11491   6.347   4.308   3.062  1.2554  1.5777  1.1425
  111SAPE    HB11492   6.296   4.481   3.065 -2.9400 -0.2281  1.6169
  111SAPE    C211493   6.144   4.341   3.117  1.3839 -0.3787 -0.4506
  111SAPE    HS11494   6.098   4.251   3.073  0.6670 -0.0385 -0.4090
  111SAPE   O2111495   6.048   4.441   3.113 -0.0604 -0.7045  0.4049
  111SAPE   C2111496   5.924   4.411   3.136  0.0860 -0.0479  0.2037
  111SAPE   O2211497   5.888   4.300   3.173  0.0019 -0.0501 -0.9423
  111SAPE   C2211498   5.825   4.536   3.115 -0.4147  0.0347  0.0653
  111SAPE   H2R11499   5.820   4.551   3.006 -0.8421 -1.8077 -0.2027
  111SAPE   H2S11500   5.725   4.516   3.159 -0.4851  0.7311  0.2359
  111SAPE    C311501   6.179   4.314   3.266 -0.3621  0.4748  0.5967
  111SAPE    HX11502   6.093   4.285   3.330 -0.4306 -0.1323  0.2348
  111SAPE    HY11503   6.222   4.411   3.301  4.8347 -1.2921 -0.0373
  111SAPE   O3111504   6.288   4.214   3.277 -0.0228 -0.2146 -0.4520
  111SAPE   C3111505   6.250   4.087   3.263 -0.5395 -0.3443 -0.0511
  111SAPE   O3211506   6.142   4.040   3.255  0.8117 -0.0437  0.2039
  111SAPE   C3211507   6.375   3.997   3.275  0.1656 -0.0953 -0.1001
  111SAPE   H2X11508   6.452   4.041   3.341  0.2567 -2.1352  1.2405
  111SAPE   H2Y11509   6.427   3.992   3.176  0.0727  0.3405 -0.1721
  111SAPE   C2311510   5.878   4.667   3.184  0.2598  0.2204 -0.6456
  111SAPE   H3R11511   5.799   4.742   3.162 -2.6579 -2.7878 -1.1189
  111SAPE   H3S11512   5.971   4.704   3.134  1.2313 -1.3002 -0.0036
  111SAPE   C2411513   5.887   4.659   3.335 -0.1141  0.5706 -0.0880
  111SAPE   H4R11514   5.918   4.754   3.385 -1.4235  0.2988  1.2954
  111SAPE   H4S11515   5.970   4.587   3.355  0.7677  1.6870  0.4174
  111SAPE   C2511516   5.761   4.613   3.405  0.3333  0.5755 -0.1015
  111SAPE   H5R11517   5.674   4.677   3.385  1.2331  2.4735  1.6757
  111SAPE   C2611518   5.735   4.504   3.477 -0.5226  0.8818 -0.1248
  111SAPE   H6R11519   5.634   4.475   3.508 -0.0099  0.5557  1.3399
  111SAPE   C2711520   5.847   4.398   3.507 -0.2834  0.0443 -0.7065
  111SAPE   H7R11521   5.952   4.429   3.488 -0.9817  1.6823 -2.1736
  111SAPE   H7S11522   5.835   4.307   3.444  0.7647 -0.0126 -0.8452
  111SAPE   C2811523   5.843   4.354   3.650  0.0126  0.7813  0.1366
  111SAPE   H8R11524   5.743   4.363   3.695  0.0049  0.9017  0.0945
  111SAPE   C2911525   5.948   4.276   3.700  0.1740 -0.9839 -0.6817
  111SAPE   H9R11526   5.934   4.222   3.795 -2.6652 -0.2954 -0.5915
  111SAPE  C21011527   6.075   4.242   3.641  0.4232  0.4026  0.1758
  111SAPE  H10R11528   6.064   4.270   3.534 -2.9501 -2.0320 -0.2428
  111SAPE  H10S11529   6.072   4.131   3.635 -0.8385  0.5103 -2.3082
  111SAPE  C21111530   6.199   4.300   3.702  0.1865 -0.2307  0.3128
  111SAPE  H11R11531   6.184   4.403   3.739  0.0866  0.1843 -0.8369
  111SAPE  C21211532   6.317   4.241   3.719 -0.2159  0.6719 -0.2113
  111SAPE  H12R11533   6.404   4.288   3.768 -0.2773  1.4502 -0.8368
  111SAPE  C21311534   6.350   4.102   3.678  0.4572  0.3361  0.6691
  111SAPE  H13R11535   6.413   4.112   3.587 -0.1190 -2.1755 -0.0777
  111SAPE  H13S11536   6.263   4.048   3.636  1.3954 -0.5938 -0.1235
  111SAPE  C21411537   6.432   4.029   3.787  0.1886  0.5173  0.0758
  111SAPE  H14R11538   6.540   4.018   3.769  0.6608  2.9413  1.0689
  111SAPE  C21511539   6.397   3.998   3.913 -0.1950 -0.9393  0.3504
  111SAPE  H15R11540   6.468   3.947   3.981  3.0021  0.9790 -1.3060
  111SAPE  C21611541   6.261   4.015   3.972 -0.5620  0.7762 -0.7918
  111SAPE  H16R11542   6.215   3.925   4.018 -1.2004  1.6797  0.3739
  111SAPE  H16S11543   6.183   4.044   3.899  0.2161 -0.6749 -2.2660
  111SAPE  C21711544   6.260   4.128   4.084 -0.5833  0.1860  0.1739
  111SAPE  H17R11545   6.329   4.214   4.069 -1.1915  0.8677  1.1106
  111SAPE  H17S11546   6.288   4.081   4.181  1.1417 -0.1521 -0.4649
  111SAPE  C21811547   6.126   4.192   4.098  0.3122  1.1012 -0.0060
  111SAPE  H18R11548   6.058   4.108   4.125  1.5181 -0.7269 -2.2213
  111SAPE  H18S11549   6.088   4.227   3.999  0.7847  0.4724 -0.4206
  111SAPE  C21911550   6.139   4.316   4.187  0.0644  0.8508  0.7412
  111SAPE  H19R11551   6.038   4.364   4.189 -1.0661 -1.3807 -0.1134
  111SAPE  H19S11552   6.217   4.390   4.159 -0.3385  0.9000 -0.2928
  111SAPE  C22011553   6.169   4.284   4.336  0.3823 -0.4842 -0.2073
  111SAPE  H20R11554   6.208   4.376   4.384  0.1822 -0.2408 -0.5071
  111SAPE  H20S11555   6.251   4.208   4.337  0.1845 -0.7348  2.1560
  111SAPE  H20T11556   6.084   4.240   4.392 -0.6132  3.3240  1.5356
  111SAPE   C3311557   6.353   3.851   3.329 -0.2386 -0.3315 -0.2326
  111SAPE   H3X11558   6.441   3.787   3.309 -0.3172 -0.1793 -1.1149
  111SAPE   H3Y11559   6.266   3.806   3.275 -0.7641 -2.3703  2.0976
  111SAPE   C3411560   6.334   3.841   3.479  0.5922  0.4783  0.4888
  111SAPE   H4X11561   6.232   3.878   3.504 -0.5704 -1.1408 -1.4504
  111SAPE   H4Y11562   6.419   3.899   3.520  0.5892  1.2898 -0.6103
  111SAPE   C3511563   6.341   3.692   3.524 -0.4469 -0.0583 -0.6334
  111SAPE   H5X11564   6.430   3.641   3.483  0.5529  0.9795  0.1868
  111SAPE   H5Y11565   6.246   3.640   3.501 -0.0122 -1.6465  0.9394
  111SAPE   C3611566   6.352   3.677   3.683  0.3926  0.6220 -0.0692
  111SAPE   H6X11567   6.249   3.692   3.720  0.0872  0.1763 -0.7164
  111SAPE   H6Y11568   6.422   3.751   3.727  2.2757 -1.6159  0.9315
  111SAPE   C3711569   6.418   3.551   3.728  0.3082  0.2736 -0.7853
  111SAPE   H7X11570   6.529   3.550   3.722  0.2949  0.3302 -1.0621
  111SAPE   H7Y11571   6.390   3.467   3.661  0.4297 -0.8352  0.5140
  111SAPE   C3811572   6.375   3.506   3.866  0.0431 -0.1528 -0.2559
  111SAPE   H8X11573   6.409   3.401   3.880 -1.4915 -0.8250 -1.3209
  111SAPE   H8Y11574   6.264   3.496   3.866  0.0438 -0.8034 -2.8037
  111SAPE   C3911575   6.419   3.602   3.976 -1.0416 -0.0558  0.2144
  111SAPE   H9X11576   6.363   3.698   3.972  0.4675  0.8405 -0.2587
  111SAPE   H9Y11577   6.526   3.623   3.958 -0.4111 -3.3095 -0.4558
  111SAPE  C31011578   6.397   3.555   4.123  0.3566 -0.3346  0.3657
  111SAPE  H10X11579   6.440   3.452   4.128  1.9577  0.1815 -1.6671
  111SAPE  H10Y11580   6.290   3.529   4.138  0.8786 -2.5168  0.6577
  111SAPE  C31111581   6.464   3.637   4.229  0.2109 -0.0186  0.2410
  111SAPE  H11X11582   6.573   3.645   4.209  0.3207 -0.5575  0.6230
  111SAPE  H11Y11583   6.446   3.582   4.323 -1.2342  3.9777  2.5407
  111SAPE  C31211584   6.415   3.779   4.254 -0.2507  0.0700 -0.0678
  111SAPE  H12X11585   6.306   3.769   4.273 -0.4538 -0.7210 -1.5084
  111SAPE  H12Y11586   6.426   3.844   4.164 -0.1693 -1.7832 -1.4607
  111SAPE  C31311587   6.489   3.853   4.371 -0.3839  0.3073 -0.5097
  111SAPE  H13X11588   6.452   3.958   4.373  0.8170  0.8708 -3.3146
  111SAPE  H13Y11589   6.591   3.876   4.333 -1.1072  1.3523 -1.8970
  111SAPE  C31411590   6.501   3.776   4.504 -0.5911 -0.0771 -0.2902
  111SAPE  H14X11591   6.550   3.677   4.494  1.5949  0.4685  3.1545
  111SAPE  H14Y11592   6.395   3.765   4.536 -0.2939  0.2899  0.8848
  111SAPE  C31511593   6.570   3.856   4.614 -0.1087 -0.3835  0.0588
  111SAPE  H15X11594   6.547   3.965   4.612  0.3923 -0.2506  1.1028
  111SAPE  H15Y11595   6.679   3.843   4.603 -0.2438  0.0788 -2.3622
  111SAPE  C31611596   6.545   3.805   4.755  0.2050  0.1979 -0.4916
  111SAPE  H16X11597   6.447   3.846   4.787  1.0896  2.5298 -0.6180
  111SAPE  H16Y11598   6.616   3.850   4.827  0.9860  0.0649 -1.1655
  111SAPE  C31711599   6.559   3.655   4.786  0.4406  0.6761 -0.0789
  111SAPE  H17X11600   6.634   3.616   4.713  0.4456 -0.2874  0.4212
  111SAPE  H17Y11601   6.457   3.614   4.776  0.5103  0.2272  0.9185
  111SAPE  C31811602   6.603   3.623   4.932 -0.3865 -0.0061  0.5351
  111SAPE  H18X11603   6.701   3.672   4.950 -1.4705  1.7302  1.9416
  111SAPE  H18Y11604   6.612   3.512   4.938  1.7199  0.1560  1.0077
  111SAPE  H18Z11605   6.534   3.663   5.009  0.8980  1.0924  1.1467
  112SAPE     N11606   3.430   3.846   2.397 -0.2605  0.0770 -0.0354
  112SAPE   HN111607   3.504   3.833   2.324 -0.1745 -0.0084  0.0678
  112SAPE   HN211608   3.340   3.860   2.347  1.1271  0.7002 -2.5779
  112SAPE   HN311609   3.447   3.935   2.448 -0.5847 -1.4593  2.9498
  112SAPE   C1211610   3.422   3.725   2.485 -0.3562 -0.4671  0.0499
  112SAPE  H12A11611   3.421   3.641   2.412 -0.5861 -0.7903  0.4218
  112SAPE  H12B11612   3.330   3.731   2.547  1.0020  1.0365  2.0563
  112SAPE   C1111613   3.543   3.716   2.580  0.0412 -0.4316  1.2727
  112SAPE  H11A11614   3.516   3.644   2.660 -1.2208 -0.6252  0.6977
  112SAPE  H11B11615   3.557   3.809   2.638  1.1420 -0.7057  1.4816
  112SAPE     P11616   3.708   3.544   2.435 -0.0069  0.4726 -0.2981
  112SAPE   O1311617   3.656   3.527   2.296  0.1012 -0.1444 -0.5349
  112SAPE   O1411618   3.855   3.531   2.448  0.0830 -0.4254  0.1007
  112SAPE   O1211619   3.661   3.683   2.502  0.3329 -0.4996  0.4153
  112SAPE   O1111620   3.650   3.430   2.528 -0.0745 -0.6208  0.1566
  112SAPE    C111621   3.728   3.341   2.609 -0.1935  0.2773  0.4916
  112SAPE    HA11622   3.702   3.235   2.589  1.5373 -0.7365  3.0532
  112SAPE    HB11623   3.834   3.338   2.578 -0.2058  1.8857  0.2125
  112SAPE    C211624   3.713   3.356   2.764  0.1255 -0.1833  0.4584
  112SAPE    HS11625   3.737   3.259   2.813  0.8075 -0.6864 -0.8283
  112SAPE   O2111626   3.584   3.396   2.808 -0.2680 -0.4974  0.6929
  112SAPE   C2111627   3.485   3.311   2.787 -0.2731 -0.8292 -0.1612
  112SAPE   O2211628   3.497   3.197   2.749  0.3870  0.0415  0.4346
  112SAPE   C2211629   3.351   3.369   2.823  0.9794 -0.4939 -0.5227
  112SAPE   H2R11630   3.305   3.421   2.736  2.1145 -2.5833 -2.4904
  112SAPE   H2S11631   3.291   3.278   2.844  1.8276 -0.4075  2.8102
  112SAPE    C311632   3.823   3.459   2.821 -1.2084 -0.0736  0.6428
  112SAPE    HX11633   3.805   3.560   2.778 -0.5408 -0.6183 -0.9816
  112SAPE    HY11634   3.923   3.421   2.791 -0.2332  0.1929  3.2779
  112SAPE   O3111635   3.819   3.475   2.967  0.4719 -0.7305  0.3810
  112SAPE   C3111636   3.858   3.365   3.033  0.1435  0.4715  0.4332
  112SAPE   O3211637   3.903   3.259   2.990 -0.1639 -1.2947 -0.3193
  112SAPE   C3211638   3.833   3.388   3.182 -0.2245  0.0506  0.8997
  112SAPE   H2X11639   3.728   3.425   3.191 -0.2798  0.6735 -1.5592
  112SAPE   H2Y11640   3.906   3.467   3.211  0.8229  0.3865 -2.2114
  112SAPE   C2311641   3.347   3.446   2.954 -0.3327  0.1759  0.3375
  112SAPE   H3R11642   3.249   3.497   2.971 -1.0305 -1.2145  0.6163
  112SAPE   H3S11643   3.420   3.529   2.961  0.5602 -0.6616  1.2345
  112SAPE   C2411644   3.374   3.356   3.076  0.0538  0.3113 -0.4674
  112SAPE   H4R11645   3.475   3.310   3.076  0.6869  1.6235  0.9064
  112SAPE   H4S11646   3.309   3.266   3.074 -0.9182  1.0069 -1.1821
  112SAPE   C2511647   3.369   3.425   3.210 -0.0791 -0.1512 -0.4070
  112SAPE   H5R11648   3.455   3.493   3.221 -0.3830  0.2786 -0.6569
  112SAPE   C2611649   3.286   3.419   3.311  0.3597 -0.6944  0.5984
  112SAPE   H6R11650   3.307   3.481   3.399  1.2374 -0.8287  0.4955
  112SAPE   C2711651   3.167   3.329   3.315  0.3529  0.1738 -0.4673
  112SAPE   H7R11652   3.180   3.220   3.329 -2.5516 -0.2081 -0.1076
  112SAPE   H7S11653   3.104   3.344   3.224 -0.7251  2.6936  0.5940
  112SAPE   C2811654   3.075   3.351   3.435 -0.5619 -0.2448  0.0502
  112SAPE   H8R11655   2.972   3.377   3.405 -0.5069  1.3049  1.0557
  112SAPE   C2911656   3.105   3.346   3.562 -0.5880 -0.5968 -0.8083
  112SAPE   H9R11657   3.022   3.363   3.633  0.8763  0.3448  0.7417
  112SAPE  C21011658   3.244   3.323   3.621  0.1761  0.0921  0.0584
  112SAPE  H10R11659   3.321   3.316   3.541 -0.4015  2.3273 -0.7836
  112SAPE  H10S11660   3.238   3.226   3.675 -0.2810  0.3642  0.5084
  112SAPE  C21111661   3.277   3.425   3.728  0.6379  0.1429 -0.2154
  112SAPE  H11R11662   3.241   3.526   3.706  2.4311  0.5842 -1.3270
  112SAPE  C21211663   3.346   3.402   3.839  0.1094 -0.2128  0.5987
  112SAPE  H12R11664   3.365   3.484   3.910  0.7397 -0.4296  0.6866
  112SAPE  C21311665   3.405   3.268   3.887  0.2050 -0.7985 -0.1929
  112SAPE  H13R11666   3.480   3.282   3.968  0.3780  1.4380 -0.6632
  112SAPE  H13S11667   3.452   3.221   3.798 -0.5589 -0.7787 -0.6094
  112SAPE  C21411668   3.301   3.188   3.957 -0.2741  1.1721  0.1948
  112SAPE  H14R11669   3.274   3.099   3.898  1.6845  0.5735  0.0967
  112SAPE  C21511670   3.253   3.215   4.078  0.4393  0.2139 -0.3791
  112SAPE  H15R11671   3.179   3.143   4.114 -1.1927  0.7764 -2.4178
  112SAPE  C21611672   3.285   3.335   4.159 -0.4107  1.0825 -0.3056
  112SAPE  H16R11673   3.201   3.404   4.141  0.4009  1.9448 -0.8704
  112SAPE  H16S11674   3.370   3.399   4.127 -0.6138  1.4976 -0.0193
  112SAPE  C21711675   3.295   3.300   4.309  0.2327 -0.1743 -0.1440
  112SAPE  H17R11676   3.393   3.254   4.336  0.2036  0.0629  0.3870
  112SAPE  H17S11677   3.215   3.226   4.332 -2.0835  2.7852  2.1253
  112SAPE  C21811678   3.277   3.416   4.413 -0.0724 -0.5106 -0.6520
  112SAPE  H18R11679   3.184   3.475   4.400  0.4657  0.7737  0.9809
  112SAPE  H18S11680   3.357   3.489   4.388  0.6267 -0.0676  2.4428
  112SAPE  C21911681   3.300   3.377   4.560  0.2448 -0.2733 -0.3351
  112SAPE  H19R11682   3.402   3.335   4.569 -0.0283 -0.5315  3.2049
  112SAPE  H19S11683   3.220   3.306   4.593  0.5565 -1.4490 -1.9755
  112SAPE  C22011684   3.300   3.495   4.661 -0.2817 -1.1411 -0.2977
  112SAPE  H20R11685   3.198   3.539   4.650  0.6425  1.0788 -0.4661
  112SAPE  H20S11686   3.366   3.571   4.615 -1.2856  0.6758  1.1635
  112SAPE  H20T11687   3.327   3.458   4.762 -0.6136  1.4789  0.8138
  112SAPE   C3311688   3.868   3.262   3.262 -0.5516 -0.1344 -0.2037
  112SAPE   H3X11689   3.975   3.234   3.249 -0.3676  0.8168 -0.8605
  112SAPE   H3Y11690   3.806   3.188   3.207 -0.8124  1.2493 -1.8756
  112SAPE   C3411691   3.824   3.266   3.408 -0.5403 -0.0673  0.3518
  112SAPE   H4X11692   3.722   3.305   3.392 -0.1837  0.7023 -0.1127
  112SAPE   H4Y11693   3.887   3.340   3.463  1.8967 -1.0134 -1.0143
  112SAPE   C3511694   3.826   3.131   3.487 -0.3172 -0.3266 -0.1197
  112SAPE   H5X11695   3.924   3.080   3.475 -0.0426 -0.3595  2.0139
  112SAPE   H5Y11696   3.749   3.067   3.440  0.2879 -2.0353  1.1437
  112SAPE   C3611697   3.797   3.157   3.632 -0.1167  0.6209  0.1286
  112SAPE   H6X11698   3.723   3.239   3.625  0.6184  1.4768  1.8217
  112SAPE   H6Y11699   3.881   3.211   3.680  0.7392 -1.8653  1.6322
  112SAPE   C3711700   3.769   3.037   3.718  0.2738  0.0408 -0.1767
  112SAPE   H7X11701   3.854   2.965   3.710  0.4236  0.3442 -1.6163
  112SAPE   H7Y11702   3.677   2.985   3.686  1.7008 -3.3023  0.6613
  112SAPE   C3811703   3.735   3.074   3.862 -0.5632  0.0838  0.0160
  112SAPE   H8X11704   3.644   3.136   3.872 -2.4419 -2.6880  1.3037
  112SAPE   H8Y11705   3.812   3.140   3.908 -2.5639  2.6215 -0.0788
  112SAPE   C3911706   3.704   2.966   3.972 -0.0173 -0.1642  0.8132
  112SAPE   H9X11707   3.781   2.887   3.977  0.7052  0.4797  0.2378
  112SAPE   H9Y11708   3.602   2.924   3.958 -0.1712  0.2507  0.6561
  112SAPE  C31011709   3.705   3.043   4.107  0.4083  0.5480 -0.2782
  112SAPE  H10X11710   3.625   3.118   4.093 -2.1041 -1.9477 -0.0982
  112SAPE  H10Y11711   3.801   3.097   4.122  0.0968  0.8558  0.7116
  112SAPE  C31111712   3.672   2.954   4.228  0.8888  0.1760  0.2584
  112SAPE  H11X11713   3.756   2.882   4.243  0.1406 -1.1703 -1.5895
  112SAPE  H11Y11714   3.578   2.898   4.209  0.1541  0.1486  3.5316
  112SAPE  C31211715   3.685   3.039   4.353 -0.3880 -0.0171 -0.2523
  112SAPE  H12X11716   3.594   3.103   4.362 -1.0590 -0.7649 -1.4953
  112SAPE  H12Y11717   3.776   3.102   4.338 -0.4717  0.1253 -0.1717
  112SAPE  C31311718   3.720   2.956   4.474 -0.2191 -0.3978  0.8307
  112SAPE  H13X11719   3.809   2.900   4.438  0.5185  2.9835 -3.2723
  112SAPE  H13Y11720   3.633   2.894   4.507 -0.8545  0.4012  0.6847
  112SAPE  C31411721   3.772   3.038   4.595 -0.3295 -0.0849 -0.2033
  112SAPE  H14X11722   3.821   3.131   4.558  1.3420 -0.9468 -0.2270
  112SAPE  H14Y11723   3.853   2.986   4.651  0.0930  1.6090  0.8371
  112SAPE  C31511724   3.668   3.071   4.711 -0.2875 -0.2026 -0.7883
  112SAPE  H15X11725   3.614   2.978   4.739 -0.0695 -0.3793 -0.9507
  112SAPE  H15Y11726   3.610   3.148   4.656  2.0327  2.3685  0.1641
  112SAPE  C31611727   3.727   3.149   4.828  0.1472  0.0085 -0.9253
  112SAPE  H16X11728   3.642   3.192   4.885 -0.4226  1.0631 -2.5186
  112SAPE  H16Y11729   3.773   3.235   4.776  0.2645  1.1190  0.9392
  112SAPE  C31711730   3.829   3.082   4.916  1.0621 -0.2033  0.0765
  112SAPE  H17X11731   3.877   3.164   4.973 -0.8317 -0.4357  2.1512
  112SAPE  H17Y11732   3.917   3.037   4.865  1.6085 -1.5186  2.0443
  112SAPE  C31811733   3.765   2.986   5.015  0.8374  0.1164  1.0543
  112SAPE  H18X11734   3.696   3.038   5.085  2.7141  0.7363  2.5658
  112SAPE  H18Y11735   3.845   2.936   5.075  1.2840 -0.4685 -0.0038
  112SAPE  H18Z11736   3.711   2.907   4.959  0.0512  0.6680  1.0170
  113SAPE     N11737   4.310   1.418   2.335  0.3372 -0.1825 -0.3074
  113SAPE   HN111738   4.314   1.407   2.232  1.2184 -0.9069 -0.2078
  113SAPE   HN211739   4.216   1.382   2.361 -0.0435  0.9122 -0.0973
  113SAPE   HN311740   4.312   1.522   2.345  0.4253 -0.1834 -0.3166
  113SAPE   C1211741   4.423   1.343   2.409 -0.1564  0.6757  1.0485
  113SAPE  H12A11742   4.522   1.380   2.374 -0.3127  0.4036  0.2997
  113SAPE  H12B11743   4.414   1.237   2.377 -1.5230  0.9042  0.6087
  113SAPE   C1111744   4.413   1.361   2.564  0.0398 -0.1884  0.3880
  113SAPE  H11A11745   4.412   1.467   2.597  0.8320  0.0003 -0.1493
  113SAPE  H11B11746   4.495   1.312   2.620  0.6707  0.0653 -0.2877
  113SAPE     P11747   4.290   1.180   2.706  0.2191 -0.3040  0.1920
  113SAPE   O1311748   4.147   1.139   2.737 -0.1726 -0.0778  0.0491
  113SAPE   O1411749   4.383   1.080   2.649 -0.3509 -0.1782 -0.8216
  113SAPE   O1211750   4.289   1.302   2.605 -0.4235 -0.1780  0.6304
  113SAPE   O1111751   4.354   1.245   2.832  0.8265  0.1627 -0.0304
  113SAPE    C111752   4.329   1.374   2.883 -0.3750  0.4369  0.5043
  113SAPE    HA11753   4.417   1.441   2.873  0.0635 -0.3371 -1.4077
  113SAPE    HB11754   4.258   1.433   2.821 -0.3404 -0.3827 -0.3414
  113SAPE    C211755   4.287   1.386   3.033  0.7032  0.2492 -0.6476
  113SAPE    HS11756   4.244   1.485   3.057 -2.2714 -1.4974  2.0337
  113SAPE   O2111757   4.398   1.363   3.114 -0.6210  0.8923  0.0619
  113SAPE   C2111758   4.491   1.456   3.117  0.5133  0.1174  0.3635
  113SAPE   O2211759   4.474   1.568   3.064  0.0421  0.2901 -0.4986
  113SAPE   C2211760   4.617   1.406   3.192 -0.4547  0.1713  0.3965
  113SAPE   H2R11761   4.601   1.450   3.293 -0.2745  2.0261 -0.3566
  113SAPE   H2S11762   4.607   1.296   3.207 -2.0380  0.4097  1.2331
  113SAPE    C311763   4.170   1.279   3.071 -0.7576  0.1602  0.4260
  113SAPE    HX11764   4.209   1.180   3.039 -1.5353  1.1383 -4.3330
  113SAPE    HY11765   4.080   1.294   3.007 -1.0439 -1.3738  0.4317
  113SAPE   O3111766   4.140   1.280   3.210 -0.3451 -0.3706 -0.6150
  113SAPE   C3111767   4.056   1.190   3.256  0.1015  0.1661 -0.4398
  113SAPE   O3211768   4.030   1.094   3.188  0.8185  0.3365  0.1023
  113SAPE   C3211769   4.012   1.228   3.403 -0.3641 -0.0623 -0.5961
  113SAPE   H2X11770   3.964   1.328   3.410 -0.6333 -0.2669  0.7013
  113SAPE   H2Y11771   4.106   1.249   3.458  0.8529  2.2233 -3.2858
  113SAPE   C2311772   4.754   1.439   3.132 -0.0556  0.0805 -0.3612
  113SAPE   H3R11773   4.760   1.549   3.114 -0.9112  0.4918  1.5943
  113SAPE   H3S11774   4.759   1.381   3.037  0.0361 -0.6341  0.0753
  113SAPE   C2411775   4.873   1.408   3.229  0.1315  0.1392 -0.1389
  113SAPE   H4R11776   4.969   1.421   3.175  1.5951 -1.5689  1.8997
  113SAPE   H4S11777   4.876   1.300   3.255  1.7611 -0.0123 -0.8391
  113SAPE   C2511778   4.877   1.488   3.358 -0.2937  0.3911  0.1227
  113SAPE   H5R11779   4.860   1.595   3.338 -0.9394  0.1261 -0.8159
  113SAPE   C2611780   4.910   1.453   3.485 -0.1699 -0.6521 -0.0665
  113SAPE   H6R11781   4.897   1.529   3.563 -1.8037 -1.6451  0.6932
  113SAPE   C2711782   4.947   1.321   3.544 -0.2196 -0.3916  0.4904
  113SAPE   H7R11783   5.048   1.334   3.589  0.0895  0.8741 -0.4892
  113SAPE   H7S11784   4.968   1.250   3.462 -0.8016  1.6104 -1.4938
  113SAPE   C2811785   4.846   1.266   3.637  0.0771 -0.0058 -0.4102
  113SAPE   H8R11786   4.743   1.263   3.598  0.3210 -1.0562 -1.0044
  113SAPE   C2911787   4.848   1.234   3.764  0.4321  0.4794  0.3249
  113SAPE   H9R11788   4.757   1.222   3.825  0.9117 -0.1247  0.9321
  113SAPE  C21011789   4.968   1.245   3.854 -0.5395 -0.3408 -0.1604
  113SAPE  H10R11790   5.059   1.256   3.790  0.6891  0.0635  1.5821
  113SAPE  H10S11791   4.977   1.145   3.901 -2.2153 -0.8646 -0.8868
  113SAPE  C21111792   4.978   1.356   3.958  0.0438 -0.0717  0.6286
  113SAPE  H11R11793   4.917   1.439   3.919 -1.3727 -2.0716 -1.7149
  113SAPE  C21211794   5.046   1.357   4.078  0.1851  0.5451 -0.6264
  113SAPE  H12R11795   5.044   1.450   4.136 -0.7339  0.0951  0.1006
  113SAPE  C21311796   5.122   1.241   4.145 -0.6394 -0.3328 -0.4475
  113SAPE  H13R11797   5.207   1.278   4.207 -0.2479 -0.8231 -0.6855
  113SAPE  H13S11798   5.164   1.171   4.070 -1.4031  0.1790 -1.3682
  113SAPE  C21411799   5.010   1.176   4.231  0.5807  0.4765 -0.3740
  113SAPE  H14R11800   4.930   1.131   4.169  1.5055  0.8303 -1.8734
  113SAPE  C21511801   4.999   1.142   4.365 -0.2189  0.4849  0.4912
  113SAPE  H15R11802   4.915   1.082   4.403 -0.3442  0.1858 -0.2313
  113SAPE  C21611803   5.110   1.178   4.468 -0.1606  0.8768 -0.5963
  113SAPE  H16R11804   5.185   1.243   4.419  2.7494 -0.6617  1.4905
  113SAPE  H16S11805   5.154   1.080   4.495  0.1520  1.0716 -0.3981
  113SAPE  C21711806   5.051   1.253   4.586  0.5016  0.3942 -0.5254
  113SAPE  H17R11807   4.977   1.189   4.638  2.2339  0.0207  1.6510
  113SAPE  H17S11808   5.016   1.354   4.554 -0.5322  0.3287  0.3391
  113SAPE  C21811809   5.164   1.282   4.690  0.1563  0.7403 -0.1211
  113SAPE  H18R11810   5.114   1.356   4.756 -0.9565  1.2052 -1.4356
  113SAPE  H18S11811   5.253   1.326   4.640 -1.3258  3.2092 -0.7686
  113SAPE  C21911812   5.223   1.158   4.764  0.2871 -1.1798  0.1901
  113SAPE  H19R11813   5.297   1.203   4.833 -0.5543  0.1342  0.2733
  113SAPE  H19S11814   5.274   1.091   4.692  0.5769  0.6551 -1.3894
  113SAPE  C22011815   5.118   1.084   4.838  0.0228 -0.1227  0.1159
  113SAPE  H20R11816   5.167   1.001   4.893  0.8252  0.2192 -0.0784
  113SAPE  H20S11817   5.042   1.036   4.772  0.9334 -0.4356 -0.7266
  113SAPE  H20T11818   5.071   1.155   4.909 -1.1460 -0.0885 -0.6631
  113SAPE   C3311819   3.944   1.131   3.506 -0.1613 -0.3028  0.2407
  113SAPE   H3X11820   3.850   1.096   3.458  0.3367  0.1108 -1.0724
  113SAPE   H3Y11821   3.929   1.180   3.604 -1.2854 -2.2786  1.1357
  113SAPE   C3411822   4.043   1.019   3.538 -0.0821 -0.1157  0.1342
  113SAPE   H4X11823   4.133   1.061   3.587 -1.2510  1.7602  0.7808
  113SAPE   H4Y11824   4.090   0.963   3.455 -1.5842  0.4992 -1.1933
  113SAPE   C3511825   3.979   0.909   3.619 -0.2536  0.0159 -0.1366
  113SAPE   H5X11826   4.064   0.851   3.661 -0.3270 -1.0631 -1.4021
  113SAPE   H5Y11827   3.925   0.840   3.550 -1.0177  0.0043  0.4474
  113SAPE   C3611828   3.872   0.947   3.728 -0.1811 -0.2141  0.0527
  113SAPE   H6X11829   3.811   0.859   3.756 -0.2588  0.3568  1.7912
  113SAPE   H6Y11830   3.798   1.009   3.674  1.6699  0.1929 -2.2149
  113SAPE   C3711831   3.942   1.019   3.842  0.4294 -0.3666 -0.3354
  113SAPE   H7X11832   3.879   1.110   3.860 -2.1033 -2.1760  0.5227
  113SAPE   H7Y11833   4.047   1.048   3.822 -0.0545  1.2175 -0.7947
  113SAPE   C3811834   3.937   0.938   3.976 -0.5867 -0.2142 -0.3430
  113SAPE   H8X11835   3.833   0.905   3.997 -1.2647  1.5611 -0.7739
  113SAPE   H8Y11836   3.985   0.838   3.966 -0.1301  0.1018 -1.3936
  113SAPE   C3911837   3.991   1.016   4.096  0.2226 -0.3832  0.8791
  113SAPE   H9X11838   3.935   1.112   4.090  0.7865 -0.1003 -0.1064
  113SAPE   H9Y11839   4.097   1.038   4.071 -0.1245 -1.2814 -1.6802
  113SAPE  C31011840   3.964   0.947   4.227 -0.2478  0.1388  0.5997
  113SAPE  H10X11841   4.043   0.870   4.242  0.8134  0.9284 -0.6856
  113SAPE  H10Y11842   3.870   0.890   4.212  0.4141 -0.1059 -3.9754
  113SAPE  C31111843   3.960   1.047   4.336 -0.3981  0.0619 -0.3786
  113SAPE  H11X11844   3.873   1.116   4.335 -0.4187  0.0814 -2.6366
  113SAPE  H11Y11845   4.050   1.108   4.314 -0.1869 -0.9208 -2.5677
  113SAPE  C31211846   3.997   1.006   4.480 -0.4676  0.3346  0.2235
  113SAPE  H12X11847   4.049   1.096   4.519 -0.9801  0.7776 -0.0956
  113SAPE  H12Y11848   4.060   0.916   4.493 -0.3097  0.2063 -1.2904
  113SAPE  C31311849   3.876   0.965   4.569  0.3382 -0.1762 -0.5416
  113SAPE  H13X11850   3.798   1.044   4.568  1.7873  1.3150 -1.5670
  113SAPE  H13Y11851   3.909   0.938   4.671  0.9028  0.3411 -0.5813
  113SAPE  C31411852   3.817   0.831   4.519  0.1078 -0.3578  0.5953
  113SAPE  H14X11853   3.894   0.751   4.522 -0.7455 -1.3125 -1.4970
  113SAPE  H14Y11854   3.786   0.847   4.414  1.9169 -1.6746 -0.2140
  113SAPE  C31511855   3.700   0.777   4.609  0.2735  0.1199 -0.3170
  113SAPE  H15X11856   3.620   0.854   4.606 -0.4557 -0.6227 -3.5684
  113SAPE  H15Y11857   3.737   0.769   4.714  2.8474 -3.0189 -1.2980
  113SAPE  C31611858   3.629   0.642   4.579  0.0577  0.3137  0.5937
  113SAPE  H16X11859   3.698   0.555   4.584 -1.8491 -1.2516  0.8274
  113SAPE  H16Y11860   3.596   0.647   4.473  0.6848 -1.9642  0.2336
  113SAPE  C31711861   3.505   0.607   4.660  0.1000 -0.1423 -0.5788
  113SAPE  H17X11862   3.425   0.684   4.659 -1.1806 -1.4147 -1.5712
  113SAPE  H17Y11863   3.541   0.602   4.765 -1.8932 -0.7635  0.1350
  113SAPE  C31811864   3.438   0.472   4.622 -0.7405  0.2478 -0.1655
  113SAPE  H18X11865   3.340   0.463   4.674 -0.3763 -0.4276  0.4228
  113SAPE  H18Y11866   3.498   0.382   4.648  0.8990  0.9244 -1.4853
  113SAPE  H18Z11867   3.429   0.462   4.512 -1.1998  0.2698 -0.1310
  114SAPE     N11868   6.487   3.196   2.633 -0.0322  0.7938 -0.3446
  114SAPE   HN111869   6.512   3.296   2.645 -0.3961  0.8164  0.3137
  114SAPE   HN211870   6.566   3.131   2.650 -0.9699 -0.4655 -0.6306
  114SAPE   HN311871   6.458   3.187   2.534 -3.2262 -0.3703  0.5664
  114SAPE   C1211872   6.364   3.158   2.717  0.4691 -0.8955 -0.1919
  114SAPE  H12A11873   6.390   3.158   2.826  0.4844 -1.0583 -0.1964
  114SAPE  H12B11874   6.342   3.057   2.679  0.6783 -0.8296 -0.4886
  114SAPE   C1111875   6.242   3.253   2.698 -0.1841 -0.1582 -0.7114
  114SAPE  H11A11876   6.159   3.197   2.746 -0.0546  0.5916  0.4324
  114SAPE  H11B11877   6.227   3.276   2.591  2.2475 -1.7215 -1.4859
  114SAPE     P11878   6.193   3.496   2.796  0.1928 -0.0210 -0.1669
  114SAPE   O1311879   6.274   3.614   2.756 -0.1174 -0.0671 -0.0026
  114SAPE   O1411880   6.060   3.487   2.739 -0.2204  0.0500 -0.5653
  114SAPE   O1211881   6.278   3.369   2.774  0.1224  0.5688  0.0523
  114SAPE   O1111882   6.176   3.499   2.952 -0.0139  0.0875 -0.6571
  114SAPE    C111883   6.149   3.378   3.022  0.3213  0.2165 -0.1596
  114SAPE    HA11884   6.039   3.368   3.033 -0.0509  2.3631 -1.2899
  114SAPE    HB11885   6.170   3.286   2.963 -0.4067  0.3086 -0.5822
  114SAPE    C211886   6.219   3.374   3.165 -0.3804 -0.5333 -0.0185
  114SAPE    HS11887   6.202   3.479   3.196 -1.0450 -0.6368 -0.0024
  114SAPE   O2111888   6.356   3.338   3.165 -0.2509  0.0907 -0.2835
  114SAPE   C2111889   6.451   3.435   3.148  0.5634 -0.5716 -0.2044
  114SAPE   O2211890   6.422   3.547   3.131  0.0353 -0.4484 -0.2538
  114SAPE   C2211891   6.598   3.375   3.142  1.0582 -0.4746 -0.0069
  114SAPE   H2R11892   6.608   3.342   3.247 -2.3810 -1.2436  0.2130
  114SAPE   H2S11893   6.591   3.297   3.063  1.2939 -0.1584 -0.3420
  114SAPE    C311894   6.138   3.283   3.267 -0.3151  0.4532 -0.5235
  114SAPE    HX11895   6.178   3.182   3.245 -2.5877 -1.3423  2.7493
  114SAPE    HY11896   6.033   3.284   3.231 -0.1859 -2.3926 -1.2164
  114SAPE   O3111897   6.145   3.320   3.405  0.5849 -0.2990  0.7709
  114SAPE   C3111898   6.049   3.402   3.449 -0.3036 -0.6044  0.3490
  114SAPE   O3211899   5.962   3.450   3.376  0.4939  0.3125 -0.0431
  114SAPE   C3211900   6.073   3.449   3.597 -0.2245  0.1233 -0.1520
  114SAPE   H2X11901   6.052   3.558   3.605  0.5560  0.7589 -4.2336
  114SAPE   H2Y11902   6.181   3.440   3.623 -0.7010  0.7771  2.2724
  114SAPE   C2311903   6.705   3.484   3.121  0.2688 -0.2088 -0.2016
  114SAPE   H3R11904   6.672   3.580   3.167 -0.3087  0.0689 -1.1662
  114SAPE   H3S11905   6.715   3.500   3.012 -0.8285  1.8468 -0.0509
  114SAPE   C2411906   6.841   3.444   3.174 -0.3539  0.1507 -0.6380
  114SAPE   H4R11907   6.842   3.425   3.284 -0.5476  0.3468 -0.6019
  114SAPE   H4S11908   6.903   3.536   3.164 -0.8519  0.6353  0.5387
  114SAPE   C2511909   6.902   3.332   3.101 -0.8446 -0.3185  0.4728
  114SAPE   H5R11910   6.902   3.348   2.992  2.0560 -0.9896  0.2924
  114SAPE   C2611911   6.955   3.220   3.151  0.0738 -0.1242 -0.1616
  114SAPE   H6R11912   6.977   3.138   3.081 -1.3519 -0.7347  0.0603
  114SAPE   C2711913   6.973   3.185   3.302 -0.2008 -0.6297  0.7162
  114SAPE   H7R11914   6.908   3.249   3.366  0.3746  0.7004 -0.0002
  114SAPE   H7S11915   7.074   3.223   3.328 -0.4816 -0.4499  1.5569
  114SAPE   C2811916   6.957   3.040   3.307  0.0219 -0.5820  0.3450
  114SAPE   H8R11917   7.009   2.975   3.235  0.3435 -1.7661  1.5955
  114SAPE   C2911918   6.908   2.975   3.413 -0.2504  0.5952 -0.2014
  114SAPE   H9R11919   6.908   2.866   3.402  1.9008  0.4839  0.2762
  114SAPE  C21011920   6.827   3.036   3.527  0.9921 -0.2884 -0.6710
  114SAPE  H10R11921   6.765   2.950   3.560  3.3311 -1.0713  2.1273
  114SAPE  H10S11922   6.751   3.110   3.495 -2.3661 -3.6955 -1.3606
  114SAPE  C21111923   6.908   3.094   3.639 -0.3926 -0.1988 -0.2606
  114SAPE  H11R11924   7.016   3.085   3.623 -0.2702  1.7227 -0.8008
  114SAPE  C21211925   6.868   3.132   3.762 -0.1425  0.2480  0.0819
  114SAPE  H12R11926   6.941   3.178   3.830  0.8765  1.1293 -1.5345
  114SAPE  C21311927   6.721   3.149   3.809  0.1291 -0.0653 -0.0882
  114SAPE  H13R11928   6.709   3.068   3.885  0.3739 -0.8939 -0.9209
  114SAPE  H13S11929   6.645   3.126   3.731  1.5534 -3.2852 -0.7041
  114SAPE  C21411930   6.697   3.282   3.870 -0.0728  0.8507  0.4199
  114SAPE  H14R11931   6.699   3.359   3.791  1.9462 -0.1061 -0.5612
  114SAPE  C21511932   6.685   3.306   4.001 -1.1552  0.5144  0.1451
  114SAPE  H15R11933   6.670   3.411   4.032  1.2030  0.5647  1.2582
  114SAPE  C21611934   6.701   3.211   4.117 -0.1560  0.0142  0.5321
  114SAPE  H16R11935   6.806   3.174   4.111 -0.4816 -0.7447 -0.7822
  114SAPE  H16S11936   6.624   3.131   4.119  0.6951 -0.8580 -0.4143
  114SAPE  C21711937   6.664   3.273   4.253  0.3578  0.0905  0.1922
  114SAPE  H17R11938   6.558   3.306   4.251 -0.0675 -1.1943  0.5571
  114SAPE  H17S11939   6.722   3.365   4.275 -1.9641  1.1497  2.3663
  114SAPE  C21811940   6.685   3.173   4.364 -0.5308 -0.8529 -0.8010
  114SAPE  H18R11941   6.796   3.169   4.373 -0.5945 -0.4289  0.4410
  114SAPE  H18S11942   6.635   3.075   4.350  1.6933 -1.8908 -2.0918
  114SAPE  C21911943   6.640   3.226   4.504  0.0123  0.4004 -0.8390
  114SAPE  H19R11944   6.535   3.262   4.491 -0.9543 -1.7392  0.5077
  114SAPE  H19S11945   6.713   3.301   4.542 -0.4785  0.2645  0.4093
  114SAPE  C22011946   6.630   3.108   4.604 -0.4253  1.1375 -0.3725
  114SAPE  H20R11947   6.576   3.025   4.554 -1.9645  1.8806 -0.0317
  114SAPE  H20S11948   6.579   3.137   4.699 -2.6593 -3.6866  0.1558
  114SAPE  H20T11949   6.730   3.065   4.622 -0.9474 -0.2510 -0.7056
  114SAPE   C3311950   6.016   3.364   3.710  0.2409 -0.0287 -0.2380
  114SAPE   H3X11951   6.062   3.387   3.808  1.7838 -2.9092 -0.1958
  114SAPE   H3Y11952   6.028   3.255   3.696  1.5787  0.0879 -0.1172
  114SAPE   C3411953   5.866   3.391   3.725  0.2866  0.1545 -0.2520
  114SAPE   H4X11954   5.825   3.369   3.624 -1.3862 -0.1708  0.4621
  114SAPE   H4Y11955   5.858   3.494   3.765 -0.2954  0.6731 -1.6358
  114SAPE   C3511956   5.793   3.300   3.833 -0.8236 -0.0806  0.3499
  114SAPE   H5X11957   5.690   3.334   3.856 -1.0821  0.8040 -1.8641
  114SAPE   H5Y11958   5.844   3.307   3.931  1.3161  0.2804 -0.7257
  114SAPE   C3611959   5.772   3.156   3.793  0.2284 -0.1570  0.3588
  114SAPE   H6X11960   5.867   3.098   3.788  0.8870  1.0127 -1.2864
  114SAPE   H6Y11961   5.715   3.146   3.699  2.4916  0.9954 -1.2209
  114SAPE   C3711962   5.679   3.086   3.901  0.1384 -0.2721 -0.4787
  114SAPE   H7X11963   5.641   2.995   3.850 -2.6342  0.2586  0.4504
  114SAPE   H7Y11964   5.596   3.159   3.911  0.1092 -0.5573  1.9891
  114SAPE   C3811965   5.743   3.063   4.040  0.0764 -0.4045  0.2784
  114SAPE   H8X11966   5.775   3.165   4.071 -0.5955  0.4036 -1.5468
  114SAPE   H8Y11967   5.833   2.999   4.049  1.0048  1.0137  1.8709
  114SAPE   C3911968   5.634   3.031   4.145 -0.4540  0.6362 -0.3302
  114SAPE   H9X11969   5.589   2.932   4.124  0.2230  0.2906 -0.1799
  114SAPE   H9Y11970   5.559   3.112   4.133  0.2857  1.2767 -0.6895
  114SAPE  C31011971   5.698   3.014   4.290 -0.3550 -0.2587  1.0420
  114SAPE  H10X11972   5.702   3.109   4.348 -0.2121 -1.3144  2.8600
  114SAPE  H10Y11973   5.802   2.978   4.304  0.1330  1.5018  2.2981
  114SAPE  C31111974   5.605   2.920   4.371 -0.2144 -0.4892 -0.3639
  114SAPE  H11X11975   5.592   2.828   4.310  4.5033 -0.5096 -1.7063
  114SAPE  H11Y11976   5.515   2.985   4.377  1.2965  1.8062 -1.1989
  114SAPE  C31211977   5.660   2.875   4.508  0.1138 -0.1146 -0.1103
  114SAPE  H12X11978   5.660   2.970   4.566 -1.2408  0.7351 -1.4178
  114SAPE  H12Y11979   5.765   2.840   4.515 -0.1148 -0.6380  1.0767
  114SAPE  C31311980   5.567   2.776   4.586  0.0638 -0.6873  0.8383
  114SAPE  H13X11981   5.594   2.674   4.551 -1.0150 -0.5713 -0.4109
  114SAPE  H13Y11982   5.462   2.801   4.558  0.7251 -0.1300 -1.3536
  114SAPE  C31411983   5.579   2.804   4.736 -0.0605  0.3544  0.5333
  114SAPE  H14X11984   5.663   2.874   4.756  1.7529 -1.4627 -0.3677
  114SAPE  H14Y11985   5.615   2.705   4.771  2.3720 -0.0403 -2.5445
  114SAPE  C31511986   5.448   2.829   4.808 -0.1765  0.2726  0.1551
  114SAPE  H15X11987   5.384   2.739   4.803 -2.2561  1.6956 -0.2519
  114SAPE  H15Y11988   5.385   2.907   4.760  0.1433  1.0051  0.8919
  114SAPE  C31611989   5.465   2.870   4.957  0.1594 -0.0797 -0.0006
  114SAPE  H16X11990   5.552   2.938   4.963 -0.8856  1.1789  2.4179
  114SAPE  H16Y11991   5.485   2.785   5.025  2.0761  0.5188  0.2283
  114SAPE  C31711992   5.341   2.945   5.016 -0.4038  0.2581  0.0588
  114SAPE  H17X11993   5.250   2.882   5.009 -0.7637  0.8998 -1.5458
  114SAPE  H17Y11994   5.325   3.033   4.950  0.6389  0.1438 -0.3760
  114SAPE  C31811995   5.362   2.980   5.166  0.2494 -0.0870 -0.4872
  114SAPE  H18X11996   5.268   3.037   5.184  0.3519 -0.6825  2.4770
  114SAPE  H18Y11997   5.449   3.047   5.180 -1.3049  1.7420  1.0147
  114SAPE  H18Z11998   5.373   2.890   5.231  2.8449  1.9050  2.0663
  115SAPE     N11999   4.075   3.661   2.508  0.5390  0.2005 -0.5455
  115SAPE   HN112000   4.148   3.589   2.491  1.6541  0.6792  1.7866
  115SAPE   HN212001   4.082   3.698   2.605 -2.2308  0.5439 -0.3850
  115SAPE   HN312002   3.981   3.618   2.493  0.9676 -1.9388  2.0083
  115SAPE   C1212003   4.101   3.773   2.414  0.4807  0.6624  0.1494
  115SAPE  H12A12004   4.142   3.860   2.469 -1.6054  2.8341 -1.5462
  115SAPE  H12B12005   4.008   3.795   2.358 -0.1529  0.3008  1.0265
  115SAPE   C1112006   4.205   3.724   2.320  0.1273 -0.3777 -0.5216
  115SAPE  H11A12007   4.219   3.783   2.228 -0.7252  0.2293 -0.2708
  115SAPE  H11B12008   4.169   3.629   2.275  0.8807 -0.3739 -1.1448
  115SAPE     P12009   4.435   3.790   2.407 -0.1551  0.1982 -0.2343
  115SAPE   O1312010   4.567   3.766   2.343 -0.2960  0.6940 -0.0957
  115SAPE   O1412011   4.377   3.923   2.393  0.0876  0.5471  0.2249
  115SAPE   O1212012   4.326   3.677   2.376 -0.6598  0.0712  0.7117
  115SAPE   O1112013   4.468   3.764   2.560  0.0207 -0.6667 -0.2184
  115SAPE    C112014   4.418   3.668   2.647  0.2953  0.8374 -0.5490
  115SAPE    HA12015   4.314   3.698   2.670  0.1353  0.5472 -0.8850
  115SAPE    HB12016   4.417   3.570   2.594  0.2529  0.9127 -0.6866
  115SAPE    C212017   4.506   3.661   2.786  0.8582  1.2677 -0.1285
  115SAPE    HS12018   4.452   3.608   2.867 -0.2992  3.3770  0.5531
  115SAPE   O2112019   4.537   3.799   2.824  0.3423  0.4265  0.4138
  115SAPE   C2112020   4.434   3.860   2.880  0.0881  0.6514  0.4328
  115SAPE   O2212021   4.325   3.814   2.899 -0.1610 -0.3104 -0.1110
  115SAPE   C2212022   4.485   3.999   2.927  0.9599  0.5686 -0.5363
  115SAPE   H2R12023   4.574   3.985   2.991 -0.6703  3.0535  2.5435
  115SAPE   H2S12024   4.506   4.054   2.832  1.5928  1.1050 -0.0980
  115SAPE    C312025   4.641   3.591   2.766  0.4067  0.2742  0.4214
  115SAPE    HX12026   4.704   3.641   2.690 -1.0210  1.0011 -0.3288
  115SAPE    HY12027   4.615   3.491   2.726  1.9664  0.4459 -1.0890
  115SAPE   O3112028   4.703   3.571   2.892  0.4492  0.0025 -0.7378
  115SAPE   C3112029   4.786   3.662   2.946  0.5959 -0.0295  0.2708
  115SAPE   O3212030   4.804   3.769   2.891 -0.4711  0.2457 -0.0669
  115SAPE   C3212031   4.827   3.625   3.082  0.1015  0.6551 -0.4242
  115SAPE   H2X12032   4.912   3.686   3.118 -0.6922  0.5404  1.8307
  115SAPE   H2Y12033   4.846   3.516   3.077 -0.5059  0.5591 -0.7806
  115SAPE   C2312034   4.369   4.081   2.984 -0.2090  0.3316 -0.5731
  115SAPE   H3R12035   4.285   4.056   2.916 -0.3030 -0.6354 -0.1206
  115SAPE   H3S12036   4.384   4.191   2.992  0.9085  0.0831  1.6568
  115SAPE   C2412037   4.325   4.049   3.130  0.4334  0.6940  0.9546
  115SAPE   H4R12038   4.407   4.092   3.192  1.8454  0.1811 -0.4833
  115SAPE   H4S12039   4.313   3.939   3.135 -2.1822  0.9261  1.1036
  115SAPE   C2512040   4.187   4.105   3.172 -0.0197 -0.2664  0.2847
  115SAPE   H5R12041   4.096   4.063   3.127  0.0180 -1.8907  1.6105
  115SAPE   C2612042   4.169   4.200   3.266 -0.1991 -0.2261  0.2925
  115SAPE   H6R12043   4.062   4.218   3.285 -0.7874 -0.5297 -2.3221
  115SAPE   C2712044   4.276   4.274   3.344 -0.7202  0.1034 -0.6395
  115SAPE   H7R12045   4.365   4.213   3.369 -0.5479  0.5546 -0.1369
  115SAPE   H7S12046   4.240   4.308   3.443  0.4765 -0.9198  0.1754
  115SAPE   C2812047   4.323   4.396   3.268  0.5447 -0.8271 -0.0605
  115SAPE   H8R12048   4.360   4.377   3.166 -1.4163  0.0252 -0.9868
  115SAPE   C2912049   4.321   4.524   3.314  0.1653 -0.4024  0.1168
  115SAPE   H9R12050   4.369   4.594   3.244  1.3713 -0.0935  1.2156
  115SAPE  C21012051   4.282   4.582   3.442 -0.4894 -0.2092 -0.0011
  115SAPE  H10R12052   4.346   4.670   3.461  0.0184 -0.2376 -1.4384
  115SAPE  H10S12053   4.300   4.507   3.521  1.1579  1.2355  1.0604
  115SAPE  C21112054   4.140   4.624   3.444  0.1047 -0.1389  0.4257
  115SAPE  H11R12055   4.095   4.638   3.345  0.1166 -1.2695  0.2571
  115SAPE  C21212056   4.054   4.635   3.546  0.2805 -0.3967 -0.0022
  115SAPE  H12R12057   3.953   4.666   3.517  0.0925  1.3977  2.3271
  115SAPE  C21312058   4.076   4.601   3.687  0.2634  0.2992 -0.7133
  115SAPE  H13R12059   3.991   4.640   3.746  0.8529  0.2945  0.1658
  115SAPE  H13S12060   4.166   4.664   3.705  0.4794 -0.4652  1.1578
  115SAPE  C21412061   4.089   4.453   3.725 -0.1860  0.0261 -0.0705
  115SAPE  H14R12062   4.098   4.375   3.648  0.5261 -0.4142  0.4430
  115SAPE  C21512063   4.087   4.417   3.856 -1.0051 -0.0690  0.2874
  115SAPE  H15R12064   4.119   4.314   3.876  1.6049  0.9077  1.6218
  115SAPE  C21612065   4.080   4.497   3.987  0.3396  0.1601  0.1273
  115SAPE  H16R12066   4.139   4.591   3.979 -0.2461  0.3704 -2.6134
  115SAPE  H16S12067   4.128   4.441   4.069  0.4341  0.4665  0.2837
  115SAPE  C21712068   3.937   4.527   4.022 -0.7137  0.2023  0.0933
  115SAPE  H17R12069   3.883   4.576   3.938 -0.7686  2.4382  1.3597
  115SAPE  H17S12070   3.929   4.596   4.108 -0.8299  1.0990 -0.6159
  115SAPE  C21812071   3.862   4.398   4.062 -0.0716 -0.0139  0.2357
  115SAPE  H18R12072   3.921   4.359   4.148  1.4910 -1.2994 -1.3547
  115SAPE  H18S12073   3.847   4.310   3.996 -2.1701  0.8792 -0.5698
  115SAPE  C21912074   3.715   4.415   4.108 -0.7791  0.1814  0.4693
  115SAPE  H19R12075   3.646   4.471   4.041 -1.3893 -0.6264  0.4064
  115SAPE  H19S12076   3.726   4.472   4.203  0.3590  0.3471  0.2494
  115SAPE  C22012077   3.649   4.280   4.138 -0.7317  0.5204 -0.2382
  115SAPE  H20R12078   3.582   4.291   4.226 -1.9030  1.6059 -1.2199
  115SAPE  H20S12079   3.727   4.212   4.177 -0.7105  0.8472  0.3007
  115SAPE  H20T12080   3.590   4.235   4.055 -0.6136 -1.0388  0.4948
  115SAPE   C3312081   4.711   3.661   3.179  0.3086  0.0998 -1.0259
  115SAPE   H3X12082   4.733   3.608   3.274 -0.2546  1.2127 -0.2606
  115SAPE   H3Y12083   4.617   3.614   3.145 -0.1233  1.1174 -1.2831
  115SAPE   C3412084   4.695   3.809   3.215  0.0206  0.2827  0.8209
  115SAPE   H4X12085   4.654   3.857   3.123  0.1075  0.3486  0.8162
  115SAPE   H4Y12086   4.796   3.855   3.221  1.2254 -2.1312  0.3172
  115SAPE   C3512087   4.597   3.839   3.327  0.0109 -0.1584  0.4051
  115SAPE   H5X12088   4.497   3.806   3.291  0.6130  1.1645 -2.7980
  115SAPE   H5Y12089   4.595   3.949   3.343 -0.1640  0.0577 -1.0178
  115SAPE   C3612090   4.641   3.771   3.455  0.7906  0.5878 -0.0158
  115SAPE   H6X12091   4.751   3.784   3.465  1.0301 -1.8542  1.4127
  115SAPE   H6Y12092   4.632   3.661   3.443 -0.7962  0.7729 -0.7996
  115SAPE   C3712093   4.562   3.818   3.574  0.4059  0.0047 -1.1084
  115SAPE   H7X12094   4.454   3.799   3.558  0.0472  0.6211  0.3591
  115SAPE   H7Y12095   4.570   3.929   3.581  0.1202  0.0641 -1.6293
  115SAPE   C3812096   4.612   3.751   3.697  0.0745 -0.0892  0.7638
  115SAPE   H8X12097   4.719   3.778   3.710  0.0848  2.7553 -3.5222
  115SAPE   H8Y12098   4.597   3.642   3.685  0.8813 -0.0243 -1.0860
  115SAPE   C3912099   4.544   3.801   3.826 -0.5438  0.6224  0.1884
  115SAPE   H9X12100   4.439   3.772   3.807  0.1952 -1.0204 -1.7750
  115SAPE   H9Y12101   4.553   3.912   3.827  0.2657  0.5621  0.2496
  115SAPE  C31012102   4.604   3.727   3.944  0.0076 -0.2251  0.7658
  115SAPE  H10X12103   4.706   3.757   3.978 -0.7047  2.7689  0.5680
  115SAPE  H10Y12104   4.598   3.618   3.929 -2.7356 -0.3592  2.2174
  115SAPE  C31112105   4.517   3.759   4.067 -0.4533  1.1770 -0.0677
  115SAPE  H11X12106   4.414   3.753   4.028 -0.5122 -0.9675  0.2913
  115SAPE  H11Y12107   4.532   3.861   4.108 -0.4479  1.3479 -0.4932
  115SAPE  C31212108   4.548   3.669   4.186  0.2870 -0.2783 -1.4077
  115SAPE  H12X12109   4.658   3.660   4.201  0.0695 -0.2127  0.4910
  115SAPE  H12Y12110   4.511   3.566   4.168  0.3679 -0.9557  1.6915
  115SAPE  C31312111   4.481   3.709   4.315  0.2605  0.2984 -0.4276
  115SAPE  H13X12112   4.376   3.672   4.314  0.7326 -1.0643 -0.4236
  115SAPE  H13Y12113   4.487   3.820   4.321  4.9911  0.1308  2.9818
  115SAPE  C31412114   4.549   3.652   4.445  0.4370 -0.5287  0.3995
  115SAPE  H14X12115   4.639   3.717   4.456 -0.2124  0.5954 -0.7716
  115SAPE  H14Y12116   4.596   3.551   4.443  0.5936 -0.5297  2.0500
  115SAPE  C31512117   4.459   3.657   4.567  0.1600 -0.0788 -0.4871
  115SAPE  H15X12118   4.373   3.591   4.544  0.2910 -0.0857 -0.9782
  115SAPE  H15Y12119   4.423   3.760   4.582  0.0944 -0.0244 -0.9961
  115SAPE  C31612120   4.525   3.617   4.707  0.6006  0.1025  0.2005
  115SAPE  H16X12121   4.620   3.673   4.720  0.7529  0.6359 -2.6320
  115SAPE  H16Y12122   4.551   3.510   4.690 -3.2067 -0.8064 -0.7613
  115SAPE  C31712123   4.428   3.615   4.828 -0.3895  0.0753 -0.1154
  115SAPE  H17X12124   4.331   3.565   4.806 -0.1431  0.0024 -1.1156
  115SAPE  H17Y12125   4.417   3.720   4.860  0.8132 -0.2515  1.5035
  115SAPE  C31812126   4.492   3.556   4.954 -0.4057 -0.0505  0.3144
  115SAPE  H18X12127   4.598   3.586   4.969  0.1942 -1.5843 -0.5770
  115SAPE  H18Y12128   4.496   3.446   4.937 -0.8630  0.0285 -0.3282
  115SAPE  H18Z12129   4.430   3.570   5.045 -1.1894 -0.7786 -0.0994
  116SAPE     N12130   4.752   5.359   2.301  0.0189  0.0709  0.0726
  116SAPE   HN112131   4.650   5.337   2.307 -0.0405  0.7227  1.9954
  116SAPE   HN212132   4.775   5.452   2.261  0.7641 -0.8452 -1.7525
  116SAPE   HN312133   4.800   5.298   2.232  0.5004 -0.2160  0.6573
  116SAPE   C1212134   4.804   5.338   2.442  0.4337 -0.1366 -0.4408
  116SAPE  H12A12135   4.914   5.351   2.443  0.4556 -0.0913 -1.9219
  116SAPE  H12B12136   4.781   5.232   2.466 -1.1616  0.2013 -0.3510
  116SAPE   C1112137   4.736   5.432   2.545  0.2530 -0.2157  0.3008
  116SAPE  H11A12138   4.782   5.427   2.646  2.6904 -1.1744 -0.7866
  116SAPE  H11B12139   4.635   5.393   2.571 -0.3747  1.6026  0.7212
  116SAPE     P12140   4.839   5.678   2.518 -0.0805  0.2130 -0.4277
  116SAPE   O1312141   4.968   5.641   2.457  0.0561  0.1938  0.2123
  116SAPE   O1412142   4.778   5.806   2.476  0.1301  0.3460 -0.4511
  116SAPE   O1212143   4.716   5.571   2.492 -0.4281  0.5605 -0.8992
  116SAPE   O1112144   4.863   5.678   2.669  0.1410 -0.2501 -0.2034
  116SAPE    C112145   4.741   5.714   2.747  0.0395 -0.3882 -0.4488
  116SAPE    HA12146   4.643   5.721   2.696 -0.5845 -0.3844  0.7197
  116SAPE    HB12147   4.728   5.637   2.826  0.2296  0.6696  0.6276
  116SAPE    C212148   4.761   5.840   2.829 -0.4238  0.1127 -0.2331
  116SAPE    HS12149   4.785   5.912   2.747 -2.4727 -1.0139 -1.9109
  116SAPE   O2112150   4.872   5.812   2.921  1.1522 -0.6481 -0.3150
  116SAPE   C2112151   4.917   5.917   2.985  0.2725  0.3653 -0.2233
  116SAPE   O2212152   4.887   6.031   2.954 -0.4377 -0.8779 -0.1092
  116SAPE   C2212153   5.008   5.887   3.094 -0.0795  0.0369 -0.3332
  116SAPE   H2R12154   5.007   5.780   3.122  1.8223 -0.2296 -1.0927
  116SAPE   H2S12155   5.105   5.907   3.043 -0.4967  0.9605 -0.7790
  116SAPE    C312156   4.636   5.888   2.896 -0.3760  0.1139  0.3314
  116SAPE    HX12157   4.555   5.876   2.822 -1.1732  3.1540  0.5743
  116SAPE    HY12158   4.634   5.998   2.908 -1.1804  0.3334 -1.4552
  116SAPE   O3112159   4.612   5.823   3.021  0.2582 -0.4910  0.1272
  116SAPE   C3112160   4.490   5.851   3.074 -0.3953 -0.4994  0.2724
  116SAPE   O3212161   4.406   5.915   3.014 -0.6801 -0.0027 -0.3273
  116SAPE   C3212162   4.475   5.771   3.205  0.6265 -0.3307 -0.1010
  116SAPE   H2X12163   4.560   5.790   3.275 -0.1287  0.9438  0.5148
  116SAPE   H2Y12164   4.466   5.665   3.176 -1.4978  0.0886 -1.1353
  116SAPE   C2312165   4.982   5.966   3.230 -1.0233  0.1770  0.4419
  116SAPE   H3R12166   4.975   6.075   3.207  2.4951  0.4125 -0.0129
  116SAPE   H3S12167   5.076   5.960   3.289 -2.3415  2.1254  2.9852
  116SAPE   C2412168   4.862   5.902   3.314  0.3087 -0.0402  0.5338
  116SAPE   H4R12169   4.777   5.875   3.248  0.1977  0.5748  0.4199
  116SAPE   H4S12170   4.836   5.980   3.388  2.6164 -0.1506  1.5558
  116SAPE   C2512171   4.918   5.788   3.398 -0.4048 -0.3028 -0.6496
  116SAPE   H5R12172   4.987   5.831   3.472  1.0919 -3.4278 -0.0796
  116SAPE   C2612173   4.880   5.662   3.395 -0.8004 -0.0015 -0.0977
  116SAPE   H6R12174   4.931   5.594   3.465  0.5478  1.4366  0.3630
  116SAPE   C2712175   4.777   5.602   3.306  0.8384  0.0693  0.3736
  116SAPE   H7R12176   4.755   5.650   3.207  1.9559  0.8000  0.4625
  116SAPE   H7S12177   4.684   5.604   3.366  0.1183 -0.1178 -0.6980
  116SAPE   C2812178   4.796   5.454   3.286 -0.1781  0.2927  0.1849
  116SAPE   H8R12179   4.837   5.439   3.185  0.5250  0.5700  0.4271
  116SAPE   C2912180   4.777   5.349   3.372  0.2226 -0.5287  0.0084
  116SAPE   H9R12181   4.818   5.251   3.345  0.6944 -0.8163  1.6660
  116SAPE  C21012182   4.733   5.362   3.521  0.0260  0.8275 -0.4889
  116SAPE  H10R12183   4.735   5.468   3.554  0.5975  0.6256  0.1525
  116SAPE  H10S12184   4.809   5.312   3.585  0.5439  4.0535  1.6601
  116SAPE  C21112185   4.594   5.297   3.537 -0.3219 -0.5159  0.2452
  116SAPE  H11R12186   4.539   5.289   3.442  0.6739 -0.0432 -0.3791
  116SAPE  C21212187   4.535   5.288   3.653 -0.2858 -0.1590 -1.1401
  116SAPE  H12R12188   4.440   5.233   3.652  1.5297 -3.5226 -3.1866
  116SAPE  C21312189   4.608   5.321   3.780  0.0392  0.3428 -1.1078
  116SAPE  H13R12190   4.533   5.353   3.855 -0.0433  0.9728 -1.4506
  116SAPE  H13S12191   4.673   5.411   3.771 -0.2938  0.5991 -0.9583
  116SAPE  C21412192   4.689   5.200   3.829  0.1967  0.9507  0.6772
  116SAPE  H14R12193   4.719   5.120   3.760 -0.4062 -1.1178  2.6839
  116SAPE  C21512194   4.720   5.176   3.958  0.2302 -0.2524  0.1849
  116SAPE  H15R12195   4.770   5.080   3.972  0.2891 -0.3149 -0.4650
  116SAPE  C21612196   4.705   5.259   4.082  0.1791  0.7561  0.2575
  116SAPE  H16R12197   4.619   5.235   4.148  1.1264  1.0493  1.6277
  116SAPE  H16S12198   4.700   5.362   4.039 -0.6063  0.5016 -0.2792
  116SAPE  C21712199   4.829   5.241   4.176 -0.0928  0.0111 -0.4707
  116SAPE  H17R12200   4.889   5.149   4.163  0.2982 -0.1103  1.8000
  116SAPE  H17S12201   4.790   5.240   4.280 -1.6938 -0.4791 -1.0363
  116SAPE  C21812202   4.918   5.364   4.170  0.3178  0.0492 -0.2566
  116SAPE  H18R12203   4.853   5.453   4.159  1.3549  0.6616 -1.6385
  116SAPE  H18S12204   4.981   5.361   4.079  0.3794  1.4114 -0.2802
  116SAPE  C21912205   4.987   5.394   4.297 -0.4776 -0.9562  0.1215
  116SAPE  H19R12206   5.066   5.321   4.326 -1.3081 -1.3082  1.5394
  116SAPE  H19S12207   4.920   5.413   4.382  2.0589  1.9033  1.7018
  116SAPE  C22012208   5.069   5.527   4.280 -0.4030  0.4322  0.1211
  116SAPE  H20R12209   5.131   5.547   4.370  1.6443 -0.1133 -1.1006
  116SAPE  H20S12210   5.012   5.621   4.258  0.0954  0.9153  0.8527
  116SAPE  H20T12211   5.134   5.511   4.191  0.0581  3.8771 -0.3041
  116SAPE   C3312212   4.350   5.813   3.288 -0.8138 -0.4308  0.4858
  116SAPE   H3X12213   4.255   5.773   3.246 -0.5177 -0.7034  0.0676
  116SAPE   H3Y12214   4.351   5.923   3.302 -2.8147 -0.1872 -1.0082
  116SAPE   C3412215   4.354   5.756   3.433  0.5894 -0.5620  0.1952
  116SAPE   H4X12216   4.356   5.645   3.431 -1.7426 -0.6594 -0.6994
  116SAPE   H4Y12217   4.259   5.781   3.486  0.3501 -0.0718 -0.4513
  116SAPE   C3512218   4.466   5.816   3.525 -0.6726 -0.0111 -0.3955
  116SAPE   H5X12219   4.502   5.915   3.489  2.1154 -0.9625 -0.4607
  116SAPE   H5Y12220   4.548   5.742   3.541 -0.2597  0.3849 -0.6633
  116SAPE   C3612221   4.424   5.833   3.674  0.0553  0.1338  0.9448
  116SAPE   H6X12222   4.328   5.887   3.687  0.8484  1.4262  1.6834
  116SAPE   H6Y12223   4.496   5.908   3.713  0.8127  0.2114 -0.5392
  116SAPE   C3712224   4.419   5.705   3.749 -0.7141  0.1541  1.2382
  116SAPE   H7X12225   4.516   5.652   3.757 -1.6823 -1.9141  0.0857
  116SAPE   H7Y12226   4.351   5.628   3.706  0.3839  0.6463 -1.5805
  116SAPE   C3812227   4.382   5.727   3.894  0.1904 -0.5301  0.8939
  116SAPE   H8X12228   4.273   5.715   3.908  0.5926 -1.2960  4.4616
  116SAPE   H8Y12229   4.418   5.828   3.922  0.0092  0.8952 -3.2789
  116SAPE   C3912230   4.439   5.621   3.987  0.1533 -0.7783 -0.5868
  116SAPE   H9X12231   4.549   5.629   3.980 -0.0196  0.2455 -3.2590
  116SAPE   H9Y12232   4.401   5.521   3.956  2.0160 -1.2178 -1.6039
  116SAPE  C31012233   4.386   5.631   4.131 -0.4991 -0.1503  0.5668
  116SAPE  H10X12234   4.275   5.618   4.129 -0.6715  1.2733 -1.2351
  116SAPE  H10Y12235   4.390   5.737   4.166 -0.6761 -0.0493  0.2903
  116SAPE  C31112236   4.438   5.533   4.226  0.0523 -0.4929 -0.2431
  116SAPE  H11X12237   4.540   5.575   4.239  0.0325 -0.3459 -0.5495
  116SAPE  H11Y12238   4.449   5.432   4.180  0.7165 -0.4019 -0.2977
  116SAPE  C31212239   4.373   5.529   4.359  0.4431  0.4885  0.6814
  116SAPE  H12X12240   4.264   5.524   4.336  1.0337  2.6943 -3.6687
  116SAPE  H12Y12241   4.403   5.612   4.427 -0.3487  0.6308  0.8652
  116SAPE  C31312242   4.420   5.407   4.444  0.1239 -0.6452  0.0206
  116SAPE  H13X12243   4.389   5.314   4.392  0.3487  0.0174 -1.3713
  116SAPE  H13Y12244   4.371   5.409   4.543 -0.4171 -1.3321 -0.2275
  116SAPE  C31412245   4.574   5.397   4.473 -0.1556 -0.3234 -0.1419
  116SAPE  H14X12246   4.592   5.484   4.540  0.3986 -0.0404 -0.6557
  116SAPE  H14Y12247   4.633   5.419   4.382  1.7171  1.5104  1.4330
  116SAPE  C31512248   4.602   5.271   4.554  0.6098  0.1960  0.0167
  116SAPE  H15X12249   4.639   5.189   4.489 -1.7519  0.7690 -2.2130
  116SAPE  H15Y12250   4.501   5.236   4.586  1.1524 -1.3423  0.1327
  116SAPE  C31612251   4.676   5.300   4.682 -0.1038 -0.0008  0.0765
  116SAPE  H16X12252   4.673   5.209   4.745 -1.8090  0.5907  0.9107
  116SAPE  H16Y12253   4.625   5.380   4.740  1.5423  0.0455  1.5444
  116SAPE  C31712254   4.824   5.330   4.664 -1.1776  0.4792  0.3102
  116SAPE  H17X12255   4.838   5.425   4.609  0.3293 -0.3272 -0.7865
  116SAPE  H17Y12256   4.876   5.257   4.598 -0.2841 -0.0788  1.5786
  116SAPE  C31812257   4.909   5.338   4.798  0.4700  0.1044  0.3836
  116SAPE  H18X12258   4.883   5.425   4.862  0.3624  0.4928 -0.1743
  116SAPE  H18Y12259   5.016   5.360   4.781  1.0706 -0.6260  2.8844
  116SAPE  H18Z12260   4.909   5.238   4.846 -2.1324 -1.3796 -2.4006
  117SOPE     N12261   4.145   6.789   6.961 -0.8295 -0.1907 -0.1000
  117SOPE   HN112262   4.129   6.757   7.059  2.1140  0.4197  0.6552
  117SOPE   HN212263   4.174   6.709   6.902 -0.9070  0.5135 -1.1209
  117SOPE   HN312264   4.222   6.858   6.967 -0.8752  0.0178 -1.5265
  117SOPE   C1212265   4.030   6.843   6.898  0.6056 -0.1475  0.4705
  117SOPE  H12A12266   3.947   6.770   6.893 -0.7600  1.2609  1.4110
  117SOPE  H12B12267   4.050   6.876   6.794 -2.5364 -2.1720 -0.8885
  117SOPE   C1112268   3.980   6.963   6.968  0.1874 -0.1364 -0.1687
  117SOPE  H11A12269   3.903   7.023   6.915 -0.0051  0.5123  0.8186
  117SOPE  H11B12270   4.064   7.035   6.968  0.1337 -0.0702  0.2678
  117SOPE     P12271   3.901   7.060   7.191  0.2872  0.2472  0.1810
  117SOPE   O1312272   4.019   7.133   7.237 -0.0132 -0.0496  0.6057
  117SOPE   O1412273   3.810   7.000   7.297 -0.1361 -0.1583  0.3910
  117SOPE   O1212274   3.946   6.941   7.101 -0.3021  0.2640 -0.0092
  117SOPE   O1112275   3.810   7.154   7.104 -0.2888  0.0098  0.6620
  117SOPE    C112276   3.672   7.125   7.090  0.6074 -0.5511 -0.0994
  117SOPE    HA12277   3.611   7.195   7.151 -0.4644 -1.1081 -0.5162
  117SOPE    HB12278   3.642   7.024   7.125 -0.4050 -0.4604 -0.6654
  117SOPE    C212279   3.623   7.122   6.940  0.3504 -0.3687  0.3938
  117SOPE    HS12280   3.697   7.061   6.883  3.0209  2.4355  0.5581
  117SOPE   O2112281   3.625   7.262   6.909  0.6579 -0.2169 -0.2141
  117SOPE   C2112282   3.670   7.285   6.787  0.0762  0.1173 -0.2872
  117SOPE   O2212283   3.682   7.209   6.695  0.1192  1.3089 -0.2684
  117SOPE   C2212284   3.714   7.429   6.783  0.0314 -0.3011 -0.0747
  117SOPE   H2R12285   3.786   7.447   6.865 -0.5376  2.5509 -0.0922
  117SOPE   H2S12286   3.628   7.492   6.814 -0.1352 -0.9923  0.9157
  117SOPE    C312287   3.477   7.066   6.914  0.0759  0.6487  0.1930
  117SOPE    HX12288   3.403   7.102   6.988  0.3366 -0.3713  0.9756
  117SOPE    HY12289   3.483   6.956   6.931  1.4785  0.6282 -0.3057
  117SOPE   O3112290   3.428   7.100   6.783  0.1377  0.0900 -0.0439
  117SOPE   C3112291   3.438   7.005   6.690 -0.6346  0.1789 -0.1755
  117SOPE   O3212292   3.492   6.894   6.704 -0.1576  0.2564  0.0041
  117SOPE   C3212293   3.361   7.036   6.559 -0.3587 -0.3386  0.4581
  117SOPE   H2X12294   3.302   7.129   6.577 -0.3068 -0.2015 -0.0553
  117SOPE   H2Y12295   3.309   6.942   6.532  2.0312 -1.7622  0.5537
  117SOPE   C2312296   3.768   7.472   6.641  0.1884  0.1073 -1.4918
  117SOPE   H3R12297   3.839   7.398   6.600 -0.1100 -0.3568 -1.1725
  117SOPE   H3S12298   3.810   7.574   6.655  1.6886 -0.7230  0.3161
  117SOPE   C2412299   3.661   7.491   6.537 -0.1265 -0.6402  0.4274
  117SOPE   H4R12300   3.601   7.400   6.515 -1.0131  0.2566 -1.0858
  117SOPE   H4S12301   3.579   7.563   6.561 -2.1213 -2.9769  1.0115
  117SOPE   C2512302   3.726   7.548   6.407 -0.0947  0.4698 -0.7705
  117SOPE   H5R12303   3.783   7.639   6.438  1.0085 -0.6287  0.5621
  117SOPE   H5S12304   3.799   7.472   6.372  1.5795  2.3354 -1.6076
  117SOPE   C2612305   3.622   7.566   6.298  0.7794 -0.7110 -0.5715
  117SOPE   H6R12306   3.536   7.623   6.340  1.1729 -1.1775  0.9213
  117SOPE   H6S12307   3.664   7.628   6.216 -1.9182  0.9580 -0.7940
  117SOPE   C2712308   3.567   7.431   6.240  0.9558 -0.5428  0.1335
  117SOPE   H7R12309   3.647   7.365   6.199  0.2943  0.2433 -2.6529
  117SOPE   H7S12310   3.521   7.374   6.323  0.4351 -0.7340 -0.2787
  117SOPE   C2812311   3.459   7.463   6.132 -0.3851  0.6919 -0.3722
  117SOPE   H8R12312   3.424   7.366   6.091  0.5565 -0.9032  2.3668
  117SOPE   H8S12313   3.374   7.494   6.196  2.2667  2.3325  2.6126
  117SOPE   C2912314   3.502   7.563   6.023  0.5774 -0.1271  1.2114
  117SOPE   H9112315   3.523   7.664   6.061 -0.2525  0.2445  0.7067
  117SOPE  C21012316   3.527   7.536   5.892 -0.2225 -0.4684  0.2283
  117SOPE  H10112317   3.547   7.623   5.826 -0.0420  0.3663  1.3549
  117SOPE  C21112318   3.496   7.410   5.825  0.0857  0.2161  0.6817
  117SOPE  H11R12319   3.429   7.343   5.883  0.3489  1.1591  2.1354
  117SOPE  H11S12320   3.586   7.350   5.803 -1.3208 -1.3057 -1.3497
  117SOPE  C21212321   3.414   7.426   5.695 -0.6105 -1.0761 -0.6505
  117SOPE  H12R12322   3.336   7.502   5.717  0.7097  0.0533  0.3961
  117SOPE  H12S12323   3.349   7.342   5.665 -1.8118 -0.3373 -0.1909
  117SOPE  C21312324   3.502   7.469   5.575  0.4342 -0.0646 -0.0472
  117SOPE  H13R12325   3.541   7.372   5.537 -0.0860  0.3337 -1.6996
  117SOPE  H13S12326   3.595   7.526   5.598 -0.1221  0.5879  0.6142
  117SOPE  C21412327   3.441   7.553   5.454 -0.5695  0.1564  0.5114
  117SOPE  H14R12328   3.446   7.660   5.482 -2.3140  0.1953  0.7955
  117SOPE  H14S12329   3.333   7.531   5.440 -0.8172  0.8114  1.3051
  117SOPE  C21512330   3.519   7.532   5.318  0.0156 -0.2332  0.3981
  117SOPE  H15R12331   3.622   7.572   5.333 -0.0966 -0.2095  1.1103
  117SOPE  H15S12332   3.469   7.604   5.250 -0.6109 -0.7145  0.3427
  117SOPE  C21612333   3.509   7.390   5.264 -0.0817  0.2194 -0.5218
  117SOPE  H16R12334   3.418   7.376   5.202  0.0113  0.0941 -0.6298
  117SOPE  H16S12335   3.491   7.314   5.343 -0.2286  0.2473 -0.5267
  117SOPE  C21712336   3.635   7.350   5.184 -1.2567  0.2593 -0.1397
  117SOPE  H17R12337   3.684   7.279   5.252 -0.5390 -0.1127 -1.0228
  117SOPE  H17S12338   3.699   7.440   5.173  0.3353 -1.0126 -1.9701
  117SOPE  C21812339   3.602   7.287   5.048  0.2530 -0.0396 -0.4839
  117SOPE  H18R12340   3.693   7.236   5.011  1.6728  2.2408 -0.3282
  117SOPE  H18S12341   3.561   7.357   4.972 -1.9628  0.8121  1.3758
  117SOPE  H18T12342   3.516   7.218   5.065  0.3422  0.0465  0.3466
  117SOPE   C3312343   3.458   7.077   6.438  0.5207 -0.0950  0.0785
  117SOPE   H3X12344   3.530   6.993   6.430  1.3559  0.3534  2.2983
  117SOPE   H3Y12345   3.518   7.163   6.474  0.0086  0.7228 -0.9710
  117SOPE   C3412346   3.391   7.077   6.297 -0.0295 -0.5103  0.2008
  117SOPE   H4X12347   3.324   7.164   6.278 -1.2370 -1.4165  0.2100
  117SOPE   H4Y12348   3.323   6.989   6.303  0.4369 -0.9474 -0.6925
  117SOPE   C3512349   3.496   7.062   6.187  0.2342 -0.3159  0.8707
  117SOPE   H5X12350   3.561   6.972   6.188 -0.8570 -1.1480  2.7187
  117SOPE   H5Y12351   3.550   7.159   6.196 -0.4197  0.3120 -1.3332
  117SOPE   C3612352   3.428   7.057   6.045  0.5344  0.4420  0.5831
  117SOPE   H6X12353   3.379   7.153   6.015  0.7158 -0.1058 -1.6021
  117SOPE   H6Y12354   3.350   6.978   6.052  0.9534  0.0488  0.8106
  117SOPE   C3712355   3.526   7.027   5.934  0.3829  0.3398 -0.1755
  117SOPE   H7X12356   3.554   6.920   5.943 -1.1785 -0.0176  0.8690
  117SOPE   H7Y12357   3.615   7.093   5.947  0.7459  0.3924 -2.4984
  117SOPE   C3812358   3.478   7.059   5.791  0.1808 -0.7659 -0.8505
  117SOPE   H8X12359   3.445   7.165   5.784 -1.4943 -1.1689  0.2501
  117SOPE   H8Y12360   3.388   6.998   5.771 -1.2214  0.5625  1.0144
  117SOPE   C3912361   3.584   7.035   5.686  0.1277 -0.2585  0.3250
  117SOPE   H9X12362   3.614   6.928   5.691 -1.8598 -0.9824 -1.3443
  117SOPE   H9Y12363   3.673   7.094   5.714 -0.0415  0.3696 -0.3989
  117SOPE  C31012364   3.527   7.061   5.543  0.3529  0.3267 -0.0064
  117SOPE  H10X12365   3.501   7.169   5.544  1.7283  0.6815  0.6822
  117SOPE  H10Y12366   3.429   7.009   5.542  1.6826 -2.3147 -0.0365
  117SOPE  C31112367   3.627   7.051   5.424  0.2438 -0.2053  0.3167
  117SOPE  H11X12368   3.710   7.119   5.451 -0.9480  2.0259 -1.3400
  117SOPE  H11Y12369   3.576   7.101   5.339 -1.3544 -1.7990  0.2554
  117SOPE  C31212370   3.667   6.909   5.398 -0.4712  0.3819 -0.1540
  117SOPE  H12X12371   3.576   6.847   5.410 -1.9900  2.9392  3.3078
  117SOPE  H12Y12372   3.738   6.886   5.481  2.2849  3.7559 -1.3059
  117SOPE  C31312373   3.737   6.894   5.261 -0.1166  0.0127 -0.6718
  117SOPE  H13X12374   3.815   6.815   5.260  0.6022  0.6907 -2.7871
  117SOPE  H13Y12375   3.791   6.986   5.232  0.7428 -0.8431 -1.8897
  117SOPE  C31412376   3.625   6.865   5.163 -0.1600  0.6570  0.5330
  117SOPE  H14X12377   3.533   6.926   5.173  0.6826  1.8223  1.3187
  117SOPE  H14Y12378   3.601   6.756   5.157  0.4036  0.5276  0.5442
  117SOPE  C31512379   3.681   6.903   5.020 -0.5134 -0.2884  0.2154
  117SOPE  H15X12380   3.773   6.842   5.014 -1.4171 -1.6718 -0.1071
  117SOPE  H15Y12381   3.705   7.011   5.008 -0.2602 -0.5591 -2.1186
  117SOPE  C31612382   3.586   6.854   4.905 -0.1459  0.3731  0.5061
  117SOPE  H16X12383   3.497   6.919   4.892  0.3238  0.7640 -1.0584
  117SOPE  H16Y12384   3.557   6.755   4.946  2.5761 -0.8423 -0.2365
  117SOPE  C31712385   3.656   6.846   4.768  0.1152 -0.1824 -0.1824
  117SOPE  H17X12386   3.745   6.780   4.780 -0.3432 -1.2657 -2.2950
  117SOPE  H17Y12387   3.703   6.943   4.740  1.1380  0.0231  2.0984
  117SOPE  C31812388   3.572   6.789   4.654 -0.2661  0.5614  0.7972
  117SOPE  H18X12389   3.584   6.681   4.631 -2.7279 -0.2925  2.9074
  117SOPE  H18Y12390   3.576   6.851   4.562  1.7997 -0.7700 -0.0734
  117SOPE  H18Z12391   3.466   6.807   4.684 -0.1566  0.0949  1.4947
  118SOPE     N12392   0.381   1.814   7.092 -0.1477 -0.5884  0.7251
  118SOPE   HN112393   0.421   1.900   7.133 -0.1008 -0.1947 -0.1186
  118SOPE   HN212394   0.335   1.747   7.157 -1.3492 -0.1183  0.3968
  118SOPE   HN312395   0.458   1.758   7.050  0.5023 -0.0634  1.2106
  118SOPE   C1212396   0.287   1.860   6.979  0.0759  0.3639  0.1505
  118SOPE  H12A12397   0.335   1.900   6.887 -0.4101 -1.4202 -0.9303
  118SOPE  H12B12398   0.222   1.938   7.024  0.4663 -0.0209  1.4176
  118SOPE   C1112399   0.208   1.741   6.928 -0.3247  0.3876  0.5395
  118SOPE  H11A12400   0.271   1.666   6.877 -1.6636 -2.1079  2.3172
  118SOPE  H11B12401   0.137   1.789   6.857  0.7845  0.6247 -0.4199
  118SOPE     P12402  -0.012   1.634   7.048 -0.4319  0.2636  0.3063
  118SOPE   O1312403  -0.076   1.688   7.173  0.0951  0.3150  0.9082
  118SOPE   O1412404  -0.010   1.488   7.038  0.9319  0.7327  1.0300
  118SOPE   O1212405   0.140   1.682   7.042  0.5378 -0.0279  0.3675
  118SOPE   O1112406  -0.070   1.703   6.924  0.2484  0.0672 -0.0991
  118SOPE    C112407  -0.138   1.829   6.930  0.2133 -0.5149 -0.2354
  118SOPE    HA12408  -0.066   1.897   6.979  0.9694 -1.9526  0.7472
  118SOPE    HB12409  -0.228   1.835   6.995 -0.1121  0.7472 -0.7884
  118SOPE    C212410  -0.184   1.880   6.791  0.1093  0.2521  0.4111
  118SOPE    HS12411  -0.238   1.976   6.804 -0.4748  0.1921 -1.3481
  118SOPE   O2112412  -0.283   1.781   6.738 -0.4818  0.0187 -0.4664
  118SOPE   C2112413  -0.402   1.792   6.795 -0.1033 -0.6184  0.0297
  118SOPE   O2212414  -0.442   1.866   6.883 -0.2594 -0.3377 -0.1463
  118SOPE   C2212415  -0.490   1.684   6.730  0.3727 -0.6040  0.9149
  118SOPE   H2R12416  -0.545   1.637   6.814 -0.1044  0.2743  1.1051
  118SOPE   H2S12417  -0.426   1.611   6.676  0.7531  0.3784  0.0065
  118SOPE    C312418  -0.062   1.905   6.695  0.2340  0.9153  0.6783
  118SOPE    HX12419  -0.001   1.812   6.689 -0.1848  0.6607  0.2960
  118SOPE    HY12420   0.004   1.987   6.729 -0.1103  1.4538  0.0660
  118SOPE   O3112421  -0.097   1.947   6.558 -0.4936  0.3369 -0.6463
  118SOPE   C3112422  -0.114   1.844   6.469  0.1538  0.1854 -0.2223
  118SOPE   O3212423  -0.100   1.723   6.492  0.3442 -0.7481  0.3636
  118SOPE   C3212424  -0.155   1.890   6.330  0.0089 -0.2141 -0.5072
  118SOPE   H2X12425  -0.054   1.926   6.301 -0.0675  1.9307  1.4883
  118SOPE   H2Y12426  -0.224   1.978   6.336  0.9552  1.0574 -4.6843
  118SOPE   C2312427  -0.598   1.741   6.633  0.1227  0.0324 -0.3797
  118SOPE   H3R12428  -0.648   1.827   6.682 -1.1666  0.3833 -2.1999
  118SOPE   H3S12429  -0.667   1.655   6.615 -0.3245  0.4212 -0.5505
  118SOPE   C2412430  -0.551   1.778   6.491  0.1618  0.9839  0.1990
  118SOPE   H4R12431  -0.466   1.850   6.490 -1.6948  3.4133 -2.5951
  118SOPE   H4S12432  -0.526   1.681   6.443 -1.2270  2.0570 -3.0273
  118SOPE   C2512433  -0.675   1.827   6.405 -0.1619  0.3654 -0.6719
  118SOPE   H5R12434  -0.754   1.750   6.420 -0.2763  0.2866 -1.5912
  118SOPE   H5S12435  -0.713   1.921   6.450  2.3970  0.6835  1.0289
  118SOPE   C2612436  -0.639   1.838   6.259 -0.1027  0.0402 -0.4007
  118SOPE   H6R12437  -0.553   1.909   6.262 -0.7516  0.9117 -1.6691
  118SOPE   H6S12438  -0.590   1.744   6.226  1.6125 -0.1411  2.3234
  118SOPE   C2712439  -0.754   1.875   6.166 -0.4707  0.6245 -0.4088
  118SOPE   H7R12440  -0.814   1.782   6.156 -1.0080  1.0778 -1.6379
  118SOPE   H7S12441  -0.813   1.959   6.209  0.4326  2.6265 -2.8153
  118SOPE   C2812442  -0.717   1.905   6.021  0.5928 -0.2225  0.2799
  118SOPE   H8R12443  -0.653   1.821   5.988  0.1871 -0.9979  1.4387
  118SOPE   H8S12444  -0.811   1.907   5.960  1.0575  1.4533 -0.4533
  118SOPE   C2912445  -0.648   2.036   6.019 -0.1869 -0.4710 -0.1992
  118SOPE   H9112446  -0.543   2.035   6.053 -0.3601  0.2926  0.3879
  118SOPE  C21012447  -0.692   2.148   5.954  0.2333 -0.5324 -0.3051
  118SOPE  H10112448  -0.630   2.239   5.950 -0.6421  0.0645 -0.5807
  118SOPE  C21112449  -0.826   2.166   5.882 -0.2775  0.1484  0.2478
  118SOPE  H11R12450  -0.856   2.273   5.886  0.0253  0.2394  0.1546
  118SOPE  H11S12451  -0.904   2.098   5.921  0.2645 -0.7112 -0.1393
  118SOPE  C21212452  -0.819   2.138   5.733 -0.4498  0.1462  0.5233
  118SOPE  H12R12453  -0.781   2.036   5.711 -1.8225 -0.1667 -0.6142
  118SOPE  H12S12454  -0.745   2.205   5.684 -0.1069 -0.8861 -0.4118
  118SOPE  C21312455  -0.944   2.165   5.656  0.4569 -0.0162 -0.3247
  118SOPE  H13R12456  -1.014   2.080   5.675 -0.9335  0.7146 -1.8715
  118SOPE  H13S12457  -0.914   2.156   5.549  3.1755  3.3195 -0.0115
  118SOPE  C21412458  -1.006   2.298   5.691 -0.4161  0.6352 -0.0182
  118SOPE  H14R12459  -0.931   2.380   5.686  0.7142 -0.4336 -3.4430
  118SOPE  H14S12460  -1.055   2.315   5.789  1.6606  1.9822  0.8590
  118SOPE  C21512461  -1.122   2.333   5.591 -0.0676  0.9553  0.5146
  118SOPE  H15R12462  -1.206   2.265   5.619  2.9813 -3.6207 -0.3157
  118SOPE  H15S12463  -1.091   2.296   5.491  1.1327  3.3958 -0.0734
  118SOPE  C21612464  -1.140   2.480   5.578  0.5907 -0.3403  0.8323
  118SOPE  H16R12465  -1.040   2.521   5.550 -0.8430  2.0479 -1.2408
  118SOPE  H16S12466  -1.163   2.525   5.677  0.5153  1.1761  0.1609
  118SOPE  C21712467  -1.239   2.523   5.481  0.7930  0.3573  1.2382
  118SOPE  H17R12468  -1.339   2.478   5.498 -0.5102  1.4959 -2.3104
  118SOPE  H17S12469  -1.203   2.500   5.378  1.1560  2.5308  0.8221
  118SOPE  C21812470  -1.263   2.673   5.483  0.4693 -0.2930  0.3598
  118SOPE  H18R12471  -1.162   2.716   5.499 -1.0944  4.8305 -1.4849
  118SOPE  H18S12472  -1.331   2.703   5.566  1.9905  1.5994  0.9887
  118SOPE  H18T12473  -1.296   2.715   5.386 -0.5387  0.7939  1.1378
  118SOPE   C3312474  -0.208   1.777   6.242 -0.5092  0.8320  0.0668
  118SOPE   H3X12475  -0.290   1.730   6.300 -1.1137  0.7723 -0.8280
  118SOPE   H3Y12476  -0.124   1.709   6.215 -0.4689  0.4148  1.2007
  118SOPE   C3412477  -0.266   1.810   6.114  0.6191 -0.5069  0.2151
  118SOPE   H4X12478  -0.185   1.857   6.053  2.5778 -1.5744  1.8687
  118SOPE   H4Y12479  -0.341   1.885   6.148 -0.3056 -2.0457  1.6879
  118SOPE   C3512480  -0.349   1.701   6.051  0.6492  0.2234  0.0255
  118SOPE   H5X12481  -0.403   1.753   5.969  1.2618  0.4305 -0.2589
  118SOPE   H5Y12482  -0.426   1.664   6.122  1.2361  1.0231  1.1032
  118SOPE   C3612483  -0.264   1.586   5.987  0.2892 -0.5453 -0.5946
  118SOPE   H6X12484  -0.326   1.497   5.964  1.7630 -1.7203 -0.1679
  118SOPE   H6Y12485  -0.199   1.551   6.070 -2.1167  0.2152  1.7596
  118SOPE   C3712486  -0.169   1.611   5.871 -0.5474 -0.3913 -0.2125
  118SOPE   H7X12487  -0.083   1.541   5.869  0.7687  1.0924 -3.5577
  118SOPE   H7Y12488  -0.106   1.702   5.876  0.7590 -1.2435 -0.4389
  118SOPE   C3812489  -0.249   1.613   5.742  0.5041  0.1264  0.6045
  118SOPE   H8X12490  -0.348   1.660   5.756  0.9695  1.5010 -0.5619
  118SOPE   H8Y12491  -0.269   1.507   5.715  1.2487 -0.0543  0.7292
  118SOPE   C3912492  -0.181   1.675   5.626  0.3191  0.5041 -0.2062
  118SOPE   H9X12493  -0.188   1.786   5.623  1.8631  0.6721  0.8275
  118SOPE   H9Y12494  -0.216   1.637   5.528 -2.0801  4.4755 -1.0740
  118SOPE  C31012495  -0.031   1.629   5.620  0.2527  0.1728  0.1268
  118SOPE  H10X12496  -0.033   1.518   5.609 -0.0508  0.1640  0.2654
  118SOPE  H10Y12497   0.010   1.670   5.714 -2.2990  0.7895  1.0417
  118SOPE  C31112498   0.029   1.699   5.493 -0.5623 -0.2638  0.5261
  118SOPE  H11X12499  -0.036   1.667   5.408  0.3635 -1.6504  0.3079
  118SOPE  H11Y12500   0.125   1.644   5.477 -0.2528  0.4157  0.0110
  118SOPE  C31212501   0.052   1.846   5.488  0.1627  0.6883 -0.3450
  118SOPE  H12X12502   0.124   1.853   5.572  1.3980 -0.6953 -1.2276
  118SOPE  H12Y12503  -0.040   1.898   5.522 -0.9810 -2.3990  1.7131
  118SOPE  C31312504   0.101   1.901   5.353  0.4082 -0.1437  0.0792
  118SOPE  H13X12505   0.124   2.010   5.362 -0.5231  0.1011 -0.3075
  118SOPE  H13Y12506   0.022   1.900   5.274  0.8899  2.7379 -0.5545
  118SOPE  C31412507   0.225   1.841   5.294 -0.7132  0.5115  0.4292
  118SOPE  H14X12508   0.212   1.733   5.275 -0.7427  0.0596  2.6805
  118SOPE  H14Y12509   0.299   1.855   5.376 -0.3745  2.0654 -0.1148
  118SOPE  C31512510   0.289   1.907   5.180 -0.1845 -0.7470 -0.3684
  118SOPE  H15X12511   0.216   1.916   5.097 -0.8544  0.2554  0.2890
  118SOPE  H15Y12512   0.375   1.848   5.143  1.2267 -0.3127  1.9924
  118SOPE  C31612513   0.334   2.053   5.211 -0.1249  0.3648  0.1169
  118SOPE  H16X12514   0.411   2.049   5.291  2.0890 -0.4265 -1.9289
  118SOPE  H16Y12515   0.245   2.111   5.243 -2.2224 -1.1518 -2.5219
  118SOPE  C31712516   0.412   2.129   5.101  0.9108  0.3417  0.5430
  118SOPE  H17X12517   0.347   2.139   5.012  0.7622 -0.1233  0.5966
  118SOPE  H17Y12518   0.500   2.067   5.075  2.4044  1.2604  3.0392
  118SOPE  C31812519   0.459   2.280   5.128  0.2835  0.1984 -0.6245
  118SOPE  H18X12520   0.527   2.280   5.216 -0.4299 -1.9085 -0.0193
  118SOPE  H18Y12521   0.369   2.343   5.141  1.1727  1.5733 -0.9519
  118SOPE  H18Z12522   0.502   2.315   5.031 -2.7036  1.5112 -1.5831
  119SOPE     N12523   1.020   1.863   6.828  0.0252 -0.0624 -0.3784
  119SOPE   HN112524   1.064   1.924   6.900 -2.7817  0.4139  1.0753
  119SOPE   HN212525   1.068   1.774   6.804  2.1809  1.4088 -1.9761
  119SOPE   HN312526   1.009   1.911   6.736 -1.7358 -0.0982 -0.2225
  119SOPE   C1212527   0.886   1.833   6.874 -0.1060 -0.3510 -0.1832
  119SOPE  H12A12528   0.840   1.927   6.913 -0.1138 -0.9368  1.2652
  119SOPE  H12B12529   0.904   1.765   6.960  1.4189  0.5908  0.2645
  119SOPE   C1112530   0.809   1.766   6.763 -0.1555 -0.0170  0.8159
  119SOPE  H11A12531   0.866   1.677   6.728  2.8235  2.0852 -0.0799
  119SOPE  H11B12532   0.790   1.828   6.674  0.3081  1.6160  1.8087
  119SOPE     P12533   0.640   1.599   6.880  0.5779 -0.1281 -0.0171
  119SOPE   O1312534   0.549   1.636   6.989  0.4414  0.3323 -0.6322
  119SOPE   O1412535   0.754   1.515   6.902 -0.1891  0.3000 -0.0886
  119SOPE   O1212536   0.681   1.733   6.814 -0.2863  0.6734 -0.6194
  119SOPE   O1112537   0.553   1.540   6.766 -0.0951  0.1770 -0.0788
  119SOPE    C112538   0.580   1.555   6.627 -0.0152  0.2136  0.5834
  119SOPE    HA12539   0.584   1.454   6.582 -1.4986  0.5999 -0.4811
  119SOPE    HB12540   0.672   1.613   6.604  1.4184 -2.2057 -0.0778
  119SOPE    C212541   0.465   1.641   6.564  0.7092  0.7239 -0.0082
  119SOPE    HS12542   0.450   1.727   6.634 -0.9727 -0.2170  0.8679
  119SOPE   O2112543   0.342   1.567   6.546 -0.5187 -0.2689 -0.1916
  119SOPE   C2112544   0.235   1.629   6.490  0.0377 -0.4526 -1.0076
  119SOPE   O2212545   0.212   1.748   6.499 -0.3789  0.1955 -0.3170
  119SOPE   C2212546   0.145   1.523   6.428  0.4013  1.0654  0.3342
  119SOPE   H2R12547   0.044   1.524   6.473  0.8303 -0.6035  1.4239
  119SOPE   H2S12548   0.192   1.424   6.443 -0.4923  0.4896 -0.6345
  119SOPE    C312549   0.512   1.696   6.429 -0.2835 -0.1452  0.0644
  119SOPE    HX12550   0.606   1.755   6.440  0.3823 -1.4606  1.7982
  119SOPE    HY12551   0.446   1.776   6.387  0.1796  0.7702  1.0400
  119SOPE   O3112552   0.527   1.602   6.322 -0.4644  0.1606  0.0343
  119SOPE   C3112553   0.646   1.589   6.255  0.2412 -0.1790  0.7115
  119SOPE   O3212554   0.740   1.658   6.276  0.1100  0.7568  0.8954
  119SOPE   C3212555   0.635   1.464   6.161 -0.2770 -0.1627  0.0097
  119SOPE   H2X12556   0.536   1.414   6.167 -1.0760  1.4951  1.8142
  119SOPE   H2Y12557   0.694   1.388   6.216  1.4772  2.2962  1.7759
  119SOPE   C2312558   0.128   1.547   6.277 -0.2914 -0.0210 -0.2567
  119SOPE   H3R12559   0.089   1.650   6.261 -0.1479  0.0819  0.0372
  119SOPE   H3S12560   0.045   1.486   6.236  1.3860 -2.0612 -0.7930
  119SOPE   C2412561   0.243   1.500   6.185  0.0205  0.1618  0.1436
  119SOPE   H4R12562   0.325   1.575   6.194 -1.4020  1.7208  0.8575
  119SOPE   H4S12563   0.288   1.415   6.240 -0.9671 -0.0148  0.7192
  119SOPE   C2512564   0.210   1.476   6.043  0.2749 -0.4425  0.1790
  119SOPE   H5R12565   0.128   1.402   6.035  0.4868 -0.7311  0.5947
  119SOPE   H5S12566   0.182   1.573   5.998  1.4988 -0.5943 -0.9685
  119SOPE   C2612567   0.325   1.419   5.962  0.0622 -0.3695  0.0319
  119SOPE   H6R12568   0.408   1.493   5.964  0.1444 -0.3624 -1.9098
  119SOPE   H6S12569   0.345   1.320   6.010 -0.4509  0.0959  1.2479
  119SOPE   C2712570   0.297   1.400   5.818  0.9966 -0.0323 -0.0997
  119SOPE   H7R12571   0.219   1.322   5.807  0.8408  0.3228 -1.8114
  119SOPE   H7S12572   0.258   1.495   5.775  0.3874 -0.4853 -0.5766
  119SOPE   C2812573   0.418   1.352   5.740 -0.2701 -0.0851 -1.2113
  119SOPE   H8R12574   0.494   1.430   5.764  0.2804 -0.8743 -0.3624
  119SOPE   H8S12575   0.461   1.257   5.777 -1.2464  0.6796  2.1923
  119SOPE   C2912576   0.385   1.366   5.591 -0.1855 -0.2539  0.8926
  119SOPE   H9112577   0.326   1.281   5.552  1.8662 -1.2461 -0.2110
  119SOPE  C21012578   0.405   1.473   5.513  0.6744  0.1192 -0.3341
  119SOPE  H10112579   0.391   1.460   5.405  0.9036  1.6437 -0.5586
  119SOPE  C21112580   0.479   1.596   5.546  0.1940 -0.2300 -0.2793
  119SOPE  H11R12581   0.545   1.591   5.635  3.2458  2.1775 -2.1849
  119SOPE  H11S12582   0.415   1.685   5.559 -0.4283 -0.7981  0.7114
  119SOPE  C21212583   0.594   1.642   5.458  0.9861 -0.5849  0.4931
  119SOPE  H12R12584   0.559   1.658   5.354  1.4544  1.0476  0.5663
  119SOPE  H12S12585   0.677   1.569   5.458  2.0650  0.5935 -0.6563
  119SOPE  C21312586   0.657   1.770   5.510  0.8749  0.8768 -0.3536
  119SOPE  H13R12587   0.746   1.742   5.571  0.8253  3.2265  0.9440
  119SOPE  H13S12588   0.587   1.820   5.581 -1.2984 -2.1293 -0.2241
  119SOPE  C21412589   0.670   1.877   5.398  0.6005 -0.0315  0.3021
  119SOPE  H14R12590   0.577   1.917   5.352  0.0860 -2.7308 -1.2278
  119SOPE  H14S12591   0.723   1.833   5.311  2.7719  1.0765  1.0015
  119SOPE  C21512592   0.765   1.988   5.446 -0.5005  0.0665  0.3078
  119SOPE  H15R12593   0.862   1.940   5.472 -0.4242 -1.2514 -2.1314
  119SOPE  H15S12594   0.728   2.024   5.544 -0.5332 -0.9275  0.6695
  119SOPE  C21612595   0.790   2.102   5.349  0.4342 -0.9982 -0.2949
  119SOPE  H16R12596   0.734   2.085   5.254  0.0958 -0.2304 -0.2461
  119SOPE  H16S12597   0.895   2.097   5.313  0.1821  2.6348 -2.0675
  119SOPE  C21712598   0.778   2.240   5.409  0.4480  0.3720  0.0885
  119SOPE  H17R12599   0.846   2.247   5.496 -1.9358  1.1227  2.0067
  119SOPE  H17S12600   0.677   2.257   5.452 -0.3975 -1.4776 -1.0191
  119SOPE  C21812601   0.815   2.351   5.294 -0.3264  0.4670 -0.8571
  119SOPE  H18R12602   0.900   2.311   5.236 -0.0435 -0.8567  0.4126
  119SOPE  H18S12603   0.837   2.445   5.349 -1.2781 -0.5921  1.5003
  119SOPE  H18T12604   0.724   2.357   5.230 -0.0770  1.9181 -1.1127
  119SOPE   C3312605   0.694   1.488   6.019  0.2754  0.0202  0.2968
  119SOPE   H3X12606   0.775   1.565   6.020 -0.3486  0.6835  0.4089
  119SOPE   H3Y12607   0.614   1.526   5.953  0.4520 -1.1555 -0.6106
  119SOPE   C3412608   0.748   1.364   5.960 -0.1110 -0.2530 -0.4745
  119SOPE   H4X12609   0.669   1.287   5.968  0.8485 -1.2897 -0.7868
  119SOPE   H4Y12610   0.820   1.309   6.023 -0.8891 -0.0964  0.5852
  119SOPE   C3512611   0.784   1.372   5.813  0.0706 -0.4895 -0.0928
  119SOPE   H5X12612   0.708   1.434   5.759  0.8487  1.8891  1.3771
  119SOPE   H5Y12613   0.785   1.273   5.763  1.0888 -0.5352  0.0002
  119SOPE   C3612614   0.919   1.440   5.785 -0.1913  0.4892  0.4099
  119SOPE   H6X12615   0.997   1.370   5.823  0.4666  0.3386 -1.1063
  119SOPE   H6Y12616   0.927   1.537   5.839 -2.5652  1.7361 -1.2645
  119SOPE   C3712617   0.944   1.471   5.635 -0.0225  0.2193 -1.0668
  119SOPE   H7X12618   0.904   1.574   5.625 -0.7172  0.2987  1.7805
  119SOPE   H7Y12619   0.900   1.399   5.562  1.5480 -1.6209 -0.2779
  119SOPE   C3812620   1.102   1.464   5.612  1.1926  0.7804  0.2025
  119SOPE   H8X12621   1.111   1.358   5.582 -3.1750  0.3815 -0.3306
  119SOPE   H8Y12622   1.155   1.484   5.708 -0.2872  0.6765  1.0782
  119SOPE   C3912623   1.147   1.563   5.499  0.3709  0.6299  0.7199
  119SOPE   H9X12624   1.256   1.549   5.488  0.2368  0.7790 -0.9859
  119SOPE   H9Y12625   1.121   1.667   5.528  0.1066  1.4286 -2.0962
  119SOPE  C31012626   1.085   1.544   5.361 -0.1677  0.1673  0.0427
  119SOPE  H10X12627   0.975   1.535   5.370 -0.3800  1.1141 -1.2323
  119SOPE  H10Y12628   1.136   1.452   5.325 -1.1982 -0.0182 -0.9936
  119SOPE  C31112629   1.132   1.659   5.265  0.3705  0.3024  0.1258
  119SOPE  H11X12630   1.242   1.664   5.250  0.5936 -4.1002 -1.0987
  119SOPE  H11Y12631   1.088   1.752   5.307 -3.2665 -0.9431 -0.5468
  119SOPE  C31212632   1.087   1.650   5.117  0.0993  0.2270  0.0368
  119SOPE  H12X12633   1.111   1.745   5.065  2.6437 -0.6936 -0.6356
  119SOPE  H12Y12634   0.976   1.655   5.116 -0.0152 -1.1467 -2.2836
  119SOPE  C31312635   1.145   1.536   5.032 -0.5064  0.0975  0.0731
  119SOPE  H13X12636   1.112   1.431   5.047 -0.6912  0.1698  0.1748
  119SOPE  H13Y12637   1.256   1.530   5.034 -0.5263 -0.1693  0.6656
  119SOPE  C31412638   1.110   1.568   4.880  0.4060  0.1234  0.3367
  119SOPE  H14X12639   1.102   1.678   4.868  1.5320  0.6311  3.3525
  119SOPE  H14Y12640   1.011   1.519   4.863  1.0013 -0.6647 -1.0552
  119SOPE  C31512641   1.206   1.524   4.767  0.7722 -0.2049 -0.0564
  119SOPE  H15X12642   1.221   1.414   4.768 -0.8436 -0.4406  0.2406
  119SOPE  H15Y12643   1.309   1.566   4.770  1.0140 -0.6853 -1.0979
  119SOPE  C31612644   1.163   1.567   4.625  0.0520  0.2977 -0.4956
  119SOPE  H16X12645   1.056   1.542   4.605 -0.5685  3.3879 -1.6686
  119SOPE  H16Y12646   1.218   1.506   4.551  0.0804  0.7942 -0.8955
  119SOPE  C31712647   1.174   1.720   4.603  0.6386 -0.0577 -0.0164
  119SOPE  H17X12648   1.274   1.754   4.637  0.7729  1.7108 -2.0032
  119SOPE  H17Y12649   1.099   1.767   4.671 -1.3727 -0.1254 -2.0739
  119SOPE  C31812650   1.149   1.753   4.458 -0.3326 -0.4430  0.3057
  119SOPE  H18X12651   1.130   1.862   4.451  0.3546 -0.3254  0.1560
  119SOPE  H18Y12652   1.067   1.693   4.413  0.1678 -1.3850  0.6168
  119SOPE  H18Z12653   1.234   1.729   4.390  0.1168  1.9859 -0.0962
  120SOPE     N12654   6.487   5.234   6.998  0.6170  0.5015 -0.0022
  120SOPE   HN112655   6.404   5.271   7.048 -0.3191  1.1368 -1.9425
  120SOPE   HN212656   6.530   5.173   7.070 -0.4238  0.4840  0.6248
  120SOPE   HN312657   6.556   5.309   6.974  1.1701  0.0611  0.1905
  120SOPE   C1212658   6.446   5.165   6.873  0.0000  0.1421  0.3770
  120SOPE  H12A12659   6.413   5.235   6.793 -0.6159  1.0022  1.3435
  120SOPE  H12B12660   6.364   5.093   6.890  1.3044 -1.4269  0.2366
  120SOPE   C1112661   6.563   5.074   6.829  0.2069  0.6195 -0.1820
  120SOPE  H11A12662   6.547   5.035   6.726  0.9659 -0.9900  0.2832
  120SOPE  H11B12663   6.561   4.988   6.899 -2.8762  0.8152  0.1447
  120SOPE     P12664   6.828   5.102   6.828  0.3158 -0.0899  0.1481
  120SOPE   O1312665   6.836   4.972   6.894  0.9608  0.0533  0.0513
  120SOPE   O1412666   6.925   5.202   6.879 -0.1606  0.3756 -0.0420
  120SOPE   O1212667   6.677   5.162   6.826  0.6045 -0.4872  0.3649
  120SOPE   O1112668   6.865   5.086   6.668  0.1230 -0.3680 -0.5269
  120SOPE    C112669   6.848   5.203   6.580 -0.0618 -0.3412  0.4051
  120SOPE    HA12670   6.941   5.239   6.530 -0.8614 -0.3895 -1.2057
  120SOPE    HB12671   6.810   5.292   6.635 -1.0206  0.2352 -1.0984
  120SOPE    C212672   6.741   5.182   6.471 -0.5531  0.5063  0.0058
  120SOPE    HS12673   6.646   5.165   6.525  0.6434 -1.7332  1.5380
  120SOPE   O2112674   6.775   5.074   6.383 -0.0949  0.1540 -0.1985
  120SOPE   C2112675   6.721   4.957   6.426 -1.0923  0.0023 -0.1529
  120SOPE   O2212676   6.632   4.941   6.508 -0.0550 -0.0178 -0.7507
  120SOPE   C2212677   6.783   4.841   6.346 -1.0328 -0.1227 -0.0764
  120SOPE   H2R12678   6.872   4.801   6.399  0.1331  1.5786 -0.6658
  120SOPE   H2S12679   6.818   4.878   6.247  1.1348 -1.9133 -0.0566
  120SOPE    C312680   6.733   5.304   6.369 -0.1639 -0.3068 -0.2055
  120SOPE    HX12681   6.832   5.310   6.318  0.3381  1.5562  0.8626
  120SOPE    HY12682   6.723   5.401   6.422 -0.3425 -0.2562 -0.3315
  120SOPE   O3112683   6.625   5.292   6.273  0.6126 -1.4104 -0.0198
  120SOPE   C3112684   6.658   5.243   6.150 -0.7746 -0.2281  0.2974
  120SOPE   O3212685   6.773   5.230   6.111 -0.6636 -0.1854  0.1861
  120SOPE   C3212686   6.533   5.209   6.077 -0.0258 -0.6357 -0.1918
  120SOPE   H2X12687   6.498   5.302   6.028 -1.9239  0.0060  2.1597
  120SOPE   H2Y12688   6.456   5.168   6.146 -0.5545  0.1659 -0.2937
  120SOPE   C2312689   6.674   4.731   6.319 -0.3198 -0.0002  0.4296
  120SOPE   H3R12690   6.632   4.691   6.414  1.3620 -1.4673  0.6330
  120SOPE   H3S12691   6.732   4.649   6.270 -0.7050 -1.2549  1.9804
  120SOPE   C2412692   6.553   4.776   6.236  0.2261  0.3636  0.5450
  120SOPE   H4R12693   6.493   4.855   6.285 -1.4868 -0.3644 -0.2718
  120SOPE   H4S12694   6.583   4.824   6.141 -0.4837  2.0984  1.1490
  120SOPE   C2512695   6.457   4.665   6.194  0.1270  0.4199 -0.3405
  120SOPE   H5R12696   6.378   4.716   6.134 -1.1747  1.1361  1.8527
  120SOPE   H5S12697   6.519   4.593   6.139  0.0925  0.2525 -0.1617
  120SOPE   C2612698   6.393   4.596   6.317  0.4014 -0.0354  0.1035
  120SOPE   H6R12699   6.468   4.567   6.393 -1.1796 -2.6791  0.7881
  120SOPE   H6S12700   6.329   4.676   6.360  1.3913  0.0895  1.4008
  120SOPE   C2712701   6.306   4.462   6.288 -0.1111  0.0881  0.1014
  120SOPE   H7R12702   6.385   4.386   6.270  0.0174  0.6685 -2.1274
  120SOPE   H7S12703   6.252   4.434   6.381 -2.7992 -0.6613 -1.5587
  120SOPE   C2812704   6.209   4.478   6.168 -0.4149 -0.0308  0.0659
  120SOPE   H8R12705   6.271   4.473   6.077 -0.8538 -1.7214 -0.1699
  120SOPE   H8S12706   6.141   4.390   6.170 -1.6764  0.8286  3.8832
  120SOPE   C2912707   6.115   4.588   6.175 -0.0165 -0.3558  0.2015
  120SOPE   H9112708   6.046   4.578   6.260 -0.3450 -2.2662 -0.2348
  120SOPE  C21012709   6.095   4.681   6.079  0.0369 -0.3063  0.1707
  120SOPE  H10112710   6.017   4.757   6.100  1.0700  1.0271 -0.6320
  120SOPE  C21112711   6.171   4.694   5.943  0.5295  0.3768  0.0537
  120SOPE  H11R12712   6.255   4.622   5.929 -2.2431 -2.8426 -1.4782
  120SOPE  H11S12713   6.208   4.799   5.939  3.0472 -0.4392 -0.1431
  120SOPE  C21212714   6.085   4.669   5.816  0.7050 -0.0611  0.1227
  120SOPE  H12R12715   5.986   4.719   5.827  0.2312 -0.5271 -1.6261
  120SOPE  H12S12716   6.049   4.564   5.821 -1.7517  0.7581  1.9005
  120SOPE  C21312717   6.147   4.712   5.687 -0.4435  0.1988  0.2104
  120SOPE  H13R12718   6.237   4.654   5.658 -1.4179 -1.4306  0.3381
  120SOPE  H13S12719   6.192   4.814   5.693  0.8051 -0.2061 -1.4129
  120SOPE  C21412720   6.047   4.690   5.577  0.6791 -0.8075  0.0724
  120SOPE  H14R12721   5.958   4.751   5.605  0.3174 -0.7672 -1.1429
  120SOPE  H14S12722   6.024   4.583   5.560 -2.5414 -0.1748 -0.1373
  120SOPE  C21512723   6.101   4.752   5.437 -0.3460  0.0705 -0.4983
  120SOPE  H15R12724   6.201   4.706   5.416  0.5754  0.9539  1.6394
  120SOPE  H15S12725   6.120   4.856   5.469  0.5658 -0.0687 -0.5592
  120SOPE  C21612726   6.008   4.750   5.327  0.2525 -0.3123 -0.0675
  120SOPE  H16R12727   5.911   4.763   5.380 -0.2199 -0.0810 -0.9804
  120SOPE  H16S12728   6.017   4.650   5.280  2.2400 -0.6937  0.9905
  120SOPE  C21712729   6.026   4.874   5.235 -0.1807  0.1524 -0.1078
  120SOPE  H17R12730   6.128   4.877   5.190 -1.5077 -1.3189 -3.5427
  120SOPE  H17S12731   6.014   4.963   5.300  0.7836 -1.1909  2.0314
  120SOPE  C21812732   5.917   4.861   5.134 -0.3897 -0.0685  0.1157
  120SOPE  H18R12733   5.819   4.847   5.184 -1.1591  2.4343 -0.5411
  120SOPE  H18S12734   5.937   4.772   5.071  0.9367  0.5337 -0.3556
  120SOPE  H18T12735   5.918   4.951   5.068 -1.4720 -0.7996 -0.9537
  120SOPE   C3312736   6.569   5.102   5.969 -0.2387  1.0085 -0.0386
  120SOPE   H3X12737   6.603   5.014   6.028  1.6606 -0.3003 -2.9079
  120SOPE   H3Y12738   6.654   5.136   5.906  1.2781 -1.7479  0.3893
  120SOPE   C3412739   6.446   5.061   5.888 -0.1045  0.4182 -1.1781
  120SOPE   H4X12740   6.399   5.153   5.848  1.2028  1.4069 -0.4883
  120SOPE   H4Y12741   6.369   5.007   5.947 -0.2033  0.0866 -1.6001
  120SOPE   C3512742   6.467   4.960   5.774 -0.2228 -0.5924 -0.9052
  120SOPE   H5X12743   6.527   5.009   5.695 -0.0751  2.6453  1.0510
  120SOPE   H5Y12744   6.369   4.935   5.727  0.7283 -0.6911 -2.9464
  120SOPE   C3612745   6.522   4.825   5.829 -0.2292  0.7147 -0.7295
  120SOPE   H6X12746   6.458   4.790   5.913  0.1444 -3.6559 -1.9836
  120SOPE   H6Y12747   6.619   4.825   5.882 -0.9761  0.8014  0.6956
  120SOPE   C3712748   6.527   4.700   5.736 -0.2627 -0.4086 -0.2180
  120SOPE   H7X12749   6.425   4.665   5.708  0.4117 -3.3274  0.6278
  120SOPE   H7Y12750   6.560   4.624   5.809 -0.4822 -0.9852 -0.7076
  120SOPE   C3812751   6.614   4.711   5.609 -0.8691 -0.1104  0.7025
  120SOPE   H8X12752   6.644   4.609   5.578 -1.7298 -0.8017  2.0478
  120SOPE   H8Y12753   6.707   4.769   5.627  0.5306  0.0303 -4.9183
  120SOPE   C3912754   6.543   4.788   5.492  0.1863  0.7984  0.1727
  120SOPE   H9X12755   6.504   4.887   5.523 -4.1383 -0.8683  0.7730
  120SOPE   H9Y12756   6.459   4.717   5.478  0.3771  0.3187  1.3945
  120SOPE  C31012757   6.624   4.782   5.364 -0.5622 -0.2748  0.3315
  120SOPE  H10X12758   6.619   4.682   5.316 -0.5229  0.2101 -0.7237
  120SOPE  H10Y12759   6.731   4.795   5.391 -0.6296 -0.6122  0.7714
  120SOPE  C31112760   6.567   4.886   5.263  0.0128  0.8834 -0.3475
  120SOPE  H11X12761   6.547   4.978   5.321  2.4844  1.2942 -0.0349
  120SOPE  H11Y12762   6.469   4.848   5.228  0.1674  0.4061 -0.2793
  120SOPE  C31212763   6.660   4.901   5.148 -0.7823 -0.7114  0.4838
  120SOPE  H12X12764   6.676   4.799   5.107 -1.5047 -1.0970  1.1390
  120SOPE  H12Y12765   6.757   4.943   5.183 -0.8900 -0.5909  0.6396
  120SOPE  C31312766   6.601   4.992   5.042 -0.3775 -0.9754 -0.4930
  120SOPE  H13X12767   6.504   4.950   5.008 -1.4371  0.4837  0.5472
  120SOPE  H13Y12768   6.669   4.988   4.955  1.0855  0.0595  0.5613
  120SOPE  C31412769   6.577   5.140   5.088  0.8806 -0.1107  0.4897
  120SOPE  H14X12770   6.674   5.185   5.115  0.1115  0.9274  1.5802
  120SOPE  H14Y12771   6.513   5.138   5.178 -2.7725 -2.7823 -1.8639
  120SOPE  C31512772   6.505   5.223   4.983 -0.2829 -0.8161  0.9179
  120SOPE  H15X12773   6.468   5.322   5.018 -1.4352 -0.6896 -0.5496
  120SOPE  H15Y12774   6.421   5.170   4.934  0.1681  0.1879 -1.0546
  120SOPE  C31612775   6.601   5.268   4.862  0.1578 -0.0416 -0.0719
  120SOPE  H16X12776   6.650   5.179   4.817 -1.2279 -0.1799 -1.3728
  120SOPE  H16Y12777   6.666   5.346   4.908 -0.8933  0.1320  1.1664
  120SOPE  C31712778   6.518   5.340   4.759 -0.2798 -0.1781 -0.1037
  120SOPE  H17X12779   6.472   5.426   4.813 -2.0834 -2.1766  1.6967
  120SOPE  H17Y12780   6.432   5.280   4.722 -0.4137  0.2705 -0.5351
  120SOPE  C31812781   6.610   5.389   4.644 -0.6443 -0.3473 -0.1600
  120SOPE  H18X12782   6.698   5.432   4.696 -1.7172 -0.2533  1.6505
  120SOPE  H18Y12783   6.566   5.472   4.585  0.4519 -0.3584 -1.0352
  120SOPE  H18Z12784   6.645   5.305   4.580  2.2875  0.1826  0.5807
  121SOPE     N12785   1.791   2.737   7.234  0.0544  0.1168  0.0675
  121SOPE   HN112786   1.726   2.786   7.169  1.7120  1.4321 -0.6526
  121SOPE   HN212787   1.773   2.764   7.333  0.9657 -1.7656  0.8091
  121SOPE   HN312788   1.887   2.774   7.219 -1.2787  3.2174 -1.8136
  121SOPE   C1212789   1.776   2.588   7.208 -0.6571 -0.3605  0.1202
  121SOPE  H12A12790   1.875   2.547   7.235 -0.2630  0.1359 -0.5674
  121SOPE  H12B12791   1.765   2.579   7.098  0.3196  2.6639 -0.3166
  121SOPE   C1112792   1.655   2.529   7.272  0.0802  0.0700  0.1806
  121SOPE  H11A12793   1.654   2.548   7.382 -1.1695  0.7784  0.0680
  121SOPE  H11B12794   1.662   2.420   7.255  1.2319  0.0510  0.7083
  121SOPE     P12795   1.443   2.680   7.266  0.2420 -0.5868 -0.5240
  121SOPE   O1312796   1.518   2.805   7.290  0.3656  0.3757  0.1441
  121SOPE   O1412797   1.386   2.614   7.384 -0.3071 -0.0478  0.7950
  121SOPE   O1212798   1.540   2.573   7.198 -0.0564  0.3777 -0.7582
  121SOPE   O1112799   1.326   2.709   7.167  0.0543 -0.1118 -0.2256
  121SOPE    C112800   1.294   2.611   7.065 -0.0091  0.0116 -0.3431
  121SOPE    HA12801   1.189   2.619   7.030  0.3112  0.7434 -1.1647
  121SOPE    HB12802   1.298   2.509   7.111  0.3113 -0.2837 -1.0104
  121SOPE    C212803   1.387   2.623   6.934  0.0342  1.0245 -1.1248
  121SOPE    HS12804   1.489   2.656   6.963  0.0092 -0.0715  0.3193
  121SOPE   O2112805   1.315   2.714   6.858  0.0463 -0.1471 -0.4949
  121SOPE   C2112806   1.348   2.841   6.874 -0.5434  0.1672  0.2145
  121SOPE   O2212807   1.433   2.890   6.944 -0.3338 -0.0454  0.3097
  121SOPE   C2212808   1.266   2.920   6.778 -0.0910  0.1028  0.7895
  121SOPE   H2R12809   1.318   3.018   6.775  0.6246 -0.0685  3.9616
  121SOPE   H2S12810   1.162   2.920   6.817  0.5020  0.9458  2.4642
  121SOPE    C312811   1.415   2.495   6.852 -0.4446  0.0410  0.3167
  121SOPE    HX12812   1.328   2.435   6.819 -0.2954  0.4214 -0.8382
  121SOPE    HY12813   1.460   2.430   6.930 -1.9886  0.1889  1.3589
  121SOPE   O3112814   1.500   2.530   6.740  0.6746  0.1998  0.5486
  121SOPE   C3112815   1.626   2.519   6.754  0.0335 -0.9358  0.8900
  121SOPE   O3212816   1.686   2.476   6.851  0.2545 -0.1770  0.2756
  121SOPE   C3212817   1.685   2.581   6.631  0.7005 -0.4082 -0.0127
  121SOPE   H2X12818   1.604   2.586   6.555 -0.8727  0.1912  1.6389
  121SOPE   H2Y12819   1.753   2.500   6.595  0.7862 -0.1061 -0.5458
  121SOPE   C2312820   1.257   2.864   6.631  0.0586  0.3734  0.5433
  121SOPE   H3R12821   1.166   2.916   6.593  0.6309  1.3047  0.4190
  121SOPE   H3S12822   1.223   2.758   6.633  0.4536  0.1115 -2.2701
  121SOPE   C2412823   1.365   2.908   6.530 -0.1293  0.0289  0.1726
  121SOPE   H4R12824   1.337   3.013   6.506 -0.2004 -0.0703 -0.1918
  121SOPE   H4S12825   1.469   2.907   6.569  0.1303 -3.7336 -0.2659
  121SOPE   C2512826   1.359   2.805   6.408  0.1310 -0.5402 -0.0953
  121SOPE   H5R12827   1.426   2.723   6.441  1.1152  0.6924  1.0732
  121SOPE   H5S12828   1.256   2.767   6.392  0.7555 -2.0598 -0.7441
  121SOPE   C2612829   1.395   2.860   6.266  0.0614  0.4196 -0.4753
  121SOPE   H6R12830   1.322   2.943   6.256  1.0004  1.4177  0.6750
  121SOPE   H6S12831   1.495   2.906   6.264 -1.1184  3.1607 -0.6329
  121SOPE   C2712832   1.385   2.759   6.151  0.0236  0.4059  0.3926
  121SOPE   H7R12833   1.470   2.691   6.170 -0.8942 -0.4953  1.3899
  121SOPE   H7S12834   1.285   2.710   6.157  0.3962 -0.1747  2.9117
  121SOPE   C2812835   1.416   2.822   6.012  0.3767  0.0330  0.2298
  121SOPE   H8R12836   1.514   2.874   6.016  0.2067  0.3983 -0.3120
  121SOPE   H8S12837   1.434   2.736   5.944 -0.8716 -0.4682  0.5127
  121SOPE   C2912838   1.309   2.902   5.934 -0.4117  0.4930  0.5570
  121SOPE   H9112839   1.221   2.920   5.997 -0.4302 -2.5737  1.5787
  121SOPE  C21012840   1.319   2.933   5.802 -0.7244  0.0470  0.7401
  121SOPE  H10112841   1.249   3.002   5.753  0.4313 -0.1770 -1.3482
  121SOPE  C21112842   1.432   2.899   5.709 -0.0873  0.3868 -0.2947
  121SOPE  H11R12843   1.487   2.812   5.750 -0.9630 -0.4434 -0.8705
  121SOPE  H11S12844   1.511   2.977   5.695 -0.3081  0.8990  1.1716
  121SOPE  C21212845   1.393   2.860   5.562  0.4125 -0.3371  0.4825
  121SOPE  H12R12846   1.313   2.782   5.563  0.6532 -0.6271 -0.7819
  121SOPE  H12S12847   1.480   2.819   5.506  0.1232 -0.1562 -0.1129
  121SOPE  C21312848   1.341   2.977   5.475 -0.4797  0.2639  0.1672
  121SOPE  H13R12849   1.279   3.039   5.543  0.3638  0.8197  0.4538
  121SOPE  H13S12850   1.276   2.930   5.398  0.2882  0.9819 -0.9493
  121SOPE  C21412851   1.448   3.065   5.411  0.3448 -0.3139  1.0329
  121SOPE  H14R12852   1.534   3.083   5.479 -1.5906  0.0832  3.5327
  121SOPE  H14S12853   1.404   3.166   5.396  0.3393 -0.4497  0.1110
  121SOPE  C21512854   1.490   3.009   5.272 -1.2234  0.4808 -0.1279
  121SOPE  H15R12855   1.478   2.899   5.283  3.2689  0.0449  3.6691
  121SOPE  H15S12856   1.601   3.013   5.268 -1.0806 -0.6900  1.5078
  121SOPE  C21612857   1.413   3.069   5.155  0.1857 -0.1201 -0.6638
  121SOPE  H16R12858   1.416   3.180   5.161  0.5457 -0.1996  1.3263
  121SOPE  H16S12859   1.309   3.031   5.163 -0.0833  0.7212 -0.0921
  121SOPE  C21712860   1.463   3.029   5.017  0.6279 -0.3823  0.1187
  121SOPE  H17R12861   1.484   2.920   5.008 -1.9545 -0.8763 -0.7851
  121SOPE  H17S12862   1.561   3.081   5.008 -0.1783  1.3242  0.8345
  121SOPE  C21812863   1.357   3.057   4.910 -0.7208  0.0064  0.4925
  121SOPE  H18R12864   1.350   3.165   4.885 -0.8803  0.3264  1.8454
  121SOPE  H18S12865   1.260   3.019   4.949  0.4936 -1.2092  2.5258
  121SOPE  H18T12866   1.381   3.005   4.815 -1.2632  0.2953  0.1909
  121SOPE   C3312867   1.766   2.710   6.667  0.0666  0.4010  0.6220
  121SOPE   H3X12868   1.826   2.668   6.751  0.0418 -2.2783 -0.6120
  121SOPE   H3Y12869   1.705   2.796   6.703  0.3465  0.2037  1.5936
  121SOPE   C3412870   1.860   2.756   6.556  0.2809  0.0349  0.4447
  121SOPE   H4X12871   1.929   2.672   6.533  0.0955 -0.2986  1.0851
  121SOPE   H4Y12872   1.910   2.850   6.587 -0.6049  0.5676  0.2936
  121SOPE   C3512873   1.791   2.797   6.423  0.6400  0.1387 -0.1597
  121SOPE   H5X12874   1.730   2.884   6.455  0.7966  0.0117  0.4939
  121SOPE   H5Y12875   1.730   2.710   6.392 -0.2733 -1.0761  4.4031
  121SOPE   C3612876   1.899   2.829   6.319  0.4506 -1.2769 -0.5571
  121SOPE   H6X12877   1.956   2.734   6.314 -1.1395 -2.2779 -0.4179
  121SOPE   H6Y12878   1.965   2.913   6.350 -0.3776 -0.1802 -1.6229
  121SOPE   C3712879   1.821   2.855   6.188 -0.0751  0.1853  0.7540
  121SOPE   H7X12880   1.777   2.956   6.202 -1.2433 -0.2146  0.0659
  121SOPE   H7Y12881   1.745   2.780   6.157  1.0863 -1.6601  2.1034
  121SOPE   C3812882   1.913   2.861   6.065 -0.0846 -0.0336 -0.1654
  121SOPE   H8X12883   1.936   2.754   6.051 -1.3521 -0.0397 -2.5998
  121SOPE   H8Y12884   2.004   2.922   6.083  0.7976 -0.8708 -1.6135
  121SOPE   C3912885   1.833   2.923   5.947 -0.3989 -0.4615  0.3178
  121SOPE   H9X12886   1.809   3.027   5.976  2.6036  0.4543 -0.2113
  121SOPE   H9Y12887   1.744   2.857   5.935  0.0121 -1.2254  1.3333
  121SOPE  C31012888   1.910   2.917   5.815  0.3928 -0.0242 -0.2087
  121SOPE  H10X12889   1.919   2.807   5.802  1.0802  0.1102 -0.9966
  121SOPE  H10Y12890   2.014   2.955   5.826 -0.4461  3.2503 -2.0760
  121SOPE  C31112891   1.851   2.992   5.690  0.3784 -0.1722 -1.1428
  121SOPE  H11X12892   1.846   3.100   5.713 -0.0386 -0.0114 -1.9603
  121SOPE  H11Y12893   1.752   2.944   5.674 -0.7858  1.3673  0.8772
  121SOPE  C31212894   1.933   2.975   5.561  0.8711 -0.5467  0.2506
  121SOPE  H12X12895   1.929   2.867   5.536 -4.3058 -0.8729  1.5106
  121SOPE  H12Y12896   2.036   3.008   5.589  0.4519 -0.0598  1.3004
  121SOPE  C31312897   1.870   3.053   5.446  0.6328 -0.2491 -0.1523
  121SOPE  H13X12898   1.898   3.160   5.444 -0.5080  0.1199  1.6212
  121SOPE  H13Y12899   1.760   3.044   5.459  0.7799 -2.0721  0.1991
  121SOPE  C31412900   1.928   2.994   5.317 -0.2509 -0.0557 -0.3775
  121SOPE  H14X12901   1.906   2.886   5.299 -2.2819  0.3222 -0.4107
  121SOPE  H14Y12902   2.039   2.995   5.324 -0.3370 -0.4096  2.4295
  121SOPE  C31512903   1.891   3.074   5.192  0.1278  0.6067  0.3914
  121SOPE  H15X12904   1.901   3.183   5.210 -2.2053  0.7017  1.5402
  121SOPE  H15Y12905   1.789   3.052   5.151  0.1850 -3.2815  1.9089
  121SOPE  C31612906   1.985   3.041   5.073  0.4401  0.3294 -0.0207
  121SOPE  H16X12907   2.090   3.060   5.104  1.2401 -0.2330 -2.2424
  121SOPE  H16Y12908   1.967   3.107   4.985 -0.3696  0.4692  0.2389
  121SOPE  C31712909   1.961   2.893   5.028  0.4528  0.7904  0.3576
  121SOPE  H17X12910   1.965   2.819   5.111  3.8225 -0.4165 -0.7177
  121SOPE  H17Y12911   2.053   2.864   4.973 -0.9684 -0.1104 -1.6650
  121SOPE  C31812912   1.834   2.868   4.945 -0.1746 -0.9308  0.0351
  121SOPE  H18X12913   1.828   2.928   4.853 -1.4088  0.1411  0.7697
  121SOPE  H18Y12914   1.741   2.902   4.996 -2.2385 -2.6974 -2.2871
  121SOPE  H18Z12915   1.822   2.759   4.927  0.8283 -1.2528  1.1429
  122SOPE     N12916   6.290   3.822   7.118 -0.2801 -0.2897  0.6360
  122SOPE   HN112917   6.278   3.821   7.222  0.3196 -0.6400  0.7035
  122SOPE   HN212918   6.392   3.826   7.101 -0.4179 -0.3656 -0.2732
  122SOPE   HN312919   6.252   3.914   7.087 -2.0534 -0.4143  2.2047
  122SOPE   C1212920   6.216   3.706   7.060 -0.0861  0.0819  0.0799
  122SOPE  H12A12921   6.113   3.717   7.099 -0.0426  0.9333 -0.0197
  122SOPE  H12B12922   6.261   3.619   7.114 -0.9662 -0.5564 -0.1994
  122SOPE   C1112923   6.217   3.701   6.911 -0.4227 -0.1459  0.2751
  122SOPE  H11A12924   6.140   3.631   6.872  1.6456 -1.5591 -1.4998
  122SOPE  H11B12925   6.311   3.659   6.870  0.8096  1.5692  1.2363
  122SOPE     P12926   6.071   3.911   6.856  0.2888  0.1928  0.4669
  122SOPE   O1312927   6.099   4.054   6.824 -0.1078 -0.0776  0.2125
  122SOPE   O1412928   6.000   3.882   6.984 -0.1248 -0.0151 -0.4137
  122SOPE   O1212929   6.209   3.837   6.862 -0.3852  0.7703 -0.8747
  122SOPE   O1112930   5.989   3.847   6.736  0.2605 -0.4690  0.4140
  122SOPE    C112931   6.041   3.761   6.636  1.2475 -0.3995 -0.1199
  122SOPE    HA12932   5.963   3.704   6.580  0.3189 -1.5142  2.1628
  122SOPE    HB12933   6.108   3.680   6.673 -1.3028 -1.9312  1.4768
  122SOPE    C212934   6.135   3.835   6.535 -0.1012  0.6937 -0.0166
  122SOPE    HS12935   6.164   3.758   6.461  0.3655  3.1581 -2.5777
  122SOPE   O2112936   6.253   3.893   6.598  0.3356  0.3202  0.5032
  122SOPE   C2112937   6.353   3.796   6.608  0.1807  0.5001 -0.9155
  122SOPE   O2212938   6.339   3.678   6.592 -0.0854 -0.2882  0.0139
  122SOPE   C2212939   6.487   3.858   6.656  0.0024 -0.9000 -0.4177
  122SOPE   H2R12940   6.499   3.825   6.762  1.9464 -1.2772 -0.7090
  122SOPE   H2S12941   6.469   3.967   6.655  1.4190 -0.6349  0.1069
  122SOPE    C312942   6.052   3.941   6.455  0.1622  0.0137  0.5848
  122SOPE    HX12943   6.018   4.009   6.535  0.5179  0.0448  0.7101
  122SOPE    HY12944   5.968   3.893   6.400  0.3731 -0.7959  0.9512
  122SOPE   O3112945   6.131   4.021   6.368  0.7482  0.5262  0.6076
  122SOPE   C3112946   6.184   3.942   6.272 -0.3174  0.3031  0.2463
  122SOPE   O3212947   6.152   3.822   6.256 -0.2892 -0.6924 -0.1294
  122SOPE   C3212948   6.285   4.017   6.193  1.0929  0.1180  0.3673
  122SOPE   H2X12949   6.379   3.960   6.178  1.2937 -0.0031  1.9361
  122SOPE   H2Y12950   6.324   4.105   6.249 -1.0646 -0.3615  2.7754
  122SOPE   C2312951   6.609   3.823   6.571 -0.8537  0.3033  0.2938
  122SOPE   H3R12952   6.630   3.714   6.580 -0.8636  0.2223 -0.5854
  122SOPE   H3S12953   6.703   3.871   6.604 -0.0274  0.8113 -2.5485
  122SOPE   C2412954   6.582   3.848   6.426 -0.0831 -0.5877  0.2487
  122SOPE   H4R12955   6.517   3.775   6.371  1.8124 -0.7991 -1.8631
  122SOPE   H4S12956   6.522   3.941   6.412  0.3512 -0.5655 -1.9067
  122SOPE   C2512957   6.711   3.832   6.350 -0.0542 -0.0888  0.4784
  122SOPE   H5R12958   6.805   3.887   6.374  1.6035 -1.8577 -1.5417
  122SOPE   H5S12959   6.729   3.723   6.359 -1.3979 -0.2961  0.8684
  122SOPE   C2612960   6.696   3.851   6.198  0.2982 -1.0374 -0.5729
  122SOPE   H6R12961   6.606   3.790   6.175 -1.0751 -0.4169  2.5031
  122SOPE   H6S12962   6.680   3.959   6.179 -2.1305 -0.3554  3.7592
  122SOPE   C2712963   6.819   3.805   6.115 -0.5910  0.2206 -0.0111
  122SOPE   H7R12964   6.897   3.883   6.125  0.9193 -1.2419  0.0523
  122SOPE   H7S12965   6.865   3.718   6.167  0.4086  1.2343  0.8461
  122SOPE   C2812966   6.776   3.783   5.966  0.7119  0.6223  0.2404
  122SOPE   H8R12967   6.861   3.731   5.918  0.3103  0.2732 -0.1030
  122SOPE   H8S12968   6.695   3.707   5.970  2.8236 -1.7136  0.3712
  122SOPE   C2912969   6.750   3.911   5.898 -0.8628 -0.0797  0.3595
  122SOPE   H9112970   6.832   3.983   5.911 -0.8306 -0.4916  2.9241
  122SOPE  C21012971   6.635   3.940   5.829  0.1645 -0.6596  0.2157
  122SOPE  H10112972   6.632   4.042   5.788  0.0023 -1.1014 -0.9039
  122SOPE  C21112973   6.519   3.847   5.792  0.4611 -0.8403 -0.1151
  122SOPE  H11R12974   6.418   3.892   5.785  0.7456 -0.2798 -0.6966
  122SOPE  H11S12975   6.508   3.760   5.861 -0.7093 -1.0068 -0.4938
  122SOPE  C21212976   6.546   3.765   5.664 -0.2984 -0.4351 -0.4036
  122SOPE  H12R12977   6.464   3.701   5.624 -1.4266  1.2863 -0.9330
  122SOPE  H12S12978   6.627   3.691   5.687 -0.9827 -0.8991  0.6008
  122SOPE  C21312979   6.585   3.848   5.538 -0.3504  0.1976  0.2294
  122SOPE  H13R12980   6.621   3.783   5.455 -1.8862  0.9174 -1.0472
  122SOPE  H13S12981   6.673   3.911   5.563  1.1599 -0.8189 -2.0985
  122SOPE  C21412982   6.490   3.948   5.478 -0.1304 -0.2105 -0.7033
  122SOPE  H14R12983   6.454   4.016   5.558  0.8502 -1.7359  1.1001
  122SOPE  H14S12984   6.400   3.890   5.447  0.3818 -1.7853  0.6378
  122SOPE  C21512985   6.550   4.025   5.359  0.0627  0.0341 -0.9116
  122SOPE  H15R12986   6.645   4.079   5.379  0.2362 -0.4458 -0.4335
  122SOPE  H15S12987   6.473   4.102   5.336  1.4982  2.0100  0.5025
  122SOPE  C21612988   6.576   3.934   5.231  0.1579 -0.4287 -0.2878
  122SOPE  H16R12989   6.478   3.881   5.220  0.8506 -2.0418  0.9277
  122SOPE  H16S12990   6.660   3.863   5.244  0.2824 -0.3981 -0.8920
  122SOPE  C21712991   6.598   4.011   5.099  0.1953 -0.2114 -0.2915
  122SOPE  H17R12992   6.569   4.117   5.109  0.4135 -0.0239 -1.5351
  122SOPE  H17S12993   6.534   3.955   5.027 -0.7822  0.3684  0.1176
  122SOPE  C21812994   6.747   4.015   5.055  0.3078 -0.1722 -0.7103
  122SOPE  H18R12995   6.749   4.034   4.945  2.0976  0.4824 -0.5823
  122SOPE  H18S12996   6.781   3.911   5.074 -0.9790 -0.4522  0.1702
  122SOPE  H18T12997   6.804   4.079   5.125 -0.9876  0.6575 -0.3719
  122SOPE   C3312998   6.222   4.077   6.058  0.8081  0.6370 -0.6094
  122SOPE   H3X12999   6.132   4.135   6.086  0.1131 -1.6264  2.3735
  122SOPE   H3Y13000   6.182   3.998   5.989 -0.3148 -0.6561  1.4179
  122SOPE   C3413001   6.329   4.165   5.993  0.0675 -0.4523 -0.3559
  122SOPE   H4X13002   6.416   4.104   5.961  0.0895  0.5808 -2.4508
  122SOPE   H4Y13003   6.368   4.240   6.065  0.6752  0.9513 -2.0661
  122SOPE   C3513004   6.286   4.247   5.865 -0.5387  0.1030 -0.0100
  122SOPE   H5X13005   6.199   4.313   5.883 -1.3797 -1.4513  1.9284
  122SOPE   H5Y13006   6.254   4.178   5.783 -0.3111 -1.3297  1.0721
  122SOPE   C3613007   6.405   4.342   5.821  0.0120  0.2011  0.5579
  122SOPE   H6X13008   6.441   4.404   5.905  1.6445  0.5609 -0.3550
  122SOPE   H6Y13009   6.355   4.409   5.748 -1.3484 -2.8923 -1.5869
  122SOPE   C3713010   6.518   4.265   5.751 -0.8075 -0.4824  0.1696
  122SOPE   H7X13011   6.475   4.171   5.711 -0.0118 -0.9392  0.3861
  122SOPE   H7Y13012   6.590   4.230   5.828  1.5932 -0.6170 -2.0211
  122SOPE   C3813013   6.607   4.344   5.654 -0.4504  0.1382  0.1189
  122SOPE   H8X13014   6.664   4.423   5.708 -3.0091  1.2819  1.3526
  122SOPE   H8Y13015   6.538   4.384   5.576 -1.0283 -1.0365  0.0076
  122SOPE   C3913016   6.716   4.252   5.591  0.1707 -0.2730 -0.2992
  122SOPE   H9X13017   6.663   4.164   5.548  0.0096 -0.1432 -0.3665
  122SOPE   H9Y13018   6.785   4.207   5.665 -2.0119 -2.6300  0.4292
  122SOPE  C31013019   6.802   4.320   5.475  0.2240  0.3129 -0.4958
  122SOPE  H10X13020   6.877   4.242   5.449  0.8830  0.2814  1.3354
  122SOPE  H10Y13021   6.854   4.408   5.518 -0.1572  0.4308 -0.2736
  122SOPE  C31113022   6.728   4.356   5.348  0.7305 -0.1584 -0.3336
  122SOPE  H11X13023   6.659   4.441   5.369  2.2073  1.2478 -0.9563
  122SOPE  H11Y13024   6.671   4.274   5.301 -2.0891  1.0733  0.7345
  122SOPE  C31213025   6.824   4.430   5.248 -0.5863 -0.3019  0.5286
  122SOPE  H12X13026   6.900   4.357   5.212 -0.7557  0.1436 -0.7906
  122SOPE  H12Y13027   6.870   4.514   5.304 -0.9309  0.3524 -0.1486
  122SOPE  C31313028   6.767   4.489   5.120 -0.5579 -0.0325 -0.0275
  122SOPE  H13X13029   6.840   4.551   5.065 -0.7016  1.0290  0.9571
  122SOPE  H13Y13030   6.694   4.566   5.153  0.8275  1.7102 -0.9234
  122SOPE  C31413031   6.709   4.384   5.025  0.2656  0.1235  0.3538
  122SOPE  H14X13032   6.643   4.318   5.086 -1.1499  0.9601 -0.2224
  122SOPE  H14Y13033   6.789   4.318   4.984 -0.8474 -2.0302  1.5176
  122SOPE  C31513034   6.641   4.438   4.899 -0.0342  0.0247  0.5946
  122SOPE  H15X13035   6.702   4.513   4.845 -0.7111  0.3344  0.2534
  122SOPE  H15Y13036   6.545   4.487   4.925  0.5698  2.4095 -1.3220
  122SOPE  C31613037   6.595   4.326   4.807  0.0068  0.4246  0.6486
  122SOPE  H16X13038   6.536   4.249   4.861  0.0696  0.7294  1.1625
  122SOPE  H16Y13039   6.693   4.278   4.786  1.3308  1.9603  2.9554
  122SOPE  C31713040   6.511   4.385   4.694 -0.2833 -0.3073  0.1718
  122SOPE  H17X13041   6.575   4.467   4.654 -2.2070  1.3863  0.3845
  122SOPE  H17Y13042   6.426   4.419   4.757  1.2437 -0.2341  2.3074
  122SOPE  C31813043   6.485   4.282   4.584  0.1391 -0.2855 -0.1869
  122SOPE  H18X13044   6.426   4.321   4.499 -0.0152  1.0296  0.5026
  122SOPE  H18Y13045   6.434   4.195   4.631 -3.0144  0.7593 -1.4454
  122SOPE  H18Z13046   6.581   4.248   4.538  0.0426 -2.4175  1.0344
  123SOPE     N13047   2.910   6.216   2.279 -0.1785 -0.6041  0.7105
  123SOPE   HN113048   3.005   6.258   2.274 -0.2222 -0.5908 -0.5092
  123SOPE   HN213049   2.907   6.143   2.205  2.2400 -0.4241  0.3557
  123SOPE   HN313050   2.840   6.291   2.263  0.0147 -0.3683  0.9622
  123SOPE   C1213051   2.896   6.156   2.414  0.3163 -0.7579  0.7306
  123SOPE  H12A13052   2.803   6.096   2.420  0.0558 -0.2402  2.2676
  123SOPE  H12B13053   2.880   6.237   2.488  0.6550  0.2430 -0.2565
  123SOPE   C1113054   3.021   6.075   2.447 -0.3062  0.0123 -0.3022
  123SOPE  H11A13055   3.005   6.042   2.552 -0.6571 -2.0644 -0.9700
  123SOPE  H11B13056   3.113   6.137   2.446 -1.0700  1.2301  0.7852
  123SOPE     P13057   3.014   5.812   2.415 -0.2832  0.4349  0.2916
  123SOPE   O1313058   3.124   5.785   2.508 -0.2895 -0.2951 -0.0322
  123SOPE   O1413059   3.010   5.713   2.307  0.3933  0.3761 -0.3834
  123SOPE   O1213060   3.027   5.960   2.362 -0.2963  0.0753 -0.0195
  123SOPE   O1113061   2.876   5.810   2.488  0.1358 -0.3687  0.2794
  123SOPE    C113062   2.839   5.700   2.580 -0.1596  0.4738 -0.0483
  123SOPE    HA13063   2.881   5.606   2.537  0.3109  0.5756  0.1763
  123SOPE    HB13064   2.729   5.691   2.572 -0.1500  1.5991 -1.8700
  123SOPE    C213065   2.869   5.754   2.723  0.1104 -0.1909  0.2738
  123SOPE    HS13066   2.978   5.775   2.732  0.2862  0.6167 -2.7315
  123SOPE   O2113067   2.834   5.658   2.820 -0.1227 -0.4081 -0.5082
  123SOPE   C2113068   2.905   5.540   2.828  0.8674 -0.5313 -0.2347
  123SOPE   O2213069   3.007   5.527   2.766  0.6450 -0.9955 -0.1839
  123SOPE   C2213070   2.832   5.434   2.906  0.1391  0.2440 -0.5825
  123SOPE   H2R13071   2.770   5.370   2.839  0.5173  0.4894 -1.1682
  123SOPE   H2S13072   2.768   5.484   2.982 -1.6136 -2.2400 -0.2675
  123SOPE    C313073   2.796   5.887   2.759  0.0537 -0.6454 -0.1664
  123SOPE    HX13074   2.691   5.861   2.781 -0.3307  0.6749 -0.3525
  123SOPE    HY13075   2.804   5.942   2.662  1.2908 -0.2721  0.1288
  123SOPE   O3113076   2.866   5.945   2.874  0.6653 -0.2127  0.3388
  123SOPE   C3113077   2.881   6.074   2.876  1.0715 -1.0247  0.4922
  123SOPE   O3213078   2.840   6.157   2.794 -0.2161  0.2309 -0.4238
  123SOPE   C3213079   2.966   6.115   2.995  0.1111 -0.2980  0.3946
  123SOPE   H2X13080   3.015   6.213   2.975  0.1260 -0.3983 -0.0708
  123SOPE   H2Y13081   3.045   6.038   3.009 -0.2796 -0.7952 -0.1019
  123SOPE   C2313082   2.936   5.351   2.991  1.1737  0.1402 -0.2803
  123SOPE   H3R13083   2.978   5.430   3.056 -0.2705  1.3770 -0.8051
  123SOPE   H3S13084   3.015   5.306   2.926  0.7635 -0.8966 -0.0795
  123SOPE   C2413085   2.862   5.247   3.072  0.0799 -0.4725 -0.2527
  123SOPE   H4R13086   2.791   5.200   3.000 -0.8093  0.0908  0.2357
  123SOPE   H4S13087   2.929   5.176   3.124 -2.3008  0.2164  4.2769
  123SOPE   C2513088   2.773   5.301   3.181  0.3531  0.7804  0.0703
  123SOPE   H5R13089   2.699   5.374   3.142  2.5089  1.7941 -2.4249
  123SOPE   H5S13090   2.720   5.213   3.222 -0.2573  1.0078 -0.2195
  123SOPE   C2613091   2.847   5.368   3.307  0.3074  1.2756  0.4965
  123SOPE   H6R13092   2.909   5.286   3.349 -0.5414  1.6432  2.5469
  123SOPE   H6S13093   2.907   5.459   3.283  2.4581 -0.2874 -0.3820
  123SOPE   C2713094   2.748   5.398   3.420  0.1081 -0.7901 -0.2434
  123SOPE   H7R13095   2.697   5.493   3.392  1.5907  0.1193  0.0349
  123SOPE   H7S13096   2.673   5.316   3.414 -0.5445 -0.0940 -2.7623
  123SOPE   C2813097   2.814   5.411   3.563 -0.0168  0.3178 -0.1278
  123SOPE   H8R13098   2.872   5.317   3.580 -1.2224 -0.8154 -1.9080
  123SOPE   H8S13099   2.890   5.490   3.550 -0.6383  0.9693  0.1391
  123SOPE   C2913100   2.725   5.439   3.679 -0.1290  0.2464  0.0365
  123SOPE   H9113101   2.694   5.351   3.737  0.4178  0.0721  0.0763
  123SOPE  C21013102   2.694   5.562   3.730 -0.3530  0.1565  0.7304
  123SOPE  H10113103   2.627   5.574   3.816 -2.6556  0.5118 -1.0060
  123SOPE  C21113104   2.713   5.698   3.668 -0.3948 -0.0761  0.1896
  123SOPE  H11R13105   2.625   5.765   3.683 -1.8622 -1.2947 -2.4146
  123SOPE  H11S13106   2.735   5.694   3.559  2.7255  1.5181  0.6446
  123SOPE  C21213107   2.841   5.775   3.718  0.1379  0.0600 -0.6040
  123SOPE  H12R13108   2.831   5.878   3.677 -1.3727  0.0838 -0.2136
  123SOPE  H12S13109   2.927   5.708   3.695  0.6135 -0.3591  2.0351
  123SOPE  C21313110   2.854   5.787   3.871  0.7642 -0.8894  0.3132
  123SOPE  H13R13111   2.942   5.852   3.892 -1.3470  2.3188 -0.0822
  123SOPE  H13S13112   2.861   5.684   3.912  2.3191 -1.1670 -0.5515
  123SOPE  C21413113   2.732   5.855   3.931  0.5417 -0.1857  0.5782
  123SOPE  H14R13114   2.647   5.784   3.924  0.4513 -0.0788  0.5867
  123SOPE  H14S13115   2.694   5.947   3.881 -1.1960 -1.8473 -1.3636
  123SOPE  C21513116   2.764   5.872   4.090 -0.2434  0.5915  0.4758
  123SOPE  H15R13117   2.849   5.943   4.095  0.6957 -0.3112 -1.5220
  123SOPE  H15S13118   2.808   5.782   4.138 -1.7710  0.4163  1.6094
  123SOPE  C21613119   2.644   5.907   4.184  0.2900 -0.4202 -0.0397
  123SOPE  H16R13120   2.570   5.827   4.164  0.5256 -0.4860 -0.6482
  123SOPE  H16S13121   2.602   6.006   4.157 -0.6970 -0.7381  0.2745
  123SOPE  C21713122   2.689   5.917   4.333  0.5091  0.4678  0.3895
  123SOPE  H17R13123   2.626   5.986   4.392 -0.5579 -1.3348  1.4412
  123SOPE  H17S13124   2.793   5.955   4.330 -0.0968  2.2854  1.3826
  123SOPE  C21813125   2.686   5.786   4.407 -0.3573 -0.0047 -0.4274
  123SOPE  H18R13126   2.704   5.696   4.345  1.6744 -0.6143  0.9645
  123SOPE  H18S13127   2.576   5.782   4.423 -0.7839  1.1062 -2.5957
  123SOPE  H18T13128   2.747   5.802   4.498 -0.6405  3.5545 -0.6888
  123SOPE   C3313129   2.883   6.126   3.125 -0.3413  0.3741  0.3232
  123SOPE   H3X13130   2.833   6.029   3.144  0.6978 -0.1191  0.6015
  123SOPE   H3Y13131   2.801   6.201   3.117 -0.2406  0.6452  1.7055
  123SOPE   C3413132   2.974   6.167   3.242  0.3068  0.0194 -0.0734
  123SOPE   H4X13133   3.048   6.241   3.205  0.7519 -0.2357  0.3058
  123SOPE   H4Y13134   3.034   6.079   3.271  0.7016  0.1758 -0.4098
  123SOPE   C3513135   2.917   6.217   3.377 -0.2775 -0.0037 -0.0300
  123SOPE   H5X13136   2.880   6.321   3.368 -0.7515 -0.1563  0.1143
  123SOPE   H5Y13137   2.994   6.207   3.455 -1.9781  2.5109  2.1375
  123SOPE   C3613138   2.797   6.133   3.426  0.5712 -0.6933  0.4943
  123SOPE   H6X13139   2.816   6.026   3.450  1.5606 -0.8901 -1.0295
  123SOPE   H6Y13140   2.729   6.135   3.338 -0.8456 -0.1493  1.5624
  123SOPE   C3713141   2.707   6.195   3.530  0.2113  0.0998  0.1635
  123SOPE   H7X13142   2.630   6.115   3.540 -1.6289  1.8978  1.2424
  123SOPE   H7Y13143   2.665   6.297   3.512  1.8505  0.5831 -1.1455
  123SOPE   C3813144   2.791   6.214   3.664  0.6555 -0.1562 -0.3062
  123SOPE   H8X13145   2.875   6.283   3.641  1.3780 -0.9052  0.0246
  123SOPE   H8Y13146   2.844   6.118   3.686 -2.0027 -1.4046  1.1205
  123SOPE   C3913147   2.714   6.267   3.783 -0.1454 -0.0426 -0.0580
  123SOPE   H9X13148   2.642   6.186   3.808 -1.1465 -0.5662 -4.0155
  123SOPE   H9Y13149   2.671   6.364   3.752  0.1798  0.4156  0.8836
  123SOPE  C31013150   2.806   6.283   3.901 -0.2129 -0.6322 -0.1644
  123SOPE  H10X13151   2.863   6.376   3.879  0.2546 -0.2624  2.3036
  123SOPE  H10Y13152   2.880   6.201   3.912  2.2002  1.4890  0.6757
  123SOPE  C31113153   2.717   6.316   4.022  0.4383  0.2095 -0.0344
  123SOPE  H11X13154   2.662   6.222   4.045  1.1155 -0.0896  0.3967
  123SOPE  H11Y13155   2.635   6.382   3.987  0.6378 -1.2408 -3.6785
  123SOPE  C31213156   2.790   6.365   4.149 -0.4930  0.1658  0.4732
  123SOPE  H12X13157   2.820   6.472   4.146 -2.4100  0.7468  0.4116
  123SOPE  H12Y13158   2.881   6.302   4.150  0.3555  1.0973 -3.0678
  123SOPE  C31313159   2.717   6.331   4.280  0.0584  0.1523 -0.0961
  123SOPE  H13X13160   2.693   6.223   4.276  2.7979 -0.5023 -0.6054
  123SOPE  H13Y13161   2.623   6.387   4.300 -0.0974  0.0729 -0.5990
  123SOPE  C31413162   2.796   6.362   4.404 -0.6305 -0.1704  0.1475
  123SOPE  H14X13163   2.845   6.458   4.378  0.9857 -0.5110  1.7064
  123SOPE  H14Y13164   2.886   6.298   4.394  0.5181  1.6534 -2.1987
  123SOPE  C31513165   2.724   6.374   4.539  0.3447  0.4755 -0.1013
  123SOPE  H15X13166   2.681   6.275   4.564  0.5850  0.6649  1.1224
  123SOPE  H15Y13167   2.635   6.440   4.528 -0.7363 -1.0797 -1.1053
  123SOPE  C31613168   2.818   6.418   4.656  0.0245 -0.0372 -0.3125
  123SOPE  H16X13169   2.846   6.524   4.646  1.2517 -0.4195 -1.1553
  123SOPE  H16Y13170   2.907   6.352   4.660 -0.2779 -0.4467 -0.1180
  123SOPE  C31713171   2.746   6.391   4.787  0.3954 -0.0961 -0.3191
  123SOPE  H17X13172   2.804   6.401   4.881  0.7337 -0.8906 -0.4383
  123SOPE  H17Y13173   2.697   6.292   4.792 -1.8951  1.0415  2.3221
  123SOPE  C31813174   2.622   6.480   4.801  0.0635  0.1508 -0.4672
  123SOPE  H18X13175   2.649   6.587   4.812 -1.5154  0.5985 -0.6577
  123SOPE  H18Y13176   2.557   6.454   4.887 -2.0025  3.9336 -0.6351
  123SOPE  H18Z13177   2.554   6.486   4.713 -1.3585  2.0423  0.6764
  124SOPE     N13178   3.691   2.911   2.482  0.3916  0.4011  0.5962
  124SOPE   HN113179   3.674   2.999   2.429  0.1447  0.4425  0.7416
  124SOPE   HN213180   3.605   2.905   2.539  0.2740 -1.0112  0.3073
  124SOPE   HN313181   3.774   2.910   2.544 -0.1101 -2.5505  1.3666
  124SOPE   C1213182   3.697   2.800   2.382 -0.6798  0.8535 -0.1294
  124SOPE  H12A13183   3.800   2.788   2.342 -0.8761 -2.7605  0.0918
  124SOPE  H12B13184   3.619   2.814   2.305  2.2299 -1.2455 -3.7831
  124SOPE   C1113185   3.673   2.659   2.449  0.4167 -0.2863  0.3156
  124SOPE  H11A13186   3.750   2.637   2.526  1.0137 -1.8852 -0.6834
  124SOPE  H11B13187   3.696   2.575   2.379 -1.2889 -0.4785 -0.0541
  124SOPE     P13188   3.501   2.505   2.561 -0.4061  0.2811  0.0347
  124SOPE   O1313189   3.595   2.403   2.522 -0.4561 -0.1041  1.1369
  124SOPE   O1413190   3.363   2.483   2.523 -1.1347  0.7762  0.1255
  124SOPE   O1213191   3.540   2.647   2.502  0.3073  0.1110 -0.8924
  124SOPE   O1113192   3.500   2.527   2.723  0.1444 -0.3288  0.1758
  124SOPE    C113193   3.521   2.653   2.776 -0.1476 -0.0306  0.4571
  124SOPE    HA13194   3.445   2.723   2.735 -1.9509 -0.5718  2.7039
  124SOPE    HB13195   3.622   2.690   2.749 -0.6603 -0.1992 -1.9217
  124SOPE    C213196   3.501   2.647   2.925 -0.5545  0.4835 -0.3644
  124SOPE    HS13197   3.393   2.625   2.940 -0.4631  0.1792 -0.1401
  124SOPE   O2113198   3.559   2.767   2.979 -0.0086 -0.0814 -0.0648
  124SOPE   C2113199   3.466   2.860   3.017  1.1448  0.7032 -1.1322
  124SOPE   O2213200   3.347   2.838   3.026 -0.1377 -0.1587 -0.8192
  124SOPE   C2213201   3.527   2.997   3.040 -0.1560  1.1481 -0.3904
  124SOPE   H2R13202   3.458   3.077   3.005 -2.4238  0.3518  1.9200
  124SOPE   H2S13203   3.623   3.002   2.985  0.1279  2.5953  0.1851
  124SOPE    C313204   3.577   2.524   2.993 -0.4082  0.5083  0.6405
  124SOPE    HX13205   3.685   2.523   2.966 -0.5858 -1.1836 -0.1692
  124SOPE    HY13206   3.530   2.441   2.935  0.8860  0.9114 -1.0609
  124SOPE   O3113207   3.544   2.486   3.127 -0.1251 -0.1499  0.2686
  124SOPE   C3113208   3.598   2.569   3.217 -0.0149 -0.5421  0.1490
  124SOPE   O3213209   3.682   2.654   3.190 -0.9903  0.4697 -0.1818
  124SOPE   C3213210   3.542   2.548   3.358  0.5924  0.1231  0.1069
  124SOPE   H2X13211   3.514   2.442   3.375 -1.0027  0.5449  0.2728
  124SOPE   H2Y13212   3.455   2.616   3.371 -0.3662 -0.8128 -1.2323
  124SOPE   C2313213   3.547   3.008   3.192  0.1589  0.2038 -0.0295
  124SOPE   H3R13214   3.643   3.062   3.212  0.0334  0.3255  0.2435
  124SOPE   H3S13215   3.570   2.906   3.228 -0.3445 -0.3629 -1.2422
  124SOPE   C2413216   3.429   3.044   3.286  1.2199 -0.4269 -0.1553
  124SOPE   H4R13217   3.417   3.154   3.271  3.0411 -0.1504  0.2276
  124SOPE   H4S13218   3.334   2.994   3.256  0.7565  0.9932 -1.1874
  124SOPE   C2513219   3.463   3.022   3.430  0.0730 -0.9153 -0.2803
  124SOPE   H5R13220   3.544   2.946   3.437  0.1146 -0.8181  0.3714
  124SOPE   H5S13221   3.510   3.106   3.485 -2.4969  0.0776  0.5298
  124SOPE   C2613222   3.345   2.960   3.500  0.4794 -0.1524 -0.0008
  124SOPE   H6R13223   3.261   3.026   3.472  0.2423 -0.2798  0.4108
  124SOPE   H6S13224   3.328   2.858   3.459  1.9819 -0.4958  0.1616
  124SOPE   C2713225   3.355   2.958   3.651  0.2947  0.3214 -0.4427
  124SOPE   H7R13226   3.447   2.915   3.696  0.1774  1.1703  0.6447
  124SOPE   H7S13227   3.354   3.063   3.686 -0.5133  0.1122  0.1904
  124SOPE   C2813228   3.231   2.890   3.720  0.2735  1.5354 -0.5868
  124SOPE   H8R13229   3.199   2.945   3.812 -1.7600 -1.0874  0.3903
  124SOPE   H8S13230   3.148   2.915   3.651  1.0107  1.7306 -1.4222
  124SOPE   C2913231   3.224   2.740   3.738  0.2284  0.3380 -0.0412
  124SOPE   H9113232   3.260   2.679   3.653 -0.5170 -1.5598  0.9379
  124SOPE  C21013233   3.184   2.678   3.848  0.4437  0.2638  0.2070
  124SOPE  H10113234   3.181   2.568   3.840  0.4544  0.2959 -0.2757
  124SOPE  C21113235   3.126   2.743   3.968 -0.6008 -0.5124 -0.0504
  124SOPE  H11R13236   3.057   2.672   4.020  0.6302 -0.4909  1.6874
  124SOPE  H11S13237   3.067   2.835   3.949  1.6817  1.2756  1.0820
  124SOPE  C21213238   3.232   2.775   4.066 -0.0203  0.3626  0.1830
  124SOPE  H12R13239   3.296   2.857   4.028 -0.8507  0.6692 -0.5628
  124SOPE  H12S13240   3.305   2.693   4.085 -0.6207 -0.1798  0.1752
  124SOPE  C21313241   3.170   2.821   4.199 -0.8220  1.1079  0.4078
  124SOPE  H13R13242   3.112   2.736   4.240  1.2382 -1.1103 -1.0285
  124SOPE  H13S13243   3.100   2.906   4.179 -0.2472  1.4139 -0.3479
  124SOPE  C21413244   3.282   2.876   4.302 -0.0893 -0.6549 -0.6823
  124SOPE  H14R13245   3.334   2.967   4.264  0.6682  0.3687  2.4971
  124SOPE  H14S13246   3.349   2.790   4.326  0.7008 -0.4977 -2.1935
  124SOPE  C21513247   3.201   2.909   4.426 -0.7397 -0.2893  0.0942
  124SOPE  H15R13248   3.127   2.829   4.447 -0.2296 -0.3279  1.8996
  124SOPE  H15S13249   3.146   3.005   4.410 -0.3450  0.0682  0.7969
  124SOPE  C21613250   3.284   2.940   4.553 -0.0546  0.7673 -0.6113
  124SOPE  H16R13251   3.352   3.024   4.529  2.3916 -1.1565 -0.7138
  124SOPE  H16S13252   3.346   2.855   4.586 -1.8328 -0.4779 -0.3228
  124SOPE  C21713253   3.188   2.982   4.673  0.6128 -0.6684  0.3793
  124SOPE  H17R13254   3.108   2.907   4.665 -0.5565  0.7303 -2.2617
  124SOPE  H17S13255   3.165   3.083   4.632 -0.5406 -1.7482 -1.7766
  124SOPE  C21813256   3.252   2.986   4.813 -0.5116  0.5054 -0.2370
  124SOPE  H18R13257   3.343   3.050   4.814  0.7774 -1.2620  1.0836
  124SOPE  H18S13258   3.275   2.881   4.840 -1.0874  0.0720 -1.3715
  124SOPE  H18T13259   3.183   3.018   4.894 -0.0829 -0.2302  0.4396
  124SOPE   C3313260   3.637   2.588   3.474  0.1741  0.0532  0.0246
  124SOPE   H3X13261   3.694   2.681   3.453  1.7151 -0.7647  0.4726
  124SOPE   H3Y13262   3.716   2.511   3.474  0.8335  0.7193 -0.6268
  124SOPE   C3413263   3.569   2.604   3.615 -0.7020  0.4783  0.6892
  124SOPE   H4X13264   3.487   2.537   3.649  0.6895 -1.5110  0.2725
  124SOPE   H4Y13265   3.526   2.707   3.609 -2.6872 -0.3453 -0.0019
  124SOPE   C3513266   3.665   2.585   3.731  0.5206 -0.2769  0.6529
  124SOPE   H5X13267   3.750   2.656   3.717 -0.3207  0.5664 -0.4885
  124SOPE   H5Y13268   3.704   2.482   3.731 -0.9048 -0.8469  0.1401
  124SOPE   C3613269   3.581   2.591   3.863 -0.8547  0.0604 -0.0342
  124SOPE   H6X13270   3.482   2.541   3.853  0.4456 -2.4486 -1.1652
  124SOPE   H6Y13271   3.571   2.699   3.890  1.8775  0.1592  0.8462
  124SOPE   C3713272   3.649   2.541   4.000 -0.0295 -0.6166  0.7673
  124SOPE   H7X13273   3.747   2.595   4.003 -0.6993  0.8490 -1.2748
  124SOPE   H7Y13274   3.649   2.430   3.995 -1.3924 -0.6171  0.4424
  124SOPE   C3813275   3.577   2.591   4.121  0.0617  0.0795 -1.1014
  124SOPE   H8X13276   3.467   2.578   4.111 -0.0671 -0.1014  0.3573
  124SOPE   H8Y13277   3.585   2.702   4.118 -1.3245  0.3407  1.6596
  124SOPE   C3913278   3.633   2.534   4.256  0.2385 -0.2061  0.2173
  124SOPE   H9X13279   3.744   2.534   4.260  0.2283 -1.3622  0.9382
  124SOPE   H9Y13280   3.598   2.429   4.267  0.4695 -0.4854 -1.3786
  124SOPE  C31013281   3.590   2.610   4.380  0.7449 -0.3151 -0.0109
  124SOPE  H10X13282   3.482   2.635   4.376  1.1931  1.6476 -0.9377
  124SOPE  H10Y13283   3.653   2.701   4.387  0.4386 -0.0153 -0.9992
  124SOPE  C31113284   3.617   2.530   4.509 -0.5670  0.5595  0.2037
  124SOPE  H11X13285   3.720   2.497   4.485 -0.2927  1.6859 -0.2730
  124SOPE  H11Y13286   3.545   2.446   4.509 -1.4289  1.2075 -1.9155
  124SOPE  C31213287   3.616   2.621   4.634  0.0538  0.1257 -0.3759
  124SOPE  H12X13288   3.520   2.673   4.655 -0.2050  1.2177 -3.6367
  124SOPE  H12Y13289   3.686   2.706   4.617  1.3060 -1.0092 -1.0029
  124SOPE  C31313290   3.658   2.540   4.755  0.0756 -0.3686  0.7616
  124SOPE  H13X13291   3.755   2.492   4.727  0.1885 -0.2696  0.9791
  124SOPE  H13Y13292   3.594   2.450   4.762 -2.2436  1.0299 -0.8046
  124SOPE  C31413293   3.694   2.624   4.878 -0.2742  0.3080 -0.7553
  124SOPE  H14X13294   3.603   2.683   4.905 -1.1199 -0.0585 -2.6181
  124SOPE  H14Y13295   3.784   2.688   4.866  0.4293 -0.4075  0.5563
  124SOPE  C31513296   3.727   2.535   5.001  0.1751 -0.4972 -0.0128
  124SOPE  H15X13297   3.785   2.443   4.978 -0.2789 -1.3781  2.1354
  124SOPE  H15Y13298   3.633   2.486   5.035  0.6476 -1.2367  0.2585
  124SOPE  C31613299   3.786   2.619   5.113 -0.0919  0.0834 -0.0203
  124SOPE  H16X13300   3.705   2.682   5.154  1.5735  3.1743 -1.1457
  124SOPE  H16Y13301   3.872   2.683   5.081  1.1165 -2.3971 -2.1478
  124SOPE  C31713302   3.838   2.527   5.225  0.3285  0.2741 -0.4625
  124SOPE  H17X13303   3.888   2.440   5.178  0.6386 -0.1751  0.6678
  124SOPE  H17Y13304   3.750   2.482   5.277  1.3330  1.4158  2.4292
  124SOPE  C31813305   3.923   2.604   5.322 -0.5238 -0.2559  0.1526
  124SOPE  H18X13306   3.851   2.668   5.377  0.2072  1.5577 -0.9085
  124SOPE  H18Y13307   4.000   2.665   5.270 -0.4047 -1.2898 -0.9415
  124SOPE  H18Z13308   3.989   2.542   5.386  2.5177  2.7687  0.2051
  125SOPE     N13309   5.050   2.017   2.874  0.1530 -0.1796  0.1356
  125SOPE   HN113310   5.030   1.928   2.924 -0.0419 -0.4573 -0.4258
  125SOPE   HN213311   5.012   2.094   2.932  1.3291 -0.2352  1.0153
  125SOPE   HN313312   5.006   2.016   2.780  0.3455 -0.2075  0.0453
  125SOPE   C1213313   5.191   2.055   2.867  0.0170 -0.0445  0.6954
  125SOPE  H12A13314   5.226   2.012   2.771 -0.4221  1.5911 -0.2358
  125SOPE  H12B13315   5.253   2.010   2.948  0.6094 -0.5814 -0.0441
  125SOPE   C1113316   5.212   2.210   2.849  0.5157 -0.1081  0.2165
  125SOPE  H11A13317   5.319   2.234   2.829  0.1867 -0.6143 -2.5507
  125SOPE  H11B13318   5.181   2.252   2.947 -2.5302 -0.9410 -0.3112
  125SOPE     P13319   5.061   2.393   2.747 -0.2590 -0.0322 -0.2102
  125SOPE   O1313320   4.942   2.366   2.830  0.3368  0.5692 -0.3517
  125SOPE   O1413321   5.039   2.438   2.611  0.1442 -0.0433  0.3436
  125SOPE   O1213322   5.145   2.263   2.742 -0.1407 -0.5340  0.3997
  125SOPE   O1113323   5.146   2.498   2.826  0.3039  0.0108 -0.3342
  125SOPE    C113324   5.275   2.537   2.783 -0.2162 -0.5050  0.0097
  125SOPE    HA13325   5.263   2.626   2.718 -1.4286  0.6587  1.7404
  125SOPE    HB13326   5.320   2.458   2.718  1.1308  0.5541 -0.3831
  125SOPE    C213327   5.380   2.557   2.895 -0.1146 -0.2284 -0.2650
  125SOPE    HS13328   5.480   2.595   2.863 -0.2526  0.7072  0.3753
  125SOPE   O2113329   5.390   2.435   2.979 -0.1341 -0.4934  0.3386
  125SOPE   C2113330   5.499   2.373   2.930 -0.6144 -0.3286  0.5778
  125SOPE   O2213331   5.532   2.364   2.816  0.1752 -0.0341  0.1308
  125SOPE   C2213332   5.562   2.290   3.047 -0.3073  0.2334 -0.8616
  125SOPE   H2R13333   5.665   2.331   3.049 -0.7570  1.4407  0.9916
  125SOPE   H2S13334   5.571   2.182   3.024  2.7691 -0.5965  3.0186
  125SOPE    C313335   5.320   2.663   2.994  0.4474  0.7058  0.1792
  125SOPE    HX13336   5.228   2.624   3.041 -0.0014 -0.7151 -1.7540
  125SOPE    HY13337   5.295   2.746   2.924  2.6157  0.3298 -1.1506
  125SOPE   O3113338   5.410   2.711   3.094 -0.0195 -0.2580 -0.2970
  125SOPE   C3113339   5.371   2.761   3.216 -0.3867 -0.2828  0.7474
  125SOPE   O3213340   5.255   2.765   3.245 -0.1879 -0.5445 -0.4057
  125SOPE   C3213341   5.497   2.819   3.288 -0.4524  0.6634 -0.2779
  125SOPE   H2X13342   5.459   2.893   3.361  0.7819  1.0368  0.0186
  125SOPE   H2Y13343   5.562   2.861   3.208  1.0334 -0.1748  0.4300
  125SOPE   C2313344   5.492   2.308   3.186 -0.6032 -0.4682  0.0065
  125SOPE   H3R13345   5.388   2.273   3.170  0.0207 -2.8910  0.8891
  125SOPE   H3S13346   5.495   2.409   3.233  2.1650  0.4486 -1.9392
  125SOPE   C2413347   5.555   2.214   3.291  0.3683 -0.2869  0.2692
  125SOPE   H4R13348   5.553   2.109   3.255  0.5034 -0.3556  0.4605
  125SOPE   H4S13349   5.664   2.234   3.302  0.3696  0.3660 -0.8145
  125SOPE   C2513350   5.500   2.251   3.435  0.3174 -0.1410 -0.6884
  125SOPE   H5R13351   5.510   2.360   3.455  0.6521 -0.4026  0.6313
  125SOPE   H5S13352   5.389   2.243   3.447  0.2334 -0.5193 -1.6155
  125SOPE   C2613353   5.556   2.181   3.556 -0.4043  0.3719 -0.2355
  125SOPE   H6R13354   5.561   2.070   3.544  0.1076  0.3721 -0.0412
  125SOPE   H6S13355   5.660   2.217   3.574 -0.4713  1.8851 -2.4304
  125SOPE   C2713356   5.475   2.202   3.682 -0.5375 -0.3202 -1.1279
  125SOPE   H7R13357   5.439   2.306   3.678  0.2109 -0.0486 -0.9309
  125SOPE   H7S13358   5.393   2.127   3.681  0.6975 -1.9988  2.5701
  125SOPE   C2813359   5.549   2.188   3.817  0.2344  0.9690 -0.0683
  125SOPE   H8R13360   5.607   2.093   3.816 -1.3655 -0.1054  1.8884
  125SOPE   H8S13361   5.625   2.269   3.822 -0.3195  1.4302  1.2717
  125SOPE   C2913362   5.465   2.191   3.943  0.2807 -0.1148  0.8264
  125SOPE   H9113363   5.397   2.276   3.956 -1.7623 -1.8250  1.9750
  125SOPE  C21013364   5.490   2.119   4.054 -0.4637 -0.0906 -0.4457
  125SOPE  H10113365   5.426   2.141   4.140  1.4142  0.4388  0.8647
  125SOPE  C21113366   5.586   2.002   4.072 -0.1817 -0.0402  0.4438
  125SOPE  H11R13367   5.680   2.045   4.112 -1.3844  1.6655  1.5902
  125SOPE  H11S13368   5.610   1.961   3.971  0.7770 -0.5873  0.8850
  125SOPE  C21213369   5.529   1.885   4.153 -0.8212  0.3926 -0.0722
  125SOPE  H12R13370   5.605   1.804   4.154 -2.2238 -0.9734  1.1189
  125SOPE  H12S13371   5.428   1.849   4.121  0.0755 -0.4502 -2.1428
  125SOPE  C21313372   5.525   1.918   4.308 -0.3480 -0.4543  0.7457
  125SOPE  H13R13373   5.463   2.007   4.330  0.8376  0.1746  1.6494
  125SOPE  H13S13374   5.627   1.952   4.333 -0.8425  0.3832  1.6850
  125SOPE  C21413375   5.497   1.798   4.404  0.3985 -0.1405  0.2992
  125SOPE  H14R13376   5.541   1.814   4.504  0.5842  1.0381  0.0354
  125SOPE  H14S13377   5.538   1.700   4.369 -1.8122 -0.9559 -0.1829
  125SOPE  C21513378   5.348   1.799   4.423 -0.3631  0.1767 -0.1811
  125SOPE  H15R13379   5.296   1.817   4.326 -2.3756 -0.0630  0.7918
  125SOPE  H15S13380   5.325   1.886   4.487  1.2195  1.6616 -1.5365
  125SOPE  C21613381   5.285   1.676   4.491  0.2710  0.1764  0.5222
  125SOPE  H16R13382   5.323   1.661   4.595  3.2556  0.5318 -0.4179
  125SOPE  H16S13383   5.310   1.593   4.422  1.1301  0.9907 -0.1611
  125SOPE  C21713384   5.140   1.689   4.502  0.3085 -0.1013 -0.6571
  125SOPE  H17R13385   5.114   1.791   4.538 -0.3902 -0.9227  1.2523
  125SOPE  H17S13386   5.106   1.619   4.581 -0.2065  2.2145  1.3003
  125SOPE  C21813387   5.062   1.655   4.368  0.8747  0.0737  0.1762
  125SOPE  H18R13388   5.126   1.602   4.294 -0.1163 -0.8890 -0.0094
  125SOPE  H18S13389   5.032   1.748   4.315 -0.0389 -0.1563  0.2806
  125SOPE  H18T13390   4.969   1.597   4.385  2.2905 -2.0739  1.1183
  125SOPE   C3313391   5.591   2.708   3.356 -0.0410  0.1026  0.2727
  125SOPE   H3X13392   5.670   2.771   3.401  0.5592  0.4405 -1.2095
  125SOPE   H3Y13393   5.642   2.655   3.273 -1.8222  2.3184 -2.4151
  125SOPE   C3413394   5.523   2.622   3.459  0.1330  0.2177  0.4095
  125SOPE   H4X13395   5.597   2.550   3.502  0.6307  1.5203  1.8389
  125SOPE   H4Y13396   5.447   2.560   3.409  1.1232 -0.5755 -0.1555
  125SOPE   C3513397   5.476   2.709   3.578 -0.2844  0.7153  0.3243
  125SOPE   H5X13398   5.407   2.790   3.546 -2.2224 -0.5547  1.1321
  125SOPE   H5Y13399   5.564   2.762   3.620  1.3043  0.1120 -2.0276
  125SOPE   C3613400   5.410   2.622   3.682  0.6758  0.5092  0.4297
  125SOPE   H6X13401   5.485   2.545   3.710 -0.2143 -0.1328  1.1207
  125SOPE   H6Y13402   5.321   2.573   3.639  1.6348 -0.1343 -0.8821
  125SOPE   C3713403   5.353   2.691   3.809  0.0104 -0.1658 -0.0235
  125SOPE   H7X13404   5.298   2.618   3.871  0.2975 -1.3722 -1.1452
  125SOPE   H7Y13405   5.274   2.758   3.770 -1.2743 -0.9505  1.1390
  125SOPE   C3813406   5.445   2.772   3.901 -0.5024 -0.5069 -0.2953
  125SOPE   H8X13407   5.388   2.837   3.970 -1.4123  0.8856 -2.2654
  125SOPE   H8Y13408   5.509   2.843   3.844 -0.9687  0.9983  0.9846
  125SOPE   C3913409   5.545   2.683   3.985  1.3165  0.1967  0.0471
  125SOPE   H9X13410   5.640   2.737   4.005  2.1100 -1.5413  1.2234
  125SOPE   H9Y13411   5.578   2.609   3.909  2.0283 -0.0923  0.6233
  125SOPE  C31013412   5.486   2.619   4.118 -0.7580  0.8868  0.1599
  125SOPE  H10X13413   5.387   2.573   4.100 -1.5559  2.8470 -0.7436
  125SOPE  H10Y13414   5.483   2.694   4.200  1.9532 -0.0669  1.2343
  125SOPE  C31113415   5.575   2.507   4.186  0.1890 -0.9225  1.2544
  125SOPE  H11X13416   5.680   2.544   4.177  0.9081 -3.2302 -1.9201
  125SOPE  H11Y13417   5.574   2.418   4.119 -1.4667 -0.0989  0.1192
  125SOPE  C31213418   5.545   2.467   4.331  0.2724 -0.5500  0.1927
  125SOPE  H12X13419   5.544   2.561   4.390  0.6537  0.1364 -0.8698
  125SOPE  H12Y13420   5.636   2.410   4.358  1.4115  0.7132 -0.8772
  125SOPE  C31313421   5.421   2.386   4.338 -0.0728  0.2878 -0.4223
  125SOPE  H13X13422   5.450   2.285   4.301  1.3304 -0.4544  2.4152
  125SOPE  H13Y13423   5.344   2.432   4.273 -0.1787  0.9779  0.1724
  125SOPE  C31413424   5.359   2.386   4.480  0.5451 -0.1223 -0.1911
  125SOPE  H14X13425   5.257   2.342   4.494  0.8553 -0.4477  1.3104
  125SOPE  H14Y13426   5.353   2.489   4.520  2.2912  0.3341 -1.0186
  125SOPE  C31513427   5.448   2.309   4.591 -0.7775 -0.4816  0.5932
  125SOPE  H15X13428   5.398   2.305   4.691  1.8472  0.3151  2.0144
  125SOPE  H15Y13429   5.541   2.365   4.612 -0.9939  0.4962 -0.9089
  125SOPE  C31613430   5.501   2.179   4.547  0.5200  0.2494 -0.5326
  125SOPE  H16X13431   5.562   2.192   4.456  0.8008  1.7812 -0.1399
  125SOPE  H16Y13432   5.431   2.099   4.515  2.1575 -2.5055  2.1594
  125SOPE  C31713433   5.578   2.099   4.651 -0.1587 -0.0812  0.1395
  125SOPE  H17X13434   5.638   2.170   4.712 -0.1122 -0.5598  0.6520
  125SOPE  H17Y13435   5.643   2.024   4.600 -0.1684  0.5807 -0.8736
  125SOPE  C31813436   5.480   2.028   4.748  0.5277  0.1915 -0.0620
  125SOPE  H18X13437   5.448   2.098   4.828 -0.3176 -1.3442  1.0061
  125SOPE  H18Y13438   5.541   1.962   4.814 -1.1869  0.4355  1.8567
  125SOPE  H18Z13439   5.390   1.980   4.705 -0.4582  2.3556 -0.5460
  126SOPE     N13440   1.279   5.354   2.360  0.5592  0.0096 -0.5044
  126SOPE   HN113441   1.376   5.387   2.377  1.2616 -2.2103  0.1589
  126SOPE   HN213442   1.295   5.252   2.374 -0.5862 -0.3247 -1.4473
  126SOPE   HN313443   1.262   5.365   2.258  1.4779 -1.4332 -0.8402
  126SOPE   C1213444   1.175   5.423   2.444  0.1101 -0.1403 -0.2563
  126SOPE  H12A13445   1.236   5.459   2.530  0.6489  2.5425 -1.6628
  126SOPE  H12B13446   1.100   5.347   2.474 -0.7891  0.0948 -1.8156
  126SOPE   C1113447   1.120   5.543   2.364  0.8466 -0.7031  0.1503
  126SOPE  H11A13448   1.204   5.605   2.327 -1.8751  1.6767 -2.5047
  126SOPE  H11B13449   1.059   5.608   2.429 -0.4536 -0.9999 -0.7439
  126SOPE     P13450   0.899   5.445   2.266 -0.2669  0.2054  0.3188
  126SOPE   O1313451   0.917   5.297   2.249  0.1747  1.2277  0.7586
  126SOPE   O1413452   0.798   5.505   2.181 -0.5456 -0.2519 -0.3175
  126SOPE   O1213453   1.037   5.511   2.255 -0.4323 -0.4077  0.3851
  126SOPE   O1113454   0.864   5.475   2.416 -0.1425  0.0882 -0.5300
  126SOPE    C113455   0.760   5.569   2.444 -0.4193 -0.2234 -0.7221
  126SOPE    HA13456   0.667   5.509   2.443  1.4384 -3.3288 -1.1089
  126SOPE    HB13457   0.758   5.650   2.368  0.8715 -2.6453 -3.5400
  126SOPE    C213458   0.778   5.626   2.585  0.2163 -0.4312 -0.8368
  126SOPE    HS13459   0.866   5.693   2.584 -1.2635  1.6315  0.3394
  126SOPE   O2113460   0.771   5.525   2.691 -0.4614  0.4199 -0.1719
  126SOPE   C2113461   0.899   5.497   2.730 -0.5671 -0.0894 -0.2438
  126SOPE   O2213462   1.000   5.569   2.711  0.3666  0.3912  0.5069
  126SOPE   C2213463   0.897   5.358   2.784 -0.3492 -0.1329  0.6031
  126SOPE   H2R13464   0.885   5.287   2.700  0.7821 -0.1906  0.4764
  126SOPE   H2S13465   0.803   5.332   2.837 -0.6610 -1.6148 -0.6233
  126SOPE    C313466   0.663   5.737   2.613 -0.1637 -0.4306  0.1649
  126SOPE    HX13467   0.571   5.675   2.626 -0.3451  0.1250  1.7623
  126SOPE    HY13468   0.658   5.795   2.518 -1.2230 -3.5957 -1.8676
  126SOPE   O3113469   0.690   5.821   2.734 -0.3090 -0.5900 -0.0956
  126SOPE   C3113470   0.594   5.916   2.760 -0.5676 -0.1203 -0.8767
  126SOPE   O3213471   0.491   5.935   2.698 -0.3544  0.4774 -0.2400
  126SOPE   C3213472   0.622   5.979   2.900  0.1348  0.4482 -0.1104
  126SOPE   H2X13473   0.721   6.027   2.889 -0.0367  0.4807 -1.9471
  126SOPE   H2Y13474   0.646   5.897   2.971 -2.4544 -1.9525 -1.7836
  126SOPE   C2313475   1.019   5.331   2.867 -0.4518  0.4019  0.2589
  126SOPE   H3R13476   1.106   5.362   2.805  1.0978 -0.1406  2.0727
  126SOPE   H3S13477   1.042   5.229   2.904 -0.2940  0.9510  1.7505
  126SOPE   C2413478   1.005   5.401   3.006  0.0623  0.5018 -0.5070
  126SOPE   H4R13479   0.965   5.504   2.997  1.2943  1.4321  2.9659
  126SOPE   H4S13480   0.930   5.353   3.071 -0.0618  1.6127  0.1968
  126SOPE   C2513481   1.131   5.397   3.099  0.0217 -0.2522  0.6891
  126SOPE   H5R13482   1.177   5.297   3.085  0.4585 -0.1055  1.0603
  126SOPE   H5S13483   1.208   5.470   3.066 -0.2693 -0.3191 -0.1713
  126SOPE   C2613484   1.098   5.414   3.247 -0.6938  0.4243 -0.1827
  126SOPE   H6R13485   1.024   5.497   3.255 -3.1862 -1.7333  1.1425
  126SOPE   H6S13486   1.039   5.324   3.276 -0.2032  0.4659  0.9908
  126SOPE   C2713487   1.214   5.417   3.338 -0.3579  1.0323  0.3495
  126SOPE   H7R13488   1.259   5.317   3.318 -1.3894  0.5281  0.4936
  126SOPE   H7S13489   1.291   5.488   3.303  2.9923 -2.3284  0.1816
  126SOPE   C2813490   1.179   5.437   3.483  0.9353  1.0368 -0.3876
  126SOPE   H8R13491   1.270   5.440   3.546  0.6632 -0.5078  0.1336
  126SOPE   H8S13492   1.124   5.533   3.493 -1.8395 -0.4359 -0.4798
  126SOPE   C2913493   1.083   5.329   3.539 -0.1103 -0.1575 -0.2111
  126SOPE   H9113494   0.982   5.335   3.497  0.5602  0.7644 -1.8075
  126SOPE  C21013495   1.113   5.234   3.626  0.4316  0.0244  0.8981
  126SOPE  H10113496   1.032   5.168   3.660 -0.7038  0.8631 -0.0939
  126SOPE  C21113497   1.250   5.213   3.681 -0.4065  0.1990 -0.5377
  126SOPE  H11R13498   1.329   5.255   3.615 -1.2413  1.9333 -0.4739
  126SOPE  H11S13499   1.271   5.105   3.701  1.1369  0.2689 -1.6419
  126SOPE  C21213500   1.278   5.289   3.816 -0.7812 -0.2169  0.0464
  126SOPE  H12R13501   1.314   5.390   3.787  2.2988 -0.9107  1.0121
  126SOPE  H12S13502   1.361   5.235   3.868  1.1074 -0.6629 -3.1626
  126SOPE  C21313503   1.164   5.306   3.914  0.3901  0.3002 -0.6520
  126SOPE  H13R13504   1.078   5.362   3.871  0.6278  3.1574  2.2164
  126SOPE  H13S13505   1.207   5.365   3.998 -0.0635 -0.2196 -0.0472
  126SOPE  C21413506   1.127   5.177   3.987 -0.2163 -0.1816 -0.8235
  126SOPE  H14R13507   1.222   5.125   4.007  0.8350  0.8260 -2.8364
  126SOPE  H14S13508   1.059   5.112   3.928 -1.2064 -1.0495  1.1826
  126SOPE  C21513509   1.051   5.227   4.110  0.5752 -0.6415  0.7524
  126SOPE  H15R13510   0.988   5.315   4.087  1.7394 -0.0241 -0.2304
  126SOPE  H15S13511   1.114   5.264   4.195 -2.9298  1.5742  2.6276
  126SOPE  C21613512   0.957   5.116   4.162  0.3055  0.1688 -0.1434
  126SOPE  H16R13513   1.015   5.034   4.210 -0.2772 -0.0267  0.2347
  126SOPE  H16S13514   0.886   5.085   4.082 -0.2663 -0.8817  0.7405
  126SOPE  C21713515   0.865   5.164   4.282  0.2682  0.0201  0.2619
  126SOPE  H17R13516   0.801   5.243   4.237 -0.7313 -1.6504 -1.4006
  126SOPE  H17S13517   0.921   5.212   4.365 -0.0658 -1.5161  1.4253
  126SOPE  C21813518   0.782   5.049   4.329  0.1275 -0.0200  0.0895
  126SOPE  H18R13519   0.708   5.091   4.400  0.4132  0.4101  0.1389
  126SOPE  H18S13520   0.850   4.973   4.373  1.2217  0.5606 -0.5433
  126SOPE  H18T13521   0.729   5.020   4.235  1.5167  1.7614 -1.3265
  126SOPE   C3313522   0.521   6.080   2.960  0.5120 -0.0409 -0.6594
  126SOPE   H3X13523   0.437   6.020   3.000  1.5103  0.0575  1.7449
  126SOPE   H3Y13524   0.489   6.145   2.875 -1.6080 -0.9859 -0.6438
  126SOPE   C3413525   0.588   6.162   3.072  0.8552  0.1589 -0.3263
  126SOPE   H4X13526   0.534   6.256   3.095 -1.1991 -0.9896 -0.2186
  126SOPE   H4Y13527   0.683   6.197   3.025  0.3191 -0.1480 -1.6767
  126SOPE   C3513528   0.620   6.084   3.202 -0.1606 -0.2328  0.2039
  126SOPE   H5X13529   0.667   6.158   3.270 -0.5806  0.9319 -0.7609
  126SOPE   H5Y13530   0.694   6.002   3.184  1.4325  1.4572 -1.3908
  126SOPE   C3613531   0.502   6.025   3.278 -0.0940  0.0176  0.3583
  126SOPE   H6X13532   0.472   5.924   3.242 -1.1689 -0.2692  1.9493
  126SOPE   H6Y13533   0.409   6.084   3.262 -0.5682 -0.7652  0.1894
  126SOPE   C3713534   0.527   6.021   3.432  0.1286 -1.1519  0.8063
  126SOPE   H7X13535   0.554   6.123   3.467  0.1830 -1.0726  0.5356
  126SOPE   H7Y13536   0.619   5.961   3.449  0.8405  0.2971  2.3313
  126SOPE   C3813537   0.413   5.969   3.514 -0.0782  0.4688 -0.1817
  126SOPE   H8X13538   0.393   5.881   3.449  1.7873 -0.2063  0.0886
  126SOPE   H8Y13539   0.331   6.043   3.517 -0.4762  0.2804 -3.0884
  126SOPE   C3913540   0.449   5.918   3.657 -0.3752  0.3381 -0.7022
  126SOPE   H9X13541   0.549   5.871   3.646 -1.1095 -0.9222 -2.3273
  126SOPE   H9Y13542   0.379   5.845   3.704  1.5649 -0.6383  0.7954
  126SOPE  C31013543   0.464   6.038   3.756 -0.7350 -0.2467  0.6577
  126SOPE  H10X13544   0.377   6.103   3.729 -0.8236  0.2935  2.1616
  126SOPE  H10Y13545   0.559   6.091   3.733 -1.3911  0.8533  0.3663
  126SOPE  C31113546   0.451   6.007   3.907  0.4050  0.7682 -0.4886
  126SOPE  H11X13547   0.543   5.953   3.940  0.9228  1.3498 -0.9561
  126SOPE  H11Y13548   0.370   5.936   3.936 -0.3482  2.6423  2.3253
  126SOPE  C31213549   0.429   6.129   3.998 -0.5584  0.1326 -0.3440
  126SOPE  H12X13550   0.419   6.091   4.102  2.7391  0.8092  0.3337
  126SOPE  H12Y13551   0.350   6.196   3.960 -0.2885  1.7435  1.7776
  126SOPE  C31313552   0.546   6.220   4.023  0.1886 -0.3810 -0.0545
  126SOPE  H13X13553   0.574   6.257   3.923  0.4668 -0.4517 -0.0036
  126SOPE  H13Y13554   0.632   6.156   4.053 -0.6554 -1.5158  0.0429
  126SOPE  C31413555   0.526   6.345   4.104  0.2783 -0.4923 -0.3380
  126SOPE  H14X13556   0.462   6.416   4.047  2.1181  1.7213  0.2460
  126SOPE  H14Y13557   0.627   6.392   4.103  0.2349 -0.4004 -1.0623
  126SOPE  C31513558   0.477   6.336   4.248 -0.5084  0.4503 -0.2842
  126SOPE  H15X13559   0.376   6.292   4.256 -0.0153 -0.6830 -0.0150
  126SOPE  H15Y13560   0.458   6.438   4.285 -0.5868  1.1386 -2.0936
  126SOPE  C31613561   0.571   6.259   4.346 -0.2581 -0.5317  0.6006
  126SOPE  H16X13562   0.674   6.278   4.310 -0.0405 -2.2947  0.1752
  126SOPE  H16Y13563   0.552   6.150   4.338  0.0810 -0.4783 -1.3517
  126SOPE  C31713564   0.553   6.302   4.492  0.0638 -0.4650 -0.0852
  126SOPE  H17X13565   0.463   6.251   4.534  0.8244 -2.0699 -0.3133
  126SOPE  H17Y13566   0.544   6.411   4.509 -0.8279 -0.6439  0.6625
  126SOPE  C31813567   0.677   6.265   4.575  0.1881  0.2900 -0.1512
  126SOPE  H18X13568   0.669   6.294   4.682 -2.6298 -1.7965  0.3115
  126SOPE  H18Y13569   0.767   6.316   4.534 -0.5963  1.1223 -0.8742
  126SOPE  H18Z13570   0.698   6.157   4.567  1.0216  0.4258  0.1130
  127SOPE     N13571   0.986   6.384   2.063 -0.0693  0.0963 -0.3471
  127SOPE   HN113572   0.970   6.455   2.136  2.0241  3.3206 -2.7232
  127SOPE   HN213573   0.896   6.358   2.018 -0.3054 -1.4458  0.9513
  127SOPE   HN313574   1.023   6.303   2.117 -0.4354 -1.1237 -1.8509
  127SOPE   C1213575   1.095   6.434   1.960  0.1448 -0.0410 -0.8267
  127SOPE  H12A13576   1.055   6.532   1.926 -1.7429 -0.1124  0.9697
  127SOPE  H12B13577   1.093   6.365   1.872 -0.9803 -0.1736 -0.7184
  127SOPE   C1113578   1.232   6.449   2.032  0.7251  0.2829 -0.4293
  127SOPE  H11A13579   1.298   6.484   1.951 -0.7315 -1.3586 -2.4225
  127SOPE  H11B13580   1.275   6.350   2.058 -0.6000 -0.4522 -0.9323
  127SOPE     P13581   1.356   6.594   2.203  0.2235  0.0607 -0.1032
  127SOPE   O1313582   1.329   6.735   2.239 -0.5697 -0.1890 -0.7713
  127SOPE   O1413583   1.477   6.563   2.125 -0.0205 -0.3101 -0.1429
  127SOPE   O1213584   1.220   6.546   2.135  0.1296  0.6908 -0.4046
  127SOPE   O1113585   1.372   6.514   2.336 -0.0347 -0.3751  0.2099
  127SOPE    C113586   1.283   6.410   2.375  0.0801  0.0917 -1.0265
  127SOPE    HA13587   1.297   6.315   2.319 -1.2926 -0.8166  0.1187
  127SOPE    HB13588   1.175   6.435   2.367  0.1899  0.5708 -1.0588
  127SOPE    C213589   1.297   6.369   2.524 -0.5873 -0.4416 -0.0816
  127SOPE    HS13590   1.203   6.323   2.561 -0.9224  0.3091  0.0308
  127SOPE   O2113591   1.329   6.479   2.610  0.5193  0.7011 -0.6374
  127SOPE   C2113592   1.224   6.555   2.633 -0.5790 -0.4848  0.1020
  127SOPE   O2213593   1.109   6.536   2.592 -0.4029 -0.0757 -0.4614
  127SOPE   C2213594   1.267   6.657   2.743  0.3147 -0.3784  0.4316
  127SOPE   H2R13595   1.189   6.731   2.769 -0.0324 -0.4921 -0.2506
  127SOPE   H2S13596   1.347   6.718   2.696 -1.8648  0.8879 -1.9031
  127SOPE    C313597   1.407   6.267   2.545  0.1203  0.4223 -0.1366
  127SOPE    HX13598   1.512   6.291   2.520  0.5017 -0.1460  0.8562
  127SOPE    HY13599   1.379   6.185   2.474  0.4819 -0.5930  0.8703
  127SOPE   O3113600   1.380   6.205   2.684 -0.6557  0.4208  0.5055
  127SOPE   C3113601   1.457   6.246   2.777  0.0227  0.2954  0.0798
  127SOPE   O3213602   1.547   6.326   2.771 -0.2118 -0.2834  0.2628
  127SOPE   C3213603   1.411   6.170   2.906 -0.8139 -0.7521  0.6795
  127SOPE   H2X13604   1.382   6.063   2.894  0.7698 -1.2175  0.7505
  127SOPE   H2Y13605   1.315   6.220   2.930 -0.4013  0.2342  0.2939
  127SOPE   C2313606   1.317   6.589   2.866 -0.9196 -0.1459 -0.8014
  127SOPE   H3R13607   1.412   6.532   2.852  0.2404  0.8262  2.3068
  127SOPE   H3S13608   1.240   6.519   2.904 -2.1763  1.7514  0.3438
  127SOPE   C2413609   1.323   6.689   2.982 -1.0479  0.1656 -0.0900
  127SOPE   H4R13610   1.392   6.766   2.943  0.6707 -1.7707 -1.1155
  127SOPE   H4S13611   1.218   6.721   3.001 -0.6188  1.2719  0.4555
  127SOPE   C2513612   1.390   6.638   3.106 -0.2073  0.3635 -0.4384
  127SOPE   H5R13613   1.344   6.543   3.141 -5.1452  3.4752  2.7873
  127SOPE   H5S13614   1.497   6.617   3.089 -0.0889 -2.5172  2.6066
  127SOPE   C2613615   1.365   6.741   3.214  0.0351  0.3056  0.3299
  127SOPE   H6R13616   1.358   6.841   3.165  0.4141  0.0842 -0.1828
  127SOPE   H6S13617   1.269   6.718   3.264 -1.0627  0.8296 -1.4670
  127SOPE   C2713618   1.475   6.735   3.322  0.5264  0.3794  0.0466
  127SOPE   H7R13619   1.496   6.629   3.348 -0.2752  0.5138  1.3419
  127SOPE   H7S13620   1.571   6.780   3.288  1.3602 -1.7575 -0.6319
  127SOPE   C2813621   1.435   6.799   3.461  0.1835  0.1987  0.4558
  127SOPE   H8R13622   1.389   6.898   3.442  2.1581  0.9623 -0.6761
  127SOPE   H8S13623   1.351   6.741   3.505 -2.9519  2.4266 -2.1250
  127SOPE   C2913624   1.551   6.812   3.554 -0.0370  0.5023  0.3286
  127SOPE   H9113625   1.640   6.857   3.509  0.3753 -0.7466 -0.1521
  127SOPE  C21013626   1.549   6.793   3.690 -0.4371 -0.0471 -0.4625
  127SOPE  H10113627   1.645   6.813   3.740 -0.4970  2.3932 -1.1645
  127SOPE  C21113628   1.438   6.742   3.785 -0.9739  0.4837  0.2599
  127SOPE  H11R13629   1.400   6.646   3.743  0.4995 -0.0784  0.1491
  127SOPE  H11S13630   1.358   6.817   3.772  0.0763  1.1993 -3.2073
  127SOPE  C21213631   1.476   6.719   3.930  0.3119  0.4364 -0.8601
  127SOPE  H12R13632   1.459   6.813   3.987  0.9461 -1.0595  1.9682
  127SOPE  H12S13633   1.585   6.700   3.944  0.4289  1.5002 -0.2325
  127SOPE  C21313634   1.421   6.596   3.996 -0.1429  0.0596  0.3046
  127SOPE  H13R13635   1.491   6.511   3.981  0.1523  0.4166 -0.4088
  127SOPE  H13S13636   1.328   6.555   3.951  0.4287  0.1606 -1.0130
  127SOPE  C21413637   1.395   6.622   4.145  1.1226  0.1144  0.1335
  127SOPE  H14R13638   1.314   6.550   4.172  0.0657  1.3538  0.3701
  127SOPE  H14S13639   1.364   6.727   4.162  1.8285  0.5358 -1.0736
  127SOPE  C21513640   1.506   6.592   4.243 -0.4525  0.1192  0.2969
  127SOPE  H15R13641   1.593   6.658   4.225 -0.5247  0.0548 -0.2959
  127SOPE  H15S13642   1.530   6.484   4.229 -0.4312 -0.1394  2.1246
  127SOPE  C21613643   1.456   6.605   4.386  0.1155 -0.4971  0.0556
  127SOPE  H16R13644   1.365   6.542   4.389 -1.2483  1.3972  1.9156
  127SOPE  H16S13645   1.419   6.710   4.397 -2.3627 -1.3198  0.2216
  127SOPE  C21713646   1.562   6.562   4.494  0.0351 -0.1376  0.4957
  127SOPE  H17R13647   1.632   6.644   4.517 -0.4399 -0.0834  1.9062
  127SOPE  H17S13648   1.610   6.473   4.448  0.6867 -0.7062  2.1891
  127SOPE  C21813649   1.491   6.506   4.620  0.5827 -0.7520 -0.1154
  127SOPE  H18R13650   1.452   6.588   4.685  0.1676 -1.1456  0.1370
  127SOPE  H18S13651   1.570   6.451   4.675  2.2490  1.0240 -0.6134
  127SOPE  H18T13652   1.408   6.436   4.594 -1.1539  1.6341 -1.4468
  127SOPE   C3313653   1.521   6.187   3.018 -0.1937  0.5985  0.2902
  127SOPE   H3X13654   1.571   6.286   3.020 -0.9232  0.9929 -0.6502
  127SOPE   H3Y13655   1.598   6.112   2.989 -1.0276  0.1771 -0.9112
  127SOPE   C3413656   1.462   6.175   3.159  0.2049 -0.0937 -0.7614
  127SOPE   H4X13657   1.447   6.066   3.174  0.8018  0.0607  1.1911
  127SOPE   H4Y13658   1.370   6.230   3.184  0.3124 -0.6373  0.9670
  127SOPE   C3513659   1.580   6.214   3.253  0.2734 -0.0969 -0.3235
  127SOPE   H5X13660   1.591   6.324   3.240 -2.6223  0.6016  1.9514
  127SOPE   H5Y13661   1.666   6.151   3.221 -0.9267 -1.2141 -1.4438
  127SOPE   C3613662   1.546   6.187   3.401  0.9582  0.9487  0.0467
  127SOPE   H6X13663   1.525   6.078   3.409  1.3999  0.9573  1.6278
  127SOPE   H6Y13664   1.459   6.253   3.419 -0.1844 -0.2120 -0.9689
  127SOPE   C3713665   1.660   6.218   3.502  0.1601 -0.9465 -0.8087
  127SOPE   H7X13666   1.751   6.161   3.473  0.5655  0.2636 -2.0429
  127SOPE   H7Y13667   1.624   6.184   3.601 -1.1018  1.0073 -0.5515
  127SOPE   C3813668   1.687   6.365   3.510  0.6880 -0.2496 -0.6863
  127SOPE   H8X13669   1.599   6.430   3.526  0.6678 -0.5807  0.6362
  127SOPE   H8Y13670   1.739   6.391   3.415  0.9554  0.0116 -0.4703
  127SOPE   C3913671   1.781   6.417   3.619  0.0979 -0.6238 -0.2803
  127SOPE   H9X13672   1.788   6.526   3.600 -0.8182 -0.7533 -1.4074
  127SOPE   H9Y13673   1.878   6.365   3.603 -0.3385 -0.8953 -2.3291
  127SOPE  C31013674   1.723   6.413   3.762  0.8904  1.2642 -0.5944
  127SOPE  H10X13675   1.624   6.362   3.756  1.1272  0.9518 -2.2244
  127SOPE  H10Y13676   1.714   6.519   3.793  1.1165  1.1398 -0.0818
  127SOPE  C31113677   1.812   6.339   3.859 -0.5804  0.1833  0.0073
  127SOPE  H11X13678   1.914   6.384   3.858  1.6418 -3.8815 -5.3995
  127SOPE  H11Y13679   1.832   6.239   3.814  0.2774  1.0199 -1.5848
  127SOPE  C31213680   1.760   6.334   4.000  0.4040  0.5817  0.0337
  127SOPE  H12X13681   1.669   6.271   4.009  1.8372 -1.3223  2.7678
  127SOPE  H12Y13682   1.737   6.439   4.029  2.3513  1.6909 -2.0902
  127SOPE  C31313683   1.864   6.287   4.108 -0.2463 -0.4383  0.2229
  127SOPE  H13X13684   1.952   6.354   4.108  1.6810 -2.8050 -0.4294
  127SOPE  H13Y13685   1.904   6.186   4.083  0.5494 -0.0166 -0.2341
  127SOPE  C31413686   1.792   6.279   4.240 -0.4476 -0.6662  0.1405
  127SOPE  H14X13687   1.706   6.209   4.242 -0.6728 -0.5037 -1.6542
  127SOPE  H14Y13688   1.747   6.380   4.253 -1.2126 -0.8089 -1.2035
  127SOPE  C31513689   1.887   6.237   4.351 -1.5479  0.0110  0.5122
  127SOPE  H15X13690   1.985   6.289   4.344 -1.6744  0.9487  3.8000
  127SOPE  H15Y13691   1.909   6.128   4.350 -0.0260  0.2880 -0.8501
  127SOPE  C31613692   1.822   6.271   4.491 -0.8281 -0.0306 -0.4749
  127SOPE  H16X13693   1.732   6.207   4.500 -2.1330  1.9340  1.3561
  127SOPE  H16Y13694   1.789   6.376   4.493 -0.9900 -0.0184 -2.0824
  127SOPE  C31713695   1.912   6.237   4.607 -0.3729 -0.0404  0.3234
  127SOPE  H17X13696   1.996   6.308   4.622  0.5242 -1.2449  1.1898
  127SOPE  H17Y13697   1.966   6.145   4.576  1.7421  2.1247 -3.0994
  127SOPE  C31813698   1.844   6.210   4.738 -0.2291 -0.5625  0.1495
  127SOPE  H18X13699   1.767   6.130   4.734  0.9831 -1.7332 -1.0062
  127SOPE  H18Y13700   1.794   6.304   4.767  0.7973  0.2364 -0.5847
  127SOPE  H18Z13701   1.917   6.185   4.818 -1.2958  2.7283  2.3947
  128SOPE     N13702   5.118   5.641   2.770 -0.5766 -0.0474  0.1067
  128SOPE   HN113703   5.159   5.731   2.803  0.4968 -1.1768  2.0470
  128SOPE   HN213704   5.171   5.618   2.683 -0.0102  2.9250 -0.4739
  128SOPE   HN313705   5.021   5.671   2.745  0.4769  1.7617 -2.3757
  128SOPE   C1213706   5.118   5.532   2.872  0.4045  0.2003  0.4221
  128SOPE  H12A13707   5.073   5.572   2.965  0.2606  1.3426 -0.1315
  128SOPE  H12B13708   5.220   5.489   2.883  0.0689 -0.8016 -0.2131
  128SOPE   C1113709   5.015   5.425   2.830  0.3655 -0.2054  0.3936
  128SOPE  H11A13710   5.028   5.390   2.726 -1.6419  0.2045 -0.0237
  128SOPE  H11B13711   4.910   5.461   2.841  0.5288  1.0102 -1.5860
  128SOPE     P13712   4.923   5.201   2.940  0.3745 -0.0296 -0.2240
  128SOPE   O1313713   4.926   5.095   2.838  0.5356  0.1103 -0.2910
  128SOPE   O1413714   4.794   5.266   2.965 -0.2261  0.1774  0.4210
  128SOPE   O1213715   5.034   5.307   2.905 -0.1061 -0.2514  0.0686
  128SOPE   O1113716   4.957   5.136   3.076 -0.6723 -0.0117 -0.7506
  128SOPE    C113717   5.086   5.068   3.084  0.1856 -0.3895 -0.1873
  128SOPE    HA13718   5.166   5.145   3.077  0.0954 -0.4223 -2.5564
  128SOPE    HB13719   5.104   4.997   3.000  1.6713 -1.6133  1.0903
  128SOPE    C213720   5.099   4.972   3.204 -0.0890  0.4745 -0.2870
  128SOPE    HS13721   5.011   4.904   3.191 -0.6581  1.4200 -1.6188
  128SOPE   O2113722   5.093   5.056   3.324  0.2141  0.4337 -0.2410
  128SOPE   C2113723   5.044   4.998   3.437  0.1664 -0.2337  1.0974
  128SOPE   O2213724   5.024   4.879   3.452  0.5882  0.5723 -0.3699
  128SOPE   C2213725   5.011   5.106   3.536  0.9841  0.3061 -0.6845
  128SOPE   H2R13726   4.905   5.136   3.520  0.3360 -1.0361  0.8830
  128SOPE   H2S13727   5.070   5.199   3.520 -0.5086  1.9665  2.4589
  128SOPE    C313728   5.227   4.890   3.198  0.4193 -0.8037  0.0008
  128SOPE    HX13729   5.236   4.830   3.104  0.0597 -0.9441  0.0571
  128SOPE    HY13730   5.235   4.824   3.286  1.8422  1.2568  1.5019
  128SOPE   O3113731   5.344   4.984   3.192  0.3203 -0.2441 -0.1383
  128SOPE   C3113732   5.461   4.924   3.205  0.7383  0.3009 -0.0161
  128SOPE   O3213733   5.477   4.801   3.196  0.2551  0.2449  0.0927
  128SOPE   C3213734   5.570   5.027   3.220  0.4461  0.1103  0.5118
  128SOPE   H2X13735   5.569   5.083   3.124  2.8324  0.9228  0.9058
  128SOPE   H2Y13736   5.662   4.967   3.239  0.3571  0.6121  2.6767
  128SOPE   C2313737   5.043   5.066   3.686  0.4539  0.7687 -0.2423
  128SOPE   H3R13738   5.006   4.965   3.711  0.5524  0.9700  0.7569
  128SOPE   H3S13739   4.976   5.124   3.752 -1.3441 -1.0125 -0.4185
  128SOPE   C2413740   5.191   5.084   3.716  0.0945  0.7695 -1.1200
  128SOPE   H4R13741   5.243   5.005   3.657  0.4410 -1.1666  1.5785
  128SOPE   H4S13742   5.236   5.181   3.687  1.0757  1.2789  1.7277
  128SOPE   C2513743   5.241   5.057   3.859  0.4904  0.3273 -0.3042
  128SOPE   H5R13744   5.216   4.952   3.882  1.9162  0.3842  1.8200
  128SOPE   H5S13745   5.352   5.053   3.869  0.4864  1.2254  0.3003
  128SOPE   C2613746   5.179   5.154   3.958  0.2363  0.0136  0.5836
  128SOPE   H6R13747   5.209   5.259   3.938 -3.3734  1.1045  0.1413
  128SOPE   H6S13748   5.068   5.153   3.958  0.1653  2.2624 -0.0186
  128SOPE   C2713749   5.231   5.126   4.099 -0.2397 -0.4380 -0.2649
  128SOPE   H7R13750   5.159   5.175   4.168 -1.2487 -0.8390 -1.0032
  128SOPE   H7S13751   5.229   5.018   4.128  2.3502 -0.0916  1.5100
  128SOPE   C2813752   5.378   5.173   4.135  0.7468 -0.3724  1.4031
  128SOPE   H8R13753   5.456   5.101   4.102 -0.8651 -1.8398  0.6158
  128SOPE   H8S13754   5.387   5.266   4.075 -0.4988 -1.1301 -0.0482
  128SOPE   C2913755   5.381   5.200   4.285 -0.2193 -0.4005 -0.7084
  128SOPE   H9113756   5.314   5.280   4.322  1.4476  0.4145  0.7063
  128SOPE  C21013757   5.463   5.141   4.378 -0.9460  0.7079  0.1760
  128SOPE  H10113758   5.451   5.173   4.483  0.1684  1.4779  0.0865
  128SOPE  C21113759   5.565   5.029   4.368  0.2483  0.2463 -0.7749
  128SOPE  H11R13760   5.656   5.064   4.421  0.8332  0.4222 -1.8628
  128SOPE  H11S13761   5.592   5.015   4.262 -1.2907 -1.5406 -0.9742
  128SOPE  C21213762   5.504   4.897   4.420  0.8503  0.2489  0.0442
  128SOPE  H12R13763   5.394   4.901   4.406  1.0388  2.8731 -1.4230
  128SOPE  H12S13764   5.509   4.903   4.531  2.2183  1.2820 -0.0360
  128SOPE  C21313765   5.568   4.777   4.353 -0.3985 -0.0028  0.4668
  128SOPE  H13R13766   5.674   4.782   4.387 -0.3900 -0.8619  0.5921
  128SOPE  H13S13767   5.561   4.775   4.242 -2.4151 -1.7609  0.5640
  128SOPE  C21413768   5.512   4.644   4.392 -0.4095 -0.5136 -0.3135
  128SOPE  H14R13769   5.540   4.621   4.497  0.6490  1.2980 -0.1567
  128SOPE  H14S13770   5.571   4.574   4.329 -0.1452 -0.0347 -0.6070
  128SOPE  C21513771   5.366   4.610   4.360  0.5643 -0.0086  0.4670
  128SOPE  H15R13772   5.334   4.649   4.260  0.0907 -0.0824  0.5860
  128SOPE  H15S13773   5.301   4.657   4.438 -0.7101  0.5132 -0.8512
  128SOPE  C21613774   5.335   4.461   4.374  0.2672 -0.1737 -0.1960
  128SOPE  H16R13775   5.336   4.436   4.482 -1.1069  3.0715  0.6879
  128SOPE  H16S13776   5.421   4.406   4.330  0.7568 -1.2165  1.9655
  128SOPE  C21713777   5.198   4.417   4.313 -0.4829  0.6649 -0.6030
  128SOPE  H17R13778   5.127   4.501   4.326 -1.1244  0.1225 -0.5781
  128SOPE  H17S13779   5.149   4.334   4.370  1.0405 -1.5831 -2.3866
  128SOPE  C21813780   5.206   4.381   4.168 -0.2647  0.1813  0.3628
  128SOPE  H18R13781   5.247   4.463   4.106 -1.3568  0.3370 -0.1825
  128SOPE  H18S13782   5.105   4.349   4.134  1.4714 -3.4091 -1.9811
  128SOPE  H18T13783   5.269   4.291   4.149  1.5853  1.4169  0.4383
  128SOPE   C3313784   5.554   5.133   3.332  0.0585  0.0262  0.6444
  128SOPE   H3X13785   5.447   5.156   3.345  0.0727  0.7949 -0.4972
  128SOPE   H3Y13786   5.613   5.224   3.307 -0.7981  0.3041 -0.4054
  128SOPE   C3413787   5.589   5.071   3.467  0.5545 -0.1095 -0.4763
  128SOPE   H4X13788   5.693   5.031   3.466  0.4333 -0.8172  2.8639
  128SOPE   H4Y13789   5.536   4.977   3.492 -0.4203  0.4031 -0.5522
  128SOPE   C3513790   5.592   5.173   3.581  0.0251  0.1741  0.2750
  128SOPE   H5X13791   5.498   5.229   3.599  0.1182  0.5643 -0.3910
  128SOPE   H5Y13792   5.670   5.243   3.544 -0.8596  0.5265 -1.0237
  128SOPE   C3613793   5.639   5.106   3.711 -0.3689 -0.4728 -0.7777
  128SOPE   H6X13794   5.596   5.005   3.729  1.5418 -1.0525  0.9340
  128SOPE   H6Y13795   5.605   5.176   3.790  2.4023  0.4413 -0.2561
  128SOPE   C3713796   5.791   5.103   3.721 -0.3913 -0.6248  0.5002
  128SOPE   H7X13797   5.828   5.198   3.677  0.1436 -0.5023  1.1939
  128SOPE   H7Y13798   5.823   5.025   3.650 -0.6205  0.6162 -1.0131
  128SOPE   C3813799   5.850   5.091   3.862  0.2179  0.1574  0.1122
  128SOPE   H8X13800   5.959   5.097   3.841  0.3720  0.0021  0.8653
  128SOPE   H8Y13801   5.831   4.993   3.910 -0.0468  1.6229  3.2077
  128SOPE   C3913802   5.819   5.213   3.942 -0.1034  0.4368  0.0892
  128SOPE   H9X13803   5.709   5.221   3.955 -0.0910 -0.6930  1.0321
  128SOPE   H9Y13804   5.851   5.311   3.901  2.1885  0.4866  1.8195
  128SOPE  C31013805   5.889   5.208   4.082 -0.0943 -0.6549  0.3246
  128SOPE  H10X13806   5.996   5.187   4.058  0.5004  2.3207 -0.0441
  128SOPE  H10Y13807   5.839   5.125   4.134  0.7972  0.1260  2.5376
  128SOPE  C31113808   5.877   5.336   4.160  0.0236  0.1128 -0.3399
  128SOPE  H11X13809   5.770   5.361   4.176  0.2469  0.4541  0.6786
  128SOPE  H11Y13810   5.913   5.420   4.096  1.0206 -0.1395 -0.1286
  128SOPE  C31213811   5.952   5.329   4.287  0.2227 -0.0431  0.0299
  128SOPE  H12X13812   5.989   5.429   4.317 -0.4649 -0.1389  1.2919
  128SOPE  H12Y13813   6.042   5.264   4.289 -0.4981 -1.0611  1.9281
  128SOPE  C31313814   5.862   5.274   4.403 -0.1288 -0.2667  0.2864
  128SOPE  H13X13815   5.796   5.192   4.367 -2.0418  0.6279  1.5999
  128SOPE  H13Y13816   5.807   5.365   4.434  2.2600  0.6834  2.1199
  128SOPE  C31413817   5.945   5.230   4.522 -0.5407 -0.7702  0.1475
  128SOPE  H14X13818   6.014   5.315   4.541 -1.9036  1.3539 -3.4237
  128SOPE  H14Y13819   6.008   5.141   4.501 -0.6462 -0.6846 -0.5666
  128SOPE  C31513820   5.848   5.209   4.641 -0.3758  0.0175  0.5647
  128SOPE  H15X13821   5.761   5.150   4.605 -0.2638 -0.2716  0.7645
  128SOPE  H15Y13822   5.810   5.306   4.681  2.2693  0.9951  0.8795
  128SOPE  C31613823   5.922   5.145   4.753  0.5892  0.8179  1.5828
  128SOPE  H16X13824   5.961   5.052   4.707  1.8882  2.4358 -0.8290
  128SOPE  H16Y13825   5.848   5.116   4.830  0.2321 -0.0268  0.9245
  128SOPE  C31713826   6.029   5.228   4.817 -0.2897 -0.8158  0.0985
  128SOPE  H17X13827   6.001   5.336   4.818  2.6738  0.0619 -0.8803
  128SOPE  H17Y13828   6.109   5.225   4.740 -0.5057  0.3622 -0.1883
  128SOPE  C31813829   6.086   5.179   4.956 -0.2209  0.0410  0.1657
  128SOPE  H18X13830   6.137   5.080   4.950 -1.1105 -0.5503  1.8438
  128SOPE  H18Y13831   6.010   5.181   5.037  0.0749  0.0952  0.4424
  128SOPE  H18Z13832   6.170   5.242   4.993  1.2880 -2.9240  2.2103
  129OSM      N13833   4.439   0.527   7.197  0.0701 -0.2350 -0.0190
  129OSM    C1513834   4.332   0.443   7.144  0.7364  0.4180 -0.2531
  129OSM   H15A13835   4.346   0.424   7.038  1.6511  3.5607 -0.7909
  129OSM   H15B13836   4.236   0.489   7.159  0.4827 -0.3790  0.6353
  129OSM   H15C13837   4.337   0.344   7.186  0.9581 -0.0047 -1.2445
  129OSM    C1413838   4.399   0.568   7.337 -0.1317 -0.0391  0.3430
  129OSM   H14A13839   4.312   0.632   7.336  1.3818  2.1526  0.9833
  129OSM   H14B13840   4.475   0.618   7.396  0.7928 -1.0795  0.0884
  129OSM   H14C13841   4.364   0.482   7.393 -2.9825  0.7421 -0.1011
  129OSM    C1313842   4.566   0.451   7.196 -0.0558  0.6204 -1.2231
  129OSM   H13A13843   4.643   0.521   7.227  1.4842 -1.8505  0.9714
  129OSM   H13B13844   4.587   0.403   7.102 -0.3758 -0.4755 -0.7472
  129OSM   H13C13845   4.566   0.374   7.272  0.5510  0.0953 -1.7521
  129OSM    C1213846   4.447   0.637   7.098  0.4622 -0.8923 -0.2777
  129OSM   H12A13847   4.360   0.702   7.102  1.7397  1.0702 -2.1827
  129OSM   H12B13848   4.433   0.592   7.000  1.7177 -1.2993 -0.2816
  129OSM    C1113849   4.564   0.727   7.114 -0.3078 -0.2591  0.3650
  129OSM   H11A13850   4.658   0.677   7.085 -0.7484  0.0345 -1.7928
  129OSM   H11B13851   4.586   0.758   7.218  0.4383  0.8465 -0.1112
  129OSM      P13852   4.454   0.954   7.073  0.0846  0.2774  0.5656
  129OSM    O1313853   4.335   0.894   7.137  0.0450  0.2624 -0.6947
  129OSM    O1413854   4.535   1.047   7.149 -0.7780 -0.5807 -0.0244
  129OSM    O1113855   4.404   1.014   6.936  0.1322  0.2906 -0.1599
  129OSM    O1213856   4.553   0.836   7.027 -0.1269  0.0002 -0.3383
  129OSM    C1S13857   4.504   1.034   6.836 -0.3737  0.8733 -0.3302
  129OSM    H1S13858   4.530   0.936   6.790 -0.3042  1.9272 -2.6373
  129OSM    H1T13859   4.593   1.079   6.884  1.6992 -1.6703 -1.5510
  129OSM     NF13860   4.582   1.182   6.652  0.6857  0.0359 -0.0568
  129OSM    HNF13861   4.608   1.277   6.644  1.2867 -0.2559 -2.3247
  129OSM    C2S13862   4.463   1.121   6.715  0.2545 -0.6920  0.0325
  129OSM    H2S13863   4.420   1.051   6.641 -1.4003  1.6618 -1.3842
  129OSM    C3S13864   4.356   1.224   6.747  0.1759  0.4216  0.0676
  129OSM    H3S13865   4.406   1.301   6.811  0.7957  0.5941 -0.6092
  129OSM     O313866   4.250   1.182   6.832 -0.3516  0.1450  0.4053
  129OSM    HO313867   4.290   1.109   6.880  0.3509 -1.8850 -2.9104
  129OSM    C4S13868   4.307   1.286   6.628  0.1746  0.7729 -0.0177
  129OSM    H4S13869   4.228   1.230   6.576 -1.0818  2.6779 -0.2551
  129OSM    C5S13870   4.355   1.400   6.580 -0.2987  0.5056  0.1208
  129OSM    H5S13871   4.427   1.458   6.640  1.5074  0.3333 -1.7462
  129OSM    C6S13872   4.318   1.459   6.450  0.9137 -0.3729  0.9277
  129OSM    H6S13873   4.297   1.568   6.454 -1.5163 -0.8263  2.3123
  129OSM    H6T13874   4.215   1.427   6.422  1.0234 -0.5327  0.6962
  129OSM    C7S13875   4.411   1.440   6.330 -0.5030  0.2639  0.6364
  129OSM    H7S13876   4.439   1.333   6.317  2.5557  0.6799  2.6366
  129OSM    H7T13877   4.500   1.504   6.349 -0.5609  0.7602 -0.6326
  129OSM    C8S13878   4.354   1.509   6.201 -0.2919 -0.0368 -0.5256
  129OSM    H8S13879   4.347   1.619   6.219  1.6282 -0.0379  0.4282
  129OSM    H8T13880   4.250   1.473   6.186 -0.9289  1.4782 -0.0117
  129OSM    C9S13881   4.426   1.474   6.071 -0.4598 -0.1666 -0.2649
  129OSM    H9S13882   4.456   1.367   6.065 -2.6979 -0.7918 -2.4623
  129OSM    H9T13883   4.517   1.537   6.068 -0.7490  0.2916  0.4654
  129OSM   C10S13884   4.336   1.478   5.945  0.0278  0.0891  0.4235
  129OSM   H10S13885   4.301   1.583   5.936  0.2886  0.1487  0.0751
  129OSM   H10T13886   4.250   1.415   5.977  0.1986 -1.3162 -1.6340
  129OSM   C11S13887   4.402   1.425   5.818  0.2527 -0.3669  0.0130
  129OSM   H11S13888   4.433   1.320   5.835  1.8135  0.2795  1.4771
  129OSM   H11T13889   4.504   1.462   5.796  0.0621  0.4502  0.4321
  129OSM   C12S13890   4.312   1.428   5.686  0.6225 -0.5943 -0.3052
  129OSM   H12S13891   4.208   1.412   5.723  0.9775  1.1570  1.6656
  129OSM   H12T13892   4.348   1.341   5.628 -1.9993 -1.1062 -1.3025
  129OSM   C13S13893   4.308   1.561   5.614  0.4057 -0.4679  0.2639
  129OSM   H13S13894   4.403   1.565   5.557  0.0440  1.8409 -0.2796
  129OSM   H13T13895   4.303   1.650   5.679  0.6612 -0.8324  0.7898
  129OSM   C14S13896   4.184   1.568   5.518 -0.3102 -0.3240 -0.7501
  129OSM   H14S13897   4.102   1.579   5.591 -2.0385 -1.9263 -2.3391
  129OSM   H14T13898   4.176   1.469   5.467 -0.4894  0.2049 -1.7733
  129OSM   C15S13899   4.199   1.681   5.415 -0.2892 -0.0442  0.7993
  129OSM   H15S13900   4.227   1.775   5.467 -1.7707  1.7090 -1.3893
  129OSM   H15T13901   4.096   1.708   5.383 -0.1358 -0.1166  0.2218
  129OSM   C16S13902   4.298   1.652   5.301 -0.2204 -1.0279  0.2250
  129OSM   H16S13903   4.353   1.557   5.324  1.1835 -0.4109 -0.4411
  129OSM   H16T13904   4.374   1.733   5.297  0.4985 -1.5967  1.5580
  129OSM   C17S13905   4.233   1.639   5.165  0.0326  0.3365  0.1327
  129OSM   H17S13906   4.159   1.557   5.173 -2.3522  2.1498 -1.7439
  129OSM   H17T13907   4.300   1.601   5.085  0.6033 -3.2317  2.1135
  129OSM   C18S13908   4.159   1.764   5.116 -0.0962 -0.1335  0.6450
  129OSM   H18S13909   4.231   1.847   5.099 -2.2473  2.1712  2.0453
  129OSM   H18T13910   4.082   1.794   5.190  0.7484  2.3391  0.6371
  129OSM   H18U13911   4.107   1.744   5.020  2.4616 -1.3079 -0.5895
  129OSM    C1F13912   4.658   1.101   6.576  0.0566  0.5071  0.4289
  129OSM     OF13913   4.630   0.988   6.536 -0.6671  0.2807 -0.1446
  129OSM    C2F13914   4.803   1.163   6.569  0.2333  0.0194 -0.8550
  129OSM    H2F13915   4.853   1.140   6.665  1.9411  1.3186 -1.3815
  129OSM    H2G13916   4.807   1.274   6.570  1.2155 -0.0056  0.3470
  129OSM    C3F13917   4.903   1.109   6.469 -0.0957  0.4224 -0.7915
  129OSM    H3F13918   4.926   1.001   6.481  0.5345  0.6637  0.3353
  129OSM    H3G13919   4.999   1.164   6.473 -0.0672  0.2967  0.3575
  129OSM    C4F13920   4.854   1.115   6.332  0.2965 -0.5287  0.0745
  129OSM    H4F13921   4.763   1.052   6.320 -1.4365  1.4740  2.0082
  129OSM    H4G13922   4.934   1.069   6.270 -0.1483 -0.3725 -0.6345
  129OSM    C5F13923   4.836   1.261   6.295  1.0414 -0.0163 -0.3454
  129OSM    H5F13924   4.935   1.312   6.297  0.0747  1.9315 -0.1266
  129OSM    H5G13925   4.772   1.316   6.367  0.3150 -1.7725  0.4108
  129OSM    C6F13926   4.780   1.266   6.150  0.3218  0.0263 -0.3721
  129OSM    H6F13927   4.752   1.370   6.120 -2.1982  0.1287  1.9206
  129OSM    H6G13928   4.682   1.215   6.152  1.2924 -2.0177  2.9255
  129OSM    C7F13929   4.852   1.200   6.036  0.1404 -0.7275  0.0345
  129OSM    H7F13930   4.854   1.089   6.042  0.9069 -0.8007 -1.0924
  129OSM    H7G13931   4.956   1.239   6.025 -0.3062  0.1467 -1.3681
  129OSM    C8F13932   4.791   1.223   5.898  0.0494 -0.3802  0.3316
  129OSM    H8F13933   4.683   1.209   5.920 -0.3902 -0.5194 -1.7071
  129OSM    H8G13934   4.822   1.145   5.825  0.9340 -0.3247  0.6334
  129OSM    C9F13935   4.811   1.365   5.840  0.5042  0.1434  0.1982
  129OSM    H9F13936   4.856   1.446   5.898 -1.6752  2.0068 -0.5435
  129OSM   C10F13937   4.782   1.394   5.712 -0.1146  0.2352  0.3278
  129OSM   H10F13938   4.795   1.494   5.669  1.0139 -0.0474 -0.0225
  129OSM   C11F13939   4.722   1.301   5.610  0.1123 -0.9901 -0.3637
  129OSM   H11F13940   4.637   1.248   5.657 -2.8240  2.6844 -1.0190
  129OSM   H11G13941   4.794   1.225   5.573 -1.4208 -3.2599  1.0973
  129OSM   C12F13942   4.688   1.378   5.477 -0.6665  0.0036  1.2323
  129OSM   H12F13943   4.752   1.467   5.460 -1.7676  0.5373 -0.4295
  129OSM   H12G13944   4.583   1.415   5.489 -0.9631 -0.3130 -0.1742
  129OSM   C13F13945   4.690   1.296   5.353  0.4056  0.0073  0.5721
  129OSM   H13F13946   4.618   1.212   5.352  0.9273 -0.4481  0.2995
  129OSM   H13G13947   4.796   1.261   5.346  0.7160  1.2493 -1.3461
  129OSM   C14F13948   4.657   1.377   5.225 -0.3011 -0.7322  0.1774
  129OSM   H14F13949   4.547   1.394   5.220 -0.1838 -0.3071 -2.9419
  129OSM   H14G13950   4.690   1.316   5.139 -0.1625  0.5068 -0.6660
  129OSM   C15F13951   4.731   1.506   5.197 -0.5864  0.1461 -0.1457
  129OSM   H15F13952   4.838   1.478   5.207 -0.3852  0.1047 -2.0561
  129OSM   H15G13953   4.709   1.583   5.275  2.7096 -1.7579  2.9945
  129OSM   C16F13954   4.712   1.567   5.058  0.3464  0.5977 -0.0567
  129OSM   H16F13955   4.721   1.487   4.982 -0.4219 -0.6146  1.1047
  129OSM   H16G13956   4.798   1.634   5.038  0.0221  0.8237 -0.7495
  129OSM   C17F13957   4.577   1.640   5.051 -0.3618 -0.0969 -0.4563
  129OSM   H17F13958   4.586   1.731   5.115  0.3534  0.2536 -1.0354
  129OSM   H17G13959   4.497   1.577   5.093  0.1231  0.9791  2.2608
  129OSM   C18F13960   4.543   1.678   4.904 -0.7977 -0.0366 -0.0017
  129OSM   H18F13961   4.442   1.724   4.903 -1.8661 -2.2699 -0.5970
  129OSM   H18G13962   4.546   1.589   4.838  1.4803 -0.5441  0.6950
  129OSM   H18H13963   4.617   1.753   4.868 -0.1569 -0.7407 -0.1627
  130OSM      N13964   5.525   4.266   7.400  0.3571  0.4853  0.3796
  130OSM    C1513965   5.478   4.406   7.374 -0.9964  0.5939 -0.0568
  130OSM   H15A13966   5.536   4.446   7.292 -2.2164  0.7906 -0.8534
  130OSM   H15B13967   5.502   4.469   7.458 -0.2435  2.0563 -1.2975
  130OSM   H15C13968   5.375   4.392   7.346 -1.1002 -0.6048  0.8534
  130OSM    C1413969   5.665   4.265   7.431  0.7466 -0.6047 -0.5929
  130OSM   H14A13970   5.687   4.341   7.504  0.8826  0.1564 -1.4073
  130OSM   H14B13971   5.721   4.275   7.339 -3.3363  2.8785 -3.0535
  130OSM   H14C13972   5.701   4.171   7.472  0.6842  0.1625  1.3270
  130OSM    C1313973   5.475   4.223   7.534  0.1171  0.6534 -0.5488
  130OSM   H13A13974   5.497   4.118   7.544  1.7325  0.9472 -0.7426
  130OSM   H13B13975   5.368   4.230   7.529 -0.1398 -1.9014  0.1527
  130OSM   H13C13976   5.522   4.269   7.620 -0.0055  0.5559 -0.4291
  130OSM    C1213977   5.482   4.163   7.296 -0.2464  0.3805 -0.5925
  130OSM   H12A13978   5.508   4.198   7.197 -0.9247 -0.6343 -1.1434
  130OSM   H12B13979   5.374   4.156   7.301 -0.1756  0.3513  2.0052
  130OSM    C1113980   5.535   4.020   7.313  0.2055 -0.1562  0.3344
  130OSM   H11A13981   5.643   4.016   7.285 -0.2922  1.0920 -2.1277
  130OSM   H11B13982   5.495   3.955   7.232  0.4455 -0.0889  0.1581
  130OSM      P13983   5.501   3.815   7.469  0.1033  0.3954 -0.0329
  130OSM    O1313984   5.643   3.779   7.464  0.3211 -0.2338  0.2913
  130OSM    O1413985   5.432   3.797   7.597 -0.3051 -0.0465  0.7008
  130OSM    O1113986   5.427   3.743   7.350 -0.5835 -0.0240  0.0358
  130OSM    O1213987   5.504   3.963   7.436  0.5749 -0.9920 -0.3135
  130OSM    C1S13988   5.495   3.649   7.258 -0.2852  0.0703 -0.2210
  130OSM    H1S13989   5.562   3.578   7.311  0.6471  2.4088  1.9390
  130OSM    H1T13990   5.560   3.709   7.189 -0.2232  2.4922  1.7990
  130OSM     NF13991   5.433   3.470   7.090 -0.1636 -0.0628 -0.7901
  130OSM    HNF13992   5.453   3.474   6.992 -1.4492 -0.4608 -1.0930
  130OSM    C2S13993   5.388   3.581   7.169  0.8984 -0.3877  0.1270
  130OSM    H2S13994   5.297   3.554   7.227  2.5922 -1.4433  2.4532
  130OSM    C3S13995   5.335   3.691   7.078 -0.1823  0.8857  0.1101
  130OSM    H3S13996   5.422   3.713   7.012  0.7056  0.5023  1.1288
  130OSM     O313997   5.299   3.814   7.141 -0.5346 -0.9202  0.6443
  130OSM    HO313998   5.337   3.797   7.228  1.5977 -0.5323 -0.1317
  130OSM    C4S13999   5.235   3.633   6.985  0.3217  0.0879  0.4454
  130OSM    H4S14000   5.276   3.590   6.892  0.3253 -2.6606  1.6261
  130OSM    C5S14001   5.103   3.616   7.011 -0.1975 -1.1552  0.2858
  130OSM    H5S14002   5.063   3.658   7.105 -0.3826 -0.3432 -0.1379
  130OSM    C6S14003   5.002   3.552   6.925  0.4321 -0.2661  0.0174
  130OSM    H6S14004   4.904   3.605   6.930  0.6484  0.0774  0.7426
  130OSM    H6T14005   4.978   3.451   6.963  0.5850 -0.3751 -0.1714
  130OSM    C7S14006   5.035   3.539   6.775  0.8686  0.4125 -0.2292
  130OSM    H7S14007   5.100   3.619   6.734  2.1142  0.0983  1.0525
  130OSM    H7T14008   4.943   3.550   6.714  0.1599  1.1978  0.9474
  130OSM    C8S14009   5.107   3.407   6.732 -0.4170  0.0278 -0.0497
  130OSM    H8S14010   5.070   3.322   6.793  0.9994  0.6761  1.7936
  130OSM    H8T14011   5.215   3.425   6.748 -0.4714 -0.1141  0.5039
  130OSM    C9S14012   5.093   3.370   6.584  0.4442  0.8299 -1.1016
  130OSM    H9S14013   5.135   3.450   6.520  0.4431  1.6625 -0.0781
  130OSM    H9T14014   4.986   3.379   6.556  0.3791 -3.6811 -3.2121
  130OSM   C10S14015   5.132   3.231   6.538  0.1488 -0.7802  0.1306
  130OSM   H10S14016   5.104   3.164   6.622  0.5214  0.8116  1.6081
  130OSM   H10T14017   5.243   3.223   6.536  0.4976  1.1807  3.3775
  130OSM   C11S14018   5.060   3.170   6.417  0.4709 -0.4533  0.2665
  130OSM   H11S14019   5.080   3.231   6.327 -0.0701  0.7207  0.9268
  130OSM   H11T14020   4.951   3.173   6.438  0.1741  1.3218 -1.3096
  130OSM   C12S14021   5.105   3.029   6.376 -0.5343  0.3897 -0.3685
  130OSM   H12S14022   5.108   2.959   6.463  0.6676 -2.7810 -2.7730
  130OSM   H12T14023   5.211   3.046   6.345 -0.2907 -0.5937 -0.1209
  130OSM   C13S14024   5.028   2.988   6.254  0.2197  0.2683 -0.5662
  130OSM   H13S14025   5.023   3.065   6.174 -0.9869  0.4126 -0.3719
  130OSM   H13T14026   4.921   2.970   6.278 -0.3863  1.1026 -2.4209
  130OSM   C14S14027   5.085   2.856   6.192  0.2182  0.2385  1.0405
  130OSM   H14S14028   4.997   2.815   6.138  1.5696  1.3708 -2.2721
  130OSM   H14T14029   5.129   2.788   6.268  0.6285  0.1817  0.7524
  130OSM   C15S14030   5.196   2.871   6.087 -0.0750  0.2758  0.5321
  130OSM   H15S14031   5.289   2.880   6.148  0.1654 -0.4012  0.2716
  130OSM   H15T14032   5.190   2.972   6.040 -1.0807 -1.2402 -2.9091
  130OSM   C16S14033   5.214   2.759   5.980  0.2345 -0.2530 -0.2836
  130OSM   H16S14034   5.162   2.671   6.024 -1.1022  0.7417  0.2159
  130OSM   H16T14035   5.321   2.732   5.971  0.1096 -0.9725  0.2921
  130OSM   C17S14036   5.161   2.789   5.846  0.2571  1.0981 -0.2626
  130OSM   H17S14037   5.215   2.874   5.797 -3.1711  2.6764 -1.5938
  130OSM   H17T14038   5.055   2.821   5.850  0.5809  2.0796  3.1689
  130OSM   C18S14039   5.156   2.667   5.752 -0.0302  0.1389 -0.0799
  130OSM   H18S14040   5.111   2.691   5.654 -1.2674 -1.2730  0.1112
  130OSM   H18T14041   5.101   2.590   5.810  0.5602  0.7216  1.3006
  130OSM   H18U14042   5.255   2.621   5.732  0.4310  1.3186 -0.6113
  130OSM    C1F14043   5.456   3.354   7.138 -0.4612  0.0481 -0.6967
  130OSM     OF14044   5.439   3.342   7.260 -0.1810  0.3703  0.1337
  130OSM    C2F14045   5.500   3.236   7.051  1.0044 -0.4092  0.0515
  130OSM    H2F14046   5.568   3.267   6.969 -0.1840 -0.9437 -1.1815
  130OSM    H2G14047   5.407   3.215   6.993  1.0985  1.1711 -0.7151
  130OSM    C3F14048   5.564   3.114   7.118  0.3800 -0.3709  0.5064
  130OSM    H3F14049   5.518   3.096   7.217  0.2193  1.9821  0.9158
  130OSM    H3G14050   5.673   3.125   7.136  0.4557 -1.3289  0.6717
  130OSM    C4F14051   5.555   2.985   7.034 -0.4359 -0.4311 -0.1344
  130OSM    H4F14052   5.450   2.972   7.001 -0.8458 -2.2070  1.6462
  130OSM    H4G14053   5.573   2.902   7.106  0.7525  0.7755  1.0230
  130OSM    C5F14054   5.655   2.971   6.921  0.4242  0.1869  0.0479
  130OSM    H5F14055   5.673   2.864   6.898 -0.3974  0.0692 -0.0873
  130OSM    H5G14056   5.749   3.023   6.948  0.8960 -0.1226 -0.9364
  130OSM    C6F14057   5.607   3.029   6.785  0.2976  0.2018 -0.1497
  130OSM    H6F14058   5.598   3.139   6.796 -0.4728  0.1976 -0.6221
  130OSM    H6G14059   5.502   3.001   6.761  0.0098  1.8488 -0.9237
  130OSM    C7F14060   5.711   2.992   6.674  0.1220 -0.6356  0.6399
  130OSM    H7F14061   5.714   2.881   6.669 -0.0903 -0.6683  1.1964
  130OSM    H7G14062   5.806   3.037   6.709 -0.0828  0.6030 -0.3448
  130OSM    C8F14063   5.667   3.045   6.538  0.7011 -1.3637  0.9517
  130OSM    H8F14064   5.754   3.053   6.468  0.5257  1.2115  0.9514
  130OSM    H8G14065   5.638   3.149   6.561  0.0650 -1.6807  1.5937
  130OSM    C9F14066   5.550   2.969   6.479 -0.2792  0.4942  0.1538
  130OSM    H9F14067   5.503   2.907   6.557  0.6562  1.1287  1.2651
  130OSM   C10F14068   5.512   2.957   6.348  0.2953  0.1327  0.0484
  130OSM   H10F14069   5.431   2.887   6.323 -1.0910  0.9684  1.9180
  130OSM   C11F14070   5.581   3.019   6.229  0.2894  0.1930  0.5861
  130OSM   H11F14071   5.602   2.949   6.145  0.7942  0.2852  0.6342
  130OSM   H11G14072   5.679   3.054   6.270  1.6394 -2.5520 -0.0764
  130OSM   C12F14073   5.478   3.133   6.187 -0.4115 -1.0297  0.1578
  130OSM   H12F14074   5.476   3.211   6.267  0.6079 -0.3956 -0.4189
  130OSM   H12G14075   5.370   3.105   6.187 -0.3114 -1.4316  0.4105
  130OSM   C13F14076   5.511   3.192   6.043  0.7227 -0.7332  0.3840
  130OSM   H13F14077   5.620   3.210   6.041  0.5571  0.2840 -0.2095
  130OSM   H13G14078   5.445   3.281   6.031 -0.2468 -1.4199  0.5035
  130OSM   C14F14079   5.470   3.104   5.926  0.1561  0.2253  0.7475
  130OSM   H14F14080   5.359   3.099   5.925  0.2008 -2.6927 -1.2202
  130OSM   H14G14081   5.497   2.997   5.936 -0.6289 -0.0192  0.3051
  130OSM   C15F14082   5.505   3.165   5.789 -0.0982  0.0504  0.8234
  130OSM   H15F14083   5.609   3.202   5.799  0.5349 -0.7346 -2.0515
  130OSM   H15G14084   5.441   3.255   5.776  0.9574  0.3971 -3.2022
  130OSM   C16F14085   5.474   3.077   5.675 -0.0380  0.5997 -0.2875
  130OSM   H16F14086   5.382   3.017   5.696 -0.0781  1.0367  0.8629
  130OSM   H16G14087   5.564   3.012   5.663  0.5836  1.7137 -1.9276
  130OSM   C17F14088   5.461   3.162   5.545  0.8232  0.0270  0.2406
  130OSM   H17F14089   5.480   3.098   5.456 -2.4261 -0.2209 -0.4063
  130OSM   H17G14090   5.546   3.233   5.537 -0.2867  1.3572 -0.1290
  130OSM   C18F14091   5.325   3.227   5.527  0.1299  0.1730  0.0004
  130OSM   H18F14092   5.324   3.279   5.430 -0.8983  0.3934  0.1096
  130OSM   H18G14093   5.293   3.297   5.607  1.2446 -0.2393  0.8347
  130OSM   H18H14094   5.246   3.148   5.533  1.0001 -0.7293 -0.1212
  131OSM      N14095   4.451   6.161   7.456 -0.0135  0.4698  0.5533
  131OSM    C1514096   4.421   6.016   7.424  0.4453  0.1095 -0.3454
  131OSM   H15A14097   4.508   5.959   7.453  0.9966 -1.4301 -4.3556
  131OSM   H15B14098   4.416   6.005   7.317 -0.0617  0.1850 -0.3337
  131OSM   H15C14099   4.328   5.977   7.465 -0.1742 -0.1917 -1.9585
  131OSM    C1414100   4.332   6.230   7.516 -0.3483 -0.3601  0.1328
  131OSM   H14A14101   4.260   6.255   7.440 -1.6346 -0.6853  1.2188
  131OSM   H14B14102   4.360   6.329   7.549  1.9945 -0.4136 -1.4537
  131OSM   H14C14103   4.290   6.162   7.588  0.9487 -1.5931 -0.2464
  131OSM    C1314104   4.565   6.167   7.547 -0.7052  0.9227  0.1878
  131OSM   H13A14105   4.652   6.135   7.492 -0.0878  2.5622  0.1868
  131OSM   H13B14106   4.552   6.101   7.631 -0.5652  0.8280  0.1351
  131OSM   H13C14107   4.594   6.269   7.566  0.1891  1.1850 -2.2249
  131OSM    C1214108   4.497   6.216   7.323  0.9466 -0.5764 -0.1435
  131OSM   H12A14109   4.589   6.169   7.292  1.0621 -0.5074  0.0881
  131OSM   H12B14110   4.530   6.317   7.346 -0.2739 -0.4438  1.1880
  131OSM    C1114111   4.402   6.216   7.194 -0.3957 -0.3444  0.0174
  131OSM   H11A14112   4.454   6.280   7.120 -0.7024 -1.0063 -0.7822
  131OSM   H11B14113   4.302   6.260   7.215 -0.4843 -0.0919 -0.9166
  131OSM      P14114   4.470   6.002   7.055 -0.1403 -0.3343 -0.1483
  131OSM    O1314115   4.589   6.087   7.042 -0.8035 -0.1039  0.0189
  131OSM    O1414116   4.474   5.868   7.114 -0.2392  0.2519  0.6727
  131OSM    O1114117   4.393   5.982   6.916  0.2553 -0.6473  0.7722
  131OSM    O1214118   4.379   6.082   7.146  0.0916  0.0049 -0.0288
  131OSM    C1S14119   4.375   5.856   6.860  0.3231  0.7905  0.1090
  131OSM    H1S14120   4.320   5.790   6.930 -0.6221  0.4752 -0.9031
  131OSM    H1T14121   4.474   5.813   6.832 -0.1678  0.0414 -0.5062
  131OSM     NF14122   4.269   5.735   6.680  0.1973 -0.4139  0.3496
  131OSM    HNF14123   4.336   5.705   6.613  1.9419  0.1776  1.7448
  131OSM    C2S14124   4.296   5.868   6.724  0.2700  0.1656  0.1213
  131OSM    H2S14125   4.210   5.937   6.735  0.5719  0.7206 -0.9116
  131OSM    C3S14126   4.389   5.944   6.627  1.3488 -0.4260  0.5976
  131OSM    H3S14127   4.473   5.878   6.597  1.6424  0.4959 -0.6909
  131OSM     O314128   4.458   6.059   6.682 -0.2567 -0.1960 -0.4367
  131OSM    HO314129   4.465   6.022   6.771 -0.1387 -0.4643 -0.5536
  131OSM    C4S14130   4.319   5.974   6.501 -0.2652 -0.0682 -0.5607
  131OSM    H4S14131   4.327   5.893   6.426 -0.1991 -2.1546  1.5569
  131OSM    C5S14132   4.256   6.090   6.472 -0.1184  0.5853  0.4074
  131OSM    H5S14133   4.235   6.158   6.556 -2.9164 -0.1352  0.4072
  131OSM    C6S14134   4.196   6.136   6.336 -0.6434  0.5794  0.4872
  131OSM    H6S14135   4.104   6.192   6.361 -0.8706  0.1885  0.5235
  131OSM    H6T14136   4.177   6.054   6.264 -0.3617  1.1209 -0.2154
  131OSM    C7S14137   4.275   6.248   6.276 -0.4255  0.0589  0.0145
  131OSM    H7S14138   4.381   6.216   6.277 -0.5117 -0.2587 -0.6780
  131OSM    H7T14139   4.263   6.335   6.345 -4.3031 -0.8195  0.6709
  131OSM    C8S14140   4.231   6.288   6.139 -0.0684  0.4359 -0.6058
  131OSM    H8S14141   4.290   6.375   6.103  0.4622  0.4435  0.2475
  131OSM    H8T14142   4.123   6.312   6.150 -0.1739 -0.3669  0.1906
  131OSM    C9S14143   4.254   6.180   6.030  0.5657  0.5636 -0.0912
  131OSM    H9S14144   4.184   6.095   6.044  1.2269  0.0736  0.2857
  131OSM    H9T14145   4.354   6.137   6.049  0.4721 -0.3719 -1.5571
  131OSM   C10S14146   4.230   6.234   5.891  0.2852 -0.1937 -0.3504
  131OSM   H10S14147   4.269   6.337   5.882  0.9687 -0.3758  0.4913
  131OSM   H10T14148   4.120   6.222   5.878 -0.3832  0.4215  3.6235
  131OSM   C11S14149   4.300   6.147   5.783 -0.1320 -0.7221  0.6798
  131OSM   H11S14150   4.273   6.041   5.805  0.7746 -0.9683  0.6421
  131OSM   H11T14151   4.409   6.156   5.805 -0.1251  0.3033  0.2717
  131OSM   C12S14152   4.266   6.182   5.634  0.2011  0.3391  0.1012
  131OSM   H12S14153   4.294   6.288   5.618 -1.0088  0.6893  0.2737
  131OSM   H12T14154   4.155   6.177   5.630  0.2382 -0.5656 -0.0589
  131OSM   C13S14155   4.329   6.085   5.528 -0.4377  0.3556  0.0567
  131OSM   H13S14156   4.297   5.983   5.559  0.5087  0.0232 -0.0377
  131OSM   H13T14157   4.439   6.092   5.522 -0.0281 -2.9245  1.5098
  131OSM   C14S14158   4.270   6.110   5.396  1.0090  0.1788  0.4531
  131OSM   H14S14159   4.296   6.214   5.366 -0.6606  0.0114 -1.8213
  131OSM   H14T14160   4.161   6.114   5.415  0.7847  1.0846 -0.8891
  131OSM   C15S14161   4.307   6.014   5.288  0.2663  0.2138  0.0209
  131OSM   H15S14162   4.244   5.927   5.315  1.5381 -0.4072  1.0931
  131OSM   H15T14163   4.416   6.001   5.304  0.5398 -0.5099 -2.1181
  131OSM   C16S14164   4.279   6.051   5.140  0.0230  0.3485 -0.1219
  131OSM   H16S14165   4.169   6.059   5.122  0.1336  0.1239 -0.9692
  131OSM   H16T14166   4.320   5.976   5.069 -0.2577 -0.5197  0.6150
  131OSM   C17S14167   4.345   6.188   5.100  0.1504 -0.5688  0.3041
  131OSM   H17S14168   4.282   6.267   5.145 -0.0144 -0.7596  0.4128
  131OSM   H17T14169   4.329   6.196   4.991  3.2561 -2.3152 -0.4012
  131OSM   C18S14170   4.495   6.203   5.131  0.3469  0.2475  0.0568
  131OSM   H18S14171   4.523   6.310   5.120  0.6806 -0.0210 -2.3662
  131OSM   H18T14172   4.555   6.148   5.055 -0.4206  0.6098 -0.8390
  131OSM   H18U14173   4.529   6.159   5.226  0.6378 -1.3707 -0.7669
  131OSM    C1F14174   4.170   5.652   6.726 -0.1033 -0.7521 -0.0068
  131OSM     OF14175   4.090   5.680   6.807  0.3701 -0.0940 -0.4245
  131OSM    C2F14176   4.169   5.518   6.670 -0.1490  0.8206 -0.7964
  131OSM    H2F14177   4.145   5.442   6.748 -2.5107 -0.0087 -2.2449
  131OSM    H2G14178   4.261   5.501   6.611 -1.2530 -0.5447 -2.2012
  131OSM    C3F14179   4.047   5.508   6.578 -0.1441  0.9599  0.8383
  131OSM    H3F14180   4.050   5.583   6.496 -1.1907  0.3469  0.2069
  131OSM    H3G14181   3.954   5.509   6.639 -0.2131  1.5660  0.7265
  131OSM    C4F14182   4.044   5.367   6.512  0.0965 -0.1578  1.3648
  131OSM    H4F14183   4.079   5.286   6.580  0.7680 -0.0125  1.2021
  131OSM    H4G14184   4.122   5.343   6.436 -2.4270 -0.5471 -1.2589
  131OSM    C5F14185   3.911   5.339   6.449  0.2456 -0.7357 -0.2249
  131OSM    H5F14186   3.894   5.419   6.374  0.3079  0.3404  0.8738
  131OSM    H5G14187   3.828   5.362   6.520  1.2295  0.7632  0.5033
  131OSM    C6F14188   3.887   5.199   6.392  0.2981 -0.1122 -0.2677
  131OSM    H6F14189   3.888   5.136   6.484  0.0207  1.8670  1.1578
  131OSM    H6G14190   3.969   5.170   6.323  0.4384  1.1576 -0.6478
  131OSM    C7F14191   3.751   5.181   6.324 -0.1986 -0.1194 -0.3098
  131OSM    H7F14192   3.735   5.237   6.229  0.9628 -0.5534 -0.7738
  131OSM    H7G14193   3.671   5.212   6.395  0.3159 -2.3015  1.3108
  131OSM    C8F14194   3.725   5.038   6.298 -1.4308  0.3050 -0.3387
  131OSM    H8F14195   3.763   4.971   6.379 -2.6891 -1.8058 -1.3993
  131OSM    H8G14196   3.803   5.007   6.225 -2.3333 -3.6058  0.1189
  131OSM    C9F14197   3.590   4.993   6.251 -0.0707 -0.2305  0.0486
  131OSM    H9F14198   3.524   4.956   6.331 -2.4047  1.1451 -1.1080
  131OSM   C10F14199   3.550   4.976   6.124 -0.0625  0.6544 -0.1654
  131OSM   H10F14200   3.447   4.953   6.093  0.2332  0.4096 -0.9869
  131OSM   C11F14201   3.632   5.003   6.006  0.5467  0.0884 -0.6658
  131OSM   H11F14202   3.719   4.934   6.004  1.4215  0.9957  2.2749
  131OSM   H11G14203   3.664   5.109   6.003  0.1709  0.2911 -5.6802
  131OSM   C12F14204   3.552   4.988   5.882 -0.3580  0.3128 -0.2143
  131OSM   H12F14205   3.615   5.021   5.797 -0.2548 -0.7419 -0.5626
  131OSM   H12G14206   3.456   5.045   5.877 -1.2495 -1.1316 -0.3267
  131OSM   C13F14207   3.515   4.841   5.842  0.1731  0.0517 -0.0850
  131OSM   H13F14208   3.432   4.804   5.906 -1.5965  0.0156 -2.3052
  131OSM   H13G14209   3.603   4.774   5.846 -0.0366 -0.3499 -1.7573
  131OSM   C14F14210   3.477   4.845   5.688  0.2160  0.3706 -0.0916
  131OSM   H14F14211   3.565   4.895   5.643 -0.9115  0.9781 -1.7363
  131OSM   H14G14212   3.382   4.901   5.676 -1.1223 -1.4097  1.6148
  131OSM   C15F14213   3.460   4.706   5.628 -0.8794 -0.2007 -0.0935
  131OSM   H15F14214   3.359   4.667   5.655  0.0434 -2.9647 -0.3070
  131OSM   H15G14215   3.540   4.637   5.663 -2.6955 -2.1912  0.3367
  131OSM   C16F14216   3.475   4.717   5.476 -0.1040  0.7375  0.0146
  131OSM   H16F14217   3.484   4.618   5.426 -0.1953  0.0665  1.2891
  131OSM   H16G14218   3.571   4.767   5.453  0.1389 -0.4822 -1.8375
  131OSM   C17F14219   3.356   4.790   5.409 -0.2611  1.0405 -0.5116
  131OSM   H17F14220   3.358   4.893   5.450  1.3941  1.5087 -1.6659
  131OSM   H17G14221   3.261   4.738   5.436 -0.2822  1.2790 -0.1282
  131OSM   C18F14222   3.362   4.797   5.254  0.4464 -0.6086 -0.1844
  131OSM   H18F14223   3.258   4.812   5.219  0.3832  2.3413  0.9700
  131OSM   H18G14224   3.385   4.692   5.224  1.7712 -0.0575 -1.2089
  131OSM   H18H14225   3.435   4.870   5.213 -0.0039 -0.0589 -0.0065
  132OSM      N14226   0.323   1.287   7.110 -0.5774  0.6524  1.0170
  132OSM    C1514227   0.189   1.267   7.174 -0.2023 -0.0104  0.2853
  132OSM   H15A14228   0.180   1.159   7.168  2.3141 -0.2386 -0.9023
  132OSM   H15B14229   0.105   1.310   7.122  0.8664  0.9820 -0.6782
  132OSM   H15C14230   0.176   1.314   7.270 -2.6838  1.6842 -0.7776
  132OSM    C1414231   0.314   1.244   6.965 -0.2452  0.4702 -0.3846
  132OSM   H14A14232   0.254   1.306   6.900 -0.2325 -0.0194 -0.8724
  132OSM   H14B14233   0.272   1.144   6.964 -0.7570  0.5604  2.5416
  132OSM   H14C14234   0.414   1.226   6.928  0.4628  0.5760  1.3446
  132OSM    C1314235   0.348   1.433   7.101  0.2706  0.1853 -0.2229
  132OSM   H13A14236   0.435   1.454   7.040  1.0244 -1.6657  0.1296
  132OSM   H13B14237   0.381   1.481   7.192 -1.8368 -0.5725  1.0117
  132OSM   H13C14238   0.258   1.475   7.060  0.5202  0.0135 -0.9616
  132OSM    C1214239   0.439   1.212   7.169  0.6133  0.0106  0.7493
  132OSM   H12A14240   0.417   1.107   7.157  0.1873  0.3708 -2.3415
  132OSM   H12B14241   0.450   1.237   7.274  1.3251  0.4208  0.5846
  132OSM    C1114242   0.581   1.232   7.113  0.5130  0.2794 -0.7997
  132OSM   H11A14243   0.651   1.204   7.195 -1.1335  2.0716  1.3531
  132OSM   H11B14244   0.595   1.342   7.103 -2.1940  0.8901  0.9500
  132OSM      P14245   0.653   1.031   6.968  0.2891  0.1907  0.3337
  132OSM    O1314246   0.777   1.018   7.041  0.5586  0.1023  0.4148
  132OSM    O1414247   0.538   0.945   7.006  0.0703 -0.3182 -0.2250
  132OSM    O1114248   0.679   1.016   6.814  0.1529 -0.5268 -0.3504
  132OSM    O1214249   0.603   1.178   6.983 -0.3915 -0.1765  0.1763
  132OSM    C1S14250   0.579   1.051   6.720  0.2640 -0.1063 -0.1968
  132OSM    H1S14251   0.592   1.156   6.688  1.0604 -0.0132  0.4159
  132OSM    H1T14252   0.477   1.048   6.763  0.6681 -0.4226  0.7592
  132OSM     NF14253   0.496   1.006   6.482  0.0003 -0.4986 -0.0774
  132OSM    HNF14254   0.405   0.968   6.469  0.6328 -1.8628 -0.7383
  132OSM    C2S14255   0.573   0.962   6.600 -0.4576  0.4904  0.2203
  132OSM    H2S14256   0.676   0.965   6.558 -1.6505  0.4464 -3.0195
  132OSM    C3S14257   0.545   0.808   6.654  0.4433 -0.1284 -0.6206
  132OSM    H3S14258   0.450   0.821   6.710 -0.1100  1.3389 -1.8136
  132OSM     O314259   0.636   0.755   6.752  0.1055  0.7507 -0.1132
  132OSM    HO314260   0.689   0.831   6.778 -2.3192  2.2503  0.8689
  132OSM    C4S14261   0.529   0.703   6.542  0.5861  0.0788 -0.0539
  132OSM    H4S14262   0.424   0.670   6.538  0.6544  0.0373 -2.5070
  132OSM    C5S14263   0.627   0.655   6.458 -0.0328  0.7129 -0.0887
  132OSM    H5S14264   0.727   0.700   6.469  0.3434 -0.5095  2.0484
  132OSM    C6S14265   0.607   0.560   6.349  0.4003 -0.6285  0.8022
  132OSM    H6S14266   0.639   0.457   6.375  0.5501 -0.7993 -0.0334
  132OSM    H6T14267   0.679   0.586   6.269  1.6569  0.5004  2.2432
  132OSM    C7S14268   0.468   0.570   6.278 -0.6033 -0.7286 -0.0709
  132OSM    H7S14269   0.433   0.669   6.241 -1.8153 -0.5507  1.4724
  132OSM    H7T14270   0.389   0.537   6.349  0.1032 -0.2631  0.9588
  132OSM    C8S14271   0.464   0.488   6.146  0.2800  0.7659 -0.6587
  132OSM    H8S14272   0.357   0.475   6.120 -0.1985 -1.2246  1.9510
  132OSM    H8T14273   0.507   0.385   6.151  0.7448  1.0120  0.6447
  132OSM    C9S14274   0.545   0.552   6.025 -0.0137  0.3566 -0.1866
  132OSM    H9S14275   0.653   0.556   6.053  0.3400  0.2221 -1.4701
  132OSM    H9T14276   0.519   0.660   6.024 -0.3242  0.3087  1.0492
  132OSM   C10S14277   0.517   0.479   5.893 -0.5836  0.2786  0.0596
  132OSM   H10S14278   0.408   0.482   5.871 -0.9306 -0.8673  1.4396
  132OSM   H10T14279   0.556   0.377   5.874  1.5521  1.2661 -1.1579
  132OSM   C11S14280   0.586   0.547   5.770 -0.2039  0.2865 -0.7106
  132OSM   H11S14281   0.694   0.532   5.788 -0.1955  0.1232 -0.8858
  132OSM   H11T14282   0.582   0.656   5.789  0.9477  0.6661 -2.3546
  132OSM   C12S14283   0.546   0.503   5.630 -0.4402 -0.5443  0.1707
  132OSM   H12S14284   0.441   0.530   5.605  0.5264  1.7298 -1.8273
  132OSM   H12T14285   0.550   0.395   5.604 -0.2695 -1.1670  2.5930
  132OSM   C13S14286   0.641   0.577   5.532 -0.2553  0.5744  1.3988
  132OSM   H13S14287   0.746   0.542   5.548  0.4259  1.4608 -0.7969
  132OSM   H13T14288   0.637   0.686   5.550  1.6971  0.7345  1.0844
  132OSM   C14S14289   0.601   0.558   5.385 -0.2839  0.1288  0.1114
  132OSM   H14S14290   0.497   0.597   5.375 -1.0063 -2.0559 -1.6767
  132OSM   H14T14291   0.588   0.450   5.361  2.2488 -0.2333  0.0940
  132OSM   C15S14292   0.682   0.640   5.282 -0.2175 -0.4403 -0.8470
  132OSM   H15S14293   0.789   0.611   5.279  0.3801  1.2433  1.4761
  132OSM   H15T14294   0.704   0.743   5.315 -0.0517 -0.2444 -1.5600
  132OSM   C16S14295   0.609   0.633   5.148  0.3659 -0.2974  0.2513
  132OSM   H16S14296   0.502   0.660   5.159 -0.2954 -1.0026 -3.2153
  132OSM   H16T14297   0.621   0.529   5.110 -1.4111 -0.1390 -0.8521
  132OSM   C17S14298   0.677   0.721   5.039 -0.6456 -0.4114 -0.6975
  132OSM   H17S14299   0.666   0.665   4.944  1.5276 -2.5304  0.1817
  132OSM   H17T14300   0.784   0.725   5.067 -0.4664 -0.4018 -1.3759
  132OSM   C18S14301   0.612   0.856   5.019  0.6793  0.3358  0.5813
  132OSM   H18S14302   0.621   0.925   5.106  1.2413  2.0688 -0.7852
  132OSM   H18T14303   0.502   0.849   5.004  0.7958  0.9228 -0.6641
  132OSM   H18U14304   0.642   0.911   4.927 -1.7911  0.1808 -0.3946
  132OSM    C1F14305   0.530   1.117   6.417 -0.0670 -0.0734 -0.0842
  132OSM     OF14306   0.627   1.181   6.438 -0.2884 -0.0828  0.1199
  132OSM    C2F14307   0.450   1.160   6.297 -0.0071 -0.1312  0.5088
  132OSM    H2F14308   0.514   1.164   6.207 -0.7739  0.7825 -0.0173
  132OSM    H2G14309   0.414   1.264   6.310 -0.1701  0.0276 -1.0010
  132OSM    C3F14310   0.322   1.067   6.284  0.0315  0.2496  0.9002
  132OSM    H3F14311   0.257   1.076   6.374  0.3752 -1.5878  1.3747
  132OSM    H3G14312   0.361   0.963   6.279 -0.9389 -0.0714 -1.2371
  132OSM    C4F14313   0.234   1.083   6.154 -0.2165  0.3306 -0.7251
  132OSM    H4F14314   0.230   1.192   6.136  2.8301  0.8337  0.9629
  132OSM    H4G14315   0.134   1.038   6.167  0.4064 -1.2418 -1.1185
  132OSM    C5F14316   0.297   1.015   6.032 -0.5094 -0.6874 -0.0849
  132OSM    H5F14317   0.371   0.938   6.061 -0.7670 -1.4146 -1.2990
  132OSM    H5G14318   0.352   1.089   5.969  1.5277 -1.0935  1.1497
  132OSM    C6F14319   0.186   0.947   5.950  0.3433  0.1903 -0.3441
  132OSM    H6F14320   0.125   1.035   5.920 -1.8675 -0.3411  2.2023
  132OSM    H6G14321   0.130   0.873   6.012 -2.3176  1.9316 -0.5088
  132OSM    C7F14322   0.253   0.875   5.826  0.2076 -0.1574  0.1527
  132OSM    H7F14323   0.175   0.809   5.782  0.7297  0.3907 -1.6510
  132OSM    H7G14324   0.334   0.809   5.863 -0.1632  0.9753  3.3408
  132OSM    C8F14325   0.302   0.965   5.704  0.2447 -0.5073  0.0110
  132OSM    H8F14326   0.364   1.042   5.754 -2.9086  1.4550  1.1871
  132OSM    H8G14327   0.217   1.025   5.665  1.4216 -0.7859 -3.3197
  132OSM    C9F14328   0.358   0.871   5.596  0.4364 -0.2359  0.0374
  132OSM    H9F14329   0.385   0.769   5.627 -0.9277 -0.7390 -0.3703
  132OSM   C10F14330   0.368   0.901   5.464 -0.5827  0.4177 -0.2409
  132OSM   H10F14331   0.420   0.832   5.398  3.2894  2.3832  0.4897
  132OSM   C11F14332   0.355   1.039   5.408  0.1351 -0.0516  0.2861
  132OSM   H11F14333   0.456   1.084   5.407 -0.0570  0.6274  3.0734
  132OSM   H11G14334   0.299   1.102   5.481  2.5294  0.1970  2.0507
  132OSM   C12F14335   0.303   1.044   5.259 -0.8116 -0.0951 -0.4669
  132OSM   H12F14336   0.207   0.989   5.250 -0.5901 -0.4600 -0.6195
  132OSM   H12G14337   0.380   1.000   5.192  0.4983  1.5974 -0.1448
  132OSM   C13F14338   0.289   1.195   5.226 -0.4474  0.6745  0.0901
  132OSM   H13F14339   0.390   1.242   5.231 -0.6137  0.8902  3.1664
  132OSM   H13G14340   0.232   1.249   5.305 -1.2190 -0.0059  0.0056
  132OSM   C14F14341   0.225   1.224   5.089 -0.0208  0.8564  0.1156
  132OSM   H14F14342   0.130   1.275   5.115 -2.5853 -2.4682 -1.8684
  132OSM   H14G14343   0.199   1.128   5.038  1.7602  1.1321 -1.4443
  132OSM   C15F14344   0.316   1.291   4.989 -0.1023 -0.1240 -0.1515
  132OSM   H15F14345   0.390   1.215   4.956  1.8470  1.5051  0.2443
  132OSM   H15G14346   0.378   1.370   5.036 -0.0297  0.2792 -0.9211
  132OSM   C16F14347   0.245   1.352   4.866  0.3479 -0.2469  0.2649
  132OSM   H16F14348   0.171   1.278   4.830  1.9358 -2.6726  1.7209
  132OSM   H16G14349   0.313   1.368   4.780 -1.8872  1.4559 -1.3091
  132OSM   C17F14350   0.162   1.486   4.901  0.1497  0.0386  0.4184
  132OSM   H17F14351   0.074   1.467   4.966 -0.6959  0.8847 -0.4441
  132OSM   H17G14352   0.119   1.535   4.811  0.2852  0.7476  0.7271
  132OSM   C18F14353   0.241   1.604   4.962 -0.7091  0.3828  0.0191
  132OSM   H18F14354   0.172   1.688   4.987  0.9448  1.5989  0.7020
  132OSM   H18G14355   0.320   1.638   4.891  0.3793 -0.8065  0.6202
  132OSM   H18H14356   0.293   1.576   5.057 -0.8109 -0.2774 -0.1183
  133OSM      N14357   4.706   2.454   7.603 -0.1766  0.3138 -0.1686
  133OSM    C1514358   4.724   2.319   7.663 -0.0924  0.4090  0.1017
  133OSM   H15A14359   4.638   2.257   7.645 -0.6109  1.5454 -1.5167
  133OSM   H15B14360   4.748   2.317   7.769  1.7028  0.3856 -0.2710
  133OSM   H15C14361   4.807   2.274   7.611  0.4568  0.6921  0.7144
  133OSM    C1414362   4.608   2.524   7.687 -0.0976  0.1373 -0.2383
  133OSM   H14A14363   4.602   2.627   7.654  0.7328 -0.9009 -4.1096
  133OSM   H14B14364   4.630   2.515   7.792 -1.0680 -2.0386 -0.1774
  133OSM   H14C14365   4.506   2.488   7.680 -0.2383  0.2443  1.0529
  133OSM    C1314366   4.842   2.518   7.612  0.0507 -0.0947  0.8288
  133OSM   H13A14367   4.908   2.451   7.558 -1.2532 -0.5311 -0.3008
  133OSM   H13B14368   4.867   2.522   7.717 -2.2247 -0.1103  1.4254
  133OSM   H13C14369   4.843   2.608   7.552 -0.2448  0.0670  1.0654
  133OSM    C1214370   4.667   2.439   7.452  0.1107 -0.3726  0.5845
  133OSM   H12A14371   4.573   2.392   7.429 -0.8867  1.9553 -0.5342
  133OSM   H12B14372   4.735   2.371   7.402 -0.0918  0.6386 -1.1704
  133OSM    C1114373   4.646   2.567   7.370  0.3530 -0.7510 -0.3588
  133OSM   H11A14374   4.640   2.545   7.261 -1.8289  1.3116 -0.7130
  133OSM   H11B14375   4.743   2.619   7.386  0.8553 -2.2194  1.7804
  133OSM      P14376   4.395   2.634   7.361 -0.3652 -0.3888 -0.1125
  133OSM    O1314377   4.309   2.567   7.462 -0.0632 -0.0958 -0.3239
  133OSM    O1414378   4.352   2.770   7.329  0.0451 -0.4923 -0.3088
  133OSM    O1114379   4.402   2.542   7.232 -0.0581 -0.3508  0.7281
  133OSM    O1214380   4.539   2.648   7.413 -0.1257  0.4775  0.1279
  133OSM    C1S14381   4.394   2.567   7.091  0.2317  0.4341  0.6562
  133OSM    H1S14382   4.492   2.558   7.041 -0.6962 -1.3671 -0.9577
  133OSM    H1T14383   4.356   2.668   7.063 -0.1611  0.2016  0.3478
  133OSM     NF14384   4.265   2.501   6.881  0.6108 -0.0357  0.1837
  133OSM    HNF14385   4.176   2.544   6.863  0.7604 -0.3384 -1.4221
  133OSM    C2S14386   4.299   2.460   7.018 -0.2425 -0.2133  0.2893
  133OSM    H2S14387   4.363   2.370   7.023  0.8976  0.6200  1.2276
  133OSM    C3S14388   4.166   2.438   7.094  0.3512  0.1999 -0.5167
  133OSM    H3S14389   4.123   2.538   7.117 -1.1626 -0.8518  1.6396
  133OSM     O314390   4.176   2.378   7.219 -0.2539 -0.3164 -0.0775
  133OSM    HO314391   4.268   2.392   7.244 -0.4152  0.5269  0.0674
  133OSM    C4S14392   4.077   2.345   7.013 -0.1610  0.2533 -0.3105
  133OSM    H4S14393   4.109   2.241   7.002 -1.6793 -0.2266 -0.4858
  133OSM    C5S14394   3.972   2.385   6.941 -0.0544  0.1902  0.2368
  133OSM    H5S14395   3.929   2.486   6.941 -1.7658 -0.4798 -1.2673
  133OSM    C6S14396   3.892   2.283   6.858 -0.2628 -0.0098 -0.1245
  133OSM    H6S14397   3.841   2.331   6.771  2.1552 -2.6449 -3.2789
  133OSM    H6T14398   3.811   2.238   6.919  1.6511 -2.1699  0.9807
  133OSM    C7S14399   3.974   2.172   6.786 -0.2699 -0.5733  0.4841
  133OSM    H7S14400   3.895   2.099   6.758  0.0905 -0.2947 -1.3330
  133OSM    H7T14401   4.039   2.130   6.866 -2.0705 -3.0660  0.7738
  133OSM    C8S14402   4.066   2.229   6.679  0.2660  0.2088  0.2551
  133OSM    H8S14403   4.167   2.256   6.717  0.4335 -1.1731  0.8631
  133OSM    H8T14404   4.016   2.316   6.632 -1.9027 -1.2720 -0.3189
  133OSM    C9S14405   4.091   2.126   6.565  0.3217 -0.0906 -0.2564
  133OSM    H9S14406   3.993   2.085   6.533 -0.5556  1.3218  0.4867
  133OSM    H9T14407   4.155   2.051   6.615  1.5308 -0.4388 -2.2222
  133OSM   C10S14408   4.174   2.176   6.446 -0.0043 -0.1352  0.1662
  133OSM   H10S14409   4.200   2.080   6.397 -2.1729 -0.0425 -1.2886
  133OSM   H10T14410   4.261   2.231   6.489  1.5805 -0.9188 -1.8443
  133OSM   C11S14411   4.100   2.242   6.332 -0.5310  1.1154  0.2752
  133OSM   H11S14412   4.045   2.333   6.366  1.3427  2.5097 -0.2171
  133OSM   H11T14413   4.018   2.175   6.301  1.2869 -0.7635 -0.7505
  133OSM   C12S14414   4.184   2.269   6.207 -0.4818 -0.5195 -0.1540
  133OSM   H12S14415   4.234   2.174   6.178  0.4380  0.3450 -1.5476
  133OSM   H12T14416   4.262   2.340   6.242  0.0275 -1.2142  0.1561
  133OSM   C13S14417   4.107   2.330   6.088 -0.0561  0.1857 -0.1365
  133OSM   H13S14418   4.051   2.422   6.114  1.4584  0.4971  2.3562
  133OSM   H13T14419   4.027   2.259   6.057 -1.5463  1.1273  1.3772
  133OSM   C14S14420   4.203   2.362   5.976  0.5343 -0.8164  0.4198
  133OSM   H14S14421   4.228   2.260   5.940 -2.8040 -1.4709 -0.3701
  133OSM   H14T14422   4.294   2.417   6.008  0.2248 -0.9779  1.6409
  133OSM   C15S14423   4.128   2.435   5.866  0.1330 -0.1573  0.2345
  133OSM   H15S14424   4.061   2.510   5.911 -0.4315  0.5564 -1.7072
  133OSM   H15T14425   4.048   2.371   5.825 -0.1375 -2.5537  3.9664
  133OSM   C16S14426   4.220   2.496   5.759 -0.2218 -0.4223  0.0273
  133OSM   H16S14427   4.286   2.420   5.713  0.3938 -1.0824  1.9246
  133OSM   H16T14428   4.286   2.570   5.809  0.0038 -0.4175 -0.2766
  133OSM   C17S14429   4.141   2.568   5.652  0.3297 -0.3396  0.7722
  133OSM   H17S14430   4.081   2.507   5.581  0.8387 -0.0345  0.0607
  133OSM   H17T14431   4.218   2.610   5.584 -0.8576  0.5132 -0.0841
  133OSM   C18S14432   4.056   2.683   5.698  0.1121  1.1764  0.1307
  133OSM   H18S14433   3.992   2.724   5.617  0.6507 -0.0928 -0.9712
  133OSM   H18T14434   4.120   2.763   5.740  0.8501  1.5397 -1.6022
  133OSM   H18U14435   3.982   2.648   5.774  2.0324  0.7890  1.9203
  133OSM    C1F14436   4.359   2.514   6.786 -0.0551  0.5634  0.2165
  133OSM     OF14437   4.470   2.472   6.809  0.3985 -0.3095  0.2218
  133OSM    C2F14438   4.327   2.587   6.664 -0.7281 -0.0119  0.2578
  133OSM    H2F14439   4.314   2.696   6.682  0.8518  0.1952  0.2863
  133OSM    H2G14440   4.233   2.535   6.635  0.9033 -2.3154 -1.2210
  133OSM    C3F14441   4.423   2.562   6.543 -0.2590  0.2562 -0.0887
  133OSM    H3F14442   4.487   2.472   6.554 -0.8715 -0.0741  0.8128
  133OSM    H3G14443   4.500   2.640   6.562 -0.3828  0.7582 -1.4963
  133OSM    C4F14444   4.357   2.585   6.413 -0.5597 -0.3223  0.4878
  133OSM    H4F14445   4.282   2.503   6.406  0.1039 -1.0778  1.9040
  133OSM    H4G14446   4.440   2.585   6.339 -2.3794 -0.9333 -1.7107
  133OSM    C5F14447   4.281   2.718   6.396  0.0247 -0.1338 -0.5420
  133OSM    H5F14448   4.360   2.796   6.381 -0.7792  1.6881  3.3784
  133OSM    H5G14449   4.219   2.748   6.483 -0.0111 -1.0822 -0.2359
  133OSM    C6F14450   4.192   2.728   6.280  0.0526 -0.3702  0.2883
  133OSM    H6F14451   4.139   2.825   6.285  0.8314  0.1837 -1.3362
  133OSM    H6G14452   4.118   2.647   6.297 -0.8057  0.4554  0.5596
  133OSM    C7F14453   4.252   2.719   6.140  0.3584 -0.7087  0.0456
  133OSM    H7F14454   4.231   2.619   6.095  0.8583 -0.9958  0.4429
  133OSM    H7G14455   4.362   2.723   6.151  0.1530 -0.5289  2.5909
  133OSM    C8F14456   4.212   2.838   6.046 -0.5860 -0.2313 -0.2339
  133OSM    H8F14457   4.101   2.845   6.045 -0.5962  0.0688  1.1480
  133OSM    H8G14458   4.238   2.796   5.946  0.0278  0.1549 -0.2402
  133OSM    C9F14459   4.283   2.971   6.079  0.2459  0.1948  0.0588
  133OSM    H9F14460   4.298   2.997   6.185 -2.1846  3.0888 -0.1870
  133OSM   C10F14461   4.354   3.049   5.999 -0.6373 -0.0132 -0.2064
  133OSM   H10F14462   4.413   3.128   6.048  1.4428 -1.2036 -0.6564
  133OSM   C11F14463   4.361   3.038   5.851 -0.3207  0.4892 -0.4450
  133OSM   H11F14464   4.350   2.933   5.816  5.4442 -0.3642 -0.8166
  133OSM   H11G14465   4.467   3.060   5.823  0.0743 -0.0607  0.5541
  133OSM   C12F14466   4.272   3.136   5.775  0.0693  0.0909 -0.8505
  133OSM   H12F14467   4.311   3.238   5.793 -1.8181  0.9109 -1.0862
  133OSM   H12G14468   4.167   3.121   5.809  0.8819 -0.0616  1.8210
  133OSM   C13F14469   4.255   3.119   5.623 -0.1762  0.3285  0.1809
  133OSM   H13F14470   4.186   3.202   5.596  1.9829  1.7129 -1.4061
  133OSM   H13G14471   4.216   3.016   5.611 -0.3473  0.3388  0.6098
  133OSM   C14F14472   4.388   3.133   5.554  0.4555  0.3710  0.3044
  133OSM   H14F14473   4.449   3.042   5.570 -0.5451 -0.1005  1.6396
  133OSM   H14G14474   4.434   3.219   5.607 -0.7965 -0.3675  2.7489
  133OSM   C15F14475   4.389   3.157   5.401  0.1372  0.5830 -0.5990
  133OSM   H15F14476   4.327   3.094   5.335  0.9079 -0.1431 -0.6496
  133OSM   H15G14477   4.495   3.151   5.367 -0.0561  0.5898 -1.2207
  133OSM   C16F14478   4.339   3.297   5.343 -0.2212  0.8713 -0.3563
  133OSM   H16F14479   4.381   3.305   5.240 -1.5213 -0.7210 -1.0738
  133OSM   H16G14480   4.387   3.375   5.405  2.3250 -1.0302  0.2209
  133OSM   C17F14481   4.182   3.311   5.311 -0.0005  0.1523 -0.5997
  133OSM   H17F14482   4.122   3.343   5.399  1.0124 -1.0855  0.5860
  133OSM   H17G14483   4.144   3.215   5.269 -1.1684  0.6006 -0.5842
  133OSM   C18F14484   4.178   3.423   5.207 -0.1784 -0.5853 -0.0817
  133OSM   H18F14485   4.242   3.403   5.119 -0.4997 -2.1867  0.0286
  133OSM   H18G14486   4.236   3.510   5.245  1.9819 -1.8114 -0.4467
  133OSM   H18H14487   4.076   3.447   5.170  0.5635  0.0481 -1.8202
  134OSM      N14488   2.545   1.043   7.514 -0.0977  0.2380  0.2889
  134OSM    C1514489   2.674   1.115   7.539 -0.0904 -0.1961  0.0332
  134OSM   H15A14490   2.758   1.050   7.556  0.5071  0.9352  1.6453
  134OSM   H15B14491   2.660   1.176   7.627  1.9679 -1.5623  1.3772
  134OSM   H15C14492   2.696   1.175   7.452 -2.7170  1.8288  0.6300
  134OSM    C1414493   2.573   0.933   7.418  0.1750  0.1912  0.9849
  134OSM   H14A14494   2.631   0.850   7.457  3.4112  1.6402 -0.3915
  134OSM   H14B14495   2.607   0.957   7.318 -3.7598 -2.9292 -1.4672
  134OSM   H14C14496   2.474   0.889   7.410 -0.7689  2.3049  0.5480
  134OSM    C1314497   2.496   0.979   7.634  0.0792 -0.7692  0.3129
  134OSM   H13A14498   2.427   0.900   7.605  0.3092 -1.2229  0.9763
  134OSM   H13B14499   2.446   1.046   7.702 -1.6276 -3.2327  1.6792
  134OSM   H13C14500   2.575   0.936   7.693  1.3231 -0.0833 -0.8025
  134OSM    C1214501   2.436   1.142   7.466 -0.1809  0.0417  0.0188
  134OSM   H12A14502   2.427   1.217   7.543 -1.7653  0.4630 -0.5249
  134OSM   H12B14503   2.344   1.085   7.459 -0.7864  1.0539 -0.5161
  134OSM    C1114504   2.448   1.213   7.330 -0.6230  0.1229  0.0577
  134OSM   H11A14505   2.346   1.246   7.304 -1.3743 -0.5984  1.8581
  134OSM   H11B14506   2.475   1.147   7.245 -0.1978  0.1495  0.1692
  134OSM      P14507   2.511   1.461   7.403 -0.4018  0.0581  0.1316
  134OSM    O1314508   2.423   1.429   7.516  0.1103  0.2988  0.4718
  134OSM    O1414509   2.632   1.535   7.435  0.6213  0.3110 -0.6786
  134OSM    O1114510   2.432   1.545   7.290  0.3447 -0.0967  0.1453
  134OSM    O1214511   2.543   1.324   7.327 -0.0700 -0.0056 -0.7042
  134OSM    C1S14512   2.448   1.512   7.156  0.0489  0.1063 -0.1337
  134OSM    H1S14513   2.390   1.419   7.139  0.3390  0.2622 -2.1282
  134OSM    H1T14514   2.556   1.499   7.134  0.4047 -1.5020  2.1176
  134OSM     NF14515   2.390   1.584   6.924  0.4941  0.6648  0.6311
  134OSM    HNF14516   2.457   1.617   6.859  0.1019 -1.4671 -0.9629
  134OSM    C2S14517   2.406   1.630   7.067 -0.5274  0.4187  0.0799
  134OSM    H2S14518   2.307   1.661   7.108  0.4169  0.8049  2.2127
  134OSM    C3S14519   2.497   1.754   7.089  0.5690 -0.1873  0.0601
  134OSM    H3S14520   2.595   1.724   7.047  1.6531  0.2877  2.1449
  134OSM     O314521   2.516   1.792   7.229 -0.4292  0.1415 -0.2693
  134OSM    HO314522   2.484   1.712   7.273  1.8140 -0.6563  0.0423
  134OSM    C4S14523   2.457   1.871   7.005 -0.0654  0.9416  0.3660
  134OSM    H4S14524   2.531   1.896   6.927 -0.3638  0.2357 -0.1486
  134OSM    C5S14525   2.353   1.949   7.040 -0.0080 -0.7294 -0.6424
  134OSM    H5S14526   2.312   1.938   7.142  0.2415  0.8898 -0.3338
  134OSM    C6S14527   2.300   2.075   6.975 -0.3379 -0.5350  1.2024
  134OSM    H6S14528   2.337   2.165   7.029 -1.4797  0.5947  0.2069
  134OSM    H6T14529   2.192   2.088   6.998 -0.9017  0.8873 -1.7291
  134OSM    C7S14530   2.329   2.081   6.824  0.6126 -0.1736 -0.5915
  134OSM    H7S14531   2.433   2.054   6.798  0.5415  0.9881 -2.2223
  134OSM    H7T14532   2.321   2.186   6.788  1.9098  0.2061  0.1411
  134OSM    C8S14533   2.242   1.985   6.743 -0.4716 -0.6538  0.3096
  134OSM    H8S14534   2.135   2.015   6.746  0.0540  1.3700  2.8677
  134OSM    H8T14535   2.247   1.882   6.783 -1.0934 -0.3561  1.1782
  134OSM    C9S14536   2.305   1.983   6.601  0.2103 -0.2706 -0.8509
  134OSM    H9S14537   2.405   1.937   6.612 -0.6945 -2.3807 -0.8947
  134OSM    H9T14538   2.321   2.082   6.554 -0.9745  0.0674 -0.5828
  134OSM   C10S14539   2.224   1.909   6.493  0.1295 -0.3038  0.6219
  134OSM   H10S14540   2.123   1.951   6.476  0.6370  0.9567  0.6289
  134OSM   H10T14541   2.198   1.802   6.509 -0.3881 -0.3719 -0.5408
  134OSM   C11S14542   2.299   1.908   6.354 -0.0096 -0.1994 -0.7329
  134OSM   H11S14543   2.246   1.824   6.303 -0.1644 -0.2833 -0.4361
  134OSM   H11T14544   2.408   1.892   6.364 -0.1235  0.4287  2.7219
  134OSM   C12S14545   2.285   2.035   6.263  0.0863 -0.4250 -0.5062
  134OSM   H12S14546   2.307   2.129   6.318  3.1208 -0.5750 -1.3023
  134OSM   H12T14547   2.181   2.043   6.224 -0.0809  0.8498  0.1608
  134OSM   C13S14548   2.364   2.042   6.138  0.3744 -0.3983  0.3366
  134OSM   H13S14549   2.472   2.065   6.152  0.1540  1.5571 -0.7591
  134OSM   H13T14550   2.326   2.121   6.070 -2.8804 -0.1463  2.2229
  134OSM   C14S14551   2.345   1.910   6.059  0.2339 -0.5889  0.0157
  134OSM   H14S14552   2.264   1.846   6.101  1.0897 -1.6156  0.1579
  134OSM   H14T14553   2.435   1.845   6.052 -0.5811 -1.6107 -1.7392
  134OSM   C15S14554   2.293   1.937   5.916  0.7688  0.3252  0.2031
  134OSM   H15S14555   2.204   2.002   5.929 -0.1019 -1.0172  1.2661
  134OSM   H15T14556   2.252   1.849   5.863  0.0050  0.5720  0.3792
  134OSM   C16S14557   2.400   2.015   5.834 -0.0957 -0.3108 -0.3022
  134OSM   H16S14558   2.502   1.973   5.823 -0.1373 -0.1364 -1.3828
  134OSM   H16T14559   2.403   2.119   5.873 -0.9422 -0.8036  1.1700
  134OSM   C17S14560   2.349   2.021   5.688 -1.0239 -0.5909 -0.1151
  134OSM   H17S14561   2.247   2.065   5.679 -1.1192 -0.8594 -0.3658
  134OSM   H17T14562   2.337   1.914   5.659  1.6564 -1.4813  1.6614
  134OSM   C18S14563   2.441   2.086   5.583  0.2577  0.9634 -0.0527
  134OSM   H18S14564   2.532   2.022   5.589  0.1358  0.8926  1.9004
  134OSM   H18T14565   2.462   2.192   5.608  3.0197  0.7689 -1.1993
  134OSM   H18U14566   2.390   2.081   5.485  1.3470 -2.7945 -0.5946
  134OSM    C1F14567   2.287   1.512   6.874 -0.1664  0.7701 -0.3959
  134OSM     OF14568   2.183   1.504   6.936  0.1451  0.2430 -0.0545
  134OSM    C2F14569   2.301   1.439   6.746 -0.2226  0.6267  0.1146
  134OSM    H2F14570   2.256   1.339   6.733 -0.6906  1.0631 -1.9300
  134OSM    H2G14571   2.410   1.434   6.726 -0.2315 -1.8435  0.4520
  134OSM    C3F14572   2.238   1.517   6.636  0.3141 -0.3951  0.6319
  134OSM    H3F14573   2.290   1.615   6.622  1.4642 -1.1795 -0.8860
  134OSM    H3G14574   2.134   1.548   6.663  0.6971  1.4542  0.1758
  134OSM    C4F14575   2.232   1.452   6.496 -0.2584  0.6301  0.2849
  134OSM    H4F14576   2.235   1.342   6.509  1.7686  0.7865  1.4029
  134OSM    H4G14577   2.323   1.483   6.441  0.5816 -0.1173  1.2217
  134OSM    C5F14578   2.119   1.507   6.409 -0.2872  0.3378 -0.1876
  134OSM    H5F14579   2.135   1.617   6.405  1.7976  0.0890  0.3392
  134OSM    H5G14580   2.024   1.488   6.464 -0.5568 -1.1760 -1.1314
  134OSM    C6F14581   2.112   1.450   6.268  0.6932  0.2607  0.1988
  134OSM    H6F14582   2.111   1.339   6.266  3.2687  0.1396  1.1861
  134OSM    H6G14583   2.204   1.470   6.208 -0.1382 -0.6697 -1.4631
  134OSM    C7F14584   1.991   1.521   6.203 -0.1197  0.3403  0.4474
  134OSM    H7F14585   2.024   1.619   6.162  0.5981  0.0613  0.3323
  134OSM    H7G14586   1.919   1.560   6.278  0.5140  0.6661  0.8924
  134OSM    C8F14587   1.924   1.446   6.091 -0.6406 -0.2854 -0.2220
  134OSM    H8F14588   1.862   1.526   6.047  0.1223  0.3912 -0.0895
  134OSM    H8G14589   1.865   1.364   6.139 -0.4663 -0.4685 -0.3182
  134OSM    C9F14590   2.025   1.396   5.991  0.5236  0.2623 -0.6756
  134OSM    H9F14591   2.122   1.356   6.026  1.0881  0.3172 -2.1189
  134OSM   C10F14592   1.985   1.392   5.864 -0.2462  0.2584 -0.7376
  134OSM   H10F14593   2.055   1.360   5.785  0.3780 -1.2908  0.3850
  134OSM   C11F14594   1.852   1.434   5.812 -0.0954  0.1410  0.3752
  134OSM   H11F14595   1.865   1.543   5.798 -3.0943  0.4253 -1.0163
  134OSM   H11G14596   1.771   1.409   5.883  0.0234 -1.3083  0.0418
  134OSM   C12F14597   1.822   1.388   5.662 -0.1081  0.3673 -0.9159
  134OSM   H12F14598   1.722   1.340   5.659 -0.5315  1.2542 -1.4549
  134OSM   H12G14599   1.901   1.316   5.632 -0.5575 -1.5385  2.0278
  134OSM   C13F14600   1.825   1.502   5.561  0.4907  0.9975 -0.1526
  134OSM   H13F14601   1.928   1.545   5.558  0.1655  1.7491 -0.5456
  134OSM   H13G14602   1.748   1.577   5.587  1.3020  1.8658 -0.2113
  134OSM   C14F14603   1.791   1.453   5.417 -1.3944 -0.7221 -0.0086
  134OSM   H14F14604   1.878   1.391   5.386 -0.6977 -0.2297  0.9001
  134OSM   H14G14605   1.808   1.546   5.359  2.7571 -0.8899  0.5666
  134OSM   C15F14606   1.651   1.393   5.400 -0.3916 -0.1595  0.2958
  134OSM   H15F14607   1.592   1.479   5.437  1.5895 -0.4006  4.5378
  134OSM   H15G14608   1.630   1.300   5.457  1.3389 -1.0241 -0.4002
  134OSM   C16F14609   1.616   1.374   5.245  0.2151  0.4654  0.2336
  134OSM   H16F14610   1.687   1.305   5.196 -1.2446  0.0397 -1.3873
  134OSM   H16G14611   1.631   1.471   5.193 -0.4415  0.2440 -0.3813
  134OSM   C17F14612   1.474   1.317   5.217 -1.0051  0.7682  0.3033
  134OSM   H17F14613   1.386   1.375   5.252 -0.8871  0.9973  0.2151
  134OSM   H17G14614   1.472   1.218   5.268  0.3821  1.1983  1.2525
  134OSM   C18F14615   1.456   1.292   5.070 -0.5321  0.0157  0.6016
  134OSM   H18F14616   1.485   1.387   5.020 -2.7985  0.9222  0.8670
  134OSM   H18G14617   1.347   1.279   5.050 -0.4953  1.6166 -0.9214
  134OSM   H18H14618   1.513   1.207   5.027 -2.0205 -0.4328 -0.6152
  135OSM      N14619   2.004   5.896   7.348  0.0112 -0.1123  0.5712
  135OSM    C1514620   1.857   5.932   7.349  0.3647 -0.1356  0.0215
  135OSM   H15A14621   1.823   5.997   7.428 -1.2772  0.1232 -0.8525
  135OSM   H15B14622   1.806   5.837   7.351 -0.3610  0.2595  0.5359
  135OSM   H15C14623   1.843   5.987   7.257  0.6788  2.0604  1.2397
  135OSM    C1414624   2.083   6.024   7.330 -0.0992  0.4165  0.3537
  135OSM   H14A14625   2.187   5.993   7.322 -0.8699 -1.8975 -1.8760
  135OSM   H14B14626   2.071   6.099   7.407 -0.5408  2.0782 -1.2692
  135OSM   H14C14627   2.058   6.072   7.237  1.3981  1.4688  0.4477
  135OSM    C1314628   2.017   5.841   7.483  0.2997  0.2858 -0.0329
  135OSM   H13A14629   1.948   5.888   7.551 -2.4589 -1.0469 -1.7368
  135OSM   H13B14630   2.118   5.861   7.516  0.7222 -0.6396 -0.7374
  135OSM   H13C14631   1.998   5.735   7.490  0.3862  0.2300 -0.5954
  135OSM    C1214632   2.036   5.787   7.246  0.6977 -0.1643  0.4921
  135OSM   H12A14633   2.144   5.787   7.238  0.9622  2.6913  2.6843
  135OSM   H12B14634   1.996   5.824   7.153  0.6469 -1.9259 -0.2339
  135OSM    C1114635   1.991   5.643   7.268  0.1194 -0.5053  0.1282
  135OSM   H11A14636   2.022   5.623   7.373 -0.2654  1.5617  0.6933
  135OSM   H11B14637   2.045   5.569   7.205 -0.9864 -0.4683 -0.8910
  135OSM      P14638   1.769   5.633   7.132  0.3958  0.0436  0.1503
  135OSM    O1314639   1.800   5.514   7.052 -0.0883  0.7133 -0.8818
  135OSM    O1414640   1.629   5.653   7.163 -0.2448  0.1692  0.2764
  135OSM    O1114641   1.823   5.757   7.054  0.1930 -0.1944  1.0952
  135OSM    O1214642   1.848   5.643   7.264  0.2567  0.1807 -0.0644
  135OSM    C1S14643   1.784   5.766   6.916 -0.3732  0.3667  0.0424
  135OSM    H1S14644   1.679   5.734   6.897 -0.2801  0.3059 -0.3772
  135OSM    H1T14645   1.843   5.689   6.863 -0.5846 -1.2622  2.0659
  135OSM     NF14646   1.841   5.877   6.709  0.1678 -0.6803  0.0124
  135OSM    HNF14647   1.933   5.905   6.681  0.9849 -2.5765  0.6697
  135OSM    C2S14648   1.813   5.905   6.846  0.5179 -0.2194 -0.4590
  135OSM    H2S14649   1.719   5.964   6.851  0.7803  0.0632  2.1623
  135OSM    C3S14650   1.924   5.990   6.911  0.3629  0.3053  0.1970
  135OSM    H3S14651   2.018   5.934   6.889 -0.0430 -0.3516  0.1167
  135OSM     O314652   1.902   5.999   7.053 -0.2158 -0.0249  0.2240
  135OSM    HO314653   1.829   5.937   7.064  0.4388 -0.4028  2.9446
  135OSM    C4S14654   1.941   6.121   6.837  0.1211  0.8126  0.0470
  135OSM    H4S14655   2.021   6.116   6.761  1.8602  0.0309  1.8186
  135OSM    C5S14656   1.889   6.244   6.849 -0.3187 -0.1056  0.4092
  135OSM    H5S14657   1.808   6.267   6.920  0.7953  0.0695  1.6628
  135OSM    C6S14658   1.929   6.360   6.761 -0.0204 -0.5343  0.3495
  135OSM    H6S14659   2.017   6.415   6.801 -0.3207  0.1015  0.1663
  135OSM    H6T14660   1.846   6.435   6.755 -0.5387 -1.0014  1.3678
  135OSM    C7S14661   1.961   6.327   6.620 -0.4462 -0.3247  0.4665
  135OSM    H7S14662   1.871   6.279   6.576  0.4927 -1.1032 -0.6407
  135OSM    H7T14663   2.044   6.254   6.617 -1.5600 -1.6103  0.0809
  135OSM    C8S14664   2.013   6.447   6.531  0.5166  0.7706  0.2166
  135OSM    H8S14665   2.117   6.471   6.560  0.1839  0.3512  1.8899
  135OSM    H8T14666   1.959   6.543   6.547  1.7363  1.8781 -1.9650
  135OSM    C9S14667   1.997   6.413   6.380 -0.0087  0.1975  0.5025
  135OSM    H9S14668   1.895   6.371   6.366  1.1348 -2.7725  0.2417
  135OSM    H9T14669   2.065   6.325   6.369  1.7825  1.4116  1.3201
  135OSM   C10S14670   2.031   6.535   6.292  0.0295  0.1671  0.6674
  135OSM   H10S14671   2.126   6.570   6.337 -0.4825  0.4515  1.5549
  135OSM   H10T14672   1.972   6.627   6.311  3.4464  2.7247 -0.1882
  135OSM   C11S14673   2.049   6.502   6.142 -0.4747 -0.0762 -0.3990
  135OSM   H11S14674   1.960   6.445   6.108 -0.4521  0.0217 -0.6237
  135OSM   H11T14675   2.141   6.440   6.128  0.6531  1.2155  0.9416
  135OSM   C12S14676   2.049   6.633   6.051 -0.6412 -0.3176  0.0021
  135OSM   H12S14677   2.125   6.702   6.094  1.0497 -0.9454 -1.7800
  135OSM   H12T14678   1.955   6.682   6.082 -1.1590 -1.6160  0.5546
  135OSM   C13S14679   2.055   6.603   5.902  0.2734  0.1708  0.6458
  135OSM   H13S14680   1.988   6.517   5.884  0.0463  0.0063  2.1380
  135OSM   H13T14681   2.158   6.561   5.891 -0.4760 -1.2565 -1.6870
  135OSM   C14S14682   2.045   6.722   5.801 -0.2171  0.4333 -0.0311
  135OSM   H14S14683   2.099   6.802   5.856  0.3030 -0.2330  0.4405
  135OSM   H14T14684   1.942   6.750   5.773  0.2190  0.5263 -1.6719
  135OSM   C15S14685   2.110   6.685   5.666  0.1301 -0.2401  0.5918
  135OSM   H15S14686   2.053   6.599   5.626  0.6746  0.0051 -0.7665
  135OSM   H15T14687   2.212   6.649   5.692 -1.1212 -2.3566  3.0241
  135OSM   C16S14688   2.113   6.790   5.551 -0.3618  0.6251  0.5985
  135OSM   H16S14689   2.180   6.876   5.576  1.8570 -0.6909 -0.4971
  135OSM   H16T14690   2.007   6.823   5.550  0.1153  2.5246  2.5368
  135OSM   C17S14691   2.168   6.720   5.422 -0.5012 -0.2125 -0.1521
  135OSM   H17S14692   2.087   6.649   5.395 -1.5152  0.3606  1.2703
  135OSM   H17T14693   2.259   6.658   5.438 -0.6375  0.1641  2.4849
  135OSM   C18S14694   2.190   6.815   5.300  0.2915  0.3673  0.3336
  135OSM   H18S14695   2.247   6.766   5.218  0.5364 -0.9269  1.2407
  135OSM   H18T14696   2.261   6.898   5.323  0.0625  0.7346 -0.2842
  135OSM   H18U14697   2.095   6.861   5.267  1.1141 -0.3460 -3.4386
  135OSM    C1F14698   1.754   5.819   6.625  0.0328 -0.2543 -0.4552
  135OSM     OF14699   1.645   5.790   6.666 -0.3457 -0.7961  0.0040
  135OSM    C2F14700   1.796   5.785   6.479 -0.6727  0.5197 -0.1631
  135OSM    H2F14701   1.881   5.715   6.470 -0.1769  0.7726  1.8984
  135OSM    H2G14702   1.823   5.884   6.438  3.1281  0.3540  1.5346
  135OSM    C3F14703   1.673   5.726   6.398 -0.2981 -0.6347 -0.1045
  135OSM    H3F14704   1.578   5.782   6.415  0.4776  0.1810  1.7391
  135OSM    H3G14705   1.652   5.624   6.436 -0.8308 -0.1901  0.8070
  135OSM    C4F14706   1.699   5.709   6.251  0.7794 -0.1892  0.9504
  135OSM    H4F14707   1.626   5.645   6.198  0.5745  1.5978 -1.0802
  135OSM    H4G14708   1.700   5.810   6.204  0.8086  0.5314  2.4150
  135OSM    C5F14709   1.839   5.648   6.222  0.1375  0.5009 -0.6056
  135OSM    H5F14710   1.861   5.554   6.277 -1.1072  0.7069  0.2714
  135OSM    H5G14711   1.915   5.725   6.248 -1.5918  1.8004  0.8082
  135OSM    C6F14712   1.858   5.609   6.074 -0.2174 -0.6537  0.5682
  135OSM    H6F14713   1.779   5.538   6.043 -1.3705  1.0012 -0.4531
  135OSM    H6G14714   1.954   5.559   6.047 -0.0088  1.0822 -2.3295
  135OSM    C7F14715   1.839   5.730   5.988  0.7762  0.0478  0.2514
  135OSM    H7F14716   1.872   5.821   6.043 -0.2789  0.2044  0.6472
  135OSM    H7G14717   1.731   5.746   5.968  1.2556  2.7951 -0.6131
  135OSM    C8F14718   1.920   5.721   5.859 -0.1244 -0.2368  0.1780
  135OSM    H8F14719   2.026   5.705   5.890  0.3379 -0.1570 -1.2805
  135OSM    H8G14720   1.928   5.812   5.796 -0.4230  0.5609  1.2659
  135OSM    C9F14721   1.877   5.612   5.771  0.3371  0.6053  0.0103
  135OSM    H9F14722   1.798   5.544   5.805  1.9109 -1.8447 -1.0147
  135OSM   C10F14723   1.940   5.577   5.654  0.5368  0.5418  0.0448
  135OSM   H10F14724   1.908   5.478   5.616 -0.5310  0.4331  1.1515
  135OSM   C11F14725   2.055   5.640   5.581  0.1042 -0.5883 -0.4048
  135OSM   H11F14726   2.131   5.567   5.548  1.1583  0.3385 -0.0750
  135OSM   H11G14727   2.107   5.709   5.651  1.2173 -0.6370 -1.1596
  135OSM   C12F14728   1.991   5.726   5.472 -0.0197 -0.5667  0.0390
  135OSM   H12F14729   1.933   5.803   5.526  0.5145  0.9940 -1.4959
  135OSM   H12G14730   1.929   5.663   5.405 -0.5259 -0.1460  0.1142
  135OSM   C13F14731   2.096   5.797   5.383 -0.6613 -0.1781 -0.4243
  135OSM   H13F14732   2.165   5.723   5.338  2.0083  0.3916  2.4049
  135OSM   H13G14733   2.167   5.855   5.445 -1.5551 -0.4604  0.9125
  135OSM   C14F14734   2.030   5.881   5.269 -0.1707 -0.2844  0.1012
  135OSM   H14F14735   2.106   5.930   5.204 -1.1954  0.3046 -0.6873
  135OSM   H14G14736   1.975   5.965   5.317 -0.1233 -0.8994  1.2762
  135OSM   C15F14737   1.927   5.806   5.182 -0.1441  0.3649  0.1719
  135OSM   H15F14738   1.841   5.771   5.244  0.3872  0.7770  1.1596
  135OSM   H15G14739   1.973   5.718   5.131 -0.8838 -1.1075  1.9175
  135OSM   C16F14740   1.876   5.900   5.069 -0.2996 -0.4099  0.1335
  135OSM   H16F14741   1.965   5.951   5.027 -0.8226 -0.2255 -0.7832
  135OSM   H16G14742   1.818   5.989   5.103  0.6228  0.5473 -0.7321
  135OSM   C17F14743   1.784   5.827   4.966  0.0676 -0.1195 -0.7712
  135OSM   H17F14744   1.834   5.732   4.940 -3.5369 -2.4766  0.2669
  135OSM   H17G14745   1.765   5.887   4.874  1.3852  0.6323 -0.5797
  135OSM   C18F14746   1.653   5.777   5.025 -0.2958 -0.0425 -0.1395
  135OSM   H18F14747   1.585   5.756   4.940 -0.8326  1.5138 -0.1193
  135OSM   H18G14748   1.611   5.856   5.091  3.4290  1.0812  1.1402
  135OSM   H18H14749   1.666   5.687   5.089 -1.0856 -0.6983 -0.8799
  136OSM      N14750   5.187   0.649   7.066  0.0040 -0.0097 -0.6213
  136OSM    C1514751   5.075   0.730   7.007  0.4879  0.4569  0.3053
  136OSM   H15A14752   5.093   0.754   6.903  1.2872  0.5637  0.4603
  136OSM   H15B14753   5.045   0.819   7.060  2.2730  0.4233  1.4567
  136OSM   H15C14754   4.984   0.674   6.990 -0.6581  0.9534  4.0725
  136OSM    C1414755   5.303   0.735   7.069 -0.3389  0.3518  0.0100
  136OSM   H14A14756   5.317   0.765   6.966 -2.3433 -2.4665 -1.1962
  136OSM   H14B14757   5.395   0.686   7.099 -0.2603  1.6467  2.0822
  136OSM   H14C14758   5.293   0.815   7.142 -0.4166 -0.3487  0.7832
  136OSM    C1314759   5.167   0.616   7.214  0.0987  0.6689  0.1557
  136OSM   H13A14760   5.137   0.703   7.271 -0.3723  0.4859  0.1849
  136OSM   H13B14761   5.262   0.580   7.251 -0.0392 -2.0157 -1.8287
  136OSM   H13C14762   5.096   0.536   7.217 -0.4558  1.0040 -2.1330
  136OSM    C1214763   5.217   0.519   6.996  0.5668  0.2513 -0.5524
  136OSM   H12A14764   5.312   0.486   7.037  1.1918  0.1722 -2.0209
  136OSM   H12B14765   5.220   0.544   6.891  1.3216  1.2529 -0.3079
  136OSM    C1114766   5.113   0.408   7.008  0.0781  0.4230 -0.3920
  136OSM   H11A14767   5.092   0.384   7.115 -0.3697 -1.2463 -0.8204
  136OSM   H11B14768   5.160   0.322   6.956 -0.5766  0.1521 -0.5528
  136OSM      P14769   4.877   0.338   6.928 -0.0331  0.0518  0.1775
  136OSM    O1314770   4.868   0.248   7.044 -0.6370  0.6809 -0.4236
  136OSM    O1414771   4.745   0.395   6.888 -0.4803 -0.5256  0.3020
  136OSM    O1114772   4.926   0.246   6.809 -0.2374 -0.0049  0.4398
  136OSM    O1214773   4.993   0.442   6.940 -0.0635  0.0080  0.0194
  136OSM    C1S14774   4.976   0.311   6.691 -0.1889 -0.5043 -0.1220
  136OSM    H1S14775   5.087   0.314   6.700 -0.0931 -0.0381 -1.3393
  136OSM    H1T14776   4.939   0.414   6.677 -0.5089 -0.3093  1.8305
  136OSM     NF14777   5.018   0.269   6.458 -0.5225 -0.5085  0.0720
  136OSM    HNF14778   4.988   0.346   6.402 -1.1500 -0.5801  0.2952
  136OSM    C2S14779   4.935   0.225   6.569  1.0521  0.0800  0.3590
  136OSM    H2S14780   4.945   0.117   6.592  1.5977 -0.4291 -1.9752
  136OSM    C3S14781   4.782   0.256   6.542 -0.6073  0.1630 -0.0517
  136OSM    H3S14782   4.761   0.365   6.542  0.2292  0.3265 -0.0717
  136OSM     O314783   4.696   0.206   6.647  0.0468 -0.1461  0.7144
  136OSM    HO314784   4.750   0.181   6.722  3.7467  0.4795 -1.4992
  136OSM    C4S14785   4.751   0.191   6.405 -0.2324  0.0690 -0.3176
  136OSM    H4S14786   4.809   0.226   6.319  2.0119 -1.3461  0.5534
  136OSM    C5S14787   4.649   0.100   6.388 -0.3338  0.0513  1.3330
  136OSM    H5S14788   4.586   0.079   6.476 -1.1937 -0.0619  0.7050
  136OSM    C6S14789   4.595   0.041   6.256 -0.7878  0.7946  0.5138
  136OSM    H6S14790   4.491   0.075   6.236 -1.8015 -0.5320  3.0261
  136OSM    H6T14791   4.577  -0.068   6.261 -2.0422  0.8530 -1.5475
  136OSM    C7S14792   4.698   0.070   6.145  0.3933 -0.5812 -0.2745
  136OSM    H7S14793   4.806   0.046   6.156  0.6375 -0.2965 -1.8102
  136OSM    H7T14794   4.706   0.180   6.134 -0.0186 -0.3800  1.1870
  136OSM    C8S14795   4.644   0.012   6.016  0.3019 -0.5823  0.0145
  136OSM    H8S14796   4.539   0.044   5.999  0.3205  0.0646  1.0130
  136OSM    H8T14797   4.650  -0.097   5.997 -0.7120 -0.6874  0.2235
  136OSM    C9S14798   4.724   0.077   5.899  0.0704  0.5139  0.0425
  136OSM    H9S14799   4.821   0.024   5.892 -0.3913 -0.1596 -1.9756
  136OSM    H9T14800   4.739   0.185   5.916  0.6041  0.4274  0.1248
  136OSM   C10S14801   4.661   0.067   5.766  0.4034 -0.2668  0.4449
  136OSM   H10S14802   4.576   0.138   5.772  2.3326  2.0863  1.5496
  136OSM   H10T14803   4.619  -0.033   5.743 -2.1703  0.3356  2.0905
  136OSM   C11S14804   4.745   0.117   5.639  0.1587 -0.2089  0.3126
  136OSM   H11S14805   4.817   0.038   5.608  2.8074  2.6517 -1.3303
  136OSM   H11T14806   4.794   0.211   5.672  1.2062  0.0682 -1.8610
  136OSM   C12S14807   4.656   0.156   5.519  0.4755  0.4894 -0.0009
  136OSM   H12S14808   4.573   0.223   5.551 -1.8833 -2.1777 -0.1314
  136OSM   H12T14809   4.617   0.059   5.483  2.0438 -1.1918  2.5376
  136OSM   C13S14810   4.727   0.223   5.408 -0.8154 -0.1130  0.2287
  136OSM   H13S14811   4.824   0.171   5.391 -1.8556 -1.5497 -1.6391
  136OSM   H13T14812   4.738   0.331   5.430  3.2424  0.0455 -1.6245
  136OSM   C14S14813   4.641   0.232   5.279  0.5162  0.0970  0.4949
  136OSM   H14S14814   4.588   0.329   5.269  2.1391  0.9089 -0.7867
  136OSM   H14T14815   4.564   0.152   5.283 -0.1209  0.7635  3.1156
  136OSM   C15S14816   4.721   0.229   5.151  0.3321  0.3416  0.5709
  136OSM   H15S14817   4.792   0.143   5.156 -0.6863 -0.4973  1.1235
  136OSM   H15T14818   4.791   0.315   5.145  1.0367 -0.1355  1.5457
  136OSM   C16S14819   4.629   0.212   5.034  0.7516 -0.0642  0.6858
  136OSM   H16S14820   4.561   0.125   5.045  1.5010 -0.8945 -0.9189
  136OSM   H16T14821   4.688   0.185   4.944 -2.3569 -1.5002 -1.0955
  136OSM   C17S14822   4.561   0.340   4.996 -0.6531 -0.6272 -0.5316
  136OSM   H17S14823   4.636   0.422   5.004  0.9390 -1.8773 -1.9148
  136OSM   H17T14824   4.478   0.360   5.067 -1.6425  0.6156 -1.9872
  136OSM   C18S14825   4.495   0.330   4.858 -0.3293  0.2131  0.8489
  136OSM   H18S14826   4.578   0.313   4.787 -1.0748 -2.5734  0.5453
  136OSM   H18T14827   4.446   0.425   4.828  0.3961  0.3792  0.1664
  136OSM   H18U14828   4.421   0.248   4.864  0.1069 -0.3473 -1.0026
  136OSM    C1F14829   5.131   0.207   6.421 -0.0483 -0.3395 -0.4866
  136OSM     OF14830   5.184   0.124   6.494 -0.2691 -0.5018 -0.1077
  136OSM    C2F14831   5.201   0.246   6.286 -0.3358  0.0908 -1.4356
  136OSM    H2F14832   5.276   0.324   6.311  1.7382 -1.7276 -1.6949
  136OSM    H2G14833   5.127   0.284   6.211 -0.2744  0.3860 -1.3482
  136OSM    C3F14834   5.295   0.135   6.231  0.0348 -0.6768 -0.0740
  136OSM    H3F14835   5.363   0.092   6.308  1.2633 -1.8268 -1.7294
  136OSM    H3G14836   5.356   0.169   6.145  1.4499 -1.9657  0.3584
  136OSM    C4F14837   5.213   0.013   6.173 -0.7691 -0.1158  0.1602
  136OSM    H4F14838   5.171  -0.052   6.253 -0.0045 -1.1355 -0.2451
  136OSM    H4G14839   5.296  -0.046   6.129  1.7116  2.8128  0.5341
  136OSM    C5F14840   5.109   0.059   6.069  0.1871  0.0346  0.2166
  136OSM    H5F14841   5.033   0.129   6.111  0.3192 -0.5109  1.4183
  136OSM    H5G14842   5.053  -0.030   6.034 -2.8984  1.1866  1.8268
  136OSM    C6F14843   5.175   0.125   5.948 -0.5278  0.4830 -0.3950
  136OSM    H6F14844   5.239   0.052   5.896 -1.2793 -0.9943  0.6673
  136OSM    H6G14845   5.246   0.208   5.969 -0.4481  0.6561 -1.3188
  136OSM    C7F14846   5.064   0.172   5.852 -0.5031 -0.4726 -0.5215
  136OSM    H7F14847   4.982   0.224   5.905  0.2383  2.2567 -1.8410
  136OSM    H7G14848   5.016   0.089   5.796  0.5903 -0.0140 -2.2128
  136OSM    C8F14849   5.103   0.276   5.745  0.8978  0.3299  1.0294
  136OSM    H8F14850   5.146   0.364   5.798  2.8154 -0.0885  0.2828
  136OSM    H8G14851   5.007   0.289   5.691  2.0923 -2.1285 -1.9572
  136OSM    C9F14852   5.206   0.220   5.651  0.2953  0.8507  0.5530
  136OSM    H9F14853   5.173   0.159   5.567 -0.1454  1.9676 -0.1047
  136OSM   C10F14854   5.336   0.240   5.654  0.1016  0.0232  0.3216
  136OSM   H10F14855   5.403   0.187   5.585  0.9586 -1.7527  2.3912
  136OSM   C11F14856   5.411   0.321   5.754  0.8438 -0.1772 -0.7683
  136OSM   H11F14857   5.361   0.321   5.853  1.0228 -1.2056 -0.6588
  136OSM   H11G14858   5.426   0.422   5.712  2.4817 -0.2690 -0.4622
  136OSM   C12F14859   5.546   0.270   5.797 -0.3553  0.3914  0.4081
  136OSM   H12F14860   5.587   0.350   5.862  0.1060  0.0854  0.4905
  136OSM   H12G14861   5.602   0.254   5.703  1.1926  2.9025  0.8115
  136OSM   C13F14862   5.552   0.140   5.872 -0.6995  0.5328  0.7297
  136OSM   H13F14863   5.518   0.059   5.805  1.8910 -0.7798  0.8885
  136OSM   H13G14864   5.488   0.156   5.962 -0.5965 -0.7686  1.0510
  136OSM   C14F14865   5.698   0.108   5.921 -0.1865 -0.4340  0.3385
  136OSM   H14F14866   5.761   0.195   5.894 -0.9720 -0.0063 -0.1431
  136OSM   H14G14867   5.734   0.028   5.853  1.5541 -0.1245  0.8592
  136OSM   C15F14868   5.726   0.089   6.068 -0.3534 -0.6656 -0.5026
  136OSM   H15F14869   5.678  -0.005   6.103 -0.9573 -0.7285 -1.4623
  136OSM   H15G14870   5.697   0.177   6.129 -0.1898 -0.4728 -0.7043
  136OSM   C16F14871   5.876   0.054   6.083 -0.2027  0.4898 -0.2168
  136OSM   H16F14872   5.933   0.042   5.989 -1.2191 -1.2853 -0.6539
  136OSM   H16G14873   5.890  -0.041   6.139  3.1542  1.6314  1.1315
  136OSM   C17F14874   5.956   0.162   6.164 -0.1549 -0.1773 -0.7526
  136OSM   H17F14875   6.047   0.110   6.200 -0.9638 -1.2564 -0.2378
  136OSM   H17G14876   5.892   0.201   6.246 -1.7038  0.0941 -2.0437
  136OSM   C18F14877   5.998   0.288   6.079 -0.3276  0.0143  0.5586
  136OSM   H18F14878   6.048   0.364   6.143  1.7629  2.7372 -3.8071
  136OSM   H18G14879   5.912   0.338   6.029  1.6635  1.9654 -1.1152
  136OSM   H18H14880   6.071   0.255   6.002  0.9308 -1.0927  2.1601
  137OSM      N14881   0.214   5.993   6.861  0.5638  0.2522  0.4772
  137OSM    C1514882   0.094   5.905   6.871 -0.6810  0.4116  0.2370
  137OSM   H15A14883   0.109   5.818   6.808  1.6906  0.3644  0.7769
  137OSM   H15B14884   0.002   5.949   6.835 -1.6322 -0.7648  1.1456
  137OSM   H15C14885   0.083   5.883   6.976  0.5237  0.8306  0.4656
  137OSM    C1414886   0.238   6.031   6.720 -0.2678  0.4447  0.3046
  137OSM   H14A14887   0.267   5.944   6.662  0.5045  0.7472  0.2257
  137OSM   H14B14888   0.322   6.098   6.718  1.6755 -1.8815 -1.2384
  137OSM   H14C14889   0.156   6.078   6.668  0.3934 -2.2041 -3.5672
  137OSM    C1314890   0.176   6.119   6.938  0.3952 -0.4568 -0.3059
  137OSM   H13A14891   0.135   6.101   7.037  0.0296 -0.3605 -0.4392
  137OSM   H13B14892   0.097   6.183   6.901  0.4352  0.5093  1.1771
  137OSM   H13C14893   0.259   6.188   6.937 -0.0860  0.1233 -0.6145
  137OSM    C1214894   0.333   5.926   6.932  0.5101  0.0007  0.1166
  137OSM   H12A14895   0.354   5.846   6.862  0.0503 -0.7142  0.7782
  137OSM   H12B14896   0.310   5.878   7.027 -1.5536 -1.2260 -0.9291
  137OSM    C1114897   0.457   6.009   6.937  0.2123 -0.0055 -0.2654
  137OSM   H11A14898   0.444   6.099   7.002  2.3533  0.5044 -0.4867
  137OSM   H11B14899   0.487   6.065   6.846 -2.2196  3.5111  0.8492
  137OSM      P14900   0.629   5.812   6.946 -0.0440  0.3427 -0.0827
  137OSM    O1314901   0.767   5.820   6.996  0.1362 -0.0321  0.4063
  137OSM    O1414902   0.554   5.691   6.978 -0.4140  0.1911  0.1130
  137OSM    O1114903   0.625   5.843   6.793  0.2276  0.2227 -0.6089
  137OSM    O1214904   0.553   5.941   7.009 -0.0758 -0.2666  0.6820
  137OSM    C1S14905   0.727   5.918   6.734 -0.2657 -0.3878  0.5342
  137OSM    H1S14906   0.830   5.883   6.755 -0.1720  0.1536  1.0094
  137OSM    H1T14907   0.723   6.028   6.749  0.0156 -0.1371 -1.0383
  137OSM     NF14908   0.813   5.994   6.512  0.8191 -0.5178  0.3166
  137OSM    HNF14909   0.789   6.090   6.498  1.6175 -0.1219  1.5059
  137OSM    C2S14910   0.713   5.914   6.573  0.4266  0.4333 -0.9229
  137OSM    H2S14911   0.731   5.810   6.538 -0.0769  0.4387 -1.2189
  137OSM    C3S14912   0.572   5.937   6.518 -0.4145  0.0265  0.0855
  137OSM    H3S14913   0.546   6.045   6.528  0.8669  1.0151 -4.7932
  137OSM     O314914   0.473   5.849   6.574 -0.0870  0.2278  0.4041
  137OSM    HO314915   0.519   5.803   6.644 -0.1006 -1.3519 -0.5748
  137OSM    C4S14916   0.572   5.918   6.368 -0.1746 -0.6733 -0.4537
  137OSM    H4S14917   0.562   5.812   6.342 -2.0504 -0.6424 -0.0381
  137OSM    C5S14918   0.562   6.008   6.276  0.1798 -0.2143 -0.3977
  137OSM    H5S14919   0.540   6.109   6.313  2.1827 -0.0318  0.4273
  137OSM    C6S14920   0.559   5.977   6.130 -0.4204  0.0789 -0.0733
  137OSM    H6S14921   0.665   5.965   6.101 -0.4173 -2.3186  0.7499
  137OSM    H6T14922   0.506   6.067   6.091 -0.7937  1.7624  3.8348
  137OSM    C7S14923   0.504   5.846   6.074  0.1355  0.2422  0.3236
  137OSM    H7S14924   0.393   5.850   6.073 -0.1040 -2.8676  1.9027
  137OSM    H7T14925   0.526   5.760   6.140  0.1328 -0.1317 -0.1562
  137OSM    C8S14926   0.542   5.793   5.930  0.4357  0.1461 -0.2318
  137OSM    H8S14927   0.510   5.687   5.925  0.2277  0.0766  1.8903
  137OSM    H8T14928   0.653   5.791   5.938  0.4856  0.0425 -0.8906
  137OSM    C9S14929   0.488   5.885   5.815 -0.2889 -0.2731  0.5497
  137OSM    H9S14930   0.553   5.973   5.833 -1.5103  0.9381 -0.6857
  137OSM    H9T14931   0.382   5.918   5.809 -0.1474 -0.0940 -1.6831
  137OSM   C10S14932   0.528   5.825   5.682 -0.7279 -0.3732  0.1987
  137OSM   H10S14933   0.481   5.725   5.679  0.8126 -1.1130 -0.7470
  137OSM   H10T14934   0.638   5.813   5.684 -0.6622  0.1820  0.2930
  137OSM   C11S14935   0.495   5.927   5.562  0.5027 -0.2280  0.0162
  137OSM   H11S14936   0.565   6.013   5.569  0.9529 -0.6712  1.3989
  137OSM   H11T14937   0.390   5.960   5.576 -0.0647 -0.9390 -2.1788
  137OSM   C12S14938   0.490   5.855   5.431  0.1698  0.6686 -0.4984
  137OSM   H12S14939   0.425   5.765   5.442  0.4075  0.6845  1.4763
  137OSM   H12T14940   0.591   5.821   5.399 -0.4024 -0.2707 -1.3593
  137OSM   C13S14941   0.429   5.946   5.324 -0.1775 -0.5347 -0.3856
  137OSM   H13S14942   0.491   6.035   5.298 -2.5163  1.5689  0.8631
  137OSM   H13T14943   0.325   5.968   5.355 -0.0800 -0.2628 -0.2397
  137OSM   C14S14944   0.434   5.868   5.188 -0.0274  0.1046 -0.6112
  137OSM   H14S14945   0.400   5.762   5.198 -0.6189  0.4623  1.7486
  137OSM   H14T14946   0.544   5.853   5.182  0.0117 -1.1775  1.9240
  137OSM   C15S14947   0.377   5.947   5.068  0.6592  0.1463  0.0474
  137OSM   H15S14948   0.452   6.023   5.039  1.9086 -0.7253  0.9122
  137OSM   H15T14949   0.283   5.998   5.100  0.4444 -0.2099 -0.0065
  137OSM   C16S14950   0.333   5.859   4.946  0.4548 -0.9464  0.6851
  137OSM   H16S14951   0.242   5.803   4.977  0.6493 -1.7689 -0.1811
  137OSM   H16T14952   0.403   5.775   4.928 -0.0211 -1.5622  1.6255
  137OSM   C17S14953   0.320   5.926   4.813  0.1520 -0.0773 -0.4675
  137OSM   H17S14954   0.284   5.856   4.735 -2.4332 -0.7125  1.1750
  137OSM   H17T14955   0.422   5.953   4.778  0.2941 -0.6575 -0.5023
  137OSM   C18S14956   0.231   6.055   4.805  0.7109 -0.3535 -0.2261
  137OSM   H18S14957   0.127   6.025   4.828  0.5374  1.0514  0.9753
  137OSM   H18T14958   0.240   6.088   4.700 -0.9169 -1.4444 -0.7480
  137OSM   H18U14959   0.265   6.134   4.875 -3.0882  0.8624  0.4891
  137OSM    C1F14960   0.944   5.969   6.533 -0.2377 -0.0355 -0.0400
  137OSM     OF14961   0.989   5.872   6.593 -0.3832 -0.1533 -0.1586
  137OSM    C2F14962   1.043   6.065   6.477  0.0039  0.6543 -0.1234
  137OSM    H2F14963   1.000   6.164   6.504  1.2070  0.6414  2.0759
  137OSM    H2G14964   1.049   6.057   6.366 -1.2466 -2.3441 -0.0598
  137OSM    C3F14965   1.187   6.061   6.545  0.9427 -0.2255 -1.0104
  137OSM    H3F14966   1.223   5.957   6.557  1.6637  0.0693 -0.5649
  137OSM    H3G14967   1.181   6.103   6.648  0.9950  1.6547 -1.7318
  137OSM    C4F14968   1.302   6.142   6.475 -0.1618  0.2649  0.4454
  137OSM    H4F14969   1.383   6.137   6.552  0.8920  0.4276 -0.6262
  137OSM    H4G14970   1.274   6.246   6.449  0.4970  0.6867  1.3879
  137OSM    C5F14971   1.362   6.075   6.346  0.1722  0.8320 -0.3402
  137OSM    H5F14972   1.289   6.094   6.265 -1.5791  0.1006  0.9977
  137OSM    H5G14973   1.369   5.972   6.387  0.0960  0.7923 -0.4279
  137OSM    C6F14974   1.496   6.135   6.304 -0.0445 -1.2095 -0.9474
  137OSM    H6F14975   1.560   6.137   6.395  2.1738  0.4659 -2.4635
  137OSM    H6G14976   1.469   6.240   6.283  0.8389 -0.3700  1.7232
  137OSM    C7F14977   1.566   6.072   6.180 -0.1454 -0.3314 -0.3398
  137OSM    H7F14978   1.547   5.965   6.162  0.7364 -0.8764  1.6100
  137OSM    H7G14979   1.675   6.069   6.203  0.2354 -1.5753 -2.1206
  137OSM    C8F14980   1.566   6.154   6.047 -0.3288  0.7415  0.0303
  137OSM    H8F14981   1.627   6.247   6.055  1.0327 -0.1619  0.6241
  137OSM    H8G14982   1.463   6.188   6.028  0.3772  2.7303 -0.4900
  137OSM    C9F14983   1.630   6.075   5.930  0.0312  0.3405  1.0741
  137OSM    H9F14984   1.737   6.055   5.949  0.3019  2.6266  2.2852
  137OSM   C10F14985   1.574   6.037   5.816 -0.8664 -0.3966 -0.6214
  137OSM   H10F14986   1.644   5.988   5.746  0.8285  0.3148  0.4921
  137OSM   C11F14987   1.431   6.064   5.780 -0.6663  0.0116  0.2146
  137OSM   H11F14988   1.383   6.126   5.858  0.7072 -0.8070  1.7693
  137OSM   H11G14989   1.386   5.963   5.778  0.6230 -0.5775 -0.7455
  137OSM   C12F14990   1.428   6.145   5.644  0.2371  0.2952 -1.3348
  137OSM   H12F14991   1.453   6.251   5.667 -0.8959  0.1660  0.7703
  137OSM   H12G14992   1.321   6.144   5.614 -0.2822  0.2920  0.4229
  137OSM   C13F14993   1.494   6.083   5.523 -0.3494 -0.6646  0.0512
  137OSM   H13F14994   1.458   5.980   5.507 -0.6846 -0.4805 -0.4199
  137OSM   H13G14995   1.604   6.094   5.535 -0.6725  1.8766  1.4954
  137OSM   C14F14996   1.475   6.173   5.389  0.1591 -0.0788 -0.3300
  137OSM   H14F14997   1.543   6.261   5.397  0.8734 -0.7806  1.9295
  137OSM   H14G14998   1.371   6.212   5.394 -0.3343 -1.2439 -1.2823
  137OSM   C15F14999   1.502   6.107   5.256  0.7181 -0.4820 -0.2345
  137OSM   H15F15000   1.422   6.034   5.232  0.0172  0.4218 -0.6865
  137OSM   H15G15001   1.601   6.057   5.260  1.2066  0.4797  0.0742
  137OSM   C16F15002   1.504   6.215   5.149  0.1763  0.6504 -0.8753
  137OSM   H16F15003   1.592   6.278   5.174  0.3396  0.3336 -0.6458
  137OSM   H16G15004   1.422   6.289   5.163  0.3310  0.3835  2.0657
  137OSM   C17F15005   1.520   6.158   5.012  0.2320 -0.2066  0.3369
  137OSM   H17F15006   1.426   6.109   4.977  1.3386 -0.1356 -3.1001
  137OSM   H17G15007   1.607   6.091   4.999  1.8589  2.3441 -4.6306
  137OSM   C18F15008   1.558   6.260   4.912  0.8553  0.1302 -0.7007
  137OSM   H18F15009   1.647   6.314   4.951  1.8734 -0.8022 -1.6505
  137OSM   H18G15010   1.469   6.327   4.907  0.7266 -0.0826 -1.3226
  137OSM   H18H15011   1.585   6.231   4.809 -0.0793 -0.1719 -0.8734
  138OSM      N15012   3.443   5.108   6.972  0.6071 -0.3942  0.0129
  138OSM    C1515013   3.425   5.076   7.115 -0.6683 -0.6133 -0.2950
  138OSM   H15A15014   3.517   5.080   7.171 -1.3713 -0.5893  0.9089
  138OSM   H15B15015   3.390   4.977   7.141 -0.7201 -0.5349 -0.0615
  138OSM   H15C15016   3.366   5.154   7.161 -2.6262 -1.0277 -1.9477
  138OSM    C1415017   3.491   4.989   6.899 -0.2987  0.3227 -0.1612
  138OSM   H14A15018   3.598   4.980   6.913  0.2772  0.9004 -3.4145
  138OSM   H14B15019   3.466   5.009   6.796 -1.1136  2.4516  0.4059
  138OSM   H14C15020   3.449   4.895   6.932 -2.1384  1.1918  0.1213
  138OSM    C1315021   3.305   5.125   6.914 -0.1687  0.1223 -0.2851
  138OSM   H13A15022   3.263   5.220   6.945 -0.6430 -1.1024  3.2663
  138OSM   H13B15023   3.240   5.052   6.958  2.1333 -0.2157  2.8922
  138OSM   H13C15024   3.311   5.120   6.806  1.9922  0.0830 -0.2024
  138OSM    C1215025   3.536   5.231   6.947  0.6834  0.4058  0.3442
  138OSM   H12A15026   3.485   5.321   6.976  1.8049  0.5634  1.9393
  138OSM   H12B15027   3.566   5.240   6.844  1.5294 -2.3705  0.2553
  138OSM    C1115028   3.666   5.229   7.024 -0.6141  0.3454  0.3818
  138OSM   H11A15029   3.658   5.196   7.130 -1.9467  0.9280  0.4848
  138OSM   H11B15030   3.718   5.327   7.031  1.0524 -0.3842 -1.0075
  138OSM      P15031   3.843   5.193   6.832 -0.0391 -0.0366 -0.0503
  138OSM    O1315032   3.751   5.217   6.720 -0.7127 -0.3367  1.0709
  138OSM    O1415033   3.931   5.297   6.882 -0.0616 -0.2991 -0.5281
  138OSM    O1115034   3.927   5.069   6.802  0.3133  0.4127 -0.6203
  138OSM    O1215035   3.756   5.142   6.960 -0.1854 -0.3262 -0.2055
  138OSM    C1S15036   3.867   4.939   6.797 -0.2107 -0.2177  0.2323
  138OSM    H1S15037   3.762   4.942   6.835 -0.7955  0.4090 -1.3512
  138OSM    H1T15038   3.921   4.865   6.859  0.5592  1.8348  2.1677
  138OSM     NF15039   3.781   4.744   6.659 -0.2385 -0.0845  0.8119
  138OSM    HNF15040   3.835   4.660   6.669 -1.8326 -1.0952  1.2861
  138OSM    C2S15041   3.856   4.867   6.649 -0.4470 -0.8515 -0.7355
  138OSM    H2S15042   3.799   4.944   6.592  2.0129  1.8287  0.1441
  138OSM    C3S15043   4.000   4.862   6.590  0.0126 -0.2866 -0.2538
  138OSM    H3S15044   4.060   4.802   6.662 -1.1765  1.3039  2.1669
  138OSM     O315045   4.070   4.985   6.585  0.0451 -0.1039 -0.5080
  138OSM    HO315046   4.052   5.030   6.668 -0.0623 -0.4241 -0.3547
  138OSM    C4S15047   4.006   4.786   6.461  0.1902 -0.2962 -0.1791
  138OSM    H4S15048   3.968   4.685   6.480 -0.6047  0.0106 -0.0560
  138OSM    C5S15049   4.017   4.827   6.334 -0.0525 -0.6043  0.0295
  138OSM    H5S15050   4.031   4.934   6.317  1.4824 -0.2537  2.9625
  138OSM    C6S15051   4.008   4.733   6.220  0.1686 -0.9131  0.0704
  138OSM    H6S15052   4.112   4.714   6.186  0.8075  3.3786 -0.9772
  138OSM    H6T15053   3.984   4.800   6.134  1.3649 -0.5376  0.0124
  138OSM    C7S15054   3.924   4.608   6.230  0.9597 -0.0482  0.1938
  138OSM    H7S15055   3.954   4.537   6.310 -0.3837 -0.9458 -0.0549
  138OSM    H7T15056   3.953   4.542   6.146  1.2440  0.4463 -0.0963
  138OSM    C8S15057   3.769   4.625   6.237  0.0846 -0.0352  0.0146
  138OSM    H8S15058   3.735   4.713   6.178  0.7584  1.8822  2.3131
  138OSM    H8T15059   3.739   4.643   6.342  1.4420  0.4047  0.3460
  138OSM    C9S15060   3.692   4.505   6.186 -0.0882  0.7077 -0.5384
  138OSM    H9S15061   3.587   4.518   6.220 -0.5628 -2.5290 -0.3965
  138OSM    H9T15062   3.721   4.406   6.229 -1.9162 -0.7384 -2.4115
  138OSM   C10S15063   3.685   4.495   6.032 -0.5455  0.8782 -0.0005
  138OSM   H10S15064   3.778   4.451   5.991 -0.5318  0.0834  0.8359
  138OSM   H10T15065   3.658   4.592   5.984 -0.8728  1.8913  2.0952
  138OSM   C11S15066   3.576   4.396   5.982  0.3871  0.3075 -1.1633
  138OSM   H11S15067   3.475   4.426   6.018 -0.9306 -2.3555 -2.3384
  138OSM   H11T15068   3.592   4.298   6.032  0.6286  0.0170 -1.7938
  138OSM   C12S15069   3.546   4.364   5.839 -0.0491 -0.2160 -0.0701
  138OSM   H12S15070   3.527   4.461   5.788 -2.3814 -0.9311 -0.6525
  138OSM   H12T15071   3.449   4.311   5.836 -1.2472  1.8701  0.4194
  138OSM   C13S15072   3.651   4.288   5.764 -0.0679 -0.2257  1.0648
  138OSM   H13S15073   3.683   4.198   5.821  2.1167  0.2437  0.6419
  138OSM   H13T15074   3.743   4.350   5.765  1.4262 -2.2156 -1.5875
  138OSM   C14S15075   3.619   4.261   5.615 -1.2241  0.5214  0.2698
  138OSM   H14S15076   3.620   4.364   5.573  1.9595  0.3867 -0.2406
  138OSM   H14T15077   3.516   4.219   5.608 -0.7399 -0.5494 -0.9034
  138OSM   C15S15078   3.732   4.182   5.556  0.7273 -0.0294  0.4474
  138OSM   H15S15079   3.762   4.104   5.630 -0.1087  1.3619  2.3496
  138OSM   H15T15080   3.822   4.248   5.554  0.7994 -0.1363 -0.0977
  138OSM   C16S15081   3.705   4.118   5.420 -0.7826 -0.6525  0.1964
  138OSM   H16S15082   3.604   4.070   5.417 -1.0276 -0.1940  0.8583
  138OSM   H16T15083   3.770   4.029   5.407  0.0160 -0.2791  1.4609
  138OSM   C17S15084   3.717   4.221   5.312 -0.0488  0.4143  0.2721
  138OSM   H17S15085   3.812   4.276   5.333 -0.8667  2.3143 -0.7682
  138OSM   H17T15086   3.641   4.302   5.307 -2.0527 -1.3374  1.0823
  138OSM   C18S15087   3.712   4.155   5.175  0.1782 -0.5743  0.5604
  138OSM   H18S15088   3.615   4.103   5.161 -0.4148  0.5386  0.4159
  138OSM   H18T15089   3.793   4.086   5.145 -1.0003 -2.4630  1.5298
  138OSM   H18U15090   3.704   4.232   5.095 -1.3410  0.8882  2.0124
  138OSM    C1F15091   3.649   4.740   6.662 -1.6804 -1.1297 -0.3389
  138OSM     OF15092   3.588   4.846   6.662 -0.0341  0.1517  0.2732
  138OSM    C2F15093   3.591   4.608   6.673 -0.5932 -0.6446  0.1637
  138OSM    H2F15094   3.488   4.615   6.714 -0.3903  0.0302  0.5694
  138OSM    H2G15095   3.655   4.544   6.737  2.3035  2.8800  1.1457
  138OSM    C3F15096   3.574   4.542   6.529  0.3439 -0.0020  0.9045
  138OSM    H3F15097   3.680   4.519   6.502  0.2119 -0.7454  0.9948
  138OSM    H3G15098   3.532   4.615   6.456 -0.7757  0.0766  1.6154
  138OSM    C4F15099   3.485   4.417   6.515 -0.0013 -0.3875 -0.4716
  138OSM    H4F15100   3.487   4.376   6.411 -2.4633 -0.9834 -0.3463
  138OSM    H4G15101   3.378   4.441   6.533 -0.4365 -2.8055  0.6003
  138OSM    C5F15102   3.519   4.311   6.617 -0.1157  0.2293 -0.3216
  138OSM    H5F15103   3.450   4.304   6.704  0.9024 -0.2899  0.4573
  138OSM    H5G15104   3.613   4.346   6.666  1.5294 -1.2777 -2.2370
  138OSM    C6F15105   3.551   4.175   6.563 -0.5300 -0.1952 -0.2600
  138OSM    H6F15106   3.615   4.110   6.627  0.3239 -0.2637 -1.1642
  138OSM    H6G15107   3.609   4.194   6.471  0.6796 -1.6246  0.1711
  138OSM    C7F15108   3.430   4.085   6.534 -0.1251 -0.7789 -0.3140
  138OSM    H7F15109   3.342   4.114   6.595  1.1713  0.9893  0.8047
  138OSM    H7G15110   3.461   3.981   6.560  1.4241 -0.3628 -0.4364
  138OSM    C8F15111   3.405   4.071   6.382 -0.6338 -0.0125 -0.2196
  138OSM    H8F15112   3.498   4.027   6.341 -1.6964 -2.4669 -0.1955
  138OSM    H8G15113   3.396   4.179   6.357  0.5081  0.8019  2.4849
  138OSM    C9F15114   3.274   4.003   6.349 -1.0957 -0.3603  0.7853
  138OSM    H9F15115   3.184   4.066   6.353 -0.8989  0.1785 -1.6582
  138OSM   C10F15116   3.267   3.888   6.276  0.1513  0.7269 -0.8978
  138OSM   H10F15117   3.165   3.853   6.257 -0.5566  2.7430 -1.0875
  138OSM   C11F15118   3.375   3.805   6.222 -0.0795  0.3471  0.8863
  138OSM   H11F15119   3.359   3.702   6.261  2.1395  1.0394  4.0692
  138OSM   H11G15120   3.472   3.841   6.261  0.5793  1.1346 -1.3277
  138OSM   C12F15121   3.375   3.795   6.066 -0.7973 -0.2336  0.0262
  138OSM   H12F15122   3.271   3.791   6.027 -1.4772  1.3253  1.5286
  138OSM   H12G15123   3.439   3.709   6.038  0.1451 -0.3364  2.2785
  138OSM   C13F15124   3.446   3.916   6.005 -0.1396  0.0433 -0.1667
  138OSM   H13F15125   3.552   3.925   6.037  0.2916  2.6862 -1.9956
  138OSM   H13G15126   3.394   4.010   6.033  0.4795  0.3989 -0.1924
  138OSM   C14F15127   3.452   3.914   5.850 -0.0103 -0.3145 -0.5221
  138OSM   H14F15128   3.471   4.015   5.806  2.8656  0.0607  1.3363
  138OSM   H14G15129   3.363   3.885   5.791  0.3348  1.7530 -2.2283
  138OSM   C15F15130   3.560   3.832   5.803 -0.1617  0.3601  0.2437
  138OSM   H15F15131   3.542   3.724   5.823 -1.7267  0.4843 -0.3640
  138OSM   H15G15132   3.658   3.863   5.844 -0.1503  0.4110  0.1772
  138OSM   C16F15133   3.576   3.857   5.655 -0.0453  0.3773 -0.0058
  138OSM   H16F15134   3.573   3.965   5.631  1.9874  0.7387  1.1897
  138OSM   H16G15135   3.486   3.815   5.604  1.3249 -1.2818 -1.1439
  138OSM   C17F15136   3.707   3.813   5.600  0.6578 -0.3576  0.4790
  138OSM   H17F15137   3.780   3.883   5.644 -1.2346  2.7653 -0.9670
  138OSM   H17G15138   3.705   3.838   5.492  0.6566 -1.1877  0.2770
  138OSM   C18F15139   3.742   3.665   5.610 -0.2691  0.1058  0.4708
  138OSM   H18F15140   3.845   3.641   5.578 -1.5252  0.0974 -4.3251
  138OSM   H18G15141   3.688   3.601   5.536 -0.5083  1.0578 -0.1867
  138OSM   H18H15142   3.714   3.617   5.707 -0.7064  0.3826  0.4875
  139OSM      N15143   0.869   0.756   7.347 -0.1457  0.4666 -0.0947
  139OSM    C1515144   0.731   0.809   7.374 -0.3981  0.5858 -0.7813
  139OSM   H15A15145   0.666   0.752   7.310  1.1674 -0.6483 -1.3478
  139OSM   H15B15146   0.741   0.914   7.349  3.1613  0.0758 -2.1498
  139OSM   H15C15147   0.705   0.805   7.478 -1.0124 -2.3995 -0.9512
  139OSM    C1415148   0.966   0.846   7.423  0.5787  0.4275  0.2781
  139OSM   H14A15149   1.064   0.804   7.434  0.7150  0.9597  1.3133
  139OSM   H14B15150   0.906   0.869   7.510 -0.3642 -0.4854 -0.1079
  139OSM   H14C15151   0.977   0.940   7.371  2.4815 -0.5000 -1.1091
  139OSM    C1315152   0.882   0.615   7.395  0.0048 -0.7224 -0.2585
  139OSM   H13A15153   0.860   0.620   7.500  1.1151  2.6480 -0.0634
  139OSM   H13B15154   0.979   0.573   7.374 -0.3057 -0.2803 -2.9458
  139OSM   H13C15155   0.817   0.550   7.337  1.3009 -1.0267 -1.4186
  139OSM    C1215156   0.889   0.767   7.193  0.0790 -0.5587 -0.3784
  139OSM   H12A15157   0.992   0.745   7.169  1.0788  1.8551  1.3373
  139OSM   H12B15158   0.873   0.870   7.167 -1.8455  0.1542  3.0666
  139OSM    C1115159   0.805   0.669   7.106 -0.1318  0.0729 -0.4482
  139OSM   H11A15160   0.796   0.700   7.000  0.1386  1.3035 -0.1210
  139OSM   H11B15161   0.700   0.676   7.142  0.1858  0.0920  0.4907
  139OSM      P15162   0.825   0.403   7.059  0.4824 -0.2037  0.6019
  139OSM    O1315163   0.941   0.312   7.058  0.5284 -0.2753 -1.0239
  139OSM    O1415164   0.704   0.365   7.133  0.1911  0.1211 -0.3321
  139OSM    O1115165   0.783   0.428   6.912 -0.5225  0.0640  0.2768
  139OSM    O1215166   0.868   0.539   7.112  0.3000 -0.1972  0.0764
  139OSM    C1S15167   0.712   0.327   6.844 -0.0209 -0.3194 -0.0103
  139OSM    H1S15168   0.607   0.320   6.881  0.1657 -2.0333  0.2608
  139OSM    H1T15169   0.746   0.227   6.880 -0.4164 -0.5108 -0.1590
  139OSM     NF15170   0.618   0.272   6.615  0.4177 -0.0435  0.2383
  139OSM    HNF15171   0.647   0.193   6.562  0.2828  1.0274 -1.4988
  139OSM    C2S15172   0.717   0.346   6.690  0.3845 -0.4299 -0.4777
  139OSM    H2S15173   0.699   0.454   6.671 -1.1819 -0.8605 -1.6817
  139OSM    C3S15174   0.861   0.321   6.635  0.3836 -0.5433 -0.3432
  139OSM    H3S15175   0.876   0.211   6.632 -1.4674 -0.8152 -1.9418
  139OSM     O315176   0.965   0.376   6.714  0.1425 -0.5862  0.2865
  139OSM    HO315177   0.922   0.419   6.788  1.1874  0.5657  0.2513
  139OSM    C4S15178   0.886   0.356   6.490  0.1119 -0.0098  0.0597
  139OSM    H4S15179   0.851   0.269   6.431  0.9580 -0.2349 -0.1262
  139OSM    C5S15180   0.946   0.450   6.423  0.2765  0.4801  0.0439
  139OSM    H5S15181   1.001   0.525   6.481  1.2743  1.3044 -1.8624
  139OSM    C6S15182   0.975   0.464   6.277 -0.2732  0.1538  0.9054
  139OSM    H6S15183   1.084   0.476   6.262 -0.4288  1.0878  0.4646
  139OSM    H6T15184   0.928   0.559   6.244  0.1047  0.5890  1.5861
  139OSM    C7S15185   0.914   0.350   6.198 -0.0514 -0.2317 -0.3379
  139OSM    H7S15186   0.810   0.327   6.232 -0.5002  1.0191 -0.8050
  139OSM    H7T15187   0.973   0.257   6.214 -1.2096 -0.8353  0.5582
  139OSM    C8S15188   0.914   0.370   6.042  0.3546 -0.4532 -0.5409
  139OSM    H8S15189   1.018   0.397   6.013  0.0153 -1.0447 -2.4111
  139OSM    H8T15190   0.867   0.468   6.019  1.1649 -0.2585 -1.4088
  139OSM    C9S15191   0.859   0.251   5.972 -0.0816  1.0512 -0.2813
  139OSM    H9S15192   0.749   0.242   5.988 -0.1323 -2.0989 -1.6199
  139OSM    H9T15193   0.897   0.159   6.022  0.0014 -0.3538 -2.7361
  139OSM   C10S15194   0.886   0.239   5.819  0.1477 -0.3191  0.1952
  139OSM   H10S15195   0.996   0.248   5.817  0.1160  0.0681 -2.1743
  139OSM   H10T15196   0.839   0.326   5.768  0.1795 -0.3992  0.0305
  139OSM   C11S15197   0.837   0.108   5.761  0.0351 -0.6847 -0.4528
  139OSM   H11S15198   0.726   0.100   5.757 -0.2535  2.3912 -3.4993
  139OSM   H11T15199   0.878   0.021   5.816 -1.0869 -1.0001 -0.0925
  139OSM   C12S15200   0.895   0.095   5.619 -0.0994 -0.2992 -0.4898
  139OSM   H12S15201   0.900  -0.013   5.593  0.9256 -0.5677  0.7490
  139OSM   H12T15202   1.002   0.126   5.624 -0.6983  1.7403  1.1158
  139OSM   C13S15203   0.829   0.170   5.505 -0.2555  0.2492  0.1801
  139OSM   H13S15204   0.797   0.271   5.537 -1.7868 -0.3564  0.6718
  139OSM   H13T15205   0.732   0.118   5.486 -0.2658  0.6544 -0.9506
  139OSM   C14S15206   0.912   0.181   5.380 -0.3281  0.5277 -0.0661
  139OSM   H14S15207   0.925   0.076   5.347 -1.1935  0.4224 -0.0987
  139OSM   H14T15208   1.010   0.226   5.405  0.5545 -1.2466 -0.2255
  139OSM   C15S15209   0.841   0.265   5.270  0.2725 -0.0338 -0.2491
  139OSM   H15S15210   0.839   0.371   5.304 -0.3463  0.2646 -1.2046
  139OSM   H15T15211   0.735   0.239   5.252 -0.1015 -0.2354  1.9421
  139OSM   C16S15212   0.927   0.268   5.146  0.3394 -0.4909 -0.0435
  139OSM   H16S15213   0.947   0.168   5.103 -2.2974 -0.9584 -0.3482
  139OSM   H16T15214   1.025   0.312   5.171  0.0412 -0.3468  0.9054
  139OSM   C17S15215   0.849   0.342   5.029 -0.1629 -0.4759 -0.1200
  139OSM   H17S15216   0.919   0.373   4.949  0.2866 -2.8765 -0.7580
  139OSM   H17T15217   0.802   0.436   5.065  0.0082 -0.7721  0.8836
  139OSM   C18S15218   0.732   0.255   4.967 -1.1136  0.4805  0.5303
  139OSM   H18S15219   0.781   0.173   4.910 -2.1739 -2.0311  2.9632
  139OSM   H18T15220   0.652   0.308   4.912 -1.1297 -0.5902 -0.5186
  139OSM   H18U15221   0.683   0.193   5.045  2.3756 -0.6438  2.0844
  139OSM    C1F15222   0.490   0.298   6.607 -0.1190  0.5794 -0.0752
  139OSM     OF15223   0.433   0.393   6.664  0.5590  0.6293  0.7012
  139OSM    C2F15224   0.415   0.212   6.509  0.0334  0.5136 -0.1389
  139OSM    H2F15225   0.440   0.104   6.519  0.0718  0.5167 -0.1986
  139OSM    H2G15226   0.457   0.228   6.407  0.4706 -0.8528 -0.1927
  139OSM    C3F15227   0.265   0.231   6.503 -0.0811  0.4556  0.3342
  139OSM    H3F15228   0.241   0.339   6.493 -0.6003  0.4668  1.5151
  139OSM    H3G15229   0.212   0.198   6.596  0.6282 -1.5011  0.1008
  139OSM    C4F15230   0.206   0.165   6.377 -0.0364  0.3008  0.9191
  139OSM    H4F15231   0.098   0.145   6.396 -0.1067  0.0807  0.2929
  139OSM    H4G15232   0.256   0.069   6.352 -0.4617  0.4768 -0.7381
  139OSM    C5F15233   0.232   0.256   6.257 -0.4405  0.0922 -0.4875
  139OSM    H5F15234   0.341   0.243   6.238 -0.3833 -1.8553  0.8458
  139OSM    H5G15235   0.215   0.361   6.291 -0.2046  0.0995 -0.3875
  139OSM    C6F15236   0.160   0.208   6.132 -0.0910 -0.2723 -0.0790
  139OSM    H6F15237   0.055   0.245   6.130  0.0477  0.1268 -0.1258
  139OSM    H6G15238   0.158   0.097   6.135  2.7219 -0.5028 -2.2747
  139OSM    C7F15239   0.226   0.258   5.999  0.1847 -0.0836 -0.5527
  139OSM    H7F15240   0.332   0.232   6.020  1.0462  2.1720 -1.8380
  139OSM    H7G15241   0.215   0.366   5.976 -1.2391 -0.5074 -1.9971
  139OSM    C8F15242   0.166   0.176   5.887 -0.5772 -0.9845  0.7545
  139OSM    H8F15243   0.057   0.196   5.892 -0.2718  0.4961  2.3439
  139OSM    H8G15244   0.171   0.067   5.906 -2.9142 -1.4395 -0.8575
  139OSM    C9F15245   0.235   0.197   5.753 -0.1712  0.0772 -0.1990
  139OSM    H9F15246   0.329   0.143   5.734 -0.1429  0.5799 -1.6477
  139OSM   C10F15247   0.196   0.272   5.645  0.8678 -0.4098 -0.1252
  139OSM   H10F15248   0.251   0.262   5.550 -0.4012  0.1165 -0.9351
  139OSM   C11F15249   0.067   0.348   5.641 -0.5426 -0.1834  0.1249
  139OSM   H11F15250   0.002   0.318   5.726 -0.6909  1.2036  0.5169
  139OSM   H11G15251   0.009   0.311   5.553  1.7850  0.7533 -1.9320
  139OSM   C12F15252   0.082   0.495   5.640 -0.0169 -0.1687 -0.3090
  139OSM   H12F15253   0.143   0.526   5.727  0.0767  0.9002 -0.7415
  139OSM   H12G15254  -0.019   0.535   5.660 -0.9216 -2.2912 -0.3687
  139OSM   C13F15255   0.139   0.568   5.513  0.6337 -0.0183 -0.7890
  139OSM   H13F15256   0.240   0.526   5.491  0.0530 -2.3832  0.7144
  139OSM   H13G15257   0.149   0.677   5.536 -0.6948  0.3444 -1.8455
  139OSM   C14F15258   0.040   0.554   5.393  0.0704  0.1848  0.0409
  139OSM   H14F15259  -0.059   0.556   5.445 -0.2738  0.6623 -0.6164
  139OSM   H14G15260   0.048   0.454   5.346  3.3432 -0.3742  1.5322
  139OSM   C15F15261   0.043   0.670   5.292  0.1861 -0.4571  0.1356
  139OSM   H15F15262   0.142   0.665   5.242 -0.0937 -0.3489 -0.4353
  139OSM   H15G15263   0.038   0.771   5.337 -0.1199 -0.3926 -0.0386
  139OSM   C16F15264  -0.062   0.684   5.178  0.0477  0.2799  0.5592
  139OSM   H16F15265  -0.163   0.659   5.218 -0.6578  0.5885 -0.9485
  139OSM   H16G15266  -0.044   0.597   5.110  1.1011  0.2735  0.8282
  139OSM   C17F15267  -0.065   0.820   5.107 -0.3092 -0.2800  0.2315
  139OSM   H17F15268  -0.074   0.898   5.185  2.1789  0.0853  0.2284
  139OSM   H17G15269  -0.154   0.820   5.040 -0.9235  1.5839  0.9957
  139OSM   C18F15270   0.061   0.872   5.023 -0.2949  0.3323  0.3700
  139OSM   H18F15271   0.063   0.817   4.926  0.5949 -2.0671  1.6805
  139OSM   H18G15272   0.153   0.842   5.078 -0.9516 -1.1016  0.7294
  139OSM   H18H15273   0.043   0.981   5.009  0.9684  0.5816  0.5127
  140OSM      N15274   6.045   6.271   6.841 -0.5540  1.0202 -0.2416
  140OSM    C1515275   5.922   6.286   6.760 -0.3268 -0.7798  0.4720
  140OSM   H15A15276   5.841   6.226   6.799 -0.5704 -1.1325 -0.5196
  140OSM   H15B15277   5.933   6.260   6.655 -2.1175  2.5341 -0.6680
  140OSM   H15C15278   5.886   6.388   6.760 -0.1621 -0.7128  1.6164
  140OSM    C1415279   6.017   6.337   6.975  0.7918  0.1889 -0.0449
  140OSM   H14A15280   6.092   6.312   7.048  0.3063  0.5669  0.5971
  140OSM   H14B15281   5.916   6.310   7.005  0.9662 -0.1306  0.2513
  140OSM   H14C15282   6.006   6.444   6.967  0.2135  0.1561  0.2280
  140OSM    C1315283   6.080   6.122   6.852  0.2932  0.0056 -0.6941
  140OSM   H13A15284   6.138   6.100   6.940 -2.7868 -0.2712  1.4162
  140OSM   H13B15285   6.143   6.102   6.766 -0.8164 -0.0284 -1.5155
  140OSM   H13C15286   5.991   6.061   6.858  0.3010 -0.0160 -0.7926
  140OSM    C1215287   6.160   6.352   6.773 -0.2110 -0.0909 -0.9808
  140OSM   H12A15288   6.229   6.377   6.852 -1.6947  2.3422 -0.3455
  140OSM   H12B15289   6.113   6.444   6.742 -0.1523 -0.7976 -3.3328
  140OSM    C1115290   6.228   6.285   6.656 -0.7740  0.0740  0.5305
  140OSM   H11A15291   6.283   6.359   6.593 -1.3589  1.8702  2.0502
  140OSM   H11B15292   6.153   6.241   6.587  1.2823 -1.9059 -0.5884
  140OSM      P15293   6.445   6.190   6.794 -0.2801 -0.4029  0.3789
  140OSM    O1315294   6.450   6.328   6.845 -0.6511  0.6529 -0.7492
  140OSM    O1415295   6.443   6.085   6.897 -0.5154 -0.1183 -0.9426
  140OSM    O1115296   6.568   6.165   6.698 -0.2209 -0.4182  0.2336
  140OSM    O1215297   6.312   6.179   6.704 -0.4677 -0.2280  0.3567
  140OSM    C1S15298   6.578   6.041   6.621  0.3126 -0.0961 -0.9311
  140OSM    H1S15299   6.514   5.960   6.662 -0.0055  1.2212  1.3129
  140OSM    H1T15300   6.680   6.001   6.635 -0.6753 -2.0349  1.5868
  140OSM     NF15301   6.605   5.935   6.397  0.6683 -0.2692 -0.2718
  140OSM    HNF15302   6.693   5.951   6.352  0.1111  2.4807 -0.5580
  140OSM    C2S15303   6.554   6.051   6.467  0.2943 -0.2065  0.1579
  140OSM    H2S15304   6.445   6.069   6.449  0.3152  1.1144  1.1849
  140OSM    C3S15305   6.618   6.185   6.410  0.3907  0.1654 -0.7774
  140OSM    H3S15306   6.727   6.176   6.430  0.5331  0.1771 -1.5225
  140OSM     O315307   6.564   6.301   6.478 -0.0701  0.0832  0.0858
  140OSM    HO315308   6.530   6.266   6.561  2.7410  0.0055  1.3324
  140OSM    C4S15309   6.585   6.216   6.268 -0.4652  0.1194  0.4850
  140OSM    H4S15310   6.483   6.248   6.241  0.8488  2.0601 -2.6534
  140OSM    C5S15311   6.667   6.186   6.170  0.4713  0.8445  0.2864
  140OSM    H5S15312   6.764   6.138   6.192 -0.0254 -0.3515 -0.0657
  140OSM    C6S15313   6.620   6.197   6.024  0.5276 -0.3686  0.2010
  140OSM    H6S15314   6.691   6.250   5.957  0.5818 -0.8808 -0.1544
  140OSM    H6T15315   6.525   6.253   6.018 -0.0186 -1.1003  1.4235
  140OSM    C7S15316   6.580   6.058   5.966  0.4142  0.9686  0.2717
  140OSM    H7S15317   6.502   6.008   6.027 -0.6983 -0.6907 -2.3343
  140OSM    H7T15318   6.665   5.988   5.977  0.4214  0.8668 -0.3866
  140OSM    C8S15319   6.538   6.058   5.824 -0.2895  0.1152 -0.0387
  140OSM    H8S15320   6.438   6.106   5.826 -0.5550 -0.4420  1.3874
  140OSM    H8T15321   6.527   5.954   5.788 -0.2543 -0.3176  1.1745
  140OSM    C9S15322   6.639   6.137   5.729  0.0897  0.4567 -1.2338
  140OSM    H9S15323   6.741   6.097   5.751 -0.6689 -1.3344 -0.8035
  140OSM    H9T15324   6.645   6.244   5.755  2.8221 -0.2219  1.5365
  140OSM   C10S15325   6.591   6.123   5.583  0.2334  0.1508 -0.7686
  140OSM   H10S15326   6.489   6.167   5.582 -0.8930 -2.2819 -0.5117
  140OSM   H10T15327   6.583   6.015   5.559 -0.7803 -0.0237  0.2695
  140OSM   C11S15328   6.684   6.197   5.487 -0.4645 -0.0070 -0.3866
  140OSM   H11S15329   6.792   6.172   5.494 -0.3752  0.4253 -0.1727
  140OSM   H11T15330   6.677   6.306   5.503 -1.9233 -0.1360 -0.0228
  140OSM   C12S15331   6.641   6.168   5.342 -0.9457 -0.1155 -0.5992
  140OSM   H12S15332   6.533   6.189   5.327 -0.3814  2.7496 -1.1261
  140OSM   H12T15333   6.673   6.066   5.312  1.0698  0.3582 -0.2014
  140OSM   C13S15334   6.704   6.268   5.238  0.2001 -0.8339 -0.2008
  140OSM   H13S15335   6.815   6.263   5.243  0.2687  0.3646 -0.2483
  140OSM   H13T15336   6.670   6.368   5.272  0.0314 -0.6629 -0.8573
  140OSM   C14S15337   6.681   6.244   5.095 -0.2525 -1.0274 -0.0027
  140OSM   H14S15338   6.570   6.245   5.085 -0.4099  1.9745  1.0312
  140OSM   H14T15339   6.709   6.139   5.071  0.9299 -1.1385  1.7129
  140OSM   C15S15340   6.736   6.348   4.992 -0.3424  0.4361  0.3599
  140OSM   H15S15341   6.838   6.319   4.958 -0.3210  1.0793 -0.1416
  140OSM   H15T15342   6.746   6.442   5.052 -0.5863 -1.1627  3.0686
  140OSM   C16S15343   6.659   6.376   4.858 -0.1924  0.5074 -0.2026
  140OSM   H16S15344   6.720   6.444   4.794  1.2225  0.2570  0.8504
  140OSM   H16T15345   6.569   6.433   4.890 -1.1287 -1.0414  0.0145
  140OSM   C17S15346   6.602   6.252   4.792  0.3342 -0.6625 -0.0582
  140OSM   H17S15347   6.560   6.179   4.864 -0.5409 -0.5944 -0.4909
  140OSM   H17T15348   6.682   6.207   4.728 -0.4315  0.5668 -1.9849
  140OSM   C18S15349   6.487   6.292   4.698 -0.2868  1.0613 -0.5036
  140OSM   H18S15350   6.453   6.209   4.633 -0.1395  1.3693 -0.9730
  140OSM   H18T15351   6.529   6.374   4.635  2.4972 -0.6396 -1.0237
  140OSM   H18U15352   6.396   6.325   4.753 -1.0812 -0.1054 -1.0792
  140OSM    C1F15353   6.564   5.807   6.409  0.0694  0.1255 -0.2983
  140OSM     OF15354   6.487   5.766   6.500 -0.2461 -0.4518 -0.7302
  140OSM    C2F15355   6.621   5.711   6.311  0.4964  0.3750  0.8424
  140OSM    H2F15356   6.661   5.624   6.369 -0.8072  1.1350  3.0177
  140OSM    H2G15357   6.715   5.755   6.272  0.4167  1.2494  1.5979
  140OSM    C3F15358   6.521   5.666   6.201 -0.1849  0.2360 -0.1125
  140OSM    H3F15359   6.472   5.759   6.165 -1.3639  0.2109  1.2923
  140OSM    H3G15360   6.435   5.610   6.246  0.0955  0.0554  0.2052
  140OSM    C4F15361   6.579   5.599   6.084  0.0711 -0.8057  0.5261
  140OSM    H4F15362   6.616   5.497   6.103  1.5400 -0.7353 -1.6390
  140OSM    H4G15363   6.657   5.661   6.035 -0.2429 -0.6217  0.2543
  140OSM    C5F15364   6.468   5.590   5.977 -0.3408  0.0530  0.7670
  140OSM    H5F15365   6.430   5.693   5.958 -0.8896 -0.3905 -0.7194
  140OSM    H5G15366   6.382   5.531   6.016 -1.2332 -0.3513 -1.6315
  140OSM    C6F15367   6.526   5.534   5.845 -0.0312 -0.6820 -0.1136
  140OSM    H6F15368   6.526   5.425   5.828 -0.1441 -1.0317  1.8537
  140OSM    H6G15369   6.631   5.569   5.832 -0.7204  1.9829  0.7789
  140OSM    C7F15370   6.443   5.601   5.731  0.6746  0.7896 -0.4430
  140OSM    H7F15371   6.440   5.710   5.753 -0.0329  0.5069  0.9937
  140OSM    H7G15372   6.338   5.567   5.745  1.1020 -0.2443  0.4413
  140OSM    C8F15373   6.471   5.566   5.585 -0.2117  0.6133 -0.6633
  140OSM    H8F15374   6.576   5.597   5.569 -0.0523  0.7417  0.5320
  140OSM    H8G15375   6.413   5.631   5.516 -2.9406  1.7686  2.4261
  140OSM    C9F15376   6.454   5.415   5.560 -0.3557  0.1029 -0.4517
  140OSM    H9F15377   6.533   5.353   5.605  1.4738  1.4217 -1.6971
  140OSM   C10F15378   6.359   5.366   5.484 -0.1200  1.1256  0.8725
  140OSM   H10F15379   6.345   5.258   5.474  1.6692  1.0992 -3.0712
  140OSM   C11F15380   6.268   5.445   5.392  0.1517 -0.6782 -0.7803
  140OSM   H11F15381   6.252   5.549   5.426  0.8316 -0.8421  0.0894
  140OSM   H11G15382   6.164   5.408   5.394 -0.6190  1.3713 -0.2978
  140OSM   C12F15383   6.325   5.453   5.249  0.6870  0.3294  0.9460
  140OSM   H12F15384   6.335   5.351   5.207 -0.6210  1.3096 -2.0506
  140OSM   H12G15385   6.428   5.493   5.240  0.4646  0.6524 -0.4144
  140OSM   C13F15386   6.234   5.522   5.148  0.4084 -0.0551  0.2156
  140OSM   H13F15387   6.215   5.627   5.179 -1.5557  0.0832 -1.2366
  140OSM   H13G15388   6.143   5.458   5.147  1.1019 -1.1027  1.3972
  140OSM   C14F15389   6.279   5.535   4.996 -0.5570  0.3444 -0.0681
  140OSM   H14F15390   6.267   5.434   4.952  1.0641 -0.3008  0.8939
  140OSM   H14G15391   6.388   5.559   4.993  0.3616 -3.0310  1.3688
  140OSM   C15F15392   6.191   5.637   4.922 -0.2152 -0.1684  0.5501
  140OSM   H15F15393   6.203   5.742   4.957 -1.3573 -0.0941  0.7560
  140OSM   H15G15394   6.084   5.611   4.937  0.2421 -2.5414  0.1378
  140OSM   C16F15395   6.205   5.621   4.768 -1.1713 -0.4564  0.2137
  140OSM   H16F15396   6.208   5.517   4.730 -1.3756  0.0344 -1.1977
  140OSM   H16G15397   6.301   5.672   4.745  0.1516 -2.9740 -0.1547
  140OSM   C17F15398   6.095   5.696   4.691  0.5150 -0.0334 -0.3432
  140OSM   H17F15399   6.133   5.706   4.587  0.9114  0.5924 -0.1412
  140OSM   H17G15400   6.077   5.799   4.727  0.8206  0.2977 -1.1285
  140OSM   C18F15401   5.959   5.621   4.684 -0.7648  0.0567  0.0666
  140OSM   H18F15402   5.974   5.519   4.643  0.4154  1.1602 -2.4339
  140OSM   H18G15403   5.889   5.680   4.621  1.8179  0.3065 -2.7927
  140OSM   H18H15404   5.917   5.612   4.786  1.2743 -1.6946  0.8248
  141OSM      N15405   5.891   5.303   7.153  0.0036  0.1712 -0.3890
  141OSM    C1515406   5.780   5.242   7.071  0.3079 -0.4853 -0.5394
  141OSM   H15A15407   5.689   5.299   7.084  0.3836 -0.0818 -1.6591
  141OSM   H15B15408   5.773   5.137   7.092  2.4778 -0.1695  2.4439
  141OSM   H15C15409   5.805   5.260   6.967 -1.1934  1.6081 -0.6171
  141OSM    C1415410   5.863   5.309   7.301  0.3727 -0.4721 -0.4314
  141OSM   H14A15411   5.831   5.219   7.352 -0.5989  0.7992  1.3079
  141OSM   H14B15412   5.781   5.379   7.304  0.1023 -0.6733 -2.1148
  141OSM   H14C15413   5.946   5.359   7.349 -2.3812  1.5153  2.6578
  141OSM    C1315414   6.010   5.217   7.127 -0.1651 -0.1886 -0.4832
  141OSM   H13A15415   6.098   5.276   7.145 -1.2152  0.8064  1.6653
  141OSM   H13B15416   6.018   5.198   7.021  0.4937  1.8963 -0.8388
  141OSM   H13C15417   5.995   5.120   7.173 -1.7436  0.7146  1.0151
  141OSM    C1215418   5.925   5.449   7.095 -0.4358  0.1161 -0.5759
  141OSM   H12A15419   5.835   5.504   7.074 -0.6437 -0.0656 -0.1694
  141OSM   H12B15420   5.976   5.437   7.001 -0.2605  0.8447 -0.5789
  141OSM    C1115421   6.000   5.537   7.197  0.1158  0.0102  0.0119
  141OSM   H11A15422   5.929   5.554   7.280  0.1786  0.8224 -0.0889
  141OSM   H11B15423   6.005   5.640   7.155  1.0218 -0.3268 -0.7553
  141OSM      P15424   6.253   5.500   7.142 -0.0012  0.1675 -0.3291
  141OSM    O1315425   6.369   5.567   7.216  0.4153  0.0041 -0.3308
  141OSM    O1415426   6.287   5.360   7.108 -0.2182 -0.2613  0.4018
  141OSM    O1115427   6.211   5.579   7.022  0.5277 -0.5145  0.7719
  141OSM    O1215428   6.126   5.496   7.238 -0.0976  0.0841  0.3615
  141OSM    C1S15429   6.292   5.565   6.906 -0.6112 -0.6517 -0.0536
  141OSM    H1S15430   6.321   5.459   6.892  1.4404 -0.3557  1.3808
  141OSM    H1T15431   6.389   5.618   6.919  0.2042 -2.0633 -0.1650
  141OSM     NF15432   6.288   5.568   6.652 -0.5336  0.4182 -0.3512
  141OSM    HNF15433   6.345   5.623   6.592 -1.6031  0.0202 -1.7934
  141OSM    C2S15434   6.227   5.617   6.773  0.0641 -0.4803  0.4601
  141OSM    H2S15435   6.124   5.578   6.782 -0.3278  0.4856  0.2543
  141OSM    C3S15436   6.206   5.771   6.774  0.1021  0.1617  0.3376
  141OSM    H3S15437   6.308   5.816   6.773 -0.4131  1.3818  0.5789
  141OSM     O315438   6.167   5.819   6.900 -0.4951  0.6224  0.1850
  141OSM    HO315439   6.160   5.736   6.948  1.1776  0.0794 -0.4398
  141OSM    C4S15440   6.114   5.825   6.660  0.1421  0.2635  0.5355
  141OSM    H4S15441   6.017   5.774   6.646 -0.1845  0.2758  2.3843
  141OSM    C5S15442   6.150   5.914   6.572 -0.4171 -0.2908  0.5405
  141OSM    H5S15443   6.251   5.956   6.569  0.3891 -2.0786 -3.7132
  141OSM    C6S15444   6.068   5.936   6.453  0.8709  0.2627 -0.2956
  141OSM    H6S15445   6.050   6.044   6.436  1.1147  0.2506 -0.6526
  141OSM    H6T15446   5.968   5.888   6.461  0.9950 -0.0004 -0.3045
  141OSM    C7S15447   6.132   5.880   6.327 -0.2414 -0.3687  0.0348
  141OSM    H7S15448   6.127   5.769   6.327 -0.9694 -0.3401  0.4117
  141OSM    H7T15449   6.241   5.902   6.329 -0.3253  0.0351  1.8347
  141OSM    C8S15450   6.077   5.940   6.195  0.2335  0.1656  0.0325
  141OSM    H8S15451   6.070   6.049   6.216  1.0391  0.6760 -2.0609
  141OSM    H8T15452   5.977   5.894   6.178 -0.0835  1.4523 -1.8562
  141OSM    C9S15453   6.178   5.910   6.077  0.1222  1.0772  0.3585
  141OSM    H9S15454   6.185   5.800   6.061  0.9702  1.1039  0.4932
  141OSM    H9T15455   6.281   5.941   6.105  0.2463  2.4967 -1.4931
  141OSM   C10S15456   6.150   5.975   5.937 -0.1264 -0.2679  0.3476
  141OSM   H10S15457   6.189   6.080   5.935  0.6983 -0.5710 -0.7028
  141OSM   H10T15458   6.043   5.973   5.908  0.2350 -0.7317 -1.0405
  141OSM   C11S15459   6.219   5.901   5.817  0.2971 -0.2392  0.0053
  141OSM   H11S15460   6.181   5.797   5.816  0.4620 -0.3236  1.3639
  141OSM   H11T15461   6.329   5.910   5.829  0.2926  0.5549 -0.4810
  141OSM   C12S15462   6.196   5.969   5.685 -0.3023 -0.1437 -0.7439
  141OSM   H12S15463   6.217   6.078   5.689  1.5136 -0.4894  0.6928
  141OSM   H12T15464   6.086   5.960   5.682 -0.3273 -1.8194  1.7323
  141OSM   C13S15465   6.274   5.900   5.570 -0.0621  0.2313 -0.1013
  141OSM   H13S15466   6.259   5.790   5.566  1.8977 -0.1202  0.8848
  141OSM   H13T15467   6.383   5.909   5.592  0.3128  0.7314 -2.0193
  141OSM   C14S15468   6.244   5.963   5.432 -0.5166  0.0547  1.0896
  141OSM   H14S15469   6.271   6.071   5.430  1.8168 -0.4812 -1.0719
  141OSM   H14T15470   6.135   5.952   5.417 -0.2170  0.4273 -2.1503
  141OSM   C15S15471   6.316   5.879   5.321 -0.6235  0.1213 -0.5012
  141OSM   H15S15472   6.320   5.768   5.332  2.6613  0.0377 -1.4872
  141OSM   H15T15473   6.425   5.897   5.308  0.3689 -1.5330  3.7034
  141OSM   C16S15474   6.254   5.892   5.179 -0.5184  0.2498 -0.1676
  141OSM   H16S15475   6.151   5.852   5.188 -1.2066  1.6100 -1.4328
  141OSM   H16T15476   6.309   5.830   5.105 -0.2373  0.6827 -0.3293
  141OSM   C17S15477   6.260   6.038   5.130 -0.1179  0.4895 -0.1058
  141OSM   H17S15478   6.355   6.078   5.171  1.0004  0.4968 -2.5626
  141OSM   H17T15479   6.169   6.090   5.167 -0.6257 -0.0250 -0.6153
  141OSM   C18S15480   6.256   6.067   4.984  1.0467  0.5330  0.2385
  141OSM   H18S15481   6.209   5.981   4.932  0.3816  0.2537  1.2593
  141OSM   H18T15482   6.355   6.075   4.934  0.6914 -3.4358 -1.4403
  141OSM   H18U15483   6.196   6.159   4.965 -0.1305  0.2780  2.3972
  141OSM    C1F15484   6.296   5.435   6.620  0.2429  0.2811  0.8057
  141OSM     OF15485   6.211   5.348   6.658 -0.4187 -0.3684  0.4993
  141OSM    C2F15486   6.411   5.392   6.530  0.3361  0.8971 -0.0093
  141OSM    H2F15487   6.508   5.386   6.585  0.4186 -1.6029 -0.3453
  141OSM    H2G15488   6.425   5.475   6.458  0.3272  0.9630  0.0642
  141OSM    C3F15489   6.383   5.258   6.453  0.2435  0.3543 -0.3974
  141OSM    H3F15490   6.356   5.172   6.518 -1.0617 -0.6909 -2.2030
  141OSM    H3G15491   6.473   5.218   6.402  2.1525  4.1794 -0.3279
  141OSM    C4F15492   6.268   5.259   6.355  0.8727  0.1736  0.0653
  141OSM    H4F15493   6.293   5.333   6.276  0.2883  0.4369  0.1276
  141OSM    H4G15494   6.174   5.297   6.400  0.4878  0.7677 -1.1934
  141OSM    C5F15495   6.228   5.115   6.312  0.1764 -0.7895 -0.1308
  141OSM    H5F15496   6.185   5.065   6.402 -1.3054  1.1571  0.3159
  141OSM    H5G15497   6.317   5.059   6.276  0.7219 -0.8364  1.2096
  141OSM    C6F15498   6.123   5.124   6.197  0.7165 -0.3513 -0.4155
  141OSM    H6F15499   6.031   5.170   6.237  1.5811  0.7380  0.3672
  141OSM    H6G15500   6.085   5.025   6.164 -0.9553  0.0414  0.2091
  141OSM    C7F15501   6.168   5.200   6.073 -0.0828  0.2438 -0.2132
  141OSM    H7F15502   6.264   5.153   6.045  0.3374  1.2257 -0.4419
  141OSM    H7G15503   6.184   5.308   6.094  2.1079  0.2891 -1.7430
  141OSM    C8F15504   6.069   5.174   5.955 -0.4634  0.1830 -1.0898
  141OSM    H8F15505   5.964   5.200   5.977 -1.8976 -4.9242 -0.5242
  141OSM    H8G15506   6.067   5.066   5.928  0.4555  0.6750 -3.3272
  141OSM    C9F15507   6.119   5.233   5.827 -0.0913 -0.0645  0.0962
  141OSM    H9F15508   6.180   5.320   5.853  0.3745 -0.4870  0.4280
  141OSM   C10F15509   6.108   5.194   5.704 -0.5451 -0.0302  0.4762
  141OSM   H10F15510   6.134   5.266   5.624  0.0477  1.5897  2.0679
  141OSM   C11F15511   6.018   5.079   5.663  0.1928 -0.9580 -0.0025
  141OSM   H11F15512   5.936   5.061   5.736  0.4849  1.4708  1.0226
  141OSM   H11G15513   6.074   4.985   5.645  1.3612 -0.0768 -1.1442
  141OSM   C12F15514   5.935   5.115   5.539  0.3843 -0.1283  0.2084
  141OSM   H12F15515   5.864   5.034   5.511 -1.5827  1.8540 -0.8804
  141OSM   H12G15516   6.009   5.140   5.460  1.1538  2.1627  1.5484
  141OSM   C13F15517   5.845   5.233   5.567  0.0798  0.3530  0.5498
  141OSM   H13F15518   5.904   5.326   5.580 -0.9629  1.0759  0.2330
  141OSM   H13G15519   5.791   5.221   5.663  0.4923 -1.2182  0.6098
  141OSM   C14F15520   5.733   5.254   5.467  1.0433 -0.2746 -0.0577
  141OSM   H14F15521   5.693   5.354   5.494  1.6112 -0.2004  0.5243
  141OSM   H14G15522   5.654   5.178   5.483 -1.0427  1.6756 -0.5944
  141OSM   C15F15523   5.778   5.263   5.325 -0.3594  0.7352 -0.2081
  141OSM   H15F15524   5.831   5.171   5.291 -1.8686 -0.7919  1.3663
  141OSM   H15G15525   5.856   5.341   5.315  1.2156 -0.8978 -1.1366
  141OSM   C16F15526   5.675   5.304   5.223  0.2351  0.2357  0.2011
  141OSM   H16F15527   5.625   5.399   5.250  0.1000  0.5614 -1.1325
  141OSM   H16G15528   5.593   5.229   5.231  1.8349 -1.8553 -1.6081
  141OSM   C17F15529   5.720   5.315   5.078 -0.0802 -0.5192  0.8623
  141OSM   H17F15530   5.627   5.327   5.017  0.6563 -0.4118 -0.2646
  141OSM   H17G15531   5.778   5.226   5.047 -0.4045  0.0094 -1.4954
  141OSM   C18F15532   5.805   5.441   5.063  0.0342  0.0830 -0.0096
  141OSM   H18F15533   5.832   5.442   4.955 -0.1189 -2.0019 -0.1114
  141OSM   H18G15534   5.899   5.423   5.119  0.9076  0.1244 -1.4191
  141OSM   H18H15535   5.758   5.540   5.084 -1.5083 -0.3643 -1.1215
  142OSM      N15536   0.805   4.916   6.847  0.2746 -0.5541  0.3838
  142OSM    C1515537   0.826   5.061   6.867  0.6130 -0.0284  0.0967
  142OSM   H15A15538   0.844   5.094   6.968 -1.2576  1.8587 -0.1057
  142OSM   H15B15539   0.738   5.116   6.836 -0.1271 -0.0255  2.1070
  142OSM   H15C15540   0.914   5.089   6.812 -0.3897  0.5491 -1.2947
  142OSM    C1415541   0.934   4.845   6.881  0.2882  0.2076 -0.2533
  142OSM   H14A15542   0.920   4.739   6.893 -1.5490  0.2600 -1.5775
  142OSM   H14B15543   0.982   4.888   6.967 -1.4613  1.6428  0.0489
  142OSM   H14C15544   0.999   4.868   6.797  0.4810  2.7361  0.5130
  142OSM    C1315545   0.698   4.881   6.948  0.9168  0.5132  0.1612
  142OSM   H13A15546   0.655   4.782   6.956 -2.5583  1.9562  1.3485
  142OSM   H13B15547   0.619   4.955   6.946  0.1909 -0.2551 -1.5840
  142OSM   H13C15548   0.741   4.907   7.044  1.0419  1.0203 -0.0285
  142OSM    C1215549   0.760   4.877   6.710  0.4618  0.5973 -0.1058
  142OSM   H12A15550   0.733   4.773   6.700 -0.9184  0.9670 -0.4952
  142OSM   H12B15551   0.847   4.891   6.648  1.0456  1.1785  0.8263
  142OSM    C1115552   0.651   4.951   6.637  0.2138  0.1060  0.1863
  142OSM   H11A15553   0.659   4.933   6.528  1.5571 -0.8973  0.4250
  142OSM   H11B15554   0.665   5.061   6.648  1.8353 -0.0421 -0.1258
  142OSM      P15555   0.430   4.806   6.698  0.0901 -0.0737  0.3734
  142OSM    O1315556   0.516   4.686   6.671  0.0818 -0.2013 -0.9628
  142OSM    O1415557   0.348   4.806   6.823  0.2332 -0.6678  0.1628
  142OSM    O1115558   0.339   4.830   6.576 -0.6720  0.5357 -0.3737
  142OSM    O1215559   0.521   4.941   6.701  0.5641  0.8217 -0.3194
  142OSM    C1S15560   0.306   4.955   6.519  0.2687 -0.2265  0.5234
  142OSM    H1S15561   0.332   5.043   6.582 -0.6432  0.1726  0.3561
  142OSM    H1T15562   0.197   4.970   6.502  0.6318  1.8420 -0.2909
  142OSM     NF15563   0.341   5.110   6.313  0.5173 -0.2209 -1.3685
  142OSM    HNF15564   0.279   5.103   6.235 -1.0229 -1.0854 -0.1195
  142OSM    C2S15565   0.366   4.977   6.377  0.0620 -0.1227 -0.5921
  142OSM    H2S15566   0.475   4.987   6.395  0.4728  0.3535 -2.9657
  142OSM    C3S15567   0.348   4.857   6.282  0.1839 -0.5529  0.4722
  142OSM    H3S15568   0.241   4.857   6.253  0.8770 -1.9370 -2.4817
  142OSM     O315569   0.359   4.729   6.347 -0.8494  0.1702 -0.1265
  142OSM    HO315570   0.348   4.750   6.440  1.4760 -0.2457  0.2873
  142OSM    C4S15571   0.429   4.874   6.157 -0.9680  0.0208  0.2718
  142OSM    H4S15572   0.407   4.970   6.107  1.3987  0.7222  0.4712
  142OSM    C5S15573   0.505   4.784   6.096 -0.6201 -0.1253 -0.4049
  142OSM    H5S15574   0.505   4.684   6.143 -0.1771  0.4403  0.8450
  142OSM    C6S15575   0.571   4.797   5.961 -0.4972  0.4755 -0.3107
  142OSM    H6S15576   0.542   4.715   5.892  1.8884 -0.7809  0.0661
  142OSM    H6T15577   0.682   4.791   5.969 -0.4864  1.3747  0.3618
  142OSM    C7S15578   0.538   4.925   5.882  0.0443  0.3797  0.6629
  142OSM    H7S15579   0.575   5.009   5.944  0.0724 -0.6339  2.0500
  142OSM    H7T15580   0.430   4.945   5.866  0.4132  1.3687 -0.7923
  142OSM    C8S15581   0.603   4.926   5.747 -0.3101  0.0937  0.4412
  142OSM    H8S15582   0.564   4.834   5.699  1.4362  0.3065 -1.5259
  142OSM    H8T15583   0.713   4.910   5.759  0.2945  0.7722 -3.0859
  142OSM    C9S15584   0.585   5.047   5.654 -0.1832 -0.6244  0.0970
  142OSM    H9S15585   0.644   5.132   5.692 -1.5253  1.1769 -1.6326
  142OSM    H9T15586   0.479   5.077   5.668 -0.6720 -2.2958  0.2316
  142OSM   C10S15587   0.617   5.017   5.507  0.2720 -0.6252  0.0216
  142OSM   H10S15588   0.556   4.933   5.467  1.5644 -0.6950 -1.9263
  142OSM   H10T15589   0.724   4.988   5.499  0.4309  0.1617 -0.8270
  142OSM   C11S15590   0.585   5.134   5.412 -0.3601 -0.6737 -0.0253
  142OSM   H11S15591   0.606   5.229   5.466  0.9359 -0.4426 -0.8939
  142OSM   H11T15592   0.485   5.129   5.364 -0.2447 -0.0647 -0.3416
  142OSM   C12S15593   0.687   5.127   5.292 -0.0317  1.0622  0.3305
  142OSM   H12S15594   0.785   5.083   5.322 -1.0880 -2.6715 -1.0555
  142OSM   H12T15595   0.704   5.232   5.261 -0.9199  0.9816 -0.4648
  142OSM   C13S15596   0.638   5.064   5.157  0.3411  0.4883  0.7105
  142OSM   H13S15597   0.553   5.123   5.119 -0.9071 -1.4653  0.3097
  142OSM   H13T15598   0.609   4.959   5.180 -1.7397  1.0376  0.8003
  142OSM   C14S15599   0.755   5.073   5.059  0.6070 -0.3456 -0.4160
  142OSM   H14S15600   0.843   5.025   5.108  0.8773  1.1943  0.6717
  142OSM   H14T15601   0.781   5.181   5.053  2.0025 -0.5917  0.6940
  142OSM   C15S15602   0.711   5.024   4.915 -0.0115 -0.4480 -0.5190
  142OSM   H15S15603   0.625   5.084   4.881  0.8881  1.6669  0.7626
  142OSM   H15T15604   0.674   4.919   4.922 -1.7867  0.2603  2.2846
  142OSM   C16S15605   0.831   5.034   4.822  0.0691 -0.1319  0.2060
  142OSM   H16S15606   0.829   4.961   4.739  0.2927  1.8677 -1.6305
  142OSM   H16T15607   0.927   5.024   4.878 -0.3795 -0.8721  0.8709
  142OSM   C17S15608   0.822   5.164   4.742  0.1914  0.1715 -0.2209
  142OSM   H17S15609   0.782   5.245   4.806 -3.5019 -1.6708  0.0626
  142OSM   H17T15610   0.748   5.140   4.663  0.1111 -1.1078  0.2252
  142OSM   C18S15611   0.955   5.199   4.686 -0.6226 -0.3630  0.5544
  142OSM   H18S15612   1.021   5.222   4.773 -0.6246  0.3608  0.3655
  142OSM   H18T15613   0.940   5.288   4.621 -3.5951 -1.1326  0.0115
  142OSM   H18U15614   0.996   5.113   4.630  0.9406  1.0672 -0.5968
  142OSM    C1F15615   0.375   5.228   6.363  0.1960 -0.3455 -0.6125
  142OSM     OF15616   0.430   5.241   6.471 -0.3390 -0.4692  0.2485
  142OSM    C2F15617   0.337   5.352   6.273 -0.3594 -0.2438  0.8209
  142OSM    H2F15618   0.265   5.308   6.200  0.5541 -1.8859  0.8705
  142OSM    H2G15619   0.426   5.383   6.214 -1.1456 -0.8019 -0.7163
  142OSM    C3F15620   0.264   5.472   6.352  0.2079  0.5370  0.7191
  142OSM    H3F15621   0.339   5.547   6.386  0.2627  2.0291 -2.3656
  142OSM    H3G15622   0.210   5.421   6.435 -2.1652  0.4633 -0.7624
  142OSM    C4F15623   0.160   5.544   6.263 -0.1997 -0.1606 -0.0808
  142OSM    H4F15624   0.102   5.614   6.327 -1.3105 -0.6308 -0.5527
  142OSM    H4G15625   0.095   5.472   6.209 -0.7312  1.5065 -1.7659
  142OSM    C5F15626   0.221   5.620   6.147  0.3506  0.7165 -0.6964
  142OSM    H5F15627   0.294   5.555   6.094  1.4691  1.1148  0.3051
  142OSM    H5G15628   0.273   5.707   6.194 -0.0467 -1.0941  3.5926
  142OSM    C6F15629   0.115   5.653   6.049 -0.8041  0.2070  0.7594
  142OSM    H6F15630   0.023   5.698   6.090 -0.2245  1.8023  0.4139
  142OSM    H6G15631   0.075   5.560   6.004 -0.8115 -0.0327  1.2619
  142OSM    C7F15632   0.160   5.751   5.936  0.1388 -0.0015  1.1081
  142OSM    H7F15633   0.270   5.746   5.919  0.1423 -2.0527  1.4888
  142OSM    H7G15634   0.147   5.851   5.984  0.0468  0.0208  1.0369
  142OSM    C8F15635   0.063   5.765   5.818  0.5689 -0.2141 -0.1135
  142OSM    H8F15636  -0.039   5.793   5.852 -1.0964 -2.1594 -3.0204
  142OSM    H8G15637   0.059   5.667   5.767 -0.7412 -0.6219  0.7348
  142OSM    C9F15638   0.099   5.874   5.715 -0.1389 -0.2168  0.0393
  142OSM    H9F15639   0.143   5.960   5.768  0.1560 -0.2693 -0.1162
  142OSM   C10F15640   0.104   5.871   5.582 -0.4434 -0.2645 -0.5736
  142OSM   H10F15641   0.113   5.960   5.519 -0.0393 -0.5114 -0.8692
  142OSM   C11F15642   0.062   5.751   5.506  0.0878 -0.9081 -0.0964
  142OSM   H11F15643  -0.002   5.684   5.568 -0.3181 -0.7781 -0.3724
  142OSM   H11G15644   0.143   5.681   5.477  0.5134 -0.6563  0.4708
  142OSM   C12F15645  -0.023   5.795   5.376 -0.5242  0.6126 -0.4908
  142OSM   H12F15646  -0.092   5.874   5.410 -0.8501 -0.6585  2.0535
  142OSM   H12G15647  -0.085   5.705   5.354 -0.3900  0.3587  0.1674
  142OSM   C13F15648   0.054   5.848   5.256  0.1613 -0.1638 -0.2700
  142OSM   H13F15649   0.128   5.769   5.235 -1.5486 -1.8213 -0.3157
  142OSM   H13G15650   0.107   5.944   5.272 -0.5897 -0.1681  3.0133
  142OSM   C14F15651  -0.041   5.860   5.135 -0.3348  0.1395  0.4020
  142OSM   H14F15652   0.017   5.915   5.058 -0.8041  1.6191  1.0729
  142OSM   H14G15653  -0.130   5.920   5.162 -2.0968 -2.5731  0.9627
  142OSM   C15F15654  -0.098   5.735   5.070 -0.0012  0.2868  0.1964
  142OSM   H15F15655  -0.158   5.682   5.146 -0.9081  0.7323 -0.1939
  142OSM   H15G15656  -0.018   5.663   5.042 -0.4891 -0.1627 -0.0552
  142OSM   C16F15657  -0.203   5.744   4.959  0.6919  0.1171 -0.0769
  142OSM   H16F15658  -0.295   5.781   5.008 -0.2307 -2.8131  0.6224
  142OSM   H16G15659  -0.225   5.651   4.901 -1.9140  0.3330  0.4224
  142OSM   C17F15660  -0.161   5.838   4.842 -0.0937 -0.3899  0.1827
  142OSM   H17F15661  -0.119   5.924   4.900  2.6295 -0.9400 -0.7957
  142OSM   H17G15662  -0.250   5.880   4.790  1.4139  2.3903 -0.3715
  142OSM   C18F15663  -0.048   5.783   4.747  0.4073 -0.4371  0.1805
  142OSM   H18F15664   0.036   5.746   4.810  0.1950 -1.4661 -0.1172
  142OSM   H18G15665  -0.008   5.854   4.671  2.0656 -1.3683  0.1123
  142OSM   H18H15666  -0.096   5.694   4.701  1.1917 -0.8983  0.2380
  143OSM      N15667   3.179   1.394   7.224  0.1336  0.5127 -0.2812
  143OSM    C1515668   3.171   1.342   7.358 -0.1926  0.3535  0.5583
  143OSM   H15A15669   3.220   1.399   7.436  0.2526 -0.2652  0.7342
  143OSM   H15B15670   3.213   1.244   7.368  0.0048  0.3700 -0.0636
  143OSM   H15C15671   3.069   1.318   7.384 -1.3121  0.3330 -3.1727
  143OSM    C1415672   3.323   1.382   7.182 -0.1425 -0.6105 -0.2684
  143OSM   H14A15673   3.334   1.394   7.075  0.0488 -1.6778 -0.3721
  143OSM   H14B15674   3.351   1.284   7.217 -0.9826 -0.5145  0.7426
  143OSM   H14C15675   3.393   1.457   7.216 -0.5702 -0.8079  1.0979
  143OSM    C1315676   3.106   1.307   7.120  0.2431 -0.5832 -0.3288
  143OSM   H13A15677   3.107   1.345   7.019  1.9789 -0.5708 -0.3213
  143OSM   H13B15678   3.000   1.306   7.145 -0.1021  1.7628 -1.3950
  143OSM   H13C15679   3.138   1.204   7.126  0.1675 -0.5456  0.8920
  143OSM    C1215680   3.126   1.541   7.215  0.5317  0.3795 -0.5953
  143OSM   H12A15681   3.187   1.602   7.279  2.4803  0.3550 -2.3344
  143OSM   H12B15682   3.024   1.532   7.251  0.6634 -2.1511 -0.6495
  143OSM    C1115683   3.134   1.616   7.081 -0.3365  0.3455 -0.5871
  143OSM   H11A15684   3.237   1.601   7.043  0.4156  3.9919 -0.3092
  143OSM   H11B15685   3.133   1.727   7.087  2.7412  0.4524 -0.7969
  143OSM      P15686   2.885   1.598   7.040 -0.0186  0.3715 -0.2585
  143OSM    O1315687   2.831   1.464   7.082 -0.8460 -0.2191 -0.3442
  143OSM    O1415688   2.873   1.706   7.146  0.5191 -0.1048 -0.8713
  143OSM    O1115689   2.819   1.650   6.912  0.6567 -0.4939 -0.1920
  143OSM    O1215690   3.034   1.577   6.994 -0.0133 -0.2540  0.1691
  143OSM    C1S15691   2.877   1.769   6.849  0.1047  0.5351 -0.5996
  143OSM    H1S15692   2.987   1.763   6.837 -0.0005 -0.4888 -1.1090
  143OSM    H1T15693   2.866   1.862   6.910 -0.2785 -0.5951  1.1462
  143OSM     NF15694   2.870   1.917   6.663  0.0066  0.6994 -0.0009
  143OSM    HNF15695   2.820   1.997   6.632 -1.2845 -0.4228 -0.9202
  143OSM    C2S15696   2.818   1.788   6.702 -0.3008 -0.0494 -0.5239
  143OSM    H2S15697   2.856   1.709   6.634 -1.1326 -0.1188 -0.9198
  143OSM    C3S15698   2.665   1.776   6.689 -0.3396  0.2668 -0.4627
  143OSM    H3S15699   2.617   1.866   6.731  0.3552  0.3722  0.1186
  143OSM     O315700   2.607   1.666   6.755  0.2334 -0.3733 -0.5544
  143OSM    HO315701   2.691   1.630   6.784  1.7720  2.0759 -1.6510
  143OSM    C4S15702   2.629   1.775   6.541 -0.2059  0.1969  0.1735
  143OSM    H4S15703   2.607   1.879   6.511  1.3490  0.2590 -0.8505
  143OSM    C5S15704   2.614   1.672   6.451  0.1123  0.7287  0.2392
  143OSM    H5S15705   2.630   1.567   6.480  1.5425 -0.5286 -4.2463
  143OSM    C6S15706   2.587   1.681   6.306 -0.0797  0.0566  0.1652
  143OSM    H6S15707   2.480   1.664   6.282  0.5108  0.2172 -3.0452
  143OSM    H6T15708   2.631   1.597   6.248 -1.0544 -0.7595  0.5984
  143OSM    C7S15709   2.656   1.804   6.241 -0.1256  0.5369  0.0735
  143OSM    H7S15710   2.611   1.902   6.270  0.5982  0.5304  1.2770
  143OSM    H7T15711   2.638   1.780   6.134  2.0422 -0.9393 -0.0100
  143OSM    C8S15712   2.813   1.827   6.260  0.6949 -0.0910 -0.2347
  143OSM    H8S15713   2.866   1.737   6.223 -0.1662 -1.0012  0.6708
  143OSM    H8T15714   2.834   1.847   6.368  0.7228  1.2540 -0.4637
  143OSM    C9S15715   2.879   1.942   6.177  0.9179  0.8100 -0.0690
  143OSM    H9S15716   2.978   1.894   6.165 -0.4411 -2.0407 -1.0012
  143OSM    H9T15717   2.881   2.037   6.234  1.7331  0.7709 -0.0231
  143OSM   C10S15718   2.809   1.956   6.041  0.3888 -0.0984 -0.0225
  143OSM   H10S15719   2.706   1.998   6.046  1.0379  1.4368  1.1521
  143OSM   H10T15720   2.806   1.858   5.989 -0.4793 -1.5834  2.6455
  143OSM   C11S15721   2.901   2.052   5.954 -0.8154  0.0621 -0.2695
  143OSM   H11S15722   3.000   2.002   5.946 -0.7279  0.2462 -0.3447
  143OSM   H11T15723   2.914   2.145   6.014 -0.0037 -0.2775  0.0962
  143OSM   C12S15724   2.845   2.080   5.815 -0.1581  0.2922  0.2291
  143OSM   H12S15725   2.864   2.186   5.786 -0.2866  1.0229  2.5743
  143OSM   H12T15726   2.735   2.068   5.825 -0.1291 -1.8673 -1.4753
  143OSM   C13S15727   2.909   1.987   5.701  0.5723  0.0721 -0.4946
  143OSM   H13S15728   2.903   1.881   5.732  1.1300  0.6406  1.7654
  143OSM   H13T15729   3.016   2.009   5.684  0.5467  0.6998  0.0739
  143OSM   C14S15730   2.841   2.009   5.570 -0.1052 -0.5721  0.3569
  143OSM   H14S15731   2.847   2.118   5.549 -1.8379 -0.8253 -1.7975
  143OSM   H14T15732   2.736   1.976   5.585 -0.0192 -0.5882  0.9227
  143OSM   C15S15733   2.903   1.925   5.459 -0.1312  0.2465  0.6634
  143OSM   H15S15734   2.880   1.820   5.489 -1.4494  0.4369  0.3892
  143OSM   H15T15735   3.012   1.947   5.458 -0.1910  0.6286  1.5308
  143OSM   C16S15736   2.844   1.954   5.321 -0.2120  0.5342  0.5929
  143OSM   H16S15737   2.894   1.897   5.240  0.0164  0.8171  0.5360
  143OSM   H16T15738   2.874   2.060   5.305 -1.6749  0.8163 -0.5164
  143OSM   C17S15739   2.693   1.942   5.303 -0.1678 -0.9459 -0.2514
  143OSM   H17S15740   2.683   1.978   5.199  1.3728 -2.1960 -0.8695
  143OSM   H17T15741   2.630   2.000   5.374 -1.3615 -0.9734 -1.2711
  143OSM   C18S15742   2.632   1.804   5.309 -0.7160 -0.6235  0.5557
  143OSM   H18S15743   2.646   1.763   5.411  2.1412 -1.1021  0.0504
  143OSM   H18T15744   2.692   1.741   5.240 -0.8941  1.0081 -1.1787
  143OSM   H18U15745   2.527   1.813   5.274 -0.7144 -0.7504  0.5202
  143OSM    C1F15746   3.003   1.929   6.629 -0.3776 -0.2979  0.0424
  143OSM     OF15747   3.076   1.835   6.610  0.0293  0.5449  0.4671
  143OSM    C2F15748   3.042   2.070   6.586  0.6285 -0.5164  0.1117
  143OSM    H2F15749   3.086   2.114   6.677  2.4727 -1.7894 -0.0942
  143OSM    H2G15750   2.949   2.125   6.561  0.4959 -1.4472 -1.6940
  143OSM    C3F15751   3.143   2.058   6.471 -0.9354  0.6948 -0.6314
  143OSM    H3F15752   3.100   1.984   6.399  0.8470 -0.3885 -0.6400
  143OSM    H3G15753   3.244   2.032   6.509 -0.5750  3.0046  0.1411
  143OSM    C4F15754   3.175   2.186   6.393  0.0039 -0.3642  0.0188
  143OSM    H4F15755   3.242   2.248   6.456 -0.6795  0.9746 -0.5428
  143OSM    H4G15756   3.074   2.232   6.385 -0.9059 -2.5342 -2.4330
  143OSM    C5F15757   3.217   2.150   6.249  0.5533 -0.5082 -0.6114
  143OSM    H5F15758   3.144   2.082   6.201  0.4411  0.7903 -2.3851
  143OSM    H5G15759   3.313   2.095   6.245  0.7886 -0.0386 -1.9089
  143OSM    C6F15760   3.209   2.273   6.158  0.3745  0.2036  0.3262
  143OSM    H6F15761   3.289   2.337   6.201 -0.3213  0.1156  1.8161
  143OSM    H6G15762   3.120   2.331   6.190 -0.3332  0.1259 -1.4042
  143OSM    C7F15763   3.221   2.258   6.006  0.5473 -0.8619  0.7384
  143OSM    H7F15764   3.156   2.175   5.972 -0.1040 -0.2189  0.3794
  143OSM    H7G15765   3.323   2.219   5.988  0.1429 -2.0678  0.9122
  143OSM    C8F15766   3.185   2.386   5.931  0.1103  0.8919  0.5448
  143OSM    H8F15767   3.211   2.472   5.996 -0.0263 -0.4362  2.4175
  143OSM    H8G15768   3.076   2.374   5.915  0.5072 -2.6533 -0.1609
  143OSM    C9F15769   3.264   2.425   5.807  0.0282 -0.2409  0.4981
  143OSM    H9F15770   3.347   2.495   5.821  0.8060 -0.6531 -1.7253
  143OSM   C10F15771   3.252   2.371   5.687  0.3386  0.0230  0.3786
  143OSM   H10F15772   3.318   2.407   5.606 -1.4613  0.4550 -0.9645
  143OSM   C11F15773   3.159   2.262   5.658 -0.5480  0.3840  0.0439
  143OSM   H11F15774   3.069   2.280   5.720  0.1368 -1.0890  1.5290
  143OSM   H11G15775   3.198   2.164   5.693 -0.1065 -0.4447 -2.5074
  143OSM   C12F15776   3.120   2.230   5.507  0.6091  1.0499 -0.3586
  143OSM   H12F15777   3.083   2.327   5.466  0.6463  1.9172  1.5257
  143OSM   H12G15778   3.034   2.161   5.509  1.1403  0.3899 -0.1628
  143OSM   C13F15779   3.236   2.186   5.418  0.5417  0.5741 -0.2472
  143OSM   H13F15780   3.271   2.095   5.471 -1.3564 -0.2002 -0.2432
  143OSM   H13G15781   3.314   2.264   5.409  0.2932  0.6614 -1.9910
  143OSM   C14F15782   3.190   2.145   5.283  0.3510  0.2333 -0.0414
  143OSM   H14F15783   3.122   2.056   5.284 -1.5394  1.5408  3.2182
  143OSM   H14G15784   3.283   2.115   5.231 -0.4460 -1.1843 -0.7306
  143OSM   C15F15785   3.104   2.250   5.216 -0.6659 -0.0560  0.6615
  143OSM   H15F15786   3.149   2.352   5.212  0.1063 -0.4000  0.2236
  143OSM   H15G15787   3.008   2.260   5.271  0.3306 -0.1635  2.5044
  143OSM   C16F15788   3.069   2.198   5.074 -0.5685  0.0418 -0.0728
  143OSM   H16F15789   3.024   2.097   5.084 -1.0334  0.1620 -0.9221
  143OSM   H16G15790   3.164   2.187   5.018 -0.5086  1.3169 -0.2394
  143OSM   C17F15791   2.977   2.298   5.000  0.8814  0.3095  0.1072
  143OSM   H17F15792   2.970   2.282   4.890 -1.7669  2.9534 -0.2632
  143OSM   H17G15793   3.013   2.403   4.998 -0.1124  0.6697  0.4035
  143OSM   C18F15794   2.837   2.322   5.055  0.3898  0.3844  0.2408
  143OSM   H18F15795   2.829   2.332   5.165  0.0081 -1.2112  0.3970
  143OSM   H18G15796   2.773   2.234   5.031 -1.6209  1.5955  0.8900
  143OSM   H18H15797   2.801   2.410   4.998  1.2304 -0.7936 -2.2855
  144OSM      N15798   1.172   6.696   7.119  0.2975  0.0068  0.6089
  144OSM    C1515799   1.070   6.776   7.191  0.6958 -0.4360  0.5984
  144OSM   H15A15800   1.100   6.812   7.288  0.3211 -0.5872  0.7735
  144OSM   H15B15801   0.976   6.723   7.199  0.6003 -0.3529  0.0358
  144OSM   H15C15802   1.049   6.869   7.142  2.1559 -0.6788 -0.5658
  144OSM    C1415803   1.283   6.780   7.065 -0.4736 -0.0207  0.9034
  144OSM   H14A15804   1.246   6.843   6.986  1.4946 -0.6699 -0.6133
  144OSM   H14B15805   1.357   6.718   7.016 -0.3093 -0.1909  1.3627
  144OSM   H14C15806   1.334   6.840   7.138  0.0970 -0.9457  1.2779
  144OSM    C1315807   1.229   6.589   7.200  0.2442  0.4587 -0.4977
  144OSM   H13A15808   1.156   6.523   7.243  0.8739  0.4237  0.5571
  144OSM   H13B15809   1.276   6.637   7.285 -0.3457 -1.8096  1.2047
  144OSM   H13C15810   1.307   6.529   7.155  0.7425 -0.7983  1.8916
  144OSM    C1215811   1.108   6.620   6.996  0.4234 -0.7218  0.2975
  144OSM   H12A15812   1.181   6.554   6.951  0.0012 -2.3006  1.8014
  144OSM   H12B15813   1.083   6.689   6.917 -1.0714 -1.1910  0.3206
  144OSM    C1115814   0.975   6.539   7.018 -0.0351 -0.0941  0.1187
  144OSM   H11A15815   0.997   6.465   7.098 -0.2974  1.1654  1.4033
  144OSM   H11B15816   0.959   6.485   6.923  0.6455  0.6828 -0.4519
  144OSM      P15817   0.767   6.672   6.936 -0.3394  0.2614  0.5216
  144OSM    O1315818   0.672   6.561   6.910 -0.3106 -0.0144 -0.5321
  144OSM    O1415819   0.712   6.808   6.970  0.9311  0.2300 -0.7839
  144OSM    O1115820   0.869   6.689   6.816 -0.7672 -0.1744  0.2926
  144OSM    O1215821   0.865   6.626   7.050  0.1290  0.1937  0.1922
  144OSM    C1S15822   0.814   6.677   6.682  0.0084 -0.1157  0.5794
  144OSM    H1S15823   0.718   6.731   6.668 -0.9956 -1.9250  0.0689
  144OSM    H1T15824   0.788   6.570   6.667 -0.7422  0.1983 -0.5213
  144OSM     NF15825   0.843   6.710   6.433  0.6428 -0.1295  0.3882
  144OSM    HNF15826   0.883   6.636   6.379  1.8180  0.9383 -0.2619
  144OSM    C2S15827   0.908   6.727   6.560  0.7155  0.1232 -0.0127
  144OSM    H2S15828   0.922   6.837   6.569 -1.2485  0.2599  2.7493
  144OSM    C3S15829   1.049   6.657   6.574 -0.4472  0.1644 -0.6506
  144OSM    H3S15830   1.032   6.548   6.585 -3.8871  0.5982 -0.6550
  144OSM     O315831   1.111   6.691   6.699 -0.5468  0.0184  0.0112
  144OSM    HO315832   1.041   6.742   6.742 -1.2184  0.7612 -1.8826
  144OSM    C4S15833   1.129   6.705   6.455 -0.0909  0.0100 -0.6337
  144OSM    H4S15834   1.127   6.630   6.374  0.2271  0.6796 -1.2742
  144OSM    C5S15835   1.196   6.815   6.430  0.3153 -0.1720 -0.2324
  144OSM    H5S15836   1.209   6.883   6.515  4.2818 -1.1854  0.1620
  144OSM    C6S15837   1.256   6.860   6.295 -0.6440 -0.1818  0.5747
  144OSM    H6S15838   1.358   6.817   6.308 -1.3471 -2.4384 -0.8580
  144OSM    H6T15839   1.253   6.971   6.293 -1.7232 -0.1041  3.0901
  144OSM    C7S15840   1.204   6.798   6.157 -0.2661 -0.2615 -0.1410
  144OSM    H7S15841   1.094   6.810   6.144  0.0075  0.2793 -2.1478
  144OSM    H7T15842   1.222   6.689   6.173  2.4612  0.4108  2.1406
  144OSM    C8S15843   1.278   6.850   6.032 -0.2715  0.4082 -0.1824
  144OSM    H8S15844   1.385   6.870   6.052 -0.7390  2.3896  0.5812
  144OSM    H8T15845   1.227   6.947   6.014 -1.3582 -0.4706 -2.2963
  144OSM    C9S15846   1.257   6.760   5.905  0.6626 -0.1795  0.6366
  144OSM    H9S15847   1.151   6.749   5.873  1.7122 -0.0771 -3.4546
  144OSM    H9T15848   1.298   6.658   5.919 -0.4118 -0.6577  0.3864
  144OSM   C10S15849   1.328   6.826   5.785 -0.0450  0.1830 -0.0733
  144OSM   H10S15850   1.435   6.836   5.810 -0.2306  2.8452  0.0040
  144OSM   H10T15851   1.274   6.922   5.765 -0.1522  0.5944  1.9498
  144OSM   C11S15852   1.317   6.741   5.657 -0.1814 -0.3626  0.3437
  144OSM   H11S15853   1.210   6.716   5.639 -0.4788  2.0732 -1.8479
  144OSM   H11T15854   1.378   6.650   5.675  3.6302  1.9627  0.3450
  144OSM   C12S15855   1.382   6.811   5.536 -0.2939 -0.7659  0.1389
  144OSM   H12S15856   1.487   6.822   5.571 -1.4899  2.3201  3.3401
  144OSM   H12T15857   1.344   6.913   5.513  0.5497 -0.0526  1.7455
  144OSM   C13S15858   1.386   6.721   5.406  0.0612 -0.2809  0.2587
  144OSM   H13S15859   1.410   6.613   5.423 -0.3568 -0.6071 -1.0890
  144OSM   H13T15860   1.478   6.740   5.346 -1.2792 -0.8277 -2.0939
  144OSM   C14S15861   1.258   6.734   5.317  0.2918 -0.0482  0.0271
  144OSM   H14S15862   1.240   6.841   5.289 -0.6296  0.3839  2.0880
  144OSM   H14T15863   1.173   6.704   5.381 -1.1101  0.7193 -1.3994
  144OSM   C15S15864   1.248   6.643   5.190  0.9238 -0.9306  0.4906
  144OSM   H15S15865   1.142   6.663   5.164  0.8829 -0.6453  0.8661
  144OSM   H15T15866   1.254   6.537   5.220 -0.5335 -1.1136  0.2319
  144OSM   C16S15867   1.352   6.687   5.083 -0.0197  0.7775  0.0777
  144OSM   H16S15868   1.456   6.663   5.113  0.3477  1.4194 -0.6515
  144OSM   H16T15869   1.347   6.798   5.078 -1.9992  0.8387  1.7927
  144OSM   C17S15870   1.306   6.623   4.949 -0.1001  0.4109 -1.1030
  144OSM   H17S15871   1.292   6.513   4.953 -0.8882  0.4532 -2.2195
  144OSM   H17T15872   1.394   6.645   4.883  0.1508 -0.2187 -0.9814
  144OSM   C18S15873   1.192   6.694   4.880  0.5733  0.0633 -0.2679
  144OSM   H18S15874   1.103   6.685   4.945  0.8732 -0.4335  0.0868
  144OSM   H18T15875   1.170   6.644   4.783 -0.7617  1.9901 -1.0105
  144OSM   H18U15876   1.214   6.803   4.882  1.2727 -0.0650 -0.5636
  144OSM    C1F15877   0.736   6.787   6.387 -0.0551  0.5493 -0.0656
  144OSM     OF15878   0.709   6.892   6.441 -0.1953  0.5135  0.2719
  144OSM    C2F15879   0.661   6.726   6.269  0.3234 -0.4787  0.3965
  144OSM    H2F15880   0.634   6.622   6.295 -2.7921  0.7713  2.7964
  144OSM    H2G15881   0.731   6.736   6.183 -2.0963  1.9949 -1.4532
  144OSM    C3F15882   0.528   6.804   6.233 -0.5840  0.0190  0.1070
  144OSM    H3F15883   0.558   6.911   6.230  3.3076 -0.9356  0.4859
  144OSM    H3G15884   0.465   6.784   6.323 -1.2969  1.4953 -0.0272
  144OSM    C4F15885   0.455   6.753   6.111  0.4448 -0.6334 -0.2774
  144OSM    H4F15886   0.353   6.793   6.098  0.4564 -0.4012  0.3467
  144OSM    H4G15887   0.440   6.643   6.117 -0.0733 -0.6587 -1.5936
  144OSM    C5F15888   0.524   6.787   5.972 -0.3957 -0.3883 -0.1271
  144OSM    H5F15889   0.633   6.780   5.989  0.2932  1.5469 -3.0631
  144OSM    H5G15890   0.498   6.894   5.953 -3.6745 -0.9887  0.4007
  144OSM    C6F15891   0.478   6.703   5.859 -0.0566 -0.5548 -0.9118
  144OSM    H6F15892   0.368   6.723   5.853 -0.3140 -0.1095  2.6958
  144OSM    H6G15893   0.488   6.593   5.871  1.5397 -0.7151 -3.1496
  144OSM    C7F15894   0.528   6.743   5.721  0.1906 -0.2962 -0.6811
  144OSM    H7F15895   0.634   6.710   5.712 -0.0884 -1.9020  1.0914
  144OSM    H7G15896   0.512   6.853   5.721 -1.9158 -0.5294  1.2882
  144OSM    C8F15897   0.463   6.671   5.606  0.4818 -0.0990 -0.3446
  144OSM    H8F15898   0.362   6.716   5.608  0.0504 -1.0471 -0.3920
  144OSM    H8G15899   0.441   6.563   5.619  1.6922 -0.5825 -1.9768
  144OSM    C9F15900   0.529   6.683   5.474 -0.2437 -0.3034 -0.5749
  144OSM    H9F15901   0.591   6.596   5.447 -0.1633 -0.6388  0.6398
  144OSM   C10F15902   0.507   6.782   5.388  0.2847 -0.4425 -0.4201
  144OSM   H10F15903   0.560   6.776   5.291  1.8614  2.7236  0.1189
  144OSM   C11F15904   0.419   6.904   5.404  0.1061 -0.2738  0.0360
  144OSM   H11F15905   0.474   6.989   5.450 -0.3454  0.0730 -0.0562
  144OSM   H11G15906   0.327   6.881   5.462  0.8492 -0.1332  1.3220
  144OSM   C12F15907   0.367   6.947   5.263  0.3371  0.4564  0.2475
  144OSM   H12F15908   0.294   6.875   5.220  1.6528  0.5099 -2.2405
  144OSM   H12G15909   0.449   6.946   5.189 -1.1980 -0.2317 -1.5079
  144OSM   C13F15910   0.303   7.086   5.262 -0.5593  0.3771  0.3256
  144OSM   H13F15911   0.374   7.164   5.298  1.0820 -1.5270  1.3893
  144OSM   H13G15912   0.211   7.086   5.324  0.0844 -1.4613  1.3513
  144OSM   C14F15913   0.261   7.129   5.116 -0.4594  0.1376 -1.1176
  144OSM   H14F15914   0.175   7.198   5.125 -1.8263 -1.6814  0.4873
  144OSM   H14G15915   0.230   7.038   5.062  1.3574  0.1105 -2.2156
  144OSM   C15F15916   0.365   7.194   5.024  0.3561  0.2153  0.0120
  144OSM   H15F15917   0.445   7.120   5.003  0.1662 -0.1745  0.6426
  144OSM   H15G15918   0.414   7.272   5.087  0.4539 -0.3617  0.6657
  144OSM   C16F15919   0.320   7.243   4.883  0.2083  0.0442 -0.0469
  144OSM   H16F15920   0.410   7.293   4.843  1.0007  0.8798  2.5729
  144OSM   H16G15921   0.236   7.315   4.897  0.0116 -0.0399 -0.7568
  144OSM   C17F15922   0.280   7.137   4.783 -0.2089  0.3961  0.5651
  144OSM   H17F15923   0.192   7.080   4.821  1.2798 -2.7205 -0.4092
  144OSM   H17G15924   0.370   7.072   4.779  1.2639  2.1776  2.4217
  144OSM   C18F15925   0.252   7.197   4.644 -0.3229 -0.1042 -0.4102
  144OSM   H18F15926   0.229   7.116   4.571 -4.3945 -1.4111  2.0130
  144OSM   H18G15927   0.340   7.259   4.614 -0.2788  0.0519  0.0401
  144OSM   H18H15928   0.160   7.256   4.662 -1.4208 -1.9920  0.4334
  145OSM      N15929   1.862   3.777   7.089 -0.2151 -0.5035 -0.6388
  145OSM    C1515930   1.791   3.890   7.031  0.0717 -0.0313  0.2418
  145OSM   H15A15931   1.771   3.966   7.104 -2.6514  0.6447 -1.0881
  145OSM   H15B15932   1.696   3.864   6.986  0.8331  0.4429 -1.7498
  145OSM   H15C15933   1.840   3.939   6.948  1.8688  0.2327  1.3912
  145OSM    C1415934   1.995   3.823   7.139 -0.1421 -0.2544  0.0754
  145OSM   H14A15935   2.002   3.883   7.229  1.8784  0.4078 -0.4691
  145OSM   H14B15936   2.031   3.880   7.055  0.1518 -2.1879 -1.1554
  145OSM   H14C15937   2.067   3.744   7.149 -0.3607 -0.3881  0.6482
  145OSM    C1315938   1.782   3.735   7.207 -0.1052 -0.4600 -0.4059
  145OSM   H13A15939   1.773   3.810   7.284  1.5145 -1.8582  1.2341
  145OSM   H13B15940   1.820   3.647   7.257  1.5065  0.1164 -0.5884
  145OSM   H13C15941   1.679   3.723   7.175 -1.5704  3.5043  2.0931
  145OSM    C1215942   1.875   3.666   6.993  0.0208  0.2605 -0.0711
  145OSM   H12A15943   1.917   3.696   6.899  0.7414  0.6980  0.3820
  145OSM   H12B15944   1.776   3.625   6.978 -0.4187  1.0424  0.6274
  145OSM    C1115945   1.971   3.560   7.046 -1.2710  0.0006  0.2009
  145OSM   H11A15946   1.946   3.466   6.991 -0.7563 -0.0712  0.0900
  145OSM   H11B15947   1.956   3.550   7.155  0.1419 -0.8797  0.3374
  145OSM      P15948   2.212   3.482   7.016  0.6251 -0.5341  0.1553
  145OSM    O1315949   2.341   3.533   7.065  0.1827 -0.6746 -0.3686
  145OSM    O1415950   2.169   3.362   7.093  0.5537  0.1948  0.5906
  145OSM    O1115951   2.221   3.452   6.862 -0.2442  0.3241 -0.5087
  145OSM    O1215952   2.110   3.595   7.032  0.1422 -0.4040 -0.6990
  145OSM    C1S15953   2.170   3.546   6.762 -0.1876 -0.2223 -0.5486
  145OSM    H1S15954   2.231   3.639   6.769  0.2884 -0.5830  0.1615
  145OSM    H1T15955   2.067   3.578   6.791  0.9448  1.8900  1.4817
  145OSM     NF15956   2.155   3.581   6.522 -0.1135  0.0766 -0.4095
  145OSM    HNF15957   2.063   3.598   6.486 -0.4517  1.8163  1.1354
  145OSM    C2S15958   2.177   3.482   6.625 -0.3667  0.5019  0.2879
  145OSM    H2S15959   2.279   3.447   6.602 -0.3607  0.8844 -0.3087
  145OSM    C3S15960   2.078   3.360   6.618  0.2613 -0.1187 -0.0970
  145OSM    H3S15961   1.972   3.391   6.616  0.4369  0.6875  1.3147
  145OSM     O315962   2.087   3.270   6.728  0.0480 -0.0205 -0.2076
  145OSM    HO315963   2.124   3.324   6.798  0.0420  1.7633 -1.5035
  145OSM    C4S15964   2.116   3.286   6.498  0.7619 -0.2901 -0.1575
  145OSM    H4S15965   2.209   3.228   6.506 -1.0365 -3.2004  1.1903
  145OSM    C5S15966   2.034   3.276   6.384 -0.2852 -0.5010 -0.6937
  145OSM    H5S15967   1.939   3.332   6.384 -0.6371 -1.0435  0.6351
  145OSM    C6S15968   2.055   3.205   6.257 -0.4729  0.4509  0.2147
  145OSM    H6S15969   1.961   3.152   6.234  0.6755 -1.4228 -0.3718
  145OSM    H6T15970   2.147   3.144   6.244  0.6192  2.3335 -1.5378
  145OSM    C7S15971   2.061   3.321   6.145 -0.5106 -0.7667  0.0742
  145OSM    H7S15972   2.156   3.377   6.164 -1.2957  0.0802  1.7750
  145OSM    H7T15973   1.987   3.403   6.160  0.6155  0.0835  1.3408
  145OSM    C8S15974   2.053   3.259   6.014  0.6116 -0.1231  1.4854
  145OSM    H8S15975   1.956   3.206   6.010  2.4612 -3.7068 -0.0970
  145OSM    H8T15976   2.130   3.179   6.009  0.5233 -0.2054  1.4542
  145OSM    C9S15977   2.084   3.363   5.900 -0.3484 -0.2270 -0.5795
  145OSM    H9S15978   2.190   3.394   5.913  0.3298 -1.6038 -2.3261
  145OSM    H9T15979   2.004   3.440   5.903 -2.3941 -2.2801  0.1160
  145OSM   C10S15980   2.072   3.310   5.756 -0.1629 -0.0259  0.3909
  145OSM   H10S15981   1.967   3.313   5.720  0.0499 -0.6702 -0.3045
  145OSM   H10T15982   2.108   3.205   5.759  0.6198  0.2386  3.4551
  145OSM   C11S15983   2.150   3.389   5.653  0.5266 -0.2603  0.4313
  145OSM   H11S15984   2.257   3.384   5.682  0.5675 -0.9287  0.1736
  145OSM   H11T15985   2.123   3.497   5.657  2.6018  0.3095  0.7456
  145OSM   C12S15986   2.138   3.324   5.514  0.8128  0.2216 -0.2147
  145OSM   H12S15987   2.027   3.321   5.501  0.8025  1.5285 -0.5620
  145OSM   H12T15988   2.176   3.220   5.506  2.6007  0.6927  1.3530
  145OSM   C13S15989   2.173   3.430   5.408 -0.2476  0.7673 -0.1489
  145OSM   H13S15990   2.267   3.487   5.427 -1.0118  1.9895  0.0835
  145OSM   H13T15991   2.092   3.506   5.398 -0.9116 -0.1592 -2.3417
  145OSM   C14S15992   2.178   3.367   5.270  0.2670  0.1446  0.9002
  145OSM   H14S15993   2.090   3.308   5.237  0.8584 -0.3443  0.1641
  145OSM   H14T15994   2.258   3.290   5.278 -0.1428 -0.5137 -0.8951
  145OSM   C15S15995   2.205   3.477   5.163  0.5397 -0.6795  0.2462
  145OSM   H15S15996   2.280   3.536   5.220  1.4235  0.6731 -2.2030
  145OSM   H15T15997   2.120   3.548   5.159  1.1914  0.2434  1.9105
  145OSM   C16S15998   2.261   3.420   5.026  0.2550 -0.0115 -0.2975
  145OSM   H16S15999   2.200   3.332   4.998 -0.5804 -0.0777  1.5673
  145OSM   H16T16000   2.363   3.382   5.045  0.6559  1.4120  0.5973
  145OSM   C17S16001   2.249   3.528   4.912  0.1758 -0.4656  0.2715
  145OSM   H17S16002   2.317   3.614   4.929 -0.2495 -0.0620 -0.0203
  145OSM   H17T16003   2.148   3.572   4.893 -0.4412 -2.9479 -3.1765
  145OSM   C18S16004   2.296   3.467   4.781 -0.1565 -0.5667 -0.3926
  145OSM   H18S16005   2.314   3.539   4.698  2.7798  0.4970  0.9995
  145OSM   H18T16006   2.225   3.388   4.750 -1.3967  0.9323 -1.5188
  145OSM   H18U16007   2.396   3.421   4.798 -0.0083  0.3077  1.3716
  145OSM    C1F16008   2.244   3.676   6.492 -0.5432  0.1539 -0.3961
  145OSM     OF16009   2.345   3.684   6.563  0.4134  0.3325 -0.8501
  145OSM    C2F16010   2.226   3.761   6.370  0.0943 -0.1860 -0.7029
  145OSM    H2F16011   2.322   3.780   6.317 -0.5109  2.0697 -1.0895
  145OSM    H2G16012   2.175   3.857   6.397  0.4157 -0.1127 -0.3492
  145OSM    C3F16013   2.144   3.699   6.258  0.4932  1.0781 -0.0854
  145OSM    H3F16014   2.045   3.675   6.303  1.8507  2.1254  3.7798
  145OSM    H3G16015   2.197   3.610   6.220 -0.4134  0.9228 -1.0449
  145OSM    C4F16016   2.121   3.792   6.132 -1.0492 -0.6646  0.0108
  145OSM    H4F16017   2.075   3.882   6.176 -3.4938 -1.9369  0.2081
  145OSM    H4G16018   2.034   3.759   6.072 -1.7404 -1.1977  1.2693
  145OSM    C5F16019   2.246   3.803   6.038  0.8982 -0.1234 -0.0696
  145OSM    H5F16020   2.285   3.702   6.014  3.0067  0.9310 -1.4296
  145OSM    H5G16021   2.323   3.855   6.099 -1.0841  2.7487  0.2183
  145OSM    C6F16022   2.212   3.879   5.899  0.2363  0.0859  0.2694
  145OSM    H6F16023   2.198   3.988   5.910 -0.6517 -0.0655  0.6834
  145OSM    H6G16024   2.117   3.835   5.864  1.0812 -2.4522  0.9251
  145OSM    C7F16025   2.336   3.859   5.797  0.2151  0.0167 -0.1636
  145OSM    H7F16026   2.353   3.750   5.810 -0.9629 -0.6797 -3.4399
  145OSM    H7G16027   2.421   3.924   5.827  0.6059 -0.6632  0.2381
  145OSM    C8F16028   2.293   3.889   5.652 -0.3486  0.1847 -0.2672
  145OSM    H8F16029   2.252   3.992   5.657 -2.2425 -0.5775  1.6419
  145OSM    H8G16030   2.204   3.827   5.626  1.2815 -1.8300 -1.3603
  145OSM    C9F16031   2.408   3.882   5.550 -0.5015 -0.3764 -0.5501
  145OSM    H9F16032   2.493   3.818   5.576 -0.3720  0.2531  0.6581
  145OSM   C10F16033   2.382   3.900   5.418  0.7430  0.1999  0.6623
  145OSM   H10F16034   2.464   3.908   5.345  0.8403 -1.4263  0.5519
  145OSM   C11F16035   2.252   3.950   5.345  0.4995 -0.5211 -0.5437
  145OSM   H11F16036   2.269   4.053   5.309 -0.2142 -0.3655 -0.4657
  145OSM   H11G16037   2.169   3.957   5.419 -0.7104  0.0153 -1.8935
  145OSM   C12F16038   2.193   3.857   5.238  0.3455 -0.1293  0.5867
  145OSM   H12F16039   2.187   3.758   5.288  1.1605  0.1812  1.3297
  145OSM   H12G16040   2.263   3.847   5.152  0.0459  0.5314  0.2613
  145OSM   C13F16041   2.050   3.898   5.184 -0.1466 -1.0889 -0.2903
  145OSM   H13F16042   2.064   4.002   5.146  0.1147 -0.7878  0.5984
  145OSM   H13G16043   1.970   3.901   5.260  0.4115  0.3354  0.2770
  145OSM   C14F16044   1.997   3.807   5.073  0.2787 -0.4227  0.5204
  145OSM   H14F16045   1.965   3.708   5.111  1.5306 -1.7022 -1.5549
  145OSM   H14G16046   2.078   3.778   5.002 -0.8846 -1.3130 -0.4764
  145OSM   C15F16047   1.884   3.871   4.987  0.2022 -0.2459 -0.3385
  145OSM   H15F16048   1.798   3.885   5.056  0.8033 -0.5960  0.5062
  145OSM   H15G16049   1.852   3.788   4.919 -1.7805  0.6849 -0.6142
  145OSM   C16F16050   1.923   4.005   4.925  0.1709 -0.8206  0.2291
  145OSM   H16F16051   2.017   3.990   4.867 -0.7443 -0.6723 -1.3243
  145OSM   H16G16052   1.950   4.085   4.997 -0.8590 -0.2726  0.0116
  145OSM   C17F16053   1.817   4.064   4.825 -0.0688  0.1989 -0.2022
  145OSM   H17F16054   1.728   4.109   4.874  0.2826  1.9170 -1.0661
  145OSM   H17G16055   1.789   3.982   4.756 -1.6430 -0.0998  0.7486
  145OSM   C18F16056   1.874   4.181   4.735 -0.5714  0.0793  0.1510
  145OSM   H18F16057   1.791   4.227   4.678  1.0483 -0.3048 -2.7141
  145OSM   H18G16058   1.945   4.128   4.668  0.1386  0.4844  0.5653
  145OSM   H18H16059   1.925   4.263   4.791 -0.4973  0.1266  0.0139
  146OSM      N16060   6.349   4.431   6.820 -0.5891 -0.4422  0.3326
  146OSM    C1516061   6.472   4.504   6.874 -0.7385 -0.0442  0.0737
  146OSM   H15A16062   6.452   4.552   6.969  1.2074  1.1630 -0.0750
  146OSM   H15B16063   6.500   4.595   6.824  2.6319 -0.2552  1.3413
  146OSM   H15C16064   6.563   4.445   6.880 -0.8627 -0.1019  2.3154
  146OSM    C1416065   6.233   4.529   6.829 -0.3317 -0.3636  0.1490
  146OSM   H14A16066   6.248   4.623   6.779 -2.6973  0.4882  0.8906
  146OSM   H14B16067   6.205   4.557   6.930  0.8467  1.1290  0.0955
  146OSM   H14C16068   6.148   4.487   6.777  0.0412  0.0763 -0.8368
  146OSM    C1316069   6.371   4.408   6.672 -0.1958 -0.7073  0.2843
  146OSM   H13A16070   6.382   4.504   6.625  2.6472  0.7269  3.4809
  146OSM   H13B16071   6.294   4.345   6.629 -0.4117  0.9472 -1.9219
  146OSM   H13C16072   6.469   4.364   6.657  0.2753  0.3544  0.1910
  146OSM    C1216073   6.318   4.300   6.894 -0.0715  0.1384  0.4247
  146OSM   H12A16074   6.220   4.263   6.869 -0.2394  1.7382 -1.5901
  146OSM   H12B16075   6.313   4.334   6.996  1.1887 -1.0241  0.9020
  146OSM    C1116076   6.416   4.187   6.864 -0.4247  0.8002 -0.0264
  146OSM   H11A16077   6.430   4.175   6.754  0.2635 -1.4713  0.2532
  146OSM   H11B16078   6.367   4.096   6.905 -1.7159  2.0981  1.4344
  146OSM      P16079   6.667   4.146   6.896 -0.3998 -0.2197 -0.2485
  146OSM    O1316080   6.777   4.228   6.938 -0.2190  0.4940  0.1618
  146OSM    O1416081   6.671   4.006   6.943 -0.5067 -0.6668  0.3898
  146OSM    O1116082   6.672   4.154   6.736  0.0495 -0.4477  0.6248
  146OSM    O1216083   6.533   4.209   6.939 -0.1997  0.4144 -0.0507
  146OSM    C1S16084   6.800   4.189   6.674  0.3555  0.3906  0.0083
  146OSM    H1S16085   6.880   4.121   6.708 -0.3771  0.0961  1.1682
  146OSM    H1T16086   6.825   4.292   6.708  0.0397  0.6957 -0.6632
  146OSM     NF16087   6.948   4.203   6.465  0.4054 -0.3966 -0.3529
  146OSM    HNF16088   6.976   4.285   6.416  0.8967 -1.4825 -2.0026
  146OSM    C2S16089   6.814   4.178   6.517 -0.5275 -0.7939 -0.2834
  146OSM    H2S16090   6.800   4.070   6.496  0.6851 -1.1608  0.6867
  146OSM    C3S16091   6.697   4.261   6.461  0.3355 -0.7732  0.0803
  146OSM    H3S16092   6.715   4.367   6.488  0.1919 -0.7135 -0.0567
  146OSM     O316093   6.569   4.234   6.508  0.1741  0.4221 -0.0741
  146OSM    HO316094   6.583   4.193   6.594 -1.2277  0.4452  0.1991
  146OSM    C4S16095   6.680   4.240   6.317  0.2060 -0.3388  0.3540
  146OSM    H4S16096   6.623   4.150   6.290  1.2819 -0.5268 -1.4141
  146OSM    C5S16097   6.727   4.316   6.221  0.0263  0.2056  0.7041
  146OSM    H5S16098   6.782   4.409   6.245  0.3933  1.1329 -3.0965
  146OSM    C6S16099   6.699   4.293   6.072 -0.5842 -0.3098 -0.0192
  146OSM    H6S16100   6.641   4.383   6.041  0.6428 -0.4637 -3.1020
  146OSM    H6T16101   6.645   4.198   6.049  2.0195 -1.7468 -0.6007
  146OSM    C7S16102   6.839   4.294   6.002 -0.2521 -0.0805 -0.2706
  146OSM    H7S16103   6.823   4.290   5.892  1.0210  0.5973 -0.5073
  146OSM    H7T16104   6.895   4.202   6.026  2.2977  1.3289 -0.4100
  146OSM    C8S16105   6.924   4.413   6.025 -0.4246 -0.8383 -0.2056
  146OSM    H8S16106   7.008   4.397   5.953  1.1581 -0.7533  1.5516
  146OSM    H8T16107   6.968   4.421   6.126  2.9603  0.7033 -1.6193
  146OSM    C9S16108   6.846   4.542   6.003 -0.2879  0.4544 -0.0078
  146OSM    H9S16109   6.765   4.553   6.079 -0.7194  0.5882 -0.4801
  146OSM    H9T16110   6.792   4.529   5.906 -1.4321  1.5087  0.4555
  146OSM   C10S16111   6.922   4.666   6.000 -0.3560 -0.6104 -0.7329
  146OSM   H10S16112   6.967   4.683   6.101 -1.0084  1.9204 -0.7948
  146OSM   H10T16113   6.854   4.753   5.987  1.6708  0.9105 -1.7902
  146OSM   C11S16114   7.034   4.669   5.894  0.2082 -0.2623  0.4357
  146OSM   H11S16115   7.111   4.596   5.927  0.8579  0.9220  1.6329
  146OSM   H11T16116   7.092   4.761   5.916  1.2157 -1.1346  1.5676
  146OSM   C12S16117   6.987   4.647   5.758 -0.0262 -0.3971 -0.2416
  146OSM   H12S16118   6.904   4.717   5.734 -0.6645 -1.3600 -0.9125
  146OSM   H12T16119   6.948   4.545   5.736 -2.0488  0.3579 -0.4089
  146OSM   C13S16120   7.092   4.700   5.651 -0.6282 -0.9202  0.1612
  146OSM   H13S16121   7.173   4.624   5.648 -0.5069 -0.7800 -0.0817
  146OSM   H13T16122   7.122   4.802   5.682  0.3646 -2.0190  3.1919
  146OSM   C14S16123   7.041   4.704   5.510  0.0771  0.3400  0.2890
  146OSM   H14S16124   6.960   4.780   5.512  0.8838  1.2521 -0.8826
  146OSM   H14T16125   6.993   4.605   5.494 -0.0818  0.3319  0.7943
  146OSM   C15S16126   7.147   4.717   5.406  0.1042 -0.0844 -0.2832
  146OSM   H15S16127   7.175   4.614   5.375 -0.0642 -0.6522  1.3143
  146OSM   H15T16128   7.236   4.776   5.436  0.3857 -1.4789  1.8380
  146OSM   C16S16129   7.076   4.787   5.290  0.1703 -0.4668  0.5188
  146OSM   H16S16130   7.016   4.875   5.320 -2.3516 -2.0618  0.4706
  146OSM   H16T16131   6.996   4.712   5.271 -0.3995 -0.6262  3.2357
  146OSM   C17S16132   7.155   4.793   5.164 -0.5364  0.8815  0.4946
  146OSM   H17S16133   7.195   4.693   5.140 -1.3474  0.7992 -0.6207
  146OSM   H17T16134   7.244   4.856   5.186 -0.6862  1.3644 -0.2271
  146OSM   C18S16135   7.077   4.855   5.042 -1.0667 -0.5473  0.4557
  146OSM   H18S16136   7.070   4.964   5.061 -3.0254 -0.4533 -0.4829
  146OSM   H18T16137   6.973   4.818   5.025 -1.7498  0.7714  1.6196
  146OSM   H18U16138   7.133   4.839   4.947 -1.1675 -0.7515  0.4278
  146OSM    C1F16139   7.052   4.123   6.494  0.8179  0.9990  0.7592
  146OSM     OF16140   7.037   4.020   6.559  0.1194  0.1910  0.1123
  146OSM    C2F16141   7.182   4.161   6.432 -0.9320 -0.5515  0.1690
  146OSM    H2F16142   7.259   4.150   6.512  0.5056  0.1795 -1.0676
  146OSM    H2G16143   7.186   4.268   6.401  2.7733 -1.1791 -2.0675
  146OSM    C3F16144   7.225   4.061   6.328  0.0120  0.2862  0.2210
  146OSM    H3F16145   7.204   3.956   6.354 -1.6174  0.2275 -1.1721
  146OSM    H3G16146   7.332   4.085   6.307 -0.3478  1.1245 -0.7842
  146OSM    C4F16147   7.151   4.086   6.189 -0.1849  0.2763  0.1029
  146OSM    H4F16148   7.177   4.188   6.155  0.0932  1.0283  2.3629
  146OSM    H4G16149   7.040   4.081   6.200 -0.1752  1.1709  0.7391
  146OSM    C5F16150   7.198   4.003   6.072 -0.7912 -0.0867 -0.0991
  146OSM    H5F16151   7.184   3.899   6.108 -1.9483  0.4534  1.1148
  146OSM    H5G16152   7.305   4.028   6.058 -1.2762  1.4499 -1.4547
  146OSM    C6F16153   7.124   4.026   5.943 -0.0735 -0.4950  0.0587
  146OSM    H6F16154   7.136   4.134   5.917 -0.5949 -0.4986 -0.2103
  146OSM    H6G16155   7.014   4.021   5.956 -0.2382 -0.5730 -1.2700
  146OSM    C7F16156   7.173   3.941   5.821 -0.3873 -0.3456  0.8896
  146OSM    H7F16157   7.145   3.834   5.836 -2.4245  0.0076 -0.0436
  146OSM    H7G16158   7.280   3.946   5.792 -1.0224  0.5384 -1.5400
  146OSM    C8F16159   7.090   3.976   5.702 -0.3874 -0.1400 -0.6529
  146OSM    H8F16160   6.984   3.958   5.731 -0.3323  0.8429  0.2058
  146OSM    H8G16161   7.101   3.908   5.615 -2.5061  1.5536 -2.3542
  146OSM    C9F16162   7.110   4.120   5.647 -0.4022  0.2727  0.3110
  146OSM    H9F16163   7.047   4.199   5.689 -1.1588 -0.0760 -0.1451
  146OSM   C10F16164   7.198   4.153   5.550 -0.5591  0.8319  0.6211
  146OSM   H10F16165   7.200   4.258   5.518  0.3456  0.2941 -1.2528
  146OSM   C11F16166   7.297   4.070   5.472  0.0952 -0.2779 -0.1355
  146OSM   H11F16167   7.331   3.977   5.524 -0.9357 -0.7775 -0.3292
  146OSM   H11G16168   7.384   4.136   5.450  0.2070 -0.3353  0.1331
  146OSM   C12F16169   7.239   4.027   5.334  0.1116  0.0229 -0.6129
  146OSM   H12F16170   7.182   3.934   5.355 -0.2124  0.5899  1.2280
  146OSM   H12G16171   7.324   4.014   5.264  0.8272  1.3852 -0.0426
  146OSM   C13F16172   7.166   4.128   5.244  0.2551  0.6476  0.1228
  146OSM   H13F16173   7.086   4.171   5.307 -0.3090 -0.3703  0.1315
  146OSM   H13G16174   7.123   4.079   5.154  0.3731 -2.6228  1.6617
  146OSM   C14F16175   7.265   4.238   5.194 -0.0272 -0.6913 -0.2977
  146OSM   H14F16176   7.202   4.322   5.158 -0.0560 -0.1634  0.9269
  146OSM   H14G16177   7.317   4.278   5.284 -3.3364 -0.0556  1.5036
  146OSM   C15F16178   7.367   4.200   5.088  0.0220  0.6410 -0.0617
  146OSM   H15F16179   7.308   4.158   5.004 -0.6920 -3.1475  2.1025
  146OSM   H15G16180   7.428   4.116   5.127 -1.6120 -0.0836  1.0274
  146OSM   C16F16181   7.453   4.320   5.048 -0.3546 -0.1777  0.7393
  146OSM   H16F16182   7.542   4.286   4.990 -1.2192 -2.2564  0.5186
  146OSM   H16G16183   7.497   4.375   5.134  0.0348  1.9909 -0.7659
  146OSM   C17F16184   7.379   4.416   4.945  0.0734  0.1713 -0.4682
  146OSM   H17F16185   7.285   4.450   4.993 -0.4320 -0.0973 -1.2542
  146OSM   H17G16186   7.365   4.349   4.858 -0.0793 -0.4026 -0.0045
  146OSM   C18F16187   7.465   4.529   4.900 -0.1800 -0.4285  0.6299
  146OSM   H18F16188   7.400   4.599   4.844 -0.4055  0.3479  1.8213
  146OSM   H18G16189   7.542   4.495   4.827 -0.4681  0.5059 -0.1248
  146OSM   H18H16190   7.521   4.589   4.975  1.8647 -0.7499 -0.5500
  147OSM      N16191   0.774   1.900   2.564 -0.1120 -0.3331 -0.5495
  147OSM    C1516192   0.866   2.003   2.499 -0.7611 -0.0130 -0.0861
  147OSM   H15A16193   0.841   2.026   2.397  1.6682 -0.1837 -0.7772
  147OSM   H15B16194   0.967   1.965   2.497 -0.6111  0.4130 -1.2528
  147OSM   H15C16195   0.854   2.092   2.560  1.6623 -0.1795  0.7412
  147OSM    C1416196   0.634   1.962   2.578  0.4576 -0.0006  0.2924
  147OSM   H14A16197   0.585   1.979   2.483 -0.9284  0.2138  1.0196
  147OSM   H14B16198   0.642   2.064   2.613 -1.0690  1.1613 -2.4075
  147OSM   H14C16199   0.568   1.902   2.639 -2.1537  0.6693 -1.6896
  147OSM    C1316200   0.753   1.788   2.467 -0.6822  0.2954  0.8331
  147OSM   H13A16201   0.715   1.822   2.372 -1.3246  1.1348  1.3814
  147OSM   H13B16202   0.682   1.725   2.519  0.0854 -1.5492 -0.2507
  147OSM   H13C16203   0.844   1.731   2.453 -0.6743  0.6599 -0.7344
  147OSM    C1216204   0.823   1.862   2.704  0.0703  0.1491 -0.1420
  147OSM   H12A16205   0.802   1.943   2.773  0.1955  2.0262 -2.1931
  147OSM   H12B16206   0.930   1.859   2.700  0.0168 -0.4001 -2.5300
  147OSM    C1116207   0.767   1.743   2.773  0.4410  0.1485  0.3320
  147OSM   H11A16208   0.801   1.729   2.877 -0.3825 -0.4298  0.5266
  147OSM   H11B16209   0.814   1.654   2.726 -0.6866 -1.2761  1.8224
  147OSM      P16210   0.531   1.629   2.721  0.1750  0.1845  0.1590
  147OSM    O1316211   0.390   1.671   2.709 -0.0028 -0.2186  0.3301
  147OSM    O1416212   0.601   1.567   2.605  0.1825 -0.2160  0.2848
  147OSM    O1116213   0.535   1.532   2.846  1.1629  0.0100  0.2311
  147OSM    O1216214   0.620   1.746   2.770 -0.1613 -0.0125 -0.1712
  147OSM    C1S16215   0.521   1.584   2.978 -0.1059  0.8832  0.5110
  147OSM    H1S16216   0.416   1.584   3.012 -0.4965 -2.3351 -0.4048
  147OSM    H1T16217   0.555   1.690   2.983 -0.4336  1.0504 -0.5189
  147OSM     NF16218   0.585   1.553   3.215 -0.1814 -0.1123  0.7083
  147OSM    HNF16219   0.666   1.601   3.249  0.1469  0.0578 -0.2660
  147OSM    C2S16220   0.595   1.498   3.078  0.2018 -0.1892 -0.6167
  147OSM    H2S16221   0.553   1.395   3.084 -0.6782  0.2415  1.9871
  147OSM    C3S16222   0.741   1.466   3.036 -0.3578 -0.2468 -0.3791
  147OSM    H3S16223   0.790   1.564   3.019  0.0749 -0.4400 -0.2605
  147OSM     O316224   0.757   1.402   2.915 -0.1293 -0.1860  0.5598
  147OSM    HO316225   0.667   1.393   2.882  0.9391 -3.3939 -2.0448
  147OSM    C4S16226   0.804   1.391   3.146  0.0377  0.3169  0.0466
  147OSM    H4S16227   0.861   1.459   3.211 -3.0985  2.4367  0.8411
  147OSM    C5S16228   0.798   1.261   3.167  0.1065  0.5814  0.6653
  147OSM    H5S16229   0.746   1.197   3.095 -0.4084 -0.1975  1.6950
  147OSM    C6S16230   0.869   1.191   3.281  0.2667 -0.0497 -0.2882
  147OSM    H6S16231   0.973   1.228   3.296  0.7724 -2.3124  2.5974
  147OSM    H6T16232   0.882   1.083   3.260  1.6166  0.0953 -0.3122
  147OSM    C7S16233   0.787   1.214   3.411 -0.5237 -0.3202 -0.4205
  147OSM    H7S16234   0.698   1.149   3.393 -0.9171 -0.2852  1.2272
  147OSM    H7T16235   0.751   1.317   3.427 -1.2043 -0.7894  1.3323
  147OSM    C8S16236   0.861   1.164   3.540 -0.1437 -0.1786 -0.0577
  147OSM    H8S16237   0.963   1.204   3.522  0.2541 -1.8715 -2.0071
  147OSM    H8T16238   0.871   1.053   3.540 -0.9556 -0.2600 -0.7564
  147OSM    C9S16239   0.796   1.192   3.677  0.3586  0.0021  0.8296
  147OSM    H9S16240   0.705   1.132   3.696 -0.3250  0.8628  0.3490
  147OSM    H9T16241   0.776   1.301   3.680  4.7052  1.0531 -0.2733
  147OSM   C10S16242   0.889   1.153   3.792  0.2343 -0.0772 -0.0666
  147OSM   H10S16243   0.965   1.231   3.812 -1.6882  1.4134  2.0138
  147OSM   H10T16244   0.948   1.059   3.782  0.6649 -0.1706  2.5112
  147OSM   C11S16245   0.810   1.145   3.931  0.2688  0.2187 -1.0533
  147OSM   H11S16246   0.754   1.049   3.928 -0.3005  0.1894  3.7641
  147OSM   H11T16247   0.739   1.231   3.938 -2.1648 -1.7606  0.3103
  147OSM   C12S16248   0.894   1.140   4.059  0.0045 -0.3343  0.2364
  147OSM   H12S16249   0.969   1.222   4.046 -0.0619 -0.7454 -4.6980
  147OSM   H12T16250   0.959   1.050   4.054  0.9902  0.3534  0.3079
  147OSM   C13S16251   0.817   1.159   4.188 -0.0399 -0.4243  0.6582
  147OSM   H13S16252   0.735   1.085   4.178 -0.1281 -0.5412  1.9915
  147OSM   H13T16253   0.775   1.262   4.187 -0.0107 -0.4157  0.3761
  147OSM   C14S16254   0.907   1.128   4.310  0.6287  0.4102 -0.1620
  147OSM   H14S16255   0.988   1.204   4.314  0.1570  0.8809  2.1993
  147OSM   H14T16256   0.958   1.030   4.298  0.4120  0.2727  0.0397
  147OSM   C15S16257   0.833   1.145   4.452 -0.7122 -0.1713 -0.6975
  147OSM   H15S16258   0.752   1.076   4.483 -1.3226  1.6754  2.2092
  147OSM   H15T16259   0.785   1.245   4.447  0.7621  0.6312  0.3313
  147OSM   C16S16260   0.939   1.154   4.565  0.4789  0.2105  0.2648
  147OSM   H16S16261   1.004   1.238   4.532  1.2836 -0.9085 -1.1173
  147OSM   H16T16262   1.000   1.061   4.572 -1.4364 -1.0123  1.7360
  147OSM   C17S16263   0.872   1.195   4.698  0.1812  0.9085  0.1390
  147OSM   H17S16264   0.852   1.303   4.685  0.5902  1.1514  1.3612
  147OSM   H17T16265   0.951   1.203   4.777 -0.3361  0.2631  0.7336
  147OSM   C18S16266   0.752   1.120   4.748 -0.1172  0.2231 -0.3412
  147OSM   H18S16267   0.780   1.012   4.742  3.2192  0.8873  1.0213
  147OSM   H18T16268   0.659   1.137   4.689  0.1627  2.0923 -0.2817
  147OSM   H18U16269   0.730   1.125   4.856 -1.0749  1.1965 -0.5710
  147OSM    C1F16270   0.471   1.546   3.284 -0.3418 -0.0526  0.4593
  147OSM     OF16271   0.379   1.472   3.242 -0.4212  0.5543  0.0134
  147OSM    C2F16272   0.462   1.637   3.404  0.5455 -0.2974  0.0394
  147OSM    H2F16273   0.371   1.605   3.459  0.9074  0.2068  0.9602
  147OSM    H2G16274   0.446   1.740   3.365  1.4935 -0.1627 -0.0180
  147OSM    C3F16275   0.592   1.636   3.476  0.6047  0.5732  0.1567
  147OSM    H3F16276   0.669   1.702   3.429  0.9259 -0.4033 -0.7214
  147OSM    H3G16277   0.631   1.533   3.482 -2.1773 -0.7124 -1.6094
  147OSM    C4F16278   0.582   1.693   3.621  0.5521  0.1857  0.0308
  147OSM    H4F16279   0.586   1.804   3.614  0.9268  0.1616 -0.1410
  147OSM    H4G16280   0.670   1.661   3.680 -1.3319 -1.7977  1.9445
  147OSM    C5F16281   0.464   1.644   3.703  0.5692  0.2264 -0.0742
  147OSM    H5F16282   0.441   1.537   3.681 -2.1838  0.9092 -0.8288
  147OSM    H5G16283   0.368   1.690   3.674 -0.2637 -1.8515 -0.8353
  147OSM    C6F16284   0.467   1.653   3.856  0.0994 -0.4439  0.9797
  147OSM    H6F16285   0.473   1.761   3.882 -0.1460  0.1103 -1.1028
  147OSM    H6G16286   0.563   1.604   3.886  0.8937  0.1339 -0.5121
  147OSM    C7F16287   0.344   1.595   3.922  0.4549 -0.1439  0.3678
  147OSM    H7F16288   0.333   1.493   3.880 -1.5613  0.1748  0.0100
  147OSM    H7G16289   0.258   1.660   3.894  0.9651  0.1819 -0.4594
  147OSM    C8F16290   0.378   1.583   4.066  0.3377  0.5854 -0.6436
  147OSM    H8F16291   0.406   1.681   4.109  0.0090  0.4990 -0.2234
  147OSM    H8G16292   0.462   1.510   4.078  0.2768  0.7473  0.9861
  147OSM    C9F16293   0.263   1.515   4.137 -0.2776 -0.1656 -0.4236
  147OSM    H9F16294   0.210   1.441   4.075  1.9466 -0.2808 -2.3149
  147OSM   C10F16295   0.226   1.538   4.265  0.3391  0.1451  0.5130
  147OSM   H10F16296   0.131   1.492   4.296 -0.2445  1.5264  0.8562
  147OSM   C11F16297   0.285   1.643   4.349  0.4642 -0.5749 -0.2784
  147OSM   H11F16298   0.208   1.698   4.407  1.7441  0.6919  0.2836
  147OSM   H11G16299   0.327   1.726   4.290 -0.7411  0.7409  0.6447
  147OSM   C12F16300   0.400   1.586   4.441  0.7060 -0.7647 -0.4069
  147OSM   H12F16301   0.499   1.583   4.393  0.4727 -0.8217 -0.8834
  147OSM   H12G16302   0.378   1.482   4.472  1.5351 -1.3030 -1.5933
  147OSM   C13F16303   0.432   1.668   4.573 -0.3400  0.1275  0.4774
  147OSM   H13F16304   0.338   1.700   4.621 -0.6513  0.6810 -0.4810
  147OSM   H13G16305   0.494   1.753   4.537 -1.7767  0.2919 -1.7685
  147OSM   C14F16306   0.528   1.597   4.666  0.3072  0.3989  0.3838
  147OSM   H14F16307   0.611   1.549   4.609  0.0371 -0.7929  0.9565
  147OSM   H14G16308   0.484   1.516   4.728  0.8515 -1.4925 -1.5786
  147OSM   C15F16309   0.591   1.698   4.756 -0.1781  0.6898  0.2539
  147OSM   H15F16310   0.516   1.739   4.826 -1.6362 -0.8777 -0.3030
  147OSM   H15G16311   0.631   1.781   4.694 -0.8778  1.5435  0.9302
  147OSM   C16F16312   0.696   1.641   4.848 -0.1748  0.2580 -0.1766
  147OSM   H16F16313   0.725   1.721   4.920 -1.9368  0.5904  0.2053
  147OSM   H16G16314   0.783   1.617   4.782 -0.4586 -1.2468 -0.0376
  147OSM   C17F16315   0.649   1.528   4.938 -0.0439  1.1262 -0.0628
  147OSM   H17F16316   0.632   1.440   4.872 -1.4260  2.2038 -1.2200
  147OSM   H17G16317   0.550   1.554   4.982  0.9191  1.1301  2.2702
  147OSM   C18F16318   0.744   1.501   5.057 -0.8444  0.1467  1.1897
  147OSM   H18F16319   0.744   1.583   5.132 -1.5265 -0.6394  2.0633
  147OSM   H18G16320   0.850   1.484   5.030 -0.4239  1.5872  1.7913
  147OSM   H18H16321   0.711   1.411   5.112 -1.0240 -1.4803 -1.4349
  148OSM      N16322   0.532   1.121   2.574 -0.1405  0.0585 -0.2305
  148OSM    C1516323   0.591   1.055   2.453  0.3182 -0.0712  0.2074
  148OSM   H15A16324   0.640   1.118   2.380 -1.2373  0.3905 -0.4720
  148OSM   H15B16325   0.514   1.009   2.393  1.7180 -0.1741 -1.5865
  148OSM   H15C16326   0.664   0.982   2.485 -0.0463  0.7217  3.1664
  148OSM    C1416327   0.466   1.012   2.648 -0.0833  0.0431 -0.3404
  148OSM   H14A16328   0.523   0.925   2.674 -2.8376 -1.7796  0.0733
  148OSM   H14B16329   0.390   0.972   2.583 -0.1867  0.3937 -0.4404
  148OSM   H14C16330   0.430   1.034   2.748  1.3768 -3.6313  1.1430
  148OSM    C1316331   0.657   1.172   2.661 -0.3278  0.0850 -0.8318
  148OSM   H13A16332   0.726   1.091   2.680 -0.4913 -0.0657 -0.8768
  148OSM   H13B16333   0.624   1.223   2.751 -1.8625  1.0706 -1.9059
  148OSM   H13C16334   0.705   1.247   2.601  1.9559 -1.9871 -1.7549
  148OSM    C1216335   0.441   1.234   2.533  0.0592  0.1789 -0.2279
  148OSM   H12A16336   0.501   1.310   2.485  1.3298 -1.0860 -0.7032
  148OSM   H12B16337   0.401   1.281   2.622  0.0213 -0.9208  0.3468
  148OSM    C1116338   0.324   1.195   2.445  0.6973 -0.3181  0.4099
  148OSM   H11A16339   0.348   1.128   2.360  0.4018 -1.4111  1.1627
  148OSM   H11B16340   0.289   1.288   2.395 -1.8761 -0.0417  2.4946
  148OSM      P16341   0.131   1.237   2.618 -0.3540 -0.0120 -0.2378
  148OSM    O1316342   0.076   1.347   2.536 -0.5695 -0.4121  0.0777
  148OSM    O1416343   0.028   1.155   2.688 -0.3595  1.0003  0.5008
  148OSM    O1116344   0.237   1.287   2.723 -0.2554  0.1698 -0.2372
  148OSM    O1216345   0.218   1.143   2.528 -0.0032 -0.0280  0.0556
  148OSM    C1S16346   0.213   1.389   2.830 -0.6259 -0.7653  0.2887
  148OSM    H1S16347   0.132   1.461   2.806 -0.0223  1.0549  3.1829
  148OSM    H1T16348   0.302   1.456   2.837 -0.3836 -1.0814  0.2756
  148OSM     NF16349   0.142   1.408   3.072 -0.5742  0.3521 -0.1377
  148OSM    HNF16350   0.208   1.428   3.144  0.5581  0.7791 -1.2708
  148OSM    C2S16351   0.190   1.321   2.972  0.7198 -0.4790 -0.0949
  148OSM    H2S16352   0.111   1.244   2.961 -0.1342  0.1870  1.2480
  148OSM    C3S16353   0.321   1.239   3.002  0.3988 -0.3230  0.6982
  148OSM    H3S16354   0.412   1.303   2.999  0.5816 -0.4894  2.3051
  148OSM     O316355   0.349   1.142   2.903 -0.4735  0.2581  0.2760
  148OSM    HO316356   0.280   1.161   2.839 -0.0575 -1.2565 -0.6633
  148OSM    C4S16357   0.312   1.162   3.131  0.3243  0.1615 -0.7517
  148OSM    H4S16358   0.219   1.107   3.151  0.0083  1.5288  1.9445
  148OSM    C5S16359   0.402   1.178   3.229 -0.3392 -0.8792 -0.4510
  148OSM    H5S16360   0.481   1.254   3.221 -1.7037  0.5711 -0.4800
  148OSM    C6S16361   0.364   1.123   3.365 -0.1836 -0.6145  0.1703
  148OSM    H6S16362   0.444   1.057   3.406  0.3112  0.1384  0.4323
  148OSM    H6T16363   0.284   1.046   3.373  0.5079 -1.5661 -1.6466
  148OSM    C7S16364   0.336   1.223   3.477 -0.2125 -0.0207 -0.3476
  148OSM    H7S16365   0.233   1.258   3.457 -2.1841 -4.0928  1.5274
  148OSM    H7T16366   0.419   1.296   3.491  0.0867 -0.1962 -1.1382
  148OSM    C8S16367   0.330   1.146   3.611  0.1771 -0.4255  0.2643
  148OSM    H8S16368   0.428   1.108   3.644  1.1043  1.0629 -0.6399
  148OSM    H8T16369   0.263   1.058   3.601 -0.8789  0.4089 -0.3447
  148OSM    C9S16370   0.260   1.237   3.711  0.0503  0.6047  0.3121
  148OSM    H9S16371   0.153   1.254   3.686  0.2646  0.9998 -0.3506
  148OSM    H9T16372   0.299   1.340   3.694 -0.5136  0.5407 -1.6002
  148OSM   C10S16373   0.284   1.192   3.854 -0.2339 -0.0025  0.1889
  148OSM   H10S16374   0.253   1.086   3.870  0.6818 -0.4779 -0.9812
  148OSM   H10T16375   0.218   1.255   3.917  0.3586  1.4717 -0.6020
  148OSM   C11S16376   0.427   1.189   3.909 -0.0753 -0.3055 -0.1807
  148OSM   H11S16377   0.474   1.287   3.886  1.7329 -0.8457  1.0079
  148OSM   H11T16378   0.495   1.112   3.865  2.7296  1.1610  1.3070
  148OSM   C12S16379   0.444   1.172   4.058 -0.8713  0.2502  0.4478
  148OSM   H12S16380   0.372   1.244   4.102  0.0279  1.7373 -0.4215
  148OSM   H12T16381   0.547   1.195   4.091 -0.8173  2.0113 -0.7921
  148OSM   C13S16382   0.402   1.032   4.104  0.8115  0.2280 -0.4803
  148OSM   H13S16383   0.444   0.947   4.046  0.5962 -0.1598 -0.0658
  148OSM   H13T16384   0.292   1.024   4.091  1.1130 -1.5141 -2.6674
  148OSM   C14S16385   0.444   0.999   4.242  0.2111  0.0689 -0.9882
  148OSM   H14S16386   0.546   0.963   4.217 -0.0678 -1.4837  0.0005
  148OSM   H14T16387   0.381   0.920   4.289 -1.7300  2.9714  1.6705
  148OSM   C15S16388   0.454   1.114   4.341  0.2582 -0.0640 -0.2280
  148OSM   H15S16389   0.513   1.200   4.302 -1.8950  0.7903 -1.8811
  148OSM   H15T16390   0.505   1.066   4.427  3.2186  0.3590 -1.6390
  148OSM   C16S16391   0.311   1.160   4.397  0.5071  0.0335 -0.1924
  148OSM   H16S16392   0.225   1.090   4.387 -2.6286  3.6758 -0.9409
  148OSM   H16T16393   0.282   1.250   4.339 -0.0178  0.5859  0.9097
  148OSM   C17S16394   0.312   1.203   4.550  0.0867 -0.4991  0.8262
  148OSM   H17S16395   0.217   1.259   4.562  0.9497  1.9608 -2.4639
  148OSM   H17T16396   0.394   1.277   4.563  2.1590 -1.9479 -2.6021
  148OSM   C18S16397   0.313   1.080   4.649 -0.1802  0.0052  0.1142
  148OSM   H18S16398   0.414   1.034   4.651 -0.6390 -1.3576 -2.7902
  148OSM   H18T16399   0.228   1.012   4.627 -1.8106  1.5151  1.4492
  148OSM   H18U16400   0.296   1.119   4.751 -1.7157  0.6148 -0.3392
  148OSM    C1F16401   0.026   1.466   3.073 -0.6173 -0.3030  0.2338
  148OSM     OF16402  -0.057   1.444   2.983 -0.5210 -0.1338 -0.8489
  148OSM    C2F16403  -0.006   1.560   3.188 -0.0217 -0.5933 -0.8735
  148OSM    H2F16404   0.008   1.666   3.156 -0.9341  0.1068  0.9227
  148OSM    H2G16405   0.062   1.537   3.273  1.3938 -1.4306 -2.1856
  148OSM    C3F16406  -0.152   1.564   3.234  0.6509  0.0842  0.6125
  148OSM    H3F16407  -0.185   1.458   3.230  0.1179  0.2722 -0.1844
  148OSM    H3G16408  -0.220   1.619   3.166 -2.4960 -0.8776  2.7496
  148OSM    C4F16409  -0.169   1.623   3.376 -0.0866  0.0691 -0.0473
  148OSM    H4F16410  -0.275   1.630   3.406 -0.2680  2.8032 -0.9870
  148OSM    H4G16411  -0.129   1.727   3.377  0.1802  0.0177 -1.8553
  148OSM    C5F16412  -0.090   1.542   3.483 -0.4240  0.3965 -1.0254
  148OSM    H5F16413   0.018   1.525   3.465 -0.8126 -0.4756 -2.7740
  148OSM    H5G16414  -0.140   1.443   3.478  2.4628 -1.1887 -0.3999
  148OSM    C6F16415  -0.103   1.581   3.630 -0.2558 -0.2104 -0.1713
  148OSM    H6F16416  -0.206   1.616   3.648 -0.0850  3.0230 -3.9944
  148OSM    H6G16417  -0.039   1.672   3.639  1.2778 -1.3562  1.2994
  148OSM    C7F16418  -0.060   1.467   3.732  0.4158 -0.0348 -0.1539
  148OSM    H7F16419   0.040   1.426   3.706 -0.4325 -2.1822 -0.2559
  148OSM    H7G16420  -0.134   1.385   3.721 -0.1706  0.6209 -1.3167
  148OSM    C8F16421  -0.052   1.515   3.879 -0.6317 -0.4800  0.3200
  148OSM    H8F16422   0.027   1.592   3.879 -0.3550 -0.7588  1.0176
  148OSM    H8G16423  -0.028   1.440   3.957  1.3364 -0.3022 -0.0650
  148OSM    C9F16424  -0.175   1.593   3.919  0.0800 -0.2575  0.0365
  148OSM    H9F16425  -0.171   1.703   3.911  0.3518 -0.1504  1.4357
  148OSM   C10F16426  -0.280   1.536   3.976 -0.0276 -0.6703  0.6380
  148OSM   H10F16427  -0.363   1.604   4.001 -0.4697 -0.8614 -0.2762
  148OSM   C11F16428  -0.307   1.394   4.013  0.0751  0.0255  0.2536
  148OSM   H11F16429  -0.215   1.333   3.999  0.0827  0.6037 -2.8375
  148OSM   H11G16430  -0.387   1.356   3.946  0.6560 -1.9421  0.5834
  148OSM   C12F16431  -0.356   1.384   4.161  0.0325  0.0910 -0.0084
  148OSM   H12F16432  -0.376   1.277   4.182 -1.2642  0.7496  2.5165
  148OSM   H12G16433  -0.455   1.431   4.179 -0.0370 -0.5689  1.4971
  148OSM   C13F16434  -0.253   1.439   4.270  0.5661 -0.1564 -0.0782
  148OSM   H13F16435  -0.267   1.549   4.270  0.4479 -0.1148 -2.4525
  148OSM   H13G16436  -0.145   1.427   4.246  0.5811 -1.1754  0.4409
  148OSM   C14F16437  -0.265   1.367   4.405 -0.0412  1.3531  0.4466
  148OSM   H14F16438  -0.245   1.259   4.388  0.1297  1.2677  1.1492
  148OSM   H14G16439  -0.365   1.377   4.453  1.5773 -1.0879  4.8961
  148OSM   C15F16440  -0.171   1.430   4.508  0.0677  0.3624 -0.0366
  148OSM   H15F16441  -0.235   1.501   4.564 -1.3860  0.7491 -2.0668
  148OSM   H15G16442  -0.093   1.500   4.469  1.1749 -0.3287  0.8737
  148OSM   C16F16443  -0.105   1.324   4.600 -0.6510 -0.8394  0.7692
  148OSM   H16F16444  -0.032   1.373   4.668  0.9334 -2.0061 -0.0440
  148OSM   H16G16445  -0.034   1.264   4.540  1.4501  1.2972  0.9498
  148OSM   C17F16446  -0.208   1.255   4.680  0.2414  0.0774  0.0588
  148OSM   H17F16447  -0.253   1.170   4.624  1.2578  1.0151 -2.2716
  148OSM   H17G16448  -0.292   1.325   4.701  2.3154  2.5266  0.6519
  148OSM   C18F16449  -0.165   1.198   4.811 -0.0298 -0.1670  0.3455
  148OSM   H18F16450  -0.064   1.153   4.815  0.3914  0.4507 -2.1296
  148OSM   H18G16451  -0.240   1.118   4.828 -0.8568  0.5748  0.3003
  148OSM   H18H16452  -0.167   1.272   4.895  0.4675  1.2699 -0.8591
  149OSM      N16453   0.851   5.940   2.023 -0.4234  0.0914  0.1606
  149OSM    C1516454   0.887   5.793   1.986  0.2785  0.0764  0.2494
  149OSM   H15A16455   0.985   5.771   2.025  1.8461  3.5370 -1.3027
  149OSM   H15B16456   0.902   5.775   1.881 -0.4454 -0.5354  0.2392
  149OSM   H15C16457   0.806   5.734   2.027 -1.4092  2.6368  0.8711
  149OSM    C1416458   0.934   6.030   1.940  0.8558  0.2505 -0.1325
  149OSM   H14A16459   0.931   6.009   1.834 -0.7578  1.0177 -0.2819
  149OSM   H14B16460   1.034   6.041   1.977  0.8174 -0.5552  0.2180
  149OSM   H14C16461   0.892   6.130   1.948 -2.3277 -0.7233 -2.5339
  149OSM    C1316462   0.714   5.960   1.972 -0.2175 -0.1854  0.2628
  149OSM   H13A16463   0.690   6.064   1.993  0.0836  0.0225 -0.3732
  149OSM   H13B16464   0.646   5.887   2.012 -1.2744  0.1314 -0.8787
  149OSM   H13C16465   0.709   5.946   1.865  3.1348  0.5371 -0.1149
  149OSM    C1216466   0.862   5.971   2.170 -0.7341  0.8703  0.3877
  149OSM   H12A16467   0.772   5.935   2.217  0.8760 -2.1504  1.4459
  149OSM   H12B16468   0.858   6.077   2.186  0.6373  1.2229 -1.2893
  149OSM    C1116469   0.976   5.913   2.258 -0.5306 -0.8588 -0.4045
  149OSM   H11A16470   0.968   5.804   2.276  0.8429 -0.6359  2.0357
  149OSM   H11B16471   0.960   5.966   2.354 -0.8805 -0.2309 -0.8007
  149OSM      P16472   1.188   6.060   2.244 -0.1560  0.3273  0.3086
  149OSM    O1316473   1.332   6.057   2.202  0.2618  0.6189 -0.0559
  149OSM    O1416474   1.107   6.176   2.195 -1.0815  0.2647 -0.6294
  149OSM    O1116475   1.182   6.059   2.403 -0.3069 -0.2522 -0.1071
  149OSM    O1216476   1.110   5.927   2.214  0.0693 -0.4245 -0.0759
  149OSM    C1S16477   1.223   5.931   2.466  0.4538 -0.1492 -0.0863
  149OSM    H1S16478   1.331   5.925   2.440  0.6699  0.0912  0.7221
  149OSM    H1T16479   1.157   5.850   2.428  0.4109  0.1327 -0.6272
  149OSM     NF16480   1.223   5.790   2.669 -0.6194  0.3551  0.0853
  149OSM    HNF16481   1.144   5.738   2.699  0.6829 -0.1129  3.1791
  149OSM    C2S16482   1.203   5.923   2.615  1.1875 -0.0817 -0.1467
  149OSM    H2S16483   1.277   5.997   2.651  0.2947  0.6766  0.1832
  149OSM    C3S16484   1.069   5.988   2.664 -0.4416  0.5561  0.6360
  149OSM    H3S16485   0.992   5.918   2.625  2.0095 -2.0918  0.1110
  149OSM     O316486   1.045   6.124   2.619  0.3242  0.1740 -0.6609
  149OSM    HO316487   1.109   6.145   2.551 -0.9826  0.4902 -1.8401
  149OSM    C4S16488   1.067   6.000   2.815  0.2130 -0.9783 -0.3438
  149OSM    H4S16489   1.138   6.059   2.875 -1.6352 -1.7175  2.7948
  149OSM    C5S16490   0.986   5.919   2.887 -0.1552 -0.1206  0.6441
  149OSM    H5S16491   0.926   5.850   2.826  0.9798 -1.3011  0.8343
  149OSM    C6S16492   0.981   5.907   3.038 -0.2743  0.1684  0.6387
  149OSM    H6S16493   0.984   5.802   3.076 -0.0987 -0.5168 -1.1774
  149OSM    H6T16494   0.882   5.953   3.054 -0.0594  0.9432 -0.2081
  149OSM    C7S16495   1.096   5.982   3.104 -0.5166 -0.0368  0.0004
  149OSM    H7S16496   1.095   6.090   3.076  0.3321 -0.3260 -1.1865
  149OSM    H7T16497   1.187   5.931   3.067 -0.0810  0.5837  0.2057
  149OSM    C8S16498   1.108   5.968   3.261  0.0615 -0.3607  0.4640
  149OSM    H8S16499   1.189   6.037   3.294  0.0395  0.9952 -2.0913
  149OSM    H8T16500   1.147   5.867   3.285  0.3254 -0.0016  1.6023
  149OSM    C9S16501   0.988   5.966   3.358  0.5813 -0.8148  1.2313
  149OSM    H9S16502   0.906   5.906   3.313  0.4114 -0.4129  1.0091
  149OSM    H9T16503   0.958   6.072   3.358  1.6510 -0.4847  0.2870
  149OSM   C10S16504   1.026   5.909   3.497 -0.3289  0.0295  0.8070
  149OSM   H10S16505   1.113   5.961   3.541 -0.8258 -0.3916  2.3600
  149OSM   H10T16506   1.058   5.804   3.477  1.2017  0.6638 -0.2561
  149OSM   C11S16507   0.920   5.925   3.603  0.2210  0.1817 -0.7968
  149OSM   H11S16508   0.822   5.873   3.594  0.2595  0.2308 -1.5263
  149OSM   H11T16509   0.906   6.035   3.596  0.5021  0.3091  0.4603
  149OSM   C12S16510   0.977   5.897   3.744  0.8146 -0.0513 -0.1490
  149OSM   H12S16511   1.068   5.958   3.764  1.5207 -0.8408 -0.8950
  149OSM   H12T16512   1.007   5.791   3.754  0.9332 -0.1246 -1.1697
  149OSM   C13S16513   0.874   5.927   3.853 -0.0805  0.1841 -0.6182
  149OSM   H13S16514   0.796   5.849   3.846 -0.4854  0.5012  0.1319
  149OSM   H13T16515   0.826   6.024   3.826  0.7439  1.5175  2.2891
  149OSM   C14S16516   0.922   5.920   4.000 -0.3439 -0.0846 -0.5630
  149OSM   H14S16517   0.981   6.009   4.029  0.4276 -0.8994  0.4576
  149OSM   H14T16518   0.982   5.829   4.022  0.0051  0.5176  1.0959
  149OSM   C15S16519   0.796   5.889   4.087  0.1661 -0.0826  0.3877
  149OSM   H15S16520   0.717   5.828   4.038 -1.1207  2.1894 -0.5231
  149OSM   H15T16521   0.740   5.985   4.093  1.9253  1.0707 -0.5594
  149OSM   C16S16522   0.810   5.831   4.222  0.0826 -0.2504 -0.0140
  149OSM   H16S16523   0.840   5.731   4.185  0.4682  0.8162 -2.8498
  149OSM   H16T16524   0.715   5.830   4.280 -0.3661 -0.6092 -0.7359
  149OSM   C17S16525   0.918   5.893   4.309  0.1975 -0.1704 -0.1988
  149OSM   H17S16526   0.877   5.995   4.323 -0.0627 -0.3169  0.1241
  149OSM   H17T16527   1.014   5.903   4.255  0.6238 -1.8494  0.1908
  149OSM   C18S16528   0.958   5.832   4.440  0.8889 -0.0753 -0.4116
  149OSM   H18S16529   0.962   5.721   4.442 -0.1895 -0.1637 -1.8366
  149OSM   H18T16530   0.873   5.853   4.508  1.6822  3.2501 -0.3008
  149OSM   H18U16531   1.048   5.877   4.486 -2.3645  5.1198  1.8021
  149OSM    C1F16532   1.348   5.748   2.700 -0.2047  0.3455 -0.3228
  149OSM     OF16533   1.440   5.826   2.675  0.9619  0.3047 -0.2103
  149OSM    C2F16534   1.365   5.619   2.768 -0.6976 -0.5121 -0.3555
  149OSM    H2F16535   1.462   5.571   2.743 -1.3376 -1.1142 -1.8079
  149OSM    H2G16536   1.292   5.545   2.728 -0.7000 -0.9912  0.4927
  149OSM    C3F16537   1.359   5.636   2.923  0.3564 -0.0448  0.1073
  149OSM    H3F16538   1.390   5.535   2.959  1.2077 -0.2608 -1.1755
  149OSM    H3G16539   1.262   5.681   2.954  0.0657 -0.6744  0.1207
  149OSM    C4F16540   1.464   5.738   2.966 -0.7475 -0.0953 -0.1027
  149OSM    H4F16541   1.425   5.840   2.944 -1.4498  0.3538  2.7902
  149OSM    H4G16542   1.557   5.742   2.904 -0.6611 -1.7775 -0.1261
  149OSM    C5F16543   1.516   5.725   3.109  0.4707 -0.2007  0.3532
  149OSM    H5F16544   1.611   5.781   3.121  0.5829 -0.6440  1.6463
  149OSM    H5G16545   1.538   5.617   3.122  0.3435 -0.2330  0.3011
  149OSM    C6F16546   1.416   5.753   3.226  0.4552 -0.6158 -0.4373
  149OSM    H6F16547   1.345   5.669   3.234  1.7839 -1.6895  0.4655
  149OSM    H6G16548   1.365   5.849   3.202 -0.1175 -0.6002  0.7559
  149OSM    C7F16549   1.483   5.776   3.364 -0.1435 -0.3464  0.3383
  149OSM    H7F16550   1.551   5.860   3.336  1.5146 -2.5003 -2.7412
  149OSM    H7G16551   1.553   5.693   3.385  2.8507  2.0137  0.3653
  149OSM    C8F16552   1.398   5.830   3.476 -0.1997  0.3781 -0.4274
  149OSM    H8F16553   1.313   5.760   3.491  1.4321 -1.3923  1.0752
  149OSM    H8G16554   1.355   5.931   3.456  1.0867  0.8285 -1.0302
  149OSM    C9F16555   1.480   5.839   3.612 -0.3840  0.9745 -0.6713
  149OSM    H9F16556   1.569   5.903   3.611  1.1039 -0.9976 -1.4804
  149OSM   C10F16557   1.466   5.760   3.719  0.0664 -0.0849 -0.8089
  149OSM   H10F16558   1.533   5.777   3.805  0.0867  0.5879 -0.9558
  149OSM   C11F16559   1.346   5.671   3.743  0.7033 -0.8245  0.0896
  149OSM   H11F16560   1.375   5.569   3.711  1.5560 -0.5119 -0.1712
  149OSM   H11G16561   1.252   5.697   3.690 -0.3218 -0.9740  1.7654
  149OSM   C12F16562   1.283   5.685   3.890 -0.6416  0.2996  0.5562
  149OSM   H12F16563   1.192   5.621   3.891 -0.3022 -0.2398 -0.9601
  149OSM   H12G16564   1.265   5.794   3.902 -1.4952  0.3785 -1.1312
  149OSM   C13F16565   1.381   5.635   3.998  0.1995  0.5583 -0.2650
  149OSM   H13F16566   1.469   5.702   3.998  0.5060  0.2556  2.2592
  149OSM   H13G16567   1.413   5.533   3.969  0.5631  0.4180  0.6012
  149OSM   C14F16568   1.312   5.636   4.139 -0.1698 -0.7024  0.2492
  149OSM   H14F16569   1.221   5.573   4.130 -0.6266 -0.4475  2.5635
  149OSM   H14G16570   1.277   5.739   4.162 -1.1368 -1.1944  1.0509
  149OSM   C15F16571   1.401   5.578   4.248  0.5679  0.1375  0.1422
  149OSM   H15F16572   1.476   5.655   4.273 -0.2427 -0.3319  5.0482
  149OSM   H15G16573   1.453   5.493   4.198  1.7096  0.9026  0.0158
  149OSM   C16F16574   1.336   5.535   4.375  0.0277 -0.3782 -0.6377
  149OSM   H16F16575   1.242   5.478   4.359 -0.5190  0.0904  0.7082
  149OSM   H16G16576   1.317   5.624   4.440  0.7290 -0.0287 -0.9019
  149OSM   C17F16577   1.423   5.437   4.457  0.2976 -0.4405  0.3493
  149OSM   H17F16578   1.467   5.368   4.381  0.5767  0.1583 -0.0419
  149OSM   H17G16579   1.354   5.375   4.518  1.0372 -0.1991  1.4675
  149OSM   C18F16580   1.532   5.497   4.547  0.3412  0.2751  0.1342
  149OSM   H18F16581   1.567   5.420   4.619 -2.3286 -2.5800 -1.3841
  149OSM   H18G16582   1.508   5.590   4.604  0.7379  1.2879 -1.2988
  149OSM   H18H16583   1.619   5.533   4.488 -0.5774  0.2562 -1.2691
  150OSM      N16584   4.650   2.169   2.487  0.2617 -0.9881  0.0552
  150OSM    C1516585   4.713   2.134   2.352  0.5553 -0.6773  0.0522
  150OSM   H15A16586   4.793   2.197   2.313  0.4383 -1.0806 -0.8627
  150OSM   H15B16587   4.630   2.143   2.284 -1.2868 -0.8967  2.1560
  150OSM   H15C16588   4.741   2.031   2.339  0.7844 -0.5040 -0.9390
  150OSM    C1416589   4.729   2.233   2.587  0.1170 -0.0104 -0.2589
  150OSM   H14A16590   4.793   2.306   2.539  1.6401 -0.6284  0.7308
  150OSM   H14B16591   4.811   2.179   2.632  1.1431  2.7120  1.4171
  150OSM   H14C16592   4.667   2.270   2.666 -0.8153 -0.9083 -0.5448
  150OSM    C1316593   4.537   2.258   2.458  1.0102 -0.2042 -0.2608
  150OSM   H13A16594   4.472   2.199   2.394  0.6433 -1.1514  0.9637
  150OSM   H13B16595   4.566   2.354   2.418  0.6624  0.8624  1.8960
  150OSM   H13C16596   4.482   2.292   2.544  1.7978  3.4287 -0.9978
  150OSM    C1216597   4.586   2.035   2.532  0.0888 -0.1521  0.2894
  150OSM   H12A16598   4.547   1.984   2.445  2.8092 -0.0393 -1.1331
  150OSM   H12B16599   4.504   2.050   2.601 -0.5282  1.2988 -0.7074
  150OSM    C1116600   4.679   1.925   2.594 -0.2966  0.0643 -0.3751
  150OSM   H11A16601   4.622   1.845   2.646 -2.8484  1.5663 -0.6586
  150OSM   H11B16602   4.736   1.980   2.672  1.0302 -1.1010 -0.5033
  150OSM      P16603   4.932   1.853   2.533 -0.0536  0.0139 -0.3580
  150OSM    O1316604   5.003   1.841   2.403 -0.4575  0.4164 -0.3027
  150OSM    O1416605   4.977   1.961   2.622 -0.5039 -0.0174  0.0023
  150OSM    O1116606   4.938   1.720   2.614  0.1358 -0.1741  0.3806
  150OSM    O1216607   4.776   1.877   2.497  0.2978  0.2284  0.0149
  150OSM    C1S16608   5.040   1.680   2.690  0.1303 -0.4281 -0.1416
  150OSM    H1S16609   5.079   1.768   2.746 -2.0381  0.9670 -0.7121
  150OSM    H1T16610   5.120   1.650   2.619 -1.1602 -1.4540 -1.2082
  150OSM     NF16611   5.074   1.554   2.902 -0.4337 -0.4776 -0.5884
  150OSM    HNF16612   5.117   1.467   2.926  1.1344  0.7126  1.2627
  150OSM    C2S16613   4.997   1.558   2.778 -0.8081 -0.4498  0.2939
  150OSM    H2S16614   4.892   1.573   2.810 -1.2672 -0.4720 -1.1344
  150OSM    C3S16615   4.990   1.427   2.695  0.5769 -1.0179 -0.1026
  150OSM    H3S16616   5.095   1.407   2.666  1.4922  1.8789  0.8394
  150OSM     O316617   4.909   1.441   2.579  0.4740  0.1546  0.3214
  150OSM    HO316618   4.873   1.530   2.580  0.1114  0.0145  1.1367
  150OSM    C4S16619   4.929   1.312   2.773  0.4411 -0.1113 -0.0607
  150OSM    H4S16620   4.995   1.273   2.852 -0.9601 -1.2192  0.6198
  150OSM    C5S16621   4.804   1.256   2.762 -0.5951  0.4901  0.1293
  150OSM    H5S16622   4.732   1.296   2.689 -0.2240 -0.7329 -0.9496
  150OSM    C6S16623   4.751   1.146   2.849 -0.9006  0.0256 -0.0142
  150OSM    H6S16624   4.742   1.058   2.781  1.8675 -0.4569  0.1159
  150OSM    H6T16625   4.646   1.160   2.880 -0.7538 -0.7496  0.9041
  150OSM    C7S16626   4.841   1.094   2.964 -0.1165  0.5097 -0.2938
  150OSM    H7S16627   4.847   1.167   3.047 -0.9800  0.3227 -0.0644
  150OSM    H7T16628   4.947   1.075   2.936 -0.5405 -1.2590 -0.8042
  150OSM    C8S16629   4.802   0.964   3.028 -0.0619 -0.2563 -0.3269
  150OSM    H8S16630   4.810   0.889   2.947 -0.6422  1.0253 -1.5972
  150OSM    H8T16631   4.694   0.970   3.057  0.6605 -0.7074  2.9367
  150OSM    C9S16632   4.891   0.936   3.150  0.1269 -0.7950  1.1219
  150OSM    H9S16633   4.897   1.023   3.219  0.6074 -0.3525  0.5361
  150OSM    H9T16634   4.999   0.927   3.125  0.2694 -1.0666  1.8248
  150OSM   C10S16635   4.839   0.810   3.210 -0.0065  0.0762  0.0591
  150OSM   H10S16636   4.851   0.730   3.133 -1.7708  1.0076 -1.2416
  150OSM   H10T16637   4.729   0.814   3.224  0.1701  2.2910  1.2168
  150OSM   C11S16638   4.917   0.775   3.339 -0.5877  0.4853 -0.0227
  150OSM   H11S16639   5.024   0.782   3.310 -0.2275 -0.2092  1.0901
  150OSM   H11T16640   4.904   0.665   3.348 -0.7449  0.1275 -3.2131
  150OSM   C12S16641   4.877   0.846   3.462 -0.2715 -0.3503  0.1851
  150OSM   H12S16642   4.766   0.851   3.459 -0.4054 -2.5635 -0.2776
  150OSM   H12T16643   4.910   0.951   3.445 -0.5678 -0.4320 -0.9727
  150OSM   C13S16644   4.910   0.774   3.591  0.0034 -0.3340 -0.0881
  150OSM   H13S16645   5.020   0.762   3.602  0.1487  1.2919  0.5213
  150OSM   H13T16646   4.864   0.673   3.593 -0.4611 -0.1268 -0.1817
  150OSM   C14S16647   4.859   0.854   3.713 -0.1821  0.4170 -0.3940
  150OSM   H14S16648   4.756   0.888   3.690 -0.2682  2.2311  2.2555
  150OSM   H14T16649   4.923   0.944   3.724 -0.6904  0.9471 -1.6203
  150OSM   C15S16650   4.858   0.775   3.840 -0.4751  0.3315 -0.2808
  150OSM   H15S16651   4.959   0.728   3.843 -0.0071  1.1341 -2.0833
  150OSM   H15T16652   4.783   0.693   3.841 -0.2474  0.1226  0.1342
  150OSM   C16S16653   4.816   0.865   3.957 -0.1955  0.2492  0.2387
  150OSM   H16S16654   4.722   0.910   3.918 -1.4683 -3.4403 -1.3963
  150OSM   H16T16655   4.897   0.934   3.988 -1.5682  2.0884 -0.0893
  150OSM   C17S16656   4.780   0.775   4.076  0.1176 -0.2195  0.6493
  150OSM   H17S16657   4.860   0.702   4.101  1.6846  1.4247  0.7221
  150OSM   H17T16658   4.693   0.714   4.045  0.0008 -0.1584  0.8564
  150OSM   C18S16659   4.733   0.852   4.198 -0.3410 -0.0015 -0.2391
  150OSM   H18S16660   4.654   0.926   4.176  0.2224  0.4242 -0.8474
  150OSM   H18T16661   4.824   0.905   4.234  0.1976 -1.3129  0.4230
  150OSM   H18U16662   4.705   0.772   4.270 -0.6623  1.5197  1.4036
  150OSM    C1F16663   5.086   1.650   2.993 -0.6697 -0.3639 -0.4545
  150OSM     OF16664   5.033   1.761   2.968  0.4013  0.3483  0.1369
  150OSM    C2F16665   5.164   1.615   3.117  1.0011  0.3815  0.2145
  150OSM    H2F16666   5.269   1.602   3.083  0.8086  0.2266 -0.3471
  150OSM    H2G16667   5.128   1.515   3.149 -0.4790  0.6635 -0.4990
  150OSM    C3F16668   5.149   1.703   3.238  0.6369 -0.8648 -0.2168
  150OSM    H3F16669   5.046   1.701   3.279  1.1188  0.1644  1.1523
  150OSM    H3G16670   5.174   1.806   3.204 -1.7967  0.6714  2.2355
  150OSM    C4F16671   5.225   1.658   3.353  0.0447  0.1249  0.2192
  150OSM    H4F16672   5.332   1.657   3.321 -0.6063  0.5832 -2.1262
  150OSM    H4G16673   5.203   1.556   3.390 -0.8966  0.4725  0.6352
  150OSM    C5F16674   5.212   1.751   3.475  0.6826  0.2295  0.3794
  150OSM    H5F16675   5.104   1.746   3.498  0.3544 -0.2666 -1.1365
  150OSM    H5G16676   5.234   1.855   3.442  0.4559  0.4366  0.8706
  150OSM    C6F16677   5.305   1.719   3.587  0.6798 -0.5474 -0.4972
  150OSM    H6F16678   5.410   1.696   3.558 -0.0894 -5.3637 -0.2706
  150OSM    H6G16679   5.260   1.628   3.632 -3.6769  1.8868  0.6336
  150OSM    C7F16680   5.314   1.835   3.675 -0.3704 -0.3492 -0.1491
  150OSM    H7F16681   5.216   1.886   3.685  0.6270  1.4606  1.2548
  150OSM    H7G16682   5.372   1.914   3.623 -1.2604 -0.7438 -1.7898
  150OSM    C8F16683   5.369   1.795   3.816  0.4773 -0.0331 -0.4486
  150OSM    H8F16684   5.390   1.889   3.871 -2.2560  2.0068 -2.6397
  150OSM    H8G16685   5.466   1.745   3.793  1.1078  0.5091  0.8830
  150OSM    C9F16686   5.278   1.704   3.898  1.1503 -0.3739 -0.0381
  150OSM    H9F16687   5.175   1.742   3.898  1.6804  1.1179 -0.6847
  150OSM   C10F16688   5.309   1.598   3.974  0.1413 -0.4168 -0.2888
  150OSM   H10F16689   5.237   1.531   4.024  1.9288 -1.6763  0.6733
  150OSM   C11F16690   5.443   1.534   3.999 -0.3430 -0.0385  0.0702
  150OSM   H11F16691   5.514   1.619   3.999  0.0243 -0.3409  0.1455
  150OSM   H11G16692   5.475   1.483   3.905 -0.1454  1.3375 -0.6289
  150OSM   C12F16693   5.450   1.453   4.123  0.1623  0.8862  0.1209
  150OSM   H12F16694   5.385   1.365   4.111  1.1030 -0.1388  2.0041
  150OSM   H12G16695   5.408   1.515   4.205 -0.0657  0.6932  0.1489
  150OSM   C13F16696   5.599   1.424   4.160 -0.9989  0.2175  0.1398
  150OSM   H13F16697   5.623   1.531   4.178  0.1630  0.0529 -0.3474
  150OSM   H13G16698   5.662   1.391   4.075  1.1643  0.6851  1.4823
  150OSM   C14F16699   5.625   1.357   4.303  0.3578  0.2753  0.0699
  150OSM   H14F16700   5.539   1.387   4.367 -1.8563 -4.6964 -0.1475
  150OSM   H14G16701   5.721   1.399   4.338  0.6085  0.4495 -0.8052
  150OSM   C15F16702   5.628   1.209   4.298  0.3463  0.0842 -0.5834
  150OSM   H15F16703   5.700   1.174   4.221 -0.6829 -2.0409 -0.6455
  150OSM   H15G16704   5.530   1.167   4.267  0.3038  0.8744 -1.5938
  150OSM   C16F16705   5.658   1.148   4.437  0.3120 -0.0345  0.1223
  150OSM   H16F16706   5.591   1.197   4.510 -1.9445  0.7112 -2.3002
  150OSM   H16G16707   5.763   1.176   4.460  1.0598 -1.3734 -1.4225
  150OSM   C17F16708   5.631   0.995   4.448 -0.6894 -0.2098  0.0177
  150OSM   H17F16709   5.561   0.964   4.367  0.1154 -0.5850 -0.5529
  150OSM   H17G16710   5.576   0.973   4.542 -1.9489 -0.1192 -0.6691
  150OSM   C18F16711   5.758   0.904   4.461 -0.0155 -0.4787 -0.1224
  150OSM   H18F16712   5.835   0.950   4.527 -0.9649 -0.9825  1.3848
  150OSM   H18G16713   5.799   0.879   4.361 -0.8576  2.5704 -1.3239
  150OSM   H18H16714   5.727   0.808   4.508 -1.9303  0.1954  0.0621
  151OSM      N16715   4.591   0.199   2.206  0.0889  0.4692  0.3050
  151OSM    C1516716   4.728   0.173   2.158 -0.1470  0.5174  0.0119
  151OSM   H15A16717   4.803   0.196   2.233 -0.3703 -0.6268  0.6239
  151OSM   H15B16718   4.745   0.223   2.064  0.3521 -1.3894 -0.9532
  151OSM   H15C16719   4.743   0.067   2.145 -0.3117  0.4981 -0.0265
  151OSM    C1416720   4.510   0.088   2.145  0.2557  0.4348 -0.3177
  151OSM   H14A16721   4.512  -0.001   2.207  0.2959 -0.3957 -1.4730
  151OSM   H14B16722   4.551   0.056   2.051  0.7565  0.7131 -0.1994
  151OSM   H14C16723   4.406   0.115   2.133 -0.3195 -0.8590  1.3218
  151OSM    C1316724   4.586   0.199   2.365 -0.5775  0.3554 -0.7421
  151OSM   H13A16725   4.629   0.112   2.413 -1.5804 -0.6462 -1.5794
  151OSM   H13B16726   4.484   0.210   2.400  0.2569  3.7472  0.9849
  151OSM   H13C16727   4.648   0.283   2.390 -1.0025  0.5063 -0.1796
  151OSM    C1216728   4.545   0.332   2.153 -0.0136  0.1745 -0.0174
  151OSM   H12A16729   4.455   0.352   2.208 -0.7011 -0.0947 -1.0107
  151OSM   H12B16730   4.519   0.324   2.048 -1.9652 -0.7094  0.4910
  151OSM    C1116731   4.639   0.457   2.163 -0.2608  0.3163 -0.7239
  151OSM   H11A16732   4.596   0.542   2.105 -1.0648  1.2198  1.1003
  151OSM   H11B16733   4.740   0.438   2.121  0.0525  1.9765 -0.7817
  151OSM      P16734   4.773   0.548   2.369  0.0718 -0.2176 -0.0469
  151OSM    O1316735   4.870   0.441   2.364 -0.4793  0.0829  0.9298
  151OSM    O1416736   4.814   0.674   2.306 -0.0928 -0.1970  0.5391
  151OSM    O1116737   4.731   0.573   2.518 -0.1203  0.5384 -0.5056
  151OSM    O1216738   4.644   0.491   2.307  0.6988  0.0343  0.0827
  151OSM    C1S16739   4.660   0.478   2.602 -0.1167 -0.4474 -0.0351
  151OSM    H1S16740   4.736   0.404   2.634  0.7159  0.5136  0.2675
  151OSM    H1T16741   4.573   0.434   2.549 -0.4146 -1.9132  1.6007
  151OSM     NF16742   4.591   0.462   2.844  0.0312 -0.1296  0.5123
  151OSM    HNF16743   4.502   0.444   2.887 -0.7705 -0.9090 -1.3726
  151OSM    C2S16744   4.604   0.550   2.726 -0.6066 -0.3952  0.2434
  151OSM    H2S16745   4.694   0.609   2.752 -1.2527  1.6330 -1.7933
  151OSM    C3S16746   4.480   0.651   2.698 -0.3366  0.1690  0.1670
  151OSM    H3S16747   4.401   0.577   2.675  0.6243 -1.1403  0.8956
  151OSM     O316748   4.501   0.730   2.582 -0.4302 -0.3676  0.0733
  151OSM    HO316749   4.576   0.683   2.544  1.2782 -0.0550  2.8010
  151OSM    C4S16750   4.443   0.733   2.823 -0.2603 -0.3598 -0.2673
  151OSM    H4S16751   4.395   0.667   2.898 -0.1265  0.0692  0.2012
  151OSM    C5S16752   4.469   0.860   2.854  0.1555  0.1709 -0.9605
  151OSM    H5S16753   4.525   0.933   2.794 -1.6587  1.4884 -1.1253
  151OSM    C6S16754   4.413   0.915   2.981 -0.3709  0.2702  0.5866
  151OSM    H6S16755   4.316   0.961   2.954 -0.3288  0.5849  0.9666
  151OSM    H6T16756   4.482   0.994   3.017 -2.6444  1.3977  2.7950
  151OSM    C7S16757   4.388   0.813   3.093  0.4438 -0.7128 -0.5636
  151OSM    H7S16758   4.485   0.763   3.115  0.3576 -0.4986  0.3207
  151OSM    H7T16759   4.318   0.735   3.056  1.3526 -2.6867  1.5665
  151OSM    C8S16760   4.340   0.874   3.216 -0.0497  0.1172 -0.9280
  151OSM    H8S16761   4.318   0.790   3.284 -0.1259 -0.7441 -1.9874
  151OSM    H8T16762   4.245   0.931   3.201 -1.3348 -1.4553  0.8575
  151OSM    C9S16763   4.437   0.975   3.285  0.0230 -0.4436  0.0094
  151OSM    H9S16764   4.453   1.066   3.224  1.1945  0.0197  0.9605
  151OSM    H9T16765   4.532   0.920   3.302 -0.2215 -0.2124  2.5784
  151OSM   C10S16766   4.379   1.023   3.419 -0.2641  0.2552  0.0240
  151OSM   H10S16767   4.349   0.938   3.483 -0.6957 -0.1630 -0.7143
  151OSM   H10T16768   4.280   1.074   3.411 -0.5256 -0.1694  0.4792
  151OSM   C11S16769   4.475   1.102   3.516  0.2048 -0.0515  0.3897
  151OSM   H11S16770   4.500   1.202   3.474  0.4864  0.1844  1.1007
  151OSM   H11T16771   4.563   1.039   3.544 -2.2473 -2.2323  4.0772
  151OSM   C12S16772   4.416   1.141   3.651  0.7679  0.0515 -0.7333
  151OSM   H12S16773   4.315   1.183   3.629  0.8650 -0.2958 -1.9146
  151OSM   H12T16774   4.476   1.221   3.698  1.6186 -1.1556  0.3059
  151OSM   C13S16775   4.397   1.032   3.764  0.0794 -0.1051  0.2966
  151OSM   H13S16776   4.498   0.986   3.775 -0.2613 -0.7163  1.0321
  151OSM   H13T16777   4.319   0.963   3.725  0.7421 -0.5249 -0.2967
  151OSM   C14S16778   4.356   1.088   3.900  0.2528 -0.3508  0.7772
  151OSM   H14S16779   4.311   1.012   3.967 -0.2356 -0.1462  0.6854
  151OSM   H14T16780   4.275   1.162   3.886 -1.3035 -2.1346 -0.2033
  151OSM   C15S16781   4.472   1.171   3.969 -0.6174  0.0636  0.5537
  151OSM   H15S16782   4.476   1.262   3.907  1.8525 -0.8408 -0.7880
  151OSM   H15T16783   4.569   1.117   3.970 -0.1395  0.8486 -0.9646
  151OSM   C16S16784   4.436   1.196   4.111  0.2231  0.1139  0.2878
  151OSM   H16S16785   4.420   1.102   4.167  0.8091 -0.0764  0.1468
  151OSM   H16T16786   4.334   1.240   4.115  1.1955  2.6010 -0.1218
  151OSM   C17S16787   4.528   1.282   4.195 -0.7174  0.4632  0.7458
  151OSM   H17S16788   4.460   1.321   4.273 -1.1893 -1.3712  1.2931
  151OSM   H17T16789   4.571   1.372   4.147  1.2812 -0.7268  0.1976
  151OSM   C18S16790   4.641   1.207   4.270  0.1577 -0.1192 -0.3533
  151OSM   H18S16791   4.706   1.262   4.341  3.0668 -3.0251 -0.4870
  151OSM   H18T16792   4.703   1.153   4.195 -1.6340 -0.9182 -1.3255
  151OSM   H18U16793   4.592   1.123   4.324  1.2768  0.1397  1.1288
  151OSM    C1F16794   4.697   0.409   2.894  0.1923  0.4061 -0.3391
  151OSM     OF16795   4.811   0.454   2.880  0.1209 -0.1317 -0.0021
  151OSM    C2F16796   4.667   0.299   2.992  0.3911  0.0518 -0.3390
  151OSM    H2F16797   4.733   0.225   2.943  1.1283  0.2106  0.3955
  151OSM    H2G16798   4.561   0.266   2.994  0.0512  1.1190  1.2398
  151OSM    C3F16799   4.698   0.333   3.140 -0.1269 -0.0869 -0.0687
  151OSM    H3F16800   4.799   0.375   3.153 -0.5131  0.0535  3.1694
  151OSM    H3G16801   4.683   0.245   3.205 -2.8972 -1.7113 -2.6121
  151OSM    C4F16802   4.615   0.447   3.199 -0.1151 -0.3350 -0.0423
  151OSM    H4F16803   4.511   0.413   3.182 -0.3854  0.4169  0.0951
  151OSM    H4G16804   4.646   0.537   3.143  1.7722  0.3346  1.9120
  151OSM    C5F16805   4.628   0.454   3.350  0.3807  0.3594  0.1447
  151OSM    H5F16806   4.729   0.494   3.372  1.1300  0.1990 -2.5783
  151OSM    H5G16807   4.620   0.351   3.391  1.2107  0.1908 -0.1082
  151OSM    C6F16808   4.533   0.555   3.413  0.2964 -0.0466 -0.2445
  151OSM    H6F16809   4.428   0.517   3.408  0.5245 -1.1439  1.9938
  151OSM    H6G16810   4.547   0.652   3.360 -0.1566 -0.3718 -0.9777
  151OSM    C7F16811   4.579   0.569   3.556 -0.9200  0.1498 -0.3309
  151OSM    H7F16812   4.688   0.587   3.566 -0.2328 -2.6370 -1.7566
  151OSM    H7G16813   4.577   0.481   3.623  0.8477  1.2794  1.3120
  151OSM    C8F16814   4.500   0.679   3.637 -0.3652 -0.7761  0.4308
  151OSM    H8F16815   4.501   0.773   3.579 -1.8162 -1.2252 -0.3701
  151OSM    H8G16816   4.543   0.694   3.738  1.0453  2.6055 -0.5604
  151OSM    C9F16817   4.351   0.640   3.659 -0.1683 -0.0417 -0.2170
  151OSM    H9F16818   4.318   0.576   3.577  2.2082 -0.2086 -1.1320
  151OSM   C10F16819   4.273   0.660   3.769  0.4894 -0.2225  0.2477
  151OSM   H10F16820   4.166   0.638   3.752  0.5231  0.1890 -0.5559
  151OSM   C11F16821   4.314   0.740   3.887 -0.2046 -0.4025 -0.2847
  151OSM   H11F16822   4.240   0.823   3.883 -1.1673 -1.2836 -2.8744
  151OSM   H11G16823   4.415   0.787   3.887 -0.2336 -0.3422 -0.1721
  151OSM   C12F16824   4.311   0.669   4.032 -0.6948 -0.1081  0.6720
  151OSM   H12F16825   4.400   0.602   4.025  1.1921  2.3975 -1.1181
  151OSM   H12G16826   4.215   0.614   4.040  1.0014 -3.7164 -1.1489
  151OSM   C13F16827   4.346   0.765   4.147  0.3222  0.1662 -0.9379
  151OSM   H13F16828   4.277   0.851   4.155  1.4490  0.9297  1.9646
  151OSM   H13G16829   4.445   0.813   4.133 -0.1901  1.0216 -1.7021
  151OSM   C14F16830   4.329   0.682   4.281  0.3717 -0.0002  0.5787
  151OSM   H14F16831   4.408   0.604   4.282  1.0513  0.6736  2.1762
  151OSM   H14G16832   4.235   0.622   4.288 -1.3899  2.5148 -0.1723
  151OSM   C15F16833   4.331   0.768   4.409  0.1733  0.3342  0.6823
  151OSM   H15F16834   4.244   0.837   4.398 -0.1773  0.2553  2.6679
  151OSM   H15G16835   4.431   0.817   4.414  0.5343 -0.5012  1.9047
  151OSM   C16F16836   4.311   0.682   4.535  0.6126 -0.1117  0.9562
  151OSM   H16F16837   4.390   0.605   4.529  0.2179 -0.4271 -2.5571
  151OSM   H16G16838   4.233   0.603   4.526  0.8118 -0.1083 -1.2826
  151OSM   C17F16839   4.283   0.751   4.664  0.4700 -0.0385  0.2553
  151OSM   H17F16840   4.317   0.691   4.751 -1.8588 -2.0178 -0.1051
  151OSM   H17G16841   4.177   0.780   4.675  0.2131 -0.6056 -0.6620
  151OSM   C18F16842   4.364   0.881   4.677  0.8282 -0.3024  0.0083
  151OSM   H18F16843   4.350   0.940   4.770  0.6471 -1.6055  0.8285
  151OSM   H18G16844   4.341   0.956   4.598 -0.3009  1.1637  1.6390
  151OSM   H18H16845   4.473   0.859   4.677  1.3458  1.9908 -0.2099
  152OSM      N16846   6.194   2.027   2.502 -0.0748  0.0408  0.7121
  152OSM    C1516847   6.257   1.929   2.594  0.3356  0.2796 -0.3435
  152OSM   H15A16848   6.206   1.834   2.588 -2.1910  1.3899  1.7213
  152OSM   H15B16849   6.237   1.965   2.693  1.2044 -0.7112  0.2126
  152OSM   H15C16850   6.362   1.911   2.574  0.0649 -1.1601 -0.5493
  152OSM    C1416851   6.221   1.980   2.359 -0.1178  0.7175  0.1721
  152OSM   H14A16852   6.324   2.003   2.333 -0.2825 -1.4698 -2.9714
  152OSM   H14B16853   6.151   2.023   2.289 -0.4384  0.0873  0.0996
  152OSM   H14C16854   6.199   1.875   2.348 -3.1687  1.3895 -1.3983
  152OSM    C1316855   6.053   2.050   2.532  0.8252 -0.0252  0.2416
  152OSM   H13A16856   5.999   1.958   2.516  0.4703  0.5024 -1.9221
  152OSM   H13B16857   6.010   2.127   2.470  1.6724 -0.7815 -1.3356
  152OSM   H13C16858   6.031   2.086   2.632  0.5036  1.1588 -0.2363
  152OSM    C1216859   6.268   2.161   2.523 -0.2786 -0.6735 -0.2179
  152OSM   H12A16860   6.229   2.243   2.465 -2.0827 -0.8964  0.5934
  152OSM   H12B16861   6.372   2.155   2.493  0.3109  1.8143  1.0098
  152OSM    C1116862   6.284   2.211   2.664 -0.2489  0.0035 -0.0840
  152OSM   H11A16863   6.356   2.156   2.729 -1.4468 -1.0431  0.4024
  152OSM   H11B16864   6.191   2.208   2.723  0.0857  0.2924  0.4656
  152OSM      P16865   6.238   2.468   2.691  0.2064  0.1637 -0.3244
  152OSM    O1316866   6.311   2.588   2.656 -0.7590  0.3700 -0.2111
  152OSM    O1416867   6.114   2.449   2.624  0.0339 -0.5938  0.7682
  152OSM    O1116868   6.214   2.455   2.852 -0.0481 -0.0168  0.0054
  152OSM    O1216869   6.332   2.341   2.649 -0.5523  0.1561  0.4520
  152OSM    C1S16870   6.312   2.410   2.944 -0.3136  0.0705  0.3221
  152OSM    H1S16871   6.379   2.340   2.890 -1.1465 -0.9618  0.5895
  152OSM    H1T16872   6.249   2.345   3.009 -2.2892  0.3373 -1.2104
  152OSM     NF16873   6.484   2.437   3.112 -0.5877  0.5494  0.3559
  152OSM    HNF16874   6.479   2.460   3.209 -1.1228 -0.1640  0.5002
  152OSM    C2S16875   6.400   2.515   3.009 -0.6055 -0.1883 -0.8811
  152OSM    H2S16876   6.465   2.556   2.929 -0.6961 -2.0133 -1.9468
  152OSM    C3S16877   6.320   2.636   3.074  0.3766 -0.5405 -0.2286
  152OSM    H3S16878   6.253   2.604   3.157  0.9756  0.0122  0.4806
  152OSM     O316879   6.216   2.685   2.990  0.0489  0.5980  0.0564
  152OSM    HO316880   6.225   2.628   2.913 -0.2079 -0.8674  1.0860
  152OSM    C4S16881   6.410   2.739   3.138 -0.2588  0.4288  0.0198
  152OSM    H4S16882   6.445   2.709   3.238  0.8060 -1.2031 -0.7953
  152OSM    C5S16883   6.426   2.865   3.092  0.8169 -0.5672 -0.0643
  152OSM    H5S16884   6.372   2.883   2.997 -1.7418 -0.4287  1.3207
  152OSM    C6S16885   6.485   2.986   3.146  0.1137 -0.2812 -0.1439
  152OSM    H6S16886   6.416   3.071   3.134  0.6567  0.2851  0.6279
  152OSM    H6T16887   6.582   3.008   3.096  3.0008 -1.2354  4.3532
  152OSM    C7S16888   6.529   2.996   3.296 -0.1872  0.1131  0.6978
  152OSM    H7S16889   6.598   3.082   3.307  0.5796 -0.3505 -0.3802
  152OSM    H7T16890   6.589   2.904   3.314  0.5016  0.2559 -0.7626
  152OSM    C8S16891   6.408   3.002   3.391  0.5812  0.3931 -0.3975
  152OSM    H8S16892   6.360   2.903   3.406  1.9495 -0.6112 -2.2462
  152OSM    H8T16893   6.329   3.066   3.348  1.6622  0.4644 -2.4104
  152OSM    C9S16894   6.444   3.060   3.534 -0.7921 -0.1185  0.1126
  152OSM    H9S16895   6.491   3.158   3.513  0.4440 -0.9640 -1.2733
  152OSM    H9T16896   6.522   2.995   3.579 -1.3971 -0.6634  0.4064
  152OSM   C10S16897   6.331   3.074   3.630 -0.9593 -0.0796  0.1947
  152OSM   H10S16898   6.298   2.969   3.643  0.1273 -0.5960 -0.9392
  152OSM   H10T16899   6.245   3.134   3.594  1.5404  4.4609  1.0000
  152OSM   C11S16900   6.366   3.126   3.776 -0.5694 -0.1636  0.1290
  152OSM   H11S16901   6.404   3.230   3.769  0.5227 -0.6062 -0.6849
  152OSM   H11T16902   6.440   3.059   3.824  0.1353  0.8508  0.4712
  152OSM   C12S16903   6.261   3.119   3.888  0.6134 -0.0707  0.9045
  152OSM   H12S16904   6.220   3.016   3.888 -1.1952  0.5264 -2.1171
  152OSM   H12T16905   6.183   3.196   3.866  1.7545  1.2156  1.2338
  152OSM   C13S16906   6.324   3.139   4.024  0.4015  0.1942 -0.3519
  152OSM   H13S16907   6.371   3.239   4.028  1.4998 -0.3639  2.4552
  152OSM   H13T16908   6.407   3.065   4.024 -1.3931 -1.9523 -1.3378
  152OSM   C14S16909   6.212   3.116   4.134  1.1080  0.1161  0.1548
  152OSM   H14S16910   6.162   3.017   4.124 -1.3369  1.4294 -1.6689
  152OSM   H14T16911   6.125   3.182   4.111 -0.9651 -1.4187  2.8971
  152OSM   C15S16912   6.265   3.127   4.278  0.0353 -0.0235 -0.6152
  152OSM   H15S16913   6.312   3.224   4.304 -1.0048  0.2619  0.2721
  152OSM   H15T16914   6.351   3.056   4.278  1.1166  1.2386 -0.7406
  152OSM   C16S16915   6.153   3.079   4.369 -0.3672 -0.0141  0.8886
  152OSM   H16S16916   6.114   2.985   4.324 -0.7329 -0.1959  1.5781
  152OSM   H16T16917   6.066   3.149   4.368 -0.8121 -0.5432 -0.4333
  152OSM   C17S16918   6.202   3.047   4.507  0.0054 -0.1251 -0.0028
  152OSM   H17S16919   6.125   3.044   4.587  1.1428 -0.1072  1.1240
  152OSM   H17T16920   6.271   3.129   4.537 -1.1602  1.2649 -0.9521
  152OSM   C18S16921   6.284   2.918   4.528 -0.3896 -0.0210  0.5229
  152OSM   H18S16922   6.352   2.903   4.441  0.1513 -2.7270  1.3449
  152OSM   H18T16923   6.210   2.836   4.525  0.2665 -0.6176 -1.8791
  152OSM   H18U16924   6.340   2.920   4.624  0.4064  2.6461  0.1143
  152OSM    C1F16925   6.565   2.340   3.083  0.1361  0.2574  0.8294
  152OSM     OF16926   6.615   2.334   2.968  0.0838 -0.1640  0.0456
  152OSM    C2F16927   6.599   2.235   3.187 -0.3039 -0.1853 -0.2027
  152OSM    H2F16928   6.628   2.273   3.287 -0.3155  1.2418 -0.7200
  152OSM    H2G16929   6.676   2.168   3.142 -0.9084 -1.6873  0.9167
  152OSM    C3F16930   6.468   2.150   3.208 -0.1484 -0.4800  0.0207
  152OSM    H3F16931   6.436   2.136   3.103  0.9076  0.9632 -0.5302
  152OSM    H3G16932   6.390   2.210   3.260 -0.0683  1.4235 -1.8932
  152OSM    C4F16933   6.501   2.019   3.280 -0.9594  0.3831  0.2191
  152OSM    H4F16934   6.569   1.961   3.213 -0.8458 -1.0171  1.4899
  152OSM    H4G16935   6.403   1.966   3.289 -1.5879  0.9537 -2.4372
  152OSM    C5F16936   6.560   2.019   3.417  0.3035 -0.6748 -0.1774
  152OSM    H5F16937   6.624   2.109   3.429  0.6710 -0.9147 -0.3083
  152OSM    H5G16938   6.624   1.929   3.430  0.4044 -0.6391 -0.4178
  152OSM    C6F16939   6.460   2.017   3.530 -0.5181 -0.4212 -0.8285
  152OSM    H6F16940   6.396   1.926   3.527  1.4995 -2.2167  2.7016
  152OSM    H6G16941   6.395   2.107   3.531 -0.6544 -0.4922  1.0450
  152OSM    C7F16942   6.529   1.986   3.664  0.1924 -0.2767 -0.5335
  152OSM    H7F16943   6.618   2.051   3.659 -0.7726  1.1951  0.6843
  152OSM    H7G16944   6.556   1.878   3.661 -0.2326 -0.3779 -2.0760
  152OSM    C8F16945   6.452   2.034   3.781  0.2624 -0.3563 -0.6643
  152OSM    H8F16946   6.404   2.133   3.768  1.0923  0.1025 -0.3595
  152OSM    H8G16947   6.519   2.059   3.867 -0.0230 -2.1758  0.1294
  152OSM    C9F16948   6.347   1.933   3.826  0.3121  1.0220 -0.2871
  152OSM    H9F16949   6.309   1.874   3.741  0.7810  1.8310 -1.0785
  152OSM   C10F16950   6.304   1.933   3.955  0.9250 -0.3114  0.3288
  152OSM   H10F16951   6.221   1.869   3.986 -0.0598 -0.3352 -2.1387
  152OSM   C11F16952   6.368   2.011   4.065  0.7406  0.2818  0.0827
  152OSM   H11F16953   6.356   2.119   4.044 -0.5587  0.4687  1.6379
  152OSM   H11G16954   6.475   1.984   4.074  0.4756 -0.5307  1.0410
  152OSM   C12F16955   6.293   1.981   4.195 -0.8374  0.2886 -0.4477
  152OSM   H12F16956   6.183   1.970   4.178 -0.8097 -1.7861  0.4189
  152OSM   H12G16957   6.305   2.072   4.257 -1.5296  2.1374 -2.8675
  152OSM   C13F16958   6.335   1.849   4.257 -0.0549  0.4356  0.0842
  152OSM   H13F16959   6.443   1.858   4.282  0.1055 -1.7078  0.3607
  152OSM   H13G16960   6.309   1.765   4.189  0.1212 -0.5619  1.2292
  152OSM   C14F16961   6.277   1.816   4.394 -0.8600  0.0653 -0.2702
  152OSM   H14F16962   6.167   1.797   4.388 -0.7588 -0.2233 -1.3783
  152OSM   H14G16963   6.298   1.909   4.450 -2.8979  0.8956 -0.8008
  152OSM   C15F16964   6.353   1.702   4.472  0.0338 -0.1176  0.2420
  152OSM   H15F16965   6.460   1.714   4.442 -0.4933 -1.5195 -2.5838
  152OSM   H15G16966   6.335   1.600   4.431 -0.9658  0.4998 -0.9272
  152OSM   C16F16967   6.331   1.693   4.628 -0.2032  0.1612  0.3112
  152OSM   H16F16968   6.401   1.615   4.665  0.6784  1.2954  1.1092
  152OSM   H16G16969   6.232   1.646   4.646 -0.1779 -0.9049 -2.0525
  152OSM   C17F16970   6.351   1.820   4.721  0.4893  0.0301  0.3674
  152OSM   H17F16971   6.287   1.906   4.691  0.6424  0.9682  2.5179
  152OSM   H17G16972   6.455   1.853   4.703  0.5636 -1.7158 -3.2721
  152OSM   C18F16973   6.324   1.776   4.873 -0.3452  0.2921  0.1402
  152OSM   H18F16974   6.224   1.730   4.888 -1.0999  1.7630 -0.1907
  152OSM   H18G16975   6.336   1.868   4.934  0.5150 -0.1850  0.7200
  152OSM   H18H16976   6.406   1.713   4.914  1.2139  2.1356 -0.0118
  153OSM      N16977   5.465   3.043   2.763  0.8139  0.9807 -0.0916
  153OSM    C1516978   5.321   3.059   2.800  0.3013 -0.4761  0.4159
  153OSM   H15A16979   5.269   3.107   2.719  0.1176 -0.6527  0.4293
  153OSM   H15B16980   5.318   3.123   2.888 -0.9164  1.8738 -1.2324
  153OSM   H15C16981   5.256   2.978   2.830 -0.5620  0.1780  0.3455
  153OSM    C1416982   5.533   3.173   2.769 -0.3188 -0.0717  0.5540
  153OSM   H14A16983   5.640   3.167   2.754 -0.3988  0.5717 -0.3625
  153OSM   H14B16984   5.511   3.221   2.863 -0.7373 -2.3083  1.6625
  153OSM   H14C16985   5.498   3.241   2.693 -2.9723 -0.6077  1.1782
  153OSM    C1316986   5.528   2.951   2.865 -0.8166  0.1772  0.4818
  153OSM   H13A16987   5.511   2.848   2.837 -0.4214  0.1322  0.4129
  153OSM   H13B16988   5.509   2.977   2.968 -1.3961  3.3908 -0.3360
  153OSM   H13C16989   5.635   2.962   2.869 -0.6676 -1.1347  0.6573
  153OSM    C1216990   5.478   2.982   2.624 -0.0844 -0.9353 -1.0355
  153OSM   H12A16991   5.583   2.985   2.603 -0.3721  1.5752 -2.5418
  153OSM   H12B16992   5.431   3.054   2.558  0.2589  1.3332  1.0338
  153OSM    C1116993   5.434   2.834   2.605 -0.0927  0.1988 -0.2912
  153OSM   H11A16994   5.423   2.814   2.497  0.2284  1.8320 -0.6625
  153OSM   H11B16995   5.331   2.812   2.640  0.1166  0.7234  0.7082
  153OSM      P16996   5.658   2.710   2.608  0.1377 -0.0483  0.4381
  153OSM    O1316997   5.640   2.614   2.500 -0.4787 -0.2040 -0.8446
  153OSM    O1416998   5.733   2.831   2.576  0.2911 -0.0534  0.1497
  153OSM    O1116999   5.729   2.642   2.740 -0.2190  0.4667  0.8546
  153OSM    O1217000   5.522   2.742   2.670  0.6115  0.1217 -0.1557
  153OSM    C1S17001   5.824   2.722   2.809  0.7164 -0.2878  0.0417
  153OSM    H1S17002   5.776   2.822   2.819 -3.4427 -1.8704 -1.7702
  153OSM    H1T17003   5.921   2.727   2.755  2.1410 -0.9397  2.3855
  153OSM     NF17004   5.939   2.774   3.010 -0.1399 -0.7106 -0.0524
  153OSM    HNF17005   6.037   2.757   3.005 -0.3909 -1.9661 -1.1631
  153OSM    C2S17006   5.850   2.680   2.949 -0.5750  0.0648 -0.0447
  153OSM    H2S17007   5.755   2.679   3.007 -0.0809 -1.8872  0.7934
  153OSM    C3S17008   5.902   2.533   2.930  1.2894 -0.5371  0.4083
  153OSM    H3S17009   5.984   2.540   2.856 -0.8621  1.1981 -2.0247
  153OSM     O317010   5.795   2.444   2.885 -0.5911  0.0244 -0.1132
  153OSM    HO317011   5.723   2.493   2.842 -0.8898 -0.8424 -0.6322
  153OSM    C4S17012   5.950   2.491   3.063 -0.7199 -0.8701 -0.1266
  153OSM    H4S17013   6.060   2.486   3.061 -0.6581  0.1757 -0.1710
  153OSM    C5S17014   5.874   2.470   3.172  0.2397  0.4900  0.3363
  153OSM    H5S17015   5.765   2.456   3.162  0.2854 -0.3059  0.8099
  153OSM    C6S17016   5.924   2.426   3.307  0.3013 -0.7677  0.0710
  153OSM    H6S17017   5.897   2.320   3.328  1.8205 -1.0893  0.5226
  153OSM    H6T17018   5.894   2.495   3.389  2.0985  0.9922 -0.6690
  153OSM    C7S17019   6.073   2.435   3.324 -0.2500  0.0479 -0.4340
  153OSM    H7S17020   6.103   2.541   3.322  1.3077 -0.3804 -1.5822
  153OSM    H7T17021   6.127   2.392   3.236 -0.6738 -0.0985 -0.6299
  153OSM    C8S17022   6.119   2.376   3.461 -0.2595  0.2977  0.8512
  153OSM    H8S17023   6.051   2.431   3.529 -0.1593  1.2898  0.1602
  153OSM    H8T17024   6.228   2.397   3.472 -0.5494  1.8887  0.8803
  153OSM    C9S17025   6.093   2.225   3.469 -0.2115 -0.2183 -0.1750
  153OSM    H9S17026   6.153   2.179   3.389 -1.7876 -0.2603 -1.3862
  153OSM    H9T17027   5.990   2.185   3.451 -0.1987  0.0009 -0.7688
  153OSM   C10S17028   6.121   2.165   3.601 -0.3364  0.0580  0.0887
  153OSM   H10S17029   6.231   2.177   3.615 -0.3985  1.8627 -0.7803
  153OSM   H10T17030   6.092   2.058   3.603 -0.0580 -0.0795 -1.4217
  153OSM   C11S17031   6.060   2.247   3.711 -0.2604 -0.5500  0.2287
  153OSM   H11S17032   5.958   2.283   3.685  0.3326  0.3375 -0.9931
  153OSM   H11T17033   6.127   2.332   3.734 -0.9286 -0.5426  2.3967
  153OSM   C12S17034   6.065   2.177   3.845  0.1508  0.2489  0.2551
  153OSM   H12S17035   6.171   2.179   3.878 -1.3410  0.8738  5.9040
  153OSM   H12T17036   6.034   2.073   3.820  0.7573 -0.1504  1.1291
  153OSM   C13S17037   5.977   2.246   3.951 -0.2860  0.2756 -0.5732
  153OSM   H13S17038   5.876   2.227   3.910 -1.0791  0.6826  1.1264
  153OSM   H13T17039   5.995   2.355   3.963  1.1906  0.0495 -0.5816
  153OSM   C14S17040   5.988   2.167   4.078 -0.1485 -0.6726  0.1946
  153OSM   H14S17041   6.088   2.178   4.125  0.8480 -0.7282 -1.7957
  153OSM   H14T17042   5.983   2.058   4.055 -2.4843  0.1488 -4.3841
  153OSM   C15S17043   5.891   2.214   4.189 -0.3002 -0.1142  0.5280
  153OSM   H15S17044   5.786   2.228   4.154 -0.6811 -1.6918  0.9919
  153OSM   H15T17045   5.934   2.316   4.197  0.2288 -0.1942 -0.9749
  153OSM   C16S17046   5.888   2.135   4.318 -0.4700  0.3323 -0.3145
  153OSM   H16S17047   5.880   2.029   4.285 -1.7687 -0.1163  1.3360
  153OSM   H16T17048   5.796   2.148   4.378 -2.1572  1.0967 -2.9211
  153OSM   C17S17049   6.012   2.155   4.415  0.5332 -0.2715  0.0114
  153OSM   H17S17050   6.033   2.263   4.429 -1.0342 -0.0749  1.1603
  153OSM   H17T17051   6.099   2.114   4.360 -0.3553 -0.2503 -1.4538
  153OSM   C18S17052   6.007   2.096   4.554  0.5883  0.1836  0.0574
  153OSM   H18S17053   6.094   2.136   4.612 -0.2139  2.0155  0.0817
  153OSM   H18T17054   6.015   1.987   4.533  1.5024  0.2021  0.2697
  153OSM   H18U17055   5.909   2.124   4.598  1.3149 -0.2051  2.0624
  153OSM    C1F17056   5.883   2.888   3.059  0.5505 -0.1982 -0.7624
  153OSM     OF17057   5.761   2.906   3.053  0.0251 -0.3186  0.7081
  153OSM    C2F17058   5.982   2.974   3.132 -0.9708 -0.0635 -0.7322
  153OSM    H2F17059   5.997   3.070   3.079  0.7717 -0.5714 -1.2279
  153OSM    H2G17060   6.075   2.913   3.126 -0.9858 -0.6414  2.7232
  153OSM    C3F17061   5.942   2.989   3.283  0.2339  0.0021  0.4656
  153OSM    H3F17062   5.845   3.043   3.279 -1.9496 -3.6695 -0.5497
  153OSM    H3G17063   6.030   3.040   3.328  1.9578 -2.0655 -0.4125
  153OSM    C4F17064   5.927   2.861   3.354  0.2200  0.3763 -0.7249
  153OSM    H4F17065   6.016   2.796   3.344  1.1570  1.4445  0.4706
  153OSM    H4G17066   5.850   2.796   3.306  0.4027 -1.8588  1.7639
  153OSM    C5F17067   5.882   2.883   3.502 -0.4377  0.2971  0.2546
  153OSM    H5F17068   5.780   2.924   3.515 -1.1424 -1.7480  1.7534
  153OSM    H5G17069   5.955   2.955   3.545 -0.9738  0.5102  0.8250
  153OSM    C6F17070   5.905   2.746   3.580 -0.6623  0.6425 -0.3673
  153OSM    H6F17071   6.010   2.715   3.562  0.1710  3.2435 -0.3171
  153OSM    H6G17072   5.837   2.670   3.535 -0.5960  0.3370  0.0444
  153OSM    C7F17073   5.865   2.759   3.724  0.0322  0.6476  0.2296
  153OSM    H7F17074   5.755   2.775   3.721 -0.1320 -0.2313  1.0186
  153OSM    H7G17075   5.893   2.853   3.776 -1.7077  2.3974 -1.8082
  153OSM    C8F17076   5.898   2.631   3.816  0.4770 -0.3616 -0.3106
  153OSM    H8F17077   5.873   2.545   3.750 -0.1092 -0.2796 -0.1980
  153OSM    H8G17078   5.839   2.626   3.910  1.6725 -0.5260  0.4569
  153OSM    C9F17079   6.046   2.618   3.836 -0.3871  0.6967 -0.1592
  153OSM    H9F17080   6.104   2.564   3.760 -1.6530 -3.5712  1.5943
  153OSM   C10F17081   6.111   2.686   3.930 -0.3415  0.5433 -0.8604
  153OSM   H10F17082   6.221   2.681   3.931 -0.2289  2.3531 -0.7351
  153OSM   C11F17083   6.044   2.765   4.052 -0.5547  0.1107  0.6786
  153OSM   H11F17084   5.934   2.758   4.044 -0.5251  0.3701  0.0081
  153OSM   H11G17085   6.072   2.872   4.039 -0.2955  0.0014  0.3052
  153OSM   C12F17086   6.079   2.729   4.197 -0.1657 -0.3054  0.7821
  153OSM   H12F17087   6.035   2.806   4.264 -0.0399 -0.4095  0.9866
  153OSM   H12G17088   6.189   2.744   4.212 -0.0168 -1.7033  1.1882
  153OSM   C13F17089   6.047   2.585   4.238  0.2326 -0.4333  0.1677
  153OSM   H13F17090   6.101   2.520   4.167  2.7334  1.1995  0.4624
  153OSM   H13G17091   5.936   2.573   4.241  0.1121 -0.0561 -1.7255
  153OSM   C14F17092   6.086   2.549   4.393 -0.0761 -0.6125  0.9881
  153OSM   H14F17093   6.195   2.572   4.397 -0.5590  2.1088  0.5722
  153OSM   H14G17094   6.058   2.445   4.423 -0.9980 -0.1618  1.7473
  153OSM   C15F17095   5.999   2.631   4.494 -0.7327  0.4623  0.8789
  153OSM   H15F17096   5.890   2.612   4.490 -0.4502 -1.8512  2.2746
  153OSM   H15G17097   6.015   2.741   4.490  1.4677  0.1344 -1.0425
  153OSM   C16F17098   6.029   2.588   4.642 -0.5620 -0.2522  0.7503
  153OSM   H16F17099   6.121   2.638   4.677 -1.3841  0.6429  1.7277
  153OSM   H16G17100   6.042   2.478   4.638  3.0398  0.0977 -1.4652
  153OSM   C17F17101   5.925   2.638   4.742  0.2714 -0.4344  0.8093
  153OSM   H17F17102   5.824   2.613   4.704  1.6976 -2.8766 -1.6802
  153OSM   H17G17103   5.939   2.748   4.741 -0.5658 -0.3128 -1.1351
  153OSM   C18F17104   5.934   2.594   4.883 -0.6925 -0.0786  0.3961
  153OSM   H18F17105   5.830   2.608   4.919 -0.1575  0.3292  1.8670
  153OSM   H18G17106   5.993   2.661   4.949  1.2207 -1.9681  0.7525
  153OSM   H18H17107   5.966   2.489   4.904 -0.8794  0.0436  1.3030
  154OSM      N17108   4.360   6.105   2.079  0.0212  0.6588 -0.0292
  154OSM    C1517109   4.487   6.176   2.120 -0.3746 -0.0176  0.3317
  154OSM   H15A17110   4.482   6.280   2.093  0.5531 -0.4152 -1.5873
  154OSM   H15B17111   4.573   6.129   2.075 -0.6753 -1.0249  0.7748
  154OSM   H15C17112   4.492   6.182   2.228  0.5172  0.3574  0.2784
  154OSM    C1417113   4.342   6.136   1.938 -0.4702  0.2634 -0.3342
  154OSM   H14A17114   4.253   6.096   1.894 -1.3505  1.1728  0.5702
  154OSM   H14B17115   4.425   6.096   1.881 -1.9876 -1.3550 -1.4820
  154OSM   H14C17116   4.338   6.243   1.922  2.5528  0.6988  0.9675
  154OSM    C1317117   4.393   5.960   2.092  0.3312  0.0844 -0.1200
  154OSM   H13A17118   4.430   5.943   2.192  0.1930  0.4386 -0.0055
  154OSM   H13B17119   4.474   5.923   2.032  1.6387  0.5314  1.3068
  154OSM   H13C17120   4.313   5.894   2.063 -0.1144  0.6019 -0.0967
  154OSM    C1217121   4.251   6.155   2.167  0.1010 -0.6476 -0.4328
  154OSM   H12A17122   4.153   6.122   2.138 -0.1894  1.2743 -1.8008
  154OSM   H12B17123   4.247   6.262   2.152 -0.7173 -0.7351 -0.9079
  154OSM    C1117124   4.262   6.126   2.317  0.7336  0.2763 -0.3614
  154OSM   H11A17125   4.302   6.023   2.329  0.1695  0.1591  0.6070
  154OSM   H11B17126   4.162   6.116   2.363  1.1428  0.4417  0.5967
  154OSM      P17127   4.302   6.372   2.413  0.0549 -0.4005 -0.4507
  154OSM    O1317128   4.376   6.428   2.531 -0.6507  0.4369 -0.2893
  154OSM    O1417129   4.324   6.453   2.291 -0.1266 -0.5869  0.1399
  154OSM    O1117130   4.143   6.376   2.442  0.1001  0.0193  0.3839
  154OSM    O1217131   4.349   6.222   2.382  0.6867 -0.3736 -0.2250
  154OSM    C1S17132   4.094   6.308   2.555 -0.5672  0.3081 -0.0641
  154OSM    H1S17133   4.159   6.224   2.587  1.5722  1.3136 -1.4899
  154OSM    H1T17134   3.999   6.257   2.527  1.1578 -2.7445 -0.8018
  154OSM     NF17135   4.025   6.324   2.793  0.2895  0.9204  0.5436
  154OSM    HNF17136   3.927   6.324   2.815 -0.2367 -0.9063 -1.3925
  154OSM    C2S17137   4.062   6.395   2.670  0.3592  0.1301 -0.8805
  154OSM    H2S17138   4.159   6.439   2.703  0.7491 -2.1826  1.3088
  154OSM    C3S17139   3.969   6.503   2.631  0.2577  0.4133 -0.9844
  154OSM    H3S17140   3.880   6.445   2.598 -0.8068  0.7265  1.1458
  154OSM     O317141   4.010   6.589   2.527  0.5202  0.6058 -0.1453
  154OSM    HO317142   4.091   6.549   2.492 -0.8710 -1.5027 -1.1646
  154OSM    C4S17143   3.917   6.595   2.747 -0.1654  0.0685  0.3317
  154OSM    H4S17144   3.989   6.669   2.785  0.1422 -0.9387  1.7843
  154OSM    C5S17145   3.791   6.597   2.794  0.1060 -0.2320 -0.7317
  154OSM    H5S17146   3.715   6.533   2.747 -0.4041 -0.2931  0.1512
  154OSM    C6S17147   3.733   6.681   2.904 -0.4591 -0.3949 -0.7712
  154OSM    H6S17148   3.649   6.624   2.950  0.7258 -1.3942  0.2474
  154OSM    H6T17149   3.711   6.784   2.871  4.1449  1.0237 -0.2069
  154OSM    C7S17150   3.827   6.713   3.025  0.2635 -0.2399 -0.1536
  154OSM    H7S17151   3.773   6.793   3.080 -1.6839 -0.4478 -1.6408
  154OSM    H7T17152   3.926   6.748   2.990 -0.1176 -0.4667 -1.5339
  154OSM    C8S17153   3.856   6.602   3.122  0.1949 -0.4014  0.4233
  154OSM    H8S17154   3.904   6.514   3.072  0.2550 -0.1825  0.0933
  154OSM    H8T17155   3.755   6.574   3.157 -1.2858 -0.1308 -3.1779
  154OSM    C9S17156   3.940   6.644   3.239  0.3503 -0.1878 -0.5893
  154OSM    H9S17157   3.894   6.728   3.295  1.5758 -0.0769  0.3005
  154OSM    H9T17158   4.034   6.685   3.197  0.2034 -1.3089 -2.0722
  154OSM   C10S17159   3.978   6.535   3.343 -0.1950 -0.0718  0.5880
  154OSM   H10S17160   4.029   6.448   3.297 -0.2454 -0.0353  0.4601
  154OSM   H10T17161   3.880   6.495   3.378 -0.0389 -1.0641 -0.0729
  154OSM   C11S17162   4.067   6.576   3.459  0.9432  0.0135  0.7016
  154OSM   H11S17163   4.158   6.618   3.411  1.0854 -3.0846 -2.1227
  154OSM   H11T17164   4.088   6.482   3.515  1.5413 -1.3073 -1.6197
  154OSM   C12S17165   4.009   6.672   3.558 -0.7355 -0.7094  0.6349
  154OSM   H12S17166   3.910   6.634   3.593 -0.5198  0.3116  2.5222
  154OSM   H12T17167   3.985   6.762   3.497  1.4096  1.6257  3.0005
  154OSM   C13S17168   4.103   6.700   3.673 -0.0930 -0.3539  0.8766
  154OSM   H13S17169   4.202   6.745   3.650  0.9753 -3.3296 -0.9206
  154OSM   H13T17170   4.128   6.610   3.734  1.4371  1.1262  2.5470
  154OSM   C14S17171   4.034   6.793   3.773 -0.4725  1.0406  0.3195
  154OSM   H14S17172   3.937   6.746   3.799  0.0222  0.2198  0.7347
  154OSM   H14T17173   4.013   6.894   3.731 -0.3867  0.1361 -2.0886
  154OSM   C15S17174   4.107   6.825   3.907 -0.2145  0.2722  0.6546
  154OSM   H15S17175   4.209   6.859   3.879 -0.2630 -1.4237 -1.9985
  154OSM   H15T17176   4.108   6.726   3.959  1.6676 -1.9567 -3.1177
  154OSM   C16S17177   4.025   6.920   3.991  0.4399 -0.5483 -0.9091
  154OSM   H16S17178   3.924   6.890   4.027  1.5905  0.5939  3.9778
  154OSM   H16T17179   4.019   7.016   3.935 -2.9237  0.4090  0.8087
  154OSM   C17S17180   4.090   6.961   4.126  0.3640 -0.0906 -0.4766
  154OSM   H17S17181   4.037   7.053   4.160 -0.4328 -0.1965 -1.3860
  154OSM   H17T17182   4.195   6.995   4.113  0.4315  0.2802  0.9428
  154OSM   C18S17183   4.080   6.840   4.226  0.3136 -0.2294  0.3047
  154OSM   H18S17184   4.146   6.852   4.315  1.5767 -2.4925 -0.2584
  154OSM   H18T17185   4.116   6.755   4.165  0.4138 -1.1778  1.6323
  154OSM   H18U17186   3.976   6.816   4.259  0.7722 -1.5172  0.8478
  154OSM    C1F17187   4.111   6.250   2.861 -0.3172 -0.0991  0.1086
  154OSM     OF17188   4.224   6.230   2.817 -0.2610 -0.1137  0.0275
  154OSM    C2F17189   4.065   6.192   2.993 -0.0391  0.0727  0.1567
  154OSM    H2F17190   4.045   6.084   2.975 -0.8015  0.0855  0.8453
  154OSM    H2G17191   3.974   6.238   3.037  0.1279 -0.8668  1.5772
  154OSM    C3F17192   4.174   6.198   3.101 -0.0667  0.2791  0.1976
  154OSM    H3F17193   4.201   6.305   3.111 -1.0106  0.4805  0.6980
  154OSM    H3G17194   4.267   6.143   3.078  0.8269 -0.3517  4.4012
  154OSM    C4F17195   4.125   6.143   3.233 -0.4628  0.3619 -0.0509
  154OSM    H4F17196   4.110   6.033   3.227  0.6127  0.0228  2.1625
  154OSM    H4G17197   4.025   6.188   3.249 -0.1730  0.4822  1.6746
  154OSM    C5F17198   4.214   6.170   3.351 -0.4243  0.0610  0.0993
  154OSM    H5F17199   4.244   6.277   3.358  2.5299 -0.5725 -1.2929
  154OSM    H5G17200   4.313   6.124   3.334 -1.1266 -0.9713 -1.4088
  154OSM    C6F17201   4.159   6.110   3.482 -0.6893 -0.3269  0.3007
  154OSM    H6F17202   4.148   6.000   3.471  0.5107 -0.5481  1.0253
  154OSM    H6G17203   4.057   6.147   3.506  0.0795  2.0919  0.1918
  154OSM    C7F17204   4.241   6.144   3.609 -0.3436  0.0026  0.4808
  154OSM    H7F17205   4.345   6.111   3.589 -0.3115 -0.4391  1.3308
  154OSM    H7G17206   4.215   6.072   3.689  0.6494  0.4891  1.2771
  154OSM    C8F17207   4.233   6.285   3.667  0.1371  0.2172  0.1978
  154OSM    H8F17208   4.261   6.356   3.586  1.2309  0.1722  0.5151
  154OSM    H8G17209   4.327   6.292   3.726  0.4380 -0.2266 -0.2257
  154OSM    C9F17210   4.108   6.319   3.742 -0.4568  0.3066  0.5462
  154OSM    H9F17211   4.018   6.302   3.683 -1.6028  1.1559  1.9691
  154OSM   C10F17212   4.104   6.356   3.870  0.6672  1.3552  0.2809
  154OSM   H10F17213   4.006   6.371   3.919  1.3620  1.7807  1.5824
  154OSM   C11F17214   4.232   6.366   3.947  0.1995  0.0075  0.6182
  154OSM   H11F17215   4.303   6.433   3.893  1.9068 -2.8979 -0.9956
  154OSM   H11G17216   4.267   6.261   3.958 -2.1018 -0.5943  3.4535
  154OSM   C12F17217   4.206   6.413   4.091  1.3080 -0.6323  0.2298
  154OSM   H12F17218   4.135   6.335   4.126  0.1351 -0.1787 -1.0488
  154OSM   H12G17219   4.143   6.505   4.094  1.1258 -0.7644  0.5271
  154OSM   C13F17220   4.334   6.435   4.173 -0.8223  0.2577 -0.4559
  154OSM   H13F17221   4.308   6.466   4.276 -0.6427  0.1578 -0.3804
  154OSM   H13G17222   4.389   6.515   4.119 -0.4049 -1.1614 -2.2234
  154OSM   C14F17223   4.427   6.307   4.185  0.1566 -0.2739  0.7282
  154OSM   H14F17224   4.530   6.346   4.201  0.3873 -0.3694 -0.4092
  154OSM   H14G17225   4.436   6.259   4.085 -0.5206  0.1540  0.4517
  154OSM   C15F17226   4.395   6.207   4.294 -0.2003  0.4917 -0.0693
  154OSM   H15F17227   4.292   6.165   4.301  0.5226 -1.2043  0.9544
  154OSM   H15G17228   4.424   6.265   4.384 -2.4754  0.2620  0.9042
  154OSM   C16F17229   4.469   6.067   4.284 -0.1984 -0.5279  0.1057
  154OSM   H16F17230   4.572   6.089   4.249 -1.1483 -1.0750 -3.3074
  154OSM   H16G17231   4.419   6.002   4.209 -0.7138  0.4211 -0.3943
  154OSM   C17F17232   4.473   5.998   4.420  0.0308  0.5497 -0.1538
  154OSM   H17F17233   4.371   5.955   4.428  0.4901 -1.4701 -3.2511
  154OSM   H17G17234   4.506   6.064   4.503  3.9271  1.0115 -1.8416
  154OSM   C18F17235   4.568   5.873   4.423 -0.1377 -0.5805  0.5313
  154OSM   H18F17236   4.569   5.819   4.325 -0.1138 -4.2967  2.3943
  154OSM   H18G17237   4.536   5.802   4.502 -0.5399 -0.1147  0.7937
  154OSM   H18H17238   4.670   5.912   4.444 -0.0892 -0.4131 -0.0011
  155OSM      N17239   1.825   5.903   1.999 -0.1152  0.3229  0.3008
  155OSM    C1517240   1.775   5.763   2.016  0.5875 -0.0923  0.5369
  155OSM   H15A17241   1.670   5.761   2.042  0.4449  0.4794  0.0251
  155OSM   H15B17242   1.833   5.706   2.087  0.6120 -1.3655 -0.4832
  155OSM   H15C17243   1.778   5.715   1.920 -0.9148  0.6130  0.1043
  155OSM    C1417244   1.970   5.889   1.951 -0.8764 -0.0217 -0.1862
  155OSM   H14A17245   1.969   5.837   1.856  0.1480 -2.2426  0.9397
  155OSM   H14B17246   2.024   5.832   2.025  0.8569  1.3902 -0.3083
  155OSM   H14C17247   2.010   5.989   1.950  1.0857 -0.7580 -1.8424
  155OSM    C1317248   1.744   5.959   1.896  0.3690 -0.2533 -0.4137
  155OSM   H13A17249   1.750   5.897   1.808  0.9966 -2.5809  1.1713
  155OSM   H13B17250   1.767   6.063   1.878 -3.2691  0.6066 -0.8555
  155OSM   H13C17251   1.644   5.950   1.936  0.7533  0.4676  0.7701
  155OSM    C1217252   1.802   5.974   2.137 -0.2921  0.7354  0.1661
  155OSM   H12A17253   1.708   5.945   2.181 -0.3363 -0.0265 -0.4009
  155OSM   H12B17254   1.801   6.082   2.129 -0.3273  0.7169 -0.0818
  155OSM    C1117255   1.907   5.942   2.249  0.6835  0.6870  0.7799
  155OSM   H11A17256   1.890   6.002   2.340  1.3187  0.1726  1.2461
  155OSM   H11B17257   1.995   5.987   2.198 -0.0428  1.9986  0.6438
  155OSM      P17258   2.049   5.734   2.283 -0.4806  0.3199  0.4132
  155OSM    O1317259   2.025   5.613   2.356 -0.4845 -0.1589 -0.5475
  155OSM    O1417260   2.102   5.713   2.149 -0.8380  0.1512 -0.1641
  155OSM    O1117261   2.144   5.830   2.358 -0.3953 -0.1439  0.1997
  155OSM    O1217262   1.911   5.799   2.275  0.0908  0.1806 -0.0344
  155OSM    C1S17263   2.124   5.898   2.486 -0.4521  0.3557  0.4303
  155OSM    H1S17264   2.016   5.897   2.511  0.0500 -0.1433  2.7880
  155OSM    H1T17265   2.171   5.998   2.483 -0.4087  0.3214 -1.1182
  155OSM     NF17266   2.137   5.883   2.734 -0.2383  0.2137 -0.0092
  155OSM    HNF17267   2.200   5.939   2.788  0.0623 -2.4451  2.6995
  155OSM    C2S17268   2.180   5.815   2.610  0.8232 -0.9278  0.2411
  155OSM    H2S17269   2.144   5.710   2.605 -5.1668  0.7752 -0.4622
  155OSM    C3S17270   2.332   5.799   2.596 -0.5730  0.5693  0.6103
  155OSM    H3S17271   2.364   5.905   2.583 -1.9889  1.2065  1.9573
  155OSM     O317272   2.370   5.744   2.467 -0.5894  0.1247  0.0768
  155OSM    HO317273   2.290   5.747   2.414  0.2911  0.7076 -1.2669
  155OSM    C4S17274   2.397   5.729   2.709  0.4235  0.3813 -1.0460
  155OSM    H4S17275   2.417   5.796   2.794 -1.0608  0.5145 -0.7838
  155OSM    C5S17276   2.402   5.595   2.720  0.3938  0.4715 -0.1712
  155OSM    H5S17277   2.358   5.537   2.637  1.1236  0.5805 -0.6359
  155OSM    C6S17278   2.461   5.519   2.842  0.4066  0.2465 -0.1481
  155OSM    H6S17279   2.533   5.587   2.893 -0.1150  0.4466  0.3433
  155OSM    H6T17280   2.515   5.430   2.805 -4.2245 -2.7584 -0.5677
  155OSM    C7S17281   2.354   5.486   2.950  0.7752 -0.0139 -0.0744
  155OSM    H7S17282   2.300   5.399   2.907 -0.2183  1.0631 -1.0716
  155OSM    H7T17283   2.285   5.567   2.983  1.6457  0.5526  0.4067
  155OSM    C8S17284   2.426   5.439   3.078  0.1631  0.4632 -0.2684
  155OSM    H8S17285   2.496   5.520   3.107  0.4085  0.1584  0.0001
  155OSM    H8T17286   2.488   5.351   3.051  0.4594 -0.2296  2.3337
  155OSM    C9S17287   2.330   5.414   3.190  0.2258 -0.1938  0.1206
  155OSM    H9S17288   2.252   5.342   3.157  0.0760  0.0085  0.0340
  155OSM    H9T17289   2.276   5.506   3.221  0.1967  0.0614 -0.6522
  155OSM   C10S17290   2.401   5.350   3.318  0.4350 -0.0822  0.8394
  155OSM   H10S17291   2.457   5.430   3.373  1.5586  0.2334 -0.6909
  155OSM   H10T17292   2.477   5.284   3.270 -0.3838  0.0574 -0.6847
  155OSM   C11S17293   2.298   5.288   3.418 -0.0853  0.0525  0.5868
  155OSM   H11S17294   2.355   5.226   3.491 -2.6975 -0.8617  1.9841
  155OSM   H11T17295   2.234   5.212   3.368 -1.6274  2.1579 -0.8042
  155OSM   C12S17296   2.215   5.382   3.505 -0.1053  0.2115  0.5458
  155OSM   H12S17297   2.128   5.324   3.541 -1.0984  0.4117 -1.4117
  155OSM   H12T17298   2.174   5.467   3.446  2.4461  1.5338  0.5023
  155OSM   C13S17299   2.296   5.436   3.616  0.0479  0.0982 -0.6296
  155OSM   H13S17300   2.364   5.519   3.589 -1.4220  1.6655  0.2999
  155OSM   H13T17301   2.366   5.355   3.647 -0.3985  0.2222  0.7826
  155OSM   C14S17302   2.212   5.495   3.736 -0.0511 -0.1393  1.0210
  155OSM   H14S17303   2.134   5.420   3.760  0.7611 -0.5627  2.4159
  155OSM   H14T17304   2.158   5.585   3.700 -2.0782 -1.0136  1.7427
  155OSM   C15S17305   2.297   5.528   3.863  0.6056  0.7561 -0.3729
  155OSM   H15S17306   2.363   5.614   3.839  0.4142  1.8433  2.5773
  155OSM   H15T17307   2.350   5.433   3.887 -1.6124 -0.1164  1.4946
  155OSM   C16S17308   2.202   5.558   3.979  0.6719 -0.2692 -1.0310
  155OSM   H16S17309   2.111   5.496   3.964  0.6511 -0.9779  1.4779
  155OSM   H16T17310   2.163   5.660   3.963 -1.0395 -0.8708 -0.8778
  155OSM   C17S17311   2.264   5.538   4.117 -0.1248 -0.2392 -0.9520
  155OSM   H17S17312   2.358   5.598   4.119 -1.7667  2.4894  0.1283
  155OSM   H17T17313   2.289   5.430   4.120 -2.1715 -0.7324 -0.3684
  155OSM   C18S17314   2.164   5.576   4.229 -0.2621  0.2588 -0.8989
  155OSM   H18S17315   2.066   5.534   4.199 -0.5498  0.7998 -0.7270
  155OSM   H18T17316   2.160   5.687   4.230  1.7078  0.3648  0.5786
  155OSM   H18U17317   2.202   5.536   4.325 -0.3561  0.7680 -0.6459
  155OSM    C1F17318   2.006   5.886   2.768  0.0682 -0.5045 -0.3270
  155OSM     OF17319   1.934   5.805   2.714  0.0106 -0.7000 -0.1998
  155OSM    C2F17320   1.948   5.982   2.864 -0.1755 -0.6375  0.8870
  155OSM    H2F17321   1.882   5.928   2.936  1.0040 -0.9127  1.7866
  155OSM    H2G17322   1.886   6.059   2.813  2.5656  1.5286  0.5950
  155OSM    C3F17323   2.051   6.070   2.947 -0.7746 -0.4218  0.1633
  155OSM    H3F17324   2.097   6.140   2.874 -3.1626 -1.1007 -2.1262
  155OSM    H3G17325   2.115   5.991   2.992 -5.1869 -3.2381  2.1250
  155OSM    C4F17326   1.982   6.137   3.069  0.1521  0.4551  0.0419
  155OSM    H4F17327   1.933   6.057   3.128 -1.6044  0.0267 -1.8571
  155OSM    H4G17328   1.919   6.218   3.025  0.8109  0.4505 -0.9571
  155OSM    C5F17329   2.079   6.198   3.174 -0.2198  0.1778  0.4671
  155OSM    H5F17330   2.149   6.271   3.128  0.9448  0.5599  2.7434
  155OSM    H5G17331   2.140   6.109   3.202  1.8265  1.3882  0.0560
  155OSM    C6F17332   2.022   6.259   3.301  0.0709  0.0766  0.2074
  155OSM    H6F17333   1.975   6.184   3.368  2.5818 -1.1305  0.7225
  155OSM    H6G17334   1.943   6.330   3.266 -0.0323 -0.7537 -1.3522
  155OSM    C7F17335   2.117   6.343   3.380 -0.6481 -0.5912  0.3892
  155OSM    H7F17336   2.077   6.416   3.454  1.3546  1.5774 -0.5322
  155OSM    H7G17337   2.174   6.397   3.302  0.9119  0.4917  2.1766
  155OSM    C8F17338   2.208   6.244   3.464 -0.5376 -0.0022  0.0488
  155OSM    H8F17339   2.209   6.148   3.408  0.1089  0.6242 -1.0503
  155OSM    H8G17340   2.174   6.217   3.566  0.8430  1.9159  1.0758
  155OSM    C9F17341   2.342   6.302   3.489 -0.6202  0.1036  0.3194
  155OSM    H9F17342   2.413   6.281   3.408  1.3805 -0.0080  2.0364
  155OSM   C10F17343   2.376   6.393   3.583 -0.1902 -0.5409 -0.5396
  155OSM   H10F17344   2.477   6.433   3.594 -0.0036 -1.6288  3.6718
  155OSM   C11F17345   2.291   6.444   3.691 -0.1338 -0.0817 -0.0964
  155OSM   H11F17346   2.184   6.414   3.687  0.1640 -1.9652  2.6663
  155OSM   H11G17347   2.302   6.554   3.676 -1.7238  0.6053  2.7981
  155OSM   C12F17348   2.330   6.387   3.822 -0.0438  0.3227 -0.2649
  155OSM   H12F17349   2.437   6.402   3.847  0.2077  0.8673 -1.5510
  155OSM   H12G17350   2.318   6.277   3.829 -0.2212  0.4634  2.5312
  155OSM   C13F17351   2.245   6.441   3.939 -0.2173  0.2919 -0.1959
  155OSM   H13F17352   2.138   6.413   3.924  0.5482 -1.7628 -2.7233
  155OSM   H13G17353   2.256   6.551   3.935  0.3937  0.2313 -0.2141
  155OSM   C14F17354   2.302   6.389   4.072  0.0247  0.4800  1.1580
  155OSM   H14F17355   2.408   6.422   4.078  0.4524 -0.3476 -1.0183
  155OSM   H14G17356   2.298   6.278   4.081  0.9714  0.3193 -0.1699
  155OSM   C15F17357   2.223   6.446   4.196  0.2818  0.0654 -0.5271
  155OSM   H15F17358   2.122   6.401   4.205  1.0207 -1.5152  0.2140
  155OSM   H15G17359   2.205   6.554   4.176  0.2248  0.0921 -0.3324
  155OSM   C16F17360   2.300   6.428   4.331  0.1813 -0.0778  0.8769
  155OSM   H16F17361   2.401   6.472   4.328  0.5490 -0.9159  0.4067
  155OSM   H16G17362   2.301   6.321   4.362 -0.5308  0.0486  1.3573
  155OSM   C17F17363   2.225   6.500   4.445 -0.0165 -0.3522 -0.2295
  155OSM   H17F17364   2.118   6.471   4.453 -0.2232  0.6860  1.2719
  155OSM   H17G17365   2.251   6.607   4.428  3.1448 -1.0252 -0.1667
  155OSM   C18F17366   2.293   6.459   4.582  0.0782  0.9652  0.3660
  155OSM   H18F17367   2.265   6.527   4.665  1.4893 -0.4014  2.0382
  155OSM   H18G17368   2.403   6.466   4.568  0.1630 -1.1178 -0.4731
  155OSM   H18H17369   2.276   6.352   4.607  1.3228  1.2992  2.9626
  156OSM      N17370   0.940   3.898   2.119  0.0458 -0.2865  0.1704
  156OSM    C1517371   1.048   3.820   2.040 -0.0152 -0.1800  0.8279
  156OSM   H15A17372   1.014   3.732   1.987  0.2777  0.2948 -0.1756
  156OSM   H15B17373   1.121   3.782   2.109  1.1710  0.4822 -0.0309
  156OSM   H15C17374   1.102   3.887   1.974 -2.8071  0.8984 -0.5716
  156OSM    C1417375   0.992   4.034   2.152  0.0820 -0.1029  0.0426
  156OSM   H14A17376   0.966   4.117   2.087  1.9586  0.8252  0.4075
  156OSM   H14B17377   1.097   4.030   2.176  0.5361  0.1910 -1.7291
  156OSM   H14C17378   0.934   4.069   2.236 -1.5809 -2.4213 -0.0670
  156OSM    C1317379   0.826   3.916   2.027 -0.0289 -0.0308 -0.3260
  156OSM   H13A17380   0.737   3.965   2.061  0.6601  0.2786  1.1021
  156OSM   H13B17381   0.797   3.817   1.993 -0.2800  0.1567 -0.6557
  156OSM   H13C17382   0.863   3.969   1.941 -0.2947 -0.8420 -0.9597
  156OSM    C1217383   0.883   3.828   2.247  0.3666  0.0221 -0.0307
  156OSM   H12A17384   0.851   3.730   2.216 -1.3172  0.4953  0.0883
  156OSM   H12B17385   0.785   3.865   2.275 -0.5304 -2.5571  0.4915
  156OSM    C1117386   0.982   3.816   2.365 -0.6599  0.5653  0.0557
  156OSM   H11A17387   0.921   3.779   2.451  1.1988  0.0766  1.2113
  156OSM   H11B17388   1.028   3.915   2.381  1.7532 -0.0222 -2.5063
  156OSM      P17389   1.062   3.567   2.294  0.3201  0.1604 -0.0040
  156OSM    O1317390   0.930   3.543   2.235  0.1394  0.2358 -0.3028
  156OSM    O1417391   1.177   3.518   2.214  0.2060  0.2474  0.4941
  156OSM    O1117392   1.071   3.500   2.439  0.2207 -0.5814  0.0501
  156OSM    O1217393   1.078   3.716   2.321  0.0881  0.4947 -0.4522
  156OSM    C1S17394   1.181   3.547   2.519  0.4088  0.2908  0.7655
  156OSM    H1S17395   1.181   3.657   2.530  2.9226  0.3864  0.3078
  156OSM    H1T17396   1.279   3.517   2.478 -0.3716 -1.3892  0.0191
  156OSM     NF17397   1.257   3.562   2.757 -0.3734 -0.2854  0.4936
  156OSM    HNF17398   1.334   3.520   2.804  0.8059  1.2847  0.0203
  156OSM    C2S17399   1.174   3.485   2.665 -0.1843 -0.5695 -0.3583
  156OSM    H2S17400   1.070   3.488   2.705 -0.1932 -1.8678 -0.2483
  156OSM    C3S17401   1.208   3.330   2.663 -0.4134 -0.2807 -0.2538
  156OSM    H3S17402   1.310   3.316   2.623  0.0395 -1.6163  1.2688
  156OSM     O317403   1.118   3.264   2.573 -0.0860  0.5368 -1.1996
  156OSM    HO317404   1.117   3.335   2.509  1.1653  2.1626  0.4471
  156OSM    C4S17405   1.212   3.264   2.799 -0.6834  0.2822  0.6112
  156OSM    H4S17406   1.308   3.212   2.815 -0.7858 -0.1530 -0.1629
  156OSM    C5S17407   1.115   3.249   2.890 -0.7905 -0.7866 -0.1510
  156OSM    H5S17408   1.017   3.293   2.866 -0.4687  0.5220  0.7930
  156OSM    C6S17409   1.134   3.185   3.022 -0.0181  0.4486  0.5543
  156OSM    H6S17410   1.211   3.105   3.015  0.4858  1.0628 -1.7702
  156OSM    H6T17411   1.038   3.143   3.059  0.6848 -0.8464  0.9973
  156OSM    C7S17412   1.184   3.285   3.130 -0.6507  0.4062  0.0727
  156OSM    H7S17413   1.108   3.366   3.137 -0.9389  0.5326 -2.9724
  156OSM    H7T17414   1.279   3.326   3.088 -0.3404 -0.4182 -0.0613
  156OSM    C8S17415   1.210   3.219   3.266  0.1085 -0.2521 -0.2363
  156OSM    H8S17416   1.273   3.128   3.257  2.7377  1.0860  2.7888
  156OSM    H8T17417   1.108   3.186   3.295 -0.0440 -1.1630 -1.6982
  156OSM    C9S17418   1.260   3.319   3.372  0.4830 -0.3616 -0.5003
  156OSM    H9S17419   1.188   3.403   3.383  0.1312 -0.7582  0.2567
  156OSM    H9T17420   1.358   3.367   3.351 -0.3994  1.1656 -1.2753
  156OSM   C10S17421   1.275   3.257   3.509  0.2384 -0.4333  0.4567
  156OSM   H10S17422   1.317   3.155   3.499  0.1686 -0.6184  1.9031
  156OSM   H10T17423   1.175   3.244   3.556  0.1682  0.9626  0.7496
  156OSM   C11S17424   1.360   3.332   3.608  0.5167  0.0143 -0.5138
  156OSM   H11S17425   1.328   3.438   3.603 -0.8359 -0.2799  0.9411
  156OSM   H11T17426   1.468   3.326   3.583  0.9677 -0.5477  1.3712
  156OSM   C12S17427   1.349   3.277   3.749  0.1837 -0.7019  0.3233
  156OSM   H12S17428   1.398   3.178   3.761 -0.6925 -1.1241  0.5373
  156OSM   H12T17429   1.248   3.247   3.786  1.5320 -3.7043  1.8536
  156OSM   C13S17430   1.411   3.363   3.858 -0.5171 -0.5589 -0.2839
  156OSM   H13S17431   1.369   3.466   3.861  0.7787  0.0772 -1.8503
  156OSM   H13T17432   1.519   3.380   3.836 -0.2111 -1.3094  0.5697
  156OSM   C14S17433   1.400   3.293   3.996 -0.4332  0.3912  0.3779
  156OSM   H14S17434   1.439   3.190   3.980 -0.6522  0.6738 -2.4279
  156OSM   H14T17435   1.294   3.276   4.022 -0.8860 -2.3559 -2.6383
  156OSM   C15S17436   1.462   3.384   4.105  0.3826 -0.3713 -0.4011
  156OSM   H15S17437   1.426   3.341   4.201 -0.7337 -1.1477 -1.1443
  156OSM   H15T17438   1.425   3.489   4.109  0.1080 -0.4988  1.6924
  156OSM   C16S17439   1.615   3.383   4.100  0.2071 -1.1589 -0.2413
  156OSM   H16S17440   1.664   3.354   4.005 -0.0155 -2.6075  0.0569
  156OSM   H16T17441   1.639   3.298   4.167 -1.2610 -0.3302  1.4095
  156OSM   C17S17442   1.670   3.508   4.161  0.1803  0.2781  0.0836
  156OSM   H17S17443   1.650   3.588   4.087  0.0195  1.3887  1.2859
  156OSM   H17T17444   1.780   3.490   4.156  0.0572 -0.1861 -1.2671
  156OSM   C18S17445   1.633   3.542   4.305  0.5792 -0.1385 -0.1596
  156OSM   H18S17446   1.712   3.582   4.371 -0.1288 -1.3926  1.5540
  156OSM   H18T17447   1.607   3.448   4.359  2.1895 -0.8829 -0.6405
  156OSM   H18U17448   1.545   3.610   4.307  2.2933  2.1691  1.1019
  156OSM    C1F17449   1.234   3.692   2.792  0.0018  0.2845  0.9492
  156OSM     OF17450   1.138   3.756   2.756 -0.3808 -0.4235 -0.2016
  156OSM    C2F17451   1.335   3.744   2.881  0.3921  0.1266 -0.6832
  156OSM    H2F17452   1.388   3.827   2.829 -1.9786  0.9089 -1.9426
  156OSM    H2G17453   1.403   3.663   2.916 -1.2090  0.1488  2.9885
  156OSM    C3F17454   1.270   3.809   3.004 -0.0905 -0.4106  0.2032
  156OSM    H3F17455   1.211   3.896   2.967  2.1292  1.1981  0.2886
  156OSM    H3G17456   1.348   3.853   3.069  0.1567  2.1110 -1.6490
  156OSM    C4F17457   1.174   3.724   3.086 -0.7607  0.2027 -0.5435
  156OSM    H4F17458   1.220   3.624   3.099  1.8840  1.2553 -1.1579
  156OSM    H4G17459   1.084   3.701   3.024 -1.1002  0.9473 -0.3439
  156OSM    C5F17460   1.140   3.794   3.219 -0.2635 -0.5532  0.5315
  156OSM    H5F17461   1.080   3.882   3.186 -2.6301 -1.1753  2.8636
  156OSM    H5G17462   1.236   3.833   3.259 -0.4997  0.3713  0.2420
  156OSM    C6F17463   1.070   3.705   3.320  0.7604 -0.1365  0.0912
  156OSM    H6F17464   1.127   3.622   3.367  0.4605 -0.4256 -0.0493
  156OSM    H6G17465   0.987   3.652   3.268  0.8383  0.6391 -0.8582
  156OSM    C7F17466   1.010   3.789   3.437 -0.0036  0.7464  0.0724
  156OSM    H7F17467   0.947   3.720   3.498 -3.1900  1.4810 -2.1538
  156OSM    H7G17468   0.940   3.862   3.391  1.0186 -0.1867 -3.2828
  156OSM    C8F17469   1.119   3.859   3.527  0.8124 -0.6351  0.0080
  156OSM    H8F17470   1.166   3.944   3.473 -1.8325 -0.1023 -1.6225
  156OSM    H8G17471   1.201   3.784   3.541  3.2897  2.1195  1.4310
  156OSM    C9F17472   1.041   3.908   3.645  0.6869  0.4357 -0.8357
  156OSM    H9F17473   0.951   3.972   3.641  0.0293 -0.3730  0.3867
  156OSM   C10F17474   1.069   3.893   3.777 -0.1466  1.1934  0.1911
  156OSM   H10F17475   1.001   3.921   3.858  0.7323 -0.0187  1.3924
  156OSM   C11F17476   1.179   3.819   3.836  0.4592  0.7804 -0.3472
  156OSM   H11F17477   1.243   3.886   3.897  1.6693 -0.6978  0.0627
  156OSM   H11G17478   1.244   3.778   3.756  0.3639  1.1309 -0.6085
  156OSM   C12F17479   1.131   3.703   3.922  0.2292  0.1930  0.4541
  156OSM   H12F17480   1.209   3.625   3.929 -0.1375 -0.5086 -2.1931
  156OSM   H12G17481   1.055   3.642   3.867  1.6233 -1.1297 -0.0749
  156OSM   C13F17482   1.079   3.746   4.057  0.0437 -0.0155  0.3410
  156OSM   H13F17483   0.971   3.720   4.067  0.3947 -1.7116  0.0962
  156OSM   H13G17484   1.086   3.857   4.057 -1.7275  0.1524 -1.4231
  156OSM   C14F17485   1.161   3.692   4.182 -0.1621 -0.4490 -0.4772
  156OSM   H14F17486   1.267   3.710   4.156  0.5601 -1.5593  1.4923
  156OSM   H14G17487   1.155   3.582   4.167  0.5735 -0.3703 -1.4983
  156OSM   C15F17488   1.132   3.759   4.314  0.3569  0.3040 -0.3882
  156OSM   H15F17489   1.022   3.778   4.318  0.2652  0.2581 -1.8859
  156OSM   H15G17490   1.174   3.862   4.324 -1.0876  1.0607 -1.5430
  156OSM   C16F17491   1.179   3.691   4.442 -0.2783 -0.0798  0.2219
  156OSM   H16F17492   1.289   3.674   4.444 -0.4840 -1.5153  0.8754
  156OSM   H16G17493   1.129   3.592   4.432 -0.8243  0.2292 -0.1398
  156OSM   C17F17494   1.139   3.787   4.557 -0.3033  0.5952  0.2955
  156OSM   H17F17495   1.029   3.803   4.549 -0.6693 -2.0394 -1.1056
  156OSM   H17G17496   1.181   3.888   4.539 -0.4473  0.3444 -1.6971
  156OSM   C18F17497   1.171   3.736   4.697 -1.0261 -0.4217  0.5270
  156OSM   H18F17498   1.180   3.625   4.697 -0.7238 -0.3983  1.1261
  156OSM   H18G17499   1.102   3.783   4.770 -0.2196  2.1138 -0.2446
  156OSM   H18H17500   1.273   3.773   4.721  0.7237 -3.9029 -0.7938
  157OSM      N17501   1.666   4.219   2.186  0.1718  0.3201  0.0093
  157OSM    C1517502   1.595   4.237   2.312 -0.7111  0.2507 -0.2243
  157OSM   H15A17503   1.490   4.211   2.300 -0.5146 -1.1828  0.8029
  157OSM   H15B17504   1.592   4.342   2.337 -1.7242 -0.0329  0.9770
  157OSM   H15C17505   1.627   4.172   2.392  2.4325  2.0400  0.0940
  157OSM    C1417506   1.650   4.079   2.139  0.6054 -0.1154  0.0223
  157OSM   H14A17507   1.689   4.056   2.041 -0.8890  0.9226 -0.8640
  157OSM   H14B17508   1.547   4.057   2.114  0.1070 -1.1611  2.7409
  157OSM   H14C17509   1.680   4.006   2.212  2.7549  2.2023  1.6296
  157OSM    C1317510   1.606   4.305   2.081  0.1322 -0.3832 -0.4077
  157OSM   H13A17511   1.643   4.275   1.984 -1.9280 -1.9794 -0.7883
  157OSM   H13B17512   1.604   4.411   2.101 -1.5613 -0.7264  1.7001
  157OSM   H13C17513   1.498   4.295   2.079  0.0635  0.1463  0.4437
  157OSM    C1217514   1.815   4.252   2.202 -0.5539 -0.1868  0.1609
  157OSM   H12A17515   1.864   4.238   2.107  2.0196  2.4251  0.9769
  157OSM   H12B17516   1.857   4.181   2.272  1.0369  0.1969 -0.3762
  157OSM    C1117517   1.855   4.392   2.253 -0.1965  0.0928 -0.7336
  157OSM   H11A17518   1.838   4.478   2.185  3.0923  0.1435 -1.6348
  157OSM   H11B17519   1.964   4.378   2.264 -0.2755 -1.5483 -1.6433
  157OSM      P17520   1.850   4.527   2.467 -0.1290 -0.3839 -0.3116
  157OSM    O1317521   1.915   4.470   2.591 -0.0369  1.1430  0.1923
  157OSM    O1417522   1.935   4.617   2.389  0.7093  0.1073  0.2424
  157OSM    O1117523   1.722   4.603   2.524  0.1098  0.0610 -0.1031
  157OSM    O1217524   1.803   4.409   2.384 -0.3025 -0.0638  0.0898
  157OSM    C1S17525   1.610   4.541   2.573  0.2427  0.1227 -0.4251
  157OSM    H1S17526   1.584   4.445   2.523 -3.5633  1.0996 -0.6175
  157OSM    H1T17527   1.522   4.608   2.559 -0.8507 -0.6929  1.9272
  157OSM     NF17528   1.487   4.450   2.762  0.4985  0.2883  0.7251
  157OSM    HNF17529   1.413   4.508   2.795  0.4085 -0.1271  1.2567
  157OSM    C2S17530   1.609   4.514   2.729  0.5320  0.1781  0.0355
  157OSM    H2S17531   1.696   4.445   2.739 -1.9646 -3.4843 -1.5009
  157OSM    C3S17532   1.637   4.645   2.801  0.2886  0.3493 -0.0560
  157OSM    H3S17533   1.547   4.711   2.808 -0.4581 -0.6822  0.2873
  157OSM     O317534   1.733   4.727   2.743 -0.0102  0.3820  0.0356
  157OSM    HO317535   1.731   4.707   2.649 -0.7365 -2.0608  0.4982
  157OSM    C4S17536   1.678   4.612   2.947  0.1335  0.5470 -0.1701
  157OSM    H4S17537   1.774   4.558   2.956 -1.6248 -2.7557  0.3562
  157OSM    C5S17538   1.610   4.648   3.053  0.2590  0.1354  0.0750
  157OSM    H5S17539   1.507   4.681   3.036 -0.3150 -2.3269 -1.8374
  157OSM    C6S17540   1.648   4.614   3.196  0.0224 -0.2435  0.3593
  157OSM    H6S17541   1.565   4.565   3.251  0.4647 -2.2461 -0.6441
  157OSM    H6T17542   1.677   4.711   3.241 -1.3975  1.1264 -1.4825
  157OSM    C7S17543   1.759   4.507   3.215  0.6128 -0.3132  0.9203
  157OSM    H7S17544   1.853   4.538   3.163  0.0849 -1.2215 -0.6501
  157OSM    H7T17545   1.735   4.404   3.180  0.0686  0.2606 -0.5180
  157OSM    C8S17546   1.796   4.500   3.365  0.6465  0.0271 -0.6697
  157OSM    H8S17547   1.700   4.465   3.409  1.0214 -0.8927 -0.5486
  157OSM    H8T17548   1.811   4.606   3.394  1.2881 -0.5341  1.2317
  157OSM    C9S17549   1.909   4.404   3.408  0.1666  0.4443 -1.0822
  157OSM    H9S17550   1.987   4.430   3.334  1.5055  1.1551  0.5007
  157OSM    H9T17551   1.883   4.297   3.397  2.0368 -0.3143  1.1012
  157OSM   C10S17552   1.970   4.435   3.540  0.0790  0.6717  0.4057
  157OSM   H10S17553   1.998   4.542   3.547 -0.3276  0.7550  0.8130
  157OSM   H10T17554   2.062   4.373   3.545  1.0154  1.9733 -0.0091
  157OSM   C11S17555   1.867   4.407   3.648 -0.5679  0.9257  0.0118
  157OSM   H11S17556   1.862   4.297   3.661  1.7897  0.7228 -0.4632
  157OSM   H11T17557   1.764   4.437   3.620 -0.7638  0.1677 -0.0976
  157OSM   C12S17558   1.908   4.474   3.776 -0.9236  1.1608 -0.6495
  157OSM   H12S17559   1.904   4.584   3.767  0.7605  1.1091 -3.3238
  157OSM   H12T17560   2.015   4.448   3.794 -0.7729  3.0975  1.6178
  157OSM   C13S17561   1.826   4.415   3.888  0.2470 -0.1780 -0.0332
  157OSM   H13S17562   1.857   4.310   3.903 -2.4600 -1.0100  0.4210
  157OSM   H13T17563   1.716   4.407   3.870 -0.0927  0.1847  1.7056
  157OSM   C14S17564   1.850   4.479   4.022  0.5644 -0.7889  0.3027
  157OSM   H14S17565   1.956   4.481   4.057  0.7408 -1.2988 -0.1948
  157OSM   H14T17566   1.785   4.425   4.094  0.5556  1.0019  1.7122
  157OSM   C15S17567   1.801   4.626   4.035 -0.2513  0.3892 -0.6053
  157OSM   H15S17568   1.696   4.634   3.999 -0.5453 -0.7648 -0.0738
  157OSM   H15T17569   1.877   4.678   3.974  2.8951 -2.2507  0.7254
  157OSM   C16S17570   1.804   4.679   4.181 -0.2970 -1.1657 -0.1523
  157OSM   H16S17571   1.813   4.789   4.194 -1.2248 -1.3373  2.8897
  157OSM   H16T17572   1.894   4.633   4.229  1.6084  1.9041 -0.4877
  157OSM   C17S17573   1.686   4.642   4.258 -0.6771  0.2655 -0.0367
  157OSM   H17S17574   1.680   4.531   4.262  0.8137  0.1115 -1.0473
  157OSM   H17T17575   1.597   4.667   4.195  0.1041 -0.7863 -1.6393
  157OSM   C18S17576   1.671   4.694   4.404 -0.2102  0.0686  0.7441
  157OSM   H18S17577   1.662   4.804   4.415  1.6859  0.3324  0.0012
  157OSM   H18T17578   1.758   4.666   4.466  0.3923  1.2033  0.4402
  157OSM   H18U17579   1.587   4.648   4.461  0.2168  0.4615  1.7054
  157OSM    C1F17580   1.464   4.319   2.745 -1.1253 -0.1473 -0.3314
  157OSM     OF17581   1.555   4.248   2.694 -0.5998 -1.0316  0.0808
  157OSM    C2F17582   1.332   4.258   2.793  0.7051  0.2021  0.1543
  157OSM    H2F17583   1.288   4.192   2.716 -0.4030 -1.2306  1.9476
  157OSM    H2G17584   1.268   4.349   2.801 -0.2284 -0.3705 -0.6669
  157OSM    C3F17585   1.339   4.186   2.927 -0.0668  0.0853 -0.5478
  157OSM    H3F17586   1.413   4.103   2.925  1.2909  1.2393 -0.2669
  157OSM    H3G17587   1.243   4.135   2.950 -0.4838  1.4208  0.8168
  157OSM    C4F17588   1.378   4.285   3.044  0.3020 -0.0475  0.6285
  157OSM    H4F17589   1.300   4.364   3.043  1.2408  0.9012  0.9741
  157OSM    H4G17590   1.469   4.345   3.024 -1.6555  1.9810 -3.6251
  157OSM    C5F17591   1.379   4.224   3.185  0.5915  0.0340  0.3224
  157OSM    H5F17592   1.466   4.156   3.190 -0.1851 -0.9303  1.1799
  157OSM    H5G17593   1.286   4.164   3.197  1.4437 -1.4008 -0.0007
  157OSM    C6F17594   1.382   4.325   3.296  0.3586 -0.1768 -0.2408
  157OSM    H6F17595   1.327   4.416   3.262  0.2377 -0.3424 -0.4915
  157OSM    H6G17596   1.486   4.358   3.318  0.4026 -1.6085  2.0422
  157OSM    C7F17597   1.361   4.245   3.426  0.8051 -0.6974 -0.2949
  157OSM    H7F17598   1.431   4.159   3.421  1.0563 -0.5677  0.7002
  157OSM    H7G17599   1.254   4.215   3.423  0.2705  1.0555 -0.1952
  157OSM    C8F17600   1.395   4.321   3.556  0.5201  0.5939 -0.3706
  157OSM    H8F17601   1.503   4.342   3.571  1.4598 -1.1690 -3.8001
  157OSM    H8G17602   1.384   4.243   3.635  0.9315  1.6999  0.8240
  157OSM    C9F17603   1.301   4.438   3.586  0.0627 -0.4724 -0.1953
  157OSM    H9F17604   1.346   4.525   3.536  0.6446 -0.4804  0.3067
  157OSM   C10F17605   1.180   4.442   3.644 -0.2100 -0.3389  0.4833
  157OSM   H10F17606   1.123   4.536   3.653  0.3107 -0.0114  0.4065
  157OSM   C11F17607   1.116   4.318   3.705 -0.0941  0.2654  0.3302
  157OSM   H11F17608   1.170   4.221   3.695 -0.9703 -0.1955 -0.0672
  157OSM   H11G17609   1.018   4.296   3.656 -0.5037 -0.5948  1.4772
  157OSM   C12F17610   1.097   4.325   3.861 -0.0961 -0.3469  0.3189
  157OSM   H12F17611   1.031   4.243   3.899  2.2820 -2.8962 -0.7130
  157OSM   H12G17612   1.042   4.419   3.884  1.3583  0.3779  0.9008
  157OSM   C13F17613   1.221   4.288   3.942  0.4330  0.5290 -0.4420
  157OSM   H13F17614   1.283   4.380   3.953 -1.7287  1.9770  0.2366
  157OSM   H13G17615   1.293   4.212   3.906  0.6465 -1.2714  3.2341
  157OSM   C14F17616   1.182   4.238   4.093  0.7539 -0.1006 -0.0750
  157OSM   H14F17617   1.113   4.151   4.090 -1.1820  1.2704  1.7182
  157OSM   H14G17618   1.114   4.314   4.137 -0.4692 -1.6603  0.8060
  157OSM   C15F17619   1.295   4.197   4.181 -0.5343  0.3170 -0.1044
  157OSM   H15F17620   1.346   4.107   4.138 -0.9857  0.5372 -1.1126
  157OSM   H15G17621   1.253   4.150   4.272  1.6267  1.9721  1.8713
  157OSM   C16F17622   1.393   4.309   4.209  0.1245 -0.6391 -0.4108
  157OSM   H16F17623   1.432   4.371   4.125 -0.7653  1.4504  0.6468
  157OSM   H16G17624   1.481   4.276   4.267  1.3852  1.7338 -0.8466
  157OSM   C17F17625   1.326   4.409   4.305 -0.1907 -0.7054 -0.6247
  157OSM   H17F17626   1.231   4.443   4.258 -2.7752 -4.8124  1.1107
  157OSM   H17G17627   1.382   4.503   4.328  0.4071 -0.8612 -1.4050
  157OSM   C18F17628   1.284   4.352   4.445 -0.1210  0.0992  0.2238
  157OSM   H18F17629   1.258   4.441   4.507  1.0230  0.7157 -0.1598
  157OSM   H18G17630   1.374   4.303   4.488  0.6237  1.2080 -0.0213
  157OSM   H18H17631   1.196   4.286   4.431 -0.1911 -0.0745  1.3426
  158OSM      N17632   5.570   4.389   2.692 -0.2301  0.0278  0.6293
  158OSM    C1517633   5.566   4.528   2.758 -0.0182  0.7826 -0.2415
  158OSM   H15A17634   5.481   4.587   2.729 -0.1798  1.0569  0.7464
  158OSM   H15B17635   5.659   4.583   2.752 -1.3603  3.1523 -0.6051
  158OSM   H15C17636   5.563   4.512   2.865  0.0435  1.0047 -0.2056
  158OSM    C1417637   5.436   4.323   2.704  0.4876  0.0010  0.1150
  158OSM   H14A17638   5.412   4.295   2.805  1.9861 -0.1203  0.4665
  158OSM   H14B17639   5.426   4.234   2.643  1.9556  1.3698 -2.2684
  158OSM   H14C17640   5.354   4.386   2.673 -1.8760 -0.9085  3.8503
  158OSM    C1317641   5.610   4.416   2.549  0.2098 -0.1469 -0.2991
  158OSM   H13A17642   5.535   4.482   2.510  0.3314  1.1128  1.4592
  158OSM   H13B17643   5.612   4.331   2.482 -1.3036 -0.8725  0.5275
  158OSM   H13C17644   5.705   4.466   2.537 -0.1181  0.5538 -0.0251
  158OSM    C1217645   5.683   4.306   2.748  0.4914  0.2812  0.3152
  158OSM   H12A17646   5.778   4.350   2.719  1.2694  0.5441  2.9442
  158OSM   H12B17647   5.683   4.213   2.693  0.0393  2.2024 -3.2590
  158OSM    C1117648   5.693   4.285   2.900  0.7034 -0.2162 -0.6941
  158OSM   H11A17649   5.669   4.382   2.948 -0.9869 -1.4433  1.1082
  158OSM   H11B17650   5.796   4.251   2.924  0.1075 -0.3014  2.0614
  158OSM      P17651   5.627   4.037   2.906 -0.0154  0.3548  0.4261
  158OSM    O1317652   5.498   3.961   2.888  0.0142 -0.2751  0.3587
  158OSM    O1417653   5.707   4.043   2.780  0.5051  0.7420  0.6175
  158OSM    O1117654   5.713   3.985   3.032 -0.4340  0.4799 -0.2631
  158OSM    O1217655   5.598   4.189   2.943 -0.2894 -0.0592 -0.2720
  158OSM    C1S17656   5.675   4.025   3.160  0.0177 -0.5161 -0.1538
  158OSM    H1S17657   5.625   4.125   3.161  0.8149 -0.1053  0.3540
  158OSM    H1T17658   5.767   4.043   3.220  1.1869 -0.0509 -2.0084
  158OSM     NF17659   5.569   3.969   3.369  0.8851 -0.2595 -0.1081
  158OSM    HNF17660   5.611   3.924   3.447  0.1068  1.1064  1.1422
  158OSM    C2S17661   5.588   3.920   3.233  1.1578  0.9954  0.3337
  158OSM    H2S17662   5.494   3.914   3.173  1.9591 -0.4249 -0.8335
  158OSM    C3S17663   5.653   3.779   3.222  0.1086 -0.2713  0.0190
  158OSM    H3S17664   5.757   3.772   3.261  0.8989  0.2866 -1.8758
  158OSM     O317665   5.670   3.722   3.092  0.6893 -0.2817  0.0192
  158OSM    HO317666   5.681   3.802   3.040  0.3694  0.5800  1.2457
  158OSM    C4S17667   5.558   3.684   3.292  0.0288 -0.4977 -0.4694
  158OSM    H4S17668   5.451   3.709   3.281 -0.2296 -0.9942  0.7575
  158OSM    C5S17669   5.602   3.596   3.385 -0.3146  0.3103 -0.8686
  158OSM    H5S17670   5.711   3.583   3.390 -0.5095 -1.7900 -1.0311
  158OSM    C6S17671   5.508   3.507   3.458  0.1573 -0.8882  0.3991
  158OSM    H6S17672   5.535   3.408   3.415  1.4013  0.2578 -1.6185
  158OSM    H6T17673   5.405   3.532   3.424  0.5651  1.3607  0.6347
  158OSM    C7S17674   5.523   3.492   3.616 -0.0504 -0.9053 -0.0376
  158OSM    H7S17675   5.493   3.583   3.672  1.9920  0.0218 -0.3559
  158OSM    H7T17676   5.626   3.463   3.644 -0.1104 -0.9250  0.1651
  158OSM    C8S17677   5.444   3.375   3.667  0.0254  0.0134 -0.2119
  158OSM    H8S17678   5.512   3.288   3.657  0.1357 -0.0932  1.2847
  158OSM    H8T17679   5.354   3.369   3.602 -0.5568  2.3566  0.2708
  158OSM    C9S17680   5.378   3.396   3.806  0.4913 -0.0843  0.1223
  158OSM    H9S17681   5.312   3.486   3.805  0.5611 -0.0363 -0.3809
  158OSM    H9T17682   5.456   3.403   3.884 -0.3105  1.6580  0.8202
  158OSM   C10S17683   5.283   3.281   3.844  0.3661  0.1204  0.1161
  158OSM   H10S17684   5.336   3.184   3.833  1.2419  0.4200  1.4752
  158OSM   H10T17685   5.201   3.282   3.769 -1.6302  1.7448  2.1906
  158OSM   C11S17686   5.212   3.295   3.983  0.5098 -0.3204  0.2164
  158OSM   H11S17687   5.139   3.212   3.983  0.4833 -0.3634 -2.2369
  158OSM   H11T17688   5.152   3.387   3.994  0.7270 -0.0299 -0.9284
  158OSM   C12S17689   5.309   3.298   4.101 -1.2880  0.1077  0.3908
  158OSM   H12S17690   5.359   3.396   4.105 -0.7233  0.0090 -2.3116
  158OSM   H12T17691   5.387   3.221   4.084 -2.9752 -1.8707  1.0946
  158OSM   C13S17692   5.241   3.274   4.232 -0.3344 -0.0274 -0.5391
  158OSM   H13S17693   5.180   3.181   4.234 -2.2338  1.1859  0.9889
  158OSM   H13T17694   5.174   3.361   4.251 -0.2593  0.6151 -2.8989
  158OSM   C14S17695   5.337   3.273   4.357  0.0993 -0.1339  0.0937
  158OSM   H14S17696   5.394   3.369   4.365  1.2939 -0.9094  1.4021
  158OSM   H14T17697   5.414   3.195   4.340  1.1546  0.4407  1.8963
  158OSM   C15S17698   5.267   3.265   4.498 -0.8455 -0.5934  0.9825
  158OSM   H15S17699   5.218   3.165   4.495  1.0051 -1.5269 -0.5111
  158OSM   H15T17700   5.182   3.337   4.499  1.1151  1.8519  1.0644
  158OSM   C16S17701   5.358   3.291   4.614  0.4713  0.3276  0.9308
  158OSM   H16S17702   5.311   3.297   4.715  1.5500 -0.5626  1.5160
  158OSM   H16T17703   5.410   3.388   4.594  0.1155  0.3390  0.0089
  158OSM   C17S17704   5.471   3.187   4.627  0.4907 -0.5900 -0.4205
  158OSM   H17S17705   5.522   3.200   4.530 -0.8903  5.3694 -0.7289
  158OSM   H17T17706   5.423   3.088   4.638  0.6739 -0.4974  1.6365
  158OSM   C18S17707   5.573   3.213   4.740 -0.3086 -0.4333 -0.4204
  158OSM   H18S17708   5.581   3.323   4.754  3.9466 -0.5355 -0.6678
  158OSM   H18T17709   5.668   3.157   4.724  0.3829 -0.0923  2.0201
  158OSM   H18U17710   5.524   3.173   4.831 -0.4965 -2.2390 -1.2580
  158OSM    C1F17711   5.509   4.083   3.397 -0.2217 -0.4729  0.3975
  158OSM     OF17712   5.448   4.150   3.318  0.0761 -0.1270  0.1022
  158OSM    C2F17713   5.513   4.130   3.535 -0.2033 -0.0474 -0.2486
  158OSM    H2F17714   5.547   4.236   3.536 -1.5736  0.4490 -1.1999
  158OSM    H2G17715   5.566   4.061   3.604 -0.2092 -0.3811 -0.5737
  158OSM    C3F17716   5.371   4.130   3.586  0.0534 -1.0127 -0.7129
  158OSM    H3F17717   5.331   4.026   3.577  0.5125 -1.3423  0.7604
  158OSM    H3G17718   5.308   4.197   3.523 -0.5537 -0.4374  0.4694
  158OSM    C4F17719   5.361   4.178   3.737 -0.8057  0.5881 -0.0825
  158OSM    H4F17720   5.253   4.188   3.760 -1.6559 -5.3441  0.0395
  158OSM    H4G17721   5.415   4.275   3.745  2.5227 -1.0646 -0.5553
  158OSM    C5F17722   5.422   4.086   3.843 -0.1244 -0.1745 -0.1378
  158OSM    H5F17723   5.532   4.099   3.834 -0.4221  2.3781 -1.0524
  158OSM    H5G17724   5.392   3.981   3.824 -0.8471 -0.1102  0.5949
  158OSM    C6F17725   5.381   4.109   3.988  0.7976 -0.5699  0.3951
  158OSM    H6F17726   5.273   4.133   3.991  0.8163  0.1436 -2.1529
  158OSM    H6G17727   5.432   4.197   4.033 -0.1450 -0.2329  0.8101
  158OSM    C7F17728   5.412   3.990   4.080 -0.2048 -0.5370 -0.3865
  158OSM    H7F17729   5.521   3.969   4.091  0.1616  1.0458 -0.7034
  158OSM    H7G17730   5.379   3.905   4.017  1.0605  0.5937 -2.7281
  158OSM    C8F17731   5.348   3.997   4.212  0.0210  0.7962 -0.7677
  158OSM    H8F17732   5.246   4.034   4.187 -0.3422  0.6518  0.4325
  158OSM    H8G17733   5.387   4.071   4.286  0.4466  0.5649 -0.7585
  158OSM    C9F17734   5.326   3.859   4.277 -0.4440  0.0176 -0.3385
  158OSM    H9F17735   5.263   3.795   4.213  0.4765  1.9793 -3.3780
  158OSM   C10F17736   5.355   3.807   4.399  0.1175 -0.2242  0.1952
  158OSM   H10F17737   5.325   3.707   4.434  1.0136  0.3738  2.9290
  158OSM   C11F17738   5.428   3.872   4.508 -0.4262 -0.0658 -0.4122
  158OSM   H11F17739   5.437   3.982   4.493  0.7871  0.4333  2.9431
  158OSM   H11G17740   5.535   3.842   4.503 -0.5317 -0.4897 -0.2333
  158OSM   C12F17741   5.365   3.834   4.648 -0.0255 -0.2863  0.1051
  158OSM   H12F17742   5.445   3.850   4.723  0.2710  0.2743 -0.3296
  158OSM   H12G17743   5.348   3.724   4.649  0.8786 -0.4960  3.2582
  158OSM   C13F17744   5.229   3.897   4.687  0.0830 -0.2187  0.0507
  158OSM   H13F17745   5.154   3.884   4.606  0.1613  0.3536 -0.1204
  158OSM   H13G17746   5.244   4.004   4.710  1.1873  0.3955 -2.9781
  158OSM   C14F17747   5.171   3.818   4.806 -1.0542  0.2890 -0.0462
  158OSM   H14F17748   5.238   3.845   4.890  0.6613  0.2066 -1.3114
  158OSM   H14G17749   5.183   3.712   4.774  1.7310  0.3347  0.6048
  158OSM   C15F17750   5.038   3.881   4.842  0.2022  0.5040  0.3841
  158OSM   H15F17751   4.959   3.835   4.778  1.0081 -0.3226 -0.0347
  158OSM   H15G17752   5.046   3.991   4.835 -0.5320  0.6281  1.2734
  158OSM   C16F17753   4.987   3.836   4.981 -0.1103 -0.3420  0.6746
  158OSM   H16F17754   5.052   3.890   5.053 -1.7549  2.5774  0.1542
  158OSM   H16G17755   5.003   3.726   4.982 -1.4401 -0.6036 -1.0115
  158OSM   C17F17756   4.848   3.885   5.014 -0.0218  0.6323 -0.1506
  158OSM   H17F17757   4.778   3.838   4.942 -0.1927 -0.7119  0.8585
  158OSM   H17G17758   4.842   3.996   5.014 -0.3357  0.6236  0.4585
  158OSM   C18F17759   4.787   3.844   5.152  0.2360  0.6541  0.2043
  158OSM   H18F17760   4.690   3.897   5.158 -0.8373 -1.2848  1.1059
  158OSM   H18G17761   4.856   3.887   5.228  2.7302 -0.7534 -1.1214
  158OSM   H18H17762   4.770   3.734   5.156  1.2140  0.2999 -2.7201
  159OSM      N17763   2.897   3.702   2.344  0.0466 -0.3026 -0.3535
  159OSM    C1517764   2.964   3.579   2.396  0.3114 -0.1491 -0.4662
  159OSM   H15A17765   3.071   3.587   2.401  0.2946 -0.6133  2.4803
  159OSM   H15B17766   2.943   3.492   2.336  1.3149 -0.6233 -0.1479
  159OSM   H15C17767   2.921   3.552   2.492  1.5693  2.3305  0.8667
  159OSM    C1417768   2.927   3.824   2.432 -0.5284  0.3825 -0.2336
  159OSM   H14A17769   3.028   3.861   2.425 -0.1922 -0.4057  0.3220
  159OSM   H14B17770   2.912   3.800   2.537 -0.0035 -0.4113 -0.3304
  159OSM   H14C17771   2.865   3.903   2.393  0.1196 -0.0040 -2.1208
  159OSM    C1317772   2.953   3.726   2.211  0.7714 -0.0297  0.4140
  159OSM   H13A17773   2.968   3.631   2.163  0.4889 -0.0295  0.3293
  159OSM   H13B17774   3.051   3.771   2.226  0.2362  0.6296  2.2831
  159OSM   H13C17775   2.902   3.800   2.152 -0.8678 -0.8301  0.7650
  159OSM    C1217776   2.750   3.680   2.325  0.1460 -0.3995  1.2167
  159OSM   H12A17777   2.743   3.609   2.244  1.5264  0.7771 -0.0082
  159OSM   H12B17778   2.711   3.771   2.282  2.2504  0.7644  1.6558
  159OSM    C1117779   2.664   3.638   2.443 -0.7398 -0.6115 -0.0778
  159OSM   H11A17780   2.559   3.656   2.413 -0.1933  2.4049 -0.4633
  159OSM   H11B17781   2.697   3.698   2.531  1.8465 -1.7667 -0.1575
  159OSM      P17782   2.612   3.391   2.387  0.0399 -0.0575 -0.2571
  159OSM    O1317783   2.633   3.418   2.243 -0.3846  0.1025  0.0236
  159OSM    O1417784   2.645   3.258   2.441  0.4072 -0.2013 -0.0150
  159OSM    O1117785   2.468   3.429   2.422  0.0631  0.2888 -0.6757
  159OSM    O1217786   2.690   3.501   2.472  0.2345 -0.0439  0.0756
  159OSM    C1S17787   2.410   3.391   2.551 -0.2061 -0.1310  0.2387
  159OSM    H1S17788   2.477   3.327   2.613  1.5071  2.1088  0.8737
  159OSM    H1T17789   2.311   3.344   2.537 -0.1059  0.1599 -1.6399
  159OSM     NF17790   2.344   3.454   2.777  0.1603  0.6886  0.7353
  159OSM    HNF17791   2.248   3.441   2.802  0.0771 -0.0292  0.0559
  159OSM    C2S17792   2.370   3.506   2.645 -0.1712  0.0671 -0.1184
  159OSM    H2S17793   2.458   3.573   2.654 -0.9841  1.8828 -3.6706
  159OSM    C3S17794   2.252   3.585   2.585  0.1085 -0.6783 -0.1335
  159OSM    H3S17795   2.159   3.527   2.609  0.4974 -1.4156 -0.3856
  159OSM     O317796   2.253   3.618   2.452  0.3357 -0.3787  0.4232
  159OSM    HO317797   2.316   3.555   2.418  0.8138  0.2043  0.2152
  159OSM    C4S17798   2.237   3.719   2.658 -0.5616  0.2727  0.2542
  159OSM    H4S17799   2.310   3.792   2.621 -0.2979  0.1087  0.4491
  159OSM    C5S17800   2.139   3.744   2.755 -0.0029  0.6715 -0.9595
  159OSM    H5S17801   2.065   3.665   2.774  2.7775 -2.0778 -0.7578
  159OSM    C6S17802   2.122   3.881   2.826 -0.4806 -0.5220 -0.3120
  159OSM    H6S17803   2.023   3.916   2.789 -0.9088  0.5156  1.6719
  159OSM    H6T17804   2.198   3.954   2.793  0.2464 -0.8554  0.5790
  159OSM    C7S17805   2.104   3.904   2.980 -0.3596  0.1404 -0.0391
  159OSM    H7S17806   2.208   3.917   3.019  0.3937  1.3294 -2.2735
  159OSM    H7T17807   2.074   3.819   3.045 -0.2452 -0.0708 -0.2621
  159OSM    C8S17808   2.013   4.025   3.015 -0.9560  0.1575  0.3013
  159OSM    H8S17809   1.915   3.990   2.977 -0.0930  0.0424 -2.0226
  159OSM    H8T17810   2.046   4.116   2.960 -2.0790  1.5381  1.8442
  159OSM    C9S17811   2.011   4.040   3.169 -0.1765 -0.3209  0.1762
  159OSM    H9S17812   1.953   3.955   3.211 -2.6411  2.0934  2.0359
  159OSM    H9T17813   1.954   4.132   3.194 -0.5454 -0.8560  1.3878
  159OSM   C10S17814   2.152   4.062   3.237  0.6103 -0.5250 -0.1174
  159OSM   H10S17815   2.217   4.123   3.171  2.6566 -0.4863  1.8295
  159OSM   H10T17816   2.214   3.970   3.232  0.4402 -0.7258  1.2489
  159OSM   C11S17817   2.144   4.114   3.376 -0.0136  1.1791 -0.2055
  159OSM   H11S17818   2.094   4.211   3.395 -0.3562  0.5368  2.6710
  159OSM   H11T17819   2.243   4.138   3.419 -0.1148  1.8349 -0.3237
  159OSM   C12S17820   2.085   4.009   3.473 -0.6615 -0.1037  0.8891
  159OSM   H12S17821   2.142   3.916   3.452 -1.5782 -0.3130 -0.8038
  159OSM   H12T17822   1.980   3.981   3.451 -0.3383 -4.0176  3.2855
  159OSM   C13S17823   2.080   4.045   3.616 -0.3575  0.1689 -0.2781
  159OSM   H13S17824   2.004   4.124   3.635  1.0017  1.4020  0.1906
  159OSM   H13T17825   2.166   4.109   3.644  0.2990 -0.2240 -1.3644
  159OSM   C14S17826   2.060   3.924   3.711 -0.2675 -0.2779  0.5089
  159OSM   H14S17827   2.154   3.869   3.732  0.3410  0.3915 -0.3799
  159OSM   H14T17828   1.989   3.854   3.661 -0.2857  0.0649  0.0411
  159OSM   C15S17829   1.993   3.970   3.848 -0.1462 -0.4557  1.2561
  159OSM   H15S17830   1.974   3.877   3.906 -2.5915  0.3936  1.9381
  159OSM   H15T17831   1.895   4.016   3.824  1.8162  3.6483  0.1912
  159OSM   C16S17832   2.072   4.078   3.922  0.0142  0.4141  0.2683
  159OSM   H16S17833   2.074   4.174   3.865 -0.2860  0.2467 -0.0280
  159OSM   H16T17834   2.175   4.037   3.928 -0.3969 -0.4566  1.9849
  159OSM   C17S17835   2.012   4.102   4.064 -0.2846 -0.0257  0.5465
  159OSM   H17S17836   2.015   4.006   4.120  1.4263  0.3891  1.2223
  159OSM   H17T17837   1.907   4.138   4.067  0.2222  1.6587 -0.5791
  159OSM   C18S17838   2.114   4.173   4.148  0.0723  0.0825  0.4283
  159OSM   H18S17839   2.105   4.151   4.256  0.4172  3.5104  1.2485
  159OSM   H18T17840   2.097   4.281   4.128 -0.2024  0.1726  1.1345
  159OSM   H18U17841   2.216   4.159   4.105 -0.0626  2.1792 -0.6895
  159OSM    C1F17842   2.429   3.394   2.859  0.2755 -0.0215  0.2025
  159OSM     OF17843   2.540   3.352   2.823 -0.1163 -0.0976  0.1817
  159OSM    C2F17844   2.387   3.365   3.000 -0.2032 -0.3498  0.4576
  159OSM    H2F17845   2.436   3.268   3.024  4.0644  1.7269  1.2063
  159OSM    H2G17846   2.280   3.340   3.011 -0.2996 -0.0242  0.2596
  159OSM    C3F17847   2.441   3.466   3.109 -0.4975 -0.3621 -0.4481
  159OSM    H3F17848   2.550   3.483   3.099 -0.4508  1.5595  2.1519
  159OSM    H3G17849   2.428   3.421   3.210 -1.0623  0.7892  0.0096
  159OSM    C4F17850   2.393   3.613   3.112 -0.5782  0.0651 -0.5552
  159OSM    H4F17851   2.401   3.654   3.009  0.9870 -0.7754 -0.7993
  159OSM    H4G17852   2.462   3.676   3.171 -1.4973  0.1193  0.4933
  159OSM    C5F17853   2.245   3.634   3.163  0.2288  0.6609  0.5286
  159OSM    H5F17854   2.174   3.594   3.087 -1.0782 -1.2107  2.6108
  159OSM    H5G17855   2.246   3.745   3.160 -0.2122  0.6487 -0.2762
  159OSM    C6F17856   2.214   3.592   3.310  0.5041 -0.4756  0.2103
  159OSM    H6F17857   2.199   3.482   3.312  0.3169 -0.5307 -1.9266
  159OSM    H6G17858   2.113   3.636   3.326  0.7782 -0.6309  2.8685
  159OSM    C7F17859   2.302   3.645   3.422  0.5489 -0.1426 -0.2274
  159OSM    H7F17860   2.330   3.744   3.381  0.5954 -1.2749 -3.1301
  159OSM    H7G17861   2.390   3.578   3.433  0.3729 -0.4627 -0.7179
  159OSM    C8F17862   2.238   3.642   3.564  0.2283  0.2326  0.2189
  159OSM    H8F17863   2.140   3.694   3.563  0.0074 -0.1777  0.4513
  159OSM    H8G17864   2.306   3.704   3.627 -0.7862  0.9839  0.6092
  159OSM    C9F17865   2.223   3.508   3.622 -0.0834 -0.3339  0.0636
  159OSM    H9F17866   2.192   3.430   3.552 -0.4365 -0.6956  0.6146
  159OSM   C10F17867   2.231   3.490   3.754 -0.1449 -0.1672  0.0195
  159OSM   H10F17868   2.222   3.394   3.807  1.2255  0.4368  1.3967
  159OSM   C11F17869   2.264   3.592   3.855 -0.2898  0.4510 -0.1220
  159OSM   H11F17870   2.277   3.694   3.813  2.7322  1.0212  1.8623
  159OSM   H11G17871   2.362   3.566   3.902 -0.6138 -0.4088  0.0970
  159OSM   C12F17872   2.170   3.600   3.970  0.0429 -0.2199  0.0243
  159OSM   H12F17873   2.177   3.511   4.035 -0.1106 -0.8535 -0.8090
  159OSM   H12G17874   2.067   3.627   3.938  1.4651  1.9181 -3.3002
  159OSM   C13F17875   2.212   3.712   4.070 -0.2265 -0.7325  0.3224
  159OSM   H13F17876   2.226   3.804   4.009  1.0483 -1.2732 -0.2316
  159OSM   H13G17877   2.310   3.687   4.116 -0.8707 -0.4344  1.9357
  159OSM   C14F17878   2.109   3.739   4.180 -0.2733  0.1759 -0.4987
  159OSM   H14F17879   2.007   3.746   4.135  0.1278  2.8247 -1.1912
  159OSM   H14G17880   2.126   3.838   4.227  1.2210 -0.0205 -0.5862
  159OSM   C15F17881   2.122   3.631   4.291 -0.5968 -0.3244  0.7951
  159OSM   H15F17882   2.227   3.643   4.325 -0.2407  2.7690 -0.9277
  159OSM   H15G17883   2.099   3.529   4.254  0.3627 -0.6771  1.1482
  159OSM   C16F17884   2.027   3.653   4.412 -0.2570  0.8552 -0.6344
  159OSM   H16F17885   2.004   3.552   4.451  2.1565  0.4921 -0.0065
  159OSM   H16G17886   1.940   3.714   4.378 -1.1143 -0.1002 -0.2091
  159OSM   C17F17887   2.112   3.721   4.522 -0.2456  0.1748 -0.6110
  159OSM   H17F17888   2.160   3.808   4.471 -0.8718  1.4288  0.8701
  159OSM   H17G17889   2.172   3.638   4.564  0.3200  1.8899  2.1675
  159OSM   C18F17890   2.028   3.790   4.637 -0.1182  0.5322  0.2214
  159OSM   H18F17891   1.969   3.712   4.690 -2.5297  0.1307 -2.7269
  159OSM   H18G17892   1.960   3.868   4.596 -0.3826 -1.0254 -2.5297
  159OSM   H18H17893   2.100   3.843   4.703 -1.2005  0.7525  1.2752
  160OSM      N17894   0.435   4.317   2.429 -0.3965  0.6050 -0.6111
  160OSM    C1517895   0.570   4.311   2.378  0.9657  0.1922  0.0652
  160OSM   H15A17896   0.559   4.281   2.275 -3.7269  0.4038  0.2978
  160OSM   H15B17897   0.634   4.236   2.422  0.0400  0.0714  1.2575
  160OSM   H15C17898   0.618   4.406   2.360  1.0108  0.0056 -0.8477
  160OSM    C1417899   0.373   4.185   2.403  0.0846 -0.1620 -0.0500
  160OSM   H14A17900   0.350   4.168   2.299 -1.6079  0.7234  0.1500
  160OSM   H14B17901   0.282   4.181   2.460 -0.6119  1.5456 -0.9664
  160OSM   H14C17902   0.438   4.107   2.440 -0.2639 -0.6319 -0.4160
  160OSM    C1317903   0.434   4.350   2.579 -0.0688  0.0594 -0.9284
  160OSM   H13A17904   0.504   4.301   2.644 -2.4771  0.8212  2.5467
  160OSM   H13B17905   0.347   4.332   2.641  1.2179  0.0144  0.9202
  160OSM   H13C17906   0.448   4.456   2.593  0.2718 -0.1846  0.8564
  160OSM    C1217907   0.351   4.418   2.349 -0.5274 -0.1524 -0.6870
  160OSM   H12A17908   0.369   4.397   2.244  1.0157 -0.2621 -0.4297
  160OSM   H12B17909   0.406   4.510   2.363 -0.7805  0.2139 -1.9702
  160OSM    C1117910   0.211   4.449   2.386  0.4612 -0.1661 -0.4396
  160OSM   H11A17911   0.145   4.360   2.391  0.5992 -0.2244  0.7885
  160OSM   H11B17912   0.153   4.505   2.310 -3.3535 -2.0726  0.8028
  160OSM      P17913   0.225   4.655   2.521  0.1026  0.1834 -0.3887
  160OSM    O1317914   0.369   4.692   2.499 -0.2438 -0.0456 -0.6829
  160OSM    O1417915   0.135   4.726   2.427  0.3346  0.0608 -0.4670
  160OSM    O1117916   0.167   4.690   2.665 -0.4594 -0.3663 -0.2640
  160OSM    O1217917   0.199   4.502   2.521 -0.1720  0.8663 -0.2582
  160OSM    C1S17918   0.050   4.628   2.708  0.1232  0.0119  0.1988
  160OSM    H1S17919   0.058   4.520   2.731  0.3591 -0.1921 -0.8030
  160OSM    H1T17920  -0.029   4.637   2.630  0.1788  1.1176  0.2496
  160OSM     NF17921  -0.090   4.610   2.922 -0.0596  0.6126  0.3851
  160OSM    HNF17922  -0.182   4.649   2.926 -0.9432 -0.8546 -2.7740
  160OSM    C2S17923   0.011   4.687   2.850  0.1965 -0.3360 -0.1300
  160OSM    H2S17924   0.101   4.674   2.914  0.1409 -0.7398 -0.1290
  160OSM    C3S17925  -0.011   4.839   2.836 -0.0843  0.3474 -0.6666
  160OSM    H3S17926  -0.085   4.860   2.756 -0.2276  0.5819 -0.4766
  160OSM     O317927   0.091   4.914   2.765  0.0339 -0.5543  0.2786
  160OSM    HO317928   0.146   4.847   2.724 -1.1094 -0.4000 -1.6289
  160OSM    C4S17929  -0.040   4.912   2.977 -0.1731  0.4831  0.4893
  160OSM    H4S17930  -0.126   4.873   3.034  0.9454 -0.4621  1.5991
  160OSM    C5S17931   0.037   4.989   3.051  0.1726  0.2746  0.3963
  160OSM    H5S17932   0.142   5.006   3.020  0.6176  1.0252  2.2015
  160OSM    C6S17933  -0.002   5.027   3.195 -0.0313  0.3098  0.5205
  160OSM    H6S17934   0.037   5.129   3.215 -0.5193  0.2103  2.1289
  160OSM    H6T17935   0.061   4.961   3.258 -0.9437 -3.0180 -1.7946
  160OSM    C7S17936  -0.144   4.997   3.236 -0.0797  0.2983  0.3484
  160OSM    H7S17937  -0.167   4.889   3.243 -2.0601  0.6527 -0.2532
  160OSM    H7T17938  -0.210   5.050   3.165  1.0623  0.2379 -0.7905
  160OSM    C8S17939  -0.164   5.043   3.384  0.1592 -0.2379  0.1036
  160OSM    H8S17940  -0.274   5.040   3.400 -0.0249 -0.3188 -1.0753
  160OSM    H8T17941  -0.141   5.152   3.378 -1.9655  0.2083 -1.3162
  160OSM    C9S17942  -0.086   4.975   3.500  0.2603 -0.5816  0.6112
  160OSM    H9S17943   0.008   5.029   3.524 -0.1942 -0.4265  2.1059
  160OSM    H9T17944  -0.063   4.869   3.474  0.4277 -0.7876  1.5866
  160OSM   C10S17945  -0.163   4.971   3.641 -1.0431 -0.2803  0.2298
  160OSM   H10S17946  -0.257   4.915   3.624 -0.3317 -1.0346 -1.4726
  160OSM   H10T17947  -0.176   5.081   3.654  1.8604  0.5823 -2.5719
  160OSM   C11S17948  -0.083   4.904   3.753 -0.7893  0.0360  0.2516
  160OSM   H11S17949   0.010   4.964   3.763 -1.2701  0.6524  1.1009
  160OSM   H11T17950  -0.056   4.800   3.727 -0.7086  0.2368 -0.4849
  160OSM   C12S17951  -0.153   4.908   3.886 -0.1819 -0.6666  0.2037
  160OSM   H12S17952  -0.090   4.869   3.968 -0.2329 -1.1862 -0.0008
  160OSM   H12T17953  -0.241   4.842   3.871 -0.6450  0.6726 -5.0965
  160OSM   C13S17954  -0.194   5.043   3.939  0.4267 -0.8911 -0.3396
  160OSM   H13S17955  -0.265   5.094   3.870  2.8830  2.9669 -0.3158
  160OSM   H13T17956  -0.102   5.105   3.940 -0.3385  0.2715  0.2460
  160OSM   C14S17957  -0.245   5.043   4.083  0.7257 -0.5681  0.1755
  160OSM   H14S17958  -0.163   5.031   4.157  1.2154  1.1505 -0.0586
  160OSM   H14T17959  -0.310   4.953   4.091 -1.6583  1.1637  1.8733
  160OSM   C15S17960  -0.311   5.170   4.121 -0.3355 -0.1610 -0.3717
  160OSM   H15S17961  -0.388   5.206   4.050 -0.5137  4.4473  1.7635
  160OSM   H15T17962  -0.237   5.253   4.117  1.3441 -1.5501  0.6180
  160OSM   C16S17963  -0.370   5.157   4.265  0.1773 -0.0110  0.0657
  160OSM   H16S17964  -0.299   5.156   4.350 -0.4127  0.6947  0.5839
  160OSM   H16T17965  -0.424   5.061   4.279  0.6890 -0.3222 -0.0858
  160OSM   C17S17966  -0.476   5.270   4.282 -0.3361 -0.6528 -0.7175
  160OSM   H17S17967  -0.560   5.241   4.215 -1.1434  2.4508 -1.1887
  160OSM   H17T17968  -0.422   5.358   4.241 -2.1169  0.4654 -0.7668
  160OSM   C18S17969  -0.528   5.281   4.421 -0.2296  0.0567  0.0589
  160OSM   H18S17970  -0.459   5.310   4.503 -0.8758  0.4199  0.4811
  160OSM   H18T17971  -0.572   5.182   4.447  2.3909 -1.4584 -0.9384
  160OSM   H18U17972  -0.610   5.355   4.417  0.4063  0.8809  1.5091
  160OSM    C1F17973  -0.068   4.491   2.982  0.5993  0.6942 -0.2677
  160OSM     OF17974   0.042   4.434   2.977  0.0866 -0.0202 -0.2324
  160OSM    C2F17975  -0.179   4.436   3.068 -0.5843 -0.0115  0.1113
  160OSM    H2F17976  -0.246   4.373   3.005 -0.7926 -0.4254  0.7390
  160OSM    H2G17977  -0.238   4.526   3.096 -0.1669  0.6051 -0.9296
  160OSM    C3F17978  -0.121   4.371   3.196  0.0132  0.1615  0.2350
  160OSM    H3F17979  -0.056   4.441   3.252 -0.2367  0.7112 -0.1562
  160OSM    H3G17980  -0.050   4.292   3.162 -1.4507 -0.1857 -2.2674
  160OSM    C4F17981  -0.227   4.315   3.291 -0.1303  0.5136  0.0213
  160OSM    H4F17982  -0.307   4.252   3.247 -2.5956  2.7459  1.0274
  160OSM    H4G17983  -0.292   4.397   3.327 -0.7734 -0.6028  1.5493
  160OSM    C5F17984  -0.163   4.248   3.408  0.2600 -0.2564  0.2008
  160OSM    H5F17985  -0.074   4.190   3.378  0.9340  0.5142  0.6733
  160OSM    H5G17986  -0.232   4.176   3.457  1.2394 -1.4411 -0.1202
  160OSM    C6F17987  -0.127   4.350   3.524 -0.3157 -0.3675 -0.1712
  160OSM    H6F17988  -0.209   4.419   3.554  0.6364  0.7873 -0.1514
  160OSM    H6G17989  -0.041   4.415   3.501  0.0503 -0.1260  1.7554
  160OSM    C7F17990  -0.092   4.266   3.645 -0.1064 -0.0774 -0.1354
  160OSM    H7F17991  -0.005   4.200   3.629 -1.0174 -1.4135  0.2460
  160OSM    H7G17992  -0.179   4.203   3.675 -2.5793  2.2928 -1.7429
  160OSM    C8F17993  -0.056   4.356   3.763  0.6384 -1.1083  0.4625
  160OSM    H8F17994  -0.116   4.449   3.749  1.8739 -0.4212 -0.4691
  160OSM    H8G17995   0.044   4.403   3.748 -0.5224  1.2555 -0.4279
  160OSM    C9F17996  -0.073   4.305   3.900  0.8307 -1.3341  0.2282
  160OSM    H9F17997   0.005   4.240   3.941  0.8556 -0.4360  1.6818
  160OSM   C10F17998  -0.172   4.348   3.989  0.2700  0.0433  0.6141
  160OSM   H10F17999  -0.170   4.292   4.083  0.9781 -3.2034 -1.1683
  160OSM   C11F18000  -0.290   4.438   3.963 -0.2105  0.1829  0.1102
  160OSM   H11F18001  -0.380   4.382   3.999  0.5051 -0.4170  1.0192
  160OSM   H11G18002  -0.301   4.460   3.855  3.2394  0.2169 -0.3302
  160OSM   C12F18003  -0.280   4.567   4.043 -0.7926 -0.0117 -0.7946
  160OSM   H12F18004  -0.366   4.632   4.015 -1.6433 -1.3743 -1.4347
  160OSM   H12G18005  -0.198   4.635   4.010 -0.3608 -1.3236 -2.5885
  160OSM   C13F18006  -0.278   4.540   4.198 -0.3573 -0.8167  0.1365
  160OSM   H13F18007  -0.182   4.485   4.208 -1.2959 -2.7057 -0.6995
  160OSM   H13G18008  -0.362   4.474   4.231 -0.6549 -0.0299  1.0210
  160OSM   C14F18009  -0.266   4.670   4.285 -0.2010  0.1696 -0.1579
  160OSM   H14F18010  -0.346   4.744   4.264 -1.4717 -1.2700 -0.5993
  160OSM   H14G18011  -0.163   4.705   4.261  0.5742 -0.1981  2.3296
  160OSM   C15F18012  -0.267   4.644   4.436  0.5964  0.2629  0.5884
  160OSM   H15F18013  -0.184   4.575   4.463 -0.2145 -0.4491  1.3317
  160OSM   H15G18014  -0.364   4.597   4.466  0.4379  1.0074  1.2964
  160OSM   C16F18015  -0.259   4.770   4.520 -0.3614 -0.0667 -0.7943
  160OSM   H16F18016  -0.280   4.735   4.623  0.3799 -1.1840 -1.0083
  160OSM   H16G18017  -0.346   4.830   4.485 -1.5330 -1.2548 -0.0182
  160OSM   C17F18018  -0.120   4.834   4.518  0.3120  0.3714 -0.5499
  160OSM   H17F18019  -0.090   4.877   4.420  2.2601 -0.3020 -0.2720
  160OSM   H17G18020  -0.038   4.767   4.548  0.0634  0.1029 -0.4680
  160OSM   C18F18021  -0.124   4.969   4.610 -0.3965 -0.6083 -0.4635
  160OSM   H18F18022  -0.018   5.001   4.619 -0.4149 -0.4531 -0.7694
  160OSM   H18G18023  -0.150   4.948   4.716  0.8497 -1.0874 -0.2399
  160OSM   H18H18024  -0.186   5.051   4.567  0.4152  1.2968  1.7877
  161OSM      N18025   1.523   2.728   2.381  0.3858  0.0094 -0.6597
  161OSM    C1518026   1.374   2.752   2.348 -0.0268 -0.0181  0.0967
  161OSM   H15A18027   1.347   2.853   2.374  1.8450  0.0961  1.9348
  161OSM   H15B18028   1.305   2.688   2.401 -0.2728  0.8030  0.7900
  161OSM   H15C18029   1.358   2.738   2.242  2.3857 -2.1567 -0.1178
  161OSM    C1418030   1.566   2.580   2.375  0.3180 -0.4362 -0.3146
  161OSM   H14A18031   1.665   2.563   2.416  0.0757 -2.6051 -0.5174
  161OSM   H14B18032   1.562   2.534   2.277  1.3340  1.2606 -1.2023
  161OSM   H14C18033   1.488   2.533   2.432  0.4970  0.1414  0.4138
  161OSM    C1318034   1.600   2.812   2.279  0.6055  0.6488  1.1962
  161OSM   H13A18035   1.548   2.905   2.260 -2.9127 -1.2766  0.4853
  161OSM   H13B18036   1.609   2.758   2.186 -1.0462  0.1966  1.2672
  161OSM   H13C18037   1.701   2.829   2.313  2.8689 -0.5764 -3.9326
  161OSM    C1218038   1.552   2.785   2.517 -0.5902  0.5842 -0.2294
  161OSM   H12A18039   1.489   2.734   2.589  0.3195 -0.5030 -0.1733
  161OSM   H12B18040   1.513   2.886   2.522 -2.1053  0.0235 -0.0744
  161OSM    C1118041   1.701   2.787   2.570  0.0489 -0.3136  0.2728
  161OSM   H11A18042   1.735   2.681   2.557  1.7926 -0.0139  1.8797
  161OSM   H11B18043   1.703   2.810   2.678 -0.0962 -0.5610  0.3298
  161OSM      P18044   1.789   3.022   2.493  0.0265 -0.2866  0.2862
  161OSM    O1318045   1.915   3.076   2.432 -0.7874  0.1526 -0.4155
  161OSM    O1418046   1.668   3.082   2.434 -0.3480  0.4122  0.2554
  161OSM    O1118047   1.784   3.064   2.643 -1.0494 -0.2680 -0.3999
  161OSM    O1218048   1.794   2.863   2.500  0.4105 -0.7806 -0.2503
  161OSM    C1S18049   1.885   3.018   2.740 -0.1555 -0.3809  0.2875
  161OSM    H1S18050   1.986   3.063   2.726 -1.0485  2.0259  1.1215
  161OSM    H1T18051   1.883   2.908   2.752 -1.7692 -0.1341  3.2382
  161OSM     NF18052   1.968   3.016   2.971  0.4189 -0.2655 -0.5375
  161OSM    HNF18053   1.954   2.926   3.011 -0.8944  0.1525  0.0031
  161OSM    C2S18054   1.852   3.063   2.889  0.1371 -0.7360  0.1699
  161OSM    H2S18055   1.859   3.174   2.897  1.2103 -0.6473 -1.5329
  161OSM    C3S18056   1.713   3.019   2.929 -0.4121  0.6919 -0.5723
  161OSM    H3S18057   1.710   2.909   2.912  1.1447  0.5695 -0.2190
  161OSM     O318058   1.603   3.074   2.852  0.0014  0.7733  0.2463
  161OSM    HO318059   1.649   3.091   2.770 -0.2289  3.9087  0.6329
  161OSM    C4S18060   1.694   3.033   3.082 -0.3474  0.2198 -0.0380
  161OSM    H4S18061   1.747   2.954   3.137 -0.5847  0.8452  1.1091
  161OSM    C5S18062   1.632   3.130   3.146  0.4000 -0.3378 -0.0253
  161OSM    H5S18063   1.594   3.216   3.088 -0.1753 -0.3858  0.2710
  161OSM    C6S18064   1.614   3.151   3.296  0.2201 -0.5883  0.8799
  161OSM    H6S18065   1.509   3.178   3.321 -0.2640 -0.8031 -0.8389
  161OSM    H6T18066   1.668   3.242   3.333 -1.7450  1.4500 -0.9449
  161OSM    C7S18067   1.648   3.031   3.390 -0.2942 -0.3630 -0.8733
  161OSM    H7S18068   1.751   2.991   3.381 -0.8411 -1.6770 -1.6616
  161OSM    H7T18069   1.584   2.940   3.378  0.5555 -1.3239  1.4083
  161OSM    C8S18070   1.618   3.066   3.539  0.4164  0.2517  1.1903
  161OSM    H8S18071   1.509   3.061   3.560 -0.2222 -4.8772 -1.7844
  161OSM    H8T18072   1.648   3.171   3.559  1.1866 -0.0156  1.4784
  161OSM    C9S18073   1.666   2.950   3.631 -0.0446  0.1369 -0.0815
  161OSM    H9S18074   1.774   2.972   3.622 -0.0282 -0.2625 -0.9402
  161OSM    H9T18075   1.654   2.850   3.585 -0.1966  0.0319  0.1818
  161OSM   C10S18076   1.617   2.947   3.768  0.1803 -0.1599 -0.2842
  161OSM   H10S18077   1.508   2.931   3.757  0.4257 -0.7298 -2.3738
  161OSM   H10T18078   1.629   3.048   3.813 -2.8695  0.0007  0.3515
  161OSM   C11S18079   1.660   2.824   3.862  0.2754  0.5375 -0.3524
  161OSM   H11S18080   1.769   2.828   3.882 -0.1587  0.8144  2.3941
  161OSM   H11T18081   1.630   2.736   3.801 -0.7369  0.4891  0.1863
  161OSM   C12S18082   1.593   2.829   3.997  0.2179  0.4563 -0.2176
  161OSM   H12S18083   1.484   2.814   3.984 -0.0144  1.4996  0.4247
  161OSM   H12T18084   1.583   2.924   4.054 -2.4020 -0.0413  0.3060
  161OSM   C13S18085   1.655   2.726   4.092 -0.1129  0.6049  0.5429
  161OSM   H13S18086   1.766   2.728   4.082 -0.3049  3.2795 -2.8597
  161OSM   H13T18087   1.612   2.627   4.064  3.3089 -0.0494 -3.2025
  161OSM   C14S18088   1.606   2.740   4.239  0.3204  0.9152  0.3131
  161OSM   H14S18089   1.663   2.655   4.281  0.7899  0.1906 -1.7072
  161OSM   H14T18090   1.496   2.722   4.235  0.6194 -0.8518 -1.8153
  161OSM   C15S18091   1.641   2.874   4.306  0.3183 -0.2256  0.1089
  161OSM   H15S18092   1.584   2.953   4.253 -0.5738  1.0120  2.7306
  161OSM   H15T18093   1.750   2.890   4.295 -0.1410  2.2214 -1.7100
  161OSM   C16S18094   1.607   2.871   4.458 -0.4326  0.9627 -0.2679
  161OSM   H16S18095   1.695   2.834   4.515 -1.1801 -2.4154 -1.0990
  161OSM   H16T18096   1.531   2.793   4.481  2.2350 -1.4218  1.0959
  161OSM   C17S18097   1.559   3.002   4.526 -0.1472  0.1925  0.5273
  161OSM   H17S18098   1.448   3.009   4.534 -0.1905 -1.2250  1.4393
  161OSM   H17T18099   1.576   3.079   4.448  0.2559 -0.8017 -0.3794
  161OSM   C18S18100   1.629   3.032   4.659  0.0763  1.0088 -0.3892
  161OSM   H18S18101   1.738   3.026   4.636 -0.8765 -0.2778 -6.0992
  161OSM   H18T18102   1.604   2.953   4.733 -0.7582 -0.2314 -1.9570
  161OSM   H18U18103   1.583   3.129   4.689 -2.5165 -0.2014 -0.2590
  161OSM    C1F18104   2.086   3.078   2.981  0.0211  0.6740 -0.5941
  161OSM     OF18105   2.117   3.173   2.915 -0.0518  0.0628  0.3263
  161OSM    C2F18106   2.196   3.012   3.070 -0.4833 -0.5658 -0.0646
  161OSM    H2F18107   2.293   3.031   3.020  0.5502  1.4125  2.4725
  161OSM    H2G18108   2.165   2.906   3.086 -0.8292 -0.6172 -0.9895
  161OSM    C3F18109   2.207   3.085   3.201 -0.5821  0.5166 -0.2934
  161OSM    H3F18110   2.230   3.192   3.184  0.6251  0.4201  0.5962
  161OSM    H3G18111   2.292   3.036   3.253 -1.2070  0.7886  1.0389
  161OSM    C4F18112   2.078   3.069   3.286  0.0624 -0.3370  0.1149
  161OSM    H4F18113   2.073   2.962   3.317  1.6059 -0.2536  0.7796
  161OSM    H4G18114   1.990   3.096   3.224 -0.2687 -0.2881  0.6013
  161OSM    C5F18115   2.090   3.154   3.410  0.1833  0.6275 -0.0433
  161OSM    H5F18116   2.056   3.259   3.394  0.6069  0.3220 -3.7889
  161OSM    H5G18117   2.186   3.139   3.463 -1.6498  0.4083  3.5565
  161OSM    C6F18118   1.981   3.115   3.510 -0.5863  0.3194 -0.0344
  161OSM    H6F18119   1.990   3.011   3.547 -0.9153 -0.6126 -2.4219
  161OSM    H6G18120   1.884   3.133   3.458  0.1047  1.4194 -1.0162
  161OSM    C7F18121   1.992   3.218   3.626 -0.0343 -0.3074  0.3762
  161OSM    H7F18122   1.943   3.316   3.607 -0.6389 -0.8190 -0.8618
  161OSM    H7G18123   2.101   3.232   3.643 -0.2160  0.2174  1.1594
  161OSM    C8F18124   1.926   3.176   3.762 -0.2444  0.0405 -0.7124
  161OSM    H8F18125   1.968   3.075   3.781 -1.5838 -0.6051 -1.0506
  161OSM    H8G18126   1.816   3.167   3.753 -0.3058 -0.6550  0.5556
  161OSM    C9F18127   1.972   3.259   3.877  0.8115  0.0238 -0.4274
  161OSM    H9F18128   1.977   3.365   3.849 -2.1131  0.4659  0.3969
  161OSM   C10F18129   2.005   3.227   4.002 -0.4829  0.2632  0.1003
  161OSM   H10F18130   2.048   3.306   4.065  1.2701 -0.0781 -0.6240
  161OSM   C11F18131   1.993   3.092   4.066 -0.5728  0.0768 -0.6278
  161OSM   H11F18132   2.090   3.038   4.078 -1.4560 -1.8070 -1.5620
  161OSM   H11G18133   1.936   3.017   4.007 -1.1517 -0.7225  0.8831
  161OSM   C12F18134   1.927   3.102   4.204  0.0246  0.9530  0.6610
  161OSM   H12F18135   1.915   2.999   4.243 -1.0866  0.7172 -0.2361
  161OSM   H12G18136   1.825   3.143   4.182  0.1736 -0.2036 -2.8167
  161OSM   C13F18137   2.000   3.179   4.319  0.0383 -0.0874 -0.1765
  161OSM   H13F18138   2.085   3.240   4.281  0.1398  1.2111  1.9773
  161OSM   H13G18139   2.057   3.100   4.372 -0.2364  0.7434  1.4316
  161OSM   C14F18140   1.913   3.258   4.422  0.1154  0.0301  1.1441
  161OSM   H14F18141   1.813   3.212   4.436 -0.9875  1.8187 -0.3366
  161OSM   H14G18142   1.910   3.361   4.381  0.5722  0.2636  1.6767
  161OSM   C15F18143   1.974   3.263   4.558 -0.2747  0.0024 -0.1538
  161OSM   H15F18144   2.081   3.292   4.546 -0.3162 -0.2058 -1.1722
  161OSM   H15G18145   1.971   3.163   4.606 -1.3881 -0.7927 -1.7706
  161OSM   C16F18146   1.888   3.350   4.659  0.9434 -0.6067  0.4838
  161OSM   H16F18147   1.790   3.300   4.655  0.0792  1.0255  0.2718
  161OSM   H16G18148   1.881   3.455   4.623 -1.6606 -0.8973 -0.0443
  161OSM   C17F18149   1.944   3.346   4.794 -0.0670  0.2850 -1.0532
  161OSM   H17F18150   2.020   3.427   4.794 -0.7537  0.9498 -0.0046
  161OSM   H17G18151   1.984   3.243   4.805 -0.0789  0.2591 -1.2412
  161OSM   C18F18152   1.852   3.373   4.909 -0.2343 -0.3923  0.1078
  161OSM   H18F18153   1.784   3.450   4.866 -0.7497 -0.9837 -0.1593
  161OSM   H18G18154   1.899   3.421   4.997  1.2862  0.3116 -1.0375
  161OSM   H18H18155   1.785   3.291   4.942 -1.6410  0.4286 -0.5885
  162OSM      N18156   4.400   3.342   2.244  0.3156  0.5301 -0.1633
  162OSM    C1518157   4.457   3.460   2.173 -0.5298 -0.4243 -1.1176
  162OSM   H15A18158   4.427   3.495   2.076  2.7332 -0.1805 -2.1512
  162OSM   H15B18159   4.563   3.440   2.173 -0.7282 -1.7311  0.5644
  162OSM   H15C18160   4.448   3.548   2.236 -1.4012 -1.5667  0.4042
  162OSM    C1418161   4.254   3.365   2.268 -0.2214  0.4918 -0.2274
  162OSM   H14A18162   4.200   3.388   2.177  0.0499  0.1967 -0.4692
  162OSM   H14B18163   4.246   3.451   2.332  0.7333  1.0662 -0.8457
  162OSM   H14C18164   4.210   3.283   2.323 -1.2678  1.6815  0.7545
  162OSM    C1318165   4.423   3.224   2.158 -0.6967 -0.3785 -0.1673
  162OSM   H13A18166   4.422   3.260   2.056  1.1145  1.2437  0.3141
  162OSM   H13B18167   4.340   3.156   2.171 -0.5168 -0.3704  1.1564
  162OSM   H13C18168   4.517   3.176   2.180 -0.9771 -1.0861 -0.4638
  162OSM    C1218169   4.458   3.331   2.385  0.3365  0.1575 -0.1558
  162OSM   H12A18170   4.409   3.411   2.439 -0.3413 -1.1500  1.2434
  162OSM   H12B18171   4.565   3.348   2.389  0.1219  1.7954 -0.6028
  162OSM    C1118172   4.407   3.208   2.459 -0.1272  0.3130 -0.8600
  162OSM   H11A18173   4.462   3.199   2.555 -1.0437  1.0808 -0.2482
  162OSM   H11B18174   4.442   3.119   2.403  2.3954  0.5709  0.1773
  162OSM      P18175   4.196   3.279   2.601 -0.0166 -0.0763 -0.6380
  162OSM    O1318176   4.184   3.414   2.546  0.4294  0.1523  0.2073
  162OSM    O1418177   4.071   3.204   2.642  0.2521 -0.4376 -0.0852
  162OSM    O1118178   4.304   3.271   2.723  0.0213  0.1300 -0.2055
  162OSM    O1218179   4.263   3.202   2.484  0.1395  0.3595  0.3047
  162OSM    C1S18180   4.297   3.351   2.838  0.1611  0.4334 -0.3322
  162OSM    H1S18181   4.248   3.450   2.826 -1.7712  0.1554  3.7702
  162OSM    H1T18182   4.398   3.377   2.876 -0.8500 -0.3467  3.2129
  162OSM     NF18183   4.235   3.369   3.083 -0.3124 -0.5770 -0.2339
  162OSM    HNF18184   4.291   3.339   3.159  1.7105 -0.0324 -1.4264
  162OSM    C2S18185   4.236   3.278   2.967  0.2092 -0.1385 -0.0435
  162OSM    H2S18186   4.131   3.257   2.938  0.5454 -1.7886 -0.1516
  162OSM    C3S18187   4.294   3.140   2.999  0.3735 -0.1161  0.4853
  162OSM    H3S18188   4.400   3.150   3.033 -0.2444  1.7246  2.0449
  162OSM     O318189   4.303   3.055   2.882  0.0263 -0.6258 -0.0423
  162OSM    HO318190   4.287   3.115   2.808  3.5561 -2.5030 -2.6369
  162OSM    C4S18191   4.233   3.074   3.120 -0.4984  0.2170 -0.0014
  162OSM    H4S18192   4.296   3.100   3.206 -0.6375  0.1028  0.1363
  162OSM    C5S18193   4.127   2.998   3.135 -0.2325  0.2586 -0.4059
  162OSM    H5S18194   4.075   2.975   3.042  0.0527 -0.4156 -0.4077
  162OSM    C6S18195   4.073   2.931   3.262  0.3009  0.5212  1.4839
  162OSM    H6S18196   3.968   2.965   3.274  0.2731  1.0365 -0.0311
  162OSM    H6T18197   4.140   2.959   3.346  0.0944 -1.1822  2.2637
  162OSM    C7S18198   4.071   2.777   3.244 -0.5988 -0.1914 -0.1891
  162OSM    H7S18199   4.173   2.737   3.225  0.1898  0.9268  1.4601
  162OSM    H7T18200   4.004   2.755   3.158 -1.8670 -0.9817  0.9393
  162OSM    C8S18201   4.005   2.708   3.360  0.3086 -0.3892  0.1436
  162OSM    H8S18202   3.975   2.606   3.328  1.5716 -0.2541 -1.6317
  162OSM    H8T18203   3.909   2.760   3.380  1.1428  1.8559 -1.2935
  162OSM    C9S18204   4.097   2.702   3.477 -0.1507 -0.7828 -0.2512
  162OSM    H9S18205   4.120   2.805   3.512  1.0147 -0.9267 -0.5799
  162OSM    H9T18206   4.189   2.643   3.458  1.5231  1.9075 -0.9844
  162OSM   C10S18207   4.015   2.640   3.595 -0.6032 -0.6918  0.3626
  162OSM   H10S18208   3.976   2.536   3.587 -2.0553 -0.1788  0.4276
  162OSM   H10T18209   3.923   2.702   3.611 -0.5119 -0.2417 -0.7115
  162OSM   C11S18210   4.091   2.648   3.733  0.6599 -0.6189  0.5276
  162OSM   H11S18211   4.138   2.748   3.727 -1.1945  0.3175  0.6528
  162OSM   H11T18212   4.176   2.578   3.727  1.4218  0.2782  0.6157
  162OSM   C12S18213   4.012   2.623   3.855  0.0402 -0.0796 -0.3258
  162OSM   H12S18214   3.995   2.513   3.856 -0.9578  0.0591  0.5982
  162OSM   H12T18215   3.929   2.697   3.860  0.1564  0.0628 -0.5162
  162OSM   C13S18216   4.101   2.643   3.980  0.4501 -0.4760  0.1451
  162OSM   H13S18217   4.138   2.747   3.991 -1.0211  0.0695  0.2283
  162OSM   H13T18218   4.188   2.576   3.964  1.0200  0.4732 -0.8654
  162OSM   C14S18219   4.024   2.628   4.107 -0.0371  0.2681  0.4553
  162OSM   H14S18220   3.947   2.548   4.104 -1.4564  1.5912  0.6340
  162OSM   H14T18221   3.953   2.712   4.117  0.7300  0.7871  1.7464
  162OSM   C15S18222   4.117   2.612   4.228  0.3402 -0.1591 -0.0150
  162OSM   H15S18223   4.191   2.694   4.214 -0.2716  0.4515  0.2522
  162OSM   H15T18224   4.179   2.520   4.221  2.7235  1.3626 -0.0768
  162OSM   C16S18225   4.040   2.618   4.353  0.1883  0.7430  0.0256
  162OSM   H16S18226   3.983   2.525   4.373  0.2377  0.8775  0.8183
  162OSM   H16T18227   3.966   2.701   4.356 -1.6438 -0.7793 -0.9241
  162OSM   C17S18228   4.131   2.640   4.474 -0.0310  0.4482 -0.0536
  162OSM   H17S18229   4.183   2.738   4.464  0.6559  0.0244 -0.6788
  162OSM   H17T18230   4.212   2.565   4.467 -1.4374 -1.2325  0.7916
  162OSM   C18S18231   4.054   2.633   4.616 -0.0390 -0.0214 -0.3109
  162OSM   H18S18232   3.993   2.725   4.629 -1.5985 -1.3027  2.0226
  162OSM   H18T18233   4.126   2.631   4.700  2.0310  1.2260 -1.9355
  162OSM   H18U18234   3.985   2.546   4.622  0.1525 -0.0906  1.3338
  162OSM    C1F18235   4.188   3.493   3.078  0.1115 -0.2012 -1.0204
  162OSM     OF18236   4.098   3.520   2.999 -0.9850  0.3860  0.0758
  162OSM    C2F18237   4.248   3.593   3.173 -0.2059  0.1120  0.1548
  162OSM    H2F18238   4.303   3.680   3.132  0.5599  0.5341  1.9828
  162OSM    H2G18239   4.323   3.533   3.229  3.3869  0.9661 -3.2740
  162OSM    C3F18240   4.146   3.658   3.268 -0.4568  0.2077  0.0208
  162OSM    H3F18241   4.091   3.578   3.323  0.8060 -0.1140  0.8492
  162OSM    H3G18242   4.063   3.705   3.211 -0.9999 -0.1916  0.4614
  162OSM    C4F18243   4.212   3.758   3.366  0.5895  0.4768  0.0648
  162OSM    H4F18244   4.246   3.840   3.298 -0.9997  0.4995 -0.7528
  162OSM    H4G18245   4.301   3.715   3.418 -0.2757  0.1378  1.2956
  162OSM    C5F18246   4.112   3.815   3.476 -0.0071  0.2605 -0.1895
  162OSM    H5F18247   4.082   3.730   3.540  2.0912 -0.2574  0.1942
  162OSM    H5G18248   4.026   3.851   3.415  0.9324  1.9161 -0.6056
  162OSM    C6F18249   4.174   3.917   3.563  0.0889  0.1239  0.2222
  162OSM    H6F18250   4.209   3.996   3.494  2.7483  1.4724  2.8498
  162OSM    H6G18251   4.269   3.873   3.601 -0.2918 -2.0643 -1.1657
  162OSM    C7F18252   4.072   3.973   3.674 -0.2317 -0.2180  0.6538
  162OSM    H7F18253   4.029   3.884   3.726  1.9917 -0.4627  2.2030
  162OSM    H7G18254   3.985   4.023   3.626  0.7625  1.1755  0.2489
  162OSM    C8F18255   4.137   4.055   3.787 -0.5191 -0.2678  0.0440
  162OSM    H8F18256   4.047   4.091   3.843  0.5773  0.4076  1.4336
  162OSM    H8G18257   4.200   4.133   3.740 -0.0704 -1.7644 -1.9698
  162OSM    C9F18258   4.234   3.980   3.881  0.2155 -0.1258 -0.1206
  162OSM    H9F18259   4.335   3.964   3.840  0.3025  1.8793 -0.8129
  162OSM   C10F18260   4.212   3.951   4.012  0.6147 -0.2391 -0.3018
  162OSM   H10F18261   4.290   3.900   4.071 -0.7579  0.1103  1.9052
  162OSM   C11F18262   4.086   3.980   4.095 -0.0556  0.3357 -0.5349
  162OSM   H11F18263   4.060   3.882   4.139 -0.6249  0.5650 -0.3440
  162OSM   H11G18264   4.000   4.019   4.036  0.1726 -0.8659 -1.7119
  162OSM   C12F18265   4.129   4.081   4.208 -0.7307 -0.7544 -0.1207
  162OSM   H12F18266   4.155   4.179   4.162  0.8823 -1.4155 -0.6945
  162OSM   H12G18267   4.219   4.041   4.258 -0.5040  1.5750  1.5134
  162OSM   C13F18268   4.020   4.100   4.310  0.2960 -0.9205  0.0857
  162OSM   H13F18269   4.010   4.000   4.357  1.5713 -1.9815 -1.7999
  162OSM   H13G18270   3.925   4.131   4.261  1.8742  1.2942 -1.8170
  162OSM   C14F18271   4.066   4.208   4.411 -0.2099  0.1244  0.0691
  162OSM   H14F18272   4.074   4.307   4.361  0.2013  0.2069  0.2829
  162OSM   H14G18273   4.171   4.182   4.439 -0.3697  0.8993  1.5400
  162OSM   C15F18274   3.980   4.219   4.533 -0.8378  0.6182  0.4443
  162OSM   H15F18275   3.880   4.251   4.498 -1.0874  0.5043  1.0426
  162OSM   H15G18276   4.031   4.291   4.600  2.6112 -0.0765 -1.1721
  162OSM   C16F18277   3.987   4.095   4.613 -0.1703  0.2906  0.2163
  162OSM   H16F18278   4.084   4.086   4.666  0.5252 -1.8396 -1.2691
  162OSM   H16G18279   3.975   4.001   4.555  1.0684 -0.6388  1.4339
  162OSM   C17F18280   3.882   4.082   4.732 -1.3188  0.0595  0.8394
  162OSM   H17F18281   3.900   4.156   4.813 -0.5150  0.0910  0.6482
  162OSM   H17G18282   3.893   3.982   4.778 -0.8785  0.1600  0.9657
  162OSM   C18F18283   3.738   4.078   4.681 -0.4310 -0.5313  0.0845
  162OSM   H18F18284   3.724   3.992   4.612  0.7737 -0.9984  0.3965
  162OSM   H18G18285   3.720   4.171   4.624  1.0786 -1.3104 -1.8145
  162OSM   H18H18286   3.664   4.072   4.763  0.0567  0.6720  0.6289
  163OSM      N18287   2.377   4.468   2.531 -0.1520  0.6219 -0.2916
  163OSM    C1518288   2.430   4.600   2.575  0.8551  0.4346 -0.3301
  163OSM   H15A18289   2.536   4.621   2.573  0.8339  1.4650  3.0777
  163OSM   H15B18290   2.400   4.635   2.673  0.6823 -1.2995  0.2750
  163OSM   H15C18291   2.394   4.677   2.508 -1.5539 -0.3406 -0.0117
  163OSM    C1418292   2.235   4.454   2.576 -0.1468  0.2010  0.2611
  163OSM   H14A18293   2.232   4.399   2.669 -0.2175 -1.7115 -0.8205
  163OSM   H14B18294   2.180   4.394   2.505  0.3670  0.7898 -0.6478
  163OSM   H14C18295   2.185   4.550   2.577 -2.2851 -0.8025 -1.7385
  163OSM    C1318296   2.376   4.470   2.382 -0.0338  0.1643  0.0225
  163OSM   H13A18297   2.301   4.533   2.337  1.8240  0.1896 -3.3293
  163OSM   H13B18298   2.355   4.372   2.343 -0.0201  0.2320 -0.1541
  163OSM   H13C18299   2.470   4.507   2.344  0.0190 -0.0415 -0.0524
  163OSM    C1218300   2.470   4.352   2.584 -0.5784 -0.9551  0.0225
  163OSM   H12A18301   2.419   4.259   2.561 -3.2703  0.3799  0.1929
  163OSM   H12B18302   2.476   4.353   2.692  0.3680  2.4133  0.0435
  163OSM    C1118303   2.611   4.355   2.523 -0.4889  0.5685 -0.5009
  163OSM   H11A18304   2.648   4.459   2.534  0.0047  0.3433 -0.0281
  163OSM   H11B18305   2.604   4.344   2.412  1.9837  2.2024 -0.8828
  163OSM      P18306   2.737   4.137   2.536 -0.2670 -0.2733  0.0524
  163OSM    O1318307   2.621   4.061   2.495  0.3561 -0.0006  0.2889
  163OSM    O1418308   2.834   4.163   2.428 -0.1760 -0.7913  0.2579
  163OSM    O1118309   2.810   4.049   2.649  0.3775 -0.0485 -0.0524
  163OSM    O1218310   2.690   4.271   2.598 -0.0233 -0.0088 -0.3520
  163OSM    C1S18311   2.808   4.090   2.787  0.1684  0.2426  0.2744
  163OSM    H1S18312   2.711   4.140   2.810 -0.0121  1.0624 -1.9887
  163OSM    H1T18313   2.895   4.156   2.809  2.5612 -2.7002  0.3554
  163OSM     NF18314   2.798   4.014   3.030  0.1909 -0.0738  0.2214
  163OSM    HNF18315   2.879   4.029   3.086  0.6941  0.9571 -0.7360
  163OSM    C2S18316   2.819   3.967   2.888 -0.2310 -0.3826 -0.3307
  163OSM    H2S18317   2.736   3.897   2.864 -0.7833  0.2799 -0.3834
  163OSM    C3S18318   2.945   3.889   2.857 -1.0027  0.4977 -0.0842
  163OSM    H3S18319   3.035   3.952   2.876 -0.2732 -0.8269  0.9734
  163OSM     O318320   2.954   3.843   2.725 -0.1635 -0.1572 -0.5177
  163OSM    HO318321   2.897   3.907   2.682 -1.0829 -1.4996 -1.3539
  163OSM    C4S18322   2.950   3.766   2.941 -0.5181 -0.4792 -0.0056
  163OSM    H4S18323   2.850   3.719   2.940  0.5832 -2.9759 -0.2992
  163OSM    C5S18324   3.042   3.716   3.029 -0.1921 -0.2629 -0.9380
  163OSM    H5S18325   3.145   3.754   3.037  0.2488 -1.7093  1.3222
  163OSM    C6S18326   3.014   3.597   3.116  0.5238  0.0835 -0.0183
  163OSM    H6S18327   3.059   3.599   3.217 -1.4130 -0.0625  0.9026
  163OSM    H6T18328   3.071   3.515   3.067 -0.3743 -0.0859 -0.8126
  163OSM    C7S18329   2.870   3.548   3.130  0.4762 -0.0414 -0.1320
  163OSM    H7S18330   2.866   3.448   3.177 -1.5251 -0.4465 -1.0377
  163OSM    H7T18331   2.822   3.515   3.036 -0.6593 -1.6555  0.9521
  163OSM    C8S18332   2.771   3.636   3.211  0.4903  0.8455 -0.2752
  163OSM    H8S18333   2.669   3.625   3.168  0.6799 -2.1751 -0.1771
  163OSM    H8T18334   2.805   3.741   3.201 -0.5096  1.4635  2.0877
  163OSM    C9S18335   2.751   3.617   3.365  0.0396 -0.3741 -0.0375
  163OSM    H9S18336   2.695   3.707   3.398 -0.4440 -0.4634 -0.5996
  163OSM    H9T18337   2.852   3.608   3.410 -0.2578 -1.0056  0.5040
  163OSM   C10S18338   2.673   3.501   3.425 -0.1919  0.1801 -0.4632
  163OSM   H10S18339   2.732   3.411   3.396  0.3205  0.5235 -0.5080
  163OSM   H10T18340   2.576   3.501   3.371 -1.5094 -0.7480  1.7669
  163OSM   C11S18341   2.644   3.519   3.577  0.4127 -0.6607 -0.2905
  163OSM   H11S18342   2.565   3.445   3.602 -2.3869  3.1252  3.3411
  163OSM   H11T18343   2.612   3.618   3.614 -1.1599 -0.0616 -3.0216
  163OSM   C12S18344   2.763   3.488   3.672  0.8009  0.0324 -0.1568
  163OSM   H12S18345   2.852   3.550   3.652  0.2205  0.9697  0.1169
  163OSM   H12T18346   2.786   3.380   3.657 -1.2385 -0.6308  1.0528
  163OSM   C13S18347   2.719   3.493   3.813  0.2182 -0.7350  0.2099
  163OSM   H13S18348   2.622   3.442   3.833  0.0596  0.0853  1.6337
  163OSM   H13T18349   2.699   3.594   3.855 -0.6061 -2.0534  3.3280
  163OSM   C14S18350   2.822   3.440   3.908 -0.2823  0.4112 -0.1749
  163OSM   H14S18351   2.906   3.513   3.908 -0.6097  0.9300 -3.2505
  163OSM   H14T18352   2.855   3.342   3.868  0.0711  0.6033 -0.3585
  163OSM   C15S18353   2.767   3.398   4.042 -0.1743 -0.4567  0.2241
  163OSM   H15S18354   2.684   3.326   4.028 -0.4493  0.0021 -0.6274
  163OSM   H15T18355   2.740   3.484   4.107 -0.6658 -1.2930  1.1477
  163OSM   C16S18356   2.879   3.313   4.112 -0.3122  0.3093 -0.0368
  163OSM   H16S18357   2.967   3.380   4.125 -0.7610  0.8481  0.2738
  163OSM   H16T18358   2.906   3.223   4.053 -0.6595  0.4041 -0.3378
  163OSM   C17S18359   2.824   3.266   4.249  0.4100  0.0799 -0.4982
  163OSM   H17S18360   2.761   3.176   4.234 -1.7847  1.3233  0.6162
  163OSM   H17T18361   2.752   3.341   4.290 -0.0700 -1.3533  1.4449
  163OSM   C18S18362   2.943   3.246   4.350 -0.7192 -0.0757  0.4945
  163OSM   H18S18363   3.023   3.185   4.302 -0.7202 -0.8217  1.4008
  163OSM   H18T18364   2.911   3.199   4.446 -0.4884 -1.0649  0.0988
  163OSM   H18U18365   2.993   3.343   4.371  0.1772 -0.3826 -0.1624
  163OSM    C1F18366   2.676   4.039   3.075  0.5441 -0.6872 -0.2895
  163OSM     OF18367   2.578   4.027   3.007 -0.5647 -0.1939  0.5374
  163OSM    C2F18368   2.654   4.089   3.211  0.6849 -0.6898 -0.1256
  163OSM    H2F18369   2.617   4.194   3.206  0.3640 -0.8464 -1.1438
  163OSM    H2G18370   2.751   4.103   3.265 -0.5290  1.0391  1.7543
  163OSM    C3F18371   2.547   4.013   3.293  0.3764 -0.3542  0.3716
  163OSM    H3F18372   2.587   3.912   3.319 -0.2092 -0.6347  0.1852
  163OSM    H3G18373   2.449   4.005   3.243  0.2614  2.7101 -0.0600
  163OSM    C4F18374   2.533   4.072   3.435  0.1866  0.4024 -0.2831
  163OSM    H4F18375   2.456   4.151   3.444 -1.3395 -1.1831  1.6526
  163OSM    H4G18376   2.625   4.126   3.467 -2.0342  2.5078  3.2943
  163OSM    C5F18377   2.496   3.965   3.543  0.2389  0.3424  0.6094
  163OSM    H5F18378   2.569   3.883   3.530  1.0274  1.0534  0.5124
  163OSM    H5G18379   2.399   3.914   3.523  0.3261  0.6609 -0.7728
  163OSM    C6F18380   2.512   4.006   3.689 -0.2611  0.2661 -0.2063
  163OSM    H6F18381   2.435   4.081   3.717  0.8042  0.7960  1.4276
  163OSM    H6G18382   2.600   4.073   3.692  0.0577 -0.0043 -2.2614
  163OSM    C7F18383   2.522   3.893   3.802 -0.0184  0.5502  0.1206
  163OSM    H7F18384   2.565   3.802   3.756 -1.9475 -0.5854  0.4738
  163OSM    H7G18385   2.417   3.863   3.821  0.7620 -1.9569  0.8708
  163OSM    C8F18386   2.584   3.932   3.937  0.2341 -0.1841 -0.4326
  163OSM    H8F18387   2.666   4.002   3.910  0.5047  0.3867  1.6506
  163OSM    H8G18388   2.633   3.839   3.975  2.5918  1.4567  0.8451
  163OSM    C9F18389   2.501   4.001   4.045 -0.1134 -0.2491  0.4490
  163OSM    H9F18390   2.416   4.054   3.999 -1.3880 -1.0380  1.8020
  163OSM   C10F18391   2.508   3.985   4.175 -0.5361  0.7448  0.0735
  163OSM   H10F18392   2.440   4.047   4.235 -0.6865  0.4665  0.1877
  163OSM   C11F18393   2.607   3.896   4.254 -0.3589 -0.2362  0.1150
  163OSM   H11F18394   2.708   3.941   4.266 -0.0656 -0.6538 -0.6792
  163OSM   H11G18395   2.618   3.804   4.192 -0.6757  0.5630 -1.1682
  163OSM   C12F18396   2.548   3.845   4.387  0.3698  0.5361  0.5475
  163OSM   H12F18397   2.606   3.752   4.407 -0.9377 -1.5570 -4.1217
  163OSM   H12G18398   2.444   3.812   4.369  0.7351  0.6532 -2.2692
  163OSM   C13F18399   2.568   3.945   4.514 -0.3091 -0.6738  0.2364
  163OSM   H13F18400   2.554   4.053   4.492 -0.7926 -0.6869  0.4652
  163OSM   H13G18401   2.676   3.938   4.540 -0.5977 -2.9432  1.1035
  163OSM   C14F18402   2.484   3.908   4.635  0.3596  0.0631 -0.0048
  163OSM   H14F18403   2.517   3.814   4.683 -1.5929 -0.7131 -0.0970
  163OSM   H14G18404   2.376   3.891   4.616 -0.6180  0.9850  3.7636
  163OSM   C15F18405   2.488   4.021   4.739  0.0613  0.8884  0.0133
  163OSM   H15F18406   2.446   4.117   4.700  2.3652  0.8252 -3.0343
  163OSM   H15G18407   2.592   4.037   4.775 -0.1220  1.5228  0.2751
  163OSM   C16F18408   2.400   3.978   4.860  0.2713  0.4314 -0.2715
  163OSM   H16F18409   2.448   3.898   4.921 -1.1861 -1.0047 -0.9455
  163OSM   H16G18410   2.306   3.931   4.824 -0.1762 -0.4994  1.9031
  163OSM   C17F18411   2.377   4.085   4.959  0.4751 -1.0741 -0.2064
  163OSM   H17F18412   2.280   4.057   5.006  0.2761 -0.6877 -0.3842
  163OSM   H17G18413   2.366   4.182   4.906 -0.7249 -2.2871 -2.3025
  163OSM   C18F18414   2.476   4.112   5.071 -1.1022 -0.1601  0.4434
  163OSM   H18F18415   2.582   4.134   5.044 -0.6721 -1.6544  0.8016
  163OSM   H18G18416   2.480   4.019   5.132 -1.5052 -1.6522 -1.6832
  163OSM   H18H18417   2.434   4.197   5.129  1.3139  2.0838 -0.8755
  164OSM      N18418   4.692   4.753   2.911  0.2379 -0.1063 -0.3299
  164OSM    C1518419   4.715   4.898   2.963 -0.0353  0.5175 -0.1282
  164OSM   H15A18420   4.769   4.973   2.908 -0.7468  1.6885  0.7268
  164OSM   H15B18421   4.775   4.874   3.049 -0.9803 -0.5214  0.2647
  164OSM   H15C18422   4.614   4.931   2.981 -1.0743 -1.0394 -2.5949
  164OSM    C1418423   4.616   4.685   3.017  0.3445  0.2284  0.4809
  164OSM   H14A18424   4.604   4.579   3.000  0.6703  0.3570 -0.5789
  164OSM   H14B18425   4.513   4.718   3.021  0.7922  1.7799 -0.2045
  164OSM   H14C18426   4.661   4.703   3.113  0.7255  1.2565  0.1223
  164OSM    C1318427   4.608   4.771   2.782  0.0029  0.5450 -0.0991
  164OSM   H13A18428   4.581   4.673   2.745 -0.0325 -0.2508  1.9180
  164OSM   H13B18429   4.665   4.826   2.708 -0.3870 -0.5497 -1.2342
  164OSM   H13C18430   4.521   4.827   2.813 -0.8011 -0.5802 -0.2501
  164OSM    C1218431   4.820   4.679   2.896 -0.1428 -1.2937 -0.3272
  164OSM   H12A18432   4.808   4.574   2.873 -1.0797 -1.0944 -0.7781
  164OSM   H12B18433   4.871   4.684   2.991  1.3084  3.8624 -1.1033
  164OSM    C1118434   4.914   4.747   2.789 -0.2403  0.3263 -0.8205
  164OSM   H11A18435   4.938   4.850   2.824 -1.9404  0.6614 -0.5371
  164OSM   H11B18436   4.878   4.758   2.684  0.2132  1.1903 -0.8959
  164OSM      P18437   5.031   4.517   2.730  0.3315 -0.2972  0.0523
  164OSM    O1318438   4.908   4.502   2.644 -0.4138 -0.5873  0.0921
  164OSM    O1418439   5.163   4.487   2.667 -0.1921  0.0803 -0.4028
  164OSM    O1118440   5.015   4.423   2.855  0.2882  0.6199 -0.1524
  164OSM    O1218441   5.036   4.669   2.784  0.0406 -0.6707  0.2623
  164OSM    C1S18442   5.096   4.456   2.972 -0.4564  0.3815 -0.2039
  164OSM    H1S18443   5.045   4.539   3.025  0.5982  0.0100  1.4262
  164OSM    H1T18444   5.201   4.470   2.939  0.9873 -1.7465  3.0309
  164OSM     NF18445   5.173   4.379   3.191 -0.1129 -0.5236 -0.0635
  164OSM    HNF18446   5.269   4.353   3.200 -0.4528 -1.1211  2.8237
  164OSM    C2S18447   5.105   4.337   3.069 -0.2420 -0.2147  0.1869
  164OSM    H2S18448   5.007   4.291   3.093 -0.7570  0.5883 -0.3343
  164OSM    C3S18449   5.181   4.229   2.983  0.0869 -0.1833 -0.4576
  164OSM    H3S18450   5.277   4.263   2.939  0.0868 -0.6720 -0.8436
  164OSM     O318451   5.107   4.180   2.874 -0.1730  0.4744 -0.1224
  164OSM    HO318452   5.041   4.249   2.859 -0.3925  0.6781  1.6194
  164OSM    C4S18453   5.216   4.108   3.071  0.6844  0.4343  0.9221
  164OSM    H4S18454   5.315   4.125   3.117  1.4100  3.3167 -1.3912
  164OSM    C5S18455   5.148   3.992   3.101 -0.1568  0.0175  0.0368
  164OSM    H5S18456   5.047   3.982   3.059  0.7990 -0.2199 -2.3142
  164OSM    C6S18457   5.189   3.875   3.192 -0.2596 -0.0546  0.3606
  164OSM    H6S18458   5.296   3.876   3.221 -0.0758 -1.9157 -0.1524
  164OSM    H6T18459   5.171   3.778   3.140  1.5087 -0.0918 -0.2253
  164OSM    C7S18460   5.106   3.899   3.320 -0.5552  0.1816  0.5124
  164OSM    H7S18461   4.996   3.887   3.316 -0.4825 -0.3616 -0.0604
  164OSM    H7T18462   5.119   4.006   3.349  1.3798  0.7660 -2.0688
  164OSM    C8S18463   5.161   3.819   3.439 -0.4494  0.2265 -0.9077
  164OSM    H8S18464   5.270   3.839   3.435 -0.0388 -1.8856 -1.4295
  164OSM    H8T18465   5.144   3.712   3.412 -1.9582 -0.0443  0.8941
  164OSM    C9S18466   5.104   3.866   3.580 -0.4382 -0.3582  0.4575
  164OSM    H9S18467   4.993   3.862   3.570 -0.6251  0.8729  1.8374
  164OSM    H9T18468   5.133   3.971   3.600 -0.7480 -0.2000  0.0956
  164OSM   C10S18469   5.152   3.779   3.697  0.4968  0.5879  0.8114
  164OSM   H10S18470   5.262   3.788   3.711  0.5798  0.1218  0.4856
  164OSM   H10T18471   5.128   3.673   3.676  0.8367  0.7484 -0.4756
  164OSM   C11S18472   5.073   3.816   3.825 -0.3706  0.0251  0.5807
  164OSM   H11S18473   4.963   3.828   3.809  0.0766  0.0857 -3.2595
  164OSM   H11T18474   5.107   3.919   3.851 -1.2181  0.7710 -1.0955
  164OSM   C12S18475   5.110   3.718   3.940  0.0577  0.2534  0.1921
  164OSM   H12S18476   5.218   3.738   3.960  0.1883 -0.1759 -0.0647
  164OSM   H12T18477   5.087   3.618   3.897  0.8185  0.3121 -0.3696
  164OSM   C13S18478   5.017   3.743   4.061 -0.2705 -0.1167 -0.2507
  164OSM   H13S18479   4.911   3.760   4.034  0.0487  1.0464 -0.8681
  164OSM   H13T18480   5.041   3.845   4.100 -0.7195  0.9681 -2.6282
  164OSM   C14S18481   5.040   3.628   4.158  0.5215  1.0782 -0.1665
  164OSM   H14S18482   5.145   3.606   4.189 -0.1408 -3.1592 -0.3293
  164OSM   H14T18483   5.027   3.541   4.090  2.2598  1.5163 -1.1378
  164OSM   C15S18484   4.942   3.635   4.279  0.4046  0.6997  0.0145
  164OSM   H15S18485   4.851   3.572   4.269  0.4895  0.3873  1.1700
  164OSM   H15T18486   4.912   3.741   4.294  0.4228  0.4999  1.6407
  164OSM   C16S18487   5.005   3.592   4.419  0.4907  0.1010  0.0512
  164OSM   H16S18488   5.098   3.648   4.443  0.3907  0.0415  0.5966
  164OSM   H16T18489   5.043   3.488   4.402 -0.0336 -0.2714  1.0795
  164OSM   C17S18490   4.898   3.588   4.530  0.1305 -0.0531  0.2525
  164OSM   H17S18491   4.813   3.536   4.482  0.4824  0.9077 -1.4882
  164OSM   H17T18492   4.864   3.693   4.545 -2.5891 -0.7142 -0.8579
  164OSM   C18S18493   4.949   3.511   4.653  0.2255 -0.1652 -0.7685
  164OSM   H18S18494   4.952   3.401   4.638  0.1461 -0.2130 -0.4420
  164OSM   H18T18495   4.874   3.529   4.734 -0.8106 -4.4733 -0.4914
  164OSM   H18U18496   5.054   3.540   4.672  0.5620 -0.0494 -2.6335
  164OSM    C1F18497   5.108   4.437   3.300  0.2437  0.2365 -0.2731
  164OSM     OF18498   4.994   4.474   3.277 -0.5772  0.1627  0.4168
  164OSM    C2F18499   5.183   4.445   3.432 -0.9899  0.7206  0.8721
  164OSM    H2F18500   5.293   4.438   3.419 -0.7576  0.0544  2.9061
  164OSM    H2G18501   5.157   4.355   3.491  1.1994 -1.1608 -0.8229
  164OSM    C3F18502   5.157   4.580   3.502 -1.1123  0.5382 -0.5813
  164OSM    H3F18503   5.048   4.600   3.509 -0.8047  1.8891  0.8332
  164OSM    H3G18504   5.197   4.661   3.436  2.5034  1.3745  2.2979
  164OSM    C4F18505   5.247   4.586   3.638 -0.2210 -0.0468  0.2544
  164OSM    H4F18506   5.199   4.526   3.718 -1.6422  0.1012 -0.4536
  164OSM    H4G18507   5.257   4.691   3.672  0.3976 -0.7163  2.2858
  164OSM    C5F18508   5.394   4.551   3.625 -0.4683  0.2412  0.6706
  164OSM    H5F18509   5.442   4.606   3.541 -0.6374  1.6513  1.4743
  164OSM    H5G18510   5.400   4.443   3.600 -0.4490  1.1462 -4.3268
  164OSM    C6F18511   5.461   4.578   3.758  0.1088  0.2192 -0.1289
  164OSM    H6F18512   5.567   4.549   3.745 -1.0524 -4.9323 -0.2508
  164OSM    H6G18513   5.415   4.511   3.834  1.4927 -1.1456 -0.4592
  164OSM    C7F18514   5.459   4.720   3.810  0.0473  0.2526  0.0525
  164OSM    H7F18515   5.356   4.756   3.832  0.4572  0.0671  2.6655
  164OSM    H7G18516   5.507   4.784   3.733  0.3933  0.6692  0.6105
  164OSM    C8F18517   5.530   4.725   3.946 -1.1087 -0.4230 -0.4138
  164OSM    H8F18518   5.504   4.634   4.003 -1.1478 -0.4984 -0.5518
  164OSM    H8G18519   5.511   4.822   3.997 -0.0179 -0.6984  0.5683
  164OSM    C9F18520   5.682   4.738   3.927  0.4099 -0.5748  0.0967
  164OSM    H9F18521   5.695   4.814   3.849 -3.3688  0.3169  0.1464
  164OSM   C10F18522   5.774   4.670   3.993  0.2505  0.9413  0.1929
  164OSM   H10F18523   5.882   4.684   3.983  0.4597 -1.6970 -2.6259
  164OSM   C11F18524   5.748   4.576   4.099  0.8540  1.4238 -0.2672
  164OSM   H11F18525   5.647   4.594   4.141  0.2058 -2.7723  0.4184
  164OSM   H11G18526   5.821   4.564   4.182  0.1744 -0.4340  0.1102
  164OSM   C12F18527   5.741   4.432   4.033  0.1069 -0.1008 -0.6659
  164OSM   H12F18528   5.838   4.402   3.989  0.5941  2.1193 -1.2691
  164OSM   H12G18529   5.680   4.441   3.941  0.8479  0.2383 -1.1405
  164OSM   C13F18530   5.678   4.329   4.129  0.1023 -1.0368 -0.1206
  164OSM   H13F18531   5.661   4.243   4.061  0.3658 -1.0482 -0.1765
  164OSM   H13G18532   5.580   4.368   4.163  0.1054 -1.8628  0.8751
  164OSM   C14F18533   5.758   4.283   4.259  0.0531  0.3108 -0.5806
  164OSM   H14F18534   5.771   4.368   4.329  0.5141 -0.7150  0.6075
  164OSM   H14G18535   5.860   4.251   4.230  0.1868 -1.5378  1.7226
  164OSM   C15F18536   5.694   4.166   4.339 -0.6865 -0.1325 -0.0799
  164OSM   H15F18537   5.703   4.077   4.273 -2.0996  0.6491 -1.3941
  164OSM   H15G18538   5.584   4.178   4.354 -0.2726  1.8029  1.8179
  164OSM   C16F18539   5.753   4.128   4.479  0.0568 -0.3487 -0.0868
  164OSM   H16F18540   5.861   4.109   4.462  0.7141  2.1642  0.9293
  164OSM   H16G18541   5.708   4.040   4.530 -1.7365  0.3780 -0.3283
  164OSM   C17F18542   5.738   4.245   4.582  0.1015  0.5426  0.5519
  164OSM   H17F18543   5.794   4.327   4.534  1.2861 -0.6781 -0.2352
  164OSM   H17G18544   5.798   4.229   4.675 -0.0654  3.7334  1.3091
  164OSM   C18F18545   5.599   4.276   4.635  1.0090 -0.9029 -0.5182
  164OSM   H18F18546   5.594   4.341   4.725 -1.0377 -4.3559  2.1402
  164OSM   H18G18547   5.542   4.183   4.658 -0.9450  0.2194 -0.5335
  164OSM   H18H18548   5.526   4.324   4.565  0.6539 -0.1475  0.3553
  165SAPS     N18549   5.373   2.045   7.440  0.0824  0.0939 -0.0980
  165SAPS   HN118550   5.418   2.056   7.533 -0.6407  0.7124  0.1847
  165SAPS   HN218551   5.440   1.998   7.377  1.1838 -0.2786  1.3007
  165SAPS   HN318552   5.337   2.138   7.412  1.2733  1.5369  2.7719
  165SAPS   C1218553   5.263   1.937   7.464 -0.1661  0.4604 -0.1085
  165SAPS  H12A18554   5.322   1.847   7.467  2.2975  1.9872 -0.3125
  165SAPS   C1318555   5.177   1.937   7.588 -0.1228 -0.1978 -0.5794
  165SAPS  O13A18556   5.196   2.027   7.670  0.1134 -0.2358  0.2588
  165SAPS  O13B18557   5.101   1.839   7.615  0.4193 -0.7367  0.1029
  165SAPS   C1118558   5.170   1.925   7.342  0.5450 -0.0844 -0.3102
  165SAPS  H11A18559   5.092   1.849   7.364 -0.3665  0.4861 -1.4782
  165SAPS  H11B18560   5.227   1.890   7.254 -1.7247  1.3879 -2.5008
  165SAPS     P18561   5.102   2.123   7.190 -0.0181  0.2693  0.6537
  165SAPS   O1318562   5.035   2.253   7.203 -0.0666 -0.4035 -0.7234
  165SAPS   O1418563   5.242   2.127   7.137  0.5459 -0.5622 -0.0873
  165SAPS   O1218564   5.093   2.048   7.326 -0.3798 -0.2639 -0.0969
  165SAPS   O1118565   5.013   2.032   7.100  0.1949  0.2606 -0.5346
  165SAPS    C118566   5.069   1.929   7.016  0.2100 -0.0470  0.1499
  165SAPS    HA18567   5.165   1.882   7.044 -0.1651 -2.2361 -1.9442
  165SAPS    HB18568   4.987   1.857   6.997 -1.9046  2.1697  0.3457
  165SAPS    C218569   5.104   1.994   6.877  0.6110  0.5453  0.2991
  165SAPS    HS18570   5.202   2.047   6.880  0.8625  0.5913 -3.6457
  165SAPS   O2118571   4.993   2.078   6.839 -0.2867 -0.4748  0.2176
  165SAPS   C2118572   5.025   2.190   6.781  0.0546  1.4978  0.9622
  165SAPS   O2218573   5.131   2.245   6.783 -0.7280 -0.1307  0.0939
  165SAPS   C2218574   4.911   2.235   6.701 -0.1525 -0.6274  0.8051
  165SAPS   H2R18575   4.899   2.176   6.608 -2.2313 -0.2851  0.8074
  165SAPS   H2S18576   4.817   2.216   6.756 -0.2618 -1.7675  0.2384
  165SAPS    C318577   5.132   1.892   6.766 -0.0645  0.6178 -0.1179
  165SAPS    HX18578   5.057   1.811   6.767  0.9923 -0.4263 -1.4030
  165SAPS    HY18579   5.228   1.839   6.784  0.0116  0.2283 -1.5520
  165SAPS   O3118580   5.121   1.946   6.630  0.0119 -0.4811  0.3543
  165SAPS   C3118581   5.236   2.004   6.587 -0.7302  0.2329 -0.4400
  165SAPS   O3218582   5.331   2.031   6.655 -0.0974 -0.0544  0.1535
  165SAPS   C3218583   5.241   2.035   6.438 -0.3063 -0.1621 -0.3556
  165SAPS   H2X18584   5.216   1.945   6.378  0.5749 -0.7049  0.0809
  165SAPS   H2Y18585   5.341   2.077   6.412 -0.7178  0.6237 -0.7099
  165SAPS   C2318586   4.903   2.387   6.665 -0.7687 -0.2111 -0.1258
  165SAPS   H3R18587   4.988   2.414   6.599 -1.7237  0.4726 -1.1070
  165SAPS   H3S18588   4.921   2.446   6.757  0.0209  0.8113 -0.9205
  165SAPS   C2418589   4.771   2.423   6.590  0.0499 -0.2611  0.7466
  165SAPS   H4R18590   4.685   2.403   6.658 -2.1934  0.0251 -1.8751
  165SAPS   H4S18591   4.748   2.369   6.496  2.1465  0.3882 -0.1966
  165SAPS   C2518592   4.759   2.573   6.557 -0.1981 -0.5667 -0.4319
  165SAPS   H5R18593   4.745   2.642   6.641  0.8276  0.9430 -1.4525
  165SAPS   C2618594   4.762   2.619   6.428 -0.1012  0.1495  0.1614
  165SAPS   H6R18595   4.754   2.727   6.412 -1.8310  0.2429  1.3562
  165SAPS   C2718596   4.782   2.539   6.301 -0.2367  0.2024 -0.6767
  165SAPS   H7R18597   4.683   2.493   6.281  0.0635  0.2260 -2.3183
  165SAPS   H7S18598   4.844   2.451   6.329  0.7658  1.3723  0.9850
  165SAPS   C2818599   4.832   2.610   6.177  0.4246  0.0840 -0.0966
  165SAPS   H8R18600   4.938   2.639   6.181  1.0185 -2.0161  0.1723
  165SAPS   C2918601   4.760   2.640   6.065 -0.2514 -0.2756 -0.2584
  165SAPS   H9R18602   4.802   2.704   5.985 -0.8325 -0.7810 -0.9859
  165SAPS  C21018603   4.618   2.604   6.033  0.1602 -0.0750 -0.6931
  165SAPS  H10R18604   4.569   2.626   6.130  0.2701  0.1869 -0.6979
  165SAPS  H10S18605   4.613   2.493   6.019  0.9766 -0.2372  0.2144
  165SAPS  C21118606   4.557   2.679   5.925  0.7482  0.0661 -0.0408
  165SAPS  H11R18607   4.484   2.756   5.952  0.9869  0.1177  0.4572
  165SAPS  C21218608   4.560   2.644   5.796  0.2912  0.3058 -0.1335
  165SAPS  H12R18609   4.509   2.705   5.721 -0.5419 -2.0351 -1.5739
  165SAPS  C21318610   4.643   2.530   5.733  0.4731 -0.0899 -0.0310
  165SAPS  H13R18611   4.564   2.462   5.698 -1.1158 -0.1570  3.2848
  165SAPS  H13S18612   4.689   2.472   5.816  0.4371 -0.5190 -0.3138
  165SAPS  C21418613   4.749   2.571   5.634  0.7679  0.1402  0.0956
  165SAPS  H14R18614   4.839   2.623   5.668  2.0269 -1.4013 -0.7156
  165SAPS  C21518615   4.754   2.533   5.504 -0.3076  0.2225 -0.4857
  165SAPS  H15R18616   4.840   2.568   5.445  0.6782 -0.1947  0.6484
  165SAPS  C21618617   4.645   2.453   5.430 -0.2247  0.0901 -0.1447
  165SAPS  H16R18618   4.582   2.394   5.499  1.6026 -3.0509 -0.9798
  165SAPS  H16S18619   4.692   2.370   5.373  1.5403  0.6282  0.4660
  165SAPS  C21718620   4.538   2.531   5.339  0.3340 -0.3718  0.4228
  165SAPS  H17R18621   4.476   2.455   5.287 -0.6023  0.7537 -0.1425
  165SAPS  H17S18622   4.603   2.580   5.263 -1.1929 -2.4092 -2.3844
  165SAPS  C21818623   4.453   2.619   5.421  0.3350 -0.4708 -0.3556
  165SAPS  H18R18624   4.516   2.689   5.479 -1.0708 -0.7123  1.5794
  165SAPS  H18S18625   4.401   2.569   5.506 -2.3559  2.0820 -0.3242
  165SAPS  C21918626   4.353   2.692   5.328 -0.0730 -0.2476  0.8420
  165SAPS  H19R18627   4.283   2.618   5.283  0.3524  0.7054 -1.5287
  165SAPS  H19S18628   4.408   2.730   5.239 -2.3462 -0.1628 -0.6066
  165SAPS  C22018629   4.278   2.805   5.390  0.3235 -0.2525 -0.2164
  165SAPS  H20R18630   4.205   2.747   5.451  1.2483 -0.2043  0.9744
  165SAPS  H20S18631   4.224   2.870   5.317  0.6284 -1.0950 -1.2135
  165SAPS  H20T18632   4.333   2.871   5.460 -2.5519  0.8054  1.2061
  165SAPS   C3318633   5.134   2.138   6.392  0.7461  0.2086 -0.3962
  165SAPS   H3X18634   5.134   2.227   6.458  2.5151  1.5410 -2.0868
  165SAPS   H3Y18635   5.031   2.097   6.405  1.3300 -0.7566  1.5445
  165SAPS   C3418636   5.138   2.179   6.247  0.5301 -0.5733  0.6239
  165SAPS   H4X18637   5.129   2.084   6.190 -0.3510  0.6932 -1.4723
  165SAPS   H4Y18638   5.232   2.234   6.222 -0.1781  0.0807 -0.6768
  165SAPS   C3518639   5.027   2.273   6.213 -0.0595  0.0923 -0.4415
  165SAPS   H5X18640   5.051   2.374   6.252  0.3263 -0.2850  0.3021
  165SAPS   H5Y18641   4.938   2.244   6.272  0.0301  1.1712  0.2457
  165SAPS   C3618642   4.994   2.294   6.066 -0.1064 -0.5386  0.2963
  165SAPS   H6X18643   5.090   2.335   6.029 -1.1534  1.8231  0.0352
  165SAPS   H6Y18644   4.914   2.369   6.049  0.3252 -0.5808 -2.3980
  165SAPS   C3718645   4.958   2.175   5.992  0.5804 -0.1172  0.2871
  165SAPS   H7X18646   4.871   2.130   6.044  0.2042  0.2279 -0.0422
  165SAPS   H7Y18647   5.037   2.097   5.989  0.3244 -0.3661 -0.3185
  165SAPS   C3818648   4.913   2.203   5.845 -0.8838  0.3377  0.2077
  165SAPS   H8X18649   4.826   2.271   5.837  0.4656  2.0131 -0.7676
  165SAPS   H8Y18650   4.871   2.110   5.801 -2.1353  0.8577  0.2569
  165SAPS   C3918651   5.027   2.240   5.754 -0.4203 -0.0199  0.0750
  165SAPS   H9X18652   5.115   2.177   5.780 -0.7433 -0.5488 -0.0983
  165SAPS   H9Y18653   5.052   2.346   5.775 -0.0589  0.2338 -1.5103
  165SAPS  C31018654   4.980   2.218   5.606 -0.0875 -0.3463 -0.9977
  165SAPS  H10X18655   4.888   2.276   5.583  0.3955 -0.1356 -2.5456
  165SAPS  H10Y18656   4.951   2.111   5.612 -1.2794 -0.0034 -0.2471
  165SAPS  C31118657   5.089   2.226   5.508  0.2465  0.1583  0.6710
  165SAPS  H11X18658   5.077   2.166   5.415 -0.4739  2.1726 -0.6181
  165SAPS  H11Y18659   5.180   2.185   5.555 -0.0797 -0.3311  0.8903
  165SAPS  C31218660   5.120   2.371   5.473 -0.2695 -0.5560  0.2650
  165SAPS  H12X18661   5.121   2.445   5.556  2.8687 -0.1005 -0.0506
  165SAPS  H12Y18662   5.045   2.411   5.401  0.4658  1.3334  0.5075
  165SAPS  C31318663   5.255   2.392   5.399  0.6489 -0.0029 -0.5134
  165SAPS  H13X18664   5.341   2.340   5.445  0.5467  1.0517  0.9323
  165SAPS  H13Y18665   5.268   2.502   5.410  0.5290 -0.0744  0.3981
  165SAPS  C31418666   5.237   2.361   5.256 -0.4723  0.4378 -0.5222
  165SAPS  H14X18667   5.144   2.413   5.223 -2.3115 -1.5680  1.1547
  165SAPS  H14Y18668   5.218   2.252   5.244  0.2668  0.3899 -1.3428
  165SAPS  C31518669   5.354   2.417   5.174  0.0969 -0.5698  0.2109
  165SAPS  H15X18670   5.453   2.369   5.191  1.6219  1.7886 -1.4835
  165SAPS  H15Y18671   5.374   2.522   5.203 -1.3452 -0.5354  1.1719
  165SAPS  C31618672   5.343   2.402   5.025  0.8656  0.2187 -0.5704
  165SAPS  H16X18673   5.253   2.461   4.998  1.7945  1.2601 -1.5130
  165SAPS  H16Y18674   5.347   2.293   5.003  2.2125 -0.2432  1.6254
  165SAPS  C31718675   5.463   2.453   4.943 -0.4654 -0.8485 -0.2560
  165SAPS  H17X18676   5.499   2.550   4.982 -0.8839  0.0711 -2.0442
  165SAPS  H17Y18677   5.427   2.473   4.839  0.4052 -0.0724 -0.4183
  165SAPS  C31818678   5.576   2.348   4.944  0.7696  0.2135 -0.6736
  165SAPS  H18X18679   5.597   2.318   5.049  0.3609  1.5155 -0.2006
  165SAPS  H18Y18680   5.669   2.385   4.897  1.3630 -1.4549 -0.8863
  165SAPS  H18Z18681   5.547   2.261   4.881  3.9802 -1.9623  0.6014
  166SAPS     N18682   3.796   0.955   7.601  0.0242  0.6405 -0.1672
  166SAPS   HN118683   3.749   0.948   7.509 -2.1992  0.0795  0.9339
  166SAPS   HN218684   3.849   0.866   7.610 -0.9283 -0.0098 -0.7438
  166SAPS   HN318685   3.722   0.952   7.675 -0.1812 -0.2159 -0.3982
  166SAPS   C1218686   3.885   1.075   7.610 -0.4864 -0.2154 -0.1902
  166SAPS  H12A18687   3.823   1.161   7.590  2.5616  2.1647 -0.1752
  166SAPS   C1318688   3.937   1.115   7.749  0.6610  0.2495 -0.1949
  166SAPS  O13A18689   3.924   1.026   7.842  0.3010 -0.1914  0.3659
  166SAPS  O13B18690   3.990   1.226   7.767 -0.1456 -0.1379  0.3150
  166SAPS   C1118691   3.997   1.059   7.501  0.1991 -0.3120 -0.2418
  166SAPS  H11A18692   4.048   0.961   7.516  1.3100  0.5385  1.9686
  166SAPS  H11B18693   4.073   1.135   7.529 -0.8178  0.1858  1.3203
  166SAPS     P18694   3.961   1.205   7.285  0.6828  0.1958  0.0813
  166SAPS   O1318695   4.043   1.304   7.360  0.0142 -0.7767  0.1638
  166SAPS   O1418696   4.012   1.177   7.150  0.5076 -0.0310 -0.3921
  166SAPS   O1218697   3.952   1.075   7.363  0.3480  0.1383 -0.4668
  166SAPS   O1118698   3.807   1.251   7.270  0.7921 -0.0370 -0.2300
  166SAPS    C118699   3.703   1.159   7.250 -0.0066  0.3311  0.7493
  166SAPS    HA18700   3.710   1.065   7.308 -0.6206 -0.3299 -0.2040
  166SAPS    HB18701   3.606   1.211   7.266  1.0950  2.2560  1.4391
  166SAPS    C218702   3.698   1.105   7.091  0.4867  0.0938  0.0823
  166SAPS    HS18703   3.764   1.016   7.090  0.4124  0.0222  0.8088
  166SAPS   O2118704   3.735   1.210   7.001  0.0855 -0.3157 -0.4435
  166SAPS   C2118705   3.805   1.175   6.897  0.4763  0.2268  0.4856
  166SAPS   O2218706   3.830   1.059   6.866 -0.2274  0.5309  0.1159
  166SAPS   C2218707   3.842   1.304   6.817 -0.0210  0.0699 -0.1226
  166SAPS   H2R18708   3.759   1.375   6.797  0.0870  0.1196 -0.4019
  166SAPS   H2S18709   3.907   1.367   6.882 -1.2897  0.5266  0.7386
  166SAPS    C318710   3.553   1.050   7.066  0.5759 -0.9750 -0.7106
  166SAPS    HX18711   3.486   1.136   7.088 -0.6814 -1.5233 -2.2366
  166SAPS    HY18712   3.525   0.980   7.147  0.4461  0.5760  0.6486
  166SAPS   O3118713   3.522   0.992   6.936  0.1872  0.1811 -0.1347
  166SAPS   C3118714   3.494   1.087   6.848 -0.2219 -0.4624 -0.0841
  166SAPS   O3218715   3.480   1.207   6.863  0.0821  0.0671 -0.2877
  166SAPS   C3218716   3.483   1.012   6.720 -0.0544  0.3385  0.6096
  166SAPS   H2X18717   3.430   0.915   6.729 -0.5173  0.5652  0.3638
  166SAPS   H2Y18718   3.588   0.993   6.691 -0.4398 -2.2152  0.6386
  166SAPS   C2318719   3.922   1.268   6.692 -0.0741 -0.2423 -0.6934
  166SAPS   H3R18720   4.000   1.203   6.738 -1.9877 -3.1639 -1.3283
  166SAPS   H3S18721   3.967   1.361   6.652 -0.1242  0.6252  1.1276
  166SAPS   C2418722   3.853   1.200   6.571  0.2784  1.0403 -0.2882
  166SAPS   H4R18723   3.762   1.248   6.530 -0.1297  1.9306  1.5264
  166SAPS   H4S18724   3.819   1.101   6.608 -1.6069  0.1672 -3.9551
  166SAPS   C2518725   3.961   1.179   6.469  0.4265  0.0235 -0.4429
  166SAPS   H5R18726   4.051   1.121   6.493  0.0787 -0.4320 -0.2219
  166SAPS   C2618727   3.965   1.255   6.362 -0.2108  0.0907  0.5215
  166SAPS   H6R18728   4.047   1.234   6.292 -2.8398 -4.6700 -1.5899
  166SAPS   C2718729   3.867   1.362   6.329 -0.4328 -0.4596  0.3294
  166SAPS   H7R18730   3.920   1.444   6.275 -0.0778  0.7031  2.3338
  166SAPS   H7S18731   3.827   1.397   6.426  2.1106 -0.4280  1.4349
  166SAPS   C2818732   3.759   1.300   6.246 -0.2389  0.2444 -0.0065
  166SAPS   H8R18733   3.715   1.215   6.300  1.5114 -0.6873  0.0027
  166SAPS   C2918734   3.706   1.330   6.121 -0.1674  0.3361 -0.6202
  166SAPS   H9R18735   3.627   1.267   6.076 -0.7306  1.0552 -0.6481
  166SAPS  C21018736   3.749   1.449   6.039  0.1975 -0.3775  0.0774
  166SAPS  H10R18737   3.773   1.530   6.110 -1.9949  1.1627 -0.8239
  166SAPS  H10S18738   3.659   1.494   5.991 -0.2522  1.6570  2.6334
  166SAPS  C21118739   3.871   1.420   5.954 -0.6087 -0.4794  0.5554
  166SAPS  H11R18740   3.952   1.378   6.015 -0.1183 -2.3515 -1.2618
  166SAPS  C21218741   3.895   1.447   5.822  0.0233  0.0576 -0.2536
  166SAPS  H12R18742   3.996   1.419   5.789 -0.5283 -0.7323 -1.3132
  166SAPS  C21318743   3.802   1.518   5.723  0.8761 -0.4522  0.1270
  166SAPS  H13R18744   3.855   1.597   5.666  0.7803  0.6079  1.4546
  166SAPS  H13S18745   3.723   1.571   5.780  0.5209  0.3596 -1.0901
  166SAPS  C21418746   3.743   1.410   5.632  0.1402 -0.7432 -0.0365
  166SAPS  H14R18747   3.694   1.328   5.687 -1.8435  0.9846  0.9422
  166SAPS  C21518748   3.746   1.421   5.500 -0.5639  0.3996 -0.0230
  166SAPS  H15R18749   3.710   1.336   5.441 -0.7322  0.2721  0.2583
  166SAPS  C21618750   3.802   1.530   5.410  0.1234 -0.0578  0.1322
  166SAPS  H16R18751   3.824   1.494   5.307 -1.7519 -0.4080 -0.1876
  166SAPS  H16S18752   3.889   1.582   5.456  0.2473 -0.3241  0.1992
  166SAPS  C21718753   3.702   1.639   5.388  0.5139 -0.4413 -0.3740
  166SAPS  H17R18754   3.667   1.665   5.491  2.3755 -0.4828  0.2958
  166SAPS  H17S18755   3.610   1.593   5.346 -0.3487  1.7123 -0.9799
  166SAPS  C21818756   3.747   1.767   5.309 -0.4367  0.2215  0.5878
  166SAPS  H18R18757   3.790   1.839   5.381 -0.0867 -2.2716  3.0660
  166SAPS  H18S18758   3.649   1.811   5.279  0.1967  2.5559  1.7621
  166SAPS  C21918759   3.826   1.741   5.183 -0.7457 -0.7799 -0.0432
  166SAPS  H19R18760   3.915   1.681   5.211 -0.0212  0.9299  1.5028
  166SAPS  H19S18761   3.873   1.836   5.151 -1.1251 -1.3674 -2.5694
  166SAPS  C22018762   3.753   1.671   5.065  0.6931 -0.2153 -0.0131
  166SAPS  H20R18763   3.670   1.733   5.027  1.3685  0.0074 -1.1581
  166SAPS  H20S18764   3.727   1.563   5.076 -1.2140  0.2712  0.6903
  166SAPS  H20T18765   3.823   1.662   4.980 -0.4394 -1.4718 -0.8654
  166SAPS   C3318766   3.421   1.101   6.611  0.3953  0.8435 -0.1635
  166SAPS   H3X18767   3.462   1.205   6.613  0.0482  0.9839 -0.2699
  166SAPS   H3Y18768   3.312   1.106   6.635  0.4070 -0.2003  0.1558
  166SAPS   C3418769   3.449   1.024   6.477  0.6274 -0.6232 -0.6404
  166SAPS   H4X18770   3.416   0.918   6.480 -0.7038 -0.2009  0.9819
  166SAPS   H4Y18771   3.558   1.033   6.459  0.8796 -1.9465  0.0836
  166SAPS   C3518772   3.375   1.086   6.363 -0.7404  0.2557  0.3122
  166SAPS   H5X18773   3.387   1.196   6.360 -1.8948  0.4047  0.6384
  166SAPS   H5Y18774   3.265   1.069   6.370 -0.8556  1.5031  2.0752
  166SAPS   C3618775   3.428   1.045   6.224  0.5270  0.4182 -0.0094
  166SAPS   H6X18776   3.386   0.943   6.210 -1.7640  1.3368 -0.2509
  166SAPS   H6Y18777   3.534   1.023   6.199  0.0648 -1.4758 -0.4385
  166SAPS   C3718778   3.372   1.133   6.101  0.2807  0.1914 -0.6888
  166SAPS   H7X18779   3.409   1.237   6.111  0.8844  0.3544 -3.5451
  166SAPS   H7Y18780   3.262   1.143   6.108  0.5680  2.4771  1.6189
  166SAPS   C3818781   3.382   1.060   5.966 -0.2042 -0.4719 -0.1905
  166SAPS   H8X18782   3.330   0.962   5.974  0.7029 -0.9542 -0.1104
  166SAPS   H8Y18783   3.488   1.027   5.956 -0.3546 -1.6946  1.6839
  166SAPS   C3918784   3.333   1.152   5.855 -0.0640  0.1149  0.7219
  166SAPS   H9X18785   3.368   1.255   5.879  0.3554  0.1480 -0.0228
  166SAPS   H9Y18786   3.222   1.160   5.850 -0.3794 -3.2967 -3.3919
  166SAPS  C31018787   3.397   1.128   5.718 -0.3943 -0.0202 -0.0731
  166SAPS  H10X18788   3.371   1.028   5.678  1.2646 -0.4371 -0.1798
  166SAPS  H10Y18789   3.506   1.121   5.740 -0.3625 -0.9684 -0.4848
  166SAPS  C31118790   3.362   1.222   5.606  0.2372 -0.6879  0.1035
  166SAPS  H11X18791   3.375   1.330   5.624  0.3181 -0.4779 -1.1070
  166SAPS  H11Y18792   3.253   1.211   5.590  0.5016 -1.8414 -1.1863
  166SAPS  C31218793   3.417   1.188   5.463  0.6925 -0.2660 -0.5771
  166SAPS  H12X18794   3.441   1.080   5.474 -0.2939 -0.4741 -0.3950
  166SAPS  H12Y18795   3.501   1.255   5.434 -2.4132  3.3877 -2.0362
  166SAPS  C31318796   3.325   1.212   5.347  0.5099 -0.1720  0.6201
  166SAPS  H13X18797   3.282   1.314   5.360 -0.9779 -0.6873  0.0249
  166SAPS  H13Y18798   3.236   1.145   5.350 -0.2849  0.6839 -1.4763
  166SAPS  C31418799   3.380   1.198   5.209  0.1948 -0.7198  0.0530
  166SAPS  H14X18800   3.427   1.097   5.213  0.0641 -0.7350  2.3906
  166SAPS  H14Y18801   3.471   1.258   5.188  1.7328 -2.8243  0.4055
  166SAPS  C31518802   3.283   1.215   5.089 -0.1796  0.3147  0.1585
  166SAPS  H15X18803   3.274   1.323   5.063  0.7507  1.3001  3.4336
  166SAPS  H15Y18804   3.184   1.169   5.107 -0.0164 -0.1855 -0.2055
  166SAPS  C31618805   3.342   1.139   4.971 -0.2132  0.0295 -0.1661
  166SAPS  H16X18806   3.368   1.034   4.996  0.1581  0.3675  0.9616
  166SAPS  H16Y18807   3.438   1.183   4.936  1.2417 -1.7188  1.4062
  166SAPS  C31718808   3.246   1.135   4.854  0.7457  0.0841  0.0170
  166SAPS  H17X18809   3.211   1.237   4.828 -1.7984 -1.2063 -2.0330
  166SAPS  H17Y18810   3.153   1.077   4.870  0.3204  0.5383 -0.7421
  166SAPS  C31818811   3.327   1.083   4.737  0.2853  0.2752  0.2722
  166SAPS  H18X18812   3.396   1.168   4.718 -1.1491  1.6093  0.7559
  166SAPS  H18Y18813   3.257   1.076   4.651  0.9180 -0.6997 -0.1781
  166SAPS  H18Z18814   3.374   0.985   4.760  0.2105  0.2694  0.4043
  167SAPS     N18815   6.189   3.533   7.498  0.0164 -0.6185 -0.2599
  167SAPS   HN118816   6.142   3.454   7.546  1.6804 -1.8559 -0.5911
  167SAPS   HN218817   6.237   3.509   7.409  0.6330 -1.5195  0.3031
  167SAPS   HN318818   6.250   3.579   7.568 -2.5007 -1.3429  2.6253
  167SAPS   C1218819   6.094   3.656   7.473  0.2132  0.5336 -0.7231
  167SAPS  H12A18820   6.059   3.683   7.571 -0.2520 -0.6324 -0.5505
  167SAPS   C1318821   6.146   3.780   7.410  0.1996  0.1797  0.0289
  167SAPS  O13A18822   6.270   3.786   7.381  0.0551 -0.1503  0.1782
  167SAPS  O13B18823   6.069   3.874   7.398  0.4990 -0.0849  0.4133
  167SAPS   C1118824   5.957   3.589   7.428 -0.4653 -0.0798 -0.5435
  167SAPS  H11A18825   5.881   3.657   7.471  0.7569  0.1507  1.3590
  167SAPS  H11B18826   5.938   3.492   7.477  1.9655  0.4823  1.8060
  167SAPS     P18827   6.004   3.454   7.213 -0.4202 -0.2920  0.4256
  167SAPS   O1318828   6.146   3.439   7.226 -0.5494  0.7213 -0.0091
  167SAPS   O1418829   5.924   3.335   7.254  0.1262 -0.3034  0.1358
  167SAPS   O1218830   5.951   3.587   7.280  0.3825  0.4109  0.3354
  167SAPS   O1118831   5.977   3.483   7.060  0.4385  0.5485  0.0234
  167SAPS    C118832   5.848   3.534   7.020  0.0967 -0.1875 -0.1918
  167SAPS    HA18833   5.761   3.518   7.087 -1.6667  1.2456 -1.9858
  167SAPS    HB18834   5.860   3.644   7.010 -0.9071  0.1760  1.9840
  167SAPS    C218835   5.805   3.477   6.882 -0.5267 -0.4495  0.1714
  167SAPS    HS18836   5.732   3.395   6.899  0.6231 -1.3554  0.8755
  167SAPS   O2118837   5.922   3.443   6.804  0.2112 -0.0244  0.5681
  167SAPS   C2118838   5.969   3.322   6.823 -0.8417 -0.3694  0.5595
  167SAPS   O2218839   5.922   3.234   6.885  0.2825  0.7320 -0.5588
  167SAPS   C2218840   6.096   3.289   6.730  0.0888  0.1627 -0.7049
  167SAPS   H2R18841   6.191   3.294   6.788  0.9718 -0.3172 -2.0662
  167SAPS   H2S18842   6.076   3.185   6.696 -0.7940 -0.1842  0.7847
  167SAPS    C318843   5.741   3.592   6.812 -0.7792 -0.8265 -0.0881
  167SAPS    HX18844   5.818   3.665   6.781  0.7370 -1.4260  2.0095
  167SAPS    HY18845   5.678   3.646   6.887  1.2073  2.6825 -0.7281
  167SAPS   O3118846   5.668   3.559   6.695 -0.0211 -0.5011  0.3872
  167SAPS   C3118847   5.552   3.505   6.709 -0.5117 -0.2905  0.0195
  167SAPS   O3218848   5.507   3.473   6.820  0.0768  0.7004 -0.0773
  167SAPS   C3218849   5.474   3.492   6.583  0.5337 -0.1572  0.1571
  167SAPS   H2X18850   5.373   3.523   6.616  1.1087 -1.2407  3.3578
  167SAPS   H2Y18851   5.463   3.382   6.569  1.4135 -0.1727 -0.4992
  167SAPS   C2318852   6.111   3.378   6.608  0.2028 -0.0008 -0.8869
  167SAPS   H3R18853   6.211   3.351   6.569  0.5952 -3.5047  2.0178
  167SAPS   H3S18854   6.105   3.486   6.636 -3.9903 -1.1403  4.3338
  167SAPS   C2418855   6.006   3.336   6.504 -0.1317  0.5621  0.2518
  167SAPS   H4R18856   5.910   3.378   6.540 -0.5045  0.2888 -0.4253
  167SAPS   H4S18857   5.996   3.226   6.496 -0.4201  0.5096  1.2249
  167SAPS   C2518858   6.038   3.385   6.371 -0.0656 -0.3581  0.6111
  167SAPS   H5R18859   6.110   3.468   6.365  0.6398 -1.0228 -0.6713
  167SAPS   C2618860   6.011   3.322   6.253  0.1990  0.2942 -0.1543
  167SAPS   H6R18861   6.043   3.368   6.158 -1.8451  1.7397 -0.2261
  167SAPS   C2718862   5.918   3.208   6.227 -0.0202 -0.5152 -0.9487
  167SAPS   H7R18863   5.825   3.238   6.174 -0.8842 -1.7357 -0.2021
  167SAPS   H7S18864   5.883   3.152   6.317 -3.6589  1.4307 -0.9545
  167SAPS   C2818865   6.001   3.110   6.150  0.6769 -0.3612 -0.0435
  167SAPS   H8R18866   6.064   3.042   6.210  1.1140  1.0121  1.1010
  167SAPS   C2918867   5.996   3.087   6.015  0.3292  0.4068  0.3775
  167SAPS   H9R18868   6.059   3.008   5.971 -0.6963  0.9186 -2.2254
  167SAPS  C21018869   5.912   3.149   5.905  0.7155  0.5838 -0.0375
  167SAPS  H10R18870   5.835   3.220   5.943 -1.1547 -1.7999  0.9042
  167SAPS  H10S18871   5.848   3.067   5.866 -2.7961  1.8590  2.4980
  167SAPS  C21118872   5.989   3.224   5.802  0.4511  0.1713 -0.1084
  167SAPS  H11R18873   6.050   3.311   5.830 -0.9410  0.8497  0.9180
  167SAPS  C21218874   5.977   3.213   5.670  0.2560  0.2757 -0.2246
  167SAPS  H12R18875   6.033   3.284   5.607  0.3654  1.8211  1.5279
  167SAPS  C21318876   5.883   3.116   5.597  0.3641  0.0200 -0.0753
  167SAPS  H13R18877   5.807   3.079   5.669  2.6008 -0.7701  2.0027
  167SAPS  H13S18878   5.959   3.041   5.568  0.4848  0.4686 -0.9539
  167SAPS  C21418879   5.818   3.160   5.466  0.3654 -0.5632 -0.7855
  167SAPS  H14R18880   5.803   3.269   5.467  3.6574  0.0286  2.7188
  167SAPS  C21518881   5.783   3.078   5.372  0.4340  0.5958  0.1221
  167SAPS  H15R18882   5.734   3.108   5.278 -0.8018  0.9673  0.8612
  167SAPS  C21618883   5.793   2.928   5.365  0.0327  0.1677  0.1487
  167SAPS  H16R18884   5.698   2.883   5.329  0.0906  0.9695 -1.0310
  167SAPS  H16S18885   5.801   2.881   5.466 -1.2118 -3.2007 -1.1515
  167SAPS  C21718886   5.911   2.881   5.278 -0.1472 -0.1307 -0.5792
  167SAPS  H17R18887   5.887   2.906   5.172  1.9937 -3.4930 -2.0285
  167SAPS  H17S18888   5.912   2.771   5.266 -0.0603 -0.0814 -1.0391
  167SAPS  C21818889   6.045   2.928   5.318 -0.4505 -0.1215  0.6943
  167SAPS  H18R18890   6.054   2.922   5.428  0.2588 -0.6961  0.6144
  167SAPS  H18S18891   6.062   3.034   5.292  0.1642  0.0591  1.7635
  167SAPS  C21918892   6.168   2.855   5.257  0.5096 -0.4960 -0.5115
  167SAPS  H19R18893   6.169   2.872   5.147 -0.5799  1.1453 -0.2960
  167SAPS  H19S18894   6.156   2.745   5.270  2.8146 -1.0058 -2.0795
  167SAPS  C22018895   6.300   2.909   5.308 -0.4938 -0.0253 -0.2819
  167SAPS  H20R18896   6.326   2.999   5.248 -0.5116 -0.7033 -1.3359
  167SAPS  H20S18897   6.388   2.843   5.291  0.3569  1.1587 -0.5800
  167SAPS  H20T18898   6.292   2.959   5.407  1.1762  1.2295 -0.7455
  167SAPS   C3318899   5.529   3.565   6.460  0.1497  0.2157 -0.1411
  167SAPS   H3X18900   5.546   3.672   6.486 -0.9464  0.2650  0.4124
  167SAPS   H3Y18901   5.457   3.546   6.378  1.3233  1.0868 -1.4029
  167SAPS   C3418902   5.659   3.515   6.400 -0.4507  0.2476  0.0877
  167SAPS   H4X18903   5.656   3.405   6.387  3.0323 -0.3778  2.9018
  167SAPS   H4Y18904   5.753   3.520   6.460  0.2873  4.0427 -1.1496
  167SAPS   C3518905   5.702   3.589   6.270  0.1292 -0.9891 -0.0710
  167SAPS   H5X18906   5.806   3.553   6.255  0.6385 -0.7213  2.3475
  167SAPS   H5Y18907   5.708   3.699   6.288  1.1083 -0.8984 -0.8672
  167SAPS   C3618908   5.600   3.559   6.160 -0.4460 -0.5079  0.0250
  167SAPS   H6X18909   5.523   3.637   6.149  1.1141  0.8131 -2.4035
  167SAPS   H6Y18910   5.547   3.465   6.189  0.5605 -2.1114 -2.8805
  167SAPS   C3718911   5.677   3.536   6.028  0.1696  0.0109 -0.3637
  167SAPS   H7X18912   5.738   3.444   6.034  0.2329  0.1147  0.6099
  167SAPS   H7Y18913   5.743   3.625   6.018 -0.4963  0.7188  1.1849
  167SAPS   C3818914   5.584   3.534   5.906  0.0846  0.1766  0.1027
  167SAPS   H8X18915   5.499   3.605   5.903  0.6261  0.8214 -0.5595
  167SAPS   H8Y18916   5.538   3.433   5.908 -1.8694  1.0389  0.7444
  167SAPS   C3918917   5.673   3.540   5.774  0.3506 -0.7898 -0.2827
  167SAPS   H9X18918   5.745   3.456   5.776  0.7437 -0.5297 -1.7973
  167SAPS   H9Y18919   5.728   3.636   5.785  1.6112 -1.7476  2.7172
  167SAPS  C31018920   5.586   3.533   5.645 -0.3312 -0.4851 -0.2303
  167SAPS  H10X18921   5.496   3.597   5.633 -0.8188 -0.9670  0.7886
  167SAPS  H10Y18922   5.553   3.429   5.624 -3.1163  0.0160  1.1525
  167SAPS  C31118923   5.667   3.585   5.521  0.4348 -0.3202 -0.2369
  167SAPS  H11X18924   5.756   3.518   5.511  0.4248 -0.4137  0.2595
  167SAPS  H11Y18925   5.709   3.685   5.544  1.0950 -0.4298 -0.9178
  167SAPS  C31218926   5.591   3.575   5.389 -0.3858 -0.2588 -0.3447
  167SAPS  H12X18927   5.502   3.640   5.375 -0.9883 -0.7205  1.2183
  167SAPS  H12Y18928   5.573   3.466   5.378 -0.8783 -0.6123  2.9473
  167SAPS  C31318929   5.686   3.623   5.272  0.2059  0.7227 -0.3886
  167SAPS  H13X18930   5.781   3.566   5.279 -0.5170 -0.2795  2.2536
  167SAPS  H13Y18931   5.713   3.728   5.299 -2.1916  0.8576  1.8637
  167SAPS  C31418932   5.622   3.597   5.131 -0.5218 -0.1071 -0.0460
  167SAPS  H14X18933   5.516   3.630   5.123  0.0582  1.6156 -1.1792
  167SAPS  H14Y18934   5.622   3.489   5.104 -0.6659  0.4996 -2.8491
  167SAPS  C31518935   5.697   3.677   5.028  0.0186  0.0540  0.0023
  167SAPS  H15X18936   5.795   3.633   4.999  0.0292  1.8444 -3.1133
  167SAPS  H15Y18937   5.712   3.780   5.068 -0.3433 -0.2256  0.8727
  167SAPS  C31618938   5.631   3.668   4.889 -0.1956  0.0198  0.1346
  167SAPS  H16X18939   5.536   3.726   4.882 -0.1456  0.3556  1.8428
  167SAPS  H16Y18940   5.600   3.562   4.877  2.3389 -0.4719 -3.9643
  167SAPS  C31718941   5.719   3.690   4.762  0.7698 -0.1173 -0.6665
  167SAPS  H17X18942   5.655   3.677   4.672 -0.0462 -0.5400 -0.0327
  167SAPS  H17Y18943   5.796   3.611   4.769  1.3326  0.4824  0.1165
  167SAPS  C31818944   5.798   3.828   4.752  0.2832  0.2749 -0.4033
  167SAPS  H18X18945   5.874   3.829   4.671  0.4900  1.3585 -0.2075
  167SAPS  H18Y18946   5.847   3.847   4.850  0.7869  0.5358 -0.6979
  167SAPS  H18Z18947   5.725   3.911   4.738 -0.3037 -0.3861 -1.3935
  168SAPS     N18948   5.532   2.504   7.128  0.6675  0.3609  0.0494
  168SAPS   HN118949   5.506   2.405   7.144  1.5135  0.4218  2.0984
  168SAPS   HN218950   5.447   2.558   7.106  1.2055  0.2608 -2.6534
  168SAPS   HN318951   5.601   2.521   7.052  3.2999  1.7118  2.5234
  168SAPS   C1218952   5.606   2.574   7.242 -0.1130  0.2693  0.7458
  168SAPS  H12A18953   5.658   2.653   7.189 -0.0084 -1.1927 -1.5185
  168SAPS   C1318954   5.502   2.621   7.348 -0.0557  0.7119 -0.3050
  168SAPS  O13A18955   5.383   2.581   7.348 -0.0009  0.2476 -0.2887
  168SAPS  O13B18956   5.552   2.692   7.438 -0.3587  0.3501 -0.3645
  168SAPS   C1118957   5.717   2.481   7.310 -0.0102  0.0970 -0.3993
  168SAPS  H11A18958   5.661   2.396   7.354  1.9786 -0.9762  0.2080
  168SAPS  H11B18959   5.758   2.526   7.403 -1.2389 -5.2931  3.1668
  168SAPS     P18960   5.958   2.528   7.198  0.2297  0.3113 -0.0239
  168SAPS   O1318961   5.948   2.643   7.294 -0.0688 -0.2535  0.2653
  168SAPS   O1418962   6.088   2.447   7.195 -0.4316  0.1699  0.5383
  168SAPS   O1218963   5.825   2.442   7.222 -0.1079 -0.2552  0.0622
  168SAPS   O1118964   5.939   2.590   7.066 -0.5144  0.2343  0.5228
  168SAPS    C118965   6.008   2.706   7.019  0.1440 -0.5482  0.1171
  168SAPS    HA18966   5.963   2.799   7.059 -0.6719 -0.4885 -0.8873
  168SAPS    HB18967   6.115   2.710   7.049  0.8472  3.4201 -2.1242
  168SAPS    C218968   6.006   2.726   6.867  1.0821 -0.0972  0.5572
  168SAPS    HS18969   5.897   2.733   6.846  0.6065  2.1001  3.1875
  168SAPS   O2118970   6.070   2.612   6.799  0.0833 -0.4235 -0.7463
  168SAPS   C2118971   6.001   2.544   6.711 -0.5369  0.0120  0.7593
  168SAPS   O2218972   5.879   2.533   6.700 -0.0853 -0.0099  0.1351
  168SAPS   C2218973   6.100   2.458   6.627  0.1418  0.1637 -0.4616
  168SAPS   H2R18974   6.152   2.516   6.548 -1.2288  2.7231  0.3899
  168SAPS   H2S18975   6.169   2.394   6.687  0.8163 -1.2451 -2.6157
  168SAPS    C318976   6.073   2.865   6.825  0.2447 -0.5539  0.7355
  168SAPS    HX18977   6.182   2.872   6.841  0.0087 -0.5637  2.5135
  168SAPS    HY18978   6.031   2.931   6.904  1.3859  2.0088 -0.6542
  168SAPS   O3118979   6.026   2.916   6.694  0.5746 -0.1977 -0.8828
  168SAPS   C3118980   6.091   2.858   6.591 -0.7596  0.0561  0.7114
  168SAPS   O3218981   6.179   2.773   6.610 -0.5871  0.4022 -0.4620
  168SAPS   C3218982   6.022   2.893   6.460  0.2662  0.0554 -0.1727
  168SAPS   H2X18983   6.088   2.968   6.411 -0.8273  1.1065 -0.0721
  168SAPS   H2Y18984   5.923   2.941   6.473  0.7962  1.2322 -0.4123
  168SAPS   C2318985   6.014   2.359   6.536 -1.1178 -0.7451  0.0587
  168SAPS   H3R18986   5.938   2.426   6.492 -0.7314  0.2842  0.8956
  168SAPS   H3S18987   5.965   2.280   6.597 -1.1183 -0.6064  0.2380
  168SAPS   C2418988   6.095   2.283   6.424  0.0474  0.4099 -0.2203
  168SAPS   H4R18989   6.131   2.364   6.357 -0.4254  1.8348  1.1792
  168SAPS   H4S18990   6.022   2.222   6.366 -0.4394 -0.7627  1.5322
  168SAPS   C2518991   6.214   2.201   6.474  0.3423  0.2125  0.0506
  168SAPS   H5R18992   6.187   2.129   6.552 -0.5667  0.3418 -0.1374
  168SAPS   C2618993   6.337   2.195   6.426 -0.4204  0.0739  0.2300
  168SAPS   H6R18994   6.412   2.125   6.465 -2.0736 -2.0816 -0.2771
  168SAPS   C2718995   6.384   2.281   6.304  1.1447  0.5796 -0.1432
  168SAPS   H7R18996   6.301   2.316   6.239 -0.8324 -1.7313  0.9653
  168SAPS   H7S18997   6.435   2.214   6.231  1.2368 -3.1154  2.9950
  168SAPS   C2818998   6.473   2.389   6.336 -0.6638  0.8408  0.3202
  168SAPS   H8R18999   6.478   2.410   6.444 -0.4885  1.5176  0.1836
  168SAPS   C2919000   6.553   2.446   6.250  0.2698 -0.1370  0.2837
  168SAPS   H9R19001   6.623   2.526   6.281  0.0478  0.0686  0.2545
  168SAPS  C21019002   6.543   2.422   6.102  0.3384 -0.3014  0.0035
  168SAPS  H10R19003   6.555   2.524   6.058  0.0553 -0.0776  0.4359
  168SAPS  H10S19004   6.441   2.390   6.069  0.3008 -1.7754  1.4594
  168SAPS  C21119005   6.655   2.330   6.045  0.1067 -0.0982  0.1163
  168SAPS  H11R19006   6.754   2.361   6.082  0.5033 -0.5466 -0.5500
  168SAPS  C21219007   6.648   2.221   5.958  0.7575 -0.7111  0.1851
  168SAPS  H12R19008   6.745   2.176   5.930  0.0728 -0.8176 -2.3054
  168SAPS  C21319009   6.522   2.162   5.892 -0.2802  0.0819 -0.6706
  168SAPS  H13R19010   6.445   2.164   5.972  1.2471  0.7112  0.8615
  168SAPS  H13S19011   6.537   2.058   5.857 -0.0669 -0.1390  0.0617
  168SAPS  C21419012   6.468   2.242   5.780  0.3181  0.1139 -0.3811
  168SAPS  H14R19013   6.485   2.350   5.790 -1.8153  0.2639  3.4054
  168SAPS  C21519014   6.388   2.191   5.681  0.2023 -0.2078  0.1740
  168SAPS  H15R19015   6.351   2.251   5.598 -0.3011 -0.1879  0.4092
  168SAPS  C21619016   6.350   2.049   5.671 -1.0822  0.1225  0.3518
  168SAPS  H16R19017   6.240   2.045   5.687 -0.9118 -3.0434  1.4421
  168SAPS  H16S19018   6.387   1.979   5.748 -0.4461  1.5175  1.3484
  168SAPS  C21719019   6.395   1.991   5.531  0.5554  1.5368 -0.5561
  168SAPS  H17R19020   6.505   1.993   5.515  0.9896 -0.6192  1.5239
  168SAPS  H17S19021   6.336   2.052   5.459 -0.9549  1.6223  0.7156
  168SAPS  C21819022   6.345   1.844   5.507 -0.0744  0.2664  0.2191
  168SAPS  H18R19023   6.250   1.827   5.563  0.2329 -0.8959  0.4045
  168SAPS  H18S19024   6.416   1.782   5.566  0.7754 -0.4378 -1.4844
  168SAPS  C21919025   6.342   1.802   5.360  0.3341 -0.0805 -0.5324
  168SAPS  H19R19026   6.302   1.698   5.365  0.2787  0.0043  1.2125
  168SAPS  H19S19027   6.444   1.779   5.321  0.8019 -0.7368  0.9871
  168SAPS  C22019028   6.266   1.886   5.256 -0.0165 -0.3023  0.4961
  168SAPS  H20R19029   6.270   1.824   5.164  0.2656 -0.5440  0.6708
  168SAPS  H20S19030   6.305   1.989   5.239 -0.6478 -0.0227  0.6780
  168SAPS  H20T19031   6.159   1.898   5.285 -0.3284 -1.2939 -0.1993
  168SAPS   C3319032   6.012   2.782   6.359 -0.8434  0.6467 -0.1391
  168SAPS   H3X19033   5.941   2.817   6.281 -2.2280 -0.8924  0.3693
  168SAPS   H3Y19034   5.971   2.685   6.394  1.1310  0.2829  1.3617
  168SAPS   C3419035   6.148   2.748   6.285  0.3239 -0.2163 -0.3341
  168SAPS   H4X19036   6.214   2.695   6.356  1.2497  0.6958 -0.4833
  168SAPS   H4Y19037   6.198   2.845   6.265  1.4241 -0.3045  1.7570
  168SAPS   C3519038   6.124   2.682   6.148  0.1303  0.4568 -0.2163
  168SAPS   H5X19039   6.084   2.754   6.073 -0.7672  1.3842  1.1265
  168SAPS   H5Y19040   6.047   2.604   6.161  0.2817  0.2016 -0.8105
  168SAPS   C3619041   6.238   2.607   6.083 -0.4126 -0.1833 -0.1256
  168SAPS   H6X19042   6.287   2.538   6.156 -1.2576 -0.5352  0.1167
  168SAPS   H6Y19043   6.320   2.670   6.041 -0.7263 -1.0769 -2.1789
  168SAPS   C3719044   6.198   2.514   5.963  0.1893 -0.1702  0.8192
  168SAPS   H7X19045   6.116   2.447   5.995 -0.7000  0.8164  0.6950
  168SAPS   H7Y19046   6.287   2.456   5.932 -0.4467  0.6980 -3.2138
  168SAPS   C3819047   6.171   2.589   5.835 -0.3467 -0.2520  0.2127
  168SAPS   H8X19048   6.233   2.681   5.835  0.1862 -0.6085  0.1921
  168SAPS   H8Y19049   6.070   2.635   5.841 -0.6248 -0.9522  1.1703
  168SAPS   C3919050   6.194   2.515   5.701  0.3545  0.0440  0.8448
  168SAPS   H9X19051   6.122   2.431   5.690  2.0492 -1.0753 -3.4700
  168SAPS   H9Y19052   6.292   2.466   5.714 -0.4796 -2.5825 -1.6950
  168SAPS  C31019053   6.212   2.614   5.584  0.0257  0.0521  1.3746
  168SAPS  H10X19054   6.286   2.693   5.608  0.3994  0.4021 -0.7811
  168SAPS  H10Y19055   6.114   2.658   5.553  0.3383 -0.4270 -0.4047
  168SAPS  C31119056   6.260   2.535   5.454 -0.3213  0.7276  0.5897
  168SAPS  H11X19057   6.345   2.471   5.485 -0.4995 -0.1900 -0.7426
  168SAPS  H11Y19058   6.290   2.601   5.370  1.0541  0.9688  1.2466
  168SAPS  C31219059   6.155   2.437   5.399  0.4121 -0.0015  0.1402
  168SAPS  H12X19060   6.067   2.497   5.367  1.7047  2.0898  0.3456
  168SAPS  H12Y19061   6.128   2.361   5.475 -1.0882  0.4222  0.0561
  168SAPS  C31319062   6.210   2.352   5.281 -0.2597  0.2991 -1.1995
  168SAPS  H13X19063   6.136   2.271   5.265 -1.1728  0.8682 -0.0315
  168SAPS  H13Y19064   6.299   2.292   5.309  0.0583  0.5664 -1.6308
  168SAPS  C31419065   6.235   2.437   5.153  0.0754 -0.1220 -0.3550
  168SAPS  H14X19066   6.324   2.497   5.180 -0.1578  0.0856 -0.0410
  168SAPS  H14Y19067   6.156   2.515   5.143 -2.5564 -2.0726  3.0156
  168SAPS  C31519068   6.246   2.365   5.016  0.3083  0.1761  0.0607
  168SAPS  H15X19069   6.267   2.444   4.941  1.0816 -2.0639 -2.1986
  168SAPS  H15Y19070   6.149   2.318   4.988 -0.0513  2.1776 -2.4231
  168SAPS  C31619071   6.356   2.259   5.003 -0.5140  0.2452 -0.2145
  168SAPS  H16X19072   6.350   2.183   5.084 -2.2500  1.3872  0.7927
  168SAPS  H16Y19073   6.455   2.306   5.021  0.3703 -0.8118 -1.9687
  168SAPS  C31719074   6.373   2.198   4.859  0.0542  0.3349  0.5150
  168SAPS  H17X19075   6.269   2.172   4.827 -0.9643 -1.5241  4.6329
  168SAPS  H17Y19076   6.422   2.099   4.868 -2.3034 -1.0591 -0.8009
  168SAPS  C31819077   6.424   2.294   4.757 -0.8711 -0.0167  0.5326
  168SAPS  H18X19078   6.522   2.342   4.773 -0.6023 -0.5160  0.4170
  168SAPS  H18Y19079   6.355   2.380   4.749 -1.0553  0.3149  3.9773
  168SAPS  H18Z19080   6.421   2.246   4.657  1.8158  0.5339  0.1134
  169SAPS     N19081   5.964   4.030   7.213 -0.3289 -0.2478 -0.9536
  169SAPS   HN119082   5.867   4.019   7.249 -0.2809  0.7816 -0.4641
  169SAPS   HN219083   5.993   3.988   7.122  0.9681 -2.2876  0.3244
  169SAPS   HN319084   6.026   3.987   7.284  0.3527  0.3834 -1.1578
  169SAPS   C1219085   6.007   4.176   7.217  0.6442 -0.2478 -0.0700
  169SAPS  H12A19086   5.980   4.215   7.314 -2.5105 -1.3106 -0.3945
  169SAPS   C1319087   6.161   4.184   7.189  0.4447 -0.0392 -0.4402
  169SAPS  O13A19088   6.240   4.090   7.162 -0.5618  0.1484  0.5290
  169SAPS  O13B19089   6.203   4.302   7.187 -0.0658 -0.6418  0.3130
  169SAPS   C1119090   5.931   4.253   7.112 -0.2906  0.2282 -0.0334
  169SAPS  H11A19091   5.952   4.206   7.013  1.6844  1.0008 -0.0359
  169SAPS  H11B19092   5.972   4.357   7.116 -3.3195  1.4783  1.5300
  169SAPS     P19093   5.722   4.362   7.051  0.1562 -0.1883  0.0624
  169SAPS   O1319094   5.574   4.351   7.069 -0.0885  0.1116  0.3001
  169SAPS   O1419095   5.773   4.498   7.090 -0.1989  0.0703  0.2774
  169SAPS   O1219096   5.788   4.260   7.146 -0.3937  0.1456  0.6087
  169SAPS   O1119097   5.767   4.319   6.906 -1.0240  0.0329 -0.0209
  169SAPS    C119098   5.710   4.197   6.853 -0.3150 -0.1708 -0.5810
  169SAPS    HA19099   5.788   4.121   6.831  0.0254 -0.6487  1.9415
  169SAPS    HB19100   5.638   4.142   6.916  1.5532  0.7651  2.5874
  169SAPS    C219101   5.638   4.217   6.717 -0.2533 -0.7358 -0.0438
  169SAPS    HS19102   5.613   4.115   6.682  3.2981 -2.6484  2.3628
  169SAPS   O2119103   5.728   4.284   6.626 -0.2338  0.3156 -0.5136
  169SAPS   C2119104   5.773   4.216   6.517  0.2842  0.3086 -0.6954
  169SAPS   O2219105   5.767   4.097   6.502 -0.0933 -0.1806 -0.1453
  169SAPS   C2219106   5.841   4.312   6.418 -0.2145 -0.5477 -0.0050
  169SAPS   H2R19107   5.780   4.405   6.419  0.9381  0.2173  0.7132
  169SAPS   H2S19108   5.931   4.344   6.473 -0.0277  0.0129 -0.6181
  169SAPS    C319109   5.512   4.306   6.736 -0.2864  0.2243 -0.7216
  169SAPS    HX19110   5.538   4.402   6.785 -1.7253 -0.2028  0.9893
  169SAPS    HY19111   5.450   4.248   6.808  0.9304 -1.4277 -0.9473
  169SAPS   O3119112   5.447   4.312   6.607 -0.5549  0.3236  0.8850
  169SAPS   C3119113   5.470   4.422   6.536 -0.1511  0.0285  0.2596
  169SAPS   O3219114   5.556   4.504   6.562 -0.0247 -0.0240  0.0059
  169SAPS   C3219115   5.367   4.431   6.423 -0.3747 -0.7749  0.4746
  169SAPS   H2X19116   5.329   4.535   6.429 -3.3197 -1.7046  0.0354
  169SAPS   H2Y19117   5.280   4.366   6.448 -0.8084 -0.5148 -0.3140
  169SAPS   C2319118   5.868   4.260   6.277 -0.3365 -0.1020  0.0815
  169SAPS   H3R19119   5.957   4.194   6.273  0.8023  1.1633  2.4553
  169SAPS   H3S19120   5.895   4.349   6.216 -0.7398 -0.0432 -0.0168
  169SAPS   C2419121   5.746   4.203   6.207 -0.4225 -0.4715 -0.1437
  169SAPS   H4R19122   5.673   4.285   6.187  0.1691 -0.0842 -0.7344
  169SAPS   H4S19123   5.694   4.127   6.270 -1.9161  0.7959  0.2347
  169SAPS   C2519124   5.795   4.131   6.086  0.3138 -0.3988  0.1202
  169SAPS   H5R19125   5.862   4.046   6.107  0.8985  0.1807  0.6350
  169SAPS   C2619126   5.783   4.174   5.958 -0.1764  0.0597 -0.2458
  169SAPS   H6R19127   5.836   4.112   5.884  1.4233  0.6605  0.3456
  169SAPS   C2719128   5.716   4.301   5.904  0.0273  0.0183  0.3150
  169SAPS   H7R19129   5.674   4.372   5.978  0.7601  1.4326 -0.5774
  169SAPS   H7S19130   5.627   4.271   5.845 -0.5173  0.9022  0.6822
  169SAPS   C2819131   5.811   4.377   5.813  0.0362  0.0805  0.3570
  169SAPS   H8R19132   5.863   4.449   5.878 -0.5126  1.3457 -0.5616
  169SAPS   C2919133   5.835   4.379   5.680 -0.4299  0.7537  0.4194
  169SAPS   H9R19134   5.920   4.437   5.642 -1.6119  0.2800 -3.3463
  169SAPS  C21019135   5.758   4.296   5.582  0.8435  0.3095  0.1532
  169SAPS  H10R19136   5.712   4.206   5.628 -0.4944 -0.8285 -3.1267
  169SAPS  H10S19137   5.826   4.248   5.509 -0.4253  0.8979 -1.4668
  169SAPS  C21119138   5.640   4.382   5.529 -0.8652  0.0329  0.3929
  169SAPS  H11R19139   5.567   4.421   5.602 -1.3294  0.7002 -0.4167
  169SAPS  C21219140   5.611   4.405   5.398  0.6851  0.7406  0.4962
  169SAPS  H12R19141   5.520   4.462   5.373  0.0700 -0.9300 -1.3274
  169SAPS  C21319142   5.689   4.339   5.281  0.0382 -0.9445 -0.4647
  169SAPS  H13R19143   5.607   4.326   5.208  0.9565 -1.3696 -1.4500
  169SAPS  H13S19144   5.728   4.237   5.304  1.6555 -0.3276 -0.3325
  169SAPS  C21419145   5.797   4.431   5.224 -0.3528  0.3784  0.5214
  169SAPS  H14R19146   5.832   4.506   5.297 -4.1376  1.8582  1.0258
  169SAPS  C21519147   5.847   4.428   5.099 -0.0267 -0.3915  0.3833
  169SAPS  H15R19148   5.920   4.505   5.070 -0.2206 -1.3116 -3.0152
  169SAPS  C21619149   5.818   4.323   4.992 -0.1926 -0.0072  0.6021
  169SAPS  H16R19150   5.787   4.368   4.895  1.3284 -0.5358 -0.1581
  169SAPS  H16S19151   5.746   4.247   5.028  1.2624 -1.1569  1.1470
  169SAPS  C21719152   5.945   4.246   4.955 -0.1440 -0.4230  0.3867
  169SAPS  H17R19153   5.926   4.151   4.899  1.6936 -0.6379  0.0737
  169SAPS  H17S19154   6.009   4.219   5.041 -1.1727 -1.1958  0.9374
  169SAPS  C21819155   6.032   4.330   4.865 -0.8140  0.3260  0.7699
  169SAPS  H18R19156   6.066   4.411   4.933 -3.8471  0.9999  1.6124
  169SAPS  H18S19157   5.974   4.380   4.785  0.9259  0.2357 -0.6229
  169SAPS  C21919158   6.149   4.265   4.789  1.0943 -0.4190  0.1533
  169SAPS  H19R19159   6.237   4.225   4.845  1.9609  1.7079  0.3953
  169SAPS  H19S19160   6.192   4.344   4.723  2.9340 -0.3216  1.3877
  169SAPS  C22019161   6.095   4.153   4.691 -0.3690 -0.4059  0.0119
  169SAPS  H20R19162   6.180   4.121   4.627 -1.1152  1.2483 -1.8851
  169SAPS  H20S19163   6.023   4.190   4.615  2.7268  1.0734 -2.4289
  169SAPS  H20T19164   6.065   4.064   4.751  2.3294 -0.7385  1.0336
  169SAPS   C3319165   5.425   4.386   6.286  0.3906  0.5862  0.7996
  169SAPS   H3X19166   5.450   4.278   6.288  1.4411  0.7933 -0.1902
  169SAPS   H3Y19167   5.524   4.436   6.272  0.5081  0.6064  1.6370
  169SAPS   C3419168   5.322   4.409   6.177 -0.6100 -0.6675  0.2448
  169SAPS   H4X19169   5.300   4.518   6.176  1.9420 -0.0353  2.2377
  169SAPS   H4Y19170   5.226   4.360   6.203 -0.4586 -1.1719 -0.1472
  169SAPS   C3519171   5.371   4.363   6.036 -0.2812 -0.1688 -0.4556
  169SAPS   H5X19172   5.406   4.259   6.050 -0.8066 -0.3804 -0.6596
  169SAPS   H5Y19173   5.457   4.424   6.001  0.1548  2.3826  4.2423
  169SAPS   C3619174   5.262   4.376   5.934  0.2324  0.2046  0.4303
  169SAPS   H6X19175   5.233   4.482   5.917 -0.8273  0.1263  1.6138
  169SAPS   H6Y19176   5.173   4.323   5.975 -0.0626 -0.0266 -0.4888
  169SAPS   C3719177   5.298   4.310   5.803  0.1664  0.1298  0.4866
  169SAPS   H7X19178   5.320   4.201   5.805 -2.0854 -0.3930 -0.1065
  169SAPS   H7Y19179   5.393   4.359   5.771  0.2038  0.6587  1.3691
  169SAPS   C3819180   5.186   4.336   5.700  0.1237 -0.7815 -0.3517
  169SAPS   H8X19181   5.171   4.446   5.697  0.5947 -0.4926  3.1888
  169SAPS   H8Y19182   5.090   4.300   5.741 -0.0041 -1.0376 -0.8826
  169SAPS   C3919183   5.212   4.283   5.553  0.9118 -0.0785 -0.2232
  169SAPS   H9X19184   5.210   4.172   5.546  1.1432 -0.2214  1.4550
  169SAPS   H9Y19185   5.313   4.320   5.525  1.4895 -0.8949  0.7050
  169SAPS  C31019186   5.110   4.351   5.467  0.0395  0.0841  0.8630
  169SAPS  H10X19187   5.129   4.460   5.473  0.6819  0.1589 -1.4514
  169SAPS  H10Y19188   5.004   4.345   5.499 -0.9107 -3.0613 -2.1696
  169SAPS  C31119189   5.129   4.307   5.318  0.1871  0.0753 -0.2648
  169SAPS  H11X19190   5.122   4.196   5.312 -2.4247  0.2424 -1.9964
  169SAPS  H11Y19191   5.228   4.334   5.276  0.7356 -0.2278  0.7977
  169SAPS  C31219192   5.020   4.362   5.227  0.5671 -0.0281 -0.4656
  169SAPS  H12X19193   4.999   4.470   5.244  0.0137  0.1734 -2.2497
  169SAPS  H12Y19194   4.929   4.308   5.261  0.5352  1.1005  1.4339
  169SAPS  C31319195   5.032   4.330   5.074 -0.0213  0.4340  0.1854
  169SAPS  H13X19196   5.049   4.221   5.065  1.8758  0.6971  0.0490
  169SAPS  H13Y19197   5.129   4.369   5.035 -0.0613 -1.2344 -1.7018
  169SAPS  C31419198   4.912   4.358   4.990  0.6179 -0.4386  0.6049
  169SAPS  H14X19199   4.867   4.453   5.026  1.8510  0.5473 -0.3577
  169SAPS  H14Y19200   4.833   4.281   5.001  0.4806 -0.5326 -0.7756
  169SAPS  C31519201   4.949   4.384   4.848  0.1958 -0.2041  0.1848
  169SAPS  H15X19202   4.982   4.293   4.794  1.1910  0.1253  0.2194
  169SAPS  H15Y19203   5.028   4.462   4.846 -0.7143  0.7467 -1.2807
  169SAPS  C31619204   4.830   4.434   4.759  0.0730  0.0994 -0.6127
  169SAPS  H16X19205   4.792   4.531   4.798  0.2391 -0.0612 -0.0402
  169SAPS  H16Y19206   4.753   4.359   4.787 -0.6136  0.7218 -0.7972
  169SAPS  C31719207   4.870   4.452   4.616 -0.0303 -0.8654 -0.5000
  169SAPS  H17X19208   4.933   4.368   4.580  1.6385  0.1132  0.0522
  169SAPS  H17Y19209   4.938   4.539   4.613 -0.1874 -0.7441 -0.5350
  169SAPS  C31819210   4.757   4.475   4.511  0.2686  0.8828 -0.9324
  169SAPS  H18X19211   4.783   4.506   4.408 -0.3181 -1.9266 -2.0122
  169SAPS  H18Y19212   4.679   4.542   4.553  1.0335  1.4338 -0.3553
  169SAPS  H18Z19213   4.704   4.379   4.500  2.1707 -0.7248  2.3153
  170SAPS     N19214   0.861   2.796   7.563  0.1472  0.3345  0.0646
  170SAPS   HN119215   0.908   2.791   7.656 -1.2218 -1.4266  0.7001
  170SAPS   HN219216   0.903   2.722   7.503 -2.2663 -0.0908 -1.2338
  170SAPS   HN319217   0.882   2.888   7.520 -1.3807  1.0213  0.7076
  170SAPS   C1219218   0.713   2.757   7.564  0.6067  0.5251  0.7462
  170SAPS  H12A19219   0.695   2.655   7.596 -0.8488 -0.1118 -1.8510
  170SAPS   C1319220   0.624   2.843   7.646  0.4325 -0.1213 -0.3152
  170SAPS  O13A19221   0.673   2.932   7.719  0.0667  0.1521 -0.3673
  170SAPS  O13B19222   0.499   2.819   7.652  0.0638  0.1261 -0.1029
  170SAPS   C1119223   0.661   2.768   7.414 -0.0162  0.2016 -0.2101
  170SAPS  H11A19224   0.674   2.874   7.386 -1.1390  0.5692  0.5906
  170SAPS  H11B19225   0.551   2.756   7.406 -0.3076  0.5293  2.4440
  170SAPS     P19226   0.735   2.718   7.174  0.3276 -0.1443  0.1346
  170SAPS   O1319227   0.811   2.846   7.156 -0.0816 -0.3074 -0.3311
  170SAPS   O1419228   0.788   2.599   7.107 -0.0033 -0.1382  0.5411
  170SAPS   O1219229   0.739   2.678   7.329  0.2288 -0.5554  0.1006
  170SAPS   O1119230   0.580   2.732   7.137 -0.2365 -0.1181 -0.5495
  170SAPS    C119231   0.519   2.631   7.052 -0.1413  0.1949 -0.0562
  170SAPS    HA19232   0.571   2.533   7.057  0.1462  0.3163 -0.5511
  170SAPS    HB19233   0.414   2.617   7.086  0.0020 -0.3722  0.1615
  170SAPS    C219234   0.518   2.664   6.899  0.1667  0.1746  0.5867
  170SAPS    HS19235   0.469   2.586   6.837 -0.4062  2.8718 -2.6622
  170SAPS   O2119236   0.651   2.697   6.860  0.1470  0.4913 -0.0864
  170SAPS   C2119237   0.725   2.614   6.792 -0.2511 -0.9014 -0.2206
  170SAPS   O2219238   0.690   2.506   6.750 -0.2114  0.3234 -0.5229
  170SAPS   C2219239   0.858   2.677   6.774  0.7371 -0.3379  0.5572
  170SAPS   H2R19240   0.838   2.765   6.709 -3.0812 -2.5205 -1.5193
  170SAPS   H2S19241   0.893   2.711   6.874  0.7801 -3.0922  1.5662
  170SAPS    C319242   0.420   2.787   6.871 -0.3389  0.2123  0.1963
  170SAPS    HX19243   0.428   2.862   6.952 -0.8696  0.2487  0.2227
  170SAPS    HY19244   0.322   2.736   6.884 -0.5729  0.3837 -0.7916
  170SAPS   O3119245   0.425   2.832   6.736  0.0564  0.1701 -0.2382
  170SAPS   C3119246   0.514   2.925   6.712  0.8564 -0.1633  0.1851
  170SAPS   O3219247   0.594   2.973   6.794  0.6154 -0.6481  0.0446
  170SAPS   C3219248   0.516   2.960   6.552  0.1993  0.7729 -0.2852
  170SAPS   H2X19249   0.416   3.002   6.527 -0.6442 -0.1600  1.3779
  170SAPS   H2Y19250   0.523   2.860   6.505  0.0982  0.9197 -0.6209
  170SAPS   C2319251   0.968   2.593   6.713  0.2903 -0.5533  0.0135
  170SAPS   H3R19252   0.962   2.493   6.761  1.0708 -1.2904 -1.3557
  170SAPS   H3S19253   1.061   2.651   6.731 -1.3665  1.4385  3.0190
  170SAPS   C2419254   0.957   2.565   6.563  0.7062 -0.0257  0.2359
  170SAPS   H4R19255   0.868   2.500   6.549  1.4125 -1.0543  0.3517
  170SAPS   H4S19256   1.041   2.494   6.542  1.0018 -0.0593  1.4497
  170SAPS   C2519257   0.970   2.685   6.471 -0.3664 -0.3943  0.3101
  170SAPS   H5R19258   1.052   2.757   6.476 -0.9238  0.2136  0.8980
  170SAPS   C2619259   0.871   2.734   6.387  0.3015  1.0189 -0.2068
  170SAPS   H6R19260   0.899   2.826   6.333  2.3655  1.8090  2.0608
  170SAPS   C2719261   0.740   2.675   6.361  0.0049  0.3702 -0.4082
  170SAPS   H7R19262   0.689   2.661   6.459 -0.4179 -0.6062 -0.7448
  170SAPS   H7S19263   0.759   2.572   6.324 -0.0083  1.2365 -2.9835
  170SAPS   C2819264   0.651   2.753   6.268 -0.2257  0.4424 -0.3838
  170SAPS   H8R19265   0.685   2.843   6.214 -0.6059  0.1586 -1.1175
  170SAPS   C2919266   0.535   2.702   6.233 -0.1208  0.0455  0.0601
  170SAPS   H9R19267   0.478   2.756   6.156 -0.2994 -0.1412  0.0603
  170SAPS  C21019268   0.479   2.584   6.294  0.7257  0.4643  0.6381
  170SAPS  H10R19269   0.412   2.618   6.376 -3.3159 -0.8311 -1.8198
  170SAPS  H10S19270   0.545   2.514   6.349  0.1868 -1.1109 -0.6621
  170SAPS  C21119271   0.390   2.510   6.194  0.2489  0.3467  0.2935
  170SAPS  H11R19272   0.283   2.522   6.214  0.2395 -0.0787  0.5222
  170SAPS  C21219273   0.419   2.439   6.083  0.1708  0.0644 -0.4152
  170SAPS  H12R19274   0.337   2.405   6.017 -0.1325 -1.1386  0.5528
  170SAPS  C21319275   0.560   2.421   6.038 -0.5693  0.0064  0.8688
  170SAPS  H13R19276   0.624   2.381   6.119 -0.3948 -0.7560  0.3612
  170SAPS  H13S19277   0.603   2.517   6.003 -0.2202 -0.6331 -0.5129
  170SAPS  C21419278   0.569   2.325   5.921  0.0932  0.9391  0.0573
  170SAPS  H14R19279   0.557   2.220   5.954 -2.4811  0.1435 -2.9372
  170SAPS  C21519280   0.597   2.352   5.796 -0.6733  0.4447  0.2349
  170SAPS  H15R19281   0.588   2.270   5.723 -0.4819 -0.9054  1.6669
  170SAPS  C21619282   0.610   2.496   5.747  0.2894 -0.4567 -0.5059
  170SAPS  H16R19283   0.709   2.536   5.779 -1.1384  1.1420  2.3016
  170SAPS  H16S19284   0.534   2.561   5.795  1.1622 -0.1219  0.4670
  170SAPS  C21719285   0.598   2.519   5.588  0.3113 -0.1113 -0.4118
  170SAPS  H17R19286   0.503   2.469   5.557  0.1129 -0.0447  0.0842
  170SAPS  H17S19287   0.680   2.475   5.527  3.8562  2.1756  2.3554
  170SAPS  C21819288   0.591   2.669   5.553 -0.1669 -0.2764 -0.3788
  170SAPS  H18R19289   0.691   2.705   5.587 -0.9992  1.2574  0.5154
  170SAPS  H18S19290   0.512   2.722   5.610  0.9947  1.7355 -0.5587
  170SAPS  C21919291   0.583   2.696   5.404 -0.2475 -0.0183 -0.0342
  170SAPS  H19R19292   0.685   2.668   5.371 -1.3646 -2.4338 -1.7098
  170SAPS  H19S19293   0.573   2.805   5.387 -1.8123 -0.3113 -1.2829
  170SAPS  C22019294   0.489   2.618   5.316  0.1309  0.6285 -0.1364
  170SAPS  H20R19295   0.518   2.625   5.209  0.8601  0.3789  0.0463
  170SAPS  H20S19296   0.383   2.653   5.325  0.2307  0.8545  0.1846
  170SAPS  H20T19297   0.500   2.515   5.355  0.6099  1.4855  2.1685
  170SAPS   C3319298   0.639   3.042   6.504  0.8958 -0.5191  0.4215
  170SAPS   H3X19299   0.731   2.983   6.524 -0.8743 -3.5561  0.2391
  170SAPS   H3Y19300   0.641   3.133   6.568 -2.0926  0.4839 -0.7088
  170SAPS   C3419301   0.641   3.101   6.363  0.9168  0.7415  0.1897
  170SAPS   H4X19302   0.592   3.027   6.296 -1.4272  0.3924  2.1388
  170SAPS   H4Y19303   0.749   3.102   6.335  0.8319 -0.8751 -0.3421
  170SAPS   C3519304   0.580   3.235   6.333 -0.5179 -0.1847  0.8959
  170SAPS   H5X19305   0.609   3.319   6.400  2.5609  1.1447 -1.8547
  170SAPS   H5Y19306   0.470   3.228   6.348 -0.8179  2.0208  0.0971
  170SAPS   C3619307   0.610   3.280   6.191 -0.6398 -0.2293 -0.7734
  170SAPS   H6X19308   0.721   3.270   6.188 -0.3785  0.6405  2.3037
  170SAPS   H6Y19309   0.582   3.382   6.159 -0.2100  0.1607  0.0672
  170SAPS   C3719310   0.552   3.178   6.084 -0.6315  0.1313 -0.4456
  170SAPS   H7X19311   0.445   3.160   6.108 -0.9497  1.4681 -0.7594
  170SAPS   H7Y19312   0.610   3.084   6.093 -1.9866 -0.6581  0.4524
  170SAPS   C3819313   0.550   3.226   5.945  0.4312  0.7859 -0.0054
  170SAPS   H8X19314   0.653   3.243   5.909  1.2017 -1.0315  1.2303
  170SAPS   H8Y19315   0.482   3.315   5.948  0.9662  1.2601 -1.0591
  170SAPS   C3919316   0.483   3.119   5.850  0.2156 -0.0244  0.0775
  170SAPS   H9X19317   0.390   3.095   5.905  0.5825 -1.8101 -0.0413
  170SAPS   H9Y19318   0.546   3.028   5.839 -0.5134 -0.3860 -1.4122
  170SAPS  C31019319   0.457   3.156   5.698 -0.1694 -0.8459 -0.0633
  170SAPS  H10X19320   0.549   3.182   5.641 -0.0015  0.6449  0.8417
  170SAPS  H10Y19321   0.392   3.246   5.701  0.7603 -0.1821  2.5424
  170SAPS  C31119322   0.391   3.044   5.616 -0.1663  0.1590  0.3337
  170SAPS  H11X19323   0.287   3.030   5.653 -0.5185 -2.6890 -1.4121
  170SAPS  H11Y19324   0.448   2.950   5.632  1.0465  0.7313 -0.4942
  170SAPS  C31219325   0.388   3.074   5.464 -0.4269 -0.4169  0.0015
  170SAPS  H12X19326   0.364   2.976   5.417 -0.8463 -0.7944  0.9758
  170SAPS  H12Y19327   0.491   3.102   5.432 -0.6961 -0.9260 -1.3450
  170SAPS  C31319328   0.290   3.184   5.423  0.3851 -0.4663  0.0869
  170SAPS  H13X19329   0.307   3.269   5.492 -0.3002 -1.2263  1.2261
  170SAPS  H13Y19330   0.186   3.151   5.441  0.3882 -0.3934  0.2445
  170SAPS  C31419331   0.314   3.232   5.279 -0.4150  0.8232  0.8237
  170SAPS  H14X19332   0.228   3.292   5.243  0.1953 -0.1985 -2.6871
  170SAPS  H14Y19333   0.325   3.144   5.212  0.6337  0.7524  1.0699
  170SAPS  C31519334   0.443   3.318   5.256 -0.0502 -0.0060 -0.7545
  170SAPS  H15X19335   0.466   3.319   5.147  0.5104 -2.1148 -0.6985
  170SAPS  H15Y19336   0.533   3.274   5.304  1.3606  1.2735 -2.1190
  170SAPS  C31619337   0.424   3.456   5.310  0.1885  0.3119 -0.0933
  170SAPS  H16X19338   0.412   3.454   5.420 -0.6292  1.1527 -0.1476
  170SAPS  H16Y19339   0.329   3.500   5.270 -0.1267  1.2338  1.5754
  170SAPS  C31719340   0.534   3.546   5.263  0.0853  0.3794  0.0009
  170SAPS  H17X19341   0.538   3.515   5.157  1.0755  0.0595  0.1288
  170SAPS  H17Y19342   0.630   3.521   5.311  0.1553  0.4920 -0.0792
  170SAPS  C31819343   0.511   3.694   5.285  0.5844  0.0493  0.2954
  170SAPS  H18X19344   0.600   3.750   5.249 -0.1764  0.9915 -0.1758
  170SAPS  H18Y19345   0.491   3.704   5.394  2.6110 -0.0691  0.7341
  170SAPS  H18Z19346   0.424   3.742   5.235  1.2025 -0.6456 -1.5321
  171SAPS     N19347   6.682   2.502   7.451 -0.1285 -0.2154  0.2026
  171SAPS   HN119348   6.594   2.449   7.436 -0.8833  1.2402 -0.7940
  171SAPS   HN219349   6.697   2.540   7.547  2.7948 -0.3854 -0.0879
  171SAPS   HN319350   6.683   2.584   7.388  2.6478 -0.6590 -0.4580
  171SAPS   C1219351   6.792   2.405   7.426 -0.7591 -0.2665  0.8858
  171SAPS  H12A19352   6.879   2.446   7.474  0.5449 -1.3145 -0.5147
  171SAPS   C1319353   6.782   2.267   7.490 -0.1536 -0.2929  0.3471
  171SAPS  O13A19354   6.675   2.239   7.550  0.0908 -0.2035  0.1349
  171SAPS  O13B19355   6.886   2.195   7.489  0.4412  0.2002  0.7430
  171SAPS   C1119356   6.806   2.398   7.271  0.5652  0.3956 -0.6042
  171SAPS  H11A19357   6.711   2.355   7.234  0.5926 -0.6420  0.4534
  171SAPS  H11B19358   6.880   2.322   7.237 -1.1153 -1.5913 -0.0155
  171SAPS     P19359   6.933   2.542   7.097  0.4977  0.0786  0.2574
  171SAPS   O1319360   6.966   2.692   7.089 -0.3572  0.2182 -0.2877
  171SAPS   O1419361   7.051   2.459   7.119  0.1143  0.4802 -0.1016
  171SAPS   O1219362   6.827   2.524   7.213 -0.1349  0.1874 -0.3441
  171SAPS   O1119363   6.853   2.493   6.974 -0.4074  0.5066  0.7776
  171SAPS    C119364   6.728   2.548   6.935  0.3278  0.0838  0.2575
  171SAPS    HA19365   6.656   2.463   6.942  2.2679 -1.8492 -1.6165
  171SAPS    HB19366   6.690   2.627   7.003  0.2093  0.6846 -0.5033
  171SAPS    C219367   6.729   2.595   6.787  0.5657  0.2030 -0.1762
  171SAPS    HS19368   6.622   2.615   6.764 -0.5081 -2.3805  1.9911
  171SAPS   O2119369   6.772   2.486   6.700 -0.0396  0.4723 -0.1628
  171SAPS   C2119370   6.691   2.387   6.684  0.2181 -0.2385 -0.6210
  171SAPS   O2219371   6.580   2.378   6.730 -0.0539 -0.0520  0.2440
  171SAPS   C2219372   6.771   2.274   6.611  0.7344 -0.1985 -0.5605
  171SAPS   H2R19373   6.853   2.247   6.680  0.3742  0.5604  0.1741
  171SAPS   H2S19374   6.703   2.187   6.619  0.0778  0.4944  2.4255
  171SAPS    C319375   6.814   2.724   6.754 -0.0288  0.5446 -0.1304
  171SAPS    HX19376   6.917   2.693   6.781 -0.8936 -1.8112  0.6742
  171SAPS    HY19377   6.781   2.806   6.822  0.5636 -1.5632  2.8833
  171SAPS   O3119378   6.793   2.761   6.618 -0.0122 -0.2146  0.0475
  171SAPS   C3119379   6.882   2.719   6.525  0.8747 -0.0658  0.0441
  171SAPS   O3219380   6.985   2.659   6.551 -0.0448 -0.0499  0.7698
  171SAPS   C3219381   6.820   2.753   6.385 -0.3297  0.0683  0.1085
  171SAPS   H2X19382   6.786   2.859   6.382  0.6860  0.4442  1.0477
  171SAPS   H2Y19383   6.731   2.687   6.377 -0.3298 -0.1168  1.4424
  171SAPS   C2319384   6.801   2.294   6.459  0.0166 -0.2785  0.0360
  171SAPS   H3R19385   6.855   2.391   6.452  0.4316 -0.2302  2.8183
  171SAPS   H3S19386   6.702   2.291   6.409  0.2045 -1.6693 -0.2921
  171SAPS   C2419387   6.873   2.181   6.385  0.1136  0.5374  0.0001
  171SAPS   H4R19388   6.836   2.184   6.281  0.1116  1.1214  0.0170
  171SAPS   H4S19389   6.839   2.082   6.424  1.8629 -0.0843  0.0485
  171SAPS   C2519390   7.022   2.187   6.400 -0.1464  1.0887  0.3015
  171SAPS   H5R19391   7.057   2.218   6.499  0.7954 -0.1389  0.3778
  171SAPS   C2619392   7.107   2.164   6.302 -0.3883  0.7735  0.3529
  171SAPS   H6R19393   7.217   2.165   6.311 -0.1522 -1.5579 -1.3980
  171SAPS   C2719394   7.075   2.116   6.160 -0.6069  0.1669 -1.1909
  171SAPS   H7R19395   7.159   2.131   6.089 -1.9564  0.5866 -2.7759
  171SAPS   H7S19396   6.983   2.173   6.134 -0.2985  2.3083  1.8889
  171SAPS   C2819397   7.042   1.967   6.172  0.2959  0.8840 -0.1722
  171SAPS   H8R19398   7.068   1.916   6.266 -0.1443  0.0746 -0.4829
  171SAPS   C2919399   6.981   1.886   6.087 -0.0527 -0.0993 -1.0403
  171SAPS   H9R19400   6.953   1.784   6.115  0.2475  0.3264  0.9931
  171SAPS  C21019401   6.931   1.921   5.950  0.0116 -0.3441  0.2295
  171SAPS  H10R19402   6.912   2.030   5.937 -2.8969 -0.9037 -0.9591
  171SAPS  H10S19403   6.836   1.868   5.932 -1.0744  1.7125 -0.3868
  171SAPS  C21119404   7.028   1.864   5.848  0.3270  0.1513  0.0595
  171SAPS  H11R19405   7.014   1.756   5.835 -1.3972  0.4230 -0.5630
  171SAPS  C21219406   7.109   1.930   5.763 -0.0745 -0.7392  0.2085
  171SAPS  H12R19407   7.164   1.872   5.687  0.6357  1.5928 -1.1295
  171SAPS  C21319408   7.131   2.081   5.752 -0.6044  0.6356 -0.4484
  171SAPS  H13R19409   7.234   2.097   5.790 -0.6551  0.3361 -0.1746
  171SAPS  H13S19410   7.074   2.135   5.831 -0.6044 -0.7864  0.5632
  171SAPS  C21419411   7.122   2.126   5.611 -0.3746  0.5688 -0.3193
  171SAPS  H14R19412   7.177   2.060   5.543 -0.6654  0.4846 -0.4731
  171SAPS  C21519413   7.036   2.225   5.567  0.3157  0.4392  0.1175
  171SAPS  H15R19414   7.043   2.251   5.460 -4.2063  0.4082 -0.3773
  171SAPS  C21619415   6.940   2.316   5.647  0.2891  0.1651 -0.0391
  171SAPS  H16R19416   6.983   2.417   5.660  1.2601 -0.3910  1.3682
  171SAPS  H16S19417   6.945   2.276   5.750  2.1461 -1.9630 -0.8766
  171SAPS  C21719418   6.790   2.320   5.601  0.2200  0.2340 -0.4485
  171SAPS  H17R19419   6.745   2.392   5.673 -0.4007 -0.4093 -0.1896
  171SAPS  H17S19420   6.740   2.224   5.625  0.7655 -0.5556 -2.3073
  171SAPS  C21819421   6.775   2.335   5.448  0.2799 -0.4063 -0.1042
  171SAPS  H18R19422   6.821   2.246   5.400  0.9357  0.0495 -0.3256
  171SAPS  H18S19423   6.843   2.419   5.424 -1.4850  0.9679 -0.4918
  171SAPS  C21919424   6.634   2.364   5.404 -0.4415  0.2587  0.4363
  171SAPS  H19R19425   6.596   2.451   5.463 -1.1254 -1.1040  2.0838
  171SAPS  H19S19426   6.573   2.277   5.436  0.7046 -1.2083 -1.2180
  171SAPS  C22019427   6.612   2.381   5.247 -0.2463  0.2001 -0.3615
  171SAPS  H20R19428   6.510   2.421   5.228 -0.7929 -1.2546 -0.6032
  171SAPS  H20S19429   6.619   2.281   5.200 -0.1070 -1.8927  3.6360
  171SAPS  H20T19430   6.683   2.455   5.204 -2.8549  1.6726 -2.4396
  171SAPS   C3319431   6.917   2.723   6.271 -0.0191  0.7558 -0.1362
  171SAPS   H3X19432   6.943   2.615   6.277  0.6010  0.9183  0.2333
  171SAPS   H3Y19433   7.010   2.783   6.281 -0.1395  0.7687  1.1761
  171SAPS   C3419434   6.867   2.754   6.138 -0.4989  0.0911  0.5090
  171SAPS   H4X19435   6.834   2.860   6.125 -1.1620 -0.3691 -2.0811
  171SAPS   H4Y19436   6.782   2.691   6.104 -0.4776  0.8623 -1.0725
  171SAPS   C3519437   6.969   2.750   6.020  0.2297 -0.3347 -0.0055
  171SAPS   H5X19438   7.009   2.649   5.997 -1.4976 -1.6944  2.5295
  171SAPS   H5Y19439   7.051   2.824   6.037 -2.1715  2.1152  1.7638
  171SAPS   C3619440   6.899   2.784   5.884 -0.5107 -0.6986  1.3521
  171SAPS   H6X19441   6.871   2.891   5.898  1.6667  0.3467 -1.3957
  171SAPS   H6Y19442   6.817   2.709   5.881 -0.8666 -0.2847  0.6032
  171SAPS   C3719443   6.981   2.779   5.753  0.7123  0.3870  0.0306
  171SAPS   H7X19444   7.009   2.674   5.728 -1.7685 -0.0772 -1.0466
  171SAPS   H7Y19445   7.075   2.835   5.775  1.2460 -0.4959  0.0984
  171SAPS   C3819446   6.903   2.838   5.633  0.6410  0.0445  0.2878
  171SAPS   H8X19447   6.983   2.870   5.562  0.7072 -0.6050  0.0690
  171SAPS   H8Y19448   6.838   2.916   5.679 -1.6420 -0.9842 -1.0116
  171SAPS   C3919449   6.801   2.737   5.567 -0.3209  0.1370  1.0739
  171SAPS   H9X19450   6.748   2.670   5.638 -0.3993 -0.9077  0.0719
  171SAPS   H9Y19451   6.869   2.666   5.514  1.0236  1.0065  1.5893
  171SAPS  C31019452   6.703   2.805   5.476  0.6311  0.1381  0.6700
  171SAPS  H10X19453   6.638   2.877   5.531 -1.6419 -0.1228 -1.4817
  171SAPS  H10Y19454   6.629   2.730   5.442  0.7942 -0.5561  1.8255
  171SAPS  C31119455   6.773   2.877   5.361 -0.7804  0.4931  0.2697
  171SAPS  H11X19456   6.788   2.797   5.285 -0.2738 -0.0103  0.8890
  171SAPS  H11Y19457   6.877   2.908   5.385 -0.9828 -0.3941  2.5179
  171SAPS  C31219458   6.687   2.988   5.297 -0.3103 -0.6751  0.1683
  171SAPS  H12X19459   6.664   3.070   5.368 -1.2456 -1.1754  0.4612
  171SAPS  H12Y19460   6.591   2.938   5.273 -0.6096 -0.3676  0.7208
  171SAPS  C31319461   6.759   3.050   5.179 -0.0274 -0.6555  1.1747
  171SAPS  H13X19462   6.783   2.958   5.121 -0.6526 -0.2939  0.3123
  171SAPS  H13Y19463   6.854   3.096   5.213 -0.3789  1.1649 -0.0967
  171SAPS  C31419464   6.680   3.136   5.089  0.3022 -0.4276  0.3169
  171SAPS  H14X19465   6.638   3.223   5.143 -1.5883  0.2523 -2.0915
  171SAPS  H14Y19466   6.598   3.070   5.055  1.6053 -1.5021 -0.8982
  171SAPS  C31519467   6.753   3.195   4.971 -0.3245 -0.6172  1.0192
  171SAPS  H15X19468   6.686   3.257   4.907  2.3666  1.3538 -0.0707
  171SAPS  H15Y19469   6.792   3.116   4.902  0.1710  0.8791 -0.4763
  171SAPS  C31619470   6.880   3.277   5.009  0.2854  0.0148  0.4379
  171SAPS  H16X19471   6.959   3.205   5.041  1.7877 -0.0144 -2.9619
  171SAPS  H16Y19472   6.847   3.346   5.090 -1.1813  0.7236 -0.7107
  171SAPS  C31719473   6.938   3.370   4.896  0.3029  0.1879 -0.1921
  171SAPS  H17X19474   6.879   3.464   4.897 -2.5017 -1.3773  2.8879
  171SAPS  H17Y19475   6.916   3.334   4.793  0.9332  2.0701 -1.0376
  171SAPS  C31819476   7.084   3.392   4.911 -0.1640  0.5504  0.2430
  171SAPS  H18X19477   7.103   3.466   4.991 -0.0898  0.1406  0.6097
  171SAPS  H18Y19478   7.136   3.440   4.826 -2.0517 -1.8183 -2.4529
  171SAPS  H18Z19479   7.143   3.304   4.945 -3.1746 -0.3581  3.6969
  172SAPS     N19480   1.490   3.077   7.296 -0.3971  0.2048  0.0847
  172SAPS   HN119481   1.573   3.108   7.240  0.5099 -2.1876  0.0077
  172SAPS   HN219482   1.481   3.122   7.389 -0.8252  1.0484 -0.3518
  172SAPS   HN319483   1.503   2.974   7.303  0.2745  0.3300  0.8123
  172SAPS   C1219484   1.361   3.098   7.227  0.0686 -0.5242 -0.0263
  172SAPS  H12A19485   1.357   3.042   7.135 -1.3284 -0.3845 -0.0755
  172SAPS   C1319486   1.236   3.060   7.305  0.6231 -0.1629 -0.1753
  172SAPS  O13A19487   1.242   2.995   7.413  0.1476 -0.0229 -0.2145
  172SAPS  O13B19488   1.121   3.099   7.258  0.4874 -0.2060  0.3769
  172SAPS   C1119489   1.358   3.252   7.202 -0.5922  0.0594  0.7059
  172SAPS  H11A19490   1.352   3.307   7.299 -0.7371 -2.6144  2.3066
  172SAPS  H11B19491   1.258   3.276   7.160 -1.2543 -2.4681  0.6989
  172SAPS     P19492   1.545   3.439   7.124 -0.2486 -0.0502 -0.0678
  172SAPS   O1319493   1.436   3.545   7.130 -1.0337  0.4191  0.0006
  172SAPS   O1419494   1.645   3.426   7.240 -0.1758 -0.2224 -0.0668
  172SAPS   O1219495   1.473   3.289   7.117 -0.1852  0.0669  0.0072
  172SAPS   O1119496   1.630   3.448   6.989  1.0314 -0.2542 -0.6220
  172SAPS    C119497   1.672   3.329   6.921  0.1136 -0.3890  0.0130
  172SAPS    HA19498   1.780   3.331   6.898 -0.0909  1.1660 -0.9802
  172SAPS    HB19499   1.662   3.234   6.978  2.3601 -0.9068 -0.3796
  172SAPS    C219500   1.586   3.310   6.797 -0.1887 -0.8628 -0.4067
  172SAPS    HS19501   1.594   3.407   6.743 -2.7726  0.8601  2.0321
  172SAPS   O2119502   1.448   3.277   6.826 -0.1944  0.0902  0.3125
  172SAPS   C2119503   1.360   3.358   6.757 -0.8805  0.0122  0.0360
  172SAPS   O2219504   1.390   3.441   6.674 -0.0051 -0.6114 -0.0979
  172SAPS   C2219505   1.216   3.328   6.790  0.1637  0.1502 -0.7620
  172SAPS   H2R19506   1.208   3.221   6.819  0.0153  0.5698  0.7973
  172SAPS   H2S19507   1.193   3.378   6.886 -0.1148 -2.8938  0.8956
  172SAPS    C319508   1.643   3.195   6.706  0.3073 -0.1111  0.5649
  172SAPS    HX19509   1.643   3.105   6.772  0.8482  1.0403  2.1948
  172SAPS    HY19510   1.750   3.220   6.689  0.6335 -1.1134  1.0480
  172SAPS   O3119511   1.565   3.188   6.586 -0.2080  0.3083 -0.2379
  172SAPS   C3119512   1.598   3.271   6.493  0.1560 -0.2526  0.2589
  172SAPS   O3219513   1.689   3.350   6.489  0.0163  0.3099  0.3741
  172SAPS   C3219514   1.499   3.248   6.378 -0.0883  0.5859  0.2178
  172SAPS   H2X19515   1.422   3.327   6.377 -0.0514  0.6192 -0.1110
  172SAPS   H2Y19516   1.450   3.149   6.388  1.4107 -0.0335  2.1944
  172SAPS   C2319517   1.113   3.369   6.682  0.3882 -0.5215  1.3115
  172SAPS   H3R19518   1.113   3.477   6.653 -2.0270 -1.1165 -1.3530
  172SAPS   H3S19519   1.009   3.359   6.721 -0.6894  0.1886 -1.1602
  172SAPS   C2419520   1.113   3.283   6.552  0.1843 -0.8006  0.2024
  172SAPS   H4R19521   1.072   3.183   6.578  0.4482 -0.9210  0.1569
  172SAPS   H4S19522   1.216   3.266   6.514 -0.5674 -0.7289 -2.0076
  172SAPS   C2519523   1.044   3.349   6.433  0.2461 -0.8543 -0.0120
  172SAPS   H5R19524   0.981   3.435   6.460  0.8083  0.3414 -2.2356
  172SAPS   C2619525   1.045   3.309   6.303 -0.7527  0.0747  0.6701
  172SAPS   H6R19526   0.990   3.366   6.227  4.6845  0.7489 -3.3638
  172SAPS   C2719527   1.128   3.194   6.245  0.1925  0.0428 -0.3745
  172SAPS   H7R19528   1.086   3.099   6.285  2.8603 -0.5126  1.2997
  172SAPS   H7S19529   1.232   3.194   6.283 -0.4751  1.9279  1.6529
  172SAPS   C2819530   1.127   3.201   6.091 -0.1452 -0.3017  0.6236
  172SAPS   H8R19531   1.222   3.239   6.050  0.2907  0.5247  2.2912
  172SAPS   C2919532   1.045   3.142   6.007  0.9213 -0.3399 -0.3259
  172SAPS   H9R19533   1.057   3.154   5.899 -1.8034 -2.1181 -0.9263
  172SAPS  C21019534   0.913   3.068   6.045  0.0168 -0.2577 -0.3883
  172SAPS  H10R19535   0.824   3.132   6.023 -0.2634 -0.0869  1.1157
  172SAPS  H10S19536   0.899   3.058   6.154 -1.4238 -1.3981 -0.6456
  172SAPS  C21119537   0.898   2.935   5.975  0.0468  0.1627  0.1638
  172SAPS  H11R19538   0.907   2.844   6.036 -1.7311 -0.8621 -1.0123
  172SAPS  C21219539   0.862   2.912   5.850 -0.1036 -0.2573  0.0216
  172SAPS  H12R19540   0.848   2.809   5.815 -0.8681 -0.7346  1.6473
  172SAPS  C21319541   0.851   3.008   5.738  0.4696 -0.0933  0.7043
  172SAPS  H13R19542   0.854   3.113   5.774 -1.3278 -0.5473  2.3141
  172SAPS  H13S19543   0.748   3.008   5.695  0.9498  1.5523 -0.5613
  172SAPS  C21419544   0.958   2.987   5.630 -0.3319 -0.2353 -0.3821
  172SAPS  H14R19545   1.062   2.971   5.660 -0.1711  0.6427 -0.4526
  172SAPS  C21519546   0.940   2.993   5.499  0.6906  0.2115  0.3308
  172SAPS  H15R19547   1.014   2.971   5.421 -0.9393  0.3070 -1.3103
  172SAPS  C21619548   0.816   3.039   5.437 -0.7439  0.1922  0.2529
  172SAPS  H16R19549   0.773   3.129   5.485  0.6920  0.2744  1.4716
  172SAPS  H16S19550   0.740   2.958   5.441  0.3054 -0.9104 -0.8562
  172SAPS  C21719551   0.832   3.087   5.293 -0.6127 -0.3534  0.3525
  172SAPS  H17R19552   0.912   3.164   5.292  1.1574 -1.9452  3.4446
  172SAPS  H17S19553   0.735   3.136   5.268  0.4496  1.9522  0.4645
  172SAPS  C21819554   0.842   2.993   5.177 -0.0193 -0.0715  0.1562
  172SAPS  H18R19555   0.750   2.930   5.180  0.0255 -0.1103  0.8836
  172SAPS  H18S19556   0.924   2.919   5.185 -0.5794 -1.4670 -4.2596
  172SAPS  C21919557   0.848   3.064   5.038 -0.0425  0.3697 -0.5394
  172SAPS  H19R19558   0.939   3.125   5.021  0.5776 -0.9807 -2.4928
  172SAPS  H19S19559   0.749   3.115   5.033  0.3578  1.1515 -0.4799
  172SAPS  C22019560   0.856   2.961   4.917  0.3150 -0.2912 -0.5336
  172SAPS  H20R19561   0.821   3.020   4.830  2.2807 -0.0320 -1.1811
  172SAPS  H20S19562   0.787   2.874   4.927 -0.3026  0.2818  0.4943
  172SAPS  H20T19563   0.958   2.922   4.895  0.5700  0.1502 -0.1383
  172SAPS   C3319564   1.583   3.246   6.254 -0.3107 -0.2359  0.9263
  172SAPS   H3X19565   1.668   3.175   6.249 -0.7855 -0.6988 -1.0558
  172SAPS   H3Y19566   1.623   3.349   6.245 -0.1809 -0.3413  0.2904
  172SAPS   C3419567   1.508   3.221   6.125 -0.2854 -0.1876 -0.0698
  172SAPS   H4X19568   1.420   3.289   6.114 -0.1429  0.0437  0.1974
  172SAPS   H4Y19569   1.471   3.116   6.126  1.7682 -0.9874 -1.6949
  172SAPS   C3519570   1.604   3.256   6.012  0.2584  0.3686 -0.4401
  172SAPS   H5X19571   1.699   3.199   6.024 -1.0167 -2.5984 -2.9981
  172SAPS   H5Y19572   1.620   3.365   6.018  0.2302  0.3579 -0.1697
  172SAPS   C3619573   1.556   3.214   5.872 -0.6613 -0.0069 -0.7395
  172SAPS   H6X19574   1.489   3.128   5.892  0.0938 -0.0385  2.0100
  172SAPS   H6Y19575   1.644   3.185   5.810  0.8925  0.8423  0.9539
  172SAPS   C3719576   1.462   3.319   5.804 -0.8476 -0.6872 -0.0726
  172SAPS   H7X19577   1.499   3.424   5.811  0.2184 -1.0658  0.1139
  172SAPS   H7Y19578   1.370   3.325   5.867 -0.1790 -1.6914  1.0361
  172SAPS   C3819579   1.438   3.295   5.658 -0.3095 -0.3140 -0.4801
  172SAPS   H8X19580   1.406   3.189   5.650  1.4745 -0.9619  0.4613
  172SAPS   H8Y19581   1.530   3.315   5.600 -0.0449 -2.9431 -1.0973
  172SAPS   C3919582   1.319   3.381   5.617  0.2313  0.2076  1.1081
  172SAPS   H9X19583   1.300   3.369   5.509 -1.0400  0.8135  1.2435
  172SAPS   H9Y19584   1.341   3.490   5.627 -1.4186  0.8681 -1.4375
  172SAPS  C31019585   1.181   3.353   5.680  0.6504 -0.2652 -0.2985
  172SAPS  H10X19586   1.178   3.386   5.787 -0.3367  1.8098 -0.9139
  172SAPS  H10Y19587   1.159   3.244   5.682  1.4076 -0.4344 -0.8120
  172SAPS  C31119588   1.067   3.429   5.606 -0.2363 -0.1869 -0.3880
  172SAPS  H11X19589   1.042   3.388   5.505 -1.9600 -1.0255  0.3318
  172SAPS  H11Y19590   1.088   3.537   5.595  2.0742 -0.7235 -1.8614
  172SAPS  C31219591   0.933   3.423   5.686  0.0662 -0.5847  0.0692
  172SAPS  H12X19592   0.945   3.476   5.783  0.2846 -2.1451  0.9301
  172SAPS  H12Y19593   0.899   3.321   5.716 -1.5747  0.5507  2.4033
  172SAPS  C31319594   0.809   3.487   5.614  0.0608  0.4499  0.5529
  172SAPS  H13X19595   0.774   3.439   5.520 -1.4841  0.8060  0.9127
  172SAPS  H13Y19596   0.828   3.595   5.598  1.7562  0.0526 -0.3025
  172SAPS  C31419597   0.685   3.494   5.705  1.0934 -0.6169 -0.0974
  172SAPS  H14X19598   0.722   3.494   5.809  3.1877  2.9799 -0.6620
  172SAPS  H14Y19599   0.623   3.403   5.690 -0.0413  0.1580 -0.1835
  172SAPS  C31519600   0.582   3.610   5.690  0.2779 -0.3339  0.1417
  172SAPS  H15X19601   0.572   3.612   5.580  1.4043 -1.1815  0.0047
  172SAPS  H15Y19602   0.639   3.702   5.716  0.8417 -0.7640  0.4318
  172SAPS  C31619603   0.450   3.588   5.782  0.2031  0.5882 -0.6170
  172SAPS  H16X19604   0.362   3.644   5.745  1.2481  3.2703  0.6581
  172SAPS  H16Y19605   0.415   3.484   5.766  0.0580  0.4260  0.6896
  172SAPS  C31719606   0.467   3.603   5.940  0.4997  0.3996  0.3226
  172SAPS  H17X19607   0.500   3.704   5.972  0.4636  0.4581  0.1801
  172SAPS  H17Y19608   0.541   3.526   5.970 -1.7116 -1.2142  1.9973
  172SAPS  C31819609   0.337   3.586   6.008  0.1900 -0.6890  0.1294
  172SAPS  H18X19610   0.256   3.654   5.972  0.4819  0.5473  1.7175
  172SAPS  H18Y19611   0.344   3.601   6.117  2.1859 -1.4528  0.1598
  172SAPS  H18Z19612   0.290   3.487   5.988  0.2343 -0.7921  0.5295
  173SAPS     N19613   1.536   1.696   2.444  0.2631 -0.0500 -0.2732
  173SAPS   HN119614   1.509   1.720   2.346  0.2689 -0.9584 -0.5054
  173SAPS   HN219615   1.614   1.628   2.452  0.1008 -0.4289 -1.5682
  173SAPS   HN319616   1.453   1.658   2.494 -0.3891  1.5425 -0.0680
  173SAPS   C1219617   1.586   1.819   2.512 -0.2192 -0.2976  0.4348
  173SAPS  H12A19618   1.649   1.786   2.593  0.2707 -0.1526  0.1134
  173SAPS   C1319619   1.681   1.906   2.421 -0.3794  0.1803 -0.0655
  173SAPS  O13A19620   1.688   1.878   2.299  0.4595  0.2436  0.2549
  173SAPS  O13B19621   1.756   1.996   2.474  0.1002  0.3821  0.0056
  173SAPS   C1119622   1.466   1.900   2.570 -0.4515 -0.3171 -0.3980
  173SAPS  H11A19623   1.408   1.936   2.482 -0.4472  2.2205  0.5508
  173SAPS  H11B19624   1.514   1.986   2.622  0.1753 -0.3396 -0.9333
  173SAPS     P19625   1.256   1.884   2.718  0.1671  0.2005  0.3549
  173SAPS   O1319626   1.283   2.008   2.791 -0.4581  0.0533 -0.2313
  173SAPS   O1419627   1.175   1.897   2.593 -0.1913 -0.0201  0.2237
  173SAPS   O1219628   1.391   1.822   2.665  0.7021 -0.3130 -0.3446
  173SAPS   O1119629   1.193   1.783   2.812 -0.1228  0.4295  0.2398
  173SAPS    C119630   1.204   1.639   2.805 -0.0611 -0.2291  0.3139
  173SAPS    HA19631   1.100   1.600   2.796  0.0113 -0.2815 -0.3563
  173SAPS    HB19632   1.267   1.591   2.727 -1.6202 -0.9245 -0.5736
  173SAPS    C219633   1.237   1.563   2.937 -0.3651  0.1149  0.1906
  173SAPS    HS19634   1.210   1.457   2.921 -1.6517  0.4525  0.0323
  173SAPS   O2119635   1.152   1.617   3.042  0.3209 -0.2061  0.1687
  173SAPS   C2119636   1.158   1.545   3.151 -0.7904  0.1853  0.4584
  173SAPS   O2219637   1.203   1.430   3.165  0.1198  0.0068 -0.1438
  173SAPS   C2219638   1.100   1.616   3.271  0.1194 -0.4554  0.0745
  173SAPS   H2R19639   1.079   1.723   3.248 -1.4772 -0.8204 -0.3394
  173SAPS   H2S19640   1.000   1.571   3.291  0.1447 -2.5351 -3.5072
  173SAPS    C319641   1.391   1.571   2.976  0.3366  0.5314 -0.1172
  173SAPS    HX19642   1.453   1.528   2.894 -0.2417 -0.3417 -0.1111
  173SAPS    HY19643   1.408   1.504   3.063 -2.1439  1.4657  1.1717
  173SAPS   O3119644   1.427   1.698   3.013 -0.8991 -0.8476  0.3593
  173SAPS   C3119645   1.534   1.748   2.952 -0.2720 -0.2248 -0.3054
  173SAPS   O3219646   1.613   1.697   2.877  0.6328 -0.0614 -0.1493
  173SAPS   C3219647   1.555   1.889   3.001 -0.2521 -0.0781 -0.0648
  173SAPS   H2X19648   1.566   1.875   3.111  0.2078 -1.8499 -0.3021
  173SAPS   H2Y19649   1.476   1.966   2.987 -0.8652 -0.8519 -0.9843
  173SAPS   C2319650   1.182   1.583   3.401  0.0695  0.8235  0.3052
  173SAPS   H3R19651   1.282   1.631   3.389  0.4530  0.3878  1.6594
  173SAPS   H3S19652   1.209   1.476   3.403 -1.8795  0.2795 -0.2630
  173SAPS   C2419653   1.128   1.611   3.537  0.0509 -0.7188  0.2537
  173SAPS   H4R19654   1.119   1.721   3.547 -0.2511 -0.5160 -1.9083
  173SAPS   H4S19655   1.199   1.579   3.617  1.7688  0.3572 -0.7961
  173SAPS   C2519656   0.992   1.542   3.555  0.0011 -0.0955  0.2861
  173SAPS   H5R19657   0.946   1.486   3.473 -0.3003  0.0285  0.3668
  173SAPS   C2619658   0.932   1.531   3.674 -0.7708 -0.2816  0.0441
  173SAPS   H6R19659   0.834   1.480   3.679 -1.2863  0.7955  2.3482
  173SAPS   C2719660   0.983   1.585   3.809  0.4350 -0.2973 -0.5885
  173SAPS   H7R19661   0.945   1.690   3.816 -0.6425 -0.7431  0.4987
  173SAPS   H7S19662   1.093   1.594   3.822  0.2513 -0.8709  1.8642
  173SAPS   C2819663   0.916   1.516   3.924  0.0528 -0.7732  0.1863
  173SAPS   H8R19664   0.910   1.407   3.909 -1.4157 -0.4567 -1.9283
  173SAPS   C2919665   0.860   1.569   4.040 -0.4000 -0.1024  0.4005
  173SAPS   H9R19666   0.824   1.499   4.118  1.7821  0.3659  1.9218
  173SAPS  C21019667   0.856   1.709   4.077  0.0095  0.2336  0.0357
  173SAPS  H10R19668   0.770   1.755   4.024 -1.0214 -0.0368  1.4029
  173SAPS  H10S19669   0.943   1.761   4.031  0.6678 -0.3607  0.5933
  173SAPS  C21119670   0.850   1.743   4.224  0.2435 -0.7026 -0.2800
  173SAPS  H11R19671   0.926   1.689   4.280 -0.3591 -1.4111 -0.1327
  173SAPS  C21219672   0.795   1.848   4.287 -0.0734 -0.2307  0.2464
  173SAPS  H12R19673   0.805   1.847   4.397 -1.1287  4.5007  0.5782
  173SAPS  C21319674   0.710   1.958   4.230 -0.5124 -0.2859 -0.0026
  173SAPS  H13R19675   0.675   1.936   4.126 -1.8197 -1.1278  0.5896
  173SAPS  H13S19676   0.769   2.052   4.228  0.6214 -0.9870 -0.8129
  173SAPS  C21419677   0.592   1.973   4.327  0.5229  0.2027  0.5576
  173SAPS  H14R19678   0.522   1.892   4.301  2.1062 -0.1984 -3.1314
  173SAPS  C21519679   0.580   2.054   4.434  0.1751 -0.0500 -0.1108
  173SAPS  H15R19680   0.500   2.023   4.503 -1.4176 -1.5419 -2.4692
  173SAPS  C21619681   0.666   2.164   4.480 -0.5352 -0.5982  0.3834
  173SAPS  H16R19682   0.638   2.271   4.471  2.3648  0.2998  0.8584
  173SAPS  H16S19683   0.760   2.160   4.421 -1.2582  1.6391 -1.0698
  173SAPS  C21719684   0.701   2.144   4.629  0.6792  0.2743 -0.3075
  173SAPS  H17R19685   0.724   2.039   4.657  2.0394  0.3931 -0.9008
  173SAPS  H17S19686   0.611   2.167   4.691  0.7297  0.1712 -0.1949
  173SAPS  C21819687   0.809   2.237   4.676 -0.3232  0.6888  0.2092
  173SAPS  H18R19688   0.773   2.339   4.652  0.1087  0.9950  0.8443
  173SAPS  H18S19689   0.898   2.225   4.611 -0.3730  0.0554  0.2521
  173SAPS  C21919690   0.836   2.218   4.827 -0.1728  0.3389  0.1184
  173SAPS  H19R19691   0.844   2.111   4.853 -0.6900  0.2537 -0.0513
  173SAPS  H19S19692   0.753   2.274   4.876  0.5672  1.8086 -0.2512
  173SAPS  C22019693   0.966   2.277   4.881 -0.3202  0.5215 -1.2161
  173SAPS  H20R19694   0.975   2.384   4.853  0.1046  0.2357 -2.2077
  173SAPS  H20S19695   1.052   2.222   4.836 -1.7077 -1.5654 -1.5064
  173SAPS  H20T19696   0.973   2.268   4.991  0.5442 -2.0403 -1.4131
  173SAPS   C3319697   1.685   1.964   2.969  0.5354  0.8578 -0.2738
  173SAPS   H3X19698   1.689   1.999   2.864  1.5136 -2.2921 -1.4114
  173SAPS   H3Y19699   1.773   1.897   2.977 -1.4273 -1.8108  0.3616
  173SAPS   C3419700   1.699   2.088   3.058 -0.2556 -0.6614 -0.0367
  173SAPS   H4X19701   1.807   2.114   3.059 -0.5679  0.7353  1.2723
  173SAPS   H4Y19702   1.668   2.070   3.163  0.5757 -0.6327  0.2216
  173SAPS   C3519703   1.615   2.208   3.007  0.4048 -0.0223 -0.0183
  173SAPS   H5X19704   1.518   2.166   2.975  1.3686 -0.1427 -3.2102
  173SAPS   H5Y19705   1.646   2.237   2.904  0.1949 -1.3585 -0.4718
  173SAPS   C3619706   1.603   2.335   3.099  0.2990 -0.0260  0.1252
  173SAPS   H6X19707   1.705   2.372   3.124  0.1386  0.4301  0.1145
  173SAPS   H6Y19708   1.557   2.298   3.193 -0.6796 -1.7188 -0.9893
  173SAPS   C3719709   1.531   2.447   3.018 -0.1020  0.3109  0.1995
  173SAPS   H7X19710   1.459   2.404   2.946 -0.9555  3.0047 -0.6909
  173SAPS   H7Y19711   1.606   2.487   2.947 -0.8229 -1.7288 -1.8097
  173SAPS   C3819712   1.477   2.566   3.090  0.0967  0.4070  0.0250
  173SAPS   H8X19713   1.389   2.535   3.150  2.0186 -0.5157  2.5508
  173SAPS   H8Y19714   1.458   2.639   3.009  1.3867  0.2948 -0.3951
  173SAPS   C3919715   1.579   2.633   3.188 -0.4256 -0.1677 -0.6598
  173SAPS   H9X19716   1.557   2.742   3.191 -1.0926 -0.2389 -2.0478
  173SAPS   H9Y19717   1.677   2.624   3.137 -0.3774 -0.1934 -0.5625
  173SAPS  C31019718   1.578   2.585   3.331 -0.9706 -0.1870 -0.3517
  173SAPS  H10X19719   1.667   2.627   3.384  0.6260 -1.0747 -2.1717
  173SAPS  H10Y19720   1.603   2.477   3.323  3.0080  0.5686 -0.6781
  173SAPS  C31119721   1.450   2.612   3.408  0.1092 -0.1272 -0.0701
  173SAPS  H11X19722   1.359   2.553   3.385 -0.1664 -1.1450  3.1061
  173SAPS  H11Y19723   1.420   2.718   3.395  1.1860  0.0900 -0.8949
  173SAPS  C31219724   1.476   2.586   3.557 -0.1376  0.0852 -0.8674
  173SAPS  H12X19725   1.537   2.665   3.605 -1.6747  1.5722 -1.2570
  173SAPS  H12Y19726   1.525   2.487   3.571  1.2034  0.8293 -0.1517
  173SAPS  C31319727   1.344   2.569   3.639  0.0871 -0.3958  0.3718
  173SAPS  H13X19728   1.287   2.478   3.611 -2.7548  0.7426  2.0189
  173SAPS  H13Y19729   1.295   2.666   3.614  2.7871  0.6999 -1.0895
  173SAPS  C31419730   1.362   2.551   3.792  0.6483 -0.4060  0.0504
  173SAPS  H14X19731   1.386   2.647   3.843 -1.3494  0.8478 -1.2579
  173SAPS  H14Y19732   1.441   2.474   3.807  1.1760  0.0984 -0.1163
  173SAPS  C31519733   1.234   2.497   3.865  0.2195  0.2732  0.4754
  173SAPS  H15X19734   1.194   2.407   3.814  0.9559 -1.1172  2.2306
  173SAPS  H15Y19735   1.153   2.572   3.876 -0.2869 -0.5395  3.0564
  173SAPS  C31619736   1.278   2.459   4.010  0.4196 -0.6543  0.3002
  173SAPS  H16X19737   1.309   2.552   4.063  1.8356  0.1210 -1.7840
  173SAPS  H16Y19738   1.367   2.393   4.011  0.1757 -0.9980  1.3433
  173SAPS  C31719739   1.165   2.400   4.097  0.1068  0.3715  0.3043
  173SAPS  H17X19740   1.141   2.300   4.054  0.5843 -1.4557  3.8699
  173SAPS  H17Y19741   1.070   2.458   4.100 -0.0886  0.2473 -1.7856
  173SAPS  C31819742   1.206   2.376   4.243  0.6944  0.1784  0.5635
  173SAPS  H18X19743   1.120   2.405   4.307 -1.4533 -1.5131 -1.3844
  173SAPS  H18Y19744   1.299   2.430   4.270 -0.5358  0.9781  3.7411
  173SAPS  H18Z19745   1.228   2.268   4.252  0.5681 -0.0556 -1.5337
  174SAPS     N19746   4.860   6.075   2.440  0.0358 -0.0403 -0.2078
  174SAPS   HN119747   4.829   5.976   2.431  1.9117 -0.4930 -3.0548
  174SAPS   HN219748   4.884   6.085   2.541  1.6275  2.9386 -0.7935
  174SAPS   HN319749   4.793   6.146   2.406  0.8758  1.3316  0.9123
  174SAPS   C1219750   4.982   6.097   2.364  0.0188 -0.1238 -0.3425
  174SAPS  H12A19751   5.062   6.036   2.405 -0.3882  0.4385  1.3876
  174SAPS   C1319752   4.980   6.052   2.211 -0.2134 -0.2907 -0.0169
  174SAPS  O13A19753   4.876   5.990   2.170  0.2160 -0.1669 -0.5388
  174SAPS  O13B19754   5.084   6.045   2.143 -0.3991 -0.3086 -0.1196
  174SAPS   C1119755   5.015   6.254   2.380  0.0038  0.2108 -0.3439
  174SAPS  H11A19756   4.923   6.315   2.363 -0.3785 -0.6351 -1.4486
  174SAPS  H11B19757   5.088   6.285   2.302  0.1429  1.0576  0.1133
  174SAPS     P19758   5.151   6.383   2.574 -0.4302  0.5522  0.0653
  174SAPS   O1319759   5.220   6.326   2.688 -0.7803  0.0780 -0.0466
  174SAPS   O1419760   5.224   6.460   2.471  0.1330  0.3405  0.4467
  174SAPS   O1219761   5.055   6.275   2.512  0.1143 -0.6930  0.4156
  174SAPS   O1119762   5.034   6.482   2.621 -0.4597  0.2165 -0.6456
  174SAPS    C119763   4.932   6.424   2.707  0.7279 -0.7849 -0.4555
  174SAPS    HA19764   4.860   6.367   2.643  1.1766  0.0714 -1.7621
  174SAPS    HB19765   4.986   6.365   2.784  0.7818 -0.2925 -0.1114
  174SAPS    C219766   4.865   6.541   2.786 -0.1898 -0.4042  0.5547
  174SAPS    HS19767   4.826   6.613   2.711  0.5596 -0.2169  0.3327
  174SAPS   O2119768   4.968   6.598   2.870 -0.1820 -0.5805  0.0922
  174SAPS   C2119769   4.950   6.728   2.897 -0.7714  0.2693 -0.4989
  174SAPS   O2219770   4.860   6.795   2.858 -0.0250 -0.1392 -0.0476
  174SAPS   C2219771   5.065   6.773   2.987 -0.1584  0.1587  0.0752
  174SAPS   H2R19772   5.130   6.684   2.998  0.6413  0.6717 -0.3734
  174SAPS   H2S19773   5.117   6.849   2.925  0.1845  0.9684  1.3263
  174SAPS    C319774   4.736   6.499   2.864 -0.6999  0.8491 -0.0498
  174SAPS    HX19775   4.666   6.463   2.785  0.1827 -0.8215 -0.1000
  174SAPS    HY19776   4.697   6.592   2.910 -3.2198 -0.3066  0.3306
  174SAPS   O3119777   4.761   6.405   2.965  0.7539  1.0564 -0.5177
  174SAPS   C3119778   4.693   6.290   2.961 -0.1676  0.8785  0.2351
  174SAPS   O3219779   4.632   6.242   2.866  0.2100 -0.7211  0.3926
  174SAPS   C3219780   4.705   6.227   3.108  0.1365 -0.0921 -0.0295
  174SAPS   H2X19781   4.810   6.238   3.142  0.1086  2.0510 -0.4371
  174SAPS   H2Y19782   4.676   6.120   3.104 -0.9170  0.0331  2.4151
  174SAPS   C2319783   5.037   6.833   3.122  1.0539  0.1931  0.0639
  174SAPS   H3R19784   4.997   6.765   3.199 -3.1501  0.9460 -1.2067
  174SAPS   H3S19785   4.950   6.902   3.124 -0.2203 -1.3672  2.4627
  174SAPS   C2419786   5.146   6.940   3.155  0.0577 -0.2523 -0.0868
  174SAPS   H4R19787   5.121   7.041   3.116 -2.0286 -1.1007 -1.0608
  174SAPS   H4S19788   5.236   6.909   3.097  0.1501  0.6707 -0.4591
  174SAPS   C2519789   5.189   6.936   3.298  0.8508  0.0155  0.2343
  174SAPS   H5R19790   5.291   6.900   3.318  0.6425 -0.6700  0.0806
  174SAPS   C2619791   5.116   6.981   3.399 -0.0073 -0.4195 -0.4292
  174SAPS   H6R19792   5.149   6.957   3.502 -0.0565 -1.8334 -0.7121
  174SAPS   C2719793   4.976   7.036   3.398 -0.2292 -0.7033 -0.0980
  174SAPS   H7R19794   4.914   6.972   3.464 -0.6557 -0.5821 -0.3763
  174SAPS   H7S19795   4.934   7.028   3.295  2.2661  1.0689 -1.3716
  174SAPS   C2819796   5.000   7.180   3.441  0.5842 -0.0268  0.1246
  174SAPS   H8R19797   5.028   7.240   3.354  0.4821 -0.2453 -0.0608
  174SAPS   C2919798   5.001   7.231   3.566 -0.4355  0.6827 -0.5913
  174SAPS   H9R19799   5.020   7.339   3.576 -1.5179  1.1191 -2.6007
  174SAPS  C21019800   4.961   7.149   3.689  0.2480 -0.3942 -0.0505
  174SAPS  H10R19801   5.053   7.091   3.714  1.9537  1.8510 -0.8051
  174SAPS  H10S19802   4.881   7.084   3.646 -0.5590  1.5283 -1.6025
  174SAPS  C21119803   4.904   7.235   3.796 -0.3946  0.0454  0.5181
  174SAPS  H11R19804   4.819   7.303   3.777  1.7527  2.6685 -0.2705
  174SAPS  C21219805   4.939   7.218   3.929 -0.7198  0.0530 -0.0107
  174SAPS  H12R19806   4.894   7.287   4.001 -0.1940 -0.9625  1.3285
  174SAPS  C21319807   5.052   7.132   3.988 -0.1697 -0.1339 -0.1962
  174SAPS  H13R19808   5.096   7.193   4.069 -1.1037 -0.1110  0.2985
  174SAPS  H13S19809   5.132   7.116   3.912 -1.1517 -0.8176 -1.1149
  174SAPS  C21419810   5.011   6.996   4.043 -0.6991  0.2422 -0.4526
  174SAPS  H14R19811   5.012   6.905   3.982 -3.2944 -0.4884  0.4605
  174SAPS  C21519812   4.950   6.970   4.160 -0.3521  0.8903  0.3659
  174SAPS  H15R19813   4.942   6.866   4.196 -1.9221  1.7327  2.6806
  174SAPS  C21619814   4.913   7.070   4.269  0.2293 -0.4177  0.3179
  174SAPS  H16R19815   4.803   7.085   4.271  0.1615 -0.9028  0.4771
  174SAPS  H16S19816   4.961   7.167   4.246  1.1758 -0.4056  2.1437
  174SAPS  C21719817   4.955   7.048   4.419 -0.8360  0.0360  0.6640
  174SAPS  H17R19818   4.931   7.138   4.479 -0.3963 -1.6274  3.5088
  174SAPS  H17S19819   5.065   7.030   4.423 -0.6611 -0.2438 -2.5383
  174SAPS  C21819820   4.874   6.932   4.479  0.3337 -0.3140  0.7104
  174SAPS  H18R19821   4.924   6.834   4.462  0.4312 -0.1228 -0.1377
  174SAPS  H18S19822   4.766   6.925   4.452  0.9650 -1.2210 -1.8414
  174SAPS  C21919823   4.860   6.957   4.627 -0.6647  0.4040  0.6252
  174SAPS  H19R19824   4.813   7.053   4.656 -1.4994  0.4302 -0.7106
  174SAPS  H19S19825   4.961   6.949   4.673 -0.8838  0.7564  1.1709
  174SAPS  C22019826   4.779   6.851   4.689  0.5070  0.3086 -0.4792
  174SAPS  H20R19827   4.676   6.853   4.647  0.1776  0.0174  0.3039
  174SAPS  H20S19828   4.774   6.869   4.799  0.3778  2.3828 -0.7757
  174SAPS  H20T19829   4.824   6.751   4.677 -2.2945 -1.2770  1.2178
  174SAPS   C3319830   4.615   6.307   3.203 -0.2761 -0.2637 -0.1819
  174SAPS   H3X19831   4.521   6.311   3.143 -0.0865  1.3185 -0.4283
  174SAPS   H3Y19832   4.639   6.415   3.203 -2.6422  0.3295 -0.6503
  174SAPS   C3419833   4.601   6.250   3.338 -0.1874 -0.0889 -0.0706
  174SAPS   H4X19834   4.593   6.139   3.335  2.9047 -0.4122  0.0664
  174SAPS   H4Y19835   4.502   6.285   3.374  0.0484 -1.0482  1.5698
  174SAPS   C3519836   4.721   6.279   3.431 -0.1438  0.0970  0.4521
  174SAPS   H5X19837   4.752   6.384   3.414 -0.2454  0.0055 -0.3158
  174SAPS   H5Y19838   4.810   6.216   3.410 -0.7295 -1.1721  1.6153
  174SAPS   C3619839   4.691   6.237   3.581 -0.1388 -0.8942  0.0033
  174SAPS   H6X19840   4.665   6.129   3.580  0.5368 -1.1949  3.2099
  174SAPS   H6Y19841   4.601   6.291   3.617  1.0214  1.1672 -0.0352
  174SAPS   C3719842   4.813   6.282   3.663 -0.8919  0.7168 -0.2235
  174SAPS   H7X19843   4.817   6.393   3.674 -1.1797  0.8349 -1.1854
  174SAPS   H7Y19844   4.909   6.265   3.609 -0.2730  0.9330  0.7677
  174SAPS   C3819845   4.825   6.217   3.798  0.7467 -0.6146 -0.0457
  174SAPS   H8X19846   4.810   6.107   3.798  2.5974 -0.8997 -0.3621
  174SAPS   H8Y19847   4.753   6.260   3.871 -0.0266 -2.0277  0.0442
  174SAPS   C3919848   4.968   6.234   3.853 -0.5672  0.2051 -0.4139
  174SAPS   H9X19849   5.039   6.214   3.769 -1.7307  1.2245 -1.6895
  174SAPS   H9Y19850   4.988   6.156   3.929 -1.5709  0.2356 -0.1152
  174SAPS  C31019851   5.008   6.372   3.908 -0.1087  0.1690 -0.3560
  174SAPS  H10X19852   4.943   6.437   3.846  2.6348  1.8644 -1.6632
  174SAPS  H10Y19853   5.113   6.403   3.890  0.1552  0.7466  1.9336
  174SAPS  C31119854   4.965   6.385   4.054  0.2368 -0.0527 -0.4167
  174SAPS  H11X19855   5.006   6.315   4.130  2.0029  1.3867  0.0171
  174SAPS  H11Y19856   4.855   6.367   4.052 -0.2382  2.5032 -0.6860
  174SAPS  C31219857   4.987   6.536   4.102 -0.5795 -0.1848 -0.4095
  174SAPS  H12X19858   4.919   6.598   4.039  1.2039  0.9981 -1.2287
  174SAPS  H12Y19859   5.092   6.562   4.079 -0.5388  3.2293  2.6505
  174SAPS  C31319860   4.966   6.558   4.253  0.5404  0.3910 -0.7303
  174SAPS  H13X19861   4.985   6.665   4.277 -1.1794  0.8275 -1.1513
  174SAPS  H13Y19862   5.032   6.500   4.320  1.4888  0.3826 -1.6502
  174SAPS  C31419863   4.819   6.527   4.292 -0.2139 -0.4285  0.3387
  174SAPS  H14X19864   4.800   6.424   4.253  4.5460 -0.9435 -1.2795
  174SAPS  H14Y19865   4.753   6.603   4.244 -0.4549 -2.0095 -2.0222
  174SAPS  C31519866   4.804   6.536   4.440  0.0609 -0.2240 -0.3112
  174SAPS  H15X19867   4.829   6.637   4.479 -0.6378 -0.1774  0.0237
  174SAPS  H15Y19868   4.885   6.468   4.476 -0.5373 -1.6110 -1.5092
  174SAPS  C31619869   4.665   6.489   4.487  0.6623  0.2597 -0.2846
  174SAPS  H16X19870   4.644   6.389   4.445 -0.1948  0.4807 -0.3928
  174SAPS  H16Y19871   4.596   6.559   4.435 -0.1799 -0.5974 -0.3456
  174SAPS  C31719872   4.640   6.500   4.639  0.2274 -0.1530  0.2844
  174SAPS  H17X19873   4.712   6.575   4.678 -1.3997  0.6078  1.9647
  174SAPS  H17Y19874   4.658   6.399   4.682  0.0720 -0.9150 -1.3526
  174SAPS  C31819875   4.497   6.545   4.682  0.1583  0.1426  0.0278
  174SAPS  H18X19876   4.429   6.462   4.653 -0.2121 -0.2608  1.8942
  174SAPS  H18Y19877   4.458   6.638   4.635  1.5164  0.7292  0.0129
  174SAPS  H18Z19878   4.488   6.541   4.793  0.5017 -3.6099  0.0529
  175SAPS     N19879   3.427   0.372   2.278  0.0009  0.2420 -0.8035
  175SAPS   HN119880   3.528   0.398   2.276 -0.0063  1.7614  4.3374
  175SAPS   HN219881   3.360   0.445   2.244 -2.2891 -0.3108  2.1017
  175SAPS   HN319882   3.392   0.355   2.375 -0.8642 -1.5659 -1.3890
  175SAPS   C1219883   3.390   0.255   2.197  0.0301  0.0488 -0.1395
  175SAPS  H12A19884   3.400   0.275   2.091 -3.2775 -0.0095 -0.5676
  175SAPS   C1319885   3.484   0.131   2.231 -0.3085  0.2504 -0.4267
  175SAPS  O13A19886   3.564   0.142   2.332 -0.2715 -0.3648  0.5896
  175SAPS  O13B19887   3.480   0.035   2.152 -0.2730  0.1919 -0.7911
  175SAPS   C1119888   3.248   0.213   2.228 -0.2453 -0.1819 -0.7299
  175SAPS  H11A19889   3.247   0.193   2.337 -0.3409  2.2851 -0.2123
  175SAPS  H11B19890   3.235   0.119   2.170  3.6303 -0.8485 -0.7687
  175SAPS     P19891   3.012   0.324   2.252  0.1666 -0.0756  0.1971
  175SAPS   O1319892   2.962   0.454   2.199  0.3015 -0.4804 -0.0423
  175SAPS   O1419893   2.919   0.209   2.226 -0.2123 -1.2140 -0.3687
  175SAPS   O1219894   3.154   0.313   2.191 -0.2121  0.0049  0.0775
  175SAPS   O1119895   3.031   0.336   2.410 -1.2059  0.3691 -0.2682
  175SAPS    C119896   2.955   0.267   2.511 -0.3823  0.5046 -0.4099
  175SAPS    HA19897   2.852   0.242   2.476  0.5917 -0.8456 -2.4697
  175SAPS    HB19898   3.003   0.176   2.551 -0.0902  0.5227 -0.7171
  175SAPS    C219899   2.918   0.350   2.641 -0.3354 -0.2784  0.0398
  175SAPS    HS19900   2.857   0.435   2.602 -0.3061  1.2599  3.0427
  175SAPS   O2119901   3.039   0.386   2.713 -0.2530  0.1244 -0.6194
  175SAPS   C2119902   3.032   0.502   2.786  0.0176  0.2420  0.2992
  175SAPS   O2219903   2.937   0.578   2.778 -0.1009  0.7271 -0.3121
  175SAPS   C2219904   3.155   0.518   2.879  0.4592 -0.6623 -0.3284
  175SAPS   H2R19905   3.154   0.438   2.957 -2.8133 -0.8071 -0.3812
  175SAPS   H2S19906   3.247   0.508   2.819  0.6787 -0.7377  0.0137
  175SAPS    C319907   2.842   0.260   2.736 -0.1047 -0.0586  0.9566
  175SAPS    HX19908   2.911   0.176   2.758  0.0035 -0.2888 -0.2040
  175SAPS    HY19909   2.765   0.210   2.673  0.5122  1.1973 -0.8814
  175SAPS   O3119910   2.795   0.322   2.849  0.3466 -0.2155 -0.4787
  175SAPS   C3119911   2.701   0.415   2.849 -0.0572  0.3826  0.0436
  175SAPS   O3219912   2.649   0.452   2.744  0.0027  0.0311  0.3211
  175SAPS   C3219913   2.678   0.466   2.985  0.2097  0.3317  0.6252
  175SAPS   H2X19914   2.730   0.392   3.049 -0.8193 -0.3705  0.6811
  175SAPS   H2Y19915   2.569   0.453   3.004  0.0666  2.4179  1.5063
  175SAPS   C2319916   3.166   0.656   2.950 -0.0050 -0.1079  0.1944
  175SAPS   H3R19917   3.073   0.699   2.994 -0.2314  0.3993 -0.7452
  175SAPS   H3S19918   3.193   0.729   2.871 -2.0324 -0.1573 -0.5861
  175SAPS   C2419919   3.274   0.650   3.061  0.3583 -0.0796  0.0401
  175SAPS   H4R19920   3.246   0.562   3.124 -0.3115 -0.3945 -0.6838
  175SAPS   H4S19921   3.269   0.731   3.138  0.0268 -0.6620  0.6460
  175SAPS   C2519922   3.409   0.646   3.001 -0.6540 -0.1698  0.4859
  175SAPS   H5R19923   3.416   0.554   2.941  1.1826 -0.6999  1.4236
  175SAPS   C2619924   3.510   0.739   3.014 -0.3676 -0.0708 -0.3250
  175SAPS   H6R19925   3.608   0.725   2.965  1.2028  5.3204  0.5709
  175SAPS   C2719926   3.512   0.851   3.112  0.6698  0.6203  0.9258
  175SAPS   H7R19927   3.423   0.848   3.179 -0.2944  1.0968 -0.3028
  175SAPS   H7S19928   3.524   0.951   3.064  0.8867 -0.0650 -0.4691
  175SAPS   C2819929   3.638   0.839   3.186  0.1557 -0.7339 -0.5200
  175SAPS   H8R19930   3.723   0.887   3.135 -1.1435  0.4755 -1.6285
  175SAPS   C2919931   3.659   0.771   3.297  0.1487 -0.6169 -0.6642
  175SAPS   H9R19932   3.756   0.791   3.344 -1.2761  2.5511  1.3035
  175SAPS  C21019933   3.558   0.689   3.372  0.1652  0.0224  0.1352
  175SAPS  H10R19934   3.616   0.612   3.429 -0.0419 -1.1675 -1.2179
  175SAPS  H10S19935   3.499   0.627   3.302  1.2071  0.1626 -0.9065
  175SAPS  C21119936   3.467   0.766   3.458  0.8240 -0.2896  0.1015
  175SAPS  H11R19937   3.429   0.855   3.406  1.3528  0.9326  1.7474
  175SAPS  C21219938   3.457   0.749   3.590 -0.9172  0.3407  0.3118
  175SAPS  H12R19939   3.395   0.820   3.646 -1.1498  1.2099 -1.0053
  175SAPS  C21319940   3.518   0.634   3.673 -0.4101  0.0329 -0.1935
  175SAPS  H13R19941   3.572   0.671   3.762 -0.1745 -0.1204 -0.2713
  175SAPS  H13S19942   3.600   0.574   3.627 -0.3838 -0.5905  0.6599
  175SAPS  C21419943   3.418   0.534   3.725  0.6259  0.4001 -0.1224
  175SAPS  H14R19944   3.414   0.440   3.669  0.5918  0.7160 -0.6583
  175SAPS  C21519945   3.329   0.547   3.826 -0.0171 -0.0847 -0.2503
  175SAPS  H15R19946   3.262   0.463   3.853  0.8055 -0.7044 -0.0868
  175SAPS  C21619947   3.315   0.668   3.918  0.4652  0.2090  0.3064
  175SAPS  H16R19948   3.211   0.703   3.936  0.0432 -0.4281 -0.8666
  175SAPS  H16S19949   3.376   0.751   3.875  0.3680  0.8973  1.4450
  175SAPS  C21719950   3.361   0.639   4.064  0.5177 -0.8181  0.0977
  175SAPS  H17R19951   3.457   0.583   4.059  1.4247  0.6707  0.2519
  175SAPS  H17S19952   3.289   0.573   4.116  1.4821 -1.0461  1.1704
  175SAPS  C21819953   3.390   0.763   4.147  0.1629  0.3657  0.0646
  175SAPS  H18R19954   3.324   0.839   4.101  1.1004  1.8346  1.0756
  175SAPS  H18S19955   3.498   0.792   4.149  0.3487 -0.2490 -0.6195
  175SAPS  C21919956   3.346   0.744   4.295  0.5242 -0.2218 -0.1650
  175SAPS  H19R19957   3.395   0.663   4.352 -1.2865  0.8395  3.1395
  175SAPS  H19S19958   3.241   0.707   4.288  1.0059 -1.6766  0.0306
  175SAPS  C22019959   3.349   0.872   4.373 -0.8451  0.1689  0.3557
  175SAPS  H20R19960   3.440   0.931   4.355  0.1610 -0.6443  2.4460
  175SAPS  H20S19961   3.337   0.876   4.484 -0.3132  1.9485  0.3651
  175SAPS  H20T19962   3.266   0.939   4.342 -0.5964  1.9561  3.1301
  175SAPS   C3319963   2.727   0.604   3.016 -0.2618 -0.2814  0.6419
  175SAPS   H3X19964   2.680   0.678   2.947  0.7886 -0.2448 -0.0569
  175SAPS   H3Y19965   2.836   0.606   2.992 -0.4179 -1.8292 -0.3239
  175SAPS   C3419966   2.700   0.653   3.161  0.6033 -1.1751 -0.7785
  175SAPS   H4X19967   2.589   0.663   3.164  0.5407 -1.4173 -2.0390
  175SAPS   H4Y19968   2.740   0.756   3.172  0.0055 -0.8223 -1.8127
  175SAPS   C3519969   2.736   0.579   3.287 -0.5193  0.2045  0.0982
  175SAPS   H5X19970   2.844   0.555   3.293 -0.7325 -0.5225  1.1900
  175SAPS   H5Y19971   2.695   0.477   3.271 -0.8464  0.4609 -0.7865
  175SAPS   C3619972   2.685   0.648   3.404 -0.1440 -0.2798 -0.4097
  175SAPS   H6X19973   2.575   0.661   3.391 -0.0349  0.3242 -0.8107
  175SAPS   H6Y19974   2.737   0.744   3.425 -0.1002 -0.4270  0.1651
  175SAPS   C3719975   2.704   0.570   3.544  0.5049  0.0626  0.0853
  175SAPS   H7X19976   2.813   0.547   3.537 -0.0397 -2.1255 -3.2474
  175SAPS   H7Y19977   2.669   0.465   3.545 -0.4084  0.3486 -0.7235
  175SAPS   C3819978   2.649   0.653   3.665 -0.5185 -0.6910 -0.0846
  175SAPS   H8X19979   2.540   0.668   3.647 -0.3623  0.5643 -0.0304
  175SAPS   H8Y19980   2.698   0.752   3.664 -0.7866 -0.5410 -1.9672
  175SAPS   C3919981   2.668   0.587   3.805  0.2235  0.3347  0.0620
  175SAPS   H9X19982   2.773   0.557   3.822  0.2030 -0.1403 -0.5973
  175SAPS   H9Y19983   2.617   0.489   3.794  2.0750 -0.5056 -1.8440
  175SAPS  C31019984   2.611   0.671   3.929  0.4711 -0.2250  0.0896
  175SAPS  H10X19985   2.519   0.724   3.896 -0.9326 -2.7145 -0.2611
  175SAPS  H10Y19986   2.693   0.735   3.968  0.8586  1.0835 -2.6455
  175SAPS  C31119987   2.556   0.579   4.039 -0.0175  0.6459  0.0327
  175SAPS  H11X19988   2.640   0.511   4.067 -0.0412  0.4913 -0.2669
  175SAPS  H11Y19989   2.473   0.514   4.004 -0.5491  1.1123  0.4268
  175SAPS  C31219990   2.507   0.656   4.156  0.0499 -0.7755  1.3078
  175SAPS  H12X19991   2.434   0.733   4.123 -2.0621 -2.6043  1.4509
  175SAPS  H12Y19992   2.594   0.699   4.211  0.9485 -1.7987  0.7201
  175SAPS  C31319993   2.415   0.579   4.256  0.5569  0.4224 -0.1078
  175SAPS  H13X19994   2.459   0.478   4.261 -1.3587 -0.6472 -2.5721
  175SAPS  H13Y19995   2.320   0.568   4.199 -0.9084  2.3101  1.8254
  175SAPS  C31419996   2.400   0.651   4.388  0.0689  0.6434  0.0753
  175SAPS  H14X19997   2.498   0.666   4.438  0.8870 -3.6950  0.1095
  175SAPS  H14Y19998   2.351   0.577   4.455  1.2802  1.4945  2.0027
  175SAPS  C31519999   2.322   0.782   4.388  0.0108  0.1149  0.6277
  175SAPS  H15X20000   2.248   0.760   4.309  2.0024  0.8018 -1.5398
  175SAPS  H15Y20001   2.394   0.854   4.342  0.4913 -0.1128  1.0113
  175SAPS  C31620002   2.284   0.823   4.525  0.5104 -0.0355 -0.0382
  175SAPS  H16X20003   2.375   0.845   4.586  0.1223  1.0519  0.1702
  175SAPS  H16Y20004   2.228   0.736   4.565 -2.7721  1.6661 -0.5724
  175SAPS  C31720005   2.203   0.949   4.514 -0.9019 -0.3545  0.6190
  175SAPS  H17X20006   2.264   1.040   4.493  1.4797 -2.1497 -0.7466
  175SAPS  H17Y20007   2.177   0.973   4.619 -1.0951  0.7550  0.3271
  175SAPS  C31820008   2.072   0.938   4.435  0.3388  0.2316 -0.4521
  175SAPS  H18X20009   2.008   0.853   4.468 -0.4240  0.7230 -0.6299
  175SAPS  H18Y20010   2.075   0.950   4.325 -0.3307 -0.4724 -0.5589
  175SAPS  H18Z20011   2.007   1.025   4.458  0.3973  0.3668 -0.7894
  176SAPS     N20012   2.541   5.287   2.200 -0.4207  0.4700 -0.4057
  176SAPS   HN120013   2.438   5.281   2.191 -0.4788  0.7388  0.0691
  176SAPS   HN220014   2.561   5.326   2.294 -2.3930 -0.2980  0.3762
  176SAPS   HN320015   2.583   5.341   2.121 -0.1917 -1.1612 -1.4471
  176SAPS   C1220016   2.598   5.147   2.204 -0.6134 -0.0730 -0.6554
  176SAPS  H12A20017   2.592   5.103   2.105  0.8270  1.3933 -1.4531
  176SAPS   C1320018   2.753   5.153   2.231  0.6842 -0.3009  0.2235
  176SAPS  O13A20019   2.804   5.259   2.270  0.3053  0.3962 -0.6286
  176SAPS  O13B20020   2.813   5.039   2.241 -0.2413 -0.2851  0.6938
  176SAPS   C1120021   2.530   5.057   2.310 -0.4930 -0.2456 -0.6242
  176SAPS  H11A20022   2.569   5.090   2.408 -3.4107  0.5180  0.3592
  176SAPS  H11B20023   2.555   4.953   2.278  0.1464 -0.3260  0.0926
  176SAPS     P20024   2.282   4.983   2.370  0.0077 -0.6628  0.4686
  176SAPS   O1320025   2.179   4.949   2.266  1.0004  0.2370 -0.2432
  176SAPS   O1420026   2.351   4.869   2.433 -0.5539 -0.2354 -0.1714
  176SAPS   O1220027   2.391   5.084   2.309 -0.5520  0.0241 -0.7525
  176SAPS   O1120028   2.220   5.081   2.474  0.3691 -0.1630 -0.4689
  176SAPS    C120029   2.290   5.157   2.567 -0.8999  0.3100  0.5347
  176SAPS    HA20030   2.368   5.098   2.621  0.0317  0.6458 -0.4076
  176SAPS    HB20031   2.344   5.242   2.521 -0.0166 -0.3545  0.3107
  176SAPS    C220032   2.190   5.228   2.668  0.0877 -0.2345  0.0259
  176SAPS    HS20033   2.259   5.271   2.744  0.3786 -1.5231  0.5189
  176SAPS   O2120034   2.098   5.137   2.731 -0.1157  0.2898  0.0030
  176SAPS   C2120035   2.140   5.047   2.824  0.2909  0.5108 -0.3851
  176SAPS   O2220036   2.241   5.055   2.890  0.0962  0.1664  0.6414
  176SAPS   C2220037   2.043   4.924   2.835  0.0394 -0.2322 -0.2126
  176SAPS   H2R20038   2.019   4.902   2.729  0.0388 -1.0505 -0.0428
  176SAPS   H2S20039   2.101   4.834   2.862  2.1678  0.6682 -1.5830
  176SAPS    C320040   2.109   5.331   2.596  0.1774 -0.0386  0.6825
  176SAPS    HX20041   2.040   5.296   2.516  1.8976  1.8496 -1.7650
  176SAPS    HY20042   2.178   5.391   2.534 -0.2848 -0.2494 -0.0524
  176SAPS   O3120043   2.050   5.422   2.691  0.4664  0.6202  0.5625
  176SAPS   C3120044   1.921   5.394   2.730 -0.1713  0.2398  0.0157
  176SAPS   O3220045   1.845   5.313   2.685 -0.0859 -0.1743  0.3505
  176SAPS   C3220046   1.881   5.487   2.848 -0.2854 -0.1982 -0.1429
  176SAPS   H2X20047   1.777   5.460   2.875  0.9282 -2.9508  2.2998
  176SAPS   H2Y20048   1.895   5.593   2.818  1.9004 -0.6407 -0.8922
  176SAPS   C2320049   1.922   4.949   2.924  0.4560  0.8021  0.6900
  176SAPS   H3R20050   1.846   4.883   2.877  1.9156 -0.2833 -0.2109
  176SAPS   H3S20051   1.888   5.054   2.911 -0.1291  0.5541  0.1672
  176SAPS   C2420052   1.935   4.902   3.067  0.0726  0.3092  0.4933
  176SAPS   H4R20053   1.962   4.794   3.060  4.0196  1.1965 -0.4808
  176SAPS   H4S20054   1.836   4.903   3.118  1.0916  0.7997  2.5355
  176SAPS   C2520055   2.042   4.960   3.157  0.0944 -0.4751  0.0612
  176SAPS   H5R20056   2.138   4.976   3.106 -1.4048  1.6450 -2.3486
  176SAPS   C2620057   2.043   4.957   3.295 -0.2098  0.1117  0.5860
  176SAPS   H6R20058   2.135   4.990   3.346 -0.9223 -0.9108  2.6576
  176SAPS   C2720059   1.933   4.911   3.384 -0.1328 -0.2054 -0.4998
  176SAPS   H7R20060   1.849   4.871   3.323  0.7403  0.7318 -2.3984
  176SAPS   H7S20061   1.897   4.999   3.441 -0.7514 -1.9879  2.0423
  176SAPS   C2820062   1.985   4.809   3.484  0.2720 -0.6926 -0.4655
  176SAPS   H8R20063   2.012   4.710   3.444 -0.3599 -1.0410 -0.0339
  176SAPS   C2920064   1.982   4.819   3.622 -0.3665  0.1228 -0.7349
  176SAPS   H9R20065   2.026   4.735   3.678 -1.4743 -0.4253 -0.6655
  176SAPS  C21020066   1.952   4.943   3.694  0.3416  0.6028 -0.3418
  176SAPS  H10R20067   1.901   4.913   3.788 -0.4411 -0.4792 -1.0870
  176SAPS  H10S20068   1.870   4.997   3.642  0.3970  1.4285  0.4078
  176SAPS  C21120069   2.062   5.045   3.710  0.3308 -0.3485  0.6439
  176SAPS  H11R20070   2.107   5.065   3.612 -0.1924 -0.0011  0.4720
  176SAPS  C21220071   2.123   5.100   3.817 -0.1244 -0.2118 -0.7048
  176SAPS  H12R20072   2.204   5.174   3.806 -0.4643  0.0650 -1.3849
  176SAPS  C21320073   2.077   5.071   3.959  0.0119 -0.3855  0.8047
  176SAPS  H13R20074   1.969   5.056   3.938 -0.2345  2.1846 -0.2336
  176SAPS  H13S20075   2.073   5.165   4.018 -0.8692 -1.6959  2.9374
  176SAPS  C21420076   2.138   4.951   4.032 -0.4739  0.2497 -1.0137
  176SAPS  H14R20077   2.145   4.857   3.976 -0.1900 -1.1901  1.2770
  176SAPS  C21520078   2.171   4.939   4.164 -0.0572 -0.3651 -0.6776
  176SAPS  H15R20079   2.209   4.840   4.193  2.7989  0.6667 -0.5729
  176SAPS  C21620080   2.179   5.050   4.266 -0.1587 -0.1953 -0.0294
  176SAPS  H16R20081   2.158   5.006   4.366  0.8544 -1.9726 -0.5475
  176SAPS  H16S20082   2.089   5.108   4.239  0.1902 -0.3364 -1.5775
  176SAPS  C21720083   2.298   5.140   4.290  0.1001 -0.1145  0.1898
  176SAPS  H17R20084   2.315   5.214   4.209 -2.9464  1.0058  0.4509
  176SAPS  H17S20085   2.391   5.078   4.289  1.3703  1.5090  3.2391
  176SAPS  C21820086   2.286   5.211   4.424  0.1992 -0.4354 -0.5996
  176SAPS  H18R20087   2.296   5.135   4.504 -0.2943  0.9334  0.8081
  176SAPS  H18S20088   2.193   5.269   4.442  2.2253  2.1818  2.2736
  176SAPS  C21920089   2.395   5.309   4.450  0.0069 -0.0888  0.0447
  176SAPS  H19R20090   2.385   5.392   4.377  2.7357 -1.7156 -2.4299
  176SAPS  H19S20091   2.497   5.267   4.438  0.4983  0.9475  0.5160
  176SAPS  C22020092   2.376   5.378   4.590  0.1659 -0.5342  0.8720
  176SAPS  H20R20093   2.297   5.454   4.577  1.7266  0.9521 -0.3237
  176SAPS  H20S20094   2.474   5.417   4.626 -0.3184  0.3301  1.2861
  176SAPS  H20T20095   2.337   5.310   4.669 -2.4326  0.6255  0.6842
  176SAPS   C3320096   1.970   5.456   2.972 -0.6129  0.0025  0.1799
  176SAPS   H3X20097   2.072   5.496   2.956 -1.2409  2.0322  0.8937
  176SAPS   H3Y20098   1.991   5.347   2.981  1.4254  0.4506  1.3877
  176SAPS   C3420099   1.929   5.522   3.103  0.0177 -0.1109  0.2171
  176SAPS   H4X20100   1.989   5.469   3.180 -1.8136 -2.3227  0.2366
  176SAPS   H4Y20101   1.823   5.503   3.130  0.2740 -0.0190  1.3444
  176SAPS   C3520102   1.959   5.678   3.106 -0.0293 -0.0799  0.0055
  176SAPS   H5X20103   1.887   5.735   3.042  0.9955 -1.2961 -2.3438
  176SAPS   H5Y20104   2.054   5.679   3.049 -0.0937 -1.2416 -0.1319
  176SAPS   C3620105   1.987   5.746   3.234 -0.7891  0.4636 -0.2287
  176SAPS   H6X20106   2.063   5.826   3.223 -0.2012  0.0677  0.8453
  176SAPS   H6Y20107   2.033   5.678   3.308  1.0349 -0.1131 -1.8083
  176SAPS   C3720108   1.853   5.817   3.274 -0.6451 -0.8452  0.3603
  176SAPS   H7X20109   1.774   5.742   3.295 -1.3951  0.3111  1.9156
  176SAPS   H7Y20110   1.821   5.886   3.193 -2.2426  0.2212  1.8263
  176SAPS   C3820111   1.871   5.898   3.403 -0.7536  0.2215  0.1685
  176SAPS   H8X20112   1.770   5.939   3.424 -0.7312  1.2797 -1.5800
  176SAPS   H8Y20113   1.954   5.971   3.400  1.3640 -2.0294  0.8215
  176SAPS   C3920114   1.907   5.817   3.522 -0.0860 -0.1089 -0.5636
  176SAPS   H9X20115   2.009   5.774   3.514  0.9796  1.8484  1.4045
  176SAPS   H9Y20116   1.837   5.732   3.534  2.6106 -2.6495 -1.7166
  176SAPS  C31020117   1.889   5.900   3.652  0.0905  0.5896 -0.5217
  176SAPS  H10X20118   1.811   5.976   3.633  1.1229  1.4010 -1.6458
  176SAPS  H10Y20119   1.980   5.961   3.670 -0.9927  1.3536  3.3125
  176SAPS  C31120120   1.846   5.826   3.781 -0.6597 -0.6239  0.4910
  176SAPS  H11X20121   1.932   5.758   3.797  1.0001  0.7171 -2.0501
  176SAPS  H11Y20122   1.754   5.767   3.759 -0.8179  0.6998 -2.9363
  176SAPS  C31220123   1.817   5.917   3.903 -0.1943 -0.0988  0.1763
  176SAPS  H12X20124   1.728   5.981   3.884 -0.1941  0.1445  0.9606
  176SAPS  H12Y20125   1.909   5.978   3.916 -0.0274 -0.3374  0.1183
  176SAPS  C31320126   1.791   5.831   4.030 -0.6655 -0.1640  1.0123
  176SAPS  H13X20127   1.875   5.758   4.029 -2.2734 -2.1142  0.0481
  176SAPS  H13Y20128   1.695   5.780   4.005 -1.1557  1.0340  0.3809
  176SAPS  C31420129   1.797   5.898   4.164 -0.0598 -0.0143 -0.4800
  176SAPS  H14X20130   1.731   5.987   4.174  0.5135  0.3248  0.3353
  176SAPS  H14Y20131   1.903   5.928   4.176  0.3930 -0.9841 -1.7884
  176SAPS  C31520132   1.754   5.793   4.268  0.2748 -0.6073  0.3939
  176SAPS  H15X20133   1.833   5.715   4.268 -0.7913 -1.7214 -0.4174
  176SAPS  H15Y20134   1.664   5.745   4.226 -0.5312  0.5748  0.7255
  176SAPS  C31620135   1.740   5.858   4.403 -0.3899 -0.7995  0.3217
  176SAPS  H16X20136   1.644   5.836   4.456  0.2892  0.8339  2.3621
  176SAPS  H16Y20137   1.758   5.967   4.404  2.1691 -1.0770 -2.6354
  176SAPS  C31720138   1.844   5.787   4.495 -0.3017  0.0119  0.2003
  176SAPS  H17X20139   1.939   5.814   4.443 -0.5782  0.4220 -0.1047
  176SAPS  H17Y20140   1.827   5.677   4.494  0.4123 -0.0990 -0.2909
  176SAPS  C31820141   1.832   5.856   4.633  0.0136  0.2369 -0.2808
  176SAPS  H18X20142   1.741   5.824   4.687  0.6443  0.7394  1.1115
  176SAPS  H18Y20143   1.831   5.967   4.634 -0.5435  0.2361  1.1374
  176SAPS  H18Z20144   1.918   5.816   4.691 -1.0904  1.2264  2.1676
  177SAPS     N20145   1.778   1.256   2.495 -0.3873 -0.5883  0.3781
  177SAPS   HN120146   1.812   1.261   2.594  0.9574 -0.7979 -0.0572
  177SAPS   HN220147   1.690   1.312   2.498 -1.5717 -2.3836  1.0906
  177SAPS   HN320148   1.756   1.158   2.468 -1.6700  0.2869 -2.1046
  177SAPS   C1220149   1.882   1.326   2.406  0.2730  0.1432 -0.0488
  177SAPS  H12A20150   1.831   1.333   2.312  3.9284  1.6091 -2.1497
  177SAPS   C1320151   1.927   1.472   2.430 -0.2550  0.4192  1.1743
  177SAPS  O13A20152   1.849   1.546   2.504  0.4307  0.3388 -0.3327
  177SAPS  O13B20153   2.005   1.529   2.350 -0.1311  0.1403  0.3151
  177SAPS   C1120154   2.006   1.228   2.386 -0.6558  0.3183 -0.3928
  177SAPS  H11A20155   2.068   1.240   2.478  1.1892 -0.0965 -1.5310
  177SAPS  H11B20156   2.066   1.264   2.300 -0.8609  0.6476 -0.3995
  177SAPS     P20157   2.054   0.972   2.397  0.0809  0.0608  0.3109
  177SAPS   O1320158   1.975   0.848   2.392  0.2116 -0.3529  0.4786
  177SAPS   O1420159   2.180   0.975   2.316  0.1805 -0.2895  0.4206
  177SAPS   O1220160   1.958   1.093   2.355 -0.7804  0.7140 -0.0293
  177SAPS   O1120161   2.088   1.017   2.548 -0.0686  0.5267 -0.0489
  177SAPS    C120162   2.001   0.990   2.659  0.0332  0.1004  1.4155
  177SAPS    HA20163   1.900   1.027   2.632  0.8493 -0.0807 -2.6299
  177SAPS    HB20164   1.994   0.883   2.687 -1.0146 -0.4429 -0.6904
  177SAPS    C220165   2.042   1.064   2.790  0.2251  0.4893  0.2096
  177SAPS    HS20166   1.956   1.079   2.858  1.2384  1.0337  1.4195
  177SAPS   O2120167   2.097   1.191   2.750  0.2705  0.5559 -0.4257
  177SAPS   C2120168   2.010   1.292   2.751 -0.9218  1.4146  0.1686
  177SAPS   O2220169   1.888   1.285   2.740 -1.4125 -0.3148  0.0870
  177SAPS   C2220170   2.084   1.425   2.747  0.2541  0.2092 -0.8411
  177SAPS   H2R20171   2.121   1.432   2.643  0.2330 -0.9554 -0.9448
  177SAPS   H2S20172   2.012   1.506   2.771  0.3092  0.1299 -0.4051
  177SAPS    C320173   2.159   0.992   2.866 -0.1333 -0.2345  0.4129
  177SAPS    HX20174   2.248   1.007   2.801 -0.2596 -2.1732 -0.2720
  177SAPS    HY20175   2.134   0.884   2.856 -1.9991  0.3478 -1.8214
  177SAPS   O3120176   2.184   1.038   3.004 -0.3176  0.1611  0.1962
  177SAPS   C3120177   2.295   0.998   3.057 -0.1829  0.3700  0.2896
  177SAPS   O3220178   2.379   0.934   2.996  0.3513  0.2260  0.2217
  177SAPS   C3220179   2.299   1.023   3.206  0.3297  0.0201  0.4213
  177SAPS   H2X20180   2.216   0.971   3.259 -0.0382  0.8256  0.6565
  177SAPS   H2Y20181   2.291   1.133   3.217  0.3074 -0.1312  2.0635
  177SAPS   C2320182   2.208   1.434   2.843 -0.7787  0.3439 -0.1029
  177SAPS   H3R20183   2.293   1.376   2.799  0.9622 -0.2208  3.5971
  177SAPS   H3S20184   2.182   1.384   2.938 -2.1556 -0.0948 -0.6889
  177SAPS   C2420185   2.253   1.578   2.879 -0.2492  0.1688  0.8074
  177SAPS   H4R20186   2.265   1.644   2.790 -2.0320 -1.9967 -1.1654
  177SAPS   H4S20187   2.357   1.569   2.916 -0.2798 -2.6830  0.4244
  177SAPS   C2520188   2.163   1.658   2.974  0.2595  0.7660  0.2163
  177SAPS   H5R20189   2.102   1.736   2.926  0.3996  0.9140  0.2769
  177SAPS   C2620190   2.158   1.642   3.113  0.3268 -0.1403  0.0458
  177SAPS   H6R20191   2.091   1.705   3.175  0.7288 -0.0646  0.4121
  177SAPS   C2720192   2.251   1.538   3.186  0.3774  0.1832 -0.4236
  177SAPS   H7R20193   2.242   1.436   3.144  0.5924 -1.0683  2.3929
  177SAPS   H7S20194   2.204   1.532   3.286  1.1389  2.9264  0.2020
  177SAPS   C2820195   2.393   1.583   3.194 -0.3390 -0.3516 -0.3680
  177SAPS   H8R20196   2.427   1.662   3.125 -1.0595  0.5318  0.2533
  177SAPS   C2920197   2.476   1.561   3.296  0.2227  0.0261  0.4341
  177SAPS   H9R20198   2.578   1.601   3.292  0.3556 -0.4099 -0.8863
  177SAPS  C21020199   2.451   1.468   3.415 -0.3138  0.1430  0.7043
  177SAPS  H10R20200   2.398   1.378   3.377  1.2639 -0.4879 -0.0842
  177SAPS  H10S20201   2.387   1.525   3.485  0.8901 -0.6262  2.5122
  177SAPS  C21120202   2.585   1.414   3.476  0.0655 -0.4672 -0.0092
  177SAPS  H11R20203   2.649   1.350   3.415  0.1797  0.9433 -1.4282
  177SAPS  C21220204   2.622   1.413   3.604 -0.0371  0.6229 -0.4491
  177SAPS  H12R20205   2.710   1.356   3.636 -0.4721  0.9848  1.5398
  177SAPS  C21320206   2.549   1.472   3.723 -0.0624 -0.6289  1.2116
  177SAPS  H13R20207   2.531   1.389   3.794  1.8030 -0.7447  1.5991
  177SAPS  H13S20208   2.449   1.502   3.687  0.1116 -2.4771 -1.1014
  177SAPS  C21420209   2.616   1.592   3.786 -0.4063  0.6364 -0.6414
  177SAPS  H14R20210   2.688   1.644   3.720 -1.5714  1.7914 -1.0523
  177SAPS  C21520211   2.582   1.643   3.911 -0.2373 -0.5936  0.5008
  177SAPS  H15R20212   2.645   1.722   3.953 -0.7723 -0.7954  1.7248
  177SAPS  C21620213   2.486   1.572   4.010 -0.4345 -0.9653  0.6969
  177SAPS  H16R20214   2.550   1.570   4.101 -0.3422  1.4828  0.7531
  177SAPS  H16S20215   2.450   1.469   3.990 -0.5931 -0.4498 -2.0138
  177SAPS  C21720216   2.370   1.662   4.025  0.4634  0.4165 -0.0736
  177SAPS  H17R20217   2.295   1.641   3.946 -0.7181 -2.2021  1.5867
  177SAPS  H17S20218   2.388   1.771   4.019 -1.1294  0.6197 -2.8633
  177SAPS  C21820219   2.286   1.642   4.159  0.8280  0.5528 -0.0232
  177SAPS  H18R20220   2.346   1.659   4.251  0.9051 -0.3143  0.0918
  177SAPS  H18S20221   2.256   1.535   4.159 -2.5366  1.3551  1.9316
  177SAPS  C21920222   2.161   1.735   4.164 -0.2816  0.0822  0.2934
  177SAPS  H19R20223   2.093   1.713   4.079 -0.3303 -0.7003  0.5274
  177SAPS  H19S20224   2.178   1.845   4.168 -1.7859  0.3268  0.3416
  177SAPS  C22020225   2.085   1.695   4.287  0.1847  0.0132 -0.1194
  177SAPS  H20R20226   2.010   1.775   4.308  1.1812  0.3905  2.4256
  177SAPS  H20S20227   2.146   1.704   4.380 -0.9242 -2.0938  0.8908
  177SAPS  H20T20228   2.029   1.599   4.289  3.0352 -1.7390  0.1773
  177SAPS   C3320229   2.434   0.981   3.268  0.1675  0.6656  0.3315
  177SAPS   H3X20230   2.526   0.999   3.207  1.1245 -0.9938  1.2144
  177SAPS   H3Y20231   2.418   0.871   3.279  0.6296  0.5803  0.1801
  177SAPS   C3420232   2.454   1.034   3.406  0.2513 -0.8230  0.0024
  177SAPS   H4X20233   2.469   1.144   3.409 -0.8606 -0.6320  3.8058
  177SAPS   H4Y20234   2.549   0.995   3.448  1.9496  2.6783 -0.1487
  177SAPS   C3520235   2.344   1.008   3.508 -0.1718  0.1066 -0.1450
  177SAPS   H5X20236   2.312   0.901   3.507 -2.0356  0.4741  3.5046
  177SAPS   H5Y20237   2.247   1.035   3.460 -0.5326  1.5561  1.3216
  177SAPS   C3620238   2.376   1.063   3.645 -0.1510 -0.4011  0.2643
  177SAPS   H6X20239   2.386   1.173   3.632  3.4748 -0.6093  0.0939
  177SAPS   H6Y20240   2.466   1.016   3.691 -1.2600 -1.0128  1.9171
  177SAPS   C3720241   2.255   1.034   3.741  0.0319  0.4973  0.3124
  177SAPS   H7X20242   2.232   0.926   3.745 -1.9251  0.8812  0.7008
  177SAPS   H7Y20243   2.159   1.076   3.704 -0.9841 -1.1459  0.9772
  177SAPS   C3820244   2.280   1.094   3.883  0.0719 -0.1063  0.8298
  177SAPS   H8X20245   2.187   1.109   3.942  0.5945  1.7702  1.2382
  177SAPS   H8Y20246   2.320   1.197   3.874 -0.0006  0.0006  1.6587
  177SAPS   C3920247   2.364   1.015   3.973 -1.1152 -0.2532  0.3781
  177SAPS   H9X20248   2.459   0.993   3.920 -0.3602  3.4133 -0.0790
  177SAPS   H9Y20249   2.322   0.913   3.988 -2.5288  0.4868  1.8307
  177SAPS  C31020250   2.398   1.063   4.114  0.3520 -0.2654  0.3441
  177SAPS  H10X20251   2.488   1.002   4.140 -0.3978 -1.3301  0.4837
  177SAPS  H10Y20252   2.320   1.033   4.188  2.2638 -1.4719  1.9936
  177SAPS  C31120253   2.447   1.210   4.144 -0.2629 -0.0288  0.8816
  177SAPS  H11X20254   2.358   1.273   4.123  0.2643  0.1475 -0.9295
  177SAPS  H11Y20255   2.528   1.244   4.077 -1.7272  1.2695 -0.3071
  177SAPS  C31220256   2.492   1.218   4.287 -0.7442  0.3443  0.3158
  177SAPS  H12X20257   2.599   1.188   4.294 -0.8938 -0.0053  1.2007
  177SAPS  H12Y20258   2.422   1.162   4.353 -1.2393  0.8328  0.2092
  177SAPS  C31320259   2.501   1.363   4.338 -0.0154 -0.1795 -0.3036
  177SAPS  H13X20260   2.397   1.400   4.343 -0.0087  0.0249 -1.4137
  177SAPS  H13Y20261   2.544   1.430   4.261 -1.8920 -1.9253 -3.0684
  177SAPS  C31420262   2.569   1.393   4.473  0.0704 -0.0831  0.1401
  177SAPS  H14X20263   2.667   1.340   4.462  0.1273  0.5371 -3.4947
  177SAPS  H14Y20264   2.499   1.341   4.541 -1.3619  0.8146 -0.6133
  177SAPS  C31520265   2.581   1.544   4.513  0.0227 -0.6369 -0.7739
  177SAPS  H15X20266   2.482   1.593   4.506 -0.6220 -2.0401 -1.9583
  177SAPS  H15Y20267   2.652   1.595   4.445 -1.0401 -0.0931 -1.4983
  177SAPS  C31620268   2.628   1.574   4.662 -0.2324 -0.0054 -0.8925
  177SAPS  H16X20269   2.626   1.685   4.674  0.5697 -0.1553  0.8777
  177SAPS  H16Y20270   2.730   1.532   4.675  0.6834  2.2470 -0.1908
  177SAPS  C31720271   2.537   1.521   4.774 -0.7562 -0.8588  0.1167
  177SAPS  H17X20272   2.600   1.554   4.859 -0.9602  0.6614 -0.2896
  177SAPS  H17Y20273   2.533   1.410   4.771 -0.8453 -0.8411 -0.4796
  177SAPS  C31820274   2.390   1.568   4.782 -0.3919  0.3940  0.3032
  177SAPS  H18X20275   2.343   1.521   4.870 -0.2381 -0.8565 -0.2533
  177SAPS  H18Y20276   2.335   1.538   4.690  1.5902 -3.2491  0.1289
  177SAPS  H18Z20277   2.378   1.676   4.805  0.9379 -0.0422  3.6337
  178SAPS     N20278   0.220   3.124   2.465 -0.0198 -0.0311 -0.2121
  178SAPS   HN120279   0.270   3.064   2.533 -0.9117  1.2177  1.6441
  178SAPS   HN220280   0.196   3.072   2.378 -0.4274 -1.3953  0.6941
  178SAPS   HN320281   0.277   3.208   2.445 -0.4466  0.5328  0.8374
  178SAPS   C1220282   0.094   3.166   2.530 -0.4512 -0.1969  0.1655
  178SAPS  H12A20283   0.027   3.218   2.463 -1.7218  0.9777  2.2250
  178SAPS   C1320284   0.015   3.045   2.580  0.3848 -0.7051 -0.0192
  178SAPS  O13A20285   0.054   2.930   2.566 -0.2101 -0.0223  0.5197
  178SAPS  O13B20286  -0.091   3.076   2.650  0.2959  0.0956  0.1637
  178SAPS   C1120287   0.118   3.278   2.639 -0.4486  0.0796 -0.4181
  178SAPS  H11A20288   0.180   3.230   2.718 -1.3242 -1.4362 -0.6009
  178SAPS  H11B20289   0.019   3.309   2.677  0.2653  1.2177  0.5714
  178SAPS     P20290   0.158   3.530   2.629  0.2751 -0.1869 -0.2190
  178SAPS   O1320291   0.240   3.610   2.541 -0.0300 -0.3549  0.2351
  178SAPS   O1420292   0.017   3.564   2.638 -0.3159  0.1543  0.0811
  178SAPS   O1220293   0.180   3.390   2.581  0.0375  0.5493  0.2620
  178SAPS   O1120294   0.229   3.544   2.771  0.4641  0.0119 -0.2126
  178SAPS    C120295   0.172   3.648   2.856 -0.0714 -0.6775 -0.0097
  178SAPS    HA20296   0.141   3.738   2.799 -0.3124 -0.1167  0.9666
  178SAPS    HB20297   0.085   3.610   2.914 -1.5218  2.6065  0.2201
  178SAPS    C220298   0.281   3.699   2.961  0.2437  0.8387 -0.2317
  178SAPS    HS20299   0.376   3.705   2.905  0.4887  0.1305  0.0960
  178SAPS   O2120300   0.295   3.608   3.077  0.1698  0.1201 -0.2057
  178SAPS   C2120301   0.418   3.557   3.094  0.0310 -0.0365  0.3910
  178SAPS   O2220302   0.517   3.583   3.031 -0.1510 -0.1562  0.2778
  178SAPS   C2220303   0.423   3.482   3.236  0.5999 -0.2758  0.3626
  178SAPS   H2R20304   0.385   3.378   3.227  1.7919 -0.7216  0.2063
  178SAPS   H2S20305   0.529   3.478   3.268  1.2322 -0.5844 -1.6093
  178SAPS    C320306   0.231   3.837   3.014  0.5574 -0.1259  1.1560
  178SAPS    HX20307   0.229   3.905   2.926 -0.7541  0.1588  1.3848
  178SAPS    HY20308   0.295   3.880   3.094 -1.4083 -0.1717  2.8311
  178SAPS   O3120309   0.102   3.829   3.065  0.1557 -0.3150 -0.1903
  178SAPS   C3120310   0.060   3.942   3.124 -0.4340  0.2321  0.4306
  178SAPS   O3220311   0.118   4.050   3.128  0.4137 -0.9829  0.5494
  178SAPS   C3220312  -0.060   3.915   3.206 -0.0898  1.0241 -0.2794
  178SAPS   H2X20313  -0.123   3.841   3.151 -1.3261  2.9676 -1.5915
  178SAPS   H2Y20314  -0.110   4.013   3.215  1.4318  1.7795  0.2637
  178SAPS   C2320315   0.355   3.556   3.354 -0.2390 -0.7799  0.4200
  178SAPS   H3R20316   0.376   3.489   3.440  3.0083  0.1392  0.4467
  178SAPS   H3S20317   0.247   3.557   3.327 -0.7057  0.5282  2.1205
  178SAPS   C2420318   0.404   3.696   3.393  0.0000  0.6893 -0.1433
  178SAPS   H4R20319   0.327   3.722   3.469  0.5083 -0.8369  0.9415
  178SAPS   H4S20320   0.393   3.772   3.313  2.0479  1.2915  0.0773
  178SAPS   C2520321   0.545   3.713   3.442  0.6027 -0.2798  0.5202
  178SAPS   H5R20322   0.621   3.720   3.363 -1.1650 -0.8124 -1.3309
  178SAPS   C2620323   0.580   3.701   3.571  0.0290  0.3545 -0.0399
  178SAPS   H6R20324   0.689   3.696   3.580  0.4702  4.0018 -1.6300
  178SAPS   C2720325   0.496   3.681   3.699 -0.6140  0.7836  0.1042
  178SAPS   H7R20326   0.426   3.599   3.675 -0.9999  1.2285 -0.3024
  178SAPS   H7S20327   0.437   3.773   3.720  2.3006  2.3991  1.9743
  178SAPS   C2820328   0.566   3.635   3.819  0.7883  0.7540 -0.7543
  178SAPS   H8R20329   0.674   3.624   3.800  0.6757 -0.0090 -0.9872
  178SAPS   C2920330   0.523   3.605   3.942  0.2113  0.1866  0.2655
  178SAPS   H9R20331   0.589   3.565   4.021  0.6885 -0.2262 -0.3350
  178SAPS  C21020332   0.381   3.628   3.989  0.4880  0.2423  0.0830
  178SAPS  H10R20333   0.323   3.694   3.922  0.7880  0.9023  0.4658
  178SAPS  H10S20334   0.383   3.685   4.085 -0.6747 -0.8283  0.7788
  178SAPS  C21120335   0.313   3.491   3.996  0.1841  0.1987  1.1464
  178SAPS  H11R20336   0.332   3.429   3.907  1.6271  4.2852 -1.7018
  178SAPS  C21220337   0.250   3.445   4.108  0.0198  0.1238 -0.1868
  178SAPS  H12R20338   0.198   3.348   4.105 -1.8651  0.6573  5.2350
  178SAPS  C21320339   0.264   3.504   4.249  0.1991 -0.1103 -1.2973
  178SAPS  H13R20340   0.273   3.615   4.245  0.7816 -0.0357  0.8478
  178SAPS  H13S20341   0.360   3.470   4.293 -0.9622 -1.7502  0.0912
  178SAPS  C21420342   0.153   3.472   4.344 -0.2003  0.2555 -0.3388
  178SAPS  H14R20343   0.126   3.365   4.350  1.9844 -0.4511 -1.8141
  178SAPS  C21520344   0.095   3.551   4.436  0.2451 -0.0039 -0.7812
  178SAPS  H15R20345   0.001   3.520   4.485  0.2487  2.0343  0.6506
  178SAPS  C21620346   0.128   3.694   4.453 -0.2299  0.0828 -0.5905
  178SAPS  H16R20347   0.043   3.754   4.413 -1.8706 -1.9836 -0.3537
  178SAPS  H16S20348   0.223   3.725   4.404  0.4060  0.5910  0.8750
  178SAPS  C21720349   0.144   3.737   4.608 -0.1556 -0.0940  0.7954
  178SAPS  H17R20350   0.065   3.685   4.666 -1.2443 -1.4494 -1.7455
  178SAPS  H17S20351   0.138   3.847   4.620  0.2301 -0.1659  1.7335
  178SAPS  C21820352   0.286   3.703   4.660 -0.0290 -0.2920 -0.7028
  178SAPS  H18R20353   0.360   3.776   4.622  0.5849  0.6578  2.0571
  178SAPS  H18S20354   0.305   3.594   4.650 -2.0103 -0.7830  0.3781
  178SAPS  C21920355   0.285   3.734   4.816  0.9223 -0.1139 -0.4368
  178SAPS  H19R20356   0.213   3.665   4.865 -0.9265  0.5242 -2.0951
  178SAPS  H19S20357   0.251   3.839   4.814 -0.7784 -0.6274 -2.0516
  178SAPS  C22020358   0.415   3.705   4.887  0.0430 -0.3138  0.0538
  178SAPS  H20R20359   0.407   3.717   4.997  2.5520 -1.7950  0.4693
  178SAPS  H20S20360   0.491   3.777   4.849 -0.2706 -0.4631 -0.8856
  178SAPS  H20T20361   0.458   3.603   4.875  0.8963 -0.0490  0.7102
  178SAPS   C3320362  -0.013   3.874   3.347  0.4401  0.1079  0.1316
  178SAPS   H3X20363   0.014   3.965   3.405  0.2834  0.2985 -0.0929
  178SAPS   H3Y20364   0.076   3.808   3.340 -0.8931 -1.7238 -0.8388
  178SAPS   C3420365  -0.122   3.800   3.421 -0.0022  1.4728 -0.2635
  178SAPS   H4X20366  -0.132   3.701   3.370  0.4652  0.5549  1.3563
  178SAPS   H4Y20367  -0.209   3.868   3.412 -0.1900  1.0995 -1.3947
  178SAPS   C3520368  -0.104   3.788   3.574 -0.1757  0.0331  0.6684
  178SAPS   H5X20369  -0.191   3.728   3.607  0.2177 -0.3407  1.0484
  178SAPS   H5Y20370  -0.117   3.890   3.616  3.1710  0.3637  1.2159
  178SAPS   C3620371   0.019   3.713   3.625  0.7521  1.0967 -0.0382
  178SAPS   H6X20372   0.117   3.761   3.605  0.0172  3.5828  1.8309
  178SAPS   H6Y20373   0.007   3.609   3.587  0.6925  1.7862 -2.0235
  178SAPS   C3720374   0.026   3.701   3.777 -1.1322  0.3728 -0.2364
  178SAPS   H7X20375   0.100   3.621   3.799 -0.9598  0.8029  0.7812
  178SAPS   H7Y20376  -0.071   3.667   3.821 -0.4914  0.9112  1.6584
  178SAPS   C3820377   0.073   3.834   3.855  1.0103  0.0470  0.0532
  178SAPS   H8X20378  -0.003   3.909   3.822  0.1415 -0.4114  0.9590
  178SAPS   H8Y20379   0.173   3.870   3.823  0.0050  1.2267 -2.0147
  178SAPS   C3920380   0.041   3.830   4.003  0.5370  0.3476 -0.0170
  178SAPS   H9X20381   0.111   3.758   4.050 -0.2649 -0.8045 -0.5442
  178SAPS   H9Y20382  -0.061   3.790   4.014  0.7122 -0.1994 -0.3508
  178SAPS  C31020383   0.042   3.971   4.057 -0.1317  0.0964  0.3411
  178SAPS  H10X20384  -0.052   4.024   4.031 -1.3333 -1.5528  1.0784
  178SAPS  H10Y20385   0.128   4.037   4.032  0.5667 -0.4370  1.2623
  178SAPS  C31120386   0.054   3.968   4.212  0.5732 -0.0224  0.5169
  178SAPS  H11X20387   0.158   3.936   4.233  1.2804  0.1543 -2.3042
  178SAPS  H11Y20388  -0.019   3.893   4.251  0.7899 -0.0912  0.7938
  178SAPS  C31220389   0.034   4.101   4.278  0.0991  0.0799 -0.4936
  178SAPS  H12X20390  -0.067   4.144   4.272  1.2544  3.0247 -0.2748
  178SAPS  H12Y20391   0.082   4.170   4.206  1.3330 -0.5397 -0.3012
  178SAPS  C31320392   0.104   4.109   4.415  0.3362 -0.3240 -0.1817
  178SAPS  H13X20393   0.212   4.085   4.404  1.4616  3.9721 -0.5530
  178SAPS  H13Y20394   0.058   4.042   4.490 -2.9057  2.0379  0.1537
  178SAPS  C31420395   0.082   4.251   4.483  0.4060  0.6578  0.5374
  178SAPS  H14X20396  -0.028   4.272   4.484 -0.3804 -2.8213 -0.0884
  178SAPS  H14Y20397   0.140   4.327   4.426  0.0078  1.0677  0.6606
  178SAPS  C31520398   0.123   4.242   4.629 -0.4411 -0.2269  0.0508
  178SAPS  H15X20399   0.225   4.198   4.631 -0.2300  0.2851  0.9973
  178SAPS  H15Y20400   0.059   4.175   4.690 -1.0133 -0.1184 -0.4209
  178SAPS  C31620401   0.106   4.381   4.696 -0.8619 -0.1323 -0.1291
  178SAPS  H16X20402   0.127   4.366   4.805 -0.1039  1.4666 -0.0237
  178SAPS  H16Y20403   0.006   4.422   4.674  1.0460  3.8038 -2.6278
  178SAPS  C31720404   0.227   4.466   4.641  0.1762  0.3062 -0.7989
  178SAPS  H17X20405   0.200   4.499   4.539  1.5768  1.4762 -0.8184
  178SAPS  H17Y20406   0.314   4.397   4.638 -0.2178 -0.1735 -1.4601
  178SAPS  C31820407   0.252   4.584   4.741 -0.0905 -0.5972 -0.1987
  178SAPS  H18X20408   0.299   4.663   4.678  0.1601 -0.5701  0.0231
  178SAPS  H18Y20409   0.312   4.553   4.828 -0.3186  1.0883  0.6009
  178SAPS  H18Z20410   0.161   4.631   4.785  0.9844  0.7501  0.6379
  179SAPS     N20411   4.469   5.626   2.452  0.3096  0.6342  0.2535
  179SAPS   HN120412   4.406   5.581   2.522 -0.4012  2.9026  1.1595
  179SAPS   HN220413   4.560   5.587   2.484  0.4150  0.1472 -0.6057
  179SAPS   HN320414   4.466   5.726   2.479 -0.9239  0.5044  0.6312
  179SAPS   C1220415   4.430   5.598   2.307 -0.3643  0.5739 -0.4728
  179SAPS  H12A20416   4.506   5.650   2.249  0.5701  2.2988  2.1280
  179SAPS   C1320417   4.429   5.449   2.261 -1.1935  0.2994 -0.6184
  179SAPS  O13A20418   4.475   5.366   2.342 -0.7391 -0.9152  0.3817
  179SAPS  O13B20419   4.418   5.417   2.142  0.4021  0.3599 -0.0890
  179SAPS   C1120420   4.289   5.663   2.283  0.0912  0.2595 -0.2542
  179SAPS  H11A20421   4.254   5.646   2.179  0.7545 -0.5517 -0.3573
  179SAPS  H11B20422   4.286   5.771   2.310 -4.8274  0.0727  0.8738
  179SAPS     P20423   4.044   5.627   2.377 -0.1325  0.0692 -0.2479
  179SAPS   O1320424   4.023   5.726   2.272 -0.0799 -0.7245  0.4794
  179SAPS   O1420425   3.972   5.498   2.367 -0.5561  0.3579 -0.0373
  179SAPS   O1220426   4.201   5.600   2.379  0.4233  0.2613 -0.3929
  179SAPS   O1120427   4.018   5.697   2.511  0.4859  0.0708  0.7409
  179SAPS    C120428   4.122   5.745   2.597 -0.2283  0.9901  0.3888
  179SAPS    HA20429   4.195   5.663   2.616 -0.5527  0.4682 -0.5144
  179SAPS    HB20430   4.177   5.826   2.544 -0.7602  2.0518  1.4153
  179SAPS    C220431   4.070   5.793   2.736  0.3032 -0.5314 -0.0193
  179SAPS    HS20432   4.144   5.843   2.801 -0.9859  0.9753  0.3510
  179SAPS   O2120433   3.995   5.697   2.815  0.5399 -0.2222 -0.2659
  179SAPS   C2120434   4.077   5.603   2.866  0.6176 -0.1871  0.2093
  179SAPS   O2220435   4.198   5.601   2.856 -0.2520  0.5448  0.1328
  179SAPS   C2220436   3.988   5.500   2.940  0.1464 -0.7793  0.9394
  179SAPS   H2R20437   3.903   5.465   2.879 -2.3928 -1.1026  4.4028
  179SAPS   H2S20438   4.050   5.413   2.969 -0.7091 -1.2986  1.2386
  179SAPS    C320439   3.966   5.908   2.698  0.3971  0.1898 -0.8024
  179SAPS    HX20440   3.887   5.862   2.633 -0.2450 -1.5226  1.0800
  179SAPS    HY20441   4.032   5.972   2.636 -0.4359 -0.5161 -2.4954
  179SAPS   O3120442   3.911   5.984   2.812  0.3717  0.5907 -0.2920
  179SAPS   C3120443   3.789   5.942   2.858 -0.8753  0.4903  0.0653
  179SAPS   O3220444   3.726   5.845   2.812 -0.2102 -0.1273 -0.2002
  179SAPS   C3220445   3.737   6.010   2.986  0.5062  0.1796  0.3979
  179SAPS   H2X20446   3.665   6.086   2.947  1.4301 -0.9533 -4.1382
  179SAPS   H2Y20447   3.813   6.073   3.037  1.9895  0.9768 -2.5449
  179SAPS   C2320448   3.928   5.553   3.067 -0.6245  0.4946  0.8479
  179SAPS   H3R20449   3.857   5.478   3.107 -1.2697  0.5918 -0.1002
  179SAPS   H3S20450   3.865   5.644   3.054  1.4977  1.7859 -1.1761
  179SAPS   C2420451   4.032   5.568   3.181 -0.4702 -0.1660  0.4791
  179SAPS   H4R20452   4.110   5.644   3.158  1.6148 -1.8029  1.7708
  179SAPS   H4S20453   4.088   5.472   3.178 -2.1028 -1.1755  0.8217
  179SAPS   C2520454   3.959   5.590   3.311  0.6224  0.1506 -0.7827
  179SAPS   H5R20455   3.900   5.683   3.313  0.5598  0.1078  0.7067
  179SAPS   C2620456   3.956   5.512   3.422  0.2123  0.3332  0.2187
  179SAPS   H6R20457   3.884   5.541   3.501 -0.4919 -1.7947  0.4379
  179SAPS   C2720458   4.037   5.385   3.443 -0.1295  0.0177 -0.0180
  179SAPS   H7R20459   4.064   5.344   3.343  2.0313  0.2638  0.4023
  179SAPS   H7S20460   3.985   5.297   3.487 -1.7168  0.0745 -1.6950
  179SAPS   C2820461   4.165   5.416   3.514 -0.0188 -0.2499  0.1496
  179SAPS   H8R20462   4.254   5.403   3.450 -1.3811  0.4827 -2.0012
  179SAPS   C2920463   4.178   5.431   3.647 -0.4165 -0.3243  0.2274
  179SAPS   H9R20464   4.277   5.440   3.693 -1.2467  2.2088  1.7149
  179SAPS  C21020465   4.055   5.421   3.737 -0.1784 -0.0902  0.0631
  179SAPS  H10R20466   4.038   5.314   3.759 -1.7404  0.0423 -0.3914
  179SAPS  H10S20467   3.963   5.445   3.680  0.2204  0.5972 -0.3065
  179SAPS  C21120468   4.073   5.510   3.861  0.0972 -0.3312 -0.3328
  179SAPS  H11R20469   4.085   5.616   3.838 -1.4673  0.0332  0.4169
  179SAPS  C21220470   4.072   5.478   3.995  0.4714  0.4931  0.0113
  179SAPS  H12R20471   4.100   5.555   4.067  0.1687 -0.5849  1.3181
  179SAPS  C21320472   4.045   5.344   4.051  0.3316  0.6186  0.5294
  179SAPS  H13R20473   4.058   5.261   3.978 -0.6732  1.1353 -0.2572
  179SAPS  H13S20474   3.942   5.333   4.090  0.3541 -0.8695  0.2397
  179SAPS  C21420475   4.137   5.299   4.161  0.1026 -0.2562  0.2472
  179SAPS  H14R20476   4.241   5.286   4.128 -0.1851  1.1154 -1.3512
  179SAPS  C21520477   4.107   5.276   4.287 -0.4828  0.4148  0.0662
  179SAPS  H15R20478   4.180   5.259   4.368 -0.5445  0.6715  0.1791
  179SAPS  C21620479   3.971   5.294   4.356 -0.8675  0.0525 -0.2835
  179SAPS  H16R20480   3.978   5.219   4.438 -0.4279  2.1019  1.6732
  179SAPS  H16S20481   3.882   5.272   4.293 -0.4801 -2.5578 -0.0177
  179SAPS  C21720482   3.951   5.430   4.424 -0.1626 -0.2577 -0.1125
  179SAPS  H17R20483   3.961   5.512   4.351  1.0635 -0.7585 -0.5310
  179SAPS  H17S20484   4.040   5.438   4.491  0.4638 -0.2815 -0.9257
  179SAPS  C21820485   3.822   5.454   4.497 -0.3057 -0.7551  0.2575
  179SAPS  H18R20486   3.823   5.415   4.601  0.8220  0.5258  0.7616
  179SAPS  H18S20487   3.735   5.407   4.446 -1.4134 -0.0933  1.4694
  179SAPS  C21920488   3.776   5.606   4.508 -0.3938  0.2582 -0.2428
  179SAPS  H19R20489   3.767   5.659   4.411 -1.2317 -0.6392 -0.6738
  179SAPS  H19S20490   3.850   5.670   4.561 -0.5238 -0.7630  1.2254
  179SAPS  C22020491   3.637   5.609   4.585 -0.5183  0.4512 -0.8630
  179SAPS  H20R20492   3.577   5.535   4.528  1.0768 -0.1213 -1.8735
  179SAPS  H20S20493   3.585   5.706   4.596 -0.9160 -0.0294  2.2356
  179SAPS  H20T20494   3.646   5.570   4.689  0.5297 -2.4868 -1.9445
  179SAPS   C3320495   3.667   5.908   3.079 -0.2876 -0.0625  0.1979
  179SAPS   H3X20496   3.730   5.817   3.093 -1.4555 -1.0906 -1.0289
  179SAPS   H3Y20497   3.577   5.868   3.029  0.7415 -0.7692 -1.1606
  179SAPS   C3420498   3.626   5.973   3.216 -0.3602 -0.8428  0.2317
  179SAPS   H4X20499   3.535   6.032   3.190  0.0581 -0.9661 -1.6477
  179SAPS   H4Y20500   3.713   6.032   3.249 -0.7889  0.9597 -1.6269
  179SAPS   C3520501   3.587   5.865   3.320  0.3085 -0.0460 -0.7084
  179SAPS   H5X20502   3.665   5.786   3.324  0.2383 -0.1008 -0.4161
  179SAPS   H5Y20503   3.488   5.818   3.307  0.3902 -1.1378  1.9408
  179SAPS   C3620504   3.581   5.901   3.473 -0.4576 -0.7895  0.1515
  179SAPS   H6X20505   3.517   5.829   3.529 -0.8916 -1.6588 -1.4120
  179SAPS   H6Y20506   3.521   5.994   3.483 -1.7200 -1.5257 -0.4109
  179SAPS   C3720507   3.724   5.902   3.548 -0.1420  0.4271  0.0149
  179SAPS   H7X20508   3.805   5.956   3.493 -0.9980 -0.3842 -2.1502
  179SAPS   H7Y20509   3.751   5.796   3.563  0.9834  1.0223  2.8377
  179SAPS   C3820510   3.710   5.964   3.695  0.4681 -0.1181  0.4228
  179SAPS   H8X20511   3.619   5.910   3.731 -2.4634  2.8119 -2.0337
  179SAPS   H8Y20512   3.683   6.071   3.695 -1.6027 -0.5957 -0.0545
  179SAPS   C3920513   3.830   5.931   3.781 -0.9756 -0.2169  0.4108
  179SAPS   H9X20514   3.920   5.970   3.727 -0.0032 -2.0997  0.5775
  179SAPS   H9Y20515   3.847   5.822   3.796  1.2123 -0.0007 -0.0388
  179SAPS  C31020516   3.820   6.003   3.916 -0.5099 -0.0223 -0.6372
  179SAPS  H10X20517   3.717   6.000   3.957  0.4921  1.5902  2.2784
  179SAPS  H10Y20518   3.863   6.105   3.911  0.8306 -0.5867 -0.9919
  179SAPS  C31120519   3.922   5.954   4.021 -0.1839  0.7423 -0.0352
  179SAPS  H11X20520   4.022   5.941   3.975 -0.2008  2.2392 -0.5572
  179SAPS  H11Y20521   3.880   5.858   4.056  0.6741 -0.7395 -2.7381
  179SAPS  C31220522   3.933   6.046   4.145  0.1450  0.6789  0.4243
  179SAPS  H12X20523   3.834   6.096   4.156  0.0441  0.8874 -1.1442
  179SAPS  H12Y20524   4.005   6.129   4.128 -0.4938  1.0853 -0.4058
  179SAPS  C31320525   3.958   5.970   4.274  0.4561 -1.2869  0.1948
  179SAPS  H13X20526   3.876   5.899   4.297 -0.1768 -0.3419  0.9312
  179SAPS  H13Y20527   3.960   6.048   4.353  0.7746  1.2259 -2.1060
  179SAPS  C31420528   4.092   5.901   4.274  0.1408 -0.7423 -0.6061
  179SAPS  H14X20529   4.172   5.978   4.272 -2.0000  1.6660  0.2800
  179SAPS  H14Y20530   4.102   5.826   4.193 -2.0350 -1.3980 -0.3268
  179SAPS  C31520531   4.108   5.823   4.406 -0.0511 -0.2875 -0.4906
  179SAPS  H15X20532   4.204   5.770   4.391  1.4035  1.8195  0.8663
  179SAPS  H15Y20533   4.031   5.743   4.409  0.0112 -0.3596  2.4958
  179SAPS  C31620534   4.113   5.891   4.542  0.3880  0.0553  0.0794
  179SAPS  H16X20535   4.016   5.928   4.580  1.4444 -1.1970  4.6608
  179SAPS  H16Y20536   4.174   5.984   4.548 -0.2065  0.3692  2.7699
  179SAPS  C31720537   4.164   5.806   4.653  0.2232 -0.3405 -0.6517
  179SAPS  H17X20538   4.255   5.754   4.616 -0.1889 -2.1289  0.7382
  179SAPS  H17Y20539   4.090   5.726   4.672  1.3386 -1.0288  1.0133
  179SAPS  C31820540   4.213   5.883   4.774 -0.3153 -0.1305 -0.0874
  179SAPS  H18X20541   4.240   5.803   4.846  0.6643 -0.6811 -1.0368
  179SAPS  H18Y20542   4.128   5.945   4.810  1.9831  2.6708  0.9600
  179SAPS  H18Z20543   4.295   5.954   4.749  1.2106 -1.3020  1.3778
  180SAPS     N20544   3.708   4.513   2.599  0.1018 -0.9750 -0.0287
  180SAPS   HN120545   3.738   4.610   2.618 -0.5326 -0.4802 -1.4015
  180SAPS   HN220546   3.741   4.458   2.681  2.9476  1.8404  0.9029
  180SAPS   HN320547   3.763   4.471   2.520  1.9288 -0.7994  1.0901
  180SAPS   C1220548   3.558   4.503   2.575 -0.2503  0.6497 -0.5328
  180SAPS  H12A20549   3.505   4.532   2.665 -1.2974 -1.2020 -0.4931
  180SAPS   C1320550   3.488   4.591   2.470 -0.0578  0.3970 -0.2722
  180SAPS  O13A20551   3.563   4.624   2.373  0.1458 -0.1405 -0.0907
  180SAPS  O13B20552   3.367   4.590   2.451  0.0219  0.2770 -0.6942
  180SAPS   C1120553   3.522   4.353   2.555  0.3663 -0.0618 -1.1276
  180SAPS  H11A20554   3.577   4.313   2.466  0.1655 -0.2521 -1.1661
  180SAPS  H11B20555   3.415   4.336   2.532  0.3310 -1.7590  0.1372
  180SAPS     P20556   3.559   4.111   2.658  0.0004 -0.4107  0.4864
  180SAPS   O1320557   3.482   4.073   2.535 -0.6700  0.6103 -0.5921
  180SAPS   O1420558   3.699   4.057   2.669  0.5840 -0.2497 -0.0922
  180SAPS   O1220559   3.557   4.268   2.662  0.2959 -0.6819 -0.9847
  180SAPS   O1120560   3.476   4.070   2.788  0.1330  0.2992  0.5227
  180SAPS    C120561   3.358   4.134   2.830  0.3660 -0.7274  0.1969
  180SAPS    HA20562   3.305   4.182   2.745 -2.2285  1.4392  2.8549
  180SAPS    HB20563   3.284   4.058   2.863 -1.4808  1.4637  1.3600
  180SAPS    C220564   3.387   4.249   2.929  0.1704  0.1790 -0.1555
  180SAPS    HS20565   3.479   4.289   2.882  0.7887  0.3272  1.1357
  180SAPS   O2120566   3.415   4.199   3.062 -0.0727  0.3252  0.1820
  180SAPS   C2120567   3.508   4.273   3.121  0.0966 -0.4555 -0.2326
  180SAPS   O2220568   3.560   4.369   3.070 -0.2138 -0.4663  0.3077
  180SAPS   C2220569   3.545   4.220   3.254  0.1928 -0.5045 -1.1215
  180SAPS   H2R20570   3.455   4.194   3.313  3.6482 -2.4769  4.0626
  180SAPS   H2S20571   3.610   4.131   3.237 -2.1815 -2.2286 -1.7197
  180SAPS    C320572   3.274   4.351   2.944  0.2017 -0.0557  0.0000
  180SAPS    HX20573   3.198   4.287   2.993  0.6820 -0.4537  0.2431
  180SAPS    HY20574   3.235   4.378   2.844  1.7222  0.0739 -0.5981
  180SAPS   O3120575   3.296   4.465   3.035  0.4621 -0.5137  0.0240
  180SAPS   C3120576   3.314   4.582   2.973 -0.2574  0.6564 -0.2090
  180SAPS   O3220577   3.312   4.599   2.851  0.0399 -0.5015 -0.6858
  180SAPS   C3220578   3.324   4.681   3.090  0.0991 -0.4273  0.2489
  180SAPS   H2X20579   3.275   4.633   3.177 -1.7896  0.9547 -0.0055
  180SAPS   H2Y20580   3.267   4.769   3.055 -3.9563 -2.0046  2.1839
  180SAPS   C2320581   3.614   4.338   3.323 -0.3482  0.1371 -0.1442
  180SAPS   H3R20582   3.550   4.427   3.335  1.6986  1.4074  2.2343
  180SAPS   H3S20583   3.710   4.372   3.278  0.8956 -0.7616  1.6790
  180SAPS   C2420584   3.646   4.289   3.464  0.9037  0.5480  0.1426
  180SAPS   H4R20585   3.688   4.186   3.453 -0.5437 -0.0179 -0.3090
  180SAPS   H4S20586   3.548   4.268   3.511  1.1072 -0.0543  0.3168
  180SAPS   C2520587   3.740   4.369   3.548  0.3590 -0.8579 -0.2766
  180SAPS   H5R20588   3.839   4.394   3.507  1.0470 -2.2684  0.4380
  180SAPS   C2620589   3.696   4.429   3.659  0.2680 -0.4015 -0.3427
  180SAPS   H6R20590   3.779   4.468   3.721 -0.4151  0.5583 -0.0022
  180SAPS   C2720591   3.559   4.419   3.725 -0.3991 -0.2454 -0.2545
  180SAPS   H7R20592   3.553   4.394   3.833  0.9254  1.5559  0.2908
  180SAPS   H7S20593   3.503   4.332   3.685 -1.7319 -0.2216  1.4568
  180SAPS   C2820594   3.484   4.547   3.701  0.2484  0.7147 -0.3701
  180SAPS   H8R20595   3.498   4.589   3.600  1.9025 -1.7143 -1.2437
  180SAPS   C2920596   3.394   4.592   3.792 -0.1562 -0.5850 -0.7910
  180SAPS   H9R20597   3.326   4.674   3.764  0.4353  1.4777  2.9957
  180SAPS  C21020598   3.369   4.534   3.926  0.4902 -0.3849 -0.1603
  180SAPS  H10R20599   3.455   4.518   3.994  0.5861  0.1575 -0.1482
  180SAPS  H10S20600   3.323   4.438   3.895  0.1903  0.7022 -3.4987
  180SAPS  C21120601   3.272   4.619   4.004  0.2857  0.5868 -0.2808
  180SAPS  H11R20602   3.295   4.727   4.008  0.7006  0.4715  0.9451
  180SAPS  C21220603   3.157   4.579   4.057  0.1684 -0.0731  0.2151
  180SAPS  H12R20604   3.104   4.661   4.107  0.0938  0.1175 -0.1733
  180SAPS  C21320605   3.101   4.438   4.065 -0.0419  0.3431 -0.3288
  180SAPS  H13R20606   3.130   4.387   4.159  2.0448 -0.6046 -1.4176
  180SAPS  H13S20607   3.138   4.368   3.987 -0.7796 -3.0817  2.1584
  180SAPS  C21420608   2.949   4.442   4.054 -0.0857 -0.1087  0.0181
  180SAPS  H14R20609   2.909   4.534   4.007 -2.7987 -0.2926  1.7598
  180SAPS  C21520610   2.862   4.356   4.115  0.9026  0.3889  0.6125
  180SAPS  H15R20611   2.754   4.370   4.100  1.2549  1.1125 -1.6788
  180SAPS  C21620612   2.901   4.228   4.187  0.2536 -0.1180  0.2241
  180SAPS  H16R20613   3.010   4.205   4.188 -0.1355 -2.2366 -0.4713
  180SAPS  H16S20614   2.843   4.145   4.141 -1.2119 -0.8350  3.0961
  180SAPS  C21720615   2.846   4.213   4.324  0.1820  0.8555 -0.2414
  180SAPS  H17R20616   2.868   4.110   4.361 -1.5058 -0.7508 -3.3561
  180SAPS  H17S20617   2.736   4.228   4.320  0.1266  0.2490 -1.4779
  180SAPS  C21820618   2.895   4.303   4.440  0.7249 -0.0179  0.9433
  180SAPS  H18R20619   2.890   4.409   4.408 -0.2730  0.3458  2.1990
  180SAPS  H18S20620   3.003   4.287   4.459  0.7416  0.9438  1.7687
  180SAPS  C21920621   2.805   4.276   4.563 -0.1902  0.2609 -0.1943
  180SAPS  H19R20622   2.865   4.288   4.656  0.1023  1.2324 -0.4992
  180SAPS  H19S20623   2.770   4.170   4.562 -0.7175  0.3855  1.6915
  180SAPS  C22020624   2.683   4.373   4.570  0.7769 -0.7677 -0.1450
  180SAPS  H20R20625   2.619   4.373   4.480  0.2383  0.5255  0.2199
  180SAPS  H20S20626   2.616   4.362   4.658  2.9184  1.9561  2.0121
  180SAPS  H20T20627   2.726   4.473   4.591 -0.9685 -0.0632  0.2086
  180SAPS   C3320628   3.470   4.708   3.132  0.4908 -0.2218  0.4358
  180SAPS   H3X20629   3.533   4.727   3.043  3.1316 -1.3053  1.9465
  180SAPS   H3Y20630   3.513   4.627   3.195  3.9075 -0.1406 -1.5184
  180SAPS   C3420631   3.468   4.838   3.216 -0.1679  0.5718 -0.0263
  180SAPS   H4X20632   3.410   4.917   3.164 -0.6034 -0.4606 -1.1408
  180SAPS   H4Y20633   3.570   4.883   3.214  0.5346 -0.7006  2.6417
  180SAPS   C3520634   3.426   4.823   3.364  0.0760 -0.6331 -0.2444
  180SAPS   H5X20635   3.461   4.720   3.386  5.3837  0.4962 -2.0434
  180SAPS   H5Y20636   3.315   4.831   3.372  0.1915  0.7695  0.2393
  180SAPS   C3620637   3.505   4.914   3.465 -0.0242 -0.4311  0.2198
  180SAPS   H6X20638   3.513   5.022   3.438 -0.3788 -0.5928 -0.5753
  180SAPS   H6Y20639   3.610   4.885   3.447 -0.6335 -2.1795 -0.7479
  180SAPS   C3720640   3.457   4.892   3.606 -0.0045 -0.3004 -0.0477
  180SAPS   H7X20641   3.501   4.795   3.639 -0.7595 -0.1244  1.5687
  180SAPS   H7Y20642   3.347   4.890   3.620  0.1403 -0.5687  1.0848
  180SAPS   C3820643   3.504   5.001   3.702 -0.1138  0.0889  0.0990
  180SAPS   H8X20644   3.412   5.060   3.721 -1.4632 -1.2095 -2.0156
  180SAPS   H8Y20645   3.574   5.071   3.650  0.5145  0.2991  1.1766
  180SAPS   C3920646   3.561   4.948   3.830 -0.1223  0.5734 -0.8905
  180SAPS   H9X20647   3.478   4.893   3.879 -0.7516  2.8971  0.8147
  180SAPS   H9Y20648   3.568   5.026   3.909  2.7712  0.6699 -1.1528
  180SAPS  C31020649   3.690   4.870   3.829 -0.4937 -0.1550 -0.3912
  180SAPS  H10X20650   3.760   4.884   3.743  1.1917 -1.6390  0.6600
  180SAPS  H10Y20651   3.656   4.767   3.807 -1.8738  0.4374 -1.1287
  180SAPS  C31120652   3.757   4.858   3.965 -0.2143 -0.2050  0.2373
  180SAPS  H11X20653   3.815   4.763   3.965 -0.4452 -0.3803  2.1448
  180SAPS  H11Y20654   3.674   4.846   4.037 -1.7370 -0.8050 -1.5445
  180SAPS  C31220655   3.847   4.974   3.996  0.0478 -0.1356 -0.1032
  180SAPS  H12X20656   3.788   5.067   4.006 -1.1198 -0.6729 -1.7252
  180SAPS  H12Y20657   3.917   4.994   3.912 -1.9847 -0.8531 -2.0548
  180SAPS  C31320658   3.929   4.962   4.128  0.2097 -0.4398 -0.2663
  180SAPS  H13X20659   4.006   5.041   4.143 -0.3242  0.0144  0.1479
  180SAPS  H13Y20660   3.974   4.862   4.145 -0.0526 -0.3390  1.1784
  180SAPS  C31420661   3.825   4.988   4.238 -0.0416  0.2377  0.2666
  180SAPS  H14X20662   3.732   4.928   4.227  0.3029 -0.6583  1.9187
  180SAPS  H14Y20663   3.793   5.095   4.240 -1.7068 -0.1834  3.4143
  180SAPS  C31520664   3.868   4.949   4.380  0.1901  0.6363 -0.2463
  180SAPS  H15X20665   3.787   4.996   4.440  0.0944  1.9652 -1.3749
  180SAPS  H15Y20666   3.962   5.002   4.405 -0.4686  0.4374  3.2191
  180SAPS  C31620667   3.871   4.806   4.421  0.7302 -0.0349  1.2672
  180SAPS  H16X20668   3.950   4.757   4.360 -1.1695 -2.0794  0.2803
  180SAPS  H16Y20669   3.776   4.754   4.393  0.3326  1.2659  0.0891
  180SAPS  C31720670   3.915   4.787   4.565 -0.6023  0.2053 -0.9703
  180SAPS  H17X20671   3.824   4.810   4.623  0.1329 -1.0640  0.8136
  180SAPS  H17Y20672   3.978   4.875   4.592 -1.2993  0.4837 -0.2113
  180SAPS  C31820673   3.981   4.653   4.592 -0.2524  0.1650 -0.5473
  180SAPS  H18X20674   4.082   4.648   4.545  0.7819 -0.3009  1.5978
  180SAPS  H18Y20675   3.917   4.566   4.567  2.0088 -2.4276  1.9048
  180SAPS  H18Z20676   4.007   4.656   4.700  0.0372  1.1216 -0.6286
  181POPC     N20677   3.817   5.931   7.373  0.6283 -0.7908 -0.1256
  181POPC   C1220678   3.879   6.056   7.449 -0.3402 -0.5247 -0.3002
  181POPC  H12A20679   3.884   6.033   7.555  0.4190 -1.1316 -0.4593
  181POPC  H12B20680   3.823   6.148   7.443  0.2097 -0.1983 -0.5462
  181POPC   C1320681   3.815   5.954   7.223  0.4436  0.0107  0.7003
  181POPC  H13A20682   3.780   5.871   7.163  0.0768  0.5410  0.1710
  181POPC  H13B20683   3.756   6.041   7.198 -0.0511 -0.1400  1.3097
  181POPC  H13C20684   3.918   5.969   7.194 -0.0499  0.1963 -1.0821
  181POPC   C1420685   3.892   5.807   7.402 -0.1201 -0.0014  0.2807
  181POPC  H14A20686   3.888   5.788   7.508  1.5796  0.5890  0.4800
  181POPC  H14B20687   3.857   5.715   7.356  2.5158 -1.6214  1.2918
  181POPC  H14C20688   3.997   5.816   7.377  0.2983  0.1791  1.9818
  181POPC   C1520689   3.669   5.920   7.409  0.4017  0.3215 -0.0591
  181POPC  H15A20690   3.610   5.838   7.372 -1.2868  0.6736  1.7054
  181POPC  H15B20691   3.615   6.009   7.379  0.4877  0.3529 -0.1215
  181POPC  H15C20692   3.659   5.925   7.516  1.9111 -0.8220  0.1801
  181POPC   C1120693   4.025   6.095   7.409 -0.2759  0.0973  0.1257
  181POPC  H11A20694   4.095   6.012   7.434  0.9678  1.7243  2.4403
  181POPC  H11B20695   4.046   6.180   7.478  1.4531  0.2584 -0.5570
  181POPC     P20696   3.989   6.279   7.239 -0.1416  0.0965  0.2665
  181POPC   O1320697   4.060   6.375   7.319 -0.7507 -0.0349  0.4131
  181POPC   O1420698   3.841   6.289   7.248  0.1020 -0.2383 -0.0935
  181POPC   O1220699   4.035   6.138   7.273 -0.8174  0.3782  0.5826
  181POPC   O1120700   4.023   6.309   7.090  0.4025 -0.0803 -0.1057
  181POPC    C120701   4.026   6.197   6.999 -0.6247  0.0786 -0.3196
  181POPC    HA20702   3.922   6.158   7.007 -2.4248  4.2235 -0.8135
  181POPC    HB20703   4.101   6.123   7.033  0.5607  3.0337  4.3473
  181POPC    C220704   4.047   6.237   6.848  0.1142  0.1408  0.6989
  181POPC    HS20705   3.977   6.320   6.824  0.4953  0.0845 -0.7169
  181POPC   O2120706   4.036   6.126   6.763 -0.2385  0.0303 -0.0890
  181POPC   C2120707   3.910   6.097   6.735  0.4634 -0.4565 -0.1425
  181POPC   O2220708   3.811   6.164   6.765  0.0673  0.5394 -0.1037
  181POPC   C2220709   3.907   5.965   6.661  1.0235  0.3960  0.5196
  181POPC   H2R20710   3.940   5.890   6.736 -1.3314  0.4097  1.6337
  181POPC   H2S20711   3.979   5.956   6.576 -0.0697  0.6753 -0.4677
  181POPC    C320712   4.190   6.284   6.823  0.0250  0.2020  0.2661
  181POPC    HX20713   4.257   6.196   6.811 -1.6203 -1.2255  1.0898
  181POPC    HY20714   4.230   6.339   6.910 -2.0484 -0.8981  2.0059
  181POPC   O3120715   4.212   6.360   6.701  0.1156  0.8905  0.2506
  181POPC   C3120716   4.199   6.483   6.691 -0.0949 -0.5997 -0.4781
  181POPC   O3220717   4.166   6.565   6.778 -0.3096 -0.8379 -0.6352
  181POPC   C3220718   4.219   6.518   6.544  0.6258 -0.4962  0.0549
  181POPC   H2X20719   4.134   6.471   6.490 -2.0508  2.6391  1.2138
  181POPC   H2Y20720   4.319   6.475   6.524  1.4100 -0.1717  2.8361
  181POPC   C2320721   3.763   5.918   6.611 -0.1894  0.0692 -0.6216
  181POPC   H3R20722   3.724   5.983   6.531 -0.4916  0.2136 -0.3577
  181POPC   H3S20723   3.694   5.908   6.697 -0.5262  2.8670 -0.4797
  181POPC   C2420724   3.772   5.774   6.555 -0.6950  0.7069  0.6558
  181POPC   H4R20725   3.675   5.726   6.528  0.3085 -0.7516 -0.4846
  181POPC   H4S20726   3.810   5.709   6.637 -0.9756  1.2944  1.2630
  181POPC   C2520727   3.867   5.755   6.435 -0.4143  0.1615  0.2592
  181POPC   H5R20728   3.849   5.649   6.408 -3.5375  0.5909  0.1853
  181POPC   H5S20729   3.970   5.771   6.472 -0.5152 -0.7032  0.9437
  181POPC   C2620730   3.850   5.851   6.316  0.4229  0.6080  0.6919
  181POPC   H6R20731   3.875   5.954   6.346 -0.8409  0.1629  3.6063
  181POPC   H6S20732   3.743   5.861   6.289 -0.0351 -0.1494  2.1012
  181POPC   C2720733   3.953   5.826   6.200  0.6743 -0.3232  0.3643
  181POPC   H7R20734   3.924   5.726   6.163 -1.4578 -0.6374  2.6574
  181POPC   H7S20735   4.051   5.818   6.252  0.9116 -0.1078 -0.0423
  181POPC   C2820736   3.952   5.938   6.098 -0.4239 -0.0769 -0.3454
  181POPC   H8R20737   4.025   5.905   6.021 -0.9241  1.1647 -1.3914
  181POPC   H8S20738   3.994   6.026   6.151 -1.0317 -1.1897  2.1533
  181POPC   C2920739   3.812   5.968   6.052 -0.5278  0.1317  0.2334
  181POPC   H9120740   3.734   5.973   6.129 -0.7793  1.1102 -0.0784
  181POPC  C21020741   3.773   5.984   5.921 -0.2079  0.5859 -0.1255
  181POPC  H10120742   3.668   6.003   5.895  0.0714  1.0843 -0.8993
  181POPC  C21120743   3.877   5.959   5.809  0.2973  0.3893  0.7051
  181POPC  H11R20744   3.969   5.903   5.835  1.0463  1.7013  0.9699
  181POPC  H11S20745   3.917   6.060   5.787  1.1407 -0.1194 -0.1596
  181POPC  C21220746   3.831   5.902   5.685  0.3576 -0.0457  0.2457
  181POPC  H12R20747   3.759   5.978   5.647  0.7050 -0.6516 -1.7276
  181POPC  H12S20748   3.782   5.806   5.713 -1.2920  0.8349  0.5319
  181POPC  C21320749   3.939   5.880   5.572 -0.4532  0.2140  0.0983
  181POPC  H13R20750   3.980   5.778   5.583 -1.4781 -0.2066  0.1842
  181POPC  H13S20751   4.024   5.950   5.591  0.3878 -0.6305 -0.5230
  181POPC  C21420752   3.893   5.894   5.425  0.1229  0.0528 -0.2009
  181POPC  H14R20753   3.983   5.873   5.363 -0.1495  0.6766 -0.8222
  181POPC  H14S20754   3.856   5.998   5.417  0.2341  0.1700  0.6322
  181POPC  C21520755   3.780   5.792   5.396  0.0663  0.0271  0.2203
  181POPC  H15R20756   3.686   5.820   5.448 -0.3565 -1.3856  0.2732
  181POPC  H15S20757   3.804   5.694   5.444 -1.1042 -0.9718 -1.1425
  181POPC  C21620758   3.766   5.785   5.244  0.1185  0.4308  0.1740
  181POPC  H16R20759   3.866   5.760   5.203  0.6198 -0.5498  1.9192
  181POPC  H16S20760   3.752   5.887   5.200  2.7814  0.2270 -1.3818
  181POPC  C21720761   3.655   5.695   5.197 -0.4649 -1.1279  0.1827
  181POPC  H17R20762   3.554   5.731   5.227 -0.1300  0.4439 -0.4767
  181POPC  H17S20763   3.685   5.595   5.233  1.9739 -1.9611 -3.5758
  181POPC  C21820764   3.657   5.687   5.044  0.3186  0.7552  0.3807
  181POPC  H18R20765   3.600   5.763   4.986  0.0314 -1.4672 -2.4569
  181POPC  H18S20766   3.610   5.592   5.011 -2.3047  2.6205 -1.7067
  181POPC  H18T20767   3.760   5.690   5.002  1.2170  1.1777  2.4853
  181POPC   C3320768   4.222   6.677   6.512  0.1330 -0.0842 -0.1652
  181POPC   H3X20769   4.280   6.728   6.592 -0.6584  0.1644  0.2669
  181POPC   H3Y20770   4.119   6.720   6.518  0.3248  0.2132  2.1293
  181POPC   C3420771   4.278   6.700   6.372 -0.6912 -0.2614  0.8212
  181POPC   H4X20772   4.380   6.657   6.367 -0.3477  0.3761  2.0191
  181POPC   H4Y20773   4.308   6.806   6.357  0.9283 -0.4689  2.3318
  181POPC   C3520774   4.194   6.654   6.249 -0.2850  0.0934  0.2958
  181POPC   H5X20775   4.106   6.720   6.232  0.6628  1.6903  1.3784
  181POPC   H5Y20776   4.174   6.548   6.278  0.1776 -0.4211 -1.1705
  181POPC   C3620777   4.281   6.657   6.119 -0.1429  0.3306  0.1606
  181POPC   H6X20778   4.367   6.588   6.130 -1.5110 -1.3382  0.8524
  181POPC   H6Y20779   4.317   6.762   6.116  1.4740 -0.2218 -1.9954
  181POPC   C3720780   4.217   6.625   5.985  0.6202  0.1705  0.5983
  181POPC   H7X20781   4.126   6.686   5.970  0.0896 -0.0838  2.5012
  181POPC   H7Y20782   4.186   6.519   5.988 -1.2297  0.6781  1.1678
  181POPC   C3820783   4.304   6.646   5.857  0.5607 -0.1032 -0.5614
  181POPC   H8X20784   4.402   6.596   5.864  0.0557 -1.3853 -1.9388
  181POPC   H8Y20785   4.322   6.753   5.836  0.6342  0.0399  0.2140
  181POPC   C3920786   4.251   6.583   5.730  0.0487 -0.5072 -0.2704
  181POPC   H9X20787   4.158   6.642   5.713 -0.3812 -1.7214 -2.5818
  181POPC   H9Y20788   4.216   6.478   5.742 -3.9347  0.4712 -1.6308
  181POPC  C31020789   4.345   6.599   5.610 -0.3465 -0.0661  0.8717
  181POPC  H10X20790   4.447   6.558   5.625  0.4934  1.0239 -1.3511
  181POPC  H10Y20791   4.371   6.706   5.610 -2.0684  0.3876  1.4141
  181POPC  C31120792   4.295   6.569   5.472 -0.3128 -0.4264  0.0706
  181POPC  H11X20793   4.191   6.605   5.460 -0.7987 -2.4708 -3.1725
  181POPC  H11Y20794   4.311   6.459   5.462  0.9944 -0.3061  0.5858
  181POPC  C31220795   4.376   6.640   5.364  0.4005  0.0361 -0.4010
  181POPC  H12X20796   4.366   6.751   5.369 -0.8890  0.0579 -2.4202
  181POPC  H12Y20797   4.321   6.614   5.272 -0.6901  3.1295 -0.7478
  181POPC  C31320798   4.525   6.595   5.356  0.3514 -1.0363  0.0722
  181POPC  H13X20799   4.524   6.485   5.347 -1.8394 -1.3517  2.6363
  181POPC  H13Y20800   4.582   6.630   5.445 -0.9125  0.5271  0.3349
  181POPC  C31420801   4.597   6.659   5.236 -0.1628  0.3831 -0.0671
  181POPC  H14X20802   4.587   6.768   5.256 -0.2111  0.4614 -0.4934
  181POPC  H14Y20803   4.541   6.639   5.142  0.1425 -1.4839  0.1224
  181POPC  C31520804   4.739   6.617   5.200 -0.6007 -0.9079 -0.0255
  181POPC  H15X20805   4.762   6.511   5.225 -1.0729 -0.8087  0.8528
  181POPC  H15Y20806   4.813   6.682   5.251 -2.9188  0.5888  1.6214
  181POPC  C31620807   4.773   6.635   5.047 -0.0458 -0.0820 -0.6321
  181POPC  H16X20808   4.751   6.733   5.001 -1.2720 -0.5105 -1.0103
  181POPC  H16Y20809   4.710   6.560   4.994 -0.6595  0.3408 -0.5107
  181POPC  H16Z20810   4.881   6.621   5.028  0.0393 -3.9379  1.6406
  182POPC     N20811   0.727   5.557   7.359 -0.2231  0.1795 -0.5090
  182POPC   C1220812   0.827   5.606   7.250 -0.5279 -0.0197 -0.0907
  182POPC  H12A20813   0.816   5.713   7.245  0.3232  0.0830  0.1213
  182POPC  H12B20814   0.805   5.576   7.148  0.1549  2.8325 -1.1801
  182POPC   C1320815   0.764   5.645   7.473  0.7610 -0.6464  0.6145
  182POPC  H13A20816   0.863   5.639   7.514  1.2226 -0.2814 -0.4151
  182POPC  H13B20817   0.747   5.748   7.444 -0.3811 -1.1989 -0.8257
  182POPC  H13C20818   0.696   5.620   7.553  1.1097  0.2070  1.1929
  182POPC   C1420819   0.585   5.569   7.329  0.4989 -0.5690  0.2596
  182POPC  H14A20820   0.515   5.525   7.399  1.1024 -0.3263  1.0299
  182POPC  H14B20821   0.561   5.674   7.320 -0.3422 -0.9333 -3.3783
  182POPC  H14C20822   0.561   5.527   7.232  0.9418  0.4975 -0.3288
  182POPC   C1520823   0.757   5.415   7.393 -0.0663  0.8047 -0.6039
  182POPC  H15A20824   0.696   5.395   7.480  0.6040 -2.2177 -0.7253
  182POPC  H15B20825   0.861   5.391   7.406 -0.3071  0.8227  1.7727
  182POPC  H15C20826   0.705   5.349   7.325  0.0521  2.3596 -2.3013
  182POPC   C1120827   0.976   5.565   7.272 -0.6192  0.0907 -0.3104
  182POPC  H11A20828   0.995   5.577   7.380  0.7764  0.2827 -0.5636
  182POPC  H11B20829   1.061   5.622   7.229  0.9237 -2.1800 -0.4835
  182POPC     P20830   1.025   5.376   7.093 -0.4792  0.4275  0.2940
  182POPC   O1320831   0.944   5.254   7.068 -0.2619 -0.2426 -0.1399
  182POPC   O1420832   1.176   5.357   7.087  0.4139 -0.4039  0.8110
  182POPC   O1220833   0.997   5.425   7.241  0.4649  0.1674 -0.0062
  182POPC   O1120834   0.970   5.498   7.017  0.2651  0.0889  0.0281
  182POPC    C120835   0.869   5.502   6.915  0.0168 -0.3059  0.5982
  182POPC    HA20836   0.817   5.599   6.910  0.9732  0.2067  0.3302
  182POPC    HB20837   0.786   5.429   6.929 -0.6020  0.2815  0.0563
  182POPC    C220838   0.929   5.477   6.775 -0.0022 -0.0052 -0.1390
  182POPC    HS20839   0.938   5.366   6.771 -1.1556 -0.2293  1.7569
  182POPC   O2120840   1.059   5.539   6.766  0.1853  0.1473 -0.3014
  182POPC   C2120841   1.139   5.488   6.670 -1.3769  0.3924  0.4832
  182POPC   O2220842   1.112   5.390   6.606  0.0892  0.4431  0.1785
  182POPC   C2220843   1.279   5.551   6.669  0.0714 -0.0693  0.4032
  182POPC   H2R20844   1.344   5.482   6.728 -2.7267 -2.7292  0.6474
  182POPC   H2S20845   1.265   5.642   6.731  4.1110 -0.1661  1.7533
  182POPC    C320846   0.833   5.539   6.667 -0.0424  0.9166  0.0865
  182POPC    HX20847   0.841   5.649   6.673  0.1143  0.8474  1.2936
  182POPC    HY20848   0.734   5.493   6.685 -0.1999  1.3265  0.2719
  182POPC   O3120849   0.876   5.505   6.537 -0.4365 -0.6893  1.0402
  182POPC   C3120850   0.796   5.534   6.432 -0.3205 -0.3396  0.7415
  182POPC   O3220851   0.680   5.570   6.444  0.2579  0.1660  0.5948
  182POPC   C3220852   0.875   5.524   6.300  0.0148  0.6394 -0.0397
  182POPC   H2X20853   0.933   5.430   6.310  0.1749  0.8635  1.2626
  182POPC   H2Y20854   0.954   5.602   6.304  0.7286  0.0344 -1.4668
  182POPC   C2320855   1.328   5.569   6.531 -0.0052  0.0053 -0.0380
  182POPC   H3R20856   1.332   5.469   6.482  1.3864  0.8949 -1.8411
  182POPC   H3S20857   1.427   5.618   6.531  0.6243 -0.8274 -4.6694
  182POPC   C2420858   1.240   5.664   6.453  0.8269 -0.1859  0.2063
  182POPC   H4R20859   1.216   5.749   6.520 -3.7286 -1.0948  0.0796
  182POPC   H4S20860   1.146   5.604   6.452  0.5840  0.1891 -0.3559
  182POPC   C2520861   1.290   5.689   6.313 -0.2824 -0.8139  0.2086
  182POPC   H5R20862   1.308   5.592   6.262 -3.5250 -0.9542 -0.9056
  182POPC   H5S20863   1.387   5.742   6.313 -1.1420  0.8603 -0.5584
  182POPC   C2620864   1.198   5.771   6.222 -0.1757  0.6390 -0.5826
  182POPC   H6R20865   1.183   5.875   6.257  0.3634  1.9454 -3.9069
  182POPC   H6S20866   1.100   5.718   6.230  0.0301  0.0101 -1.9437
  182POPC   C2720867   1.245   5.799   6.075  0.0917 -0.4084 -0.4882
  182POPC   H7R20868   1.248   5.702   6.022 -0.5707 -0.9134  0.3862
  182POPC   H7S20869   1.340   5.856   6.060 -0.2803  0.5097  0.5445
  182POPC   C2820870   1.139   5.885   5.994 -1.3590 -0.0417 -0.2782
  182POPC   H8R20871   1.183   5.899   5.892 -0.9371 -1.3996 -0.2967
  182POPC   H8S20872   1.139   5.980   6.052  0.2559  1.3543 -2.3603
  182POPC   C2920873   0.998   5.821   5.997  0.2614  0.6530  0.2562
  182POPC   H9120874   0.948   5.815   6.094 -0.0562 -1.6754  0.0186
  182POPC  C21020875   0.924   5.766   5.895  0.6972 -0.7142 -0.1452
  182POPC  H10120876   0.833   5.716   5.930  2.2936 -1.6324  3.0419
  182POPC  C21120877   0.956   5.767   5.746  0.4084 -0.7972  0.8464
  182POPC  H11R20878   0.909   5.678   5.699  0.2909  0.5990 -1.8336
  182POPC  H11S20879   1.065   5.748   5.736  0.5666  0.6665 -0.5103
  182POPC  C21220880   0.906   5.881   5.662 -0.3505  1.1642  0.4279
  182POPC  H12R20881   0.971   5.967   5.687 -1.1071  1.4647  1.4283
  182POPC  H12S20882   0.800   5.907   5.681 -0.9403  0.3117 -1.3816
  182POPC  C21320883   0.923   5.864   5.510 -0.2364  0.3446 -0.4144
  182POPC  H13R20884   0.900   5.960   5.459  0.5031 -0.1334 -1.7023
  182POPC  H13S20885   0.875   5.778   5.457  1.2934  1.1889 -3.4228
  182POPC  C21420886   1.073   5.820   5.479  0.3591  0.1201  0.4599
  182POPC  H14R20887   1.099   5.720   5.520  0.2715 -0.1008 -0.0243
  182POPC  H14S20888   1.140   5.904   5.509 -0.2219  1.2466 -1.2604
  182POPC  C21520889   1.108   5.807   5.324 -0.3165  0.4538  0.3880
  182POPC  H15R20890   1.104   5.909   5.280  1.0159  0.1960 -0.4055
  182POPC  H15S20891   1.026   5.749   5.278 -3.0493  0.4361  4.8030
  182POPC  C21620892   1.247   5.741   5.286  0.3164  0.8582  0.4054
  182POPC  H16R20893   1.228   5.633   5.306 -0.1241  0.4833 -1.7583
  182POPC  H16S20894   1.331   5.781   5.346  0.0656  1.4094  0.3947
  182POPC  C21720895   1.285   5.734   5.135  1.3964 -0.5250 -0.3004
  182POPC  H17R20896   1.338   5.829   5.113  0.1505  0.4285  0.6605
  182POPC  H17S20897   1.186   5.746   5.086  0.1270 -0.5784  2.0812
  182POPC  C21820898   1.348   5.604   5.086 -0.3624 -0.2351  0.0088
  182POPC  H18R20899   1.381   5.617   4.981 -2.0427  1.2898 -0.3713
  182POPC  H18S20900   1.281   5.515   5.090  1.0033 -1.2927 -0.0599
  182POPC  H18T20901   1.437   5.579   5.147  0.4486  0.9614 -0.6572
  182POPC   C3320902   0.787   5.526   6.169 -0.4179  0.6344  0.9994
  182POPC   H3X20903   0.849   5.550   6.080  3.7968  1.8656  3.9395
  182POPC   H3Y20904   0.698   5.592   6.175 -1.1334 -0.1451 -0.4099
  182POPC   C3420905   0.734   5.381   6.130  0.5828 -1.3899  0.3461
  182POPC   H4X20906   0.649   5.377   6.201  0.4810  0.8713  0.4277
  182POPC   H4Y20907   0.793   5.291   6.155 -2.0919 -2.8822  1.7789
  182POPC   C3520908   0.682   5.388   5.983  0.3821  0.5314  0.2305
  182POPC   H5X20909   0.614   5.473   5.960 -0.5586 -0.0076  0.9732
  182POPC   H5Y20910   0.615   5.301   5.962  0.8718  0.6191 -1.9858
  182POPC   C3620911   0.788   5.378   5.871 -0.1653 -0.8758 -0.0720
  182POPC   H6X20912   0.816   5.271   5.860  2.7398 -0.1424 -0.7700
  182POPC   H6Y20913   0.881   5.438   5.885  0.4416 -1.5904 -0.9473
  182POPC   C3720914   0.735   5.423   5.735 -0.1414 -0.1364 -0.5175
  182POPC   H7X20915   0.726   5.534   5.729  0.7951 -0.0684 -0.8068
  182POPC   H7Y20916   0.631   5.386   5.718 -0.9495  0.9582  1.6809
  182POPC   C3820917   0.829   5.370   5.613  0.3282 -0.0821  0.2030
  182POPC   H8X20918   0.800   5.265   5.589 -0.5930  0.0616  0.6376
  182POPC   H8Y20919   0.933   5.391   5.645  0.5447  2.2271 -1.7077
  182POPC   C3920920   0.798   5.455   5.485  0.1797  0.2256  0.5504
  182POPC   H9X20921   0.804   5.562   5.513 -2.5561  0.3905  0.8550
  182POPC   H9Y20922   0.698   5.424   5.447  0.5835 -0.6603  0.1692
  182POPC  C31020923   0.897   5.424   5.371 -0.2115  0.6972  0.4128
  182POPC  H10X20924   0.895   5.315   5.348 -0.5212  0.7704  0.0874
  182POPC  H10Y20925   1.004   5.441   5.396  0.1663 -1.2842  0.3637
  182POPC  C31120926   0.844   5.493   5.242  1.1315 -0.4986  0.2549
  182POPC  H11X20927   0.833   5.603   5.260 -1.6779 -0.8500  1.2278
  182POPC  H11Y20928   0.738   5.465   5.225  0.2344  3.0342 -0.8063
  182POPC  C31220929   0.929   5.449   5.121  0.1507  0.3808 -0.2089
  182POPC  H12X20930   0.893   5.354   5.076  0.2491  0.5059 -0.5588
  182POPC  H12Y20931   1.028   5.424   5.164 -0.9012 -0.8298  1.6539
  182POPC  C31320932   0.942   5.555   5.015  0.2870 -0.7356  0.2072
  182POPC  H13X20933   0.972   5.654   5.056 -1.4347  0.3142 -0.9512
  182POPC  H13Y20934   0.845   5.581   4.966  1.2183  2.7736 -0.0692
  182POPC  C31420935   1.045   5.522   4.908  0.2917  0.4311 -0.1069
  182POPC  H14X20936   1.021   5.421   4.868  0.0419  0.5287 -0.2073
  182POPC  H14Y20937   1.142   5.502   4.959 -1.7872 -0.7270  3.8201
  182POPC  C31520938   1.058   5.623   4.794  0.2047 -0.6982 -0.1580
  182POPC  H15X20939   1.073   5.720   4.848 -0.1576  0.0994 -1.4395
  182POPC  H15Y20940   0.960   5.634   4.744  0.8805 -2.5281 -2.0201
  182POPC  C31620941   1.174   5.605   4.696  0.1201  0.5997 -0.1108
  182POPC  H16X20942   1.266   5.626   4.754  0.2053  1.5137 -0.5565
  182POPC  H16Y20943   1.162   5.671   4.607 -1.5106 -1.6250 -1.6858
  182POPC  H16Z20944   1.192   5.500   4.664  2.8673  0.2478  2.1624
  183POPC     N20945   2.882   3.170   7.499  0.0945 -0.1591  0.7259
  183POPC   C1220946   3.005   3.081   7.479 -0.0382 -0.2442 -0.8916
  183POPC  H12A20947   3.008   3.029   7.384  0.9002  0.2945 -1.1726
  183POPC  H12B20948   3.000   3.010   7.560 -1.9134 -0.5793 -1.2577
  183POPC   C1320949   2.869   3.219   7.636  0.1433 -0.5153 -0.5203
  183POPC  H13A20950   2.776   3.273   7.644  0.6870  0.3162  0.4034
  183POPC  H13B20951   2.848   3.134   7.698 -0.4410  1.3782  2.0415
  183POPC  H13C20952   2.943   3.288   7.674  1.6343 -2.5429  0.4799
  183POPC   C1420953   2.897   3.284   7.404 -0.3025  0.5127  0.4524
  183POPC  H14A20954   2.919   3.254   7.303 -1.5841 -0.7085  0.5077
  183POPC  H14B20955   2.807   3.343   7.411 -1.3947 -1.2715  2.5272
  183POPC  H14C20956   2.985   3.339   7.436  1.1736  0.4443 -3.0181
  183POPC   C1520957   2.757   3.092   7.476  0.9374 -0.2167  0.2977
  183POPC  H15A20958   2.757   3.005   7.540  0.8469  0.0682  0.6935
  183POPC  H15B20959   2.748   3.059   7.374  0.5183 -2.3574  0.9755
  183POPC  H15C20960   2.666   3.147   7.495 -0.6865 -2.1164 -1.5796
  183POPC   C1120961   3.143   3.151   7.494 -0.7019  0.2561  0.0746
  183POPC  H11A20962   3.219   3.069   7.498  1.1659  1.9066 -0.0191
  183POPC  H11B20963   3.150   3.196   7.595 -1.8981 -0.2903  0.4179
  183POPC     P20964   3.317   3.284   7.352 -0.0416 -0.0929 -0.1550
  183POPC   O1320965   3.421   3.179   7.390  0.3307  0.0459 -0.2556
  183POPC   O1420966   3.349   3.416   7.404 -0.2354 -0.6295 -0.0217
  183POPC   O1220967   3.170   3.244   7.395  0.1628  0.1350  0.0022
  183POPC   O1120968   3.308   3.290   7.197  0.0044  0.4635  0.2557
  183POPC    C120969   3.197   3.239   7.126  0.0282 -0.1887 -0.2456
  183POPC    HA20970   3.103   3.291   7.154  0.5602  0.9678 -0.5609
  183POPC    HB20971   3.169   3.132   7.141  0.9917 -0.7250 -2.0162
  183POPC    C220972   3.207   3.251   6.961 -0.9395  0.2306  0.4395
  183POPC    HS20973   3.134   3.184   6.910  0.4596 -0.7106 -0.4013
  183POPC   O2120974   3.343   3.210   6.914  0.6151  0.1315 -0.3662
  183POPC   C2120975   3.371   3.084   6.904  0.1605  0.6635  0.1964
  183POPC   O2220976   3.283   2.997   6.913  0.1954 -0.3530  0.9552
  183POPC   C2220977   3.518   3.069   6.864  0.4278 -0.1853 -0.2490
  183POPC   H2R20978   3.568   3.018   6.950  0.5002 -0.5202 -0.4853
  183POPC   H2S20979   3.562   3.171   6.867 -1.6940  0.7447  0.9506
  183POPC    C320980   3.190   3.397   6.910  0.0481 -0.0330 -0.7387
  183POPC    HX20981   3.253   3.462   6.975 -1.7011  0.5764  0.4266
  183POPC    HY20982   3.092   3.436   6.945  0.8668  1.7856 -0.3234
  183POPC   O3120983   3.228   3.431   6.775  0.0239 -0.2838 -0.1723
  183POPC   C3120984   3.129   3.396   6.688 -0.7267  0.3490 -0.1579
  183POPC   O3220985   3.016   3.359   6.717 -0.1432 -0.1582  0.1381
  183POPC   C3220986   3.184   3.403   6.541 -0.2707 -0.1425  0.7453
  183POPC   H2X20987   3.284   3.359   6.524  0.0818 -0.1247  2.6369
  183POPC   H2Y20988   3.179   3.513   6.527 -0.0893  0.1024  2.4383
  183POPC   C2320989   3.530   3.003   6.727 -0.6079 -0.1100  0.0157
  183POPC   H3R20990   3.503   2.896   6.716  0.9953 -0.6759  1.1341
  183POPC   H3S20991   3.641   2.998   6.716 -0.5870  1.9289 -1.2219
  183POPC   C2420992   3.468   3.089   6.614  0.0880 -0.1485  0.4942
  183POPC   H4R20993   3.489   3.198   6.626 -0.9906  0.3844 -1.8812
  183POPC   H4S20994   3.357   3.084   6.616 -0.3030  2.7761 -3.2306
  183POPC   C2520995   3.520   3.065   6.471  0.1567 -0.2940 -0.4250
  183POPC   H5R20996   3.461   2.984   6.423 -0.1453 -0.8508  0.8401
  183POPC   H5S20997   3.627   3.035   6.466  0.3199 -0.8388  3.1314
  183POPC   C2620998   3.497   3.189   6.382  0.0716  0.7258 -0.9433
  183POPC   H6R20999   3.562   3.260   6.438 -0.6202 -1.5683  3.2060
  183POPC   H6S21000   3.391   3.220   6.392 -0.1322  0.0416 -0.9561
  183POPC   C2721001   3.530   3.161   6.238 -0.5942  0.4930 -0.2105
  183POPC   H7R21002   3.475   3.073   6.200  1.7075 -0.9944 -0.2661
  183POPC   H7S21003   3.637   3.135   6.250 -0.6138  1.2772  2.3620
  183POPC   C2821004   3.519   3.286   6.151  0.3686 -0.2772  0.0060
  183POPC   H8R21005   3.598   3.354   6.190  0.1101 -0.5127  0.9548
  183POPC   H8S21006   3.422   3.339   6.170  0.2388  0.3404 -2.0992
  183POPC   C2921007   3.534   3.274   5.997 -0.5539  0.3762  0.2003
  183POPC   H9121008   3.453   3.215   5.953  1.0001  0.4602 -3.0515
  183POPC  C21021009   3.618   3.328   5.907  0.2204 -0.4157  0.2817
  183POPC  H10121010   3.595   3.306   5.801 -2.7834 -1.8312  1.1330
  183POPC  C21121011   3.721   3.443   5.930  0.3350  0.6177  0.7131
  183POPC  H11R21012   3.749   3.454   6.037 -0.4188  0.1504  0.9652
  183POPC  H11S21013   3.688   3.539   5.887  2.3969  1.0021 -0.1411
  183POPC  C21221014   3.849   3.395   5.856 -0.3254 -0.4594  0.2164
  183POPC  H12R21015   3.843   3.387   5.746 -2.2290 -1.5697  0.3658
  183POPC  H12S21016   3.877   3.298   5.903 -0.0453 -0.2653  0.4570
  183POPC  C21321017   3.964   3.505   5.870 -0.5660  0.4167 -0.3851
  183POPC  H13R21018   4.004   3.505   5.973 -1.0113  1.3518 -0.2091
  183POPC  H13S21019   3.925   3.607   5.848  0.2595  0.9835  0.7309
  183POPC  C21421020   4.074   3.463   5.769  0.3218 -0.6119 -0.4656
  183POPC  H14R21021   4.048   3.497   5.666  1.3172 -0.3256 -0.6292
  183POPC  H14S21022   4.073   3.352   5.774 -2.2459 -0.6885 -0.9550
  183POPC  C21521023   4.203   3.538   5.811  0.8317  0.9818  0.7450
  183POPC  H15R21024   4.241   3.486   5.901  2.0280 -0.0852 -0.3363
  183POPC  H15S21025   4.163   3.638   5.839 -0.5470  1.1072 -1.3891
  183POPC  C21621026   4.313   3.555   5.704  0.2701  0.0791  0.2371
  183POPC  H16R21027   4.380   3.467   5.701  0.0728 -0.1695  1.9306
  183POPC  H16S21028   4.385   3.625   5.751  1.3574 -1.4874  0.9671
  183POPC  C21721029   4.270   3.609   5.566 -0.3224  0.1163 -0.2611
  183POPC  H17R21030   4.204   3.694   5.592 -1.7495 -0.7714 -0.8789
  183POPC  H17S21031   4.226   3.531   5.500 -1.7222  1.0746 -0.4993
  183POPC  C21821032   4.396   3.671   5.496 -0.9732 -0.2535 -0.8063
  183POPC  H18R21033   4.481   3.609   5.532 -1.4706 -0.7376 -0.4458
  183POPC  H18S21034   4.405   3.773   5.538 -1.7892 -0.5492  0.1559
  183POPC  H18T21035   4.398   3.664   5.385 -1.1530  1.4139 -0.9421
  183POPC   C3321036   3.083   3.340   6.443  0.9369  0.7730  0.2150
  183POPC   H3X21037   2.980   3.376   6.466  1.4968  1.5244  1.6536
  183POPC   H3Y21038   3.091   3.229   6.442  1.0439  0.6825 -3.2911
  183POPC   C3421039   3.122   3.367   6.302  0.2812 -0.0890  0.0741
  183POPC   H4X21040   3.044   3.320   6.238  0.2742 -1.0546  0.7774
  183POPC   H4Y21041   3.215   3.314   6.273  0.7121  1.2802 -1.2228
  183POPC   C3521042   3.125   3.515   6.252 -0.6044  1.0548  0.5000
  183POPC   H5X21043   3.223   3.560   6.279 -0.0214  2.2515 -3.0357
  183POPC   H5Y21044   3.036   3.556   6.304 -2.3891 -1.5941 -0.2472
  183POPC   C3621045   3.113   3.528   6.098  0.0655 -0.0844 -0.5053
  183POPC   H6X21046   3.108   3.638   6.082  2.2833  0.1327  0.0492
  183POPC   H6Y21047   3.018   3.482   6.062  1.0010 -1.0636 -1.8045
  183POPC   C3721048   3.224   3.476   6.004  0.4705  0.0248 -0.1967
  183POPC   H7X21049   3.227   3.366   6.019 -0.6381 -0.0613 -0.5217
  183POPC   H7Y21050   3.324   3.510   6.038  0.6301 -1.0581  0.4762
  183POPC   C3821051   3.193   3.510   5.857 -0.2327  0.5136 -0.0712
  183POPC   H8X21052   3.195   3.620   5.864  2.3098  0.6925 -1.9156
  183POPC   H8Y21053   3.095   3.492   5.808  0.4233 -0.2750 -1.1497
  183POPC   C3921054   3.296   3.466   5.759 -0.4322  0.1066  0.9387
  183POPC   H9X21055   3.297   3.357   5.741  1.3749  0.2244  0.1032
  183POPC   H9Y21056   3.396   3.490   5.801  0.8926  0.3557 -2.0948
  183POPC  C31021057   3.295   3.516   5.615  0.0974  0.1297 -0.2214
  183POPC  H10X21058   3.401   3.504   5.582  0.4689 -1.2144  1.3274
  183POPC  H10Y21059   3.292   3.627   5.612  1.5051  0.2416  1.2830
  183POPC  C31121060   3.207   3.451   5.503 -0.0826  0.5711 -0.3162
  183POPC  H11X21061   3.099   3.467   5.522 -0.5177  2.7479 -3.9005
  183POPC  H11Y21062   3.237   3.344   5.509  0.9587  0.8133 -0.9944
  183POPC  C31221063   3.247   3.497   5.357 -0.2982  0.4494 -0.5148
  183POPC  H12X21064   3.358   3.496   5.352 -0.3338  0.6811 -1.3987
  183POPC  H12Y21065   3.224   3.605   5.344  3.9024  1.5973  0.0451
  183POPC  C31321066   3.176   3.412   5.243  0.3217  0.3566 -0.2636
  183POPC  H13X21067   3.164   3.464   5.146  2.3249  0.8837 -0.2733
  183POPC  H13Y21068   3.075   3.398   5.287  0.5597 -0.3483  0.0631
  183POPC  C31421069   3.225   3.261   5.230  0.9393 -0.1632 -0.1077
  183POPC  H14X21070   3.160   3.223   5.149  2.1649 -1.4161 -0.5484
  183POPC  H14Y21071   3.202   3.206   5.324  0.1940 -0.0396 -0.2091
  183POPC  C31521072   3.366   3.240   5.178 -0.9261  0.9924  0.1293
  183POPC  H15X21073   3.447   3.287   5.239  0.5333 -1.0258 -0.1710
  183POPC  H15Y21074   3.387   3.292   5.082 -0.7767  0.7917  0.0543
  183POPC  C31621075   3.395   3.088   5.159 -0.4336 -0.2505 -0.0299
  183POPC  H16X21076   3.505   3.075   5.153 -0.6664 -2.9332  0.3554
  183POPC  H16Y21077   3.343   3.054   5.067 -0.2484 -2.4380  0.6033
  183POPC  H16Z21078   3.347   3.028   5.240 -0.5307 -0.8902 -0.5530
  184POPC     N21079   4.516   3.018   7.558 -0.2998  0.7164 -0.3169
  184POPC   C1221080   4.550   3.138   7.647 -0.4164 -0.1918  0.4029
  184POPC  H12A21081   4.657   3.151   7.654 -0.4082  1.2145 -1.5736
  184POPC  H12B21082   4.509   3.129   7.746  1.5458  1.2006  1.4021
  184POPC   C1321083   4.546   2.884   7.626  0.5944  0.5180  0.2652
  184POPC  H13A21084   4.556   2.813   7.546 -2.3150  2.1625 -1.7841
  184POPC  H13B21085   4.644   2.878   7.670  1.5926 -1.0421 -1.9667
  184POPC  H13C21086   4.463   2.848   7.685  1.2174 -0.3584  0.6116
  184POPC   C1421087   4.365   3.017   7.532 -0.8336  0.3544 -0.2584
  184POPC  H14A21088   4.298   3.031   7.615  0.7737  0.7427  1.0243
  184POPC  H14B21089   4.342   3.100   7.467  2.6334  0.5398 -1.4796
  184POPC  H14C21090   4.328   2.929   7.481  0.0362 -1.3518  1.8783
  184POPC   C1521091   4.573   3.028   7.423  0.7562  0.2916  0.0164
  184POPC  H15A21092   4.534   2.947   7.364 -0.8527  1.3854 -0.4948
  184POPC  H15B21093   4.681   3.031   7.427  0.7620 -0.5095  2.5091
  184POPC  H15C21094   4.544   3.124   7.382  0.3283  1.6006  3.0674
  184POPC   C1121095   4.509   3.274   7.584  0.6154  0.9926 -0.0998
  184POPC  H11A21096   4.541   3.339   7.668  0.0241 -1.1006  1.8463
  184POPC  H11B21097   4.401   3.267   7.561  0.8021  0.9993 -1.0092
  184POPC     P21098   4.707   3.367   7.452  0.1052  0.1432  0.1654
  184POPC   O1321099   4.783   3.302   7.559  0.4978 -0.5102 -0.1642
  184POPC   O1421100   4.697   3.517   7.443  0.0255 -0.2772 -0.6740
  184POPC   O1221101   4.569   3.303   7.457  0.2397 -0.4373 -0.2656
  184POPC   O1121102   4.768   3.312   7.321  0.1353  0.0402  0.5220
  184POPC    C121103   4.700   3.348   7.199  0.8981  0.0311 -0.3492
  184POPC    HA21104   4.745   3.442   7.162  1.2331  0.7775  1.8582
  184POPC    HB21105   4.591   3.361   7.213  0.8718  0.0434 -0.5543
  184POPC    C221106   4.723   3.238   7.083 -1.0108  0.0159  0.2453
  184POPC    HS21107   4.656   3.153   7.109  0.8551 -0.9938  1.9834
  184POPC   O2121108   4.861   3.203   7.085 -0.2775 -0.2685 -0.2806
  184POPC   C2121109   4.893   3.081   7.039 -0.4894  0.6403 -0.0201
  184POPC   O2221110   4.819   3.006   6.975  0.0663 -0.7714  0.5993
  184POPC   C2221111   5.043   3.063   7.050 -0.2138  1.2670  0.9529
  184POPC   H2R21112   5.064   2.982   7.123  1.2274  0.1834 -0.5816
  184POPC   H2S21113   5.097   3.152   7.091  0.9471  1.8244 -1.5501
  184POPC    C321114   4.693   3.302   6.946 -0.6806 -0.3417  0.3040
  184POPC    HX21115   4.706   3.217   6.876 -1.7179 -1.1872  1.1083
  184POPC    HY21116   4.776   3.372   6.920 -0.2273 -0.6040  1.0287
  184POPC   O3121117   4.563   3.355   6.934 -0.0557 -0.2628 -0.4191
  184POPC   C3121118   4.547   3.481   6.963 -0.1094  0.1776  0.1746
  184POPC   O3221119   4.634   3.560   6.991  0.0124 -0.1996 -0.9228
  184POPC   C3221120   4.394   3.504   6.969  0.0918 -0.2189  0.0016
  184POPC   H2X21121   4.362   3.596   7.023 -1.3971 -1.6781  1.7200
  184POPC   H2Y21122   4.353   3.416   7.023  0.7103 -0.1868  0.5332
  184POPC   C2321123   5.103   3.038   6.913 -0.3595  0.0347 -0.0317
  184POPC   H3R21124   5.207   3.078   6.918 -1.2443  2.6523 -0.9904
  184POPC   H3S21125   5.059   3.108   6.838 -1.4470 -0.3508  0.2300
  184POPC   C2421126   5.126   2.887   6.875 -0.1169 -0.7368 -0.3983
  184POPC   H4R21127   5.030   2.832   6.868 -1.6549  1.9061 -1.4209
  184POPC   H4S21128   5.193   2.845   6.954 -0.3033 -1.6263 -0.6998
  184POPC   C2521129   5.198   2.886   6.737 -0.3285 -0.8710 -0.6776
  184POPC   H5R21130   5.291   2.947   6.742 -0.3099 -0.8763 -0.9472
  184POPC   H5S21131   5.125   2.934   6.669 -1.8497  0.9180  2.0455
  184POPC   C2621132   5.205   2.744   6.687 -0.6594  0.0823 -0.1075
  184POPC   H6R21133   5.099   2.713   6.680 -1.6157  3.1620 -1.1438
  184POPC   H6S21134   5.261   2.683   6.761  2.1143  1.1125 -1.2049
  184POPC   C2721135   5.265   2.723   6.548 -0.6800 -0.3854  0.7916
  184POPC   H7R21136   5.375   2.715   6.564 -0.0778 -0.3054 -2.6127
  184POPC   H7S21137   5.238   2.802   6.475 -1.8176 -1.1468  0.3616
  184POPC   C2821138   5.220   2.589   6.485  0.1859  0.3093 -0.2265
  184POPC   H8R21139   5.254   2.578   6.380  1.3163 -0.9165  0.2400
  184POPC   H8S21140   5.109   2.583   6.487  0.2046  0.1861  0.7843
  184POPC   C2921141   5.269   2.478   6.582 -0.0577 -0.6590  0.5913
  184POPC   H9121142   5.222   2.479   6.681  0.4240 -3.1497  0.9084
  184POPC  C21021143   5.373   2.395   6.557  0.6368 -0.3302 -0.5447
  184POPC  H10121144   5.388   2.322   6.639  0.4470 -0.6015 -0.7484
  184POPC  C21121145   5.465   2.394   6.437 -0.2880 -0.2302 -0.3496
  184POPC  H11R21146   5.422   2.449   6.350  2.7839  1.2959 -1.0593
  184POPC  H11S21147   5.472   2.290   6.400  0.7701 -0.5266  0.6132
  184POPC  C21221148   5.607   2.456   6.464  0.4035 -0.1409  0.7972
  184POPC  H12R21149   5.685   2.376   6.463  0.2301 -0.3100  0.1815
  184POPC  H12S21150   5.610   2.485   6.571  2.1504 -1.8270  1.2709
  184POPC  C21321151   5.639   2.577   6.379 -0.4374  1.3529 -0.3021
  184POPC  H13R21152   5.739   2.610   6.415  0.6148  0.1017 -1.9240
  184POPC  H13S21153   5.568   2.660   6.399 -1.4165  0.5482 -0.3317
  184POPC  C21421154   5.653   2.538   6.235 -0.3145  0.1208 -0.1281
  184POPC  H14R21155   5.559   2.506   6.186  0.1218 -0.1470 -0.7986
  184POPC  H14S21156   5.733   2.462   6.220 -0.1790  0.2300  0.0309
  184POPC  C21521157   5.699   2.658   6.153 -0.6432  0.1232 -0.1489
  184POPC  H15R21158   5.802   2.680   6.188 -0.9298  0.5423  0.4490
  184POPC  H15S21159   5.636   2.743   6.185  0.4809  0.8209  0.2915
  184POPC  C21621160   5.691   2.631   6.003 -0.3823  1.2618  0.5365
  184POPC  H16R21161   5.588   2.648   5.967  0.6765  1.5236 -2.6651
  184POPC  H16S21162   5.722   2.527   5.978  0.8423  1.9580 -0.9808
  184POPC  C21721163   5.784   2.730   5.935 -0.6898  0.4238  0.3202
  184POPC  H17R21164   5.882   2.706   5.982 -1.1053 -2.4742 -0.1414
  184POPC  H17S21165   5.750   2.833   5.959  0.7057  0.4488  2.4782
  184POPC  C21821166   5.797   2.716   5.781  0.0389  0.0401 -0.7675
  184POPC  H18R21167   5.816   2.609   5.756  0.0093  0.2512 -1.7283
  184POPC  H18S21168   5.866   2.786   5.729 -1.5649  0.7987 -1.9495
  184POPC  H18T21169   5.702   2.753   5.737  0.2277 -0.5697 -1.7267
  184POPC   C3321170   4.333   3.507   6.832  0.2416  0.1336  0.2985
  184POPC   H3X21171   4.227   3.476   6.844 -0.2724  2.0582  0.9717
  184POPC   H3Y21172   4.392   3.433   6.773 -0.8236 -1.8697  1.6002
  184POPC   C3421173   4.322   3.648   6.768 -0.3147  0.0104 -0.0328
  184POPC   H4X21174   4.307   3.722   6.849  0.3583  0.1739 -0.0527
  184POPC   H4Y21175   4.236   3.653   6.698  1.0526  0.3932 -1.7706
  184POPC   C3521176   4.448   3.696   6.693  0.1340 -0.3175 -0.3163
  184POPC   H5X21177   4.531   3.726   6.760  0.9474  2.5653 -2.4302
  184POPC   H5Y21178   4.415   3.779   6.627 -0.2596 -0.9855 -0.9883
  184POPC   C3621179   4.505   3.588   6.596 -0.7984 -0.2842  0.0914
  184POPC   H6X21180   4.413   3.536   6.562 -0.5791 -1.6100  1.4347
  184POPC   H6Y21181   4.563   3.507   6.644  2.9133  1.0484 -1.7447
  184POPC   C3721182   4.590   3.647   6.482 -0.5377  0.0576 -0.7165
  184POPC   H7X21183   4.529   3.702   6.407  0.9774  0.6165 -1.5658
  184POPC   H7Y21184   4.644   3.561   6.438  0.3329 -1.0048  2.1768
  184POPC   C3821185   4.699   3.745   6.533  0.0771 -0.1017 -0.4562
  184POPC   H8X21186   4.772   3.698   6.603 -0.2760  1.0107  0.7154
  184POPC   H8Y21187   4.653   3.827   6.592 -0.3035  0.6745 -1.8119
  184POPC   C3921188   4.781   3.811   6.419 -0.7590  0.0443  0.2696
  184POPC   H9X21189   4.847   3.894   6.452 -0.0044 -0.1383 -0.7467
  184POPC   H9Y21190   4.714   3.851   6.341 -1.2205 -0.1173  0.5774
  184POPC  C31021191   4.882   3.711   6.355  0.3365  0.8894 -0.9379
  184POPC  H10X21192   4.828   3.627   6.307  0.0843  0.5223 -0.0177
  184POPC  H10Y21193   4.951   3.665   6.429 -0.5319 -1.0292 -1.2607
  184POPC  C31121194   4.958   3.775   6.240 -0.5448 -0.2723 -0.1442
  184POPC  H11X21195   5.033   3.839   6.291 -0.2793 -0.2708 -0.5342
  184POPC  H11Y21196   4.884   3.843   6.191 -2.5133 -0.5438  2.2379
  184POPC  C31221197   5.027   3.678   6.137 -0.1552  0.3929  0.1794
  184POPC  H12X21198   5.088   3.751   6.079  1.7822  0.0809  1.7067
  184POPC  H12Y21199   4.955   3.631   6.067 -2.1430 -0.1598  2.4793
  184POPC  C31321200   5.125   3.573   6.186 -0.1871  0.2204 -0.3880
  184POPC  H13X21201   5.078   3.530   6.277  0.5992 -0.4744 -0.2912
  184POPC  H13Y21202   5.219   3.619   6.224  1.3170 -2.2427 -0.9187
  184POPC  C31421203   5.157   3.462   6.089  0.4420 -0.8620 -0.2258
  184POPC  H14X21204   5.226   3.396   6.145  0.5535  0.5560  1.3912
  184POPC  H14Y21205   5.216   3.501   6.004  1.7360 -3.6677 -0.7168
  184POPC  C31521206   5.042   3.374   6.034  0.0619 -0.7273 -0.0522
  184POPC  H15X21207   4.977   3.439   5.973  0.9292 -2.5508 -3.1428
  184POPC  H15Y21208   4.983   3.335   6.120 -0.8599 -1.4411 -0.9828
  184POPC  C31621209   5.106   3.254   5.953  0.9124 -0.2541 -0.4360
  184POPC  H16X21210   5.030   3.177   5.925  0.4320 -1.1474  2.9281
  184POPC  H16Y21211   5.194   3.206   6.000 -0.6065 -2.0853  0.6615
  184POPC  H16Z21212   5.152   3.302   5.864  1.4587 -1.7157 -0.9658
  185POPC     N21213   0.747   0.183   2.649  0.5752 -0.1262 -0.0813
  185POPC   C1221214   0.650   0.198   2.532  0.4978 -0.4333  0.1412
  185POPC  H12A21215   0.696   0.169   2.439 -2.7348 -5.2510 -0.3148
  185POPC  H12B21216   0.606   0.296   2.522 -1.1635 -1.1927 -0.3606
  185POPC   C1321217   0.870   0.265   2.622 -0.0863  0.0956  0.2691
  185POPC  H13A21218   0.962   0.216   2.652  1.0181  0.9445 -1.5659
  185POPC  H13B21219   0.881   0.271   2.515  0.8246  0.9102  0.3942
  185POPC  H13C21220   0.859   0.363   2.667 -2.2429  0.2854 -0.5368
  185POPC   C1421221   0.700   0.232   2.777  0.7119 -0.5149  0.0735
  185POPC  H14A21222   0.618   0.172   2.813  0.1403 -1.3386 -2.4629
  185POPC  H14B21223   0.773   0.219   2.857  1.2299 -0.5845 -0.4049
  185POPC  H14C21224   0.655   0.328   2.759  2.5007  0.0513 -1.7024
  185POPC   C1521225   0.792   0.040   2.669 -0.2684  0.8249  0.1318
  185POPC  H15A21226   0.845   0.032   2.763  0.4927 -3.9605 -0.4181
  185POPC  H15B21227   0.845  -0.004   2.586  1.0407  0.9213  0.8979
  185POPC  H15C21228   0.700  -0.017   2.667 -0.6816  1.0124  4.2258
  185POPC   C1121229   0.526   0.103   2.539 -0.7980 -0.4606 -0.1334
  185POPC  H11A21230   0.447   0.148   2.476 -1.0563  0.8998  1.1071
  185POPC  H11B21231   0.484   0.103   2.642  3.4269  0.7729  1.8143
  185POPC     P21232   0.589  -0.096   2.376  0.0655  0.0886 -0.0159
  185POPC   O1321233   0.669   0.002   2.307  0.2302 -0.0656 -0.2210
  185POPC   O1421234   0.467  -0.149   2.311 -0.2585 -0.8291 -0.3340
  185POPC   O1221235   0.552  -0.029   2.514 -0.7130  0.2961 -0.0237
  185POPC   O1121236   0.677  -0.223   2.423 -0.4147  0.5709  0.6495
  185POPC    C121237   0.623  -0.335   2.498 -0.3291  0.5051 -0.1203
  185POPC    HA21238   0.643  -0.429   2.442  0.4220 -0.5191  1.7748
  185POPC    HB21239   0.514  -0.322   2.512 -0.0838  0.0761  2.7310
  185POPC    C221240   0.667  -0.328   2.647 -0.0974  0.1905 -0.4546
  185POPC    HS21241   0.644  -0.420   2.705 -0.2525 -0.9151 -2.2166
  185POPC   O2121242   0.615  -0.212   2.711  0.4380  0.2563 -0.0495
  185POPC   C2121243   0.490  -0.230   2.755 -0.1856  0.2555 -0.0405
  185POPC   O2221244   0.423  -0.334   2.741  0.1232 -0.6363  0.1792
  185POPC   C2221245   0.449  -0.108   2.838  0.1721  0.2497 -0.2523
  185POPC   H2R21246   0.350  -0.071   2.804 -0.6792 -1.1812  0.5437
  185POPC   H2S21247   0.514  -0.020   2.821  0.7569 -0.4794 -2.0205
  185POPC    C321248   0.821  -0.321   2.663 -0.3612  0.5425 -0.3401
  185POPC    HX21249   0.852  -0.238   2.597 -0.5185  0.8044 -0.0868
  185POPC    HY21250   0.875  -0.407   2.618  1.6249  2.6659 -2.2578
  185POPC   O3121251   0.859  -0.296   2.806  0.5103  0.3953  0.1090
  185POPC   C3121252   0.872  -0.411   2.886  0.0260 -0.4158  0.6525
  185POPC   O3221253   0.849  -0.521   2.847 -0.0284  0.1891 -0.0552
  185POPC   C3221254   0.908  -0.362   3.025 -0.4025 -0.1937  0.0331
  185POPC   H2X21255   0.817  -0.353   3.088  0.9686  0.0720  2.0735
  185POPC   H2Y21256   0.961  -0.265   3.013  1.2643 -1.1097 -0.4671
  185POPC   C2321257   0.418  -0.136   2.986  0.1970  0.5043  0.1622
  185POPC   H3R21258   0.317  -0.179   3.006 -0.6808  0.9966 -2.6621
  185POPC   H3S21259   0.398  -0.036   3.029  0.4935 -0.2473  2.1450
  185POPC   C2421260   0.530  -0.205   3.062  0.1363  0.0650 -0.4522
  185POPC   H4R21261   0.621  -0.143   3.045  0.4535 -0.0488  0.7472
  185POPC   H4S21262   0.549  -0.308   3.023 -1.1033 -0.0164 -0.8790
  185POPC   C2521263   0.504  -0.221   3.213 -0.1513 -0.1306  0.0205
  185POPC   H5R21264   0.415  -0.285   3.232  0.8818 -1.3268  1.0506
  185POPC   H5S21265   0.489  -0.117   3.250 -1.9131 -0.9040  1.6999
  185POPC   C2621266   0.628  -0.274   3.286 -0.1344 -0.0241 -0.5160
  185POPC   H6R21267   0.718  -0.222   3.248  1.2160 -2.3740 -0.7476
  185POPC   H6S21268   0.631  -0.384   3.268  0.0554 -0.3264  1.1638
  185POPC   C2721269   0.629  -0.263   3.439 -0.1564 -0.5170  0.2707
  185POPC   H7R21270   0.542  -0.313   3.488  0.0711  0.6923  1.9818
  185POPC   H7S21271   0.613  -0.154   3.454  1.0228 -0.5023  1.5967
  185POPC   C2821272   0.758  -0.303   3.507  0.2925 -0.5738 -0.0600
  185POPC   H8R21273   0.773  -0.233   3.592  1.2570 -0.3089 -0.4375
  185POPC   H8S21274   0.843  -0.273   3.442  0.7627 -0.9512  0.3659
  185POPC   C2921275   0.768  -0.448   3.543 -0.4261  0.4806 -0.0390
  185POPC   H9121276   0.744  -0.509   3.454  0.6017  0.5089 -0.3531
  185POPC  C21021277   0.795  -0.507   3.663 -0.0976  0.3386  0.1353
  185POPC  H10121278   0.801  -0.617   3.668  1.2687  0.3597 -0.6673
  185POPC  C21121279   0.833  -0.432   3.793  0.4737 -0.1000  0.6752
  185POPC  H11R21280   0.746  -0.368   3.820 -1.3954 -1.5578 -1.4597
  185POPC  H11S21281   0.918  -0.364   3.771 -1.6245  2.2891 -0.4932
  185POPC  C21221282   0.874  -0.522   3.916  0.2376  0.0128 -0.1138
  185POPC  H12R21283   0.963  -0.587   3.897 -0.7787 -1.1063 -1.2085
  185POPC  H12S21284   0.789  -0.584   3.952 -0.2866  0.7503 -0.0749
  185POPC  C21321285   0.921  -0.433   4.029 -0.3854  0.4212  0.1631
  185POPC  H13R21286   0.842  -0.361   4.060 -1.7603 -0.5777 -0.8658
  185POPC  H13S21287   1.012  -0.374   4.010 -1.5797  2.7022  1.1046
  185POPC  C21421288   0.951  -0.516   4.151 -0.5952  1.1511  0.1235
  185POPC  H14R21289   1.029  -0.585   4.112  0.1006  1.2340  1.3003
  185POPC  H14S21290   0.859  -0.573   4.177 -0.5711  0.0080 -2.0865
  185POPC  C21521291   1.006  -0.436   4.267 -0.6725 -0.3513 -0.6028
  185POPC  H15R21292   1.094  -0.382   4.225 -1.5731  0.9840 -0.8325
  185POPC  H15S21293   1.050  -0.505   4.342 -2.2656 -1.1808 -0.3845
  185POPC  C21621294   0.909  -0.327   4.338  0.0434  0.2882 -0.4483
  185POPC  H16R21295   0.813  -0.381   4.356  0.1137  0.6240  1.0798
  185POPC  H16S21296   0.884  -0.241   4.272  1.3849  1.9386  1.1179
  185POPC  C21721297   0.963  -0.279   4.472 -0.2776 -0.3487 -0.1062
  185POPC  H17R21298   1.001  -0.371   4.521  2.3530 -0.6760 -2.5009
  185POPC  H17S21299   0.869  -0.246   4.521  0.7891 -0.2803  2.0024
  185POPC  C21821300   1.077  -0.177   4.461 -0.0772  0.5574 -0.8845
  185POPC  H18R21301   1.096  -0.123   4.557 -1.2753  0.2757 -0.4695
  185POPC  H18S21302   1.056  -0.106   4.379  0.6124  0.0657 -1.5040
  185POPC  H18T21303   1.176  -0.219   4.434 -1.2573 -3.0327 -0.2071
  185POPC   C3321304   1.004  -0.459   3.099 -0.4003  0.8386 -0.1190
  185POPC   H3X21305   1.095  -0.481   3.040  0.7743  1.9298  1.2052
  185POPC   H3Y21306   0.953  -0.555   3.121 -1.4304  0.8932 -2.0457
  185POPC   C3421307   1.053  -0.393   3.233  0.6641 -0.9232  0.0665
  185POPC   H4X21308   0.966  -0.355   3.291  0.2536 -0.4278 -0.8486
  185POPC   H4Y21309   1.113  -0.302   3.209  1.6204 -1.7374 -0.6978
  185POPC   C3521310   1.132  -0.484   3.331 -0.1630 -0.1756  0.4271
  185POPC   H5X21311   1.224  -0.518   3.280  0.3076 -1.4034  2.0228
  185POPC   H5Y21312   1.071  -0.576   3.345  2.3099 -1.6146  2.5829
  185POPC   C3621313   1.169  -0.421   3.467  0.5159  1.1031  0.2022
  185POPC   H6X21314   1.088  -0.358   3.511 -2.9324 -0.8033 -2.8804
  185POPC   H6Y21315   1.261  -0.359   3.463  0.4749  1.0885 -1.4443
  185POPC   C3721316   1.192  -0.538   3.566 -0.5196  0.5448  0.4813
  185POPC   H7X21317   1.258  -0.612   3.517 -1.3082 -0.3235  0.7086
  185POPC   H7Y21318   1.096  -0.593   3.581  0.7435 -1.4948  1.4341
  185POPC   C3821319   1.239  -0.493   3.703 -0.5531 -0.2005  0.2911
  185POPC   H8X21320   1.165  -0.419   3.740 -1.1043  1.2584 -3.3732
  185POPC   H8Y21321   1.337  -0.441   3.691 -0.7741  0.3359  0.7559
  185POPC   C3921322   1.273  -0.608   3.800  1.1668 -0.1583 -0.1510
  185POPC   H9X21323   1.354  -0.669   3.755  0.6245 -1.2146  0.2676
  185POPC   H9Y21324   1.185  -0.673   3.819 -0.2899  1.5443 -0.8029
  185POPC  C31021325   1.323  -0.572   3.942 -0.7617 -0.8338 -0.1311
  185POPC  H10X21326   1.243  -0.509   3.984  1.4662  1.7705  0.4752
  185POPC  H10Y21327   1.418  -0.517   3.925 -1.4426  0.4671  0.2150
  185POPC  C31121328   1.339  -0.700   4.032  0.0714  0.2212 -0.2136
  185POPC  H11X21329   1.403  -0.768   3.971  0.2562  0.0558  0.1648
  185POPC  H11Y21330   1.242  -0.753   4.039  0.1408  0.1364  0.1108
  185POPC  C31221331   1.397  -0.673   4.174  0.7546  0.1022 -0.2402
  185POPC  H12X21332   1.336  -0.584   4.201 -0.1925 -0.2028 -1.2991
  185POPC  H12Y21333   1.503  -0.639   4.168 -0.1690  3.5999  0.8256
  185POPC  C31321334   1.383  -0.791   4.276  0.1300  0.3828 -0.3924
  185POPC  H13X21335   1.443  -0.878   4.242 -1.3969 -0.8680  0.0135
  185POPC  H13Y21336   1.276  -0.821   4.281  0.5511 -1.3441 -1.2434
  185POPC  C31421337   1.437  -0.739   4.418 -0.4452  0.1315  0.1556
  185POPC  H14X21338   1.389  -0.644   4.448 -2.6297 -0.2011 -2.0052
  185POPC  H14Y21339   1.544  -0.713   4.428 -0.5317  0.2287  0.8753
  185POPC  C31521340   1.402  -0.849   4.523  0.1218  0.5276  0.5801
  185POPC  H15X21341   1.432  -0.950   4.490 -1.0498 -0.3238  1.9732
  185POPC  H15Y21342   1.291  -0.851   4.529  0.0239  2.3527  0.0528
  185POPC  C31621343   1.459  -0.821   4.668 -0.0782  0.6033 -0.2489
  185POPC  H16X21344   1.415  -0.892   4.741 -0.2966  1.3045  0.3092
  185POPC  H16Y21345   1.438  -0.721   4.710  0.6250  0.8487 -0.4750
  185POPC  H16Z21346   1.568  -0.841   4.675 -0.6361 -2.3878  3.1061
  186POPC     N21347   2.413   2.947   2.565  0.0500  0.0577 -0.9833
  186POPC   C1221348   2.258   2.920   2.575 -0.5792 -0.6677  0.3470
  186POPC  H12A21349   2.195   3.003   2.603  0.0352 -0.3938  0.9453
  186POPC  H12B21350   2.250   2.847   2.653 -0.0269 -1.0120  0.0904
  186POPC   C1321351   2.479   2.818   2.531  0.2910 -0.4196  0.3546
  186POPC  H13A21352   2.582   2.824   2.500  0.3500 -1.5732  0.2973
  186POPC  H13B21353   2.465   2.753   2.616 -2.1964 -0.5084 -0.0380
  186POPC  H13C21354   2.428   2.767   2.451 -1.2454 -1.1479  1.7409
  186POPC   C1421355   2.438   3.047   2.458 -0.5433  0.0192  0.3043
  186POPC  H14A21356   2.412   3.147   2.489  0.3928  0.6714 -0.9006
  186POPC  H14B21357   2.544   3.067   2.446 -0.7963  1.4504  0.3214
  186POPC  H14C21358   2.404   3.013   2.362 -1.3392  1.3746  0.0911
  186POPC   C1521359   2.460   2.992   2.695 -0.0926  0.0557  0.6038
  186POPC  H15A21360   2.414   3.083   2.729 -0.7544  0.2886 -0.8815
  186POPC  H15B21361   2.566   3.013   2.686  0.4421 -2.8575 -1.3166
  186POPC  H15C21362   2.448   2.920   2.775 -1.9841 -0.9544 -0.5383
  186POPC   C1121363   2.176   2.871   2.447  0.2897 -0.3471 -0.2766
  186POPC  H11A21364   2.188   2.951   2.371  0.6740 -0.1661 -0.0252
  186POPC  H11B21365   2.066   2.857   2.454  0.3696 -0.6839  0.4235
  186POPC     P21366   2.205   2.612   2.475  0.1660 -0.5337  0.4698
  186POPC   O1321367   2.334   2.547   2.456 -0.5369 -0.0992  0.0094
  186POPC   O1421368   2.085   2.550   2.415 -0.2390  0.8747  0.1403
  186POPC   O1221369   2.229   2.747   2.402 -0.3320 -0.1422  0.2408
  186POPC   O1121370   2.189   2.655   2.631  0.5584  0.9925  0.5001
  186POPC    C121371   2.083   2.596   2.720 -0.1615 -0.2334  0.9670
  186POPC    HA21372   2.073   2.486   2.706 -0.4085 -0.3009  1.6264
  186POPC    HB21373   1.982   2.624   2.685  0.0026  0.2692  0.8936
  186POPC    C221374   2.109   2.618   2.867 -0.0820 -0.7157 -0.5834
  186POPC    HS21375   2.094   2.728   2.868  0.1990 -0.5757 -3.1258
  186POPC   O2121376   2.234   2.562   2.908 -0.1058  0.3976  0.1812
  186POPC   C2121377   2.335   2.650   2.934  0.2713 -0.3426  0.5098
  186POPC   O2221378   2.329   2.769   2.924 -0.6341  0.3336 -0.2928
  186POPC   C2221379   2.446   2.564   2.997  0.7126 -0.1125  0.7906
  186POPC   H2R21380   2.534   2.603   2.942  0.5773 -0.3709  0.3882
  186POPC   H2S21381   2.425   2.458   2.972 -0.5915  0.3045 -0.0195
  186POPC    C321382   1.992   2.553   2.958 -0.1461 -1.0553  0.3107
  186POPC    HX21383   1.980   2.450   2.917  0.1142 -1.2866  0.8050
  186POPC    HY21384   1.897   2.603   2.929  0.1977 -0.6103 -0.0704
  186POPC   O3121385   2.035   2.548   3.092  0.0924  0.4270  0.1895
  186POPC   C3121386   2.008   2.655   3.164  0.1643 -0.2222  0.0962
  186POPC   O3221387   1.949   2.751   3.123 -0.0073 -1.1561  0.1713
  186POPC   C3221388   2.069   2.644   3.305 -0.6501  0.7649 -0.4448
  186POPC   H2X21389   2.153   2.717   3.313 -0.4845  0.8635 -2.5419
  186POPC   H2Y21390   2.108   2.540   3.313 -2.6427  0.1225  2.2344
  186POPC   C2321391   2.448   2.584   3.147 -0.4542 -0.0554  0.1448
  186POPC   H3R21392   2.340   2.570   3.169 -0.2022 -0.2632  1.3620
  186POPC   H3S21393   2.479   2.687   3.174  0.6747 -0.1417 -0.7531
  186POPC   C2421394   2.542   2.491   3.224  0.1654 -0.0352  0.4041
  186POPC   H4R21395   2.643   2.525   3.190  0.2958 -0.8514 -0.0546
  186POPC   H4S21396   2.530   2.383   3.201  3.0555 -0.6160  1.1859
  186POPC   C2521397   2.536   2.496   3.378 -0.1601  0.2019  0.3540
  186POPC   H5R21398   2.550   2.603   3.403  0.2782  0.5031 -1.0648
  186POPC   H5S21399   2.621   2.435   3.416 -0.1874 -0.3697 -0.4720
  186POPC   C2621400   2.409   2.437   3.429  0.0285 -0.2529 -0.0777
  186POPC   H6R21401   2.375   2.364   3.352  1.7338 -1.1364 -0.0328
  186POPC   H6S21402   2.348   2.528   3.450  1.1815 -0.0724  3.0259
  186POPC   C2721403   2.418   2.368   3.563 -0.1450 -0.1085 -0.2604
  186POPC   H7R21404   2.449   2.445   3.637  2.0189  0.5784 -1.7830
  186POPC   H7S21405   2.500   2.294   3.559  0.3292  0.4187 -0.5013
  186POPC   C2821406   2.287   2.304   3.597 -0.0933 -0.0423 -0.1409
  186POPC   H8R21407   2.304   2.211   3.539  2.6764  0.9574 -1.1165
  186POPC   H8S21408   2.190   2.345   3.565 -0.1085 -0.0155 -0.0611
  186POPC   C2921409   2.273   2.281   3.744  0.2258 -0.0664  0.1246
  186POPC   H9121410   2.367   2.279   3.802 -1.1321 -1.2497  2.4463
  186POPC  C21021411   2.168   2.252   3.821 -0.0494  0.3311 -0.1769
  186POPC  H10121412   2.186   2.258   3.930 -3.0243 -0.3721  0.4394
  186POPC  C21121413   2.019   2.232   3.780 -0.2177 -0.5088 -0.2979
  186POPC  H11R21414   1.988   2.126   3.782  0.7973 -0.8499 -1.5230
  186POPC  H11S21415   2.015   2.246   3.670  1.7674 -0.4379 -0.4086
  186POPC  C21221416   1.915   2.316   3.854 -0.1771  0.7225  1.0112
  186POPC  H12R21417   1.818   2.327   3.800  0.1274 -1.0157  0.0456
  186POPC  H12S21418   1.952   2.420   3.849 -1.0229  1.0116  0.4733
  186POPC  C21321419   1.896   2.290   3.999  0.0788  0.2067 -0.7731
  186POPC  H13R21420   1.990   2.309   4.054 -0.5471  1.5806 -0.1216
  186POPC  H13S21421   1.886   2.181   4.020 -1.3899  0.7160  1.5716
  186POPC  C21421422   1.777   2.355   4.060  0.5051  0.0961  0.2556
  186POPC  H14R21423   1.681   2.336   4.006  0.9789  0.9352 -0.9296
  186POPC  H14S21424   1.784   2.466   4.063  1.4422  0.1131 -1.3148
  186POPC  C21521425   1.760   2.318   4.215  0.2003 -0.2443  0.0999
  186POPC  H15R21426   1.672   2.370   4.259 -0.0169 -0.5183 -0.0068
  186POPC  H15S21427   1.847   2.353   4.276  0.0072 -0.7051  0.6521
  186POPC  C21621428   1.754   2.168   4.237 -0.5115 -0.4565 -0.3608
  186POPC  H16R21429   1.861   2.137   4.231 -0.0196  0.7959  1.1993
  186POPC  H16S21430   1.704   2.107   4.158  0.3078 -3.2263  1.1122
  186POPC  C21721431   1.687   2.136   4.375 -0.5664  0.3784 -0.1986
  186POPC  H17R21432   1.736   2.187   4.461 -1.0640 -0.2545  0.4691
  186POPC  H17S21433   1.700   2.026   4.387  0.2546  0.4508 -0.3609
  186POPC  C21821434   1.537   2.161   4.390 -0.4749 -0.1569  0.0721
  186POPC  H18R21435   1.485   2.127   4.298 -1.2475  1.7441 -0.2416
  186POPC  H18S21436   1.507   2.103   4.480  1.7060 -0.4758  0.6554
  186POPC  H18T21437   1.512   2.268   4.406 -1.7256 -0.3129 -0.7413
  186POPC   C3321438   1.984   2.673   3.431 -0.3634  0.2986  0.0601
  186POPC   H3X21439   1.884   2.625   3.422 -1.3771  1.8712  2.0417
  186POPC   H3Y21440   1.957   2.780   3.436 -1.7241 -0.0635  1.2289
  186POPC   C3421441   2.046   2.618   3.561  0.5435  0.2531  0.3707
  186POPC   H4X21442   2.065   2.513   3.529  0.0926  0.4256 -0.4778
  186POPC   H4Y21443   1.962   2.627   3.633  2.0743 -1.2096  2.4933
  186POPC   C3521444   2.162   2.704   3.614  0.4851 -0.3059  0.6358
  186POPC   H5X21445   2.139   2.812   3.625 -1.7485 -0.6136 -0.4157
  186POPC   H5Y21446   2.243   2.694   3.539  0.9940 -0.6849  1.2215
  186POPC   C3621447   2.204   2.657   3.757 -0.1692  0.0264  0.1054
  186POPC   H6X21448   2.307   2.697   3.756  1.5174 -3.6667 -3.6635
  186POPC   H6Y21449   2.216   2.546   3.756  0.4295  0.0845  0.5941
  186POPC   C3721450   2.121   2.716   3.865  0.3838 -0.4445  0.1683
  186POPC   H7X21451   2.016   2.737   3.832  1.2627  0.9638 -1.9385
  186POPC   H7Y21452   2.165   2.817   3.876 -0.1715 -0.1980  0.1693
  186POPC   C3821453   2.126   2.639   4.001 -0.4654  0.1845  1.0015
  186POPC   H8X21454   2.225   2.587   4.001  0.4108  1.6712 -1.6479
  186POPC   H8Y21455   2.047   2.561   3.998 -0.6234  0.3529  0.8333
  186POPC   C3921456   2.103   2.726   4.124 -0.1151  0.5365 -0.4135
  186POPC   H9X21457   2.021   2.795   4.097 -0.2443 -1.0008 -4.8267
  186POPC   H9Y21458   2.186   2.799   4.135  1.2255 -0.5970 -2.2727
  186POPC  C31021459   2.070   2.646   4.250 -0.1759  0.2450  0.2355
  186POPC  H10X21460   2.151   2.579   4.286  1.4442  2.1294  0.2622
  186POPC  H10Y21461   1.979   2.582   4.237 -0.3979  0.5312  0.3718
  186POPC  C31121462   2.039   2.743   4.370 -0.1707 -0.3484  0.2476
  186POPC  H11X21463   1.939   2.785   4.349  0.3658  0.4434 -0.7816
  186POPC  H11Y21464   2.107   2.831   4.364  1.0236 -1.3240 -1.4170
  186POPC  C31221465   2.039   2.686   4.511  0.6489 -0.4861  0.2996
  186POPC  H12X21466   1.950   2.620   4.516 -0.4828  1.0500  1.3292
  186POPC  H12Y21467   2.017   2.772   4.578  0.0969 -2.7699  3.2648
  186POPC  C31321468   2.164   2.610   4.552 -0.0659 -0.6573  0.1467
  186POPC  H13X21469   2.252   2.678   4.546  0.2460 -0.7749  2.5502
  186POPC  H13Y21470   2.190   2.529   4.481 -0.3760 -0.6648  0.0407
  186POPC  C31421471   2.155   2.554   4.695 -0.1214 -0.0214 -0.7274
  186POPC  H14X21472   2.115   2.639   4.753  0.3837 -1.2487  1.5510
  186POPC  H14Y21473   2.247   2.521   4.749 -2.0834 -1.3477  2.0482
  186POPC  C31521474   2.058   2.441   4.716 -0.0194 -0.6043 -0.0763
  186POPC  H15X21475   2.113   2.356   4.669 -1.2345 -0.7098 -1.3868
  186POPC  H15Y21476   1.961   2.448   4.662 -1.0615 -0.3956  1.7687
  186POPC  C31621477   2.022   2.409   4.859 -0.4774 -0.1228 -0.2823
  186POPC  H16X21478   1.927   2.353   4.859  0.5747 -2.0182 -1.7946
  186POPC  H16Y21479   1.996   2.500   4.919 -1.8809 -1.1143  0.6752
  186POPC  H16Z21480   2.099   2.354   4.918 -0.2247  1.0583  0.5464
  187POPC     N21481   5.511   6.715   2.554  0.0734 -0.7308 -0.5055
  187POPC   C1221482   5.497   6.581   2.633 -0.9344 -0.8038 -0.1142
  187POPC  H12A21483   5.558   6.510   2.579  0.1713  1.2412 -1.6774
  187POPC  H12B21484   5.392   6.563   2.650 -1.2499  0.9509 -0.0522
  187POPC   C1321485   5.438   6.685   2.428 -0.9293  0.3560 -0.1405
  187POPC  H13A21486   5.477   6.746   2.348  1.8580  0.4405  1.1618
  187POPC  H13B21487   5.438   6.579   2.408 -0.8186  0.2438  0.4281
  187POPC  H13C21488   5.333   6.700   2.449 -1.0569 -2.0241  1.4396
  187POPC   C1421489   5.454   6.826   2.633  0.5360 -0.0744  0.1190
  187POPC  H14A21490   5.437   6.913   2.571 -0.9917  0.7606  1.6135
  187POPC  H14B21491   5.350   6.808   2.654  0.6797 -1.2373 -0.1396
  187POPC  H14C21492   5.514   6.855   2.718 -0.3519 -0.5573  0.9324
  187POPC   C1521493   5.655   6.740   2.523  0.0475 -0.5209 -0.0926
  187POPC  H15A21494   5.695   6.669   2.452  0.7169  0.3222 -0.5920
  187POPC  H15B21495   5.716   6.726   2.611  0.4226  0.0824 -0.2467
  187POPC  H15C21496   5.673   6.843   2.496 -0.5891  0.5147  3.0360
  187POPC   C1121497   5.566   6.585   2.773  0.5492  0.1213  0.8731
  187POPC  H11A21498   5.520   6.507   2.837  0.9201 -0.3231  0.6014
  187POPC  H11B21499   5.529   6.680   2.818 -1.1108  0.6007 -1.3290
  187POPC     P21500   5.777   6.438   2.750 -0.0727  0.0176 -0.0320
  187POPC   O1321501   5.924   6.463   2.755 -0.2561 -0.2214 -0.4171
  187POPC   O1421502   5.723   6.381   2.627  0.4508 -0.0268 -0.0228
  187POPC   O1221503   5.709   6.577   2.763  0.3116  0.3642  0.0447
  187POPC   O1121504   5.721   6.352   2.866  0.3165 -0.2041 -0.1658
  187POPC    C121505   5.711   6.406   2.994 -1.0187  0.2021  0.0700
  187POPC    HA21506   5.606   6.387   3.024 -0.3515 -1.0889  1.7567
  187POPC    HB21507   5.732   6.515   3.000  0.8681 -0.1393  0.1526
  187POPC    C221508   5.786   6.336   3.113 -0.0839 -0.3177 -0.1123
  187POPC    HS21509   5.746   6.375   3.209  2.3734  2.6901 -0.1562
  187POPC   O2121510   5.916   6.372   3.091 -0.1791  0.2066  0.2020
  187POPC   C2121511   5.992   6.383   3.201 -0.1531  0.6354 -0.1670
  187POPC   O2221512   5.954   6.355   3.311  0.5044 -0.1011 -0.3838
  187POPC   C2221513   6.122   6.461   3.176  0.5920  0.1790  0.0784
  187POPC   H2R21514   6.128   6.538   3.256 -1.3109  0.0550  0.3870
  187POPC   H2S21515   6.108   6.506   3.076  2.4489  1.1951  0.2321
  187POPC    C321516   5.773   6.181   3.103  0.4743  0.2976  0.0007
  187POPC    HX21517   5.821   6.135   3.014 -3.3859 -0.5981 -1.8314
  187POPC    HY21518   5.667   6.153   3.084  0.8936  0.0682 -2.3799
  187POPC   O3121519   5.822   6.114   3.219  0.1701 -0.3736  0.0982
  187POPC   C3121520   5.752   6.129   3.337  0.2742 -0.0489  0.6393
  187POPC   O3221521   5.641   6.179   3.348  0.1655  0.1032 -0.1546
  187POPC   C3221522   5.826   6.054   3.443 -0.4298  0.3875 -0.1852
  187POPC   H2X21523   5.933   6.068   3.416 -0.0368 -1.0449  0.5689
  187POPC   H2Y21524   5.810   5.945   3.432 -1.2857  0.6123 -1.4774
  187POPC   C2321525   6.241   6.361   3.184  0.6414 -0.4704  0.4937
  187POPC   H3R21526   6.332   6.422   3.198  0.3623 -0.4413  2.4347
  187POPC   H3S21527   6.243   6.297   3.093 -2.4074 -0.4108  0.2620
  187POPC   C2421528   6.241   6.279   3.314  0.3754  0.5236 -0.4905
  187POPC   H4R21529   6.336   6.222   3.306  0.3236  0.3056  0.4014
  187POPC   H4S21530   6.160   6.203   3.313  2.1055 -1.4239 -0.9038
  187POPC   C2521531   6.244   6.365   3.444 -0.1460  0.1914 -0.1715
  187POPC   H5R21532   6.153   6.428   3.450  0.4848  0.9578  1.9263
  187POPC   H5S21533   6.326   6.439   3.451 -2.1393  2.5478 -0.1255
  187POPC   C2621534   6.254   6.271   3.560  0.1722  0.2886 -0.3492
  187POPC   H6R21535   6.352   6.219   3.547  0.3619 -0.2867  2.7644
  187POPC   H6S21536   6.169   6.200   3.560 -0.0693  0.5504  1.1339
  187POPC   C2721537   6.282   6.337   3.696  0.0894 -0.0798  0.2067
  187POPC   H7R21538   6.228   6.435   3.702 -1.2398 -0.7621 -0.2696
  187POPC   H7S21539   6.388   6.368   3.701 -0.4841  2.2041 -0.5055
  187POPC   C2821540   6.253   6.262   3.826 -0.3962 -0.0807 -0.5313
  187POPC   H8R21541   6.144   6.240   3.836 -0.3551  0.4698  1.7385
  187POPC   H8S21542   6.282   6.321   3.916 -2.0562  1.8087 -1.1453
  187POPC   C2921543   6.329   6.134   3.827  0.2440  0.1432 -0.2594
  187POPC   H9121544   6.331   6.075   3.734 -0.8091  0.0886 -0.2597
  187POPC  C21021545   6.392   6.082   3.933  0.1899  0.3686 -1.1023
  187POPC  H10121546   6.424   5.976   3.934  0.2718  0.3975 -0.4768
  187POPC  C21121547   6.396   6.137   4.077  0.2802 -0.3898  0.0753
  187POPC  H11R21548   6.430   6.243   4.079  1.7015 -0.7987  2.9557
  187POPC  H11S21549   6.481   6.095   4.136  1.2747  0.3528 -0.7757
  187POPC  C21221550   6.267   6.130   4.167  0.4953 -0.2081  0.7147
  187POPC  H12R21551   6.242   6.023   4.182 -0.5781  0.3078  3.1744
  187POPC  H12S21552   6.178   6.178   4.122  1.7840  1.2937 -0.3155
  187POPC  C21321553   6.284   6.192   4.305 -0.4190  0.3362 -0.1834
  187POPC  H13R21554   6.321   6.296   4.297 -1.3628  0.5643 -2.0795
  187POPC  H13S21555   6.370   6.140   4.353  0.1806  0.3138 -1.2736
  187POPC  C21421556   6.159   6.193   4.401  0.1870  0.2637 -0.3905
  187POPC  H14R21557   6.149   6.087   4.432  1.3730  0.4077  0.6049
  187POPC  H14S21558   6.066   6.224   4.349  0.6804 -0.4657 -1.7654
  187POPC  C21521559   6.181   6.270   4.533  0.4757 -0.4343  0.6275
  187POPC  H15R21560   6.246   6.359   4.518  0.6886 -0.6385  0.3210
  187POPC  H15S21561   6.245   6.208   4.599 -1.5393 -1.7363  1.4486
  187POPC  C21621562   6.048   6.304   4.603  0.4144  0.1435 -0.0609
  187POPC  H16R21563   5.997   6.206   4.598  1.5124 -0.4227 -0.6335
  187POPC  H16S21564   5.996   6.377   4.537  1.9464  0.8279 -0.5863
  187POPC  C21721565   6.056   6.360   4.749  0.2349  0.4062  0.8400
  187POPC  H17R21566   6.125   6.447   4.750  2.2539 -1.1280  0.8281
  187POPC  H17S21567   6.107   6.286   4.814  0.5514  0.1034  0.2491
  187POPC  C21821568   5.915   6.384   4.801  0.3940  0.7218 -0.4009
  187POPC  H18R21569   5.924   6.416   4.907  0.9890  3.5041 -1.1946
  187POPC  H18S21570   5.851   6.294   4.804  0.9389  0.3170 -0.6969
  187POPC  H18T21571   5.858   6.459   4.743  0.5503  0.8839 -0.3474
  187POPC   C3321572   5.810   6.117   3.578  0.0787 -0.0789 -0.5003
  187POPC   H3X21573   5.702   6.128   3.600  0.4414 -1.0880  2.2553
  187POPC   H3Y21574   5.855   6.218   3.590 -0.4132 -0.1081  2.2499
  187POPC   C3421575   5.868   6.029   3.684 -0.4723  0.1055  0.3597
  187POPC   H4X21576   5.979   6.026   3.672 -0.1940  0.7771  2.3361
  187POPC   H4Y21577   5.830   5.925   3.690  0.6447 -0.2947  0.8367
  187POPC   C3521578   5.847   6.083   3.829  0.0298  0.3498  1.3216
  187POPC   H5X21579   5.745   6.123   3.842 -1.2980 -2.8412  1.6794
  187POPC   H5Y21580   5.921   6.165   3.844 -0.1052  0.7875 -0.2721
  187POPC   C3621581   5.881   5.988   3.938 -0.2352  0.0734 -0.3494
  187POPC   H6X21582   5.992   5.978   3.943 -0.2432  0.0539 -0.2203
  187POPC   H6Y21583   5.846   5.887   3.907  3.7997 -1.4543 -0.6457
  187POPC   C3721584   5.832   6.050   4.068 -0.5411  0.3408  0.3884
  187POPC   H7X21585   5.722   6.042   4.056 -0.7428 -0.9239  2.5999
  187POPC   H7Y21586   5.862   6.155   4.088 -1.9182  0.5277  1.5943
  187POPC   C3821587   5.882   5.970   4.183  0.7021 -0.3692 -0.4134
  187POPC   H8X21588   5.989   5.991   4.202  0.2895  0.1499  1.5827
  187POPC   H8Y21589   5.868   5.862   4.161 -0.3113 -0.4078  0.3088
  187POPC   C3921590   5.798   6.008   4.311  0.2118 -0.0975 -0.2134
  187POPC   H9X21591   5.693   5.978   4.287  0.5807 -1.6131 -0.0340
  187POPC   H9Y21592   5.800   6.119   4.315  0.7154 -0.1051 -0.1831
  187POPC  C31021593   5.839   5.946   4.446 -0.0598  0.4310  0.5236
  187POPC  H10X21594   5.911   6.000   4.511 -0.3406  0.5573  0.7313
  187POPC  H10Y21595   5.870   5.845   4.411  0.7488  1.5318 -2.2394
  187POPC  C31121596   5.732   5.923   4.551 -0.5226 -0.9009 -0.6343
  187POPC  H11X21597   5.768   5.869   4.642  0.6539  0.0349 -0.5274
  187POPC  H11Y21598   5.647   5.866   4.508 -0.0902 -1.0833 -1.2533
  187POPC  C31221599   5.672   6.052   4.602  0.0150 -0.4093  0.5225
  187POPC  H12X21600   5.632   6.100   4.510  2.0849 -1.7980 -1.1750
  187POPC  H12Y21601   5.745   6.122   4.648 -0.2136  0.1032  0.1208
  187POPC  C31321602   5.553   6.032   4.703  0.6313 -0.8056  0.1897
  187POPC  H13X21603   5.588   5.973   4.790  0.7288  0.9341  1.3928
  187POPC  H13Y21604   5.476   5.978   4.645  2.5455 -0.8351 -2.5099
  187POPC  C31421605   5.493   6.162   4.757 -0.2676  0.5122 -0.2822
  187POPC  H14X21606   5.423   6.192   4.677 -2.6232 -1.7021  0.8082
  187POPC  H14Y21607   5.570   6.242   4.768 -1.3454  1.4700  0.6043
  187POPC  C31521608   5.414   6.145   4.893  0.5849  0.6391 -0.6481
  187POPC  H15X21609   5.492   6.134   4.971 -0.1167 -1.2465 -0.1517
  187POPC  H15Y21610   5.364   6.047   4.901  0.0399  0.7965 -1.8999
  187POPC  C31621611   5.316   6.253   4.928  0.1554 -0.0749  0.2333
  187POPC  H16X21612   5.219   6.254   4.874 -0.7333 -3.4512  1.5698
  187POPC  H16Y21613   5.360   6.353   4.909  2.9980 -1.2385  0.2140
  187POPC  H16Z21614   5.276   6.247   5.031  0.1990 -0.9464  0.2062
  188POPC     N21615   3.100   2.094   2.621  0.7483 -0.0909 -0.0639
  188POPC   C1221616   2.978   2.044   2.693 -0.1300  0.6998  0.2454
  188POPC  H12A21617   2.894   2.107   2.669 -0.9457  0.3215  1.9052
  188POPC  H12B21618   2.990   2.045   2.800 -1.7246 -3.0108  0.6126
  188POPC   C1321619   3.229   2.030   2.670 -0.3147 -0.4160  0.4442
  188POPC  H13A21620   3.238   2.032   2.777  2.4454 -1.0870  0.3102
  188POPC  H13B21621   3.213   1.927   2.641 -0.0130 -1.2241  2.9602
  188POPC  H13C21622   3.314   2.082   2.626 -0.9299  1.2630  1.1675
  188POPC   C1421623   3.089   2.078   2.471  0.1540 -0.2349 -0.0038
  188POPC  H14A21624   3.021   2.147   2.425  2.1312  0.7300 -1.6338
  188POPC  H14B21625   3.190   2.099   2.439  0.7782 -1.3631  1.0926
  188POPC  H14C21626   3.054   1.978   2.453 -2.7180  0.5406  0.7883
  188POPC   C1521627   3.092   2.235   2.635  0.6292 -0.5013  0.1201
  188POPC  H15A21628   3.114   2.270   2.735 -0.7670  1.6204 -0.2474
  188POPC  H15B21629   2.995   2.283   2.632  2.2774  3.2055 -0.0467
  188POPC  H15C21630   3.150   2.287   2.559 -0.9755  0.8055 -0.2502
  188POPC   C1121631   2.946   1.891   2.661 -0.1712 -0.2426 -0.4503
  188POPC  H11A21632   2.872   1.852   2.734 -1.1403 -0.1297 -1.3454
  188POPC  H11B21633   3.029   1.822   2.688 -1.1954 -1.6520 -0.8076
  188POPC     P21634   2.738   1.914   2.501  0.2242  0.1549  0.3518
  188POPC   O1321635   2.698   1.878   2.360  0.0075  0.3490 -0.3132
  188POPC   O1421636   2.723   2.056   2.535  0.0792 -0.0250 -0.4232
  188POPC   O1221637   2.892   1.870   2.533  0.0131 -0.0683 -0.1039
  188POPC   O1121638   2.660   1.816   2.608 -0.4342 -0.6274 -0.2469
  188POPC    C121639   2.514   1.835   2.626  0.2602  0.1465  0.3130
  188POPC    HA21640   2.468   1.738   2.654 -1.2526  0.0625 -2.1816
  188POPC    HB21641   2.464   1.871   2.534 -0.2362  1.3714  1.0289
  188POPC    C221642   2.468   1.940   2.731  0.9398  0.1871  0.2090
  188POPC    HS21643   2.501   2.036   2.686 -0.2446 -0.0370 -1.2222
  188POPC   O2121644   2.534   1.907   2.851 -0.2229 -0.3634  0.0218
  188POPC   C2121645   2.592   2.009   2.912  0.7064  0.6058 -0.1924
  188POPC   O2221646   2.619   2.114   2.860  0.1504 -0.1483 -0.0638
  188POPC   C2221647   2.635   1.972   3.055 -0.4561 -0.0097 -0.3538
  188POPC   H2R21648   2.658   1.863   3.063 -1.3708 -0.3397 -1.8234
  188POPC   H2S21649   2.540   1.988   3.110 -0.0296  0.5685  0.2253
  188POPC    C321650   2.308   1.939   2.741  0.5460  0.1983  0.0718
  188POPC    HX21651   2.266   1.838   2.761  1.1240 -0.0938 -0.1801
  188POPC    HY21652   2.260   1.966   2.645  0.9158 -0.2645 -0.2487
  188POPC   O3121653   2.284   2.025   2.855 -0.2200 -0.0987 -0.1092
  188POPC   C3121654   2.246   2.147   2.822 -0.1500 -0.2160  0.5783
  188POPC   O3221655   2.284   2.208   2.720 -0.1727  0.0487 -0.4592
  188POPC   C3221656   2.157   2.198   2.940 -0.4005 -0.0375 -0.4355
  188POPC   H2X21657   2.078   2.122   2.957  0.1844  0.0173  3.1721
  188POPC   H2Y21658   2.104   2.288   2.900  1.9476  1.1531 -1.0302
  188POPC   C2321659   2.740   2.065   3.128 -0.2337 -0.3983 -0.5158
  188POPC   H3R21660   2.689   2.164   3.125 -1.1071 -0.8207 -0.0692
  188POPC   H3S21661   2.841   2.064   3.082 -0.8588 -0.9800 -1.9287
  188POPC   C2421662   2.747   2.025   3.278  0.0115 -0.2186 -0.4535
  188POPC   H4R21663   2.833   1.954   3.284 -0.3786 -0.6370  0.4045
  188POPC   H4S21664   2.659   1.960   3.300  0.3539 -0.8255 -0.8435
  188POPC   C2521665   2.763   2.131   3.382  0.4940 -0.9083 -0.2444
  188POPC   H5R21666   2.674   2.197   3.376  0.9252 -0.3029 -0.1638
  188POPC   H5S21667   2.853   2.194   3.362 -0.2673  0.0137 -0.8886
  188POPC   C2621668   2.768   2.073   3.526  0.0019  0.5194 -0.0347
  188POPC   H6R21669   2.833   1.984   3.512  0.5054  0.8626  0.1035
  188POPC   H6S21670   2.668   2.039   3.561 -0.3307  2.1234  0.6094
  188POPC   C2721671   2.828   2.163   3.625 -0.3250  0.3557 -0.6209
  188POPC   H7R21672   2.799   2.269   3.613  2.2722  1.7150  3.1150
  188POPC   H7S21673   2.938   2.163   3.609 -0.2526  0.0169 -0.1450
  188POPC   C2821674   2.815   2.122   3.772  0.4858  0.0903 -0.5189
  188POPC   H8R21675   2.882   2.189   3.831  2.9043 -0.3690 -2.5594
  188POPC   H8S21676   2.846   2.017   3.792  1.9855  0.5083 -0.5141
  188POPC   C2921677   2.671   2.148   3.820  0.2118 -0.3567 -0.3049
  188POPC   H9121678   2.596   2.174   3.743  0.6692  2.1828  0.0167
  188POPC  C21021679   2.632   2.160   3.951 -0.0984  0.1549 -0.1045
  188POPC  H10121680   2.532   2.200   3.975 -1.3888 -3.4191  1.2378
  188POPC  C21121681   2.720   2.140   4.072 -0.0530  0.2722  0.3978
  188POPC  H11R21682   2.718   2.221   4.148 -1.8919  2.0018 -1.3520
  188POPC  H11S21683   2.827   2.137   4.044 -0.3171  1.4400 -0.8576
  188POPC  C21221684   2.674   2.000   4.125  0.2038 -0.0203 -0.5622
  188POPC  H12R21685   2.707   1.914   4.062  0.0180 -0.7215  0.2642
  188POPC  H12S21686   2.564   1.993   4.131  0.2445  0.2975  1.6695
  188POPC  C21321687   2.747   1.961   4.257 -0.2969  0.6415  0.4719
  188POPC  H13R21688   2.854   1.992   4.247 -0.1624  0.9626  2.3660
  188POPC  H13S21689   2.734   1.854   4.283 -1.3446  0.7283  0.3106
  188POPC  C21421690   2.689   2.045   4.375 -0.2991 -0.2741  0.0391
  188POPC  H14R21691   2.579   2.040   4.365 -0.1561 -1.6888 -1.1632
  188POPC  H14S21692   2.715   2.153   4.374  1.0483 -0.5230  1.8748
  188POPC  C21521693   2.717   1.978   4.508 -0.0239  0.5239 -0.7324
  188POPC  H15R21694   2.665   1.880   4.504 -0.7248  0.8282  0.4906
  188POPC  H15S21695   2.661   2.042   4.579  0.9861  0.6018  0.0076
  188POPC  C21621696   2.861   1.969   4.562 -0.6167  0.0267 -0.1736
  188POPC  H16R21697   2.902   2.072   4.559  0.8804 -0.5340  0.3514
  188POPC  H16S21698   2.927   1.908   4.496 -0.9922 -0.9619  0.3457
  188POPC  C21721699   2.882   1.907   4.706 -0.3399 -0.6087 -0.3526
  188POPC  H17R21700   2.989   1.884   4.729 -0.4428 -0.4244  0.3408
  188POPC  H17S21701   2.832   1.808   4.710 -1.9837  0.0250 -2.7892
  188POPC  C21821702   2.825   1.988   4.814  0.3622  0.1371 -0.6799
  188POPC  H18R21703   2.723   2.027   4.789 -0.1348 -0.1838  0.7356
  188POPC  H18S21704   2.887   2.069   4.858 -1.9212  1.3158  0.6117
  188POPC  H18T21705   2.817   1.913   4.896 -0.5710  0.9319 -0.0158
  188POPC   C3321706   2.241   2.224   3.071 -0.2376  0.7895  0.0081
  188POPC   H3X21707   2.249   2.334   3.085  1.9302  0.6368  0.2798
  188POPC   H3Y21708   2.347   2.194   3.059  0.1844  0.5743  3.4000
  188POPC   C3421709   2.185   2.157   3.197  1.2248  0.2063 -0.1397
  188POPC   H4X21710   2.248   2.159   3.288 -1.9107 -1.3370  2.2384
  188POPC   H4Y21711   2.172   2.050   3.171  0.4959  0.5267 -1.1677
  188POPC   C3521712   2.049   2.214   3.242  0.2369  0.5023  0.3433
  188POPC   H5X21713   1.986   2.214   3.150  0.2419 -0.2513  0.3296
  188POPC   H5Y21714   2.062   2.321   3.267  0.6014  0.1574  1.7360
  188POPC   C3621715   1.992   2.149   3.361  0.4860 -0.6745 -0.8007
  188POPC   H6X21716   2.055   2.161   3.452 -1.0970  0.0803  0.2439
  188POPC   H6Y21717   1.983   2.041   3.340 -0.8723 -1.3447  2.5494
  188POPC   C3721718   1.863   2.210   3.395  0.6185 -0.5645 -0.3355
  188POPC   H7X21719   1.806   2.221   3.300  3.3434 -0.8774 -2.1311
  188POPC   H7Y21720   1.874   2.308   3.446 -1.1901  0.4592 -1.7787
  188POPC   C3821721   1.782   2.124   3.495  0.1229 -0.3593 -0.3428
  188POPC   H8X21722   1.842   2.133   3.588 -0.9241  0.0138  0.3221
  188POPC   H8Y21723   1.766   2.016   3.474 -1.5101 -0.5326  1.4825
  188POPC   C3921724   1.655   2.199   3.539 -0.5183  0.4542 -0.5766
  188POPC   H9X21725   1.605   2.242   3.449 -1.1296 -1.2718 -1.1044
  188POPC   H9Y21726   1.689   2.278   3.609 -1.9094  0.3772  0.2205
  188POPC  C31021727   1.562   2.099   3.609  0.0663  0.5497 -0.2959
  188POPC  H10X21728   1.606   2.070   3.707 -2.6543  0.1797  0.8882
  188POPC  H10Y21729   1.555   2.004   3.552 -0.8181 -0.0519  0.7882
  188POPC  C31121730   1.419   2.151   3.621 -0.4582  0.3431  0.2059
  188POPC  H11X21731   1.367   2.166   3.524 -1.7314  0.3949  0.8774
  188POPC  H11Y21732   1.427   2.251   3.669 -3.3378 -0.2587  2.2106
  188POPC  C31221733   1.324   2.072   3.710  0.0731 -0.1694  0.6957
  188POPC  H12X21734   1.335   1.965   3.682 -1.8031 -0.7390  1.9336
  188POPC  H12Y21735   1.217   2.098   3.695 -0.0815 -1.8210 -1.3886
  188POPC  C31321736   1.368   2.073   3.860  0.3311 -0.1515 -0.3302
  188POPC  H13X21737   1.385   2.179   3.886  1.5564 -0.4954  0.3518
  188POPC  H13Y21738   1.463   2.019   3.881  0.1697  0.0300  0.9658
  188POPC  C31421739   1.275   2.007   3.956 -0.2629 -0.3322 -0.0718
  188POPC  H14X21740   1.257   1.901   3.928 -1.3098  0.2304 -1.6322
  188POPC  H14Y21741   1.178   2.055   3.931 -0.6696 -1.1539 -0.0991
  188POPC  C31521742   1.313   2.017   4.104  0.4029 -0.2291 -0.4205
  188POPC  H15X21743   1.305   2.122   4.139 -0.6492 -0.8686  1.4238
  188POPC  H15Y21744   1.416   1.978   4.119  0.9310  0.7355 -1.4552
  188POPC  C31621745   1.213   1.929   4.178 -0.3677 -0.2065 -0.4889
  188POPC  H16X21746   1.221   1.820   4.156 -2.3201 -0.6393  0.6652
  188POPC  H16Y21747   1.109   1.958   4.153 -0.0789  1.4563  0.1357
  188POPC  H16Z21748   1.229   1.943   4.287  0.8841 -0.0895 -0.6700
  189SAPI   C1221749   2.918   6.314   6.812 -0.7175  0.0028  0.5978
  189SAPI    H221750   2.909   6.406   6.750 -0.4058  0.4752  1.2393
  189SAPI    O221751   2.875   6.209   6.723 -0.0896 -0.2294  0.2488
  189SAPI   HO221752   2.780   6.206   6.714 -0.3020  1.8026  1.1100
  189SAPI   C1321753   3.060   6.292   6.850 -0.0148  0.4745 -0.0780
  189SAPI    H321754   3.082   6.368   6.928 -3.2617 -1.3924  2.9740
  189SAPI    O321755   3.139   6.316   6.739 -0.3239 -0.2129 -0.2214
  189SAPI   HO321756   3.150   6.228   6.700 -1.4143 -1.7072  2.5902
  189SAPI   C1421757   3.075   6.157   6.920 -0.2903  0.1226 -0.0024
  189SAPI    H421758   3.072   6.072   6.847 -0.0779  0.1911 -0.0918
  189SAPI    O421759   3.205   6.162   6.971 -0.0944  0.5355 -0.0668
  189SAPI   HO421760   3.260   6.217   6.914  0.1817  1.5923  1.1704
  189SAPI   C1521761   2.976   6.145   7.034 -1.0758  1.7336 -0.2763
  189SAPI    H521762   3.012   6.200   7.124 -0.1097 -1.1032  1.2078
  189SAPI    O521763   2.975   6.005   7.075 -0.1822  0.7018  0.5989
  189SAPI   HO521764   2.966   5.955   6.994  2.4539  0.0037  0.6715
  189SAPI   C1621765   2.833   6.190   7.013 -0.1327  0.6276 -0.1666
  189SAPI    H621766   2.783   6.115   6.949 -1.3756  1.9851 -0.8426
  189SAPI    O621767   2.762   6.194   7.135 -0.0737 -0.1846  0.8726
  189SAPI   HO621768   2.716   6.111   7.152 -1.6327  0.9028  2.3125
  189SAPI   C1121769   2.818   6.324   6.928 -0.0211  0.3618 -0.2243
  189SAPI    H121770   2.860   6.405   6.991  1.2625 -0.0827 -0.4818
  189SAPI     P21771   2.616   6.495   6.874 -0.6542  0.0897  0.0642
  189SAPI   O1321772   2.652   6.582   6.987 -0.2185 -0.1700 -0.3038
  189SAPI   O1421773   2.470   6.472   6.847 -0.6743  0.1553  0.1960
  189SAPI   O1221774   2.683   6.351   6.885  0.0411  0.0118 -0.2147
  189SAPI   O1121775   2.680   6.547   6.733 -0.1297  0.0305  0.1213
  189SAPI    C121776   2.612   6.546   6.609  0.5306 -0.5225 -0.8074
  189SAPI    HA21777   2.523   6.612   6.612  2.1884  1.7865  0.2140
  189SAPI    HB21778   2.678   6.594   6.534 -3.1131  2.1670 -2.5860
  189SAPI    C221779   2.569   6.408   6.561 -0.3604  0.1803  0.0333
  189SAPI    HS21780   2.562   6.342   6.650 -0.0052  2.2182  1.6374
  189SAPI   O2121781   2.661   6.363   6.456  0.4031 -0.7565  0.0779
  189SAPI   C2121782   2.679   6.231   6.447  0.0607 -0.4325 -0.8345
  189SAPI   O2221783   2.625   6.159   6.530  0.2744  0.1612  0.0209
  189SAPI   C2221784   2.773   6.199   6.330 -0.2563  0.5312 -0.1051
  189SAPI   H2R21785   2.781   6.288   6.264 -0.4944  0.7893  0.2125
  189SAPI   H2S21786   2.876   6.174   6.364  0.5627  1.9786 -1.4369
  189SAPI    C321787   2.426   6.421   6.502 -0.3695 -0.4318  0.2568
  189SAPI    HX21788   2.360   6.472   6.576 -0.4012 -1.8250  1.2314
  189SAPI    HY21789   2.377   6.325   6.474 -4.3925  1.3368  0.4364
  189SAPI   O3121790   2.432   6.502   6.382 -0.1079  0.7129  0.6186
  189SAPI   C3121791   2.448   6.433   6.266  0.5163 -0.5597  0.0008
  189SAPI   O3221792   2.459   6.317   6.255  0.1937  0.3499  0.0988
  189SAPI   C3221793   2.437   6.529   6.147  0.0181 -0.0048 -0.2706
  189SAPI   H2X21794   2.505   6.616   6.158  0.7301 -0.4895 -0.7467
  189SAPI   H2Y21795   2.333   6.569   6.144 -0.4848 -1.0468  1.6124
  189SAPI   C2321796   2.711   6.085   6.242 -0.2217  0.1306  0.4024
  189SAPI   H3R21797   2.607   6.114   6.214  0.1675  1.0566 -0.1318
  189SAPI   H3S21798   2.695   5.996   6.307  1.9699 -0.9451 -0.4414
  189SAPI   C2421799   2.797   6.044   6.125  0.7144 -0.0429 -0.3049
  189SAPI   H4R21800   2.729   5.986   6.059 -0.0332  0.3939  0.0765
  189SAPI   H4S21801   2.868   5.965   6.158 -1.1318 -1.5376  0.2541
  189SAPI   C2521802   2.875   6.154   6.064 -0.4889  0.0131 -0.1569
  189SAPI   H5R21803   2.942   6.211   6.129  0.6293 -0.9362 -0.4575
  189SAPI   C2621804   2.848   6.222   5.949  0.8217 -0.2232 -0.2104
  189SAPI   H6R21805   2.906   6.313   5.924  0.4399 -0.2958 -1.4386
  189SAPI   C2721806   2.766   6.164   5.833  0.4069 -1.3420 -0.0447
  189SAPI   H7R21807   2.711   6.244   5.779 -2.1925 -2.9983 -0.0033
  189SAPI   H7S21808   2.688   6.103   5.882 -0.6147  0.4465  0.6458
  189SAPI   C2821809   2.850   6.086   5.733 -0.1834  0.0485  0.4805
  189SAPI   H8R21810   2.903   5.998   5.774  1.9892  0.2358 -1.7043
  189SAPI   C2921811   2.894   6.122   5.613 -0.2998  0.2111  0.3719
  189SAPI   H9R21812   2.937   6.046   5.546 -0.2162 -0.3687  1.0705
  189SAPI  C21021813   2.863   6.252   5.544  0.0456 -0.2134 -0.0060
  189SAPI  H10R21814   2.859   6.324   5.628 -0.3029  0.8667 -0.9132
  189SAPI  H10S21815   2.762   6.248   5.497 -0.1800 -0.5353  0.4987
  189SAPI  C21121816   2.975   6.293   5.447  0.2726  0.2066  0.2478
  189SAPI  H11R21817   3.069   6.323   5.496 -1.2485  1.4843  2.5925
  189SAPI  C21221818   2.979   6.311   5.306  0.3100 -0.5985 -0.4145
  189SAPI  H12R21819   3.078   6.331   5.263 -1.2089  1.3284 -3.2741
  189SAPI  C21321820   2.864   6.290   5.210  0.1091  0.6611  0.0792
  189SAPI  H13R21821   2.885   6.344   5.115 -1.2138  1.2607  0.0975
  189SAPI  H13S21822   2.780   6.346   5.256  1.2927  2.1854  0.4663
  189SAPI  C21421823   2.819   6.143   5.186  0.3576 -0.5088 -0.6286
  189SAPI  H14R21824   2.750   6.100   5.260 -0.2593  0.3643 -0.6863
  189SAPI  C21521825   2.864   6.061   5.089  0.3760  0.4439  0.7825
  189SAPI  H15R21826   2.842   5.953   5.093 -0.5414  0.6055  0.3038
  189SAPI  C21621827   2.972   6.092   4.978 -0.4078  0.4547  1.1253
  189SAPI  H16R21828   3.071   6.047   5.004 -0.5747  0.0627  1.0981
  189SAPI  H16S21829   2.992   6.200   4.968 -1.5601  0.6304  0.5796
  189SAPI  C21721830   2.924   6.049   4.838  0.3709  0.4054 -0.7916
  189SAPI  H17R21831   2.843   6.116   4.800  1.7314  2.5609 -0.0802
  189SAPI  H17S21832   2.887   5.945   4.846  1.7099  0.0437  1.6582
  189SAPI  C21821833   3.038   6.069   4.731 -0.0632  0.5748  0.2681
  189SAPI  H18R21834   3.134   6.024   4.764 -0.4946  0.6605  1.7056
  189SAPI  H18S21835   3.057   6.177   4.712  2.1883  0.6406  2.2749
  189SAPI  C21921836   3.002   6.022   4.587  0.0351 -0.4229  0.3417
  189SAPI  H19R21837   2.910   6.077   4.559 -0.5031 -0.2139  2.3448
  189SAPI  H19S21838   2.984   5.912   4.581  1.7517 -0.6808 -0.9040
  189SAPI  C22021839   3.115   6.047   4.477  0.1135  1.0791  0.6075
  189SAPI  H20R21840   3.206   5.986   4.496 -1.5958 -1.9896 -0.1767
  189SAPI  H20S21841   3.142   6.154   4.482 -0.8895  1.3649  0.2650
  189SAPI  H20T21842   3.091   6.027   4.370  0.3765 -1.7107  0.9721
  189SAPI   C3321843   2.478   6.462   6.012  0.0266 -0.3998 -0.3012
  189SAPI   H3X21844   2.413   6.374   5.991 -0.5457 -0.1293  0.2978
  189SAPI   H3Y21845   2.577   6.412   6.020 -1.2293 -3.2058 -1.1153
  189SAPI   C3421846   2.477   6.566   5.896 -0.3091  0.2740 -0.5592
  189SAPI   H4X21847   2.550   6.647   5.919  1.4885 -1.8049  1.5700
  189SAPI   H4Y21848   2.376   6.613   5.888  0.0879  1.2484 -0.0325
  189SAPI   C3521849   2.531   6.507   5.767  0.9865  0.4341  0.7089
  189SAPI   H5X21850   2.448   6.445   5.726  0.0552  2.6052 -0.9472
  189SAPI   H5Y21851   2.621   6.445   5.785  0.6276 -1.4688 -3.1150
  189SAPI   C3621852   2.575   6.619   5.666  0.7923 -0.1887  0.1750
  189SAPI   H6X21853   2.649   6.681   5.721 -0.4540 -1.9835  4.2401
  189SAPI   H6Y21854   2.496   6.692   5.638 -0.5312 -1.2004  1.1669
  189SAPI   C3721855   2.631   6.568   5.525  0.1123 -0.4691 -0.4252
  189SAPI   H7X21856   2.561   6.497   5.477 -0.8141 -0.5698  1.0076
  189SAPI   H7Y21857   2.726   6.511   5.540 -0.2201 -0.9476 -0.0887
  189SAPI   C3821858   2.633   6.681   5.422 -0.0431  0.1299  0.4785
  189SAPI   H8X21859   2.670   6.771   5.475 -0.4718 -0.2885  1.5163
  189SAPI   H8Y21860   2.530   6.699   5.383 -0.3573 -4.7546 -1.7796
  189SAPI   C3921861   2.719   6.645   5.299 -0.4497 -0.5225 -0.3807
  189SAPI   H9X21862   2.662   6.584   5.226 -2.1173  0.9357 -0.3802
  189SAPI   H9Y21863   2.812   6.590   5.325 -0.7254 -0.6685  0.3182
  189SAPI  C31021864   2.747   6.780   5.208  0.0525  0.9126 -0.5643
  189SAPI  H10X21865   2.809   6.851   5.267 -1.5163 -1.1045  3.9067
  189SAPI  H10Y21866   2.651   6.829   5.180 -0.4804  0.9718  1.2853
  189SAPI  C31121867   2.825   6.747   5.087 -0.3283  0.2086  0.7531
  189SAPI  H11X21868   2.786   6.666   5.022  2.1947 -0.4412 -0.0695
  189SAPI  H11Y21869   2.925   6.709   5.117 -1.1338 -1.1593  1.8153
  189SAPI  C31221870   2.849   6.869   4.995  0.2843 -0.8183 -0.4285
  189SAPI  H12X21871   2.878   6.956   5.057 -0.3631 -0.5998 -0.4256
  189SAPI  H12Y21872   2.756   6.912   4.952  1.7754  0.8711 -2.1395
  189SAPI  C31321873   2.948   6.848   4.878  0.2719 -0.4394  0.2967
  189SAPI  H13X21874   2.910   6.770   4.809 -1.4699  0.5527  0.0664
  189SAPI  H13Y21875   3.039   6.819   4.934  0.7470 -0.2919 -0.3900
  189SAPI  C31421876   2.969   6.966   4.783  0.2936 -0.0513  0.4218
  189SAPI  H14X21877   2.872   6.980   4.731  0.4473 -0.8842 -0.1127
  189SAPI  H14Y21878   3.038   6.942   4.699 -0.2762 -1.7219  0.3865
  189SAPI  C31521879   3.007   7.092   4.865 -0.7073  0.1893  0.6053
  189SAPI  H15X21880   3.092   7.068   4.932 -0.3130 -1.2136 -0.3419
  189SAPI  H15Y21881   2.921   7.123   4.929 -0.0705 -0.1424  1.6523
  189SAPI  C31621882   3.035   7.204   4.772 -0.4005  0.4001  0.7255
  189SAPI  H16X21883   2.968   7.198   4.684  2.9945  1.2378 -2.1426
  189SAPI  H16Y21884   3.134   7.174   4.732  0.1815  0.0332  2.3650
  189SAPI  C31721885   3.030   7.344   4.834 -0.6691 -0.6649  0.3924
  189SAPI  H17X21886   2.927   7.373   4.864  0.8095  2.1903  3.2396
  189SAPI  H17Y21887   3.055   7.412   4.749 -0.4490 -1.4567 -0.1943
  189SAPI  C31821888   3.134   7.368   4.942 -0.6147 -0.7531  0.9413
  189SAPI  H18X21889   3.116   7.470   4.981 -1.2602 -0.5977  0.2599
  189SAPI  H18Y21890   3.236   7.371   4.899 -0.7199 -1.8345  0.5748
  189SAPI  H18Z21891   3.131   7.290   5.021  1.4133 -0.4930  1.3336
  190SAPI   C1221892   3.753   3.426   7.447  0.3930 -0.5364  0.5571
  190SAPI    H221893   3.805   3.331   7.472 -1.3216 -0.9279  3.0067
  190SAPI    O221894   3.645   3.401   7.360 -0.1517 -0.2053 -0.6053
  190SAPI   HO221895   3.564   3.385   7.409  0.6630 -0.3472  0.7283
  190SAPI   C1321896   3.703   3.482   7.581  0.5713  0.0577 -0.1710
  190SAPI    H321897   3.797   3.486   7.639  0.7996 -3.4238 -0.0429
  190SAPI    O321898   3.614   3.385   7.647  0.0073  0.3150  0.3624
  190SAPI   HO321899   3.621   3.392   7.742 -4.2722  0.9805  0.8497
  190SAPI   C1421900   3.635   3.617   7.574 -0.6967  0.2356  0.7669
  190SAPI    H421901   3.541   3.589   7.522  0.0366 -0.3428 -0.2882
  190SAPI    O421902   3.600   3.668   7.700  0.2548 -0.8281  0.2420
  190SAPI   HO421903   3.673   3.650   7.761  1.8334 -2.0059 -1.8234
  190SAPI   C1521904   3.700   3.719   7.483  0.4347  0.0514  0.3464
  190SAPI    H521905   3.772   3.770   7.551 -0.0594  0.9410  0.2169
  190SAPI    O521906   3.605   3.821   7.443  0.3126  0.5836  0.0242
  190SAPI   HO521907   3.643   3.888   7.386 -0.1214 -0.7759 -1.9331
  190SAPI   C1621908   3.786   3.663   7.367 -0.3797 -0.1985  1.0978
  190SAPI    H621909   3.719   3.652   7.278  0.2449  0.4122  0.5415
  190SAPI    O621910   3.891   3.759   7.325  0.6313 -0.3337 -0.0914
  190SAPI   HO621911   3.966   3.704   7.300  0.6721 -0.8515  1.0960
  190SAPI   C1121912   3.852   3.527   7.387 -0.1452  0.7399 -0.1316
  190SAPI    H121913   3.928   3.543   7.467 -0.3269 -1.1446  0.4692
  190SAPI     P21914   4.064   3.466   7.234  0.1236  0.2741  0.1855
  190SAPI   O1321915   4.123   3.334   7.260  0.4321 -0.1982 -0.0333
  190SAPI   O1421916   4.118   3.578   7.314 -0.6834  0.4763 -0.4183
  190SAPI   O1221917   3.903   3.459   7.269 -0.4813 -0.1244  0.2879
  190SAPI   O1121918   4.068   3.498   7.081 -0.5582  0.3235 -0.0114
  190SAPI    C121919   4.001   3.606   7.021 -0.5101  0.5398  0.1577
  190SAPI    HA21920   3.976   3.681   7.100  0.2836  1.0332 -0.0525
  190SAPI    HB21921   4.073   3.665   6.960  1.0852  0.2562  1.6883
  190SAPI    C221922   3.874   3.568   6.929 -0.1008  0.1345  0.3440
  190SAPI    HS21923   3.798   3.524   6.997 -0.2249  0.9830  0.7737
  190SAPI   O2121924   3.920   3.481   6.826  0.1525  0.2866  0.6334
  190SAPI   C2121925   3.883   3.350   6.839  0.3418  0.7034  0.2054
  190SAPI   O2221926   3.802   3.297   6.914 -0.1788  0.1468 -1.1936
  190SAPI   C2221927   3.957   3.270   6.724 -0.2098 -0.1761 -0.1116
  190SAPI   H2R21928   3.993   3.346   6.651 -2.2771  0.0650 -0.9756
  190SAPI   H2S21929   4.042   3.217   6.771 -0.1434  0.8169  0.9093
  190SAPI    C321930   3.811   3.702   6.871 -1.0243 -1.1239 -0.7207
  190SAPI    HX21931   3.895   3.760   6.827  1.1512 -1.6955  2.3731
  190SAPI    HY21932   3.775   3.766   6.954  0.2653  1.7481 -2.2385
  190SAPI   O3121933   3.716   3.689   6.764  0.4348 -0.5728 -0.0745
  190SAPI   C3121934   3.597   3.637   6.786 -0.5267  0.0987 -0.8454
  190SAPI   O3221935   3.560   3.597   6.897 -0.4024  0.3534  0.4776
  190SAPI   C3221936   3.505   3.649   6.662  0.0358  1.0026  0.5328
  190SAPI   H2X21937   3.516   3.749   6.615  1.5428 -0.2886 -2.0657
  190SAPI   H2Y21938   3.406   3.638   6.711  1.2147 -1.1318  2.6544
  190SAPI   C2321939   3.872   3.161   6.639 -0.6544 -0.2885 -0.3010
  190SAPI   H3R21940   3.764   3.183   6.627 -0.6788 -0.6205 -0.6983
  190SAPI   H3S21941   3.881   3.067   6.697  3.6345 -0.1408 -0.4155
  190SAPI   C2421942   3.938   3.137   6.494  0.3964 -0.3581 -0.5485
  190SAPI   H4R21943   3.920   3.031   6.468 -0.6808 -0.0700 -1.0241
  190SAPI   H4S21944   4.048   3.130   6.502  0.2309 -1.5928  1.5235
  190SAPI   C2521945   3.889   3.231   6.383 -0.3668 -0.6882  0.3148
  190SAPI   H5R21946   3.789   3.277   6.390  0.3734  0.8670  1.2649
  190SAPI   C2621947   3.965   3.272   6.276  0.4539 -0.2028 -0.4650
  190SAPI   H6R21948   3.915   3.336   6.202 -0.6872 -0.8909 -0.3055
  190SAPI   C2721949   4.113   3.235   6.242  0.2605  0.0286  0.2208
  190SAPI   H7R21950   4.133   3.252   6.134  0.2856 -2.0109 -0.1304
  190SAPI   H7S21951   4.123   3.125   6.247  0.1254 -0.0195 -0.4672
  190SAPI   C2821952   4.218   3.306   6.323  1.2891 -0.7156  0.3654
  190SAPI   H8R21953   4.278   3.243   6.391 -0.4302 -1.5720  1.1519
  190SAPI   C2921954   4.261   3.433   6.310  0.1811  0.5794 -0.5953
  190SAPI   H9R21955   4.354   3.457   6.362  0.5568  0.0620 -1.0116
  190SAPI  C21021956   4.203   3.536   6.221 -0.6591 -0.6935 -0.8213
  190SAPI  H10R21957   4.093   3.530   6.209 -0.9232 -0.0739  1.0843
  190SAPI  H10S21958   4.245   3.520   6.119  0.9757  0.2700 -0.3540
  190SAPI  C21121959   4.239   3.676   6.264  0.0870  0.0285  0.6280
  190SAPI  H11R21960   4.175   3.724   6.339  0.9684  0.6422  0.9964
  190SAPI  C21221961   4.321   3.756   6.198 -1.3129 -0.3723  0.2190
  190SAPI  H12R21962   4.351   3.852   6.241  0.7948  0.4875 -2.8160
  190SAPI  C21321963   4.404   3.727   6.071 -0.2607  0.2032 -0.2218
  190SAPI  H13R21964   4.344   3.741   5.979 -0.4318 -1.7104 -0.4365
  190SAPI  H13S21965   4.421   3.617   6.074 -1.1658  0.0532 -0.4582
  190SAPI  C21421966   4.537   3.799   6.074 -0.0733 -0.1396  0.5525
  190SAPI  H14R21967   4.602   3.781   6.161 -1.0412  0.8003  1.4977
  190SAPI  C21521968   4.598   3.864   5.970 -0.2581 -0.1671 -0.3751
  190SAPI  H15R21969   4.695   3.913   5.985  0.6205 -1.2018 -2.2381
  190SAPI  C21621970   4.534   3.899   5.836  1.5275  0.2499 -0.0597
  190SAPI  H16R21971   4.453   3.974   5.851  1.3765  0.0139  0.3248
  190SAPI  H16S21972   4.471   3.813   5.803  0.0273  0.6965  1.4776
  190SAPI  C21721973   4.621   3.931   5.723  0.0156 -0.0987 -0.1244
  190SAPI  H17R21974   4.677   3.841   5.691  2.8535  0.8378  1.8750
  190SAPI  H17S21975   4.693   4.005   5.765 -0.3453  0.1231  0.1145
  190SAPI  C21821976   4.553   4.003   5.603  0.6201 -0.1699 -0.0687
  190SAPI  H18R21977   4.540   4.113   5.619  0.5135  0.0168 -1.3183
  190SAPI  H18S21978   4.445   3.979   5.596  0.3567  0.7259  0.7335
  190SAPI  C21921979   4.617   3.976   5.463  0.3409  0.1929  0.0530
  190SAPI  H19R21980   4.652   3.871   5.449 -0.3614 -0.4932  2.9052
  190SAPI  H19S21981   4.706   4.041   5.454 -0.4912  1.2193 -1.0630
  190SAPI  C22021982   4.509   3.996   5.353  0.3945  0.1384 -0.5181
  190SAPI  H20R21983   4.428   3.921   5.364  0.6428 -0.0477  0.0989
  190SAPI  H20S21984   4.554   3.986   5.252  0.0596  2.7031 -0.9887
  190SAPI  H20T21985   4.462   4.096   5.361 -1.7506 -0.8054 -0.7555
  190SAPI   C3321986   3.523   3.527   6.560 -0.7343  0.1737  0.5166
  190SAPI   H3X21987   3.450   3.536   6.477 -0.5757  3.5190  0.6113
  190SAPI   H3Y21988   3.513   3.429   6.611  2.3952 -0.5374 -0.0308
  190SAPI   C3421989   3.647   3.540   6.478 -0.5186 -0.5855  0.2972
  190SAPI   H4X21990   3.663   3.442   6.427 -4.3237 -0.6876 -1.0264
  190SAPI   H4Y21991   3.741   3.559   6.533  0.5016  0.4709 -1.6905
  190SAPI   C3521992   3.649   3.641   6.366 -0.2583  0.0549  0.6149
  190SAPI   H5X21993   3.605   3.741   6.384  0.3788  1.0424 -2.5741
  190SAPI   H5Y21994   3.575   3.596   6.296  1.1394 -1.3393 -0.0315
  190SAPI   C3621995   3.790   3.652   6.308 -0.3381  0.2955 -0.1154
  190SAPI   H6X21996   3.823   3.550   6.277 -1.6666  0.1878 -1.2748
  190SAPI   H6Y21997   3.858   3.694   6.385 -1.3591  2.7281 -0.4327
  190SAPI   C3721998   3.779   3.739   6.179  0.4577  0.3007  0.8504
  190SAPI   H7X21999   3.714   3.828   6.199  0.6571  0.7238 -0.3010
  190SAPI   H7Y22000   3.719   3.682   6.105  1.4336  2.4357 -1.7357
  190SAPI   C3822001   3.906   3.779   6.113 -0.5537 -0.5544 -0.1620
  190SAPI   H8X22002   3.961   3.686   6.087  1.3676  0.6570 -0.6221
  190SAPI   H8Y22003   3.967   3.839   6.184  1.6113 -2.2365 -0.4863
  190SAPI   C3922004   3.888   3.873   5.997  0.2170 -0.0169 -0.1423
  190SAPI   H9X22005   3.825   3.962   6.017 -0.8406 -0.4897 -1.2227
  190SAPI   H9Y22006   3.833   3.821   5.915  1.4344  0.3938 -1.2623
  190SAPI  C31022007   4.020   3.920   5.950 -0.4119 -0.1530  0.1552
  190SAPI  H10X22008   4.068   3.823   5.927 -0.6528 -0.1026 -0.5929
  190SAPI  H10Y22009   4.085   3.961   6.030 -0.8818  1.2713 -0.1657
  190SAPI  C31122010   4.021   4.010   5.822  0.2128  0.0358  0.0522
  190SAPI  H11X22011   3.968   4.103   5.853  0.4282  1.3858 -3.2317
  190SAPI  H11Y22012   3.955   3.967   5.744 -1.2660 -0.1182  1.3171
  190SAPI  C31222013   4.159   4.034   5.768 -0.0372 -0.2795  0.0567
  190SAPI  H12X22014   4.216   3.940   5.750  1.4954  0.6459 -0.1457
  190SAPI  H12Y22015   4.209   4.089   5.851 -1.8444 -0.5361  1.3866
  190SAPI  C31322016   4.165   4.122   5.638 -0.5312  0.8979 -0.1509
  190SAPI  H13X22017   4.265   4.169   5.628 -1.0263  1.8935 -0.6512
  190SAPI  H13Y22018   4.089   4.201   5.659 -1.9087 -0.4205 -0.0608
  190SAPI  C31422019   4.124   4.042   5.514  0.2385 -0.2327  0.2653
  190SAPI  H14X22020   4.018   4.010   5.530  0.4812 -1.9646 -1.3144
  190SAPI  H14Y22021   4.181   3.947   5.505 -0.6289 -0.7455  0.0177
  190SAPI  C31522022   4.122   4.116   5.376 -0.2275  0.0218  0.9843
  190SAPI  H15X22023   4.215   4.175   5.361 -0.6486  0.2240 -1.1789
  190SAPI  H15Y22024   4.045   4.195   5.371  1.5620  1.7427 -0.9472
  190SAPI  C31622025   4.090   4.023   5.257 -0.0461  0.3299  0.6077
  190SAPI  H16X22026   3.990   3.976   5.262  0.1232 -0.2254 -0.7112
  190SAPI  H16Y22027   4.159   3.938   5.274 -1.3421 -0.6799  0.9477
  190SAPI  C31722028   4.123   4.078   5.112 -0.4396 -0.0077  0.6179
  190SAPI  H17X22029   4.232   4.099   5.117 -0.5215  0.1501  2.3037
  190SAPI  H17Y22030   4.056   4.165   5.098 -1.0668 -0.8450 -2.0388
  190SAPI  C31822031   4.094   3.961   5.012 -0.2881  0.4867  0.7434
  190SAPI  H18X22032   3.988   3.931   5.027  0.7206 -3.0351  1.8011
  190SAPI  H18Y22033   4.160   3.873   5.028 -0.3083  0.1298 -0.9280
  190SAPI  H18Z22034   4.119   3.988   4.908  2.1839 -0.5189  1.0164
  191SAPI   C1222035   4.737   3.165   2.827 -0.5013 -0.5594 -0.0107
  191SAPI    H222036   4.752   3.218   2.730  2.1891 -2.6447 -0.8642
  191SAPI    O222037   4.652   3.244   2.917  0.1108  0.5512 -0.4394
  191SAPI   HO222038   4.702   3.320   2.946 -0.9384  0.9644  0.3637
  191SAPI   C1322039   4.675   3.032   2.796 -0.7120 -0.4306 -0.3728
  191SAPI    H322040   4.740   2.980   2.723 -0.2175 -1.5647  0.8366
  191SAPI    O322041   4.550   3.043   2.728  0.0836  0.1856 -0.1695
  191SAPI   HO322042   4.496   3.106   2.775 -2.2892 -1.0020 -1.0839
  191SAPI   C1422043   4.673   2.933   2.910 -0.5328 -0.0594  0.0776
  191SAPI    H422044   4.593   2.974   2.975 -1.9148  0.2749 -1.7497
  191SAPI    O422045   4.633   2.805   2.866 -0.3929 -0.1665  0.1069
  191SAPI   HO422046   4.556   2.771   2.912 -0.4425 -0.7714 -0.3940
  191SAPI   C1522047   4.788   2.924   3.005  0.0279 -0.6026  0.0222
  191SAPI    H522048   4.870   2.856   2.973  1.6712  0.0415  2.4688
  191SAPI    O522049   4.750   2.876   3.137  0.1471  0.7767  0.4581
  191SAPI   HO522050   4.826   2.829   3.173  1.0387  0.6150 -1.5441
  191SAPI   C1622051   4.868   3.055   3.015 -0.5841  0.3502  0.0922
  191SAPI    H622052   4.821   3.118   3.094 -0.2198  0.5447  0.1560
  191SAPI    O622053   5.002   3.029   3.055 -0.0203 -0.5321 -0.4507
  191SAPI   HO622054   5.061   3.104   3.047 -0.9009  0.2897  0.4258
  191SAPI   C1122055   4.870   3.141   2.892  0.1630  0.7237  0.0338
  191SAPI    H122056   4.927   3.085   2.815  1.8316  0.1029  1.6423
  191SAPI     P22057   5.052   3.335   2.855  0.6036 -0.0734  0.4914
  191SAPI   O1322058   5.052   3.478   2.881 -0.5575  0.2722 -0.4478
  191SAPI   O1422059   5.046   3.294   2.711  0.3552 -0.2420 -0.3950
  191SAPI   O1222060   4.928   3.265   2.940  0.4063  0.4806 -0.2939
  191SAPI   O1122061   5.178   3.277   2.926 -0.0309  0.3122 -0.0463
  191SAPI    C122062   5.264   3.331   3.023 -0.1889 -0.2343  0.0598
  191SAPI    HA22063   5.363   3.280   3.021  1.5292  2.8509 -0.5849
  191SAPI    HB22064   5.277   3.439   2.997 -1.6445  0.6197  2.5059
  191SAPI    C222065   5.222   3.326   3.172 -0.1877 -0.1030 -0.7283
  191SAPI    HS22066   5.313   3.359   3.227  0.3019 -0.0211 -1.5697
  191SAPI   O2122067   5.181   3.196   3.208 -0.1189 -0.3146  1.0195
  191SAPI   C2122068   5.217   3.151   3.325  0.0310  0.2961  0.2965
  191SAPI   O2222069   5.301   3.195   3.400 -0.2910 -0.1892 -0.1811
  191SAPI   C2222070   5.128   3.037   3.361 -0.1796 -0.3363 -0.0202
  191SAPI   H2R22071   5.021   3.066   3.357 -0.0645  0.2984  1.1622
  191SAPI   H2S22072   5.122   2.964   3.277  0.3106 -0.9313  0.4506
  191SAPI    C322073   5.109   3.427   3.214 -0.3554 -0.3056 -0.2173
  191SAPI    HX22074   5.022   3.392   3.154  0.3378  0.3738 -1.6821
  191SAPI    HY22075   5.152   3.523   3.177  1.6517 -0.7630  0.8158
  191SAPI   O3122076   5.082   3.444   3.355  0.0576  0.3564  0.4089
  191SAPI   C3122077   4.967   3.388   3.398 -0.5194 -0.1535  0.4057
  191SAPI   O3222078   4.894   3.312   3.332 -0.3784  0.2138 -0.0383
  191SAPI   C3222079   4.939   3.456   3.533  0.3128  0.9263 -0.0426
  191SAPI   H2X22080   4.889   3.554   3.516 -0.9745  0.1733 -0.7570
  191SAPI   H2Y22081   5.035   3.476   3.585  0.4331 -0.8541  0.4900
  191SAPI   C2322082   5.169   2.974   3.497 -0.4167  0.2480  0.1441
  191SAPI   H3R22083   5.209   3.048   3.570  0.2362 -0.0876  0.1283
  191SAPI   H3S22084   5.257   2.910   3.476 -1.9060 -1.3029 -1.7379
  191SAPI   C2422085   5.067   2.885   3.571  0.5885 -0.3162  0.1505
  191SAPI   H4R22086   5.121   2.829   3.651  1.4883  1.4888  0.8454
  191SAPI   H4S22087   5.030   2.820   3.489 -2.1239 -1.4618  2.1353
  191SAPI   C2522088   4.957   2.974   3.628  0.3173 -0.0646 -0.5229
  191SAPI   H5R22089   4.923   3.053   3.559  1.0367  0.0585 -0.7462
  191SAPI   C2622090   4.930   2.987   3.762  0.0761 -0.0336  0.0633
  191SAPI   H6R22091   4.854   3.059   3.794 -0.4223 -0.0562 -1.0322
  191SAPI   C2722092   4.972   2.885   3.867 -0.0096  0.0584 -0.5299
  191SAPI   H7R22093   4.995   2.788   3.820 -0.1530 -0.3624  0.2479
  191SAPI   H7S22094   4.882   2.858   3.927  1.7088 -0.6395  1.8809
  191SAPI   C2822095   5.089   2.921   3.954 -0.7506 -0.1336  0.6977
  191SAPI   H8R22096   5.163   2.986   3.904  1.0637 -2.9482 -0.5311
  191SAPI   C2922097   5.132   2.877   4.072  0.0897  0.0820  0.8610
  191SAPI   H9R22098   5.226   2.918   4.112  0.0756 -0.1623  1.1450
  191SAPI  C21022099   5.075   2.769   4.154 -0.0025 -0.5354 -0.1302
  191SAPI  H10R22100   5.155   2.694   4.173 -0.9589 -1.2350  1.3088
  191SAPI  H10S22101   5.006   2.707   4.093  0.2369 -3.8292  2.6068
  191SAPI  C21122102   5.001   2.822   4.273 -0.8162  0.6941 -0.4368
  191SAPI  H11R22103   4.943   2.912   4.251 -0.0442  0.9253 -1.6557
  191SAPI  C21222104   5.002   2.769   4.394  0.1051  0.1147  0.0714
  191SAPI  H12R22105   4.949   2.819   4.476 -0.4310 -2.5794  1.4956
  191SAPI  C21322106   5.067   2.644   4.453  0.0016  0.2735  0.2010
  191SAPI  H13R22107   5.173   2.667   4.477 -0.2519  0.9800  0.6790
  191SAPI  H13S22108   5.069   2.566   4.374 -0.4716 -0.2125  0.6595
  191SAPI  C21422109   5.025   2.563   4.577  0.1416  0.6832  0.4879
  191SAPI  H14R22110   4.995   2.461   4.548  2.9026 -0.0929  0.0461
  191SAPI  C21522111   5.027   2.595   4.711 -0.2454  0.8245  0.6273
  191SAPI  H15R22112   5.005   2.515   4.783  2.0082  1.1403  1.7516
  191SAPI  C21622113   5.078   2.721   4.767 -0.7754  0.5715 -0.5225
  191SAPI  H16R22114   5.102   2.802   4.695  0.8035  0.6842  0.0906
  191SAPI  H16S22115   5.171   2.702   4.824 -1.3997  0.5542  0.5263
  191SAPI  C21722116   4.987   2.777   4.881  0.9213 -0.4745  0.3953
  191SAPI  H17R22117   4.893   2.819   4.839  1.7780  0.9675 -0.1587
  191SAPI  H17S22118   5.018   2.878   4.915 -2.2519  0.6990  0.0764
  191SAPI  C21822119   4.966   2.688   5.003  0.0014 -0.0009  0.2554
  191SAPI  H18R22120   5.067   2.649   5.026  0.4438  1.0559  0.1321
  191SAPI  H18S22121   4.911   2.596   4.972  0.3092  0.2119 -0.9791
  191SAPI  C21922122   4.904   2.753   5.128  0.2063 -0.3087  0.3653
  191SAPI  H19R22123   4.957   2.845   5.160 -1.0845  0.2784  0.9094
  191SAPI  H19S22124   4.914   2.687   5.216  1.7033 -0.4752  0.0872
  191SAPI  C22022125   4.754   2.785   5.114  0.3657  0.3880  0.3050
  191SAPI  H20R22126   4.713   2.827   5.208 -0.8260  1.1624 -0.5333
  191SAPI  H20S22127   4.695   2.694   5.092  0.5628 -0.3654  2.6661
  191SAPI  H20T22128   4.745   2.858   5.031  2.1238 -0.7097 -0.9399
  191SAPI   C3322129   4.860   3.361   3.623 -0.0100 -0.3737  0.1636
  191SAPI   H3X22130   4.922   3.270   3.636  1.5612  0.6959  0.4601
  191SAPI   H3Y22131   4.761   3.328   3.583 -0.8312 -1.5090  2.9269
  191SAPI   C3422132   4.842   3.425   3.759 -0.4309  0.5197  0.0043
  191SAPI   H4X22133   4.761   3.501   3.758 -1.2594 -0.3000  1.4969
  191SAPI   H4Y22134   4.930   3.481   3.797 -1.1356  1.7291 -0.0849
  191SAPI   C3522135   4.811   3.320   3.869 -0.2408  0.4276  1.1712
  191SAPI   H5X22136   4.885   3.237   3.864 -0.0124  0.6853 -0.9712
  191SAPI   H5Y22137   4.712   3.284   3.834 -1.1951  3.2756  0.6737
  191SAPI   C3622138   4.790   3.368   4.007 -0.1882 -0.4049 -0.5298
  191SAPI   H6X22139   4.694   3.425   4.008 -1.6018 -2.6823  0.8687
  191SAPI   H6Y22140   4.869   3.442   4.033 -1.9287  0.7939  1.8009
  191SAPI   C3722141   4.782   3.253   4.105  0.2069  1.0752 -0.5993
  191SAPI   H7X22142   4.856   3.175   4.078  0.7074  1.2333  0.2656
  191SAPI   H7Y22143   4.684   3.201   4.093  0.5431  0.2315  0.1555
  191SAPI   C3822144   4.793   3.299   4.250  0.6616 -0.7406 -0.4613
  191SAPI   H8X22145   4.723   3.382   4.276  1.8041 -0.6228  2.6047
  191SAPI   H8Y22146   4.900   3.322   4.272 -0.0260  0.8662  1.4868
  191SAPI   C3922147   4.753   3.180   4.342 -0.3427  1.0107  0.4512
  191SAPI   H9X22148   4.823   3.100   4.309  1.0696  2.0712  0.7439
  191SAPI   H9Y22149   4.655   3.141   4.308  0.1030  1.5092 -1.4667
  191SAPI  C31022150   4.758   3.205   4.497  0.6407 -0.0103  0.0752
  191SAPI  H10X22151   4.690   3.286   4.531 -0.9290 -1.5453  0.7499
  191SAPI  H10Y22152   4.862   3.235   4.521  0.5397 -1.4903  2.6930
  191SAPI  C31122153   4.719   3.079   4.572 -0.4081  0.0592 -0.5053
  191SAPI  H11X22154   4.788   2.996   4.546 -1.1393 -0.4212 -0.9623
  191SAPI  H11Y22155   4.620   3.045   4.533 -1.5978  0.6951  1.7791
  191SAPI  C31222156   4.689   3.104   4.723  0.1403  0.4837  0.0313
  191SAPI  H12X22157   4.636   3.016   4.764 -2.3147  2.3973  1.2133
  191SAPI  H12Y22158   4.610   3.182   4.721  1.8972  2.3361 -1.7798
  191SAPI  C31322159   4.804   3.145   4.813  0.4196  0.1862  0.2978
  191SAPI  H13X22160   4.856   3.236   4.776  1.6960  0.3828  2.4579
  191SAPI  H13Y22161   4.890   3.076   4.823  1.6004  1.4663 -0.6008
  191SAPI  C31422162   4.747   3.177   4.955 -0.6448  0.3532 -0.3381
  191SAPI  H14X22163   4.677   3.095   4.983  1.4849 -0.1984  4.1801
  191SAPI  H14Y22164   4.680   3.265   4.947 -0.3695  0.5394 -0.5885
  191SAPI  C31522165   4.852   3.189   5.063  0.6250 -0.3813  0.0612
  191SAPI  H15X22166   4.926   3.265   5.032 -0.5769 -0.0597 -2.1807
  191SAPI  H15Y22167   4.893   3.096   5.109 -1.1309  0.5895  4.0772
  191SAPI  C31622168   4.791   3.251   5.196 -0.5067  0.6197  0.3929
  191SAPI  H16X22169   4.864   3.249   5.280 -1.0236 -0.5343  0.8282
  191SAPI  H16Y22170   4.714   3.185   5.240 -3.5768  2.1418 -2.2198
  191SAPI  C31722171   4.750   3.396   5.192  0.1449  0.4855  0.2556
  191SAPI  H17X22172   4.668   3.392   5.118 -0.5730 -3.7174  1.0084
  191SAPI  H17Y22173   4.838   3.453   5.155 -0.0490 -0.1096 -1.1644
  191SAPI  C31822174   4.696   3.468   5.321 -0.4365  0.1088  0.9466
  191SAPI  H18X22175   4.596   3.423   5.337  0.1713 -2.1030 -0.8845
  191SAPI  H18Y22176   4.692   3.577   5.297  0.7867  0.6047  2.7692
  191SAPI  H18Z22177   4.751   3.444   5.414 -1.5844 -3.2727  0.8711
  192SAPI   C1222178   0.812   3.921   2.690 -0.4567 -0.4516 -0.2290
  192SAPI    H222179   0.902   3.898   2.629 -0.4491  2.4410 -1.4770
  192SAPI    O222180   0.706   3.859   2.619  0.7772  0.1963  0.2802
  192SAPI   HO222181   0.692   3.909   2.538  1.8286 -0.5800 -0.4118
  192SAPI   C1322182   0.815   3.860   2.831  0.4190 -0.0965  0.0377
  192SAPI    H322183   0.898   3.915   2.879  1.0810  0.4670 -1.6596
  192SAPI    O322184   0.862   3.726   2.830  0.1409  0.8851 -0.3903
  192SAPI   HO322185   0.956   3.721   2.815  0.2881 -0.3010  0.7984
  192SAPI   C1422186   0.692   3.882   2.908 -0.1160 -0.1836  0.4886
  192SAPI    H422187   0.617   3.815   2.861  1.6808 -0.1856 -2.5925
  192SAPI    O422188   0.709   3.847   3.047  0.5833  0.1503  0.5006
  192SAPI   HO422189   0.668   3.761   3.060 -0.8902  0.6357 -0.5461
  192SAPI   C1522190   0.638   4.029   2.911 -0.3717 -0.4025  0.5429
  192SAPI    H522191   0.699   4.077   2.990  0.8871 -0.4295 -0.3822
  192SAPI    O522192   0.498   4.037   2.931 -0.0594 -0.1506  0.0834
  192SAPI   HO522193   0.478   4.109   2.991  0.2111 -0.7815  0.9669
  192SAPI   C1622194   0.665   4.111   2.785 -0.9982 -0.1618  0.5901
  192SAPI    H622195   0.576   4.096   2.720  0.4951  0.2013 -1.6430
  192SAPI    O622196   0.673   4.252   2.812 -0.3971 -0.1696  0.2632
  192SAPI   HO622197   0.747   4.281   2.757  0.9134  1.4300  2.7001
  192SAPI   C1122198   0.783   4.073   2.700 -0.1831  0.0823  0.1917
  192SAPI    H122199   0.873   4.113   2.750  0.7721  1.3958 -2.3940
  192SAPI     P22200   0.905   4.198   2.501  0.1598  0.2511 -0.1567
  192SAPI   O1322201   0.876   4.232   2.358  0.1410 -0.0501 -0.3522
  192SAPI   O1422202   1.024   4.121   2.532  0.0335  0.2782  0.4514
  192SAPI   O1222203   0.779   4.127   2.565 -0.6085  0.5825  0.1541
  192SAPI   O1122204   0.908   4.329   2.579  0.2927  0.1013  0.1636
  192SAPI    C122205   0.803   4.429   2.589 -0.2356  0.7488 -0.2095
  192SAPI    HA22206   0.798   4.483   2.491  0.8699 -2.2864 -2.0817
  192SAPI    HB22207   0.709   4.385   2.628  0.8667 -0.1273  1.5663
  192SAPI    C222208   0.852   4.535   2.695  1.1268  0.6115  0.0747
  192SAPI    HS22209   0.948   4.576   2.658  1.1828 -0.3272 -0.8574
  192SAPI   O2122210   0.877   4.466   2.818 -0.1701 -0.0429  0.2120
  192SAPI   C2122211   0.961   4.535   2.899 -0.0934  0.8804  0.2481
  192SAPI   O2222212   1.014   4.646   2.882 -0.0166  1.0170 -0.0507
  192SAPI   C2222213   0.964   4.458   3.039  0.3071 -0.4205 -0.8203
  192SAPI   H2R22214   1.043   4.494   3.108 -1.2076 -1.2889  1.4879
  192SAPI   H2S22215   0.878   4.504   3.093  1.8593  1.7121 -0.0443
  192SAPI    C322216   0.753   4.646   2.725  0.8490  0.3296 -0.4480
  192SAPI    HX22217   0.734   4.707   2.634 -0.4160 -2.1267 -1.9310
  192SAPI    HY22218   0.788   4.718   2.802  0.5986  1.3066 -1.2308
  192SAPI   O3122219   0.621   4.581   2.757 -0.3346 -0.3445 -0.0767
  192SAPI   C3122220   0.596   4.579   2.888  0.6734 -0.3420 -0.4752
  192SAPI   O3222221   0.674   4.621   2.974  0.6366 -0.2607  0.5393
  192SAPI   C3222222   0.454   4.524   2.898 -0.0981  0.0745 -0.1849
  192SAPI   H2X22223   0.466   4.417   2.873 -1.3442 -0.1710  0.2100
  192SAPI   H2Y22224   0.390   4.577   2.823  0.3664  2.2130  0.8442
  192SAPI   C2322225   0.958   4.302   3.027 -0.0359  0.2189  0.1521
  192SAPI   H3R22226   1.046   4.270   2.966 -0.9519 -1.1737 -0.4893
  192SAPI   H3S22227   0.868   4.281   2.965 -0.0621 -1.1274  0.6048
  192SAPI   C2422228   0.948   4.224   3.154 -0.1762  0.5963  0.1269
  192SAPI   H4R22229   1.042   4.245   3.209  0.4677  2.1891 -1.5083
  192SAPI   H4S22230   0.946   4.117   3.124 -1.7788  0.5889  0.1312
  192SAPI   C2522231   0.824   4.260   3.230  0.1807  0.1508  0.3100
  192SAPI   H5R22232   0.734   4.210   3.193  0.2420 -0.4531  0.9651
  192SAPI   C2622233   0.805   4.339   3.336 -0.3505  0.1606  0.1275
  192SAPI   H6R22234   0.702   4.347   3.372 -0.5690 -0.9676 -0.1978
  192SAPI   C2722235   0.906   4.431   3.405  0.1133  0.2337 -0.1393
  192SAPI   H7R22236   1.007   4.431   3.359 -0.4063 -0.4319 -1.3091
  192SAPI   H7S22237   0.923   4.385   3.505 -0.7900  0.9900  0.3796
  192SAPI   C2822238   0.871   4.575   3.425  0.7194  0.3355 -0.2975
  192SAPI   H8R22239   0.947   4.637   3.374 -0.0702  0.3670 -1.4629
  192SAPI   C2922240   0.773   4.640   3.497 -0.9289 -0.2021 -0.0333
  192SAPI   H9R22241   0.787   4.749   3.510 -0.6475  0.2595 -3.3231
  192SAPI  C21022242   0.659   4.579   3.574 -0.6466 -0.1226 -0.2947
  192SAPI  H10R22243   0.589   4.547   3.494  0.8219 -1.1834 -1.2288
  192SAPI  H10S22244   0.610   4.664   3.625  0.8156 -0.0526  1.0583
  192SAPI  C21122245   0.699   4.486   3.678  0.0746  0.1865 -0.6121
  192SAPI  H11R22246   0.737   4.389   3.641 -0.3468 -0.8717  1.6053
  192SAPI  C21222247   0.714   4.501   3.814 -0.9053  0.2029 -0.5776
  192SAPI  H12R22248   0.734   4.416   3.880 -1.6010  0.6747  0.2603
  192SAPI  C21322249   0.696   4.628   3.891  0.3218  0.1028 -0.4709
  192SAPI  H13R22250   0.613   4.692   3.854  0.0626  1.2121  1.8492
  192SAPI  H13S22251   0.785   4.689   3.870  0.8130  0.6145  2.6489
  192SAPI  C21422252   0.670   4.597   4.039  0.9228 -0.5057 -0.1329
  192SAPI  H14R22253   0.562   4.590   4.060  1.2253 -1.4290  1.2304
  192SAPI  C21522254   0.757   4.600   4.135  0.4152  0.0253 -0.6238
  192SAPI  H15R22255   0.715   4.575   4.234  1.7725 -0.5572 -0.1791
  192SAPI  C21622256   0.902   4.624   4.127 -0.8419  0.3555 -0.3310
  192SAPI  H16R22257   0.925   4.627   4.018  0.2726 -3.2089 -0.3307
  192SAPI  H16S22258   0.956   4.531   4.158  0.0657  0.9942  0.0577
  192SAPI  C21722259   0.962   4.740   4.212 -0.1704 -0.5986 -0.6352
  192SAPI  H17R22260   0.899   4.829   4.189 -0.2634 -0.5313 -0.1312
  192SAPI  H17S22261   1.065   4.746   4.172 -0.4780  0.1220 -1.3405
  192SAPI  C21822262   0.965   4.713   4.363  0.7176  0.4855 -0.7637
  192SAPI  H18R22263   0.863   4.722   4.404  0.1139 -1.5241 -1.6632
  192SAPI  H18S22264   1.021   4.795   4.412  1.9156  1.2585 -3.2361
  192SAPI  C21922265   1.019   4.580   4.401 -0.3286  0.0572 -0.4314
  192SAPI  H19R22266   1.126   4.584   4.370  0.0595 -1.1043  0.6616
  192SAPI  H19S22267   0.958   4.496   4.360  0.8424 -1.2034  0.3316
  192SAPI  C22022268   1.027   4.567   4.549  0.8448  0.0183  0.2267
  192SAPI  H20R22269   1.105   4.635   4.589 -0.0372  1.8835 -1.0655
  192SAPI  H20S22270   1.040   4.458   4.567  0.9937  0.0260  0.1755
  192SAPI  H20T22271   0.931   4.607   4.588  1.2698  0.1571  1.1548
  192SAPI   C3322272   0.390   4.545   3.036 -0.4348 -0.2965  0.8320
  192SAPI   H3X22273   0.420   4.463   3.105 -1.6850 -2.1493 -0.7284
  192SAPI   H3Y22274   0.280   4.531   3.025 -0.1701 -2.3837  0.4543
  192SAPI   C3422275   0.402   4.682   3.100 -0.7442 -0.6077 -0.0604
  192SAPI   H4X22276   0.376   4.757   3.022 -2.8680 -1.6596 -0.4342
  192SAPI   H4Y22277   0.508   4.696   3.131 -0.1481 -4.0114 -0.1953
  192SAPI   C3522278   0.311   4.697   3.221  0.1292  0.2151 -0.0645
  192SAPI   H5X22279   0.333   4.613   3.289  0.6897  0.4468  0.0479
  192SAPI   H5Y22280   0.203   4.687   3.197  0.4739  0.6218 -2.0139
  192SAPI   C3622281   0.334   4.822   3.306 -0.1322 -0.7383 -0.0970
  192SAPI   H6X22282   0.299   4.907   3.243  1.1110 -1.9080 -2.5100
  192SAPI   H6Y22283   0.437   4.827   3.346 -0.0273  0.0618 -0.4474
  192SAPI   C3722284   0.244   4.819   3.432 -0.7687  0.0939  0.3396
  192SAPI   H7X22285   0.142   4.790   3.399 -1.3971  1.4717  1.0073
  192SAPI   H7Y22286   0.244   4.919   3.481 -1.1726 -0.5724  1.7448
  192SAPI   C3822287   0.284   4.715   3.538  0.9856 -0.0919 -0.0197
  192SAPI   H8X22288   0.389   4.733   3.572  0.3623 -0.3871  2.2601
  192SAPI   H8Y22289   0.278   4.613   3.494 -0.8938 -0.0366  0.0345
  192SAPI   C3922290   0.197   4.732   3.668  0.5225 -0.1951 -0.3780
  192SAPI   H9X22291   0.094   4.712   3.631  0.6094  1.1716 -1.4579
  192SAPI   H9Y22292   0.205   4.836   3.707  1.2533 -0.2743 -0.3030
  192SAPI  C31022293   0.229   4.631   3.783 -0.3849  0.1907 -0.3195
  192SAPI  H10X22294   0.332   4.659   3.814 -0.4366  0.9620 -0.8146
  192SAPI  H10Y22295   0.217   4.531   3.737 -1.4937 -0.2558  0.8743
  192SAPI  C31122296   0.136   4.646   3.904 -0.2718  0.0818 -0.0842
  192SAPI  H11X22297   0.043   4.592   3.876  1.8336 -4.3741  0.6413
  192SAPI  H11Y22298   0.119   4.753   3.928  0.8895 -0.1068  1.6762
  192SAPI  C31222299   0.188   4.572   4.033  0.9194  0.4563  0.9534
  192SAPI  H12X22300   0.296   4.595   4.046  0.8832  2.6570 -1.6618
  192SAPI  H12Y22301   0.168   4.463   4.034  1.0741  0.3671  4.0807
  192SAPI  C31322302   0.107   4.616   4.163  0.2541 -0.0987 -0.2376
  192SAPI  H13X22303   0.092   4.533   4.235  0.4076  0.9793  1.0596
  192SAPI  H13Y22304   0.004   4.641   4.128  0.6244 -0.5109 -1.7132
  192SAPI  C31422305   0.155   4.735   4.237  0.2205 -1.0555 -0.2943
  192SAPI  H14X22306   0.077   4.756   4.314 -0.3015  0.0077 -1.0931
  192SAPI  H14Y22307   0.158   4.826   4.173  1.0017 -1.1858 -0.4426
  192SAPI  C31522308   0.296   4.708   4.305  0.1523  0.1101 -0.1943
  192SAPI  H15X22309   0.359   4.678   4.219 -0.7435  0.3509 -0.9519
  192SAPI  H15Y22310   0.295   4.623   4.376 -0.2368  0.7768  0.6132
  192SAPI  C31622311   0.355   4.830   4.364 -0.5699  0.0573 -0.0143
  192SAPI  H16X22312   0.269   4.872   4.420 -2.2476 -1.9847 -0.9111
  192SAPI  H16Y22313   0.394   4.905   4.292  1.7516  0.2841  1.3800
  192SAPI  C31722314   0.473   4.803   4.466  0.2092  0.5585 -0.0341
  192SAPI  H17X22315   0.563   4.782   4.404  0.6106  2.8146 -0.2908
  192SAPI  H17Y22316   0.447   4.712   4.525  0.1918  0.2530 -0.5092
  192SAPI  C31822317   0.496   4.924   4.570 -0.0142  0.2389  0.7981
  192SAPI  H18X22318   0.569   4.906   4.651  0.1007  0.8058  0.8264
  192SAPI  H18Y22319   0.396   4.952   4.608 -0.8277  2.0084 -2.2517
  192SAPI  H18Z22320   0.529   5.015   4.516 -1.8460  0.2336 -0.4244
  193SOD    SOD22321   3.736   3.280   7.161 -0.4430 -0.4250  0.3625
  194SOD    SOD22322   2.646   1.971   7.324  0.0523  0.1833  0.0916
  195SOD    SOD22323   4.999   6.724   0.913  0.0748  0.1209 -0.0753
  196SOD    SOD22324   2.873   6.453   0.877  0.0371 -0.2343 -0.1371
  197SOD    SOD22325   5.218   3.311   7.407  0.1085  0.0668  0.2552
  198SOD    SOD22326   2.604   0.708   1.919  0.1974 -0.2580 -0.6848
  199SOD    SOD22327   3.963   6.505   0.776 -0.1589  0.3251  0.5666
  200SOD    SOD22328   2.303   6.708   1.806 -0.4074 -0.4180  0.3084
  201SOD    SOD22329   4.159   1.748   2.502  0.0064  0.1836 -0.6472
  202SOD    SOD22330   5.803   4.906   8.135  0.4764 -0.7214 -0.2347
  203SOD    SOD22331   0.060   3.734   8.622  0.0881  0.4765  0.0229
  204SOD    SOD22332   5.326   5.076   2.624 -0.1398  0.1234 -0.6401
  205SOD    SOD22333   5.104   4.083   2.656  0.6553 -0.3456 -0.2870
  206SOD    SOD22334   2.476   4.518   8.854 -0.1184  0.0191  0.1849
  207SOD    SOD22335   4.334   2.984   1.063  0.2873  0.4039 -0.6524
  208SOD    SOD22336   6.666   3.936   8.182  0.1126  0.0434 -0.1288
  209SOD    SOD22337   5.215   2.644   8.481 -0.5949  0.1359  0.3009
  210SOD    SOD22338   0.995   6.083   8.858 -0.1150 -0.2470  0.1815
  211SOD    SOD22339   5.853   2.807   2.365  0.0648  0.9775 -0.7104
  212SOD    SOD22340   3.095   4.945   8.276  0.4390  0.3459  0.2988
  213SOD    SOD22341   6.815   0.025   8.606 -0.0007 -0.6671 -0.2053
  214SOD    SOD22342   1.916   2.915   8.723 -0.6186  0.0797 -0.1526
  215SOD    SOD22343   3.224   5.114   1.812  0.2138 -0.0942  0.0962
  216SOD    SOD22344   5.327   3.600   0.805  0.3678  0.1598  0.3962
  217SOD    SOD22345   0.190   1.468   1.968 -0.3616  0.3147 -0.3748
  218SOD    SOD22346   4.392   4.949   1.174  0.4110  0.1727 -0.2905
  219SOD    SOD22347   6.117   3.961   2.846  0.0713  0.1613  0.3194
  220SOD    SOD22348   5.287   2.994   1.517 -0.1200  0.1667 -0.1056
  221SOD    SOD22349   4.644   5.373   1.270  0.2563 -0.7349 -0.0711
  222SOD    SOD22350   3.454   0.071   1.126 -0.5795  0.3467 -0.2085
  223SOD    SOD22351   6.147   6.684   0.826 -0.0415 -0.6185  0.2061
  224SOD    SOD22352   2.316   3.909   7.346 -0.0076  0.6154 -0.0586
  225SOD    SOD22353   6.312   0.295   7.035  0.1020  0.0055 -0.3946
  226SOD    SOD22354   6.273   2.868   7.392  0.1506 -0.2337  0.0670
  227SOD    SOD22355   0.722   0.104   2.116  0.1179  0.0411  0.1807
  228SOD    SOD22356   5.882   5.608   0.848  0.0990 -0.0919  0.1088
  229SOD    SOD22357   4.690   6.751   8.599 -0.0346  0.0637  0.2056
  230CLA    CLA22358   2.188   5.150   8.523  0.2776  0.0544 -0.2715
  231CLA    CLA22359   4.272   2.200   1.415 -0.0805 -0.0143  0.2207
  232CLA    CLA22360   6.409   0.818   0.597  0.3852  0.3369 -0.0889
  233CLA    CLA22361   6.467   6.391   0.689 -0.0410 -0.1612 -0.2450
  234CLA    CLA22362   3.677   6.147   0.952 -0.0925 -0.0525  0.2999
  235CLA    CLA22363   5.615   5.382   1.487  0.1881 -0.2016  0.1150
  236CLA    CLA22364   2.058   3.130   8.007  0.3166  0.2589  0.2879
  237CLA    CLA22365   3.967   4.752   8.088  0.4942  0.1941 -0.4369
  238CLA    CLA22366   4.349   6.233   0.573  0.0650 -0.2506  0.1459
  239CLA    CLA22367   3.828   5.360   7.571  0.2000  0.0466 -0.1953
  240CLA    CLA22368   5.153   3.733   1.316  0.2510  0.1103  0.1440
  241CLA    CLA22369   4.557   1.456   0.692 -0.2760  0.0761  0.2158
  242CLA    CLA22370   2.668   0.309   0.329 -0.0647  0.2211  0.0582
  243CLA    CLA22371   1.131   6.203   1.272  0.1823  0.1362  0.3056
  244CLA    CLA22372   3.809   0.607   8.538  0.0216 -0.1763  0.3277
  245CLA    CLA22373   4.155   4.057   0.487 -0.0870  0.1562  0.1478
  246CLA    CLA22374   1.140   2.729   0.854  0.0076  0.0555  0.4392
  247TIP3   OH222375   6.646   5.479   2.402 -0.6788 -0.3245  0.2622
  247TIP3    H122376   6.737   5.475   2.432 -0.0487 -0.8793 -1.5797
  247TIP3    H222377   6.645   5.552   2.340 -2.0102  0.9933  1.7518
  248TIP3   OH222378   3.213   6.352   0.117 -0.5124 -0.5985 -0.0548
  248TIP3    H122379   3.233   6.446   0.124 -1.0960 -0.3148 -1.6128
  248TIP3    H222380   3.117   6.348   0.118 -0.5328 -1.0197 -1.2224
  249TIP3   OH222381   3.614   0.850   7.413 -0.5646  0.4475 -0.2155
  249TIP3    H122382   3.520   0.830   7.407  0.1768 -4.3572  0.1627
  249TIP3    H222383   3.653   0.802   7.339  1.7242  1.1209  0.4754
  250TIP3   OH222384   2.843   0.763   7.782  0.5930 -0.4391 -0.1222
  250TIP3    H122385   2.791   0.833   7.822  0.3839 -0.1760 -0.8538
  250TIP3    H222386   2.869   0.797   7.697 -0.0517 -1.4764 -0.7623
  251TIP3   OH222387   2.920   5.748   2.063  0.6873 -0.5248  0.3970
  251TIP3    H122388   2.867   5.826   2.083  2.2529  0.1732  2.1115
  251TIP3    H222389   2.943   5.713   2.149 -0.7277 -3.4900 -0.3174
  252TIP3   OH222390   1.704   5.710   0.591 -0.6404  0.4087  0.4900
  252TIP3    H122391   1.646   5.723   0.515 -0.5321  1.0105  0.5100
  252TIP3    H222392   1.647   5.721   0.667 -0.7622 -0.2547  0.5059
  253TIP3   OH222393   1.933   1.308   1.042 -0.1269  0.1925  0.4981
  253TIP3    H122394   1.921   1.294   1.135  0.6638 -0.2121  0.5476
  253TIP3    H222395   1.994   1.240   1.014 -2.8894 -1.8723 -1.0136
  254TIP3   OH222396   5.545   3.909   1.397 -0.3096  0.2786 -0.0764
  254TIP3    H122397   5.557   3.889   1.490 -0.5659 -1.3388 -0.3606
  254TIP3    H222398   5.511   3.828   1.359 -1.8297  1.4147 -1.2849
  255TIP3   OH222399   5.660   6.486   0.477  0.3514  0.1612 -0.3734
  255TIP3    H122400   5.667   6.575   0.510  1.4810 -0.7517  2.1181
  255TIP3    H222401   5.578   6.453   0.513  1.6249 -0.8640  1.8201
  256TIP3   OH222402   2.604   1.950   0.152  0.7707  0.1136 -0.3914
  256TIP3    H122403   2.638   1.893   0.221 -0.8908 -0.9353 -0.3773
  256TIP3    H222404   2.672   2.017   0.140  1.6171 -0.3611  1.4179
  257TIP3   OH222405   1.757   4.169   8.816  0.3149 -0.2831 -0.2832
  257TIP3    H122406   1.828   4.199   8.873 -0.0447 -1.8410  1.0832
  257TIP3    H222407   1.764   4.223   8.738  0.9857  1.7883  1.1287
  258TIP3   OH222408   1.162   6.369   0.996  0.1312 -0.2697  0.0888
  258TIP3    H122409   1.142   6.326   1.079  1.0845  0.4750  0.7155
  258TIP3    H222410   1.167   6.297   0.933 -0.4059 -0.8628  0.6978
  259TIP3   OH222411   5.382   0.108   7.888 -0.4203 -0.3357 -0.0312
  259TIP3    H122412   5.373   0.117   7.794  0.4112 -0.0080 -0.0849
  259TIP3    H222413   5.447   0.173   7.913 -2.6303  1.5398  1.1766
  260TIP3   OH222414   1.320   1.499   0.248  0.2717  0.7558 -0.0866
  260TIP3    H122415   1.355   1.587   0.236 -1.5637  1.7571  1.2691
  260TIP3    H222416   1.330   1.457   0.163  1.1657  2.2848 -0.7756
  261TIP3   OH222417   1.423   1.099   7.965 -0.0505  0.0073  0.3829
  261TIP3    H122418   1.366   1.023   7.963 -0.0706  0.0177  0.5032
  261TIP3    H222419   1.365   1.172   7.984 -0.1478  0.1720 -0.5298
  262TIP3   OH222420   3.919   6.165   1.219  0.3487  0.5254 -0.2990
  262TIP3    H122421   3.855   6.176   1.148 -1.1244 -0.5768  0.7935
  262TIP3    H222422   3.983   6.104   1.184  0.6843  1.4019 -1.3066
  263TIP3   OH222423   3.232   1.051   0.423  0.1062  0.5247  0.6051
  263TIP3    H122424   3.226   1.146   0.411  1.1317  0.3239 -2.5395
  263TIP3    H222425   3.254   1.018   0.336  0.6167 -2.5417  1.7833
  264TIP3   OH222426   5.147   6.286   2.067  0.1556  0.3533  0.9449
  264TIP3    H122427   5.111   6.198   2.079 -0.5278  0.1607 -1.8205
  264TIP3    H222428   5.220   6.274   2.005  0.1332  1.6947  0.6254
  265TIP3   OH222429   3.545   4.399   1.039  0.2214 -0.1970 -0.4405
  265TIP3    H122430   3.586   4.386   0.953  1.9639 -0.4414  0.3711
  265TIP3    H222431   3.539   4.494   1.048 -0.3060 -0.1716 -0.9609
  266TIP3   OH222432   1.821   1.797   0.993  0.0364 -0.0145 -0.7880
  266TIP3    H122433   1.886   1.843   1.046  0.4237 -0.7895 -0.5852
  266TIP3    H222434   1.864   1.716   0.966 -1.5442 -1.5585  1.0815
  267TIP3   OH222435   3.189   6.096   0.280 -0.1176 -0.4855 -0.8341
  267TIP3    H122436   3.120   6.037   0.251 -0.6311 -1.3070  1.7840
  267TIP3    H222437   3.166   6.181   0.242 -1.7012 -1.0832 -1.2759
  268TIP3   OH222438   4.106   5.672   0.262  0.1321 -0.0472 -0.0250
  268TIP3    H122439   4.022   5.704   0.295  0.5012  0.5873  0.3198
  268TIP3    H222440   4.082   5.613   0.190 -0.7074 -1.6444  1.4857
  269TIP3   OH222441   5.771   2.063   6.889  0.4192 -0.4163 -0.4236
  269TIP3    H122442   5.675   2.056   6.895  0.0247  2.3499 -1.9096
  269TIP3    H222443   5.795   2.126   6.957  0.9181  0.3534 -1.2957
  270TIP3   OH222444   4.793   0.057   7.772 -0.1475  0.3382 -0.6162
  270TIP3    H122445   4.741  -0.016   7.805 -1.0346  0.5412 -1.4981
  270TIP3    H222446   4.750   0.135   7.808 -0.3908  0.4998 -1.2375
  271TIP3   OH222447   5.401   1.970   8.492  0.0177  0.4981  0.7777
  271TIP3    H122448   5.326   1.911   8.479  1.6472 -1.3301 -1.0671
  271TIP3    H222449   5.389   2.006   8.580 -2.2235 -0.8795  1.1057
  272TIP3   OH222450   6.421   4.568   1.728  0.0761 -0.4451  0.1451
  272TIP3    H122451   6.448   4.616   1.807  0.8243 -2.1506  0.9927
  272TIP3    H222452   6.493   4.506   1.713 -0.7413 -1.1293 -1.0193
  273TIP3   OH222453   5.525   6.112   8.183  0.7308  0.6088 -0.8522
  273TIP3    H122454   5.512   6.182   8.247 -2.1627  1.7239 -2.4776
  273TIP3    H222455   5.482   6.035   8.222  4.3233 -0.6624  1.1564
  274TIP3   OH222456   5.618   1.670   7.417  0.0251  0.4651 -0.3204
  274TIP3    H122457   5.543   1.609   7.413 -0.1395  0.2915  2.9882
  274TIP3    H222458   5.663   1.657   7.333 -2.5591 -0.8272 -1.6370
  275TIP3   OH222459   6.377   2.512   8.404  0.5172 -0.2187  0.0326
  275TIP3    H122460   6.435   2.544   8.473  0.6219  1.0640 -0.6278
  275TIP3    H222461   6.358   2.589   8.351 -1.3124 -0.7223 -0.1148
  276TIP3   OH222462   3.337   3.942   6.847 -0.0511 -0.1561  0.2739
  276TIP3    H122463   3.256   3.922   6.800  0.6963 -1.0439 -0.7097
  276TIP3    H222464   3.379   4.009   6.794  0.0006  0.0777  0.6112
  277TIP3   OH222465   4.487   5.145   7.948  0.6006  0.1695  0.3571
  277TIP3    H122466   4.431   5.116   7.876 -2.5962  1.7065  2.0267
  277TIP3    H222467   4.523   5.064   7.984 -0.0928 -0.8473 -1.1350
  278TIP3   OH222468   2.763   2.390   7.335  0.4399 -0.4756  0.1752
  278TIP3    H122469   2.756   2.481   7.365 -1.5693 -0.6490  0.3926
  278TIP3    H222470   2.849   2.361   7.364  0.9210  1.1938  0.5354
  279TIP3   OH222471   4.511   1.329   0.984 -0.4382 -0.0784  0.3242
  279TIP3    H122472   4.512   1.364   0.895  1.0170  2.1615  1.1221
  279TIP3    H222473   4.443   1.262   0.983 -0.4764 -0.1230 -2.4474
  280TIP3   OH222474   2.056   4.560   0.076 -0.2110 -0.1755 -0.1853
  280TIP3    H122475   2.048   4.613  -0.004  2.4090  1.4090  0.4573
  280TIP3    H222476   2.002   4.605   0.140  1.1615  1.2314  0.0607
  281TIP3   OH222477   1.376   5.153   7.280 -0.3839  0.0211 -0.2513
  281TIP3    H122478   1.368   5.247   7.259 -0.5936 -0.0916 -0.6843
  281TIP3    H222479   1.429   5.151   7.359 -0.5699  0.5215 -0.1111
  282TIP3   OH222480   0.925   5.717   7.992  0.3974  0.3277  0.1412
  282TIP3    H122481   0.963   5.792   8.037 -0.1379 -0.0559  1.2572
  282TIP3    H222482   0.989   5.695   7.925  1.8288  0.1185  1.5265
  283TIP3   OH222483   4.222   4.908   8.116 -0.0332 -0.7963  0.3161
  283TIP3    H122484   4.140   4.862   8.096 -0.3123 -0.4194  0.5672
  283TIP3    H222485   4.291   4.849   8.087 -0.3925 -1.2430  0.3685
  284TIP3   OH222486   3.026   4.203   8.448  0.0951 -0.9501  0.2289
  284TIP3    H122487   2.950   4.167   8.402  0.3577 -0.2538 -0.7794
  284TIP3    H222488   3.101   4.161   8.407  0.3059 -0.8303  0.4872
  285TIP3   OH222489   0.333   2.199   8.145  0.4386 -0.3852  0.3446
  285TIP3    H122490   0.339   2.179   8.239 -0.2755 -3.0672 -0.1027
  285TIP3    H222491   0.250   2.161   8.118  0.4497  0.6854 -1.3516
  286TIP3   OH222492   0.716   3.551   1.279  0.1430 -0.3297  0.2748
  286TIP3    H122493   0.671   3.469   1.299 -0.2553  0.0937  1.1975
  286TIP3    H222494   0.800   3.524   1.241 -0.6433 -1.1364 -0.9305
  287TIP3   OH222495   3.635   6.534   2.103  0.0633  0.3830 -0.0922
  287TIP3    H122496   3.660   6.462   2.045  0.0030  1.0083 -0.8975
  287TIP3    H222497   3.552   6.567   2.068 -0.8126 -0.2526  1.2855
  288TIP3   OH222498   3.123   4.690   2.107  0.7398 -0.0601 -0.3398
  288TIP3    H122499   3.052   4.753   2.095 -0.3824 -1.1666  0.3192
  288TIP3    H222500   3.095   4.635   2.180  1.8644 -1.1015 -0.6529
  289TIP3   OH222501   3.584   3.621   8.579  0.5698 -0.2658 -0.6437
  289TIP3    H122502   3.586   3.677   8.657  1.5344 -0.7327 -0.3263
  289TIP3    H222503   3.643   3.663   8.517 -0.5434  0.3538 -1.3194
  290TIP3   OH222504   0.747   5.077   7.562 -0.1422 -0.1000  0.0244
  290TIP3    H122505   0.743   5.160   7.610  1.0907 -0.7981  1.4110
  290TIP3    H222506   0.786   5.100   7.477  0.1057  0.7593  0.3594
  291TIP3   OH222507   1.491   0.118   2.201 -0.3098 -0.1911 -0.2702
  291TIP3    H122508   1.449   0.035   2.223  1.1871 -0.7565  0.6111
  291TIP3    H222509   1.478   0.172   2.279  0.8169 -0.4816  0.1357
  292TIP3   OH222510   3.492   1.832   0.073 -0.6979  0.0309  0.1941
  292TIP3    H122511   3.408   1.802   0.039 -1.3099  1.0284  0.8027
  292TIP3    H222512   3.505   1.782   0.153 -0.6995 -0.1263  0.0977
  293TIP3   OH222513   0.139   5.599   7.302 -0.9039  0.5394  0.2517
  293TIP3    H122514   0.084   5.527   7.272 -0.4555 -0.2827  1.3384
  293TIP3    H222515   0.123   5.604   7.397  0.1040  0.9636  0.4203
  294TIP3   OH222516   3.203   1.641   6.780  0.1912  0.3437 -0.1316
  294TIP3    H122517   3.136   1.617   6.844 -1.4578  4.2051 -0.1322
  294TIP3    H222518   3.160   1.706   6.724  2.9848  0.5400 -2.2608
  295TIP3   OH222519   0.802   0.427   1.173 -0.5492  0.6064 -0.1656
  295TIP3    H122520   0.804   0.397   1.083 -0.2258  0.6860 -0.1855
  295TIP3    H222521   0.889   0.464   1.188 -1.0113  1.7977 -0.2400
  296TIP3   OH222522   2.134   1.114   1.031  0.1415 -0.1477 -0.6600
  296TIP3    H122523   2.098   1.056   1.098  0.6827 -0.5750 -0.7401
  296TIP3    H222524   2.139   1.061   0.952 -0.0067  0.2073 -0.9131
  297TIP3   OH222525   0.462   6.338   1.044  0.2672  0.4272 -0.2306
  297TIP3    H122526   0.448   6.411   0.984  0.5127  1.3642  0.8396
  297TIP3    H222527   0.374   6.304   1.061  0.1070  0.7986 -0.3146
  298TIP3   OH222528   3.307   1.878   8.366 -0.2333  0.2363  0.0004
  298TIP3    H122529   3.252   1.821   8.312 -1.1264 -0.0578  1.1818
  298TIP3    H222530   3.389   1.829   8.376 -0.4401 -0.1605 -0.2152
  299TIP3   OH222531   6.225   4.697   7.585  0.3075  0.2786  0.1489
  299TIP3    H122532   6.245   4.778   7.632 -0.5372  0.3478  0.4150
  299TIP3    H222533   6.208   4.724   7.495  0.6824  0.3063  0.0841
  300TIP3   OH222534   0.230   1.423   1.191 -0.3679  0.1287  0.3567
  300TIP3    H122535   0.163   1.407   1.258 -0.6880  0.9234  0.2366
  300TIP3    H222536   0.227   1.517   1.176 -1.1919 -0.1701 -1.6607
  301TIP3   OH222537   4.428   4.966   7.307 -0.0621  0.3985 -0.0187
  301TIP3    H122538   4.486   4.912   7.361 -1.7260 -0.1499  1.2980
  301TIP3    H222539   4.438   4.932   7.218  2.6170  1.1993 -0.1062
  302TIP3   OH222540   4.279   4.657   8.758  0.1526 -0.1205  0.3332
  302TIP3    H122541   4.283   4.702   8.673 -2.3745 -2.7684 -1.4005
  302TIP3    H222542   4.368   4.661   8.792  1.1106  1.6912 -2.0996
  303TIP3   OH222543   5.645   5.615   0.827  0.0508  0.2671  0.1157
  303TIP3    H122544   5.578   5.571   0.879 -0.8873 -0.0394 -1.2788
  303TIP3    H222545   5.608   5.701   0.807 -0.3991 -0.2530 -1.4660
  304TIP3   OH222546   5.001   6.679   0.505  0.1395  0.3939  0.3064
  304TIP3    H122547   5.093   6.694   0.525 -0.0665  0.1853  1.5090
  304TIP3    H222548   4.992   6.703   0.413  1.7055 -1.0525 -0.2631
  305TIP3   OH222549   2.460   5.657   0.887 -0.5946 -0.3092 -0.2575
  305TIP3    H122550   2.414   5.683   0.967 -0.0880 -0.0112 -0.0575
  305TIP3    H222551   2.407   5.586   0.851 -1.9720  0.9133 -0.7628
  306TIP3   OH222552   4.339   4.525   0.478  0.1165  0.3792  0.2032
  306TIP3    H122553   4.258   4.473   0.482 -0.3517  1.1545  1.3877
  306TIP3    H222554   4.316   4.600   0.423  0.2639  0.2283 -0.0676
  307TIP3   OH222555   2.704   0.533   8.519  0.2811  0.3769  0.0268
  307TIP3    H122556   2.704   0.532   8.424  1.1443 -1.3270 -0.0058
  307TIP3    H222557   2.771   0.468   8.544 -0.3388  0.3412  1.7807
  308TIP3   OH222558   6.578   3.819   1.816  0.2132  0.0645 -0.5885
  308TIP3    H122559   6.670   3.797   1.806  0.4527  0.6879  0.1525
  308TIP3    H222560   6.558   3.872   1.739  1.0929  1.8265  0.3352
  309TIP3   OH222561   3.425   0.956   1.872  0.7156 -0.4057 -0.5874
  309TIP3    H122562   3.364   0.980   1.941 -0.6775 -2.0578 -1.1820
  309TIP3    H222563   3.441   1.037   1.825  0.1787  0.3578  0.5091
  310TIP3   OH222564   2.936   3.022   0.017 -0.3211  0.3325 -0.5015
  310TIP3    H122565   2.853   3.003   0.061  0.6579 -1.8740  0.5425
  310TIP3    H222566   2.931   2.975  -0.066  1.0321 -2.5973  0.9245
  311TIP3   OH222567   1.258   5.613   0.192  0.5329  0.4835 -0.1842
  311TIP3    H122568   1.256   5.561   0.272  0.2958 -0.3516 -0.7247
  311TIP3    H222569   1.188   5.678   0.204 -1.1508 -1.1479 -0.6987
  312TIP3   OH222570   5.297   2.527   1.632  0.0094  0.0327 -0.0342
  312TIP3    H122571   5.292   2.594   1.700  0.6730 -0.3783  0.4330
  312TIP3    H222572   5.338   2.452   1.675 -0.3226 -0.5253 -0.6654
  313TIP3   OH222573   6.809   3.869   7.308 -0.0968 -0.0101  0.1364
  313TIP3    H122574   6.846   3.946   7.350  1.1414 -0.7043  0.3548
  313TIP3    H222575   6.722   3.897   7.278  0.3303  1.4575  0.2140
  314TIP3   OH222576   4.373   2.059   7.158  0.1972 -0.1241  0.2743
  314TIP3    H122577   4.377   2.097   7.070  0.2314  0.2809  0.4484
  314TIP3    H222578   4.288   2.014   7.162 -0.2625  0.7403  0.3893
  315TIP3   OH222579   0.530   3.824   7.910  0.3041  0.4307 -0.2573
  315TIP3    H122580   0.515   3.839   7.817  1.6745  0.0280 -0.5625
  315TIP3    H222581   0.482   3.894   7.954 -1.0084  0.1810 -1.2101
  316TIP3   OH222582   3.649   5.916   2.533 -0.5384 -0.0302  0.0367
  316TIP3    H122583   3.656   5.876   2.620  0.0804  1.3882  0.6609
  316TIP3    H222584   3.610   5.847   2.479  1.2784 -1.8190  0.8482
  317TIP3   OH222585   0.761   6.078   8.844  0.1769 -0.2538 -0.4317
  317TIP3    H122586   0.723   6.166   8.851  0.9013  0.0037  0.3479
  317TIP3    H222587   0.703   6.022   8.895 -0.8671 -0.4350 -1.7668
  318TIP3   OH222588   2.092   5.261   0.920  0.0717 -0.2852  0.4668
  318TIP3    H122589   2.021   5.248   0.856  0.8979  2.4487 -1.2040
  318TIP3    H222590   2.168   5.284   0.866  1.5047 -0.4323  2.3503
  319TIP3   OH222591   1.805   0.107   0.295  0.4417 -0.0349  0.2843
  319TIP3    H122592   1.826   0.111   0.202 -0.8630 -0.6518 -0.0531
  319TIP3    H222593   1.813   0.014   0.317 -0.0097  0.0012  0.6060
  320TIP3   OH222594   1.459   6.255   8.686  0.4517 -0.5130  0.0090
  320TIP3    H122595   1.533   6.284   8.739  0.9845 -1.3561 -0.2742
  320TIP3    H222596   1.496   6.197   8.620 -0.3522 -0.3176 -0.6351
  321TIP3   OH222597   3.201   0.294   1.907 -0.5783  0.0676 -0.4708
  321TIP3    H122598   3.202   0.381   1.867  2.9539  0.2937 -0.2284
  321TIP3    H222599   3.192   0.311   2.001 -1.7572 -0.0105 -0.5501
  322TIP3   OH222600   0.778   6.731   7.335 -0.2831 -0.0438  0.4636
  322TIP3    H122601   0.778   6.727   7.240  3.0247  0.3498  0.3490
  322TIP3    H222602   0.791   6.824   7.355  3.3798 -0.5537  1.0810
  323TIP3   OH222603   2.219   4.634   1.067  0.6723  0.2185 -0.2217
  323TIP3    H122604   2.256   4.623   1.154  1.0122  1.0212 -0.2547
  323TIP3    H222605   2.156   4.706   1.077 -1.1089 -1.2893 -0.1057
  324TIP3   OH222606   1.905   5.185   0.753 -0.0820 -0.0189 -0.0334
  324TIP3    H122607   1.874   5.103   0.792  0.4601 -0.1758  0.0803
  324TIP3    H222608   1.963   5.157   0.682 -1.1035  0.2640 -1.0053
  325TIP3   OH222609   2.673   4.572   6.788  0.0061 -0.4637 -0.2046
  325TIP3    H122610   2.607   4.538   6.728  0.9663 -0.1761 -1.4585
  325TIP3    H222611   2.743   4.605   6.731 -0.4999  2.9009  0.9480
  326TIP3   OH222612   2.242   3.628   0.788 -0.6160 -0.0839  0.1067
  326TIP3    H122613   2.234   3.608   0.694  1.3519  0.8227 -0.2933
  326TIP3    H222614   2.322   3.680   0.795 -0.4227 -0.5943  2.3833
  327TIP3   OH222615   3.368   0.262   0.533  0.4525  0.2427  0.0238
  327TIP3    H122616   3.431   0.303   0.593  2.4631  1.3515 -2.6388
  327TIP3    H222617   3.368   0.318   0.456 -4.4331  0.6786  0.0410
  328TIP3   OH222618   0.214   5.248   2.067  0.3286 -0.1856 -0.2593
  328TIP3    H122619   0.284   5.262   2.003  0.4211  0.3931 -0.0353
  328TIP3    H222620   0.260   5.233   2.150  0.2010 -0.4619 -0.2384
  329TIP3   OH222621   1.961   4.680   0.481 -0.5913  0.1657 -0.2628
  329TIP3    H122622   1.965   4.595   0.525 -1.0487  0.6615  0.7886
  329TIP3    H222623   1.911   4.663   0.401  0.3403 -0.7799 -0.6649
  330TIP3   OH222624   3.231   5.204   8.321  0.2723 -0.1987  0.5536
  330TIP3    H122625   3.263   5.294   8.310  1.9188 -0.9894 -2.4479
  330TIP3    H222626   3.170   5.192   8.248  0.3346 -1.5814  0.7033
  331TIP3   OH222627   4.169   0.444   8.563  0.4870 -0.1184 -0.8702
  331TIP3    H122628   4.160   0.532   8.527 -0.3388 -0.3189 -1.1715
  331TIP3    H222629   4.085   0.402   8.545 -0.7358  0.3415  2.9189
  332TIP3   OH222630   6.549   2.882   2.369  0.4129  0.1682  0.2810
  332TIP3    H122631   6.590   2.876   2.282 -0.8622  0.6573 -0.3902
  332TIP3    H222632   6.524   2.974   2.377  1.5114  0.3760  1.6675
  333TIP3   OH222633   3.072   3.982   7.094  0.0291  0.0856 -0.1295
  333TIP3    H122634   3.069   3.895   7.054  0.0278 -0.2031  0.4935
  333TIP3    H222635   3.166   4.000   7.103  0.0362  0.3802 -0.7494
  334TIP3   OH222636   2.819   5.792   7.897  0.2689 -0.0836 -0.4232
  334TIP3    H122637   2.727   5.802   7.874  0.7723  1.2580 -2.0178
  334TIP3    H222638   2.855   5.734   7.830  0.4665 -1.1513  0.5772
  335TIP3   OH222639   3.435   3.014   1.372  0.6596 -0.0040 -0.1232
  335TIP3    H122640   3.466   3.105   1.379  1.7646  0.0409 -3.8432
  335TIP3    H222641   3.514   2.962   1.366  0.0324 -0.8648 -1.2270
  336TIP3   OH222642   1.606   0.258   0.429 -0.5514 -0.0354 -0.1237
  336TIP3    H122643   1.576   0.207   0.504 -0.9174  1.9965  1.1871
  336TIP3    H222644   1.696   0.227   0.413  0.9755  1.9182  3.5581
  337TIP3   OH222645   4.373   4.348   1.280 -0.2854  0.0162  0.8590
  337TIP3    H122646   4.391   4.363   1.373  3.0759  0.6747  0.2642
  337TIP3    H222647   4.393   4.256   1.266  2.2432  0.5533  0.3600
  338TIP3   OH222648   3.745   5.705   8.398  0.5760  0.6007  0.2042
  338TIP3    H122649   3.699   5.626   8.371 -0.0025  1.2943 -0.9188
  338TIP3    H222650   3.694   5.738   8.473  0.5651  0.1545  0.3932
  339TIP3   OH222651   2.461   2.918   7.433 -0.1770  0.0753  0.0043
  339TIP3    H122652   2.522   2.931   7.506 -0.5696  1.6305  0.0804
  339TIP3    H222653   2.484   2.986   7.370  0.6308 -1.6712 -1.7012
  340TIP3   OH222654   2.970   2.479   2.385  0.0648  0.3735  0.1244
  340TIP3    H122655   2.950   2.466   2.478 -0.7651  1.1226  0.0704
  340TIP3    H222656   2.894   2.442   2.340  0.6337 -0.3203 -0.2789
  341TIP3   OH222657   6.192   4.584   2.569  0.1693  0.1843  0.3945
  341TIP3    H122658   6.193   4.489   2.577  0.8081  0.0590 -0.9210
  341TIP3    H222659   6.116   4.602   2.514  1.0373  0.2816 -0.8067
  342TIP3   OH222660   0.050   2.899   8.785 -0.0575  0.1576  0.5061
  342TIP3    H122661   0.043   2.819   8.734 -0.8306  0.4601  0.1086
  342TIP3    H222662   0.143   2.911   8.800  0.2046  0.1100 -0.9362
  343TIP3   OH222663   2.454   5.489   1.728 -0.1526  0.1744  0.4177
  343TIP3    H122664   2.428   5.401   1.758  1.1558 -0.0982  0.8109
  343TIP3    H222665   2.381   5.545   1.753 -0.3807 -0.5610  1.4747
  344TIP3   OH222666   4.072   1.170   8.617  0.5078  0.1498 -0.2358
  344TIP3    H122667   4.126   1.103   8.659  0.9921  0.8488  0.2895
  344TIP3    H222668   4.135   1.229   8.576  0.1249  0.6638 -0.0963
  345TIP3   OH222669   0.354   5.112   0.188  0.6738 -0.0958 -0.0348
  345TIP3    H122670   0.266   5.139   0.160  0.8368  0.2163 -0.2571
  345TIP3    H222671   0.354   5.017   0.179  0.1578 -0.1620  0.5537
  346TIP3   OH222672   5.841   5.058   6.640  0.2870 -1.1215  0.1227
  346TIP3    H122673   5.824   5.009   6.559  0.0859 -0.5965 -0.1580
  346TIP3    H222674   5.756   5.093   6.665  0.7035  0.5536 -0.6577
  347TIP3   OH222675   1.538   1.883   0.579 -0.2517 -0.0974 -0.1479
  347TIP3    H122676   1.572   1.963   0.541 -1.9693  0.3462 -0.8537
  347TIP3    H222677   1.446   1.903   0.600 -1.6979 -2.7171 -3.1612
  348TIP3   OH222678   0.049   0.179   0.179 -0.3684 -0.2084 -0.3382
  348TIP3    H122679   0.061   0.241   0.251  0.9145 -1.2541  0.4050
  348TIP3    H222680   0.135   0.175   0.137 -0.7084 -0.7312 -0.9899
  349TIP3   OH222681   3.465   4.667   8.092  0.0551 -0.5139  0.2123
  349TIP3    H122682   3.532   4.724   8.055 -0.5584  0.0437 -0.0752
  349TIP3    H222683   3.418   4.632   8.015 -0.2811 -0.5263  0.4188
  350TIP3   OH222684   0.878   2.642   1.018  0.5773 -0.0420  0.4424
  350TIP3    H122685   0.916   2.605   1.098 -0.3154  0.2320  1.0101
  350TIP3    H222686   0.953   2.671   0.967  1.1846 -0.6197  0.9862
  351TIP3   OH222687   2.039   1.076   6.566  0.2678  0.0479 -0.0840
  351TIP3    H122688   2.039   1.108   6.475  1.4930  0.0165 -0.1147
  351TIP3    H222689   2.019   0.983   6.559  0.9117 -0.0773 -0.3935
  352TIP3   OH222690   1.350   6.545   0.627  0.4496 -0.1407  0.3766
  352TIP3    H122691   1.325   6.628   0.586  0.0469  0.0260  0.9592
  352TIP3    H222692   1.446   6.543   0.619  0.5022  0.5917  0.7580
  353TIP3   OH222693   5.440   2.333   1.743 -0.1814  0.3161 -0.4581
  353TIP3    H122694   5.524   2.299   1.712  1.0122  2.3799  0.2680
  353TIP3    H222695   5.433   2.304   1.833  0.5315  1.3884 -0.0368
  354TIP3   OH222696   3.343   6.136   8.648 -0.0829 -0.7973  0.0573
  354TIP3    H122697   3.268   6.180   8.687 -1.4058 -1.7944 -1.2408
  354TIP3    H222698   3.389   6.096   8.722 -1.9523 -1.8084  0.7371
  355TIP3   OH222699   5.205   0.002   1.631  0.6258  0.3744  0.0698
  355TIP3    H122700   5.131   0.019   1.573 -0.4423 -2.4408  0.4216
  355TIP3    H222701   5.281  -0.005   1.573 -0.0293 -0.1582 -0.7446
  356TIP3   OH222702   6.380   6.310   8.700  0.0581 -0.1322  0.1079
  356TIP3    H122703   6.459   6.270   8.735 -0.2668  0.0481  1.0842
  356TIP3    H222704   6.310   6.247   8.720  0.0682 -0.6736 -1.4846
  357TIP3   OH222705   1.054   1.763   0.054 -0.2058 -0.0298 -0.1012
  357TIP3    H122706   1.017   1.728   0.135  0.7289 -0.3970  0.1837
  357TIP3    H222707   1.025   1.702  -0.014 -1.1803  0.4046 -0.0887
  358TIP3   OH222708   3.689   0.885   8.668 -0.2365  0.2359  0.3396
  358TIP3    H122709   3.728   0.818   8.612 -1.8910 -0.4361 -0.0792
  358TIP3    H222710   3.763   0.925   8.714  0.9851 -0.4418 -0.9672
  359TIP3   OH222711   2.046   3.923   1.016  0.5414 -0.5857 -0.2649
  359TIP3    H122712   2.138   3.947   1.020  0.2404  0.5963  0.0384
  359TIP3    H222713   2.012   3.970   0.940 -0.3093  0.9596  0.9806
  360TIP3   OH222714   3.917   3.053   1.846 -0.0380  0.5055 -0.1012
  360TIP3    H122715   3.955   3.135   1.876 -1.0079  0.3652  1.5895
  360TIP3    H222716   3.984   2.987   1.865  0.2976  0.7348 -0.4628
  361TIP3   OH222717   4.714   3.805   0.578 -0.1826  0.2549  0.6257
  361TIP3    H122718   4.703   3.724   0.529  0.6533  0.8274 -0.5747
  361TIP3    H222719   4.798   3.796   0.622  0.1203  0.6254  0.1383
  362TIP3   OH222720   2.941   5.016   7.346  0.0312  0.7178  0.0156
  362TIP3    H122721   2.968   4.958   7.416  2.5838  0.1444 -1.3485
  362TIP3    H222722   2.846   5.002   7.338  0.3469 -2.2269  0.6282
  363TIP3   OH222723   3.967   3.638   1.913 -0.2902 -0.0025 -1.1233
  363TIP3    H122724   3.884   3.685   1.912 -0.2728  0.0141 -1.7573
  363TIP3    H222725   3.990   3.626   1.821  1.7721  2.3836 -1.0128
  364TIP3   OH222726   4.795   4.203   8.210  0.1783 -0.0877 -0.4337
  364TIP3    H122727   4.800   4.133   8.275 -0.9756 -1.4976 -1.7449
  364TIP3    H222728   4.770   4.281   8.259  0.8961 -0.7311  0.9968
  365TIP3   OH222729   4.345   3.724   0.344  0.0504  0.1023  0.2642
  365TIP3    H122730   4.389   3.786   0.286 -1.0889  1.2363  0.5532
  365TIP3    H222731   4.350   3.765   0.431 -1.0328 -0.0150  0.3962
  366TIP3   OH222732   1.705   3.700   7.992  0.4928  0.0168 -0.0169
  366TIP3    H122733   1.791   3.659   7.978  1.2881  2.2507 -2.4498
  366TIP3    H222734   1.664   3.701   7.906 -0.9691  1.1411  0.6518
  367TIP3   OH222735   2.122   5.224   6.797 -0.3390  0.4542  0.3562
  367TIP3    H122736   2.190   5.163   6.768 -0.8442 -0.1629  0.4448
  367TIP3    H222737   2.114   5.209   6.891  1.0058  2.1615  0.8075
  368TIP3   OH222738   0.084   1.922   2.011 -0.1899 -0.3074 -0.0063
  368TIP3    H122739   0.173   1.929   2.046 -0.4712 -0.1012  0.6937
  368TIP3    H222740   0.049   1.844   2.054 -0.5863  0.0285  0.2868
  369TIP3   OH222741   5.611   5.003   0.119 -0.1697 -0.5275  0.0889
  369TIP3    H122742   5.625   5.093   0.147  0.5656 -1.1689  1.9973
  369TIP3    H222743   5.694   4.977   0.079  0.7148 -1.2153  2.2296
  370TIP3   OH222744   4.400   3.250   8.163  0.0287  0.3338 -0.1584
  370TIP3    H122745   4.442   3.191   8.225 -0.8842 -0.7637 -0.5368
  370TIP3    H222746   4.313   3.266   8.200  0.2503  1.4487 -0.0757
  371TIP3   OH222747   1.918   6.704   0.687  0.4846 -0.1041 -0.4147
  371TIP3    H122748   1.904   6.764   0.614  1.5356  1.0672  0.3029
  371TIP3    H222749   1.996   6.654   0.662 -0.1926 -0.9724 -0.8598
  372TIP3   OH222750   2.786   0.572   0.497  0.3695  0.2913 -0.0974
  372TIP3    H122751   2.726   0.531   0.560  0.5137  0.3463  0.0760
  372TIP3    H222752   2.765   0.530   0.413  0.5152 -0.1396  0.0787
  373TIP3   OH222753   3.409   5.935   8.435  0.2528 -0.6398  0.4418
  373TIP3    H122754   3.451   6.016   8.405  1.9189 -1.4355  0.5093
  373TIP3    H222755   3.381   5.954   8.524  1.2698 -0.3490  0.7087
  374TIP3   OH222756   1.167   4.804   0.474  0.3541  0.0236  0.6352
  374TIP3    H122757   1.108   4.798   0.400  0.5756  0.9961  0.3622
  374TIP3    H222758   1.180   4.714   0.503  0.0493 -0.3335 -0.3331
  375TIP3   OH222759   6.615   2.039   1.200  0.3525  0.2540  0.2188
  375TIP3    H122760   6.587   2.057   1.290 -0.1184  1.5810 -0.1710
  375TIP3    H222761   6.679   2.107   1.182  0.8091 -0.3041 -0.3011
  376TIP3   OH222762   4.065   3.796   0.289 -0.3295  0.0820  0.4193
  376TIP3    H122763   4.140   3.765   0.340 -0.8354  1.0875  1.8519
  376TIP3    H222764   4.035   3.874   0.336 -1.7378  0.2087 -0.6199
  377TIP3   OH222765   5.517   0.853   1.950 -0.2671 -0.5239 -0.0750
  377TIP3    H122766   5.426   0.883   1.944  0.1985  1.3728  1.4498
  377TIP3    H222767   5.536   0.817   1.863 -2.3132 -0.5497 -0.5649
  378TIP3   OH222768   2.157   5.530   1.937 -0.6938 -0.4105 -0.4943
  378TIP3    H122769   2.131   5.582   2.013 -1.6924 -0.7792 -0.5615
  378TIP3    H222770   2.204   5.592   1.880 -0.0899 -0.0929  0.3351
  379TIP3   OH222771   6.730   6.076   8.059  0.2874  0.6396 -0.4760
  379TIP3    H122772   6.749   6.005   8.120 -0.6033  0.6547 -0.1653
  379TIP3    H222773   6.647   6.113   8.090 -0.2275  0.6050 -1.7184
  380TIP3   OH222774   5.722   6.141   1.309  0.7741 -0.1119  0.2615
  380TIP3    H122775   5.648   6.089   1.280  1.0054  0.7347 -2.1247
  380TIP3    H222776   5.744   6.107   1.395 -3.8986  1.2279  2.2567
  381TIP3   OH222777   5.706   2.211   1.935  0.0278 -0.0340 -0.4702
  381TIP3    H122778   5.764   2.179   2.004 -0.4148  0.3040  0.0619
  381TIP3    H222779   5.663   2.133   1.900 -2.1367  0.0475  1.7866
  382TIP3   OH222780   5.854   1.009   1.755  0.7098  0.2129 -0.1946
  382TIP3    H122781   5.870   1.065   1.679  1.5863 -0.3280 -0.4216
  382TIP3    H222782   5.771   1.041   1.791  0.3433  0.5563 -1.2998
  383TIP3   OH222783   4.584   6.444   1.154  0.1572 -0.0018 -0.0056
  383TIP3    H122784   4.625   6.360   1.176 -1.3601 -1.0058 -0.8621
  383TIP3    H222785   4.555   6.433   1.063 -0.1630  1.4209 -0.0954
  384TIP3   OH222786   5.152   4.247   1.089  0.0432 -0.0748 -0.5449
  384TIP3    H122787   5.129   4.184   1.158  0.6625 -0.0883 -0.3497
  384TIP3    H222788   5.069   4.291   1.069  0.0305  0.6410  0.9300
  385TIP3   OH222789   1.138   3.763   1.343 -0.0377 -0.2376 -0.7948
  385TIP3    H122790   1.232   3.766   1.322 -0.1978  2.3743 -1.5050
  385TIP3    H222791   1.124   3.839   1.400 -2.1311  1.0665 -2.8751
  386TIP3   OH222792   1.538   5.060   2.134  0.7543 -0.2614  0.0185
  386TIP3    H122793   1.464   5.121   2.134 -0.3149 -1.4591 -1.6374
  386TIP3    H222794   1.536   5.020   2.220 -0.4921 -0.1958  0.0424
  387TIP3   OH222795   1.108   6.068   6.986  0.4954  0.3263  0.4243
  387TIP3    H122796   1.185   6.099   6.938 -0.9980  1.2537 -1.4993
  387TIP3    H222797   1.084   5.986   6.942 -0.5576  0.8911 -0.0907
  388TIP3   OH222798   0.310   6.219   1.541  0.1718  0.0867 -0.6588
  388TIP3    H122799   0.262   6.208   1.459 -1.3251 -1.2676  0.3313
  388TIP3    H222800   0.370   6.144   1.543  0.8737  0.6261 -0.9137
  389TIP3   OH222801   0.033   2.454   2.429 -0.2657  0.2827 -0.0612
  389TIP3    H122802   0.019   2.548   2.434 -0.8055  0.1470  1.4632
  389TIP3    H222803   0.065   2.429   2.516  0.1008 -0.9100 -0.5108
  390TIP3   OH222804   3.123   6.473   8.432  0.3697  0.3805  0.1826
  390TIP3    H122805   3.060   6.461   8.361  0.3517  0.2515  0.2203
  390TIP3    H222806   3.134   6.568   8.438 -0.2870  0.4434  0.5729
  391TIP3   OH222807   6.316   3.366   8.553  0.4303 -0.0307 -0.3603
  391TIP3    H122808   6.410   3.351   8.547  0.6420 -0.6075  2.7187
  391TIP3    H222809   6.277   3.281   8.532  0.5649  0.2210 -1.6859
  392TIP3   OH222810   5.770   0.873   0.393  0.3662  0.1882 -0.6053
  392TIP3    H122811   5.708   0.944   0.374 -0.6848 -0.7748 -0.8600
  392TIP3    H222812   5.751   0.807   0.327  2.0869  0.1033 -1.0634
  393TIP3   OH222813   4.820   4.288   0.796  0.1047  0.7751 -0.4336
  393TIP3    H122814   4.786   4.201   0.816  0.2755  0.5481 -1.0992
  393TIP3    H222815   4.828   4.289   0.701  0.7035  1.2966 -0.3818
  394TIP3   OH222816   1.294   1.421   8.885  0.0673  0.4335  0.0694
  394TIP3    H122817   1.287   1.359   8.811  0.0949  0.6310 -0.0998
  394TIP3    H222818   1.321   1.503   8.844 -0.5480  0.7114  0.2175
  395TIP3   OH222819   1.706   6.182   1.586  0.1371 -0.1456  0.4595
  395TIP3    H122820   1.661   6.198   1.670 -0.2692  0.7506  0.0812
  395TIP3    H222821   1.643   6.130   1.535 -0.2248  0.5801  0.1605
  396TIP3   OH222822   1.989   1.566   0.976  0.3072 -0.0513  0.0907
  396TIP3    H122823   2.084   1.575   0.987  0.3667  0.4122 -0.7598
  396TIP3    H222824   1.973   1.472   0.982  1.1909 -0.4463 -2.4860
  397TIP3   OH222825   2.954   4.183   0.328  0.5975  0.5465  0.4737
  397TIP3    H122826   3.018   4.181   0.399  0.0369  0.6446  0.9928
  397TIP3    H222827   3.003   4.216   0.253  1.0945  0.8566  0.9214
  398TIP3   OH222828   1.198   0.995   0.812 -0.6572 -0.3637  0.4185
  398TIP3    H122829   1.218   1.062   0.747  2.0698 -1.4408  0.0341
  398TIP3    H222830   1.158   0.924   0.761  0.7028 -0.8647  0.0187
  399TIP3   OH222831   2.556   3.896   2.296  0.6210 -0.6631 -0.5219
  399TIP3    H122832   2.471   3.854   2.307 -0.3864  1.4351  0.1206
  399TIP3    H222833   2.565   3.953   2.372  1.6258  0.7691 -1.6654
  400TIP3   OH222834   5.358   5.895   7.004  0.3653 -0.1201 -0.1933
  400TIP3    H122835   5.324   5.949   7.076  0.9867 -0.9537  0.7518
  400TIP3    H222836   5.283   5.844   6.974  0.9837 -3.6008  3.3243
  401TIP3   OH222837   0.721   1.336   1.397 -0.3565 -0.3867  0.3399
  401TIP3    H122838   0.775   1.292   1.463  0.9178  0.2732 -0.2429
  401TIP3    H222839   0.635   1.344   1.439  0.8267  1.5754  2.6587
  402TIP3   OH222840   2.633   2.873   8.499 -0.3961  0.1256  0.3535
  402TIP3    H122841   2.645   2.832   8.585  1.3110 -0.9148 -0.3348
  402TIP3    H222842   2.720   2.871   8.459 -1.2706  0.0164 -1.6568
  403TIP3   OH222843   2.013   1.883   1.879 -0.1461  0.3525  0.1182
  403TIP3    H122844   1.943   1.939   1.846 -1.0547 -0.6686  0.2588
  403TIP3    H222845   1.974   1.796   1.885  1.5188 -0.5467 -1.0847
  404TIP3   OH222846   3.429   2.953   2.591  0.3560  0.3170 -0.1134
  404TIP3    H122847   3.387   2.989   2.513 -1.2971  0.7509  0.9428
  404TIP3    H222848   3.439   3.028   2.649  0.8756 -0.1448  0.3999
  405TIP3   OH222849   6.020   5.467   7.486 -0.2800  0.1528  0.3748
  405TIP3    H122850   6.085   5.462   7.416 -1.2284 -0.1597 -0.5095
  405TIP3    H222851   6.025   5.557   7.518 -1.5648  1.0973 -1.8450
  406TIP3   OH222852   1.488   0.374   1.195 -0.2510  0.2290  0.2026
  406TIP3    H122853   1.581   0.351   1.200 -0.2354  0.0256 -0.9366
  406TIP3    H222854   1.486   0.457   1.148 -0.7449 -0.5967 -1.2921
  407TIP3   OH222855   4.600   3.562   1.104 -0.1923  0.5052 -0.1978
  407TIP3    H122856   4.661   3.554   1.178  0.5145 -1.8834 -0.9382
  407TIP3    H222857   4.655   3.548   1.027 -1.3300  0.5558 -1.0373
  408TIP3   OH222858   1.761   5.383   1.400 -0.3580  0.0032 -0.3735
  408TIP3    H122859   1.730   5.440   1.329 -0.7564 -0.0841 -0.2710
  408TIP3    H222860   1.843   5.346   1.367 -1.3392 -1.3111 -1.4745
  409TIP3   OH222861   1.541   5.681   7.438  0.2061  0.2561 -0.3531
  409TIP3    H122862   1.570   5.683   7.347  1.7780 -1.4624  0.0402
  409TIP3    H222863   1.528   5.588   7.456 -0.1623  0.5808  1.1519
  410TIP3   OH222864   1.156   3.132   0.565 -0.3345  0.1851  0.3474
  410TIP3    H122865   1.188   3.043   0.581  0.4609  0.6477  1.5002
  410TIP3    H222866   1.232   3.178   0.530 -0.3629  0.7381  1.0059
  411TIP3   OH222867   3.334   3.049   2.143  0.6815 -0.1049 -0.6763
  411TIP3    H122868   3.401   2.996   2.186  3.1459  2.8087 -0.5698
  411TIP3    H222869   3.288   3.092   2.215 -0.1330 -0.7388 -0.8072
  412TIP3   OH222870   1.453   0.845   0.644  0.8684 -0.5458  0.2929
  412TIP3    H122871   1.397   0.910   0.602  1.0797  0.3731  1.3823
  412TIP3    H222872   1.445   0.767   0.589  1.0403  0.5608 -1.3623
  413TIP3   OH222873   1.086   2.984   7.625  0.0416  0.0620  1.0122
  413TIP3    H122874   1.040   3.067   7.619 -0.7402 -0.2813  2.0337
  413TIP3    H222875   1.149   2.986   7.553 -0.2886  1.3300  0.7410
  414TIP3   OH222876   3.695   0.932   8.106  0.3526 -0.4389 -0.5349
  414TIP3    H122877   3.747   0.985   8.167 -0.7107 -0.2327  0.2377
  414TIP3    H222878   3.755   0.864   8.075  1.4038  0.5028 -0.6084
  415TIP3   OH222879   5.289   1.811   8.806 -0.4923 -0.4790  0.2018
  415TIP3    H122880   5.302   1.756   8.883  1.2153 -0.5095 -0.0708
  415TIP3    H222881   5.247   1.754   8.742 -2.2912 -0.3482  1.1951
  416TIP3   OH222882   2.395   1.817   0.979  0.4703 -0.1490 -0.1089
  416TIP3    H122883   2.373   1.846   0.890 -0.0213 -0.5732 -0.1266
  416TIP3    H222884   2.398   1.899   1.030 -0.0596  0.0213 -0.3424
  417TIP3   OH222885   1.475   6.446   7.959 -0.3724  0.8681  0.5115
  417TIP3    H122886   1.442   6.357   7.953 -2.0065  1.4691  0.1021
  417TIP3    H222887   1.466   6.481   7.871 -0.0933  1.5479  0.7463
  418TIP3   OH222888   6.721   3.139   0.405  0.0745 -0.7540  0.1216
  418TIP3    H122889   6.635   3.104   0.427 -1.5182  1.3571 -2.2202
  418TIP3    H222890   6.734   3.116   0.312  0.8748  1.0448 -0.2701
  419TIP3   OH222891   4.211   2.497   8.599  0.1976 -0.8078  0.1089
  419TIP3    H122892   4.129   2.530   8.636  0.5302  0.8198 -0.5231
  419TIP3    H222893   4.278   2.524   8.661  0.2913 -1.9335  0.5067
  420TIP3   OH222894   0.413   1.622   1.385 -0.0152 -0.4437 -0.6377
  420TIP3    H122895   0.476   1.691   1.406 -0.4686 -0.4044  0.6425
  420TIP3    H222896   0.376   1.649   1.301 -1.8524  2.1395  0.8540
  421TIP3   OH222897   4.867   5.660   1.414  0.3473  0.0602 -0.4935
  421TIP3    H122898   4.784   5.651   1.367  0.2293  0.6105 -0.3875
  421TIP3    H222899   4.851   5.727   1.480  0.4299 -0.8894  0.5230
  422TIP3   OH222900   4.731   2.023   1.727  0.1572 -0.2174  0.4206
  422TIP3    H122901   4.737   2.072   1.809  0.6793  0.7488 -0.1703
  422TIP3    H222902   4.659   1.962   1.741 -0.4285  0.6246  1.2401
  423TIP3   OH222903   3.850   5.840   0.779  0.4983  0.6706  0.1259
  423TIP3    H122904   3.798   5.840   0.860  1.8515  1.3963  1.0347
  423TIP3    H222905   3.932   5.798   0.803  1.2671  1.7012 -0.6392
  424TIP3   OH222906   0.810   1.011   0.982  0.3490 -0.3498 -0.3989
  424TIP3    H122907   0.757   1.041   1.055  0.0001  0.5296 -0.9923
  424TIP3    H222908   0.817   0.916   0.994 -1.3995 -0.5007 -0.3292
  425TIP3   OH222909   5.383   1.986   1.099  0.3441 -0.2559  0.2818
  425TIP3    H122910   5.444   2.055   1.126  0.3947  0.2240 -0.9581
  425TIP3    H222911   5.298   2.031   1.092  0.1708 -0.5543  0.4761
  426TIP3   OH222912   5.986   4.438   1.514 -0.2826 -0.3660 -0.5825
  426TIP3    H122913   5.958   4.363   1.566 -0.9761 -0.1467 -0.6367
  426TIP3    H222914   6.076   4.454   1.542 -0.1801 -1.1178 -0.4598
  427TIP3   OH222915   1.490   4.661   8.720  1.0951  0.3777  0.2360
  427TIP3    H122916   1.470   4.613   8.639  0.0500  1.8910 -0.4563
  427TIP3    H222917   1.470   4.752   8.699  1.8636  0.9682  1.8804
  428TIP3   OH222918   4.997   0.258   2.533  0.4446  0.0723  0.2615
  428TIP3    H122919   4.957   0.178   2.500 -1.9838  1.1740  0.3363
  428TIP3    H222920   4.951   0.328   2.488  4.3082  1.5405 -1.8731
  429TIP3   OH222921   6.268   6.628   1.294  0.5113  0.6894  0.2928
  429TIP3    H122922   6.304   6.540   1.286  1.2807  1.0457 -0.4420
  429TIP3    H222923   6.343   6.682   1.319  0.0254  1.1233  0.8349
  430TIP3   OH222924   2.014   5.735   0.108 -0.1455  0.5010 -0.0594
  430TIP3    H122925   2.096   5.698   0.075  0.1717  0.7626  0.4129
  430TIP3    H222926   1.947   5.671   0.084  0.1286  0.4986 -0.8461
  431TIP3   OH222927   0.367   6.443   0.015 -0.1610 -0.0833 -0.6269
  431TIP3    H122928   0.314   6.521  -0.003 -3.7973 -2.4591 -1.1454
  431TIP3    H222929   0.349   6.385  -0.059  1.1351 -2.0618  0.5462
  432TIP3   OH222930   4.286   4.908   2.703 -0.2629 -0.2080 -0.1668
  432TIP3    H122931   4.346   4.855   2.651  0.9224 -0.5306  1.4449
  432TIP3    H222932   4.198   4.881   2.674  0.3396 -0.5450 -1.7675
  433TIP3   OH222933   0.294   5.346   0.035 -0.7522 -0.2214 -0.2492
  433TIP3    H122934   0.300   5.440   0.050  0.1388 -0.1081 -1.1819
  433TIP3    H222935   0.380   5.322   0.002 -0.3074 -1.7281  1.8128
  434TIP3   OH222936   5.514   1.077   7.251  0.0529  0.0868 -0.4062
  434TIP3    H122937   5.550   0.993   7.222 -0.8605  0.1049 -1.6973
  434TIP3    H222938   5.420   1.061   7.260  0.3040 -0.1341  3.5370
  435TIP3   OH222939   3.035   1.208   7.609  0.3308 -0.1283 -0.0470
  435TIP3    H122940   3.060   1.209   7.702  1.1053  1.3859 -0.2537
  435TIP3    H222941   2.971   1.278   7.600  1.0654  0.4523 -0.8693
  436TIP3   OH222942   2.466   3.754   7.764  0.0466  0.1886  0.5992
  436TIP3    H122943   2.545   3.760   7.816 -0.7287  0.3535  1.7972
  436TIP3    H222944   2.399   3.721   7.825 -0.9467  0.6207 -0.2188
  437TIP3   OH222945   1.562   6.623   2.510 -1.3003  0.4291 -0.4472
  437TIP3    H122946   1.487   6.579   2.469  0.7150 -1.9006 -1.9237
  437TIP3    H222947   1.596   6.558   2.572  0.2891  0.8590 -0.8346
  438TIP3   OH222948   3.284   5.447   8.247 -0.3275  0.3094 -0.9925
  438TIP3    H122949   3.230   5.527   8.241 -1.6671 -0.3409  1.1028
  438TIP3    H222950   3.358   5.472   8.303 -0.9795  0.0256  0.0352
  439TIP3   OH222951   6.719   6.006   1.282 -0.2788  0.7263  0.4482
  439TIP3    H122952   6.668   5.966   1.212 -1.6577  2.0460  0.6522
  439TIP3    H222953   6.770   5.934   1.320  0.9090  0.0430 -2.2076
  440TIP3   OH222954   6.787   4.209   0.731  0.0658 -0.1408  0.4166
  440TIP3    H122955   6.754   4.294   0.760  0.1759 -0.0642  0.3164
  440TIP3    H222956   6.844   4.179   0.802  0.5170  0.1516  0.1805
  441TIP3   OH222957   4.930   0.021   0.286  0.0083  0.1151 -0.5521
  441TIP3    H122958   4.956   0.113   0.296  0.4929 -0.2387  2.2005
  441TIP3    H222959   4.835   0.025   0.274 -0.3226  0.9652  1.7908
  442TIP3   OH222960   5.751   5.801   0.454 -0.0851 -0.0583 -0.0580
  442TIP3    H122961   5.694   5.859   0.404 -2.5906 -0.2279  2.3110
  442TIP3    H222962   5.764   5.725   0.398 -1.7289  0.2819 -0.9627
  443TIP3   OH222963   0.278   1.663   7.316  0.2652  0.0977  0.0216
  443TIP3    H122964   0.203   1.712   7.351  0.9425  2.0302 -1.0838
  443TIP3    H222965   0.288   1.589   7.376 -2.4615 -0.1843  0.2561
  444TIP3   OH222966   3.611   6.309   0.170 -0.4330  0.6339  0.4284
  444TIP3    H122967   3.583   6.400   0.187  0.8313  0.8259  1.6678
  444TIP3    H222968   3.582   6.261   0.247 -0.0998  0.2230  0.2986
  445TIP3   OH222969   2.066   3.589   1.700  0.5469 -0.0838  0.1172
  445TIP3    H122970   1.999   3.529   1.666  0.1303 -0.5924  1.7298
  445TIP3    H222971   2.148   3.540   1.694  0.6487  0.2105 -1.0542
  446TIP3   OH222972   3.502   0.927   8.292 -0.1987 -0.3261 -0.1413
  446TIP3    H122973   3.538   0.951   8.206 -1.9233  1.6171 -0.4070
  446TIP3    H222974   3.537   0.839   8.309  2.4673  0.3624 -1.4988
  447TIP3   OH222975   4.256   3.556   1.947  0.0156  0.3055 -0.0052
  447TIP3    H122976   4.302   3.574   1.865 -0.6009 -1.7751 -0.8858
  447TIP3    H222977   4.171   3.599   1.938  0.7286  1.8722  0.4814
  448TIP3   OH222978   5.014   1.039   1.647 -0.0413  0.9791 -0.5095
  448TIP3    H122979   5.060   0.969   1.601  0.9489  1.0179  0.3766
  448TIP3    H222980   4.976   0.996   1.724  3.5049  1.9014  2.0015
  449TIP3   OH222981   4.784   2.901   7.798  0.3995 -0.2330  0.2796
  449TIP3    H122982   4.836   2.981   7.808  0.5260 -0.4002  1.0794
  449TIP3    H222983   4.847   2.830   7.814 -0.2637 -0.4186  2.4346
  450TIP3   OH222984   0.144   6.177   1.317 -0.1548  0.4554 -0.1561
  450TIP3    H122985   0.138   6.145   1.227  0.3783 -1.0968  0.3287
  450TIP3    H222986   0.058   6.216   1.335 -0.3995  0.4102 -1.1829
  451TIP3   OH222987   5.671   2.443   0.928 -0.0303  0.0211 -0.3560
  451TIP3    H122988   5.623   2.402   1.000 -1.4752  1.1610 -0.6389
  451TIP3    H222989   5.609   2.445   0.855  1.3705 -1.0101 -1.6431
  452TIP3   OH222990   1.866   6.804   1.869 -0.0029  0.0543 -0.4639
  452TIP3    H122991   1.800   6.863   1.906  1.6507  1.0007  1.1498
  452TIP3    H222992   1.949   6.850   1.882  0.8805 -0.0331 -4.4547
  453TIP3   OH222993   5.957   0.598   0.792  0.1714  0.1011 -0.2294
  453TIP3    H122994   6.018   0.612   0.719  0.7489 -0.6463  0.0969
  453TIP3    H222995   5.877   0.644   0.766  0.9870  1.4035 -0.5067
  454TIP3   OH222996   4.350   5.061   8.646  0.6972  0.2455 -0.2440
  454TIP3    H122997   4.393   5.042   8.730 -0.2553  0.1604  0.2440
  454TIP3    H222998   4.258   5.039   8.661  0.2703  1.4683 -0.9076
  455TIP3   OH222999   2.505   3.713   0.717  0.2546 -0.4723  0.9006
  455TIP3    H123000   2.552   3.631   0.712 -1.5628 -1.6522  2.0994
  455TIP3    H223001   2.570   3.780   0.695  2.0054 -2.1257  0.8428
  456TIP3   OH223002   6.355   2.498   8.888 -0.3354  0.4926 -0.2864
  456TIP3    H123003   6.390   2.587   8.885 -1.3015  0.8686 -2.8841
  456TIP3    H223004   6.333   2.478   8.797  0.2415 -2.5842  0.1304
  457TIP3   OH223005   2.426   5.963   8.519  0.3946 -0.1581 -0.3570
  457TIP3    H123006   2.353   5.989   8.463 -0.1858 -0.7424  0.0976
  457TIP3    H223007   2.503   6.002   8.479  0.0850 -1.0223 -1.8778
  458TIP3   OH223008   0.959   4.378   0.880  0.6454 -0.0793  0.3553
  458TIP3    H123009   0.987   4.288   0.863  0.6758  0.0073 -0.0542
  458TIP3    H223010   1.000   4.429   0.811 -2.0622 -0.1928 -1.4667
  459TIP3   OH223011   3.638   3.135   2.299  0.1362  0.1011  0.1557
  459TIP3    H123012   3.720   3.174   2.269  1.0109 -3.2262 -2.3684
  459TIP3    H223013   3.570   3.188   2.258  0.9429  2.3964  1.6090
  460TIP3   OH223014   5.536   5.503   8.784 -0.1255 -0.0342  0.3459
  460TIP3    H123015   5.478   5.541   8.718 -0.8747 -0.9460  0.4508
  460TIP3    H223016   5.585   5.577   8.819  0.1003  0.4937 -1.0492
  461TIP3   OH223017   0.677   4.848   8.305  0.6711  0.6327 -0.1388
  461TIP3    H123018   0.633   4.933   8.305  0.0887  0.3411  0.5212
  461TIP3    H223019   0.751   4.859   8.364 -0.4188  0.1896  1.3523
  462TIP3   OH223020   6.082   3.787   1.917 -0.0627  0.6089  0.2024
  462TIP3    H123021   6.057   3.873   1.949 -1.3591  0.4805 -0.3988
  462TIP3    H223022   6.026   3.772   1.841 -1.0288 -1.4331  1.2500
  463TIP3   OH223023   3.992   0.567   8.290 -0.5828 -0.2989 -0.1821
  463TIP3    H123024   3.934   0.598   8.359 -0.2996 -1.4469  0.6092
  463TIP3    H223025   3.951   0.596   8.209 -2.1946 -0.9782  0.3565
  464TIP3   OH223026   5.944   5.349   1.569 -0.1345 -0.5133 -0.0465
  464TIP3    H123027   5.978   5.430   1.531 -0.5791 -0.0517  0.5293
  464TIP3    H223028   5.859   5.336   1.528 -0.8901  0.3109  1.1895
  465TIP3   OH223029   3.169   5.368   0.232  0.4992  0.4215 -0.5421
  465TIP3    H123030   3.185   5.363   0.326 -1.7928 -2.0724 -0.1661
  465TIP3    H223031   3.218   5.295   0.195  0.6177  0.8056 -1.1591
  466TIP3   OH223032   4.454   0.859   0.536 -0.4304 -0.1935  0.5448
  466TIP3    H123033   4.509   0.851   0.613 -0.5174  1.0028  0.7588
  466TIP3    H223034   4.515   0.877   0.464 -0.5275  1.4270  0.8330
  467TIP3   OH223035   2.849   4.691   0.892  0.6034 -0.1163 -0.0696
  467TIP3    H123036   2.755   4.687   0.911  0.7066  0.4290  0.5676
  467TIP3    H223037   2.862   4.626   0.822 -0.4860  0.7865 -1.1506
  468TIP3   OH223038   3.689   4.970   0.151 -0.1440  0.0793  0.0299
  468TIP3    H123039   3.629   4.898   0.174 -1.5281  1.4240  0.8268
  468TIP3    H223040   3.684   5.030   0.225  2.5013  0.1170  0.2892
  469TIP3   OH223041   6.239   5.475   0.275  0.1152 -0.2765 -0.5349
  469TIP3    H123042   6.193   5.535   0.216  1.0868  1.0830  0.0590
  469TIP3    H223043   6.192   5.392   0.264 -0.9132  0.4180 -1.7945
  470TIP3   OH223044   0.247   1.086   8.406  0.8547 -0.2152  0.0223
  470TIP3    H123045   0.174   1.053   8.355 -0.1031 -1.9101  2.3301
  470TIP3    H223046   0.253   1.178   8.382 -2.0424 -0.0128 -0.2766
  471TIP3   OH223047   5.052   1.365   1.509 -0.0628 -0.3145  0.1249
  471TIP3    H123048   5.101   1.325   1.582  0.1422  1.1778  0.8451
  471TIP3    H223049   4.963   1.374   1.542  0.5796  2.9073  1.3641
  472TIP3   OH223050   0.628   1.725   7.271 -0.3925  0.4305  0.4329
  472TIP3    H123051   0.577   1.696   7.346  0.1643 -0.4077  0.5082
  472TIP3    H223052   0.614   1.657   7.205  0.1760  0.4675  0.2658
  473TIP3   OH223053   5.173   2.444   7.856 -0.1370  0.1009 -0.2084
  473TIP3    H123054   5.118   2.372   7.825 -1.6030  1.1609 -0.1526
  473TIP3    H223055   5.229   2.465   7.781 -0.4770 -0.3497 -0.5984
  474TIP3   OH223056   4.781   2.887   7.229  0.1096 -0.3839 -0.2178
  474TIP3    H123057   4.700   2.841   7.208  0.4319 -1.0804  0.0355
  474TIP3    H223058   4.846   2.818   7.242  0.4073  0.0959  1.0208
  475TIP3   OH223059   1.469   5.885   7.980 -0.6073 -0.2534 -0.2701
  475TIP3    H123060   1.426   5.800   7.990  0.7582 -0.8696  0.7054
  475TIP3    H223061   1.536   5.870   7.913  1.5051 -0.7975  1.8073
  476TIP3   OH223062   6.172   5.606   2.165  0.2701  0.1902  0.1058
  476TIP3    H123063   6.218   5.690   2.159 -0.8930  0.8022 -0.8120
  476TIP3    H223064   6.241   5.542   2.181  1.2254  1.2736  0.4931
  477TIP3   OH223065   1.668   1.633   0.175 -0.0014 -0.3255 -0.0906
  477TIP3    H123066   1.640   1.630   0.266  0.5940 -1.9454  0.0789
  477TIP3    H223067   1.637   1.550   0.137 -1.6042  0.9803 -1.8068
  478TIP3   OH223068   2.357   4.173   1.978  0.2171  0.5087 -0.2650
  478TIP3    H123069   2.433   4.137   2.024 -0.5320 -0.9059 -0.0959
  478TIP3    H223070   2.387   4.258   1.945  0.9507  1.4174  2.4390
  479TIP3   OH223071   4.097   6.807   7.480  0.4509 -0.4679  0.8745
  479TIP3    H123072   4.009   6.820   7.514  0.4253  0.9323  0.3138
  479TIP3    H223073   4.145   6.766   7.552 -0.3319 -0.1173  1.6083
  480TIP3   OH223074   1.231   1.017   8.459 -0.2711 -0.5621 -0.5566
  480TIP3    H123075   1.214   0.973   8.542 -0.7043 -0.7420 -0.7356
  480TIP3    H223076   1.154   0.997   8.406  0.2077 -0.8355 -1.1626
  481TIP3   OH223077   2.616   5.122   1.193 -0.0354 -0.1652 -0.2298
  481TIP3    H123078   2.693   5.077   1.158 -0.7714 -1.6851  0.0305
  481TIP3    H223079   2.542   5.085   1.145 -0.5560  2.1853 -1.3809
  482TIP3   OH223080   6.039   5.705   7.609  0.5365  0.3354 -0.1459
  482TIP3    H123081   5.963   5.739   7.656  1.6017  1.1138  1.0568
  482TIP3    H223082   6.091   5.660   7.676 -0.4203 -3.1340 -1.5078
  483TIP3   OH223083   0.472   0.223   1.211 -0.7897 -0.1695 -0.1053
  483TIP3    H123084   0.388   0.226   1.255 -0.0982 -1.3809  1.3721
  483TIP3    H223085   0.452   0.240   1.119 -2.5430  0.2285  0.3294
  484TIP3   OH223086   1.229   0.002   8.429  0.3862 -0.2287 -0.7745
  484TIP3    H123087   1.321  -0.018   8.412  0.7164  0.4598  0.1258
  484TIP3    H223088   1.227   0.030   8.520 -0.7542 -0.4318 -0.7257
  485TIP3   OH223089   1.432   6.364   7.178 -0.3100 -0.0667  0.2814
  485TIP3    H123090   1.502   6.418   7.215 -0.2264 -1.3787  2.1985
  485TIP3    H223091   1.467   6.275   7.178 -0.8101 -0.3173 -1.8667
  486TIP3   OH223092   5.484   1.573   0.473 -0.2673 -0.1026 -0.1125
  486TIP3    H123093   5.540   1.600   0.400 -2.2222 -1.0773 -2.1155
  486TIP3    H223094   5.544   1.544   0.541  1.6523  0.7648 -1.3706
  487TIP3   OH223095   6.452   1.010   2.373  1.0663 -0.4156  0.3134
  487TIP3    H123096   6.410   1.062   2.442  1.1196 -0.8434  0.6791
  487TIP3    H223097   6.542   0.997   2.404  1.2759 -0.0788 -0.1420
  488TIP3   OH223098   4.322   5.751   1.887  0.2475  0.1771 -0.7367
  488TIP3    H123099   4.329   5.657   1.899  1.3245  0.1829 -1.2110
  488TIP3    H223100   4.231   5.772   1.910 -0.1230 -1.0265 -1.0606
  489TIP3   OH223101   2.558   0.674   8.199  0.2280  0.0172  0.6536
  489TIP3    H123102   2.571   0.723   8.280  1.8873 -0.6449  0.8384
  489TIP3    H223103   2.644   0.635   8.181 -0.6711 -1.6633 -0.2188
  490TIP3   OH223104   0.281   6.123   8.240 -0.2190  0.1020  0.0967
  490TIP3    H123105   0.278   6.079   8.155  0.1692  0.9837 -0.3829
  490TIP3    H223106   0.360   6.088   8.282  0.1675  0.4334 -0.3421
  491TIP3   OH223107   3.761   1.337   2.762  0.2564 -0.9158 -0.5181
  491TIP3    H123108   3.776   1.409   2.700  1.3611 -2.1279 -1.7320
  491TIP3    H223109   3.666   1.325   2.762 -0.0836  1.1585  0.5052
  492TIP3   OH223110   3.370   0.814   0.919  0.3523 -0.4587  0.3183
  492TIP3    H123111   3.395   0.800   0.828  0.5628  0.5219  0.2162
  492TIP3    H223112   3.280   0.846   0.915  0.4655 -0.1228  0.4348
  493TIP3   OH223113   2.058   0.055   1.458  0.3362 -0.3265  0.1248
  493TIP3    H123114   2.043   0.013   1.542 -0.0026 -1.8226 -0.6511
  493TIP3    H223115   2.087  -0.015   1.400 -0.8102  0.3665 -1.3730
  494TIP3   OH223116   0.644   1.782   1.431 -0.0433 -0.1756 -0.4804
  494TIP3    H123117   0.681   1.842   1.496  3.0488 -1.0707 -1.2450
  494TIP3    H223118   0.673   1.818   1.347 -0.8050 -1.0402 -1.1281
  495TIP3   OH223119   2.854   2.794   7.276  0.2471 -0.0743 -0.3535
  495TIP3    H123120   2.832   2.851   7.202  2.0258  1.6518  0.3307
  495TIP3    H223121   2.770   2.774   7.317 -0.5597  1.0247 -1.3882
  496TIP3   OH223122   6.079   3.291   1.284 -0.3200  0.9345  0.0685
  496TIP3    H123123   6.125   3.359   1.333 -0.8954  1.3047  0.0879
  496TIP3    H223124   5.991   3.325   1.270 -0.7371  0.0368  0.4184
  497TIP3   OH223125   2.312   3.186   7.822  0.3707 -0.5520 -0.1538
  497TIP3    H123126   2.387   3.196   7.880  1.0094 -0.9957 -0.8797
  497TIP3    H223127   2.241   3.159   7.880 -0.0076  2.5062  0.9902
  498TIP3   OH223128   0.390   0.870   1.123 -0.5257 -0.0767  0.0047
  498TIP3    H123129   0.330   0.825   1.065 -1.2159  0.0953  0.5748
  498TIP3    H223130   0.364   0.844   1.211  0.2425 -0.0118  0.2636
  499TIP3   OH223131   3.785   1.934   7.466 -0.0793 -0.0540 -0.0802
  499TIP3    H123132   3.763   1.934   7.559  1.6469  1.8322  0.4015
  499TIP3    H223133   3.858   1.872   7.458  0.1189  0.1708 -0.0532
  500TIP3   OH223134   1.221   0.687   1.409  0.2412  0.7743 -0.3573
  500TIP3    H123135   1.272   0.633   1.470 -0.7195  0.4064  0.1366
  500TIP3    H223136   1.284   0.752   1.377  1.0449  0.2724  0.1619
  501TIP3   OH223137   3.602   1.497   0.119 -0.8938 -0.3948  0.2462
  501TIP3    H123138   3.541   1.486   0.046  0.7688  0.9099 -1.4318
  501TIP3    H223139   3.558   1.558   0.178 -1.9753 -0.9377  0.0252
  502TIP3   OH223140   3.311   1.975   0.395 -0.0500  0.0472 -0.2137
  502TIP3    H123141   3.387   2.028   0.371  0.6712 -1.4783 -1.5185
  502TIP3    H223142   3.348   1.895   0.433 -0.9676 -0.7965 -1.0310
  503TIP3   OH223143   3.088   0.282   0.682  0.3273  0.5349  0.2126
  503TIP3    H123144   3.153   0.309   0.746  1.0515 -1.0254  0.1774
  503TIP3    H223145   3.004   0.306   0.721  0.8821  2.2838  0.3932
  504TIP3   OH223146   2.795   5.434   8.852 -0.0208 -0.2289 -0.2489
  504TIP3    H123147   2.791   5.442   8.756 -1.7538 -1.9506 -0.3577
  504TIP3    H223148   2.886   5.454   8.873  0.3266  0.5060 -2.2105
  505TIP3   OH223149   5.564   1.532   0.059  0.0661 -0.3786 -0.5072
  505TIP3    H123150   5.590   1.600   0.121 -0.4616 -1.0027  0.4230
  505TIP3    H223151   5.586   1.450   0.103 -1.4408 -0.8641 -0.6153
  506TIP3   OH223152   6.176   2.980   8.224 -0.4168 -0.1562  0.2095
  506TIP3    H123153   6.200   2.994   8.133  0.0251  0.5638  0.4296
  506TIP3    H223154   6.105   2.916   8.221 -3.4375  2.9674 -0.9608
  507TIP3   OH223155   1.961   4.392   7.874 -0.4602 -0.2261  0.8504
  507TIP3    H123156   1.890   4.382   7.810 -0.3212  0.7225  0.5346
  507TIP3    H223157   1.945   4.477   7.915  1.3125  0.7006 -0.2705
  508TIP3   OH223158   0.519   2.399   0.143 -0.3490  0.7219  0.1616
  508TIP3    H123159   0.492   2.309   0.125 -0.1621  0.1863  2.3078
  508TIP3    H223160   0.447   2.452   0.112 -1.8534 -0.3910  1.5779
  509TIP3   OH223161   0.794   2.347   0.187  0.2884 -0.1431  0.0584
  509TIP3    H123162   0.755   2.260   0.183 -2.1801  0.8650  0.2673
  509TIP3    H223163   0.726   2.405   0.154  1.3409  1.8662  1.2224
  510TIP3   OH223164   5.954   4.155   1.081 -0.1804 -0.8221 -0.2467
  510TIP3    H123165   5.964   4.240   1.123 -2.0808 -0.6269 -0.0612
  510TIP3    H223166   5.940   4.176   0.988  2.2667 -1.1462 -0.7391
  511TIP3   OH223167   2.696   6.454   1.615  0.1607 -0.2428 -0.2337
  511TIP3    H123168   2.790   6.438   1.605 -0.4037 -2.3389 -3.9850
  511TIP3    H223169   2.685   6.546   1.589  1.2284  0.3875  1.3932
  512TIP3   OH223170   3.336   0.860   0.210 -0.1971  0.1969  0.4340
  512TIP3    H123171   3.338   0.814   0.126 -1.3512 -0.2553  0.6277
  512TIP3    H223172   3.262   0.821   0.256  0.5550  0.2810  1.7637
  513TIP3   OH223173   2.283   6.274   0.674  0.6656 -0.1343  0.6042
  513TIP3    H123174   2.265   6.302   0.584  1.5242  0.4007  0.5903
  513TIP3    H223175   2.314   6.184   0.665 -3.7377 -1.9515  0.7807
  514TIP3   OH223176   0.349   6.142   7.350 -0.0531  0.1495 -0.0026
  514TIP3    H123177   0.436   6.123   7.315 -0.0779 -1.1454  0.5923
  514TIP3    H223178   0.313   6.208   7.290  0.8098 -0.2955 -1.0476
  515TIP3   OH223179   3.770   5.387   8.608 -0.0945 -0.1928  0.0660
  515TIP3    H123180   3.745   5.302   8.644  1.4833 -0.9351 -0.5118
  515TIP3    H223181   3.710   5.449   8.650 -1.0834 -1.5335  0.7213
  516TIP3   OH223182   4.581   1.785   8.834 -0.5449  0.1521  0.0772
  516TIP3    H123183   4.520   1.852   8.804 -1.3601  0.8018  2.8892
  516TIP3    H223184   4.528   1.706   8.842 -0.1496 -0.2247 -0.8720
  517TIP3   OH223185   2.262   0.739   7.788  0.0591 -0.2268 -0.0083
  517TIP3    H123186   2.262   0.720   7.882 -0.5032 -0.3745 -0.0364
  517TIP3    H223187   2.212   0.821   7.780  1.2407  0.5136 -0.0408
  518TIP3   OH223188   6.527   0.101   2.579 -0.2742  0.2642 -0.1553
  518TIP3    H123189   6.493   0.189   2.562 -0.6986  0.2307  0.5082
  518TIP3    H223190   6.479   0.070   2.656  0.0696 -0.4407 -0.2117
  519TIP3   OH223191   1.598   2.987   0.056  0.3508 -0.5361  0.5262
  519TIP3    H123192   1.516   2.958   0.015 -0.4429 -0.8424  2.2235
  519TIP3    H223193   1.653   3.016  -0.017 -0.2744 -2.7264 -0.9029
  520TIP3   OH223194   2.956   6.054   7.824 -0.0604 -0.4975 -0.3628
  520TIP3    H123195   3.043   6.094   7.821 -0.6897  1.1707  1.5438
  520TIP3    H223196   2.966   5.980   7.883 -0.1203  0.3227  0.7120
  521TIP3   OH223197   4.910   2.203   3.029 -0.7300 -0.3554  0.4362
  521TIP3    H123198   4.905   2.252   2.947  0.1918 -2.2413 -0.8272
  521TIP3    H223199   4.904   2.270   3.097 -1.4467  1.2872 -1.1460
  522TIP3   OH223200   4.967   5.374   0.192 -0.5344  0.1968  0.5422
  522TIP3    H123201   4.984   5.426   0.114  0.5535  2.0435  1.9384
  522TIP3    H223202   4.879   5.337   0.178 -1.3826  2.4495 -0.5033
  523TIP3   OH223203   1.673   2.612   1.465  0.2682  0.6975  0.2526
  523TIP3    H123204   1.639   2.646   1.382  0.6966  0.8753  0.1492
  523TIP3    H223205   1.625   2.662   1.532  0.7859  1.4152  0.1036
  524TIP3   OH223206   0.510   0.874   0.640 -0.4293 -0.3009  0.2829
  524TIP3    H123207   0.522   0.807   0.707 -0.4410  0.5519  1.1681
  524TIP3    H223208   0.418   0.899   0.647 -0.5157 -0.4531 -0.2958
  525TIP3   OH223209   6.071   1.506   8.868 -0.2220 -0.2513 -0.2480
  525TIP3    H123210   6.030   1.559   8.799  1.8001  0.8452 -0.6942
  525TIP3    H223211   6.134   1.451   8.822 -0.4040 -1.1289  0.5163
  526TIP3   OH223212   0.097   4.074   2.289  0.8490 -0.7292 -1.1674
  526TIP3    H123213   0.114   3.980   2.295  1.2677 -0.6506 -1.0744
  526TIP3    H223214   0.081   4.100   2.380 -0.7570 -0.9722 -1.3483
  527TIP3   OH223215   0.338   3.904   0.097 -0.4017  0.0134  0.3617
  527TIP3    H123216   0.380   3.976   0.050 -0.2608  0.7522  1.5947
  527TIP3    H223217   0.273   3.870   0.035 -0.1094  0.8552 -0.4288
  528TIP3   OH223218   6.308   2.583   0.441 -0.2862  0.0399  0.9801
  528TIP3    H123219   6.333   2.623   0.524  3.1002 -1.2576  0.7070
  528TIP3    H223220   6.326   2.490   0.452  0.7191 -0.1140 -1.3393
  529TIP3   OH223221   1.226   5.569   1.853 -0.4117 -0.2988 -0.1640
  529TIP3    H123222   1.193   5.604   1.936  0.1227  0.7444 -0.3662
  529TIP3    H223223   1.321   5.570   1.863 -0.3015  0.7545 -1.1264
  530TIP3   OH223224   0.441   0.859   8.200  0.1419  0.4236 -0.4797
  530TIP3    H123225   0.442   0.822   8.111  1.5914 -1.9625  0.4201
  530TIP3    H223226   0.531   0.850   8.230 -0.0885  2.2257  0.8697
  531TIP3   OH223227   0.481   2.037   7.215  0.0036 -0.0368 -0.3801
  531TIP3    H123228   0.451   2.126   7.194  0.5003  0.0665 -0.6584
  531TIP3    H223229   0.575   2.045   7.227 -0.0929 -0.3341  0.6701
  532TIP3   OH223230   0.469   3.523   0.259 -0.3390 -0.2284  0.2254
  532TIP3    H123231   0.462   3.429   0.272  0.6063 -0.2405  0.7214
  532TIP3    H223232   0.563   3.539   0.249 -0.4506  0.7044  0.5636
  533TIP3   OH223233   3.676   1.928   2.800 -0.0955 -0.4042  0.2528
  533TIP3    H123234   3.598   1.977   2.828  1.1788  0.3347  2.8023
  533TIP3    H223235   3.747   1.961   2.855  2.1355 -0.9020 -2.1173
  534TIP3   OH223236   4.824   6.595   1.058  0.2101  0.0451 -0.4042
  534TIP3    H123237   4.739   6.558   1.083 -0.5512  1.8248 -0.2266
  534TIP3    H223238   4.877   6.589   1.138  0.3480 -1.2498 -0.5689
  535TIP3   OH223239   3.637   5.523   8.813 -0.1604  0.6295 -0.0166
  535TIP3    H123240   3.546   5.510   8.838 -0.4937 -0.7218 -1.7589
  535TIP3    H223241   3.687   5.492   8.888 -1.0942  1.7564  1.1258
  536TIP3   OH223242   1.888   2.011   8.118  0.6632  0.3203 -0.0609
  536TIP3    H123243   1.806   1.971   8.146  0.8070 -0.2500 -0.4347
  536TIP3    H223244   1.948   1.997   8.192  0.4966  0.5279  0.1153
  537TIP3   OH223245   2.632   6.439   8.117 -0.7850  0.2397 -0.4906
  537TIP3    H123246   2.540   6.411   8.115 -0.5249 -0.6347 -1.3008
  537TIP3    H223247   2.679   6.368   8.073  0.3145  0.5710  0.1187
  538TIP3   OH223248   1.375   4.122   1.623  0.0906 -0.2317 -0.2219
  538TIP3    H123249   1.368   4.098   1.716 -1.0847  0.4060 -0.1274
  538TIP3    H223250   1.465   4.098   1.599  1.1965  1.6172  1.6732
  539TIP3   OH223251   1.009   1.200   7.820 -0.7822 -0.1904  0.3918
  539TIP3    H123252   1.054   1.273   7.863 -1.4216 -0.4350  1.5118
  539TIP3    H223253   1.017   1.219   7.727 -0.1857  0.8552  0.6342
  540TIP3   OH223254   0.324   5.342   6.907  0.3294 -0.1073 -0.2388
  540TIP3    H123255   0.383   5.285   6.858 -0.9821 -0.1853 -1.8478
  540TIP3    H223256   0.241   5.295   6.909 -0.2787  0.9346  0.0304
  541TIP3   OH223257   6.756   0.563   1.359 -0.4221 -0.1145 -0.2592
  541TIP3    H123258   6.677   0.522   1.394 -0.7536 -1.3620 -2.3201
  541TIP3    H223259   6.827   0.526   1.411 -1.0958  0.5047  1.1623
  542TIP3   OH223260   5.061   6.349   8.464  0.7736  0.0343 -0.3488
  542TIP3    H123261   5.120   6.421   8.440  0.2831  0.5200 -0.1133
  542TIP3    H223262   5.028   6.317   8.380  0.0566  0.8876 -0.4087
  543TIP3   OH223263   4.008   5.749   7.887 -0.1356  0.6688  0.6146
  543TIP3    H123264   3.954   5.716   7.958 -1.4800  1.1687 -0.1285
  543TIP3    H223265   3.945   5.786   7.824  1.0740  1.2896 -0.2826
  544TIP3   OH223266   2.482   0.968   8.646  0.2078  0.2497 -0.1720
  544TIP3    H123267   2.558   0.974   8.703  0.5302 -1.3298 -0.3750
  544TIP3    H223268   2.423   0.907   8.690 -1.0356  1.5585  0.0569
  545TIP3   OH223269   1.627   2.132   1.924  0.3326 -0.3940  0.2824
  545TIP3    H123270   1.603   2.138   2.016 -3.4938  0.9061 -0.6110
  545TIP3    H223271   1.660   2.219   1.901 -2.5848  0.6716 -0.3333
  546TIP3   OH223272   0.947   5.754   0.539 -0.1869  0.3005  0.2568
  546TIP3    H123273   1.031   5.798   0.530 -0.1023  0.1570  0.3472
  546TIP3    H223274   0.946   5.719   0.628 -0.2464  0.1075  0.1825
  547TIP3   OH223275   6.775   3.306   8.009 -0.3149  0.0859 -0.8090
  547TIP3    H123276   6.694   3.337   7.968 -0.3268  0.9704 -0.1521
  547TIP3    H223277   6.844   3.354   7.963 -0.3055  0.8049 -0.0746
  548TIP3   OH223278   1.831   3.265   8.872 -0.2496  0.0278  0.6026
  548TIP3    H123279   1.910   3.241   8.920  0.7466 -0.2337 -1.0594
  548TIP3    H223280   1.831   3.361   8.872  0.7828  0.0559 -0.4103
  549TIP3   OH223281   6.119   5.170   8.057 -0.2238  0.7232 -0.1329
  549TIP3    H123282   6.178   5.151   7.984 -0.7050 -0.7720 -0.1661
  549TIP3    H223283   6.046   5.109   8.046 -0.4229  0.6167  1.4724
  550TIP3   OH223284   4.232   1.520   1.675  0.1074 -0.1548 -0.3335
  550TIP3    H123285   4.250   1.426   1.668  1.0706 -0.0374  0.3607
  550TIP3    H223286   4.177   1.529   1.753 -2.2279 -0.3927 -1.8526
  551TIP3   OH223287   1.245   4.815   8.853  0.0172  0.1865  0.1753
  551TIP3    H123288   1.223   4.727   8.824  0.1033  0.1556  0.2049
  551TIP3    H223289   1.296   4.853   8.782 -0.6874  0.4915 -0.1745
  552TIP3   OH223290   2.094   0.774   1.687 -0.3067  0.3801 -0.1962
  552TIP3    H123291   2.140   0.699   1.725  1.5042  0.4399 -2.0857
  552TIP3    H223292   2.019   0.788   1.744 -0.2474 -2.3594  0.6689
  553TIP3   OH223293   6.253   3.678   7.732 -0.0373 -0.4349  0.0755
  553TIP3    H123294   6.314   3.744   7.765  1.6029 -1.7193 -0.1789
  553TIP3    H223295   6.222   3.632   7.810  2.2759 -2.1569  0.1179
  554TIP3   OH223296   5.534   5.214   8.038 -0.0607 -0.1027  0.2398
  554TIP3    H123297   5.504   5.180   8.122 -0.6645 -1.2136 -0.4079
  554TIP3    H223298   5.456   5.217   7.984  0.5271 -0.4891 -0.6458
  555TIP3   OH223299   3.268   4.572   7.401 -0.6270  0.3427 -0.4157
  555TIP3    H123300   3.313   4.489   7.385  2.0832  1.8203 -1.1305
  555TIP3    H223301   3.223   4.591   7.318  0.6005  0.6005 -1.0522
  556TIP3   OH223302   4.277   5.515   0.431 -0.3532  0.0895  0.4105
  556TIP3    H123303   4.222   5.586   0.398  2.8423  3.3464  1.4277
  556TIP3    H223304   4.260   5.513   0.525 -0.4181 -0.5000  0.3898
  557TIP3   OH223305   0.367   1.571   8.217 -0.3347 -0.4346 -0.2930
  557TIP3    H123306   0.377   1.604   8.306  0.6258 -0.9297 -0.1965
  557TIP3    H223307   0.438   1.612   8.168 -0.6167 -0.4701 -0.7385
  558TIP3   OH223308   1.619   1.876   0.045  0.0796 -0.0224  0.4500
  558TIP3    H123309   1.683   1.880  -0.025 -0.7357  0.4015 -0.2962
  558TIP3    H223310   1.642   1.798   0.095  0.7210 -0.2840 -0.2429
  559TIP3   OH223311   1.236   4.314   7.756  0.4847 -0.1712  0.2068
  559TIP3    H123312   1.222   4.269   7.839  0.8575  0.4501  0.6197
  559TIP3    H223313   1.211   4.251   7.689  0.3775 -0.7501  0.7883
  560TIP3   OH223314   0.605   4.668   7.532 -0.1966 -0.8213 -0.0140
  560TIP3    H123315   0.553   4.742   7.563 -0.0815 -0.8862  0.3368
  560TIP3    H223316   0.575   4.654   7.442 -2.1011 -2.0166  0.7337
  561TIP3   OH223317   4.713   3.670   7.223  0.0114 -0.1082 -0.3790
  561TIP3    H123318   4.662   3.634   7.150 -0.5583 -0.6998  0.2928
  561TIP3    H223319   4.697   3.610   7.296  1.2060  0.0192  0.0250
  562TIP3   OH223320   1.174   5.809   0.792 -0.2827 -0.2269 -0.2718
  562TIP3    H123321   1.084   5.778   0.793 -1.3676  2.4686 -2.0930
  562TIP3    H223322   1.213   5.767   0.715 -0.6456  0.1231 -0.6567
  563TIP3   OH223323   2.278   5.971   6.954 -0.0428 -0.0083  0.3132
  563TIP3    H123324   2.333   6.048   6.969  0.7794 -0.5203 -0.0179
  563TIP3    H223325   2.236   5.988   6.869 -0.0588  0.1838  0.3581
  564TIP3   OH223326   1.157   2.609   7.828 -0.2434 -0.1148 -0.3786
  564TIP3    H123327   1.166   2.652   7.743 -1.5735  0.3386 -0.3008
  564TIP3    H223328   1.236   2.555   7.835 -0.0682 -0.0994 -1.8568
  565TIP3   OH223329   5.378   4.299   1.612 -0.1363 -0.7460  0.3678
  565TIP3    H123330   5.319   4.295   1.537  0.2554 -1.9497  0.0928
  565TIP3    H223331   5.387   4.208   1.640  0.6786 -0.4479  1.1166
  566TIP3   OH223332   1.960   3.399   7.470 -0.4764  0.0037 -0.0702
  566TIP3    H123333   2.030   3.356   7.422 -0.1932 -0.4437  0.7242
  566TIP3    H223334   1.968   3.366   7.559 -1.6898 -0.0454  0.0430
  567TIP3   OH223335   2.992   5.705   7.703 -0.6773  0.0231  0.3521
  567TIP3    H123336   3.068   5.687   7.757 -0.6005 -0.0054  0.2358
  567TIP3    H223337   3.028   5.750   7.626 -0.7086 -0.4816  0.0365
  568TIP3   OH223338   2.113   3.090   8.703 -0.2275  0.1824 -0.7119
  568TIP3    H123339   2.204   3.066   8.722 -0.3400 -1.2992 -1.8797
  568TIP3    H223340   2.115   3.186   8.697  1.4338  0.1449 -1.5258
  569TIP3   OH223341   5.475   1.245   2.114  0.0864 -0.2590  0.2967
  569TIP3    H123342   5.385   1.271   2.134  0.1635 -0.7519  1.3620
  569TIP3    H223343   5.529   1.313   2.154  0.1907  0.0678 -0.3925
  570TIP3   OH223344   3.075   3.658   1.044  0.3571 -0.3561 -0.1250
  570TIP3    H123345   3.132   3.587   1.073  0.5109  0.4867  1.7944
  570TIP3    H223346   2.997   3.650   1.097  1.1449  1.9738  1.5509
  571TIP3   OH223347   2.078   3.736   7.686  0.3394  0.3702  0.5841
  571TIP3    H123348   2.046   3.713   7.599  0.5966 -0.8469  0.7928
  571TIP3    H223349   2.139   3.666   7.708  1.5292  1.5339  1.0725
  572TIP3   OH223350   2.781   6.658   1.443  0.5271 -0.0815 -0.8696
  572TIP3    H123351   2.873   6.640   1.463  0.6458  0.6186 -0.7388
  572TIP3    H223352   2.763   6.740   1.490  0.3104  0.6563 -2.1973
  573TIP3   OH223353   3.114   3.893   0.149  0.3581 -0.7551 -0.1366
  573TIP3    H123354   3.152   3.808   0.129  0.3999 -0.4791 -1.3206
  573TIP3    H223355   3.180   3.956   0.119  0.0616 -0.3053  0.1514
  574TIP3   OH223356   3.717   5.599   1.638 -0.6084 -0.0478 -0.6842
  574TIP3    H123357   3.804   5.561   1.651 -0.1953  1.1072  0.1542
  574TIP3    H223358   3.660   5.525   1.621  0.1568 -1.0434  0.8949
  575TIP3   OH223359   1.015   6.536   1.653  0.7755 -0.3435 -0.1338
  575TIP3    H123360   1.006   6.598   1.581  0.5848 -1.9914 -1.5903
  575TIP3    H223361   0.926   6.508   1.672  0.9514 -0.9713 -0.2227
  576TIP3   OH223362   3.509   1.018   2.724 -0.3934  0.1415  0.3914
  576TIP3    H123363   3.551   0.949   2.672 -1.0520  0.4276 -0.5510
  576TIP3    H223364   3.573   1.038   2.792 -0.5365 -2.0022  1.2492
  577TIP3   OH223365   4.885   4.557   6.905 -0.0015  0.3243  0.6128
  577TIP3    H123366   4.913   4.468   6.882  0.0923  0.4303  0.3070
  577TIP3    H223367   4.942   4.614   6.853 -0.6139  0.5469  0.1723
  578TIP3   OH223368   3.366   6.005   0.932  0.2110 -0.0861 -0.3815
  578TIP3    H123369   3.450   6.051   0.927 -0.4260  1.7030  2.6658
  578TIP3    H223370   3.377   5.944   1.005 -0.4900 -1.5013 -1.4019
  579TIP3   OH223371   4.579   1.635   2.737  0.2243  0.4437 -0.4140
  579TIP3    H123372   4.512   1.662   2.800 -0.2062 -1.0822 -0.1854
  579TIP3    H223373   4.662   1.660   2.777 -0.0437 -0.4594  0.7689
  580TIP3   OH223374   2.504   4.403   1.903 -0.4115 -0.1639  0.4215
  580TIP3    H123375   2.560   4.389   1.827 -1.5831 -0.4541 -0.4238
  580TIP3    H223376   2.557   4.456   1.962  0.4785  0.2036 -0.6647
  581TIP3   OH223377   1.428   3.037   2.640  0.4049 -0.0458  0.2512
  581TIP3    H123378   1.456   3.124   2.611  1.6368  0.1134  1.7699
  581TIP3    H223379   1.465   3.029   2.728 -0.7491 -1.6192  0.6250
  582TIP3   OH223380   4.989   5.799   1.726 -0.2882 -0.3215 -0.7233
  582TIP3    H123381   4.999   5.704   1.723  0.5061 -0.2423 -0.6738
  582TIP3    H223382   4.921   5.818   1.661  1.6596 -0.6349 -2.9722
  583TIP3   OH223383   5.903   6.378   8.487  0.2707 -0.5476 -0.0866
  583TIP3    H123384   5.952   6.296   8.489  0.4105 -0.4576  0.2482
  583TIP3    H223385   5.811   6.351   8.495  0.3556 -0.6419  0.7094
  584TIP3   OH223386   1.532   1.178   6.538  0.5160  0.4370 -0.1382
  584TIP3    H123387   1.604   1.241   6.534  1.8133 -0.9725 -0.0641
  584TIP3    H223388   1.575   1.092   6.541 -1.1771 -0.4669 -0.1643
  585TIP3   OH223389   2.805   4.396   0.440  0.1069  0.1105 -0.1840
  585TIP3    H123390   2.712   4.383   0.457 -0.1076  1.3002 -0.3119
  585TIP3    H223391   2.838   4.310   0.415 -1.0178 -0.2630 -0.4228
  586TIP3   OH223392   0.398   2.375   1.115 -0.1656  0.5103  0.5603
  586TIP3    H123393   0.468   2.407   1.058  0.6504 -2.0996 -0.0531
  586TIP3    H223394   0.318   2.409   1.075  0.5242  0.3758 -1.0413
  587TIP3   OH223395   2.710   0.847   1.451 -0.4449 -0.2995 -0.4129
  587TIP3    H123396   2.734   0.898   1.528 -0.4239 -0.5241 -0.2722
  587TIP3    H223397   2.693   0.913   1.383 -0.5075 -0.1013 -0.2050
  588TIP3   OH223398   3.107   4.451   8.678  0.1224 -0.4057 -0.6565
  588TIP3    H123399   3.135   4.472   8.589  0.7241  0.7054 -0.2249
  588TIP3    H223400   3.067   4.365   8.671  0.9620 -0.7194 -1.8343
  589TIP3   OH223401   5.809   0.010   0.004 -0.1336 -0.0027 -0.3655
  589TIP3    H123402   5.796  -0.066   0.060  3.1081  0.1679  0.8541
  589TIP3    H223403   5.784   0.085   0.058 -2.7266 -0.0389 -1.3545
  590TIP3   OH223404   5.072   4.583   7.898 -0.1358  0.0839 -0.8262
  590TIP3    H123405   4.993   4.583   7.952 -0.0957 -0.1399 -0.7663
  590TIP3    H223406   5.111   4.669   7.913 -0.4312  0.2377 -0.9481
  591TIP3   OH223407   0.744   2.166   2.881 -0.0780 -0.6249  0.1092
  591TIP3    H123408   0.789   2.206   2.806  1.5173 -0.3118  1.1810
  591TIP3    H223409   0.812   2.114   2.924 -0.4089  0.7294  2.4258
  592TIP3   OH223410   3.548   6.130   1.243 -0.5721  0.6469 -0.0846
  592TIP3    H123411   3.595   6.067   1.298  1.8653  2.1448 -0.3367
  592TIP3    H223412   3.598   6.134   1.162 -0.5618  2.9604 -0.0351
  593TIP3   OH223413   5.545   6.624   1.195  0.6906  0.3839  0.3308
  593TIP3    H123414   5.611   6.676   1.148  0.4358 -0.1953 -0.6988
  593TIP3    H223415   5.596   6.561   1.245  0.9608 -1.1542 -1.7322
  594TIP3   OH223416   0.299   3.854   7.328  0.3245  0.1648 -0.3916
  594TIP3    H123417   0.380   3.905   7.325 -0.5793  1.8391  1.2811
  594TIP3    H223418   0.238   3.904   7.273 -0.5093  0.8222  1.0779
  595TIP3   OH223419   5.256   2.388   8.830  0.3075 -0.4604  0.1313
  595TIP3    H123420   5.232   2.462   8.885 -0.7560 -0.4765 -0.3035
  595TIP3    H223421   5.352   2.389   8.830  0.3112  1.1450 -0.1959
  596TIP3   OH223422   2.687   5.169   7.042  0.0838 -0.2830  0.7654
  596TIP3    H123423   2.597   5.196   7.022  0.2881 -0.8963 -1.1403
  596TIP3    H223424   2.680   5.076   7.061  0.4212 -0.5103 -0.2017
  597TIP3   OH223425   4.082   5.835   2.044 -0.0669 -0.1811 -0.1162
  597TIP3    H123426   4.048   5.789   2.121  1.6593 -0.0209  0.7703
  597TIP3    H223427   4.039   5.921   2.046 -0.1592 -0.2397  0.5642
  598TIP3   OH223428   5.681   4.528   1.166  0.3191  0.3019 -0.1138
  598TIP3    H123429   5.625   4.456   1.136  1.5298 -1.3345  1.3737
  598TIP3    H223430   5.628   4.607   1.152 -1.5912 -0.9920 -0.5465
  599TIP3   OH223431   5.616   0.254   7.860 -0.8659  0.1662  0.3174
  599TIP3    H123432   5.666   0.200   7.799 -0.4601 -0.8490  1.5011
  599TIP3    H223433   5.682   0.296   7.915 -1.2644 -0.6613  1.4664
  600TIP3   OH223434   0.951   5.471   7.878  0.0301 -0.3541 -0.0620
  600TIP3    H123435   0.901   5.528   7.936  0.8215 -0.2448  0.5395
  600TIP3    H223436   1.001   5.532   7.823 -1.4996 -0.4313 -1.6228
  601TIP3   OH223437   0.925   2.968   0.858  0.0018  0.1708  0.4004
  601TIP3    H123438   1.006   2.916   0.852 -0.4654 -0.5898  0.5731
  601TIP3    H223439   0.874   2.940   0.782  0.3338  1.4328 -0.3204
  602TIP3   OH223440   3.392   5.093   0.601 -0.5375  0.1189 -0.3534
  602TIP3    H123441   3.377   5.000   0.583 -0.7679 -0.4547  2.3664
  602TIP3    H223442   3.321   5.118   0.660  0.5002  1.5318  0.3596
  603TIP3   OH223443   1.457   1.752   7.551 -0.0379 -0.1129  0.1137
  603TIP3    H123444   1.400   1.704   7.490 -0.6288  0.7065  0.0155
  603TIP3    H223445   1.544   1.716   7.534 -0.4134 -0.9051 -0.2071
  604TIP3   OH223446   5.596   4.608   7.864 -0.4966 -0.1492  0.5812
  604TIP3    H123447   5.518   4.595   7.810  0.4821  1.8071 -1.4178
  604TIP3    H223448   5.657   4.542   7.834 -0.4330  0.0492  0.2799
  605TIP3   OH223449   0.432   4.447   1.275  0.0501  0.0741  0.5402
  605TIP3    H123450   0.520   4.414   1.296 -0.1852 -2.3686 -1.7214
  605TIP3    H223451   0.373   4.379   1.308 -0.7402  0.0735 -0.7934
  606TIP3   OH223452   4.652   6.256   2.409 -0.7394  0.0191  0.4650
  606TIP3    H123453   4.635   6.348   2.429 -0.0457  0.0637  0.8668
  606TIP3    H223454   4.589   6.208   2.464 -3.8659  0.2799 -2.5107
  607TIP3   OH223455   0.890   6.025   1.234  0.1893  0.5177 -0.3377
  607TIP3    H123456   0.960   6.087   1.253  0.2411  1.2290 -2.6055
  607TIP3    H223457   0.908   5.994   1.145 -1.6908 -0.2128 -0.5170
  608TIP3   OH223458   5.797   4.213   8.381 -0.3013 -0.0316  0.0755
  608TIP3    H123459   5.859   4.153   8.423 -0.3050  0.9663  1.5678
  608TIP3    H223460   5.806   4.295   8.430 -0.0627  1.3185 -2.1117
  609TIP3   OH223461   2.392   0.917   8.263  0.0058  0.5095  0.3271
  609TIP3    H123462   2.335   0.851   8.302  0.1254  1.4393  2.1962
  609TIP3    H223463   2.436   0.871   8.191 -3.4199 -0.1141 -1.6055
  610TIP3   OH223464   0.856   3.546   1.976  0.5432  0.2366  0.1188
  610TIP3    H123465   0.885   3.569   2.064  1.1107 -3.6129  1.1012
  610TIP3    H223466   0.812   3.462   1.986  0.8659 -0.4861 -3.3067
  611TIP3   OH223467   5.583   3.729   8.378  0.0301 -0.0892 -0.3231
  611TIP3    H123468   5.623   3.674   8.310  0.9021  0.3169 -0.1522
  611TIP3    H223469   5.491   3.702   8.380 -0.1149  0.1838 -1.9697
  612TIP3   OH223470   1.997   0.701   0.957 -0.4302 -0.9165 -0.1114
  612TIP3    H123471   1.967   0.690   1.047 -0.4730 -0.2544 -0.0404
  612TIP3    H223472   2.065   0.768   0.962  0.9522 -2.2479 -0.3008
  613TIP3   OH223473   5.515   1.225   0.614 -0.1707  0.3311 -0.3127
  613TIP3    H123474   5.564   1.306   0.632  1.6684 -0.5745 -0.9768
  613TIP3    H223475   5.490   1.193   0.701  0.1529  0.9701  0.0271
  614TIP3   OH223476   6.291   6.332   8.201  0.3020 -0.5429  0.0298
  614TIP3    H123477   6.312   6.358   8.291  0.1633  0.4380 -0.2087
  614TIP3    H223478   6.262   6.241   8.208  3.1764 -1.5389  0.5920
  615TIP3   OH223479   5.052   4.968   7.687  0.2797 -0.1212  0.2095
  615TIP3    H123480   5.077   5.059   7.701  2.3156 -0.8250  1.5740
  615TIP3    H223481   4.982   4.952   7.750 -0.5059  0.6305 -0.4504
  616TIP3   OH223482   4.180   5.328   2.496  0.3437 -0.4451 -0.1568
  616TIP3    H123483   4.085   5.322   2.496  0.3198 -0.1232  0.8432
  616TIP3    H223484   4.199   5.416   2.461  0.4098 -1.7599 -3.8782
  617TIP3   OH223485   2.278   1.956   1.370 -0.2910  0.1154  0.4797
  617TIP3    H123486   2.342   2.027   1.369 -0.4138  0.2244  0.3522
  617TIP3    H223487   2.205   1.989   1.421  0.0897 -0.3090  1.3235
  618TIP3   OH223488   3.003   4.427   2.733 -0.5201  0.6110 -0.4101
  618TIP3    H123489   2.975   4.440   2.642 -1.0077  2.9825  0.0003
  618TIP3    H223490   3.029   4.515   2.762  0.4422 -0.2543  1.4900
  619TIP3   OH223491   2.838   5.066   2.517 -0.6917  0.4602  0.2918
  619TIP3    H123492   2.832   5.068   2.421 -1.3595  0.0724  0.3184
  619TIP3    H223493   2.896   4.991   2.536  1.9718  2.3415  0.1249
  620TIP3   OH223494   0.000   3.853   0.035 -0.5985  0.1287  0.5768
  620TIP3    H123495  -0.028   3.911   0.106  1.6883  0.9897  0.8744
  620TIP3    H223496  -0.019   3.902  -0.045 -4.1677 -1.2805  0.4132
  621TIP3   OH223497   6.038   1.297   7.774 -0.5154  0.5017 -0.0567
  621TIP3    H123498   6.044   1.348   7.855  0.9706 -0.0554  0.2289
  621TIP3    H223499   6.072   1.211   7.799 -1.7891 -0.2457 -0.8363
  622TIP3   OH223500   0.576   4.122   1.111  0.1715 -0.4219  0.3446
  622TIP3    H123501   0.616   4.190   1.165 -1.6844  0.8321  0.2611
  622TIP3    H223502   0.482   4.141   1.115 -0.1656 -1.2404 -2.0310
  623TIP3   OH223503   5.376   1.861   0.404 -0.0958  0.0077 -0.5357
  623TIP3    H123504   5.449   1.813   0.366  0.2081  0.6285 -0.7511
  623TIP3    H223505   5.365   1.824   0.492 -1.0914 -1.7394 -1.3560
  624TIP3   OH223506   6.570   5.426   7.579  0.0249 -0.1097 -0.3797
  624TIP3    H123507   6.637   5.494   7.589  0.7697 -0.6784 -1.2711
  624TIP3    H223508   6.502   5.466   7.526 -0.9054  0.8270  1.4122
  625TIP3   OH223509   2.549   1.675   1.177 -0.1312  0.2572  0.2768
  625TIP3    H123510   2.510   1.691   1.091  1.1373  0.6989 -0.2329
  625TIP3    H223511   2.595   1.591   1.168 -2.2248 -1.1131  1.3566
  626TIP3   OH223512   6.635   2.848   8.218 -0.4143  0.4089 -0.4986
  626TIP3    H123513   6.614   2.899   8.297  0.9442 -0.2842  0.3434
  626TIP3    H223514   6.671   2.912   8.157 -2.5745  1.1712 -1.0557
  627TIP3   OH223515   6.512   2.516   2.014 -0.2025 -0.0375  0.3498
  627TIP3    H123516   6.490   2.560   1.931  0.4117  0.2894  0.3495
  627TIP3    H223517   6.608   2.509   2.012 -0.2032 -0.2531  0.9227
  628TIP3   OH223518   0.640   0.322   0.265 -0.4649 -0.7108  0.4081
  628TIP3    H123519   0.582   0.336   0.341 -1.4669  1.1151 -0.6166
  628TIP3    H223520   0.602   0.376   0.196  1.8331 -0.3585 -0.6712
  629TIP3   OH223521   4.428   3.794   1.977  0.0567  0.2992 -0.4177
  629TIP3    H123522   4.506   3.754   2.016 -0.0077  0.0124 -0.5808
  629TIP3    H223523   4.458   3.879   1.946  0.2218  0.3354 -0.1649
  630TIP3   OH223524   0.389   4.718   1.875 -0.1103 -0.5199 -0.1311
  630TIP3    H123525   0.324   4.739   1.941 -2.2985  0.2299 -2.3700
  630TIP3    H223526   0.440   4.799   1.865  0.1266 -0.5878  0.4964
  631TIP3   OH223527   6.747   3.088   7.000 -0.4592  0.2938 -0.1521
  631TIP3    H123528   6.749   3.169   6.949  1.0968  0.7768  0.5950
  631TIP3    H223529   6.826   3.093   7.055 -0.1279 -1.8868 -0.3400
  632TIP3   OH223530   2.866   2.234   2.901 -0.4158  0.1321  0.2965
  632TIP3    H123531   2.779   2.206   2.871  0.1149  1.0097 -2.3375
  632TIP3    H223532   2.865   2.329   2.893  0.0185  0.3871  2.6608
  633TIP3   OH223533   4.306   0.005   8.632  0.0959  0.3040  0.2563
  633TIP3    H123534   4.357  -0.070   8.602  0.8979  1.1974 -0.6989
  633TIP3    H223535   4.315   0.004   8.727 -1.1574 -1.6576  0.4085
  634TIP3   OH223536   0.739   6.702   2.026  0.2319 -0.3757  0.5432
  634TIP3    H123537   0.786   6.711   1.943  0.4380 -1.1256  0.5664
  634TIP3    H223538   0.745   6.608   2.046  1.1949 -0.0467  1.9923
  635TIP3   OH223539   6.363   4.593   0.095 -0.0078 -0.0391 -0.1699
  635TIP3    H123540   6.384   4.592   0.002  1.7709 -2.5473  0.1560
  635TIP3    H223541   6.345   4.501   0.117 -0.5237  0.4994  1.9459
  636TIP3   OH223542   1.340   5.002   0.581 -0.2427 -0.0925 -0.1609
  636TIP3    H123543   1.275   4.940   0.548 -2.8070  1.0789  2.2513
  636TIP3    H223544   1.338   5.074   0.518 -0.5382 -0.5018 -0.6293
  637TIP3   OH223545   5.379   3.753   2.127  0.4429 -0.4287 -0.3130
  637TIP3    H123546   5.331   3.712   2.199  0.8939  0.2350  0.3917
  637TIP3    H223547   5.425   3.826   2.169  0.6465  0.0180 -1.2992
  638TIP3   OH223548   1.076   2.211   0.402 -0.0900 -0.3697  0.6733
  638TIP3    H123549   1.142   2.241   0.465 -0.8848 -0.3474  1.5119
  638TIP3    H223550   1.114   2.132   0.363  0.9252  0.2850  0.2832
  639TIP3   OH223551   6.203   0.240   6.828  0.2099  0.1199 -0.0400
  639TIP3    H123552   6.112   0.270   6.827 -0.7505 -2.5505 -0.2924
  639TIP3    H223553   6.225   0.226   6.736  0.6180  0.0327  0.0691
  640TIP3   OH223554   1.145   0.276   8.872 -0.3904 -0.7037 -0.2283
  640TIP3    H123555   1.230   0.319   8.876 -0.3307 -0.5287 -2.2582
  640TIP3    H223556   1.083   0.340   8.907  0.0028  0.1879 -1.1219
  641TIP3   OH223557   5.181   4.067   1.342  0.3589  0.2730  0.0515
  641TIP3    H123558   5.167   3.972   1.338 -0.3134  0.3710 -0.1311
  641TIP3    H223559   5.258   4.078   1.399 -0.4010 -0.3108  1.2387
  642TIP3   OH223560   0.403   2.692   2.461 -0.4480 -0.2993  0.1447
  642TIP3    H123561   0.386   2.647   2.543  0.3327  1.0807  1.1123
  642TIP3    H223562   0.353   2.774   2.468  2.4608  1.5973  0.9693
  643TIP3   OH223563   2.562   6.303   1.415  0.1723 -0.0809 -0.2186
  643TIP3    H123564   2.603   6.360   1.479  1.6385 -0.9183 -0.3613
  643TIP3    H223565   2.566   6.216   1.454 -1.5802 -0.1989 -0.2088
  644TIP3   OH223566   3.438   2.875   8.458 -0.2757 -0.2442  0.1216
  644TIP3    H123567   3.491   2.866   8.378  0.4732 -1.0945  0.6895
  644TIP3    H223568   3.493   2.838   8.527 -0.4957  1.3942  1.2255
  645TIP3   OH223569   4.129   4.770   0.913  0.2755 -0.2251  0.1640
  645TIP3    H123570   4.148   4.860   0.885  3.1157 -0.5009  0.8810
  645TIP3    H223571   4.042   4.752   0.879  0.1723  2.3309 -1.1560
  646TIP3   OH223572   2.603   5.982   1.673 -0.1495 -0.3238 -0.5478
  646TIP3    H123573   2.587   5.949   1.585  0.0211  1.0924 -1.1359
  646TIP3    H223574   2.564   5.916   1.731 -0.9084 -0.9152 -1.6977
  647TIP3   OH223575   4.367   5.578   1.115  0.4106  0.6174 -0.2540
  647TIP3    H123576   4.398   5.502   1.163  0.2756  1.0451  0.5276
  647TIP3    H223577   4.440   5.602   1.058  0.6824  0.2769 -0.0525
  648TIP3   OH223578   2.172   4.242   7.667 -0.5210  0.3888 -0.1942
  648TIP3    H123579   2.168   4.146   7.672  0.7384  0.2617 -1.1395
  648TIP3    H223580   2.080   4.269   7.660 -0.8769 -0.7713 -0.3241
  649TIP3   OH223581   1.092   3.899   7.332 -0.1960  0.2938  0.1442
  649TIP3    H123582   1.103   3.955   7.255 -0.9806 -0.3001 -0.4169
  649TIP3    H223583   1.163   3.834   7.325 -1.5702 -1.1604 -1.3588
  650TIP3   OH223584   2.038   1.763   8.705 -0.1772 -0.3056  0.4924
  650TIP3    H123585   1.950   1.801   8.707 -0.5269 -1.1183  0.7311
  650TIP3    H223586   2.046   1.726   8.617 -0.1193 -0.3371  0.5107
  651TIP3   OH223587   5.049   0.280   2.835 -0.2960 -0.3188 -0.1377
  651TIP3    H123588   4.974   0.322   2.878  0.5035  0.7892  0.2352
  651TIP3    H223589   5.015   0.249   2.752 -1.4155 -0.7769  0.4777
  652TIP3   OH223590   5.290   2.055   8.733  0.7039 -0.1138 -0.4804
  652TIP3    H123591   5.286   1.965   8.763  2.7553 -0.1894 -0.3198
  652TIP3    H223592   5.217   2.099   8.777  2.2211 -0.7221  2.9145
  653TIP3   OH223593   5.010   3.891   2.745 -0.3111 -0.1121 -0.0817
  653TIP3    H123594   4.936   3.887   2.805  0.4550  0.5046  0.9324
  653TIP3    H223595   5.073   3.828   2.779  0.5143  0.9042  0.3190
  654TIP3   OH223596   1.146   6.771   1.990  0.1624 -0.3074 -0.1347
  654TIP3    H123597   1.163   6.710   2.062  0.4008  0.2655  0.2992
  654TIP3    H223598   1.220   6.831   1.991  1.1970 -1.4346 -2.1014
  655TIP3   OH223599   2.181   3.368   8.637  0.2529  0.0364 -0.3561
  655TIP3    H123600   2.116   3.439   8.643  0.9002  0.7021 -1.0189
  655TIP3    H223601   2.230   3.388   8.557  2.5736  0.6571  1.1450
  656TIP3   OH223602   0.501   0.887   2.941  0.0820  0.2537 -0.6064
  656TIP3    H123603   0.471   0.972   2.974  1.4281  0.8870 -0.9491
  656TIP3    H223604   0.567   0.859   3.004  0.1757 -0.1890 -0.8987
  657TIP3   OH223605   1.090   5.534   0.963  0.3215 -0.8005 -0.0559
  657TIP3    H123606   1.026   5.587   0.915  0.7061 -1.2513 -1.1141
  657TIP3    H223607   1.093   5.452   0.914  2.1418 -0.5705 -0.4062
  658TIP3   OH223608   2.987   5.681   0.384 -0.3981 -0.5662  0.5052
  658TIP3    H123609   2.940   5.626   0.322  1.2144  0.0433 -1.3782
  658TIP3    H223610   2.930   5.686   0.460 -1.7768 -2.6266 -0.3030
  659TIP3   OH223611   1.893   6.154   0.984  0.6223  0.0263 -0.4270
  659TIP3    H123612   1.804   6.137   0.955  0.8144  0.5776 -1.3977
  659TIP3    H223613   1.888   6.239   1.028  0.6703  0.0605 -0.4872
  660TIP3   OH223614   6.295   1.716   1.487  0.1048 -0.4661  0.4007
  660TIP3    H123615   6.232   1.777   1.448  1.0160  0.5145  0.4272
  660TIP3    H223616   6.335   1.672   1.413  1.8934  1.4538  0.1415
  661TIP3   OH223617   1.545   3.020   7.974 -0.0778 -0.0523 -0.5427
  661TIP3    H123618   1.538   2.926   7.961  0.4006  0.0977 -2.0900
  661TIP3    H223619   1.463   3.056   7.938  0.6479  0.2646 -1.9511
  662TIP3   OH223620   1.631   3.374   1.874  0.5271  0.6857 -0.4338
  662TIP3    H123621   1.542   3.344   1.858  1.6229 -1.9988 -2.1416
  662TIP3    H223622   1.651   3.347   1.963  0.4252 -1.0474 -0.9024
  663TIP3   OH223623   0.951   2.953   8.261  0.0902 -0.0145 -0.4677
  663TIP3    H123624   0.971   2.877   8.206 -1.3976 -0.1550 -0.8849
  663TIP3    H223625   0.855   2.952   8.268  0.1840  0.4940  1.4510
  664TIP3   OH223626   3.209   1.079   2.003 -0.2964 -0.8433  0.4569
  664TIP3    H123627   3.209   1.175   2.008  2.2988 -0.7661  0.3716
  664TIP3    H223628   3.120   1.056   1.979 -0.2279  1.8028 -3.1028
  665TIP3   OH223629   0.679   0.691   8.551  0.1870  0.6939  0.2583
  665TIP3    H123630   0.643   0.732   8.472 -1.0138 -0.9285 -0.0837
  665TIP3    H223631   0.619   0.718   8.621  0.2604  0.7253  0.3098
  666TIP3   OH223632   6.679   4.655   8.211  0.4103  0.2446  0.0762
  666TIP3    H123633   6.689   4.689   8.301  0.2144 -1.2947  0.7108
  666TIP3    H223634   6.764   4.616   8.191 -0.1056 -1.0656  0.3381
  667TIP3   OH223635   1.823   0.905   8.329  0.2419  0.0859 -0.2049
  667TIP3    H123636   1.816   0.959   8.408  1.4216 -0.2000  0.1027
  667TIP3    H223637   1.860   0.963   8.263  1.4547 -0.3094  0.1091
  668TIP3   OH223638   0.071   0.613   7.406  0.3537  0.0339 -0.0481
  668TIP3    H123639   0.162   0.596   7.380  0.2673 -0.4010 -0.0749
  668TIP3    H223640   0.019   0.560   7.345  0.1412 -0.9588  0.9834
  669TIP3   OH223641   2.007   1.671   8.451 -0.2866 -0.0576  0.3901
  669TIP3    H123642   1.956   1.674   8.370  1.7373  3.9138 -1.0174
  669TIP3    H223643   2.065   1.596   8.440 -0.2132  0.2471 -1.8027
  670TIP3   OH223644   6.682   0.775   1.012 -0.2233 -0.8405 -0.1494
  670TIP3    H123645   6.661   0.685   1.036 -1.2518 -0.8643 -1.0665
  670TIP3    H223646   6.608   0.827   1.044  0.1073 -0.3916 -0.1011
  671TIP3   OH223647   6.597   5.126   8.238  0.3541  0.2980 -0.3314
  671TIP3    H123648   6.588   5.045   8.187 -0.1641  0.2566 -0.1869
  671TIP3    H223649   6.681   5.118   8.282  0.4148 -0.0571 -0.5068
  672TIP3   OH223650   2.168   6.052   7.908  0.0692 -0.7860  0.0961
  672TIP3    H123651   2.131   5.998   7.977  0.6147  0.2436  1.2215
  672TIP3    H223652   2.255   6.015   7.892 -0.9326 -2.5442 -1.8087
  673TIP3   OH223653   5.558   1.624   2.195 -0.6051  0.4111 -0.0895
  673TIP3    H123654   5.536   1.545   2.245  0.0077  0.4113  0.1962
  673TIP3    H223655   5.518   1.610   2.109  0.1073 -0.5414 -0.2832
  674TIP3   OH223656   5.316   4.871   7.713  0.1070  0.3302  0.7197
  674TIP3    H123657   5.268   4.913   7.642  1.2398  0.6960  0.1544
  674TIP3    H223658   5.283   4.914   7.792  0.7894  1.8764  0.2074
  675TIP3   OH223659   4.371   0.626   0.445 -0.2583 -0.0285 -0.1012
  675TIP3    H123660   4.416   0.690   0.499  2.3661  0.0784 -2.2076
  675TIP3    H223661   4.328   0.678   0.377 -1.0333 -0.3311  0.1479
  676TIP3   OH223662   3.431   3.143   1.887 -0.1321  0.1747 -0.6725
  676TIP3    H123663   3.396   3.123   1.974  0.6533  1.4439 -0.0351
  676TIP3    H223664   3.453   3.236   1.891  1.7988 -0.2071 -1.5631
  677TIP3   OH223665   1.219   0.268   7.620 -0.3042 -0.2116  0.2224
  677TIP3    H123666   1.279   0.342   7.609 -1.3235  0.5167 -0.6618
  677TIP3    H223667   1.196   0.270   7.713 -1.0166  1.1847  0.0508
  678TIP3   OH223668   6.246   4.831   0.378  0.1116 -0.5220  0.8050
  678TIP3    H123669   6.165   4.810   0.331 -0.6914 -0.6475  2.1744
  678TIP3    H223670   6.253   4.926   0.371  0.9928 -0.6923 -1.0759
  679TIP3   OH223671   6.371   1.149   1.598  0.2446  0.1110 -0.0939
  679TIP3    H123672   6.310   1.157   1.672 -1.8201 -0.6211 -1.6353
  679TIP3    H223673   6.380   1.055   1.585 -1.0660  0.1948 -2.0041
  680TIP3   OH223674   6.241   5.775   1.913 -0.1644 -0.0797  0.2691
  680TIP3    H123675   6.269   5.761   2.004  1.2735  0.6133 -0.0443
  680TIP3    H223676   6.175   5.844   1.919 -0.7274 -0.6599  0.8699
  681TIP3   OH223677   6.318   1.397   7.925 -0.4276 -0.1948  0.2477
  681TIP3    H123678   6.361   1.431   8.004  0.5279  0.1491 -0.3997
  681TIP3    H223679   6.237   1.448   7.919  1.2588  2.5779 -1.0548
  682TIP3   OH223680   6.739   5.558   8.613 -0.4025  0.4442  0.6945
  682TIP3    H123681   6.758   5.652   8.615  1.4283  0.1344  0.1819
  682TIP3    H223682   6.798   5.521   8.680  0.1180 -0.5020 -0.2632
  683TIP3   OH223683   4.195   3.066   0.151  0.1974 -0.4541 -0.6734
  683TIP3    H123684   4.225   3.034   0.067  0.7837  0.5821 -0.8828
  683TIP3    H223685   4.270   3.053   0.210 -0.1628 -1.0533 -0.3437
  684TIP3   OH223686   1.930   5.929   0.308 -0.1523  0.2998  0.3357
  684TIP3    H123687   1.953   5.858   0.249  0.3883 -0.0722  0.9886
  684TIP3    H223688   1.945   5.894   0.396 -1.7412  0.5564  0.7400
  685TIP3   OH223689   1.346   0.204   1.029 -0.0277 -0.1469 -0.2282
  685TIP3    H123690   1.398   0.267   1.079 -2.6067  0.6932  1.6075
  685TIP3    H223691   1.364   0.225   0.937  0.8061  1.8603  0.3445
  686TIP3   OH223692   5.169   4.106   7.581  1.1098 -0.0155  0.2167
  686TIP3    H123693   5.188   4.030   7.635 -0.8590 -2.8814 -2.7900
  686TIP3    H223694   5.209   4.086   7.496 -3.0454  0.0737 -2.0188
  687TIP3   OH223695   5.317   4.041   0.254 -0.0265 -0.9956  0.0920
  687TIP3    H123696   5.310   4.036   0.159  1.2142 -1.3965  0.0122
  687TIP3    H223697   5.274   4.124   0.277 -0.1222 -0.7810 -0.8370
  688TIP3   OH223698   5.986   2.005   0.250 -0.2920  0.8827  0.4756
  688TIP3    H123699   5.966   2.098   0.265 -0.9300  1.0047 -0.9516
  688TIP3    H223700   6.052   2.007   0.180 -0.0770  0.2675  0.6631
  689TIP3   OH223701   0.918   5.534   1.481  0.0945  0.5536  0.5527
  689TIP3    H123702   0.944   5.610   1.429 -0.9267  0.3451 -0.2762
  689TIP3    H223703   0.961   5.460   1.438  1.2989  0.6593  1.5091
  690TIP3   OH223704   2.459   6.656   1.187  0.0149  0.4209  0.1081
  690TIP3    H123705   2.554   6.645   1.193  0.1131  1.6811  1.3077
  690TIP3    H223706   2.447   6.716   1.113  0.1886  0.7363  0.3360
  691TIP3   OH223707   4.229   6.618   7.671 -0.1531 -0.3416 -0.0815
  691TIP3    H123708   4.295   6.551   7.689 -0.1605 -0.0045  1.3222
  691TIP3    H223709   4.162   6.573   7.620  0.3150 -1.1316 -0.0133
  692TIP3   OH223710   1.749   2.918   1.476  0.7456  0.0372 -0.7384
  692TIP3    H123711   1.677   2.867   1.512  1.8067 -1.7074 -0.9634
  692TIP3    H223712   1.770   2.982   1.544  0.7378 -1.2018  0.4575
  693TIP3   OH223713   1.260   4.293   8.831 -0.0122 -0.1589  0.4160
  693TIP3    H123714   1.202   4.256   8.764 -1.7606 -0.5864  2.0922
  693TIP3    H223715   1.220   4.376   8.854 -0.0833 -0.5316  1.7139
  694TIP3   OH223716   5.982   1.051   1.299 -0.2278 -0.1578  0.3945
  694TIP3    H123717   5.978   1.145   1.281 -1.5153  0.2433  2.4886
  694TIP3    H223718   6.075   1.035   1.319  0.4075  0.1948 -2.0134
  695TIP3   OH223719   0.921   0.917   1.693 -0.9634  0.1775 -0.0791
  695TIP3    H123720   0.941   0.950   1.605 -0.4686  1.5087  0.5031
  695TIP3    H223721   1.002   0.875   1.722 -0.7153  0.8445  0.2124
  696TIP3   OH223722   5.266   1.132   0.778 -0.2765 -0.1356 -0.0460
  696TIP3    H123723   5.305   1.211   0.815  0.0453 -0.7971  1.0732
  696TIP3    H223724   5.175   1.156   0.761 -0.5592  0.0589  1.6329
  697TIP3   OH223725   5.933   1.862   8.495 -0.6119 -0.1932 -0.6771
  697TIP3    H123726   5.942   1.824   8.408 -0.1647 -1.9710  0.1057
  697TIP3    H223727   5.963   1.793   8.555 -0.6397  1.0805  0.8723
  698TIP3   OH223728   1.825   6.440   0.509 -0.4173  0.1283  0.8317
  698TIP3    H123729   1.862   6.384   0.441 -2.2312  0.3992 -0.4239
  698TIP3    H223730   1.841   6.392   0.590  0.9068 -0.6612  0.1467
  699TIP3   OH223731   4.921   6.713   1.568  0.2371  0.1954 -0.3900
  699TIP3    H123732   4.879   6.701   1.653  0.7540  1.7421  0.1195
  699TIP3    H223733   4.848   6.722   1.506 -0.1447 -1.4817 -0.2479
  700TIP3   OH223734   3.790   6.349   0.754  0.2014  0.0387  0.5123
  700TIP3    H123735   3.766   6.272   0.806 -0.0418  0.6035  1.2599
  700TIP3    H223736   3.840   6.314   0.680 -0.2647 -0.8722  0.6160
  701TIP3   OH223737   5.776   1.250   2.128  0.1699 -0.7819 -0.0697
  701TIP3    H123738   5.818   1.334   2.150 -0.1470 -0.6371  0.0002
  701TIP3    H223739   5.708   1.240   2.195 -0.8224 -0.3299 -0.9909
  702TIP3   OH223740   5.499   0.573   1.472  0.3589 -0.7291  0.0494
  702TIP3    H123741   5.473   0.481   1.476 -1.1979 -0.3085  0.0266
  702TIP3    H223742   5.499   0.594   1.379  0.8613 -0.7370  0.0456
  703TIP3   OH223743   4.188   2.573   8.195  0.1390 -0.3780  0.6484
  703TIP3    H123744   4.240   2.542   8.121  0.9391 -0.2874  1.1587
  703TIP3    H223745   4.134   2.644   8.159  0.4204 -0.4251  0.1268
  704TIP3   OH223746   0.160   3.004   2.214 -0.4822 -0.0731 -0.0978
  704TIP3    H123747   0.235   3.020   2.158 -0.2841 -0.8620 -0.0697
  704TIP3    H223748   0.085   3.034   2.163 -0.2240  0.0087 -0.4329
  705TIP3   OH223749   3.073   2.653   7.364  0.3041  0.0048 -0.4611
  705TIP3    H123750   2.982   2.682   7.355 -0.2872 -0.7791  1.9310
  705TIP3    H223751   3.119   2.691   7.290 -1.8728  0.8813 -1.4397
  706TIP3   OH223752   1.255   6.403   1.677 -0.4680 -0.0477 -0.1690
  706TIP3    H123753   1.278   6.425   1.586  1.9692  0.9120  0.6056
  706TIP3    H223754   1.198   6.475   1.705  0.4846  0.7958 -0.3244
  707TIP3   OH223755   3.670   4.242   7.504  0.6870 -0.1288 -0.1655
  707TIP3    H123756   3.728   4.318   7.514  1.7458 -1.1374  1.9553
  707TIP3    H223757   3.729   4.167   7.502 -0.3374 -0.9590 -2.3248
  708TIP3   OH223758   6.549   1.058   0.024 -0.1060  0.0087 -0.3560
  708TIP3    H123759   6.560   0.990  -0.043  2.1785  0.6720 -0.7234
  708TIP3    H223760   6.534   1.138  -0.026 -0.5902  0.1587  0.0191
  709TIP3   OH223761   4.829   3.658   0.105  0.1152 -0.4922 -0.3082
  709TIP3    H123762   4.820   3.742   0.059  1.2475  0.3927  1.0206
  709TIP3    H223763   4.889   3.676   0.177 -0.1908 -2.2901  0.4467
  710TIP3   OH223764   4.542   5.321   2.868  0.3094 -0.6632 -0.1522
  710TIP3    H123765   4.636   5.318   2.885  0.3526  0.7182 -0.0168
  710TIP3    H223766   4.526   5.250   2.806  1.7583  0.1686 -1.5357
  711TIP3   OH223767   0.010   2.753   7.481  0.3021  0.1209 -0.0401
  711TIP3    H123768   0.104   2.763   7.495  0.6745 -0.0317 -2.1273
  711TIP3    H223769  -0.007   2.803   7.400 -1.2098 -0.7201 -0.2638
  712TIP3   OH223770   1.699   2.224   7.724  0.3050 -0.0101 -0.0402
  712TIP3    H123771   1.703   2.136   7.761 -2.3796  0.4073  1.5276
  712TIP3    H223772   1.712   2.282   7.800 -1.7605  0.8800 -0.2971
  713TIP3   OH223773   0.222   6.709   1.143 -0.2017 -0.0725  0.4845
  713TIP3    H123774   0.273   6.758   1.079 -1.4519  1.1560  0.3978
  713TIP3    H223775   0.230   6.617   1.115  1.2827  0.1789  0.0285
  714TIP3   OH223776   4.799   5.597   2.171  0.0179  0.3578  0.1330
  714TIP3    H123777   4.781   5.647   2.092 -1.6168  1.4713  1.1453
  714TIP3    H223778   4.894   5.596   2.178  0.3363 -1.4512 -2.8374
  715TIP3   OH223779   1.190   0.521   7.393  0.3717 -0.1202  0.0334
  715TIP3    H123780   1.238   0.543   7.313 -0.3901  0.3032 -0.3205
  715TIP3    H223781   1.256   0.525   7.462  0.7730  0.8339 -0.3850
  716TIP3   OH223782   0.236   5.508   7.941 -0.3381  0.4139  0.6761
  716TIP3    H123783   0.280   5.430   7.976 -1.9879 -1.4108 -1.0746
  716TIP3    H223784   0.155   5.515   7.991 -0.2605  0.9474  0.7347
  717TIP3   OH223785   0.490   5.689   8.371 -0.0586  0.3673 -0.3196
  717TIP3    H123786   0.487   5.670   8.278  0.4770  2.4264 -0.7973
  717TIP3    H223787   0.580   5.670   8.397  0.5473  2.2598 -0.8524
  718TIP3   OH223788   4.972   3.201   8.711  0.0752  0.8602 -0.2855
  718TIP3    H123789   4.928   3.125   8.672 -0.2201  1.3366 -0.9052
  718TIP3    H223790   4.913   3.229   8.782  0.4501  0.1903  0.2965
  719TIP3   OH223791   0.310   4.221   1.423 -0.6224  0.1488 -0.0799
  719TIP3    H123792   0.331   4.258   1.508  0.5461 -0.5794 -0.0292
  719TIP3    H223793   0.340   4.130   1.428  0.0810  0.2789 -1.4924
  720TIP3   OH223794   3.473   5.664   0.450 -0.5488  0.2276  0.0227
  720TIP3    H123795   3.559   5.689   0.415 -1.3551  2.0005 -0.8048
  720TIP3    H223796   3.410   5.707   0.392 -1.9841  0.8431  1.9467
  721TIP3   OH223797   1.282   1.499   7.056 -0.2746  0.8858  0.3591
  721TIP3    H123798   1.194   1.519   7.025 -0.0294  1.2748 -0.1158
  721TIP3    H223799   1.317   1.584   7.084 -0.5167  0.5318  1.8049
  722TIP3   OH223800   3.188   1.829   1.726 -0.0202  0.0876 -0.0007
  722TIP3    H123801   3.161   1.887   1.797  0.9873 -0.7046  1.0705
  722TIP3    H223802   3.283   1.839   1.721  0.2075 -1.5757  0.3420
  723TIP3   OH223803   0.295   3.140   8.088  0.5265  0.4997 -0.0258
  723TIP3    H123804   0.310   3.229   8.058  0.0780  0.6765  0.2577
  723TIP3    H223805   0.320   3.084   8.014  0.4456  0.8774 -0.3385
  724TIP3   OH223806   6.529   2.165   8.134  0.0262  0.8298  0.2438
  724TIP3    H123807   6.542   2.212   8.052 -0.7558  1.1641  0.3001
  724TIP3    H223808   6.577   2.083   8.123  0.4854  1.1629 -0.2816
  725TIP3   OH223809   2.208   5.843   0.738  0.7255  0.0402 -0.2038
  725TIP3    H123810   2.184   5.752   0.758 -2.8037  1.1095  1.2671
  725TIP3    H223811   2.154   5.866   0.662  0.6468  1.2399  0.1970
  726TIP3   OH223812   1.476   4.350   6.919 -0.5214  0.1470  0.0525
  726TIP3    H123813   1.569   4.371   6.906 -0.3579  0.2593  1.2499
  726TIP3    H223814   1.445   4.418   6.979 -1.3974  0.1488 -0.4002
  727TIP3   OH223815   3.367   2.129   8.476  0.3403 -0.6178  0.5149
  727TIP3    H123816   3.302   2.179   8.525 -0.7252 -0.3767 -1.0802
  727TIP3    H223817   3.324   2.046   8.456  1.6256 -1.7048  1.9957
  728TIP3   OH223818   6.705   2.525   0.934  0.8041 -0.0818  0.7976
  728TIP3    H123819   6.716   2.609   0.890 -1.3188  0.4815  1.2216
  728TIP3    H223820   6.735   2.460   0.871  3.0574  0.9840  0.6790
  729TIP3   OH223821   3.143   3.094   1.678  0.7261  0.3735  0.0641
  729TIP3    H123822   3.203   3.022   1.655  1.8810  1.0678  0.8126
  729TIP3    H223823   3.174   3.168   1.626 -0.4432  0.3727 -0.6821
  730TIP3   OH223824   6.117   0.782   1.498  0.6213  0.3065  0.3151
  730TIP3    H123825   6.025   0.765   1.519  0.4653  1.9870  1.2360
  730TIP3    H223826   6.166   0.749   1.573  0.6991  0.1050  0.1761
  731TIP3   OH223827   1.882   3.922   7.887  0.5394 -0.0505 -0.0291
  731TIP3    H123828   1.826   3.847   7.866 -0.1230  0.5488 -0.4636
  731TIP3    H223829   1.826   3.979   7.939  0.5132  0.8994 -1.0821
  732TIP3   OH223830   6.444   2.775   0.603  0.3248  0.6597  0.1772
  732TIP3    H123831   6.492   2.826   0.669  1.4329  1.3354 -1.0784
  732TIP3    H223832   6.511   2.721   0.561 -0.5636 -0.6512  0.3745
  733TIP3   OH223833   3.877   1.286   1.417  0.3561 -0.2046  0.1982
  733TIP3    H123834   3.784   1.294   1.436  0.3793 -1.7678  1.1387
  733TIP3    H223835   3.916   1.368   1.448 -1.0074  1.7391 -2.7496
  734TIP3   OH223836   0.935   1.390   8.414  0.0556  0.3741  0.0772
  734TIP3    H123837   0.974   1.472   8.444  0.0235  0.9019 -1.2441
  734TIP3    H223838   0.888   1.414   8.334  0.5109 -1.0201 -0.6443
  735TIP3   OH223839   3.736   6.310   2.815 -0.4434 -0.0627 -0.2783
  735TIP3    H123840   3.735   6.258   2.735 -0.1663 -0.5950  0.0535
  735TIP3    H223841   3.647   6.343   2.823 -0.1535  1.0784 -1.4813
  736TIP3   OH223842   2.258   1.655   7.752  0.4760  0.1179 -0.5885
  736TIP3    H123843   2.317   1.610   7.813  0.8864  0.7356 -0.5161
  736TIP3    H223844   2.315   1.683   7.680  0.6572  2.3422  0.3529
  737TIP3   OH223845   5.622   3.512   2.866 -0.3079 -0.0376  0.6686
  737TIP3    H123846   5.675   3.480   2.793 -0.1942  1.6481 -0.0411
  737TIP3    H223847   5.685   3.547   2.928 -0.4853  0.4848  0.5665
  738TIP3   OH223848   2.938   2.796   2.036  0.2668 -0.2187 -0.1651
  738TIP3    H123849   2.895   2.792   1.951  0.8831 -1.1888 -0.4477
  738TIP3    H223850   2.867   2.815   2.098 -0.0733  1.2252 -0.9580
  739TIP3   OH223851   5.778   5.958   0.956  0.1982  0.1886  0.3318
  739TIP3    H123852   5.702   6.014   0.972  1.6433  2.5318 -0.5588
  739TIP3    H223853   5.759   5.915   0.872 -0.5134  0.0559  0.5546
  740TIP3   OH223854   5.143   6.609   8.358 -0.0264 -0.1946 -0.3845
  740TIP3    H123855   5.237   6.605   8.377  0.3062  0.4077 -1.7849
  740TIP3    H223856   5.108   6.671   8.421  0.6337  0.0434 -0.2468
  741TIP3   OH223857   3.321   5.599   2.529 -0.6814 -0.0016  0.2269
  741TIP3    H123858   3.275   5.526   2.572 -1.9129 -0.0803 -1.1283
  741TIP3    H223859   3.257   5.670   2.526 -0.0174  0.6096  0.1407
  742TIP3   OH223860   1.563   3.844   2.329  0.0278  0.3874  0.1189
  742TIP3    H123861   1.475   3.820   2.302 -0.1318 -0.7351  1.4757
  742TIP3    H223862   1.551   3.913   2.394  0.0853 -0.1103  0.6755
  743TIP3   OH223863   3.464   1.689   2.009  0.0997 -0.5879 -0.0584
  743TIP3    H123864   3.384   1.687   2.062  0.7810  2.4630  1.2898
  743TIP3    H223865   3.462   1.774   1.966  3.8595  0.8490  2.2162
  744TIP3   OH223866   2.901   4.768   6.879  0.7125  0.1580  0.4506
  744TIP3    H123867   2.879   4.853   6.916  0.1056 -0.0643  0.6105
  744TIP3    H223868   2.855   4.766   6.795  0.0867 -0.3139  0.7925
  745TIP3   OH223869   4.671   2.395   2.857  0.1077  0.8792 -0.2703
  745TIP3    H123870   4.680   2.451   2.934 -0.8894 -1.3120  1.5417
  745TIP3    H223871   4.757   2.397   2.816  1.2395  0.7096  1.9341
  746TIP3   OH223872   5.530   6.476   6.900 -0.2766  0.8760 -0.0651
  746TIP3    H123873   5.520   6.474   6.805  1.1711 -1.5053 -0.2454
  746TIP3    H223874   5.451   6.434   6.934  0.3614 -0.6516 -0.4002
  747TIP3   OH223875   5.972   6.088   1.482 -0.0530  0.3163 -0.8082
  747TIP3    H123876   6.010   6.088   1.394  0.4330  0.2901 -0.6005
  747TIP3    H223877   6.008   6.165   1.524 -0.3672  0.3870 -0.6624
  748TIP3   OH223878   3.008   6.569   0.728 -0.7735 -0.2440  0.1380
  748TIP3    H123879   3.100   6.580   0.754 -0.4326 -2.6101  0.1373
  748TIP3    H223880   3.007   6.593   0.635  0.0811 -1.1260 -0.1180
  749TIP3   OH223881   1.934   6.483   8.114 -0.7526  0.1612 -0.0320
  749TIP3    H123882   1.958   6.536   8.038 -0.0213 -0.2973 -0.1220
  749TIP3    H223883   1.845   6.511   8.135 -1.0655  0.1117 -1.2196
  750TIP3   OH223884   1.264   1.800   7.947 -0.4157 -0.4577 -0.1806
  750TIP3    H123885   1.355   1.828   7.955  0.0520 -1.3670 -1.8824
  750TIP3    H223886   1.255   1.729   8.011  0.2637 -0.7885 -0.4428
  751TIP3   OH223887   5.744   1.536   7.608  0.7735 -0.0591  0.1779
  751TIP3    H123888   5.719   1.579   7.690  0.2824  0.3357 -0.1755
  751TIP3    H223889   5.683   1.571   7.543 -0.0794 -1.7529  0.0009
  752TIP3   OH223890   2.382   0.461   7.777 -0.8788  0.3560 -0.4681
  752TIP3    H123891   2.477   0.472   7.784 -0.9221  0.2941  0.3710
  752TIP3    H223892   2.350   0.545   7.744 -0.6142  0.6950  0.1142
  753TIP3   OH223893   2.385   5.001   7.365  0.6903  0.1693 -0.3527
  753TIP3    H123894   2.318   5.004   7.433  0.4945  1.9561 -0.5872
  753TIP3    H223895   2.355   4.934   7.305  1.8446 -2.9318  2.2219
  754TIP3   OH223896   4.749   6.454   7.633 -0.8833  0.0295  0.3712
  754TIP3    H123897   4.723   6.521   7.569  1.5926  0.3668 -0.3723
  754TIP3    H223898   4.771   6.504   7.711 -0.3998 -0.0372  0.2796
  755TIP3   OH223899   5.231   2.723   2.319  0.1821  0.0490  0.0231
  755TIP3    H123900   5.226   2.701   2.226  0.4839 -1.8215  0.4036
  755TIP3    H223901   5.243   2.638   2.363 -0.2876  0.8581  1.7930
  756TIP3   OH223902   1.115   2.334   1.542  1.1484  0.1751 -0.0619
  756TIP3    H123903   1.124   2.335   1.447  1.0044 -0.4359 -0.0827
  756TIP3    H223904   1.039   2.390   1.559  0.0840 -1.0985 -0.4387
  757TIP3   OH223905   1.242   5.825   0.489  0.0026  0.4304 -0.1984
  757TIP3    H123906   1.264   5.904   0.440  1.5110 -0.0149 -0.2771
  757TIP3    H223907   1.326   5.790   0.519 -0.3804 -2.3486 -1.9889
  758TIP3   OH223908   6.114   2.681   7.891  0.8824  0.0030 -0.5801
  758TIP3    H123909   6.049   2.751   7.883 -0.2262 -0.5122  2.5526
  758TIP3    H223910   6.063   2.600   7.885  1.1834 -0.4117  1.6699
  759TIP3   OH223911   4.733   1.621   0.909 -0.2311 -0.5717 -0.0079
  759TIP3    H123912   4.688   1.562   0.849  0.1046 -0.6133 -0.2178
  759TIP3    H223913   4.729   1.577   0.994 -0.7782 -0.4744  0.0222
  760TIP3   OH223914   0.189   4.211   7.903  0.3405  0.5375  0.0703
  760TIP3    H123915   0.169   4.226   7.811 -0.6865 -0.5470  0.0902
  760TIP3    H223916   0.270   4.260   7.918 -0.5601  2.4265 -0.8660
  761TIP3   OH223917   4.521   4.914   8.428 -0.3588  0.0018 -0.7069
  761TIP3    H123918   4.439   4.869   8.448  1.0829 -2.4905  0.1117
  761TIP3    H223919   4.495   5.003   8.405 -3.2607 -0.6866 -0.4711
  762TIP3   OH223920   0.970   0.807   0.930  0.1846 -0.2170  0.2494
  762TIP3    H123921   0.926   0.806   0.845  0.1473 -0.9648  0.2703
  762TIP3    H223922   1.025   0.728   0.929 -2.0482 -1.9711  2.0616
  763TIP3   OH223923   4.351   6.597   8.038 -0.4997  0.0625 -0.0024
  763TIP3    H123924   4.348   6.617   8.131  3.3594  0.4033  0.2278
  763TIP3    H223925   4.320   6.676   7.995  2.4396  1.9525  1.0521
  764TIP3   OH223926   2.762   2.929   1.589  0.3319  0.2773 -0.1552
  764TIP3    H123927   2.784   2.933   1.682 -1.4920  0.4078  0.3221
  764TIP3    H223928   2.693   2.862   1.585  0.8317 -0.1806 -1.5174
  765TIP3   OH223929   0.938   3.710   7.433  0.0248 -0.6088  0.9405
  765TIP3    H123930   1.000   3.767   7.388 -1.9217  0.5664 -0.4046
  765TIP3    H223931   0.914   3.644   7.368 -1.8309  0.3434  0.5584
  766TIP3   OH223932   5.173   6.544   8.803  0.0126 -0.1060 -0.1195
  766TIP3    H123933   5.124   6.594   8.869  1.4951 -0.0207  0.9498
  766TIP3    H223934   5.200   6.609   8.739 -0.4742 -0.0115 -0.2365
  767TIP3   OH223935   6.660   2.035   8.498 -0.0357  0.2588  0.0963
  767TIP3    H123936   6.703   2.080   8.570  1.1623  0.4238 -0.6894
  767TIP3    H223937   6.596   2.099   8.465 -1.1637 -0.1110  1.4839
  768TIP3   OH223938   3.238   1.009   7.147 -0.4999 -0.3826  0.1707
  768TIP3    H123939   3.194   0.942   7.094 -0.4515 -0.7757  0.6185
  768TIP3    H223940   3.201   0.999   7.234  1.5861 -1.8209  0.9823
  769TIP3   OH223941   2.288   3.306   0.945 -0.1138 -1.0197  0.0208
  769TIP3    H123942   2.212   3.266   0.986 -0.5976  0.4641  0.6487
  769TIP3    H223943   2.284   3.278   0.854 -1.0775 -1.4442  0.1846
  770TIP3   OH223944   0.614   6.065   1.309 -0.0578  0.6011  0.0858
  770TIP3    H123945   0.706   6.062   1.334 -0.3428 -0.1151  1.1495
  770TIP3    H223946   0.567   6.056   1.392 -1.0884  0.9813 -0.4381
  771TIP3   OH223947   6.782   4.365   8.780  0.7486  0.1014  0.7389
  771TIP3    H123948   6.842   4.357   8.855  1.5713 -0.6622  0.0249
  771TIP3    H223949   6.710   4.306   8.801  0.1145  1.1910  1.7089
  772TIP3   OH223950   3.535   3.821   7.071 -0.0069  0.2843 -1.2006
  772TIP3    H123951   3.477   3.811   6.995 -2.3190 -0.1876  0.4884
  772TIP3    H223952   3.524   3.740   7.120  2.4102  0.0509 -0.9167
  773TIP3   OH223953   2.468   0.878   1.039 -0.0293  0.0027 -0.1991
  773TIP3    H123954   2.437   0.790   1.058  0.8583  0.1055  2.0250
  773TIP3    H223955   2.464   0.885   0.944  0.1370 -2.5265 -0.4624
  774TIP3   OH223956   6.170   0.656   2.201  0.4653 -0.5735 -0.5180
  774TIP3    H123957   6.203   0.743   2.180 -2.4624  1.3931  2.0713
  774TIP3    H223958   6.127   0.627   2.121  0.8191  0.7151 -1.2034
  775TIP3   OH223959   6.139   2.403   8.297  0.2131 -0.0173  0.2233
  775TIP3    H123960   6.190   2.449   8.365 -0.6401  0.6406  0.4353
  775TIP3    H223961   6.126   2.315   8.332  1.4732 -0.3018  0.0185
  776TIP3   OH223962   2.746   1.745   2.148 -1.0855  0.1745 -0.1635
  776TIP3    H123963   2.663   1.726   2.106 -2.1966 -0.9996  2.3041
  776TIP3    H223964   2.724   1.805   2.220 -0.1600 -1.3337  1.4831
  777TIP3   OH223965   2.235   5.531   0.750 -0.6565 -0.3555  0.7553
  777TIP3    H123966   2.149   5.513   0.712 -1.2169 -2.0354  2.6579
  777TIP3    H223967   2.270   5.445   0.772  1.7319  0.2466 -0.3129
  778TIP3   OH223968   4.851   4.778   1.174 -0.4537 -0.0780  0.1754
  778TIP3    H123969   4.850   4.724   1.095  1.4002  0.6495 -0.3845
  778TIP3    H223970   4.914   4.736   1.232 -0.7204  0.1987  0.6744
  779TIP3   OH223971   4.582   5.444   8.726  0.2402 -0.0269  0.3851
  779TIP3    H123972   4.657   5.502   8.714 -0.4606  0.5799 -1.4799
  779TIP3    H223973   4.506   5.503   8.723 -0.3869 -0.8173  0.5687
  780TIP3   OH223974   4.333   0.011   8.900  0.0158  0.2396  0.0780
  780TIP3    H123975   4.326  -0.011   8.993  0.6342 -0.4011 -0.0213
  780TIP3    H223976   4.357   0.104   8.900  1.5434 -0.1188  0.6135
  781TIP3   OH223977   0.765   2.284   2.340 -0.3027 -0.0471  0.4646
  781TIP3    H123978   0.765   2.195   2.305  1.7813  0.1750 -0.2826
  781TIP3    H223979   0.733   2.338   2.268  1.8163  0.1486 -0.4149
  782TIP3   OH223980   4.693   0.947   1.415 -0.4728  0.2631 -0.7379
  782TIP3    H123981   4.654   1.027   1.449 -0.5599  0.1390 -0.5430
  782TIP3    H223982   4.787   0.965   1.414 -0.5477  0.6525 -1.4428
  783TIP3   OH223983   1.513   0.777   7.840 -0.2015 -0.1609 -0.6283
  783TIP3    H123984   1.503   0.872   7.833  0.5711 -0.2218 -3.9938
  783TIP3    H223985   1.603   0.760   7.812  0.6129 -1.7568  2.5221
  784TIP3   OH223986   5.387   4.402   8.823 -0.0018  0.3343 -0.0650
  784TIP3    H123987   5.347   4.345   8.757  3.6657 -1.7497 -0.7978
  784TIP3    H223988   5.433   4.469   8.773 -0.0001  0.8112  0.5604
  785TIP3   OH223989   6.451   3.441   0.729  0.6148 -0.2366 -0.3657
  785TIP3    H123990   6.376   3.382   0.736 -1.2209  1.9714 -0.2813
  785TIP3    H223991   6.487   3.445   0.818  0.4923 -0.8565 -0.2834
  786TIP3   OH223992   4.183   6.129   7.778 -0.4305 -1.0389 -0.2816
  786TIP3    H123993   4.193   6.175   7.861 -1.0440  0.0938 -0.8054
  786TIP3    H223994   4.095   6.153   7.749  0.5822  0.4562 -2.3457
  787TIP3   OH223995   0.648   4.195   8.419  0.0438  0.2246  0.0616
  787TIP3    H123996   0.629   4.108   8.383  0.9201  0.3282 -0.6976
  787TIP3    H223997   0.583   4.253   8.379 -0.1639  0.0242  0.1071
  788TIP3   OH223998   3.583   0.278   8.085 -0.5634  0.1137 -0.2321
  788TIP3    H123999   3.534   0.200   8.058 -0.2388  0.6220 -2.4767
  788TIP3    H224000   3.661   0.242   8.128 -1.6899 -0.7236  1.2011
  789TIP3   OH224001   0.892   6.567   0.199  0.0138  0.2105  0.8285
  789TIP3    H124002   0.808   6.534   0.232 -0.2222 -2.9070 -2.3105
  789TIP3    H224003   0.876   6.660   0.182 -2.2628  0.0778  1.8042
  790TIP3   OH224004   1.459   2.522   2.698  0.2450  0.2723 -0.0247
  790TIP3    H124005   1.440   2.429   2.684 -0.5761  0.5409 -0.7617
  790TIP3    H224006   1.377   2.567   2.675  0.7468  1.2046 -0.0218
  791TIP3   OH224007   3.099   5.141   8.071 -0.4056  0.0086  0.3581
  791TIP3    H124008   3.053   5.218   8.037 -0.4681 -0.2081 -0.0530
  791TIP3    H224009   3.164   5.120   8.003 -1.2858 -1.1092 -0.1604
  792TIP3   OH224010   3.699   6.126   1.843 -0.1468  0.3042 -0.1122
  792TIP3    H124011   3.743   6.196   1.890  0.2699 -0.3146  0.4417
  792TIP3    H224012   3.769   6.076   1.802 -0.2326 -1.0062  1.2170
  793TIP3   OH224013   3.887   0.634   2.318 -0.2125  0.2300  0.1743
  793TIP3    H124014   3.804   0.586   2.328  1.0062 -1.7839  1.1245
  793TIP3    H224015   3.941   0.604   2.390  2.1725 -0.2132 -1.6825
  794TIP3   OH224016   3.726   4.015   7.785  0.2351 -0.2612 -0.5293
  794TIP3    H124017   3.721   4.042   7.693 -0.9767  1.2823 -0.0687
  794TIP3    H224018   3.634   4.007   7.812  0.5709 -0.3009  0.6460
  795TIP3   OH224019   0.580   0.140   7.120 -0.0548  0.9959  0.5731
  795TIP3    H124020   0.620   0.226   7.137  0.5016  0.9037 -0.2496
  795TIP3    H224021   0.636   0.100   7.054 -2.0665  1.2642 -1.3928
  796TIP3   OH224022   6.139   5.029   0.046  0.2803  0.2480 -0.5639
  796TIP3    H124023   6.228   5.051   0.019  0.4216 -0.2407 -0.4976
  796TIP3    H224024   6.110   5.105   0.097  0.7205  0.3284 -0.4332
  797TIP3   OH224025   4.104   5.715   1.555 -0.0456 -0.1106 -0.1268
  797TIP3    H124026   4.088   5.621   1.567 -1.5569  0.1348 -0.0772
  797TIP3    H224027   4.066   5.756   1.633 -0.7030  0.6615 -0.8455
  798TIP3   OH224028   4.715   1.758   7.757  0.1839  0.3190 -0.0168
  798TIP3    H124029   4.789   1.811   7.785  1.7285 -1.6291 -0.2478
  798TIP3    H224030   4.734   1.737   7.665 -0.0484 -1.1407  0.2442
  799TIP3   OH224031   6.340   0.365   2.082 -0.2342 -0.1253  0.3988
  799TIP3    H124032   6.266   0.416   2.049  0.1624  1.0475  1.2627
  799TIP3    H224033   6.340   0.380   2.177  1.2280  0.0819  0.3961
  800TIP3   OH224034   4.608   0.232   1.796 -0.7255 -0.0705 -0.4981
  800TIP3    H124035   4.527   0.226   1.848  0.3829 -2.5040  1.1504
  800TIP3    H224036   4.654   0.308   1.831 -0.5783 -0.9438  1.3281
  801TIP3   OH224037   1.131   2.651   2.115  0.5584 -0.0341 -0.0903
  801TIP3    H124038   1.193   2.587   2.149  1.8749  1.4087  0.3135
  801TIP3    H224039   1.154   2.659   2.022  2.4493  1.9971  0.4608
  802TIP3   OH224040   0.876   2.031   1.520 -0.1542  0.3213 -0.6886
  802TIP3    H124041   0.923   2.069   1.446 -1.4805  0.6099 -1.4148
  802TIP3    H224042   0.943   2.020   1.588  0.8821  1.0098 -1.5639
  803TIP3   OH224043   4.968   5.306   6.723  0.1915 -0.0971  0.1894
  803TIP3    H124044   5.007   5.356   6.652  0.4889 -0.2389  0.2533
  803TIP3    H224045   5.036   5.245   6.751  0.6584  1.0395  1.6764
  804TIP3   OH224046   5.983   5.986   1.198 -1.1634 -0.1927  0.3234
  804TIP3    H124047   5.930   6.063   1.178  0.2099  0.8508  0.4715
  804TIP3    H224048   6.004   5.948   1.112 -1.2622  0.0281  0.2012
  805TIP3   OH224049   5.583   3.473   8.549 -0.4495 -0.5343 -0.1727
  805TIP3    H124050   5.614   3.535   8.614 -1.5107 -0.4920  0.3020
  805TIP3    H224051   5.626   3.501   8.468  1.1335 -0.7843  0.5369
  806TIP3   OH224052   4.770   3.577   0.455  0.2074 -0.7696 -0.1410
  806TIP3    H124053   4.716   3.527   0.394  0.1650 -2.1673  0.9810
  806TIP3    H224054   4.848   3.601   0.405 -0.5040 -0.5201 -1.1725
  807TIP3   OH224055   2.377   6.315   8.109  0.2598 -0.0182 -0.0025
  807TIP3    H124056   2.304   6.341   8.051  0.3028  0.5667  0.1979
  807TIP3    H224057   2.343   6.240   8.157 -0.7816  1.1294  1.1624
  808TIP3   OH224058   5.221   4.013   7.322  0.0136  0.8226 -0.0598
  808TIP3    H124059   5.238   3.949   7.253  0.7481  0.0191  0.8357
  808TIP3    H224060   5.155   4.071   7.285 -2.6186 -1.9265 -0.0247
  809TIP3   OH224061   5.607   1.888   7.592  0.3130  0.3571 -0.5314
  809TIP3    H124062   5.569   1.818   7.538  1.6781 -0.7227 -0.1613
  809TIP3    H224063   5.670   1.931   7.533  0.4395  0.4040 -0.3617
  810TIP3   OH224064   2.137   5.023   0.161  0.1185 -0.2081  0.4086
  810TIP3    H124065   2.050   5.014   0.121  0.0700 -2.0348  0.8602
  810TIP3    H224066   2.132   5.106   0.210 -0.9088  0.3814 -0.6551
  811TIP3   OH224067   4.069   0.295   1.236 -0.2024  0.1780  0.2671
  811TIP3    H124068   4.145   0.352   1.246 -0.3444  0.5913 -0.8702
  811TIP3    H224069   4.088   0.242   1.159 -0.4116 -0.7965  0.8598
  812TIP3   OH224070   0.986   5.105   2.429  0.7528  0.3542  0.1108
  812TIP3    H124071   0.952   5.159   2.358  0.3664  0.0775  0.0830
  812TIP3    H224072   1.079   5.093   2.408  0.6640  0.3585 -0.2925
  813TIP3   OH224073   1.446   3.728   8.123  0.3144 -0.3069 -0.2149
  813TIP3    H124074   1.529   3.720   8.075  1.4418 -0.1495  1.6217
  813TIP3    H224075   1.471   3.762   8.209 -1.7610  0.4342  0.1461
  814TIP3   OH224076   4.494   4.648   0.055 -0.3279  0.4047  0.0204
  814TIP3    H124077   4.583   4.640   0.089 -0.2661  3.7007  0.9174
  814TIP3    H224078   4.452   4.565   0.078  1.9825 -0.5351  1.1344
  815TIP3   OH224079   3.557   2.964   0.116  0.2907 -0.5371 -0.1617
  815TIP3    H124080   3.608   3.043   0.097 -0.3003 -0.3399 -1.0012
  815TIP3    H224081   3.622   2.898   0.139  0.7791  0.2858  0.9210
  816TIP3   OH224082   6.218   1.330   1.458  0.0089 -0.3234 -0.5984
  816TIP3    H124083   6.285   1.277   1.501 -0.1283 -0.0814 -0.0776
  816TIP3    H224084   6.136   1.300   1.497 -0.2242 -0.8025 -1.4168
  817TIP3   OH224085   0.089   1.176   7.722 -0.7998  0.5668  0.1660
  817TIP3    H124086   0.143   1.254   7.709  1.1607 -0.6695  0.5504
  817TIP3    H224087   0.131   1.108   7.669 -1.0650 -0.8473  1.7066
  818TIP3   OH224088   0.800   5.957   0.871  0.4401  0.1122 -0.1552
  818TIP3    H124089   0.873   5.940   0.931  1.4262 -2.5618 -1.9537
  818TIP3    H224090   0.729   5.986   0.929  2.6383  2.2061  1.7390
  819TIP3   OH224091   4.528   3.009   1.462 -0.6081 -0.4384 -0.0186
  819TIP3    H124092   4.469   2.959   1.406 -0.8353 -0.6392  0.3940
  819TIP3    H224093   4.613   3.007   1.417 -0.8404 -0.4097 -0.4600
  820TIP3   OH224094   5.352   0.201   8.711  0.1177 -0.6333  0.2055
  820TIP3    H124095   5.391   0.253   8.641 -0.5814  0.9469  0.9239
  820TIP3    H224096   5.395   0.116   8.705  2.2137  0.3889 -0.2663
  821TIP3   OH224097   6.076   0.146   7.564 -0.0951  0.5009 -0.4644
  821TIP3    H124098   6.098   0.053   7.559 -3.4843 -0.4233 -0.5904
  821TIP3    H224099   6.065   0.174   7.474  0.0748  0.7847 -0.3986
  822TIP3   OH224100   4.418   2.966   0.313 -0.4550  0.0942  0.7606
  822TIP3    H124101   4.366   2.890   0.337 -1.3834  0.2154 -0.7109
  822TIP3    H224102   4.504   2.931   0.292 -0.5759 -0.4120  1.1085
  823TIP3   OH224103   3.000   5.123   1.808 -0.3473  0.0758  0.2197
  823TIP3    H124104   2.911   5.091   1.791 -0.7351  0.7996  0.8640
  823TIP3    H224105   2.990   5.217   1.820  0.0067 -0.1983  3.4255
  824TIP3   OH224106   0.096   5.353   0.326 -0.3809 -0.4858  0.3243
  824TIP3    H124107   0.170   5.303   0.291 -1.5323 -1.7072 -0.4591
  824TIP3    H224108   0.069   5.409   0.253  0.1380  0.4142  0.8073
  825TIP3   OH224109   6.600   4.774   1.502  0.5230  0.4101 -0.1688
  825TIP3    H124110   6.671   4.836   1.483  0.4343 -0.0162 -2.0982
  825TIP3    H224111   6.536   4.826   1.551  2.2612  0.7157  1.9131
  826TIP3   OH224112   3.949   0.810   7.287 -0.0646 -0.6429 -0.2666
  826TIP3    H124113   3.968   0.900   7.317 -3.1860 -0.2480  0.9566
  826TIP3    H224114   3.993   0.803   7.203  0.6770  1.8892 -0.1863
  827TIP3   OH224115   3.780   3.791   8.434  0.2368 -0.3726 -0.2667
  827TIP3    H124116   3.799   3.884   8.443  1.4080 -0.6247  0.0524
  827TIP3    H224117   3.767   3.778   8.340 -1.3402  0.3441 -0.1819
  828TIP3   OH224118   4.412   5.338   1.230  0.2488 -0.1051 -1.1420
  828TIP3    H124119   4.368   5.294   1.158 -1.8162  1.8867 -1.1998
  828TIP3    H224120   4.342   5.361   1.291  1.8079 -0.7696  1.0163
  829TIP3   OH224121   5.745   2.662   8.703  0.0394 -0.1833 -0.0924
  829TIP3    H124122   5.812   2.730   8.706 -0.0485 -0.0987 -0.0410
  829TIP3    H224123   5.727   2.651   8.609 -1.1345  1.0426 -0.0527
  830TIP3   OH224124   2.218   2.125   8.010  0.0258  0.1568  0.6046
  830TIP3    H124125   2.258   2.168   8.085  1.9851 -0.8390  0.1808
  830TIP3    H224126   2.155   2.065   8.048  1.1475 -0.4862  1.4900
  831TIP3   OH224127   0.192   3.312   2.137 -0.4252 -0.1080 -0.2930
  831TIP3    H124128   0.250   3.380   2.172 -2.0019  1.1447  0.0376
  831TIP3    H224129   0.106   3.332   2.175 -1.3479 -1.1377 -1.7244
  832TIP3   OH224130   3.360   1.773   7.590  0.4145 -0.3231  0.2198
  832TIP3    H124131   3.295   1.704   7.578  2.3249 -2.2894  0.5487
  832TIP3    H224132   3.440   1.727   7.615  1.7925  2.0342  0.4783
  833TIP3   OH224133   2.748   3.185   0.376 -0.1175  0.0796 -0.1637
  833TIP3    H124134   2.768   3.092   0.388 -2.4501 -0.5281 -0.5832
  833TIP3    H224135   2.825   3.220   0.331  1.0559 -1.4950  0.5322
  834TIP3   OH224136   1.758   2.406   7.937 -0.6826 -0.1624 -0.8305
  834TIP3    H124137   1.845   2.369   7.952 -0.8445 -1.6847 -3.2045
  834TIP3    H224138   1.753   2.480   7.997  1.9822 -0.4311 -0.1664
  835TIP3   OH224139   2.493   2.364   8.497 -0.5885 -0.5540 -0.0521
  835TIP3    H124140   2.544   2.336   8.421  0.3398  0.1201  0.3043
  835TIP3    H224141   2.459   2.282   8.534 -1.7254 -0.8323 -1.6297
  836TIP3   OH224142   2.048   2.834   0.667  0.6540 -0.1578  0.0974
  836TIP3    H124143   2.013   2.909   0.619 -1.8115 -2.2436 -1.7053
  836TIP3    H224144   1.972   2.794   0.709  1.8530 -1.6846  0.9574
  837TIP3   OH224145   2.657   5.554   7.470 -0.0581  0.1640  0.2718
  837TIP3    H124146   2.721   5.622   7.454  1.7699 -1.5089  0.0904
  837TIP3    H224147   2.629   5.567   7.560  0.5786  0.8822  0.3726
  838TIP3   OH224148   0.551   1.437   1.114 -0.0567  0.2621  0.2045
  838TIP3    H124149   0.636   1.446   1.158 -0.2781 -0.3582  0.7786
  838TIP3    H224150   0.491   1.411   1.184 -1.2855  3.0663  0.3388
  839TIP3   OH224151   6.815   1.886   8.121  0.1408  0.1142 -0.0386
  839TIP3    H124152   6.890   1.866   8.065  0.4498 -0.5426  0.5877
  839TIP3    H224153   6.843   1.960   8.174 -0.1539  0.7395 -0.7447
  840TIP3   OH224154   3.407   5.387   2.327 -0.2524 -0.1290 -0.0172
  840TIP3    H124155   3.441   5.405   2.415 -0.2712  1.1179 -0.2363
  840TIP3    H224156   3.315   5.414   2.332 -0.3808 -0.5117 -0.2955
  841TIP3   OH224157   4.012   3.678   8.553 -0.4938  0.0529  0.1326
  841TIP3    H124158   3.924   3.706   8.530 -0.6840 -0.5272  0.1517
  841TIP3    H224159   4.051   3.649   8.470  0.2742  1.8679 -0.1956
  842TIP3   OH224160   2.363   4.756   7.257  0.8285  0.2464  0.1199
  842TIP3    H124161   2.447   4.716   7.279  1.4203  1.3343 -0.0941
  842TIP3    H224162   2.384   4.822   7.191  0.1578  2.0742  1.6336
  843TIP3   OH224163   4.835   2.485   8.646  0.0428  1.0871 -0.0287
  843TIP3    H124164   4.797   2.408   8.689  0.5992  0.8818  0.1109
  843TIP3    H224165   4.828   2.466   8.553  0.5235  0.6932  0.0123
  844TIP3   OH224166   3.959   0.749   7.657  0.6080  0.1555  0.3785
  844TIP3    H124167   3.932   0.658   7.669  0.7847  0.2901  2.0243
  844TIP3    H224168   4.038   0.758   7.711  0.7409  1.2094  0.0361
  845TIP3   OH224169   3.363   4.244   8.497  0.1410 -0.4555  0.3714
  845TIP3    H124170   3.392   4.170   8.550  1.4013 -1.2976 -1.3739
  845TIP3    H224171   3.304   4.206   8.432 -1.0152  0.4808  0.8178
  846TIP3   OH224172   1.553   5.295   1.681 -0.3507  0.0097  0.0988
  846TIP3    H124173   1.458   5.287   1.676 -0.2357 -4.3993  1.2912
  846TIP3    H224174   1.581   5.301   1.590 -1.6979 -1.7254 -0.4808
  847TIP3   OH224175   1.731   6.220   7.283 -0.0132  0.3495 -0.1322
  847TIP3    H124176   1.746   6.314   7.270 -1.9480  0.6448 -0.5698
  847TIP3    H224177   1.757   6.204   7.373  1.0020  1.1501 -0.2654
  848TIP3   OH224178   1.620   6.633   6.951  0.1917  0.2763 -0.3116
  848TIP3    H124179   1.547   6.605   6.896  1.0877  1.1681 -2.0819
  848TIP3    H224180   1.613   6.729   6.952  0.5015  0.2952  0.7178
  849TIP3   OH224181   6.722   1.803   8.386  0.2402  0.0529 -0.1014
  849TIP3    H124182   6.719   1.878   8.445 -0.4139  0.2919 -0.4295
  849TIP3    H224183   6.750   1.839   8.302 -1.9335  0.3166 -0.7867
  850TIP3   OH224184   2.804   0.673   2.272  0.1481  0.6160  0.1787
  850TIP3    H124185   2.890   0.632   2.280 -0.6000 -0.8469  1.1629
  850TIP3    H224186   2.787   0.711   2.358  0.3126  1.9697 -0.3708
  851TIP3   OH224187   4.092   3.053   1.420 -0.3077  0.3725  0.3839
  851TIP3    H124188   4.115   3.036   1.328 -0.3608 -2.0380  0.7440
  851TIP3    H224189   4.143   2.989   1.470 -1.4407  0.5954  1.8968
  852TIP3   OH224190   1.090   5.263   7.447 -0.1441  0.5866 -0.1596
  852TIP3    H124191   1.080   5.182   7.398  0.6158  1.8802 -2.6363
  852TIP3    H224192   1.092   5.332   7.380  0.9996  2.5050  1.7004
  853TIP3   OH224193   0.694   1.392   0.283 -0.0048  0.3836 -0.1080
  853TIP3    H124194   0.654   1.310   0.314 -1.8830  0.6152 -1.7143
  853TIP3    H224195   0.715   1.375   0.191  4.1856  0.1513  0.6889
  854TIP3   OH224196   3.279   5.762   8.276  0.3808 -0.5083  0.4110
  854TIP3    H124197   3.322   5.826   8.332 -0.9066  0.0707  0.7980
  854TIP3    H224198   3.326   5.766   8.193  0.1823  1.1526  0.3373
  855TIP3   OH224199   0.239   0.437   0.025 -0.7419  0.3850 -0.2050
  855TIP3    H124200   0.164   0.422  -0.034 -1.9726  3.2540  0.4426
  855TIP3    H224201   0.201   0.483   0.100  1.3507 -0.1468  1.2434
  856TIP3   OH224202   3.186   5.198   7.290  0.4941 -0.2035  0.0458
  856TIP3    H124203   3.228   5.278   7.322 -0.3387  0.6273 -0.8746
  856TIP3    H224204   3.113   5.229   7.237 -0.3950 -1.5922  0.4051
  857TIP3   OH224205   6.741   3.315   1.823 -0.1362 -0.0316 -0.4201
  857TIP3    H124206   6.679   3.383   1.849 -0.4277  0.2628 -1.8087
  857TIP3    H224207   6.825   3.360   1.815  0.8174 -0.7793  3.3787
  858TIP3   OH224208   0.576   6.527   1.441  0.0677  0.2843  0.0623
  858TIP3    H124209   0.613   6.456   1.388 -0.7192  0.5701 -0.9050
  858TIP3    H224210   0.652   6.576   1.471  0.5440  0.8645 -1.9015
  859TIP3   OH224211   6.698   0.132   0.402 -0.3394  0.3161 -0.5359
  859TIP3    H124212   6.775   0.116   0.347 -0.0884  0.5103 -0.2477
  859TIP3    H224213   6.637   0.179   0.345  0.2671  1.3029 -0.4069
  860TIP3   OH224214   1.204   4.390   1.949  0.7770 -0.4921  0.2956
  860TIP3    H124215   1.256   4.468   1.930 -0.8193  0.3718 -0.7992
  860TIP3    H224216   1.156   4.412   2.028 -0.8725  0.3225 -0.8813
  861TIP3   OH224217   3.105   2.735   8.872 -0.1226  0.5995  0.3027
  861TIP3    H124218   3.109   2.655   8.924  1.5314  0.7800  0.4949
  861TIP3    H224219   3.197   2.760   8.858 -0.5833  1.9249 -0.5854
  862TIP3   OH224220   2.723   2.222   6.967  0.0135  0.1790  0.8150
  862TIP3    H124221   2.684   2.272   7.039  1.8539  1.1305  1.2246
  862TIP3    H224222   2.762   2.146   7.009  1.4412  0.9382  0.9451
  863TIP3   OH224223   5.396   2.893   7.581 -0.3122  0.5313 -0.2493
  863TIP3    H124224   5.418   2.807   7.546  0.2397  0.4369  0.3020
  863TIP3    H224225   5.301   2.900   7.571 -0.3638 -0.1642 -0.2493
  864TIP3   OH224226   4.661   1.044   0.866  0.2478  0.4915  0.5285
  864TIP3    H124227   4.659   0.953   0.838 -0.8178  0.4311  0.7720
  864TIP3    H224228   4.681   1.040   0.959 -2.3783  0.3216  1.1578
  865TIP3   OH224229   3.667   4.054   7.276  0.0499  0.2353  0.1046
  865TIP3    H124230   3.627   4.125   7.227 -1.1447 -0.8318 -0.5256
  865TIP3    H224231   3.754   4.044   7.236  0.0690  1.0451 -0.0742
  866TIP3   OH224232   1.049   2.715   0.394  0.5274 -0.0980 -0.5658
  866TIP3    H124233   1.069   2.744   0.305  0.0635 -1.5355 -1.1710
  866TIP3    H224234   1.025   2.623   0.384 -2.0800  0.3629  0.6770
  867TIP3   OH224235   4.749   2.109   7.010  0.0192 -0.0622  0.5016
  867TIP3    H124236   4.703   2.079   6.932  0.9687  0.6336 -0.3401
  867TIP3    H224237   4.842   2.101   6.988  0.3216  2.3096  0.6647
  868TIP3   OH224238   0.455   5.135   7.160 -0.6502 -0.0706  0.2613
  868TIP3    H124239   0.403   5.103   7.087 -1.3252  1.0524  0.2245
  868TIP3    H224240   0.541   5.153   7.123 -0.9760  0.4496 -0.2530
  869TIP3   OH224241   3.959   1.999   0.932 -0.2702  0.1391  0.4392
  869TIP3    H124242   4.047   2.033   0.916 -0.7755  1.0939 -0.3658
  869TIP3    H224243   3.973   1.905   0.949  0.8311  0.1426 -0.3113
  870TIP3   OH224244   4.108   0.707   0.797  0.2476 -0.0487 -0.6094
  870TIP3    H124245   4.129   0.614   0.783  0.4160 -0.2360  0.7474
  870TIP3    H224246   4.106   0.717   0.892 -1.6011  0.9269 -0.7027
  871TIP3   OH224247   3.146   1.090   2.413  0.1563  0.3489  0.3572
  871TIP3    H124248   3.217   1.147   2.383  0.1888  0.1268  0.0126
  871TIP3    H224249   3.161   1.083   2.508  0.8108  0.0093  0.2371
  872TIP3   OH224250   4.926   0.077   1.043  0.3804 -0.0163  0.1315
  872TIP3    H124251   4.935   0.100   1.135  0.0479  0.8408 -0.0432
  872TIP3    H224252   4.931   0.160   0.996  2.1289 -0.5610 -0.7585
  873TIP3   OH224253   6.418   5.425   0.804  0.2439  0.9582 -0.5285
  873TIP3    H124254   6.485   5.396   0.741  1.4851  1.9037  0.3252
  873TIP3    H224255   6.381   5.344   0.838  2.9699  0.2970  1.0964
  874TIP3   OH224256   1.488   3.058   8.575 -0.5714  0.5090 -0.8265
  874TIP3    H124257   1.413   3.116   8.586 -0.7976  0.1772 -0.5771
  874TIP3    H224258   1.466   2.981   8.628 -0.4763  0.0112 -1.4928
  875TIP3   OH224259   2.732   5.687   1.262 -0.7832  0.1699  0.1533
  875TIP3    H124260   2.641   5.663   1.247 -0.8233 -0.5974  1.4136
  875TIP3    H224261   2.779   5.651   1.187 -1.5107  0.6152 -0.5326
  876TIP3   OH224262   4.481   6.645   1.340 -0.2635  0.5074 -0.7220
  876TIP3    H124263   4.499   6.591   1.264  2.0511  1.1114 -0.6801
  876TIP3    H224264   4.458   6.583   1.409  1.7069 -0.4216 -0.8431
  877TIP3   OH224265   0.892   5.947   1.579 -0.2724 -0.2768 -0.3335
  877TIP3    H124266   0.976   5.950   1.533 -0.1144 -0.8761 -0.0985
  877TIP3    H224267   0.872   5.853   1.585  0.1728 -0.2861  1.6357
  878TIP3   OH224268   5.092   2.917   1.594  0.3547  0.4893  0.1809
  878TIP3    H124269   5.015   2.971   1.614 -0.3152  0.1201 -1.2329
  878TIP3    H224270   5.095   2.852   1.664 -1.3938 -0.2758 -0.4151
  879TIP3   OH224271   0.756   3.140   7.851 -0.1729 -0.1184  0.5160
  879TIP3    H124272   0.730   3.063   7.800 -0.6677 -0.7525  1.6890
  879TIP3    H224273   0.805   3.104   7.926  3.1705  0.9378 -0.9628
  880TIP3   OH224274   2.139   4.647   7.626  0.2844 -0.1246  0.4167
  880TIP3    H124275   2.058   4.597   7.620  0.8905 -1.2365  1.1790
  880TIP3    H224276   2.111   4.738   7.620 -0.8116 -0.5309 -1.3536
  881TIP3   OH224277   3.275   3.411   1.061  0.4250 -0.1421 -0.1583
  881TIP3    H124278   3.371   3.404   1.059  0.4396  0.2027 -1.0075
  881TIP3    H224279   3.248   3.397   0.971 -0.2852  0.3019 -0.0216
  882TIP3   OH224280   6.012   4.913   8.624 -0.0287 -0.3272  0.1855
  882TIP3    H124281   6.073   4.868   8.683  0.4321  0.2826  0.1868
  882TIP3    H224282   6.034   5.005   8.634  0.7395 -0.2666 -1.6858
  883TIP3   OH224283   5.040   0.794   1.091  0.2147 -0.5676 -0.4434
  883TIP3    H124284   4.973   0.771   1.154 -0.9319 -0.4383 -1.5690
  883TIP3    H224285   5.032   0.889   1.079  0.2970 -0.6115 -0.8938
  884TIP3   OH224286   4.859   1.808   2.178  0.3842  0.2972  0.4559
  884TIP3    H124287   4.917   1.840   2.248  0.5628 -0.0115  0.4530
  884TIP3    H224288   4.855   1.713   2.193 -1.6218  0.5158  1.5858
  885TIP3   OH224289   2.390   2.165   0.180 -0.5290  0.3491 -0.0734
  885TIP3    H124290   2.466   2.164   0.239 -0.9807  0.8873  0.5379
  885TIP3    H224291   2.380   2.074   0.154 -0.3178  0.0873  0.7044
  886TIP3   OH224292   0.533   2.788   2.774  0.0544  0.1981 -0.2558
  886TIP3    H124293   0.479   2.725   2.822 -0.4495  0.4086 -0.5460
  886TIP3    H224294   0.601   2.813   2.837 -1.2584  1.3382  0.7691
  887TIP3   OH224295   3.491   2.719   1.224  0.5484 -0.4166  0.8374
  887TIP3    H124296   3.547   2.746   1.298 -1.4866  1.4018  1.8302
  887TIP3    H224297   3.442   2.644   1.257  1.6849 -1.4613  0.2593
  888TIP3   OH224298   0.023   4.005   2.536 -0.5449  0.4761  0.0090
  888TIP3    H124299   0.098   3.998   2.595  1.7429 -0.1154 -2.7361
  888TIP3    H224300  -0.053   4.012   2.594  1.6604  2.2251  2.9703
  889TIP3   OH224301   3.338   0.292   1.238 -0.1514  0.0295  0.2970
  889TIP3    H124302   3.387   0.373   1.249  0.4367 -0.1334 -0.9048
  889TIP3    H224303   3.306   0.271   1.325  0.4764  1.0597  0.7946
  890TIP3   OH224304   0.409   2.502   8.658  0.1048 -0.1349 -0.8040
  890TIP3    H124305   0.505   2.503   8.659  0.1808 -2.7159 -0.2078
  890TIP3    H224306   0.386   2.460   8.575 -0.4159 -1.7957  0.1496
  891TIP3   OH224307   0.355   0.970   1.394  0.2019  0.0055 -0.5364
  891TIP3    H124308   0.440   0.976   1.438 -1.1663  1.2843  2.1692
  891TIP3    H224309   0.353   1.045   1.335  0.5338  0.6337  0.2326
  892TIP3   OH224310   4.740   5.214   8.163  0.0547  0.1536  0.0744
  892TIP3    H124311   4.651   5.243   8.144 -0.0617  0.8388  1.5358
  892TIP3    H224312   4.744   5.212   8.259  1.4414 -0.4024  0.0167
  893TIP3   OH224313   4.809   3.814   8.768 -0.3199 -1.0411  0.3313
  893TIP3    H124314   4.826   3.901   8.731 -0.4577  0.5671  3.7094
  893TIP3    H224315   4.803   3.757   8.691  0.2689  1.7971 -2.0304
  894TIP3   OH224316   3.053   2.253   0.320  0.4713 -0.1403 -0.1022
  894TIP3    H124317   3.045   2.188   0.390  1.5219  0.1583  0.3092
  894TIP3    H224318   3.060   2.337   0.365 -0.5237  0.2352 -0.6242
  895TIP3   OH224319   6.817   4.574   7.742 -0.2109 -0.0491 -0.2331
  895TIP3    H124320   6.743   4.514   7.729 -0.1174  0.0393 -1.3245
  895TIP3    H224321   6.779   4.662   7.732 -0.0101  0.0027 -0.5920
  896TIP3   OH224322   5.723   4.998   2.568  0.2763  0.2441 -0.2519
  896TIP3    H124323   5.785   5.069   2.586  0.7770  0.0551 -1.1610
  896TIP3    H224324   5.638   5.042   2.557  0.4812  0.6414 -0.2628
  897TIP3   OH224325   6.783   0.301   8.108 -0.0398  0.0925 -0.2921
  897TIP3    H124326   6.729   0.356   8.164 -0.1624 -0.5247  0.2137
  897TIP3    H224327   6.767   0.333   8.019 -1.4214 -0.2346 -0.1762
  898TIP3   OH224328   4.545   3.182   1.686 -0.3871 -0.0721  0.3884
  898TIP3    H124329   4.565   3.111   1.748 -2.1705 -0.1513  0.9282
  898TIP3    H224330   4.509   3.138   1.609  0.7448  0.1064 -0.2584
  899TIP3   OH224331   2.342   1.105   0.615  0.2493  0.3277  0.3065
  899TIP3    H124332   2.314   1.187   0.656 -0.0667 -0.0963  0.9534
  899TIP3    H224333   2.273   1.084   0.552  0.2642  0.4852  0.2372
  900TIP3   OH224334   4.754   0.139   7.488 -0.3200  0.2231  0.0989
  900TIP3    H124335   4.773   0.113   7.578 -0.2717 -0.9889 -0.2362
  900TIP3    H224336   4.733   0.232   7.493  1.4705  0.6275  1.1092
  901TIP3   OH224337   2.051   4.477   0.899 -0.0500 -0.3027  0.1190
  901TIP3    H124338   2.024   4.410   0.962  1.7930 -1.1041  0.1102
  901TIP3    H224339   2.090   4.546   0.952  0.0814 -0.2519 -0.0431
  902TIP3   OH224340   0.236   5.284   8.105  0.7150  0.2389 -0.1084
  902TIP3    H124341   0.331   5.290   8.111  0.7536 -0.5479  0.2051
  902TIP3    H224342   0.207   5.274   8.196  0.4294 -0.6124 -0.2784
  903TIP3   OH224343   2.731   6.654   0.554 -0.3111 -0.1070 -0.7951
  903TIP3    H124344   2.777   6.642   0.637 -2.1425 -3.2143 -0.0514
  903TIP3    H224345   2.745   6.746   0.532  0.0877  0.9561  3.0843
  904TIP3   OH224346   2.427   4.994   1.974 -0.2322 -0.3210  0.1136
  904TIP3    H124347   2.344   4.950   1.958  0.8089 -1.8885 -1.3289
  904TIP3    H224348   2.468   4.944   2.045  1.0645 -1.9983 -1.6981
  905TIP3   OH224349   6.789   5.813   1.602  0.5818 -0.1031 -0.0415
  905TIP3    H124350   6.837   5.744   1.556 -1.7671 -0.7352 -1.7233
  905TIP3    H224351   6.697   5.797   1.580 -0.3352  1.7590  2.0409
  906TIP3   OH224352   6.161   0.319   0.203 -0.2701  0.0171 -0.0934
  906TIP3    H124353   6.142   0.373   0.126 -0.5138  0.9806  0.6260
  906TIP3    H224354   6.198   0.380   0.266  0.0948 -0.8009  0.4932
  907TIP3   OH224355   5.007   5.925   8.142  0.3448 -0.9210  0.2240
  907TIP3    H124356   4.976   5.842   8.105  1.5011 -1.0034 -0.6203
  907TIP3    H224357   5.037   5.902   8.230  0.4736 -1.3697  0.0699
  908TIP3   OH224358   3.868   0.470   0.811  0.2557 -0.0620 -0.0501
  908TIP3    H124359   3.867   0.457   0.906  0.0837 -1.6298 -0.2447
  908TIP3    H224360   3.960   0.457   0.787  0.2652  0.1441 -0.1257
  909TIP3   OH224361   2.566   3.205   0.699 -0.8640  0.2658 -0.3712
  909TIP3    H124362   2.553   3.144   0.772  1.7908  1.1780  0.9666
  909TIP3    H224363   2.510   3.170   0.629 -0.7388 -2.7342  0.8676
  910TIP3   OH224364   6.309   4.043   7.426 -0.5303 -0.0072 -0.8061
  910TIP3    H124365   6.297   3.950   7.443 -1.5675  0.4383  1.2488
  910TIP3    H224366   6.261   4.059   7.344 -1.2213 -1.0817 -0.6237
  911TIP3   OH224367   3.965   5.336   0.360 -0.2813  0.0996  0.3899
  911TIP3    H124368   3.994   5.245   0.356 -1.6805 -0.3663  0.2956
  911TIP3    H224369   3.964   5.356   0.454  2.6840  0.9678  0.3472
  912TIP3   OH224370   3.032   4.362   1.212 -0.4497  0.3015  0.5302
  912TIP3    H124371   3.042   4.420   1.288 -1.5329  3.4782 -1.5763
  912TIP3    H224372   3.114   4.371   1.164 -0.6094  0.0260  0.2057
  913TIP3   OH224373   2.858   3.242   0.714 -0.5197 -0.1478 -0.4963
  913TIP3    H124374   2.772   3.199   0.706 -0.5974 -0.1746  0.4042
  913TIP3    H224375   2.852   3.317   0.655 -1.1879 -0.1094 -0.3882
  914TIP3   OH224376   0.221   1.243   8.650  0.5002 -0.0835  0.0575
  914TIP3    H124377   0.170   1.194   8.714  0.6286 -0.2884  0.0041
  914TIP3    H224378   0.157   1.298   8.605 -0.6553 -3.6464 -3.2708
  915TIP3   OH224379   6.200   3.742   1.097 -0.1331  0.2720 -0.3856
  915TIP3    H124380   6.107   3.721   1.106 -0.2073  1.0143  0.7004
  915TIP3    H224381   6.201   3.821   1.042 -0.3576  1.8816  1.7985
  916TIP3   OH224382   5.047   2.961   0.944 -0.4582 -0.1927  0.2282
  916TIP3    H124383   5.042   2.881   0.891  0.3992  0.1963 -0.4834
  916TIP3    H224384   5.082   3.027   0.883  0.9237  0.1799  1.3776
  917TIP3   OH224385   1.290   6.791   8.035 -0.2310  0.3444  0.6029
  917TIP3    H124386   1.382   6.816   8.038  0.3490 -1.6418  3.3790
  917TIP3    H224387   1.243   6.864   8.077  0.1751  0.9203  0.0672
  918TIP3   OH224388   2.766   6.446   0.366  0.3156 -0.1940 -0.3815
  918TIP3    H124389   2.771   6.523   0.422 -1.0539 -1.7091  1.9779
  918TIP3    H224390   2.758   6.372   0.426 -1.3152 -1.9420 -2.5570
  919TIP3   OH224391   4.844   3.180   7.806 -0.2515  0.3322  0.0814
  919TIP3    H124392   4.853   3.252   7.869  0.8404 -0.6817  1.1504
  919TIP3    H224393   4.819   3.223   7.724 -0.1733  1.8692  0.8167
  920TIP3   OH224394   4.940   0.297   0.265 -0.2560  0.1756  0.2076
  920TIP3    H124395   4.954   0.383   0.303  1.3513 -0.2681  0.7117
  920TIP3    H224396   4.942   0.312   0.170  1.5156  0.5282  0.2673
  921TIP3   OH224397   3.375   0.715   7.950  0.5026 -0.0475  0.5989
  921TIP3    H124398   3.404   0.804   7.969  0.2241 -0.1940  1.7746
  921TIP3    H224399   3.417   0.694   7.866  0.9349  1.0130  0.5253
  922TIP3   OH224400   3.025   0.758   1.171  0.0121  0.0457 -0.1133
  922TIP3    H124401   3.070   0.821   1.115 -1.2637 -0.2877 -1.5487
  922TIP3    H224402   3.032   0.795   1.259 -0.6145  2.1579 -0.8999
  923TIP3   OH224403   4.238   5.220   2.226  0.2819  0.2740  0.6214
  923TIP3    H124404   4.317   5.269   2.205 -0.0458  0.6671  0.2946
  923TIP3    H224405   4.213   5.252   2.313 -0.5317  1.4939 -0.0317
  924TIP3   OH224406   2.361   6.748   7.491  0.2882  0.1021 -0.3133
  924TIP3    H124407   2.421   6.782   7.557  0.3088  0.6055 -0.5892
  924TIP3    H224408   2.291   6.813   7.487 -1.7910 -1.7843  2.0278
  925TIP3   OH224409   5.041   2.344   1.464  0.0990 -0.0308 -0.4178
  925TIP3    H124410   5.098   2.382   1.398  0.8925 -0.6517 -0.0947
  925TIP3    H224411   4.953   2.351   1.427  0.4426  0.4110 -1.1590
  926TIP3   OH224412   1.409   0.716   1.808  0.0615 -0.0758 -0.5238
  926TIP3    H124413   1.413   0.656   1.733 -1.3160  1.6684 -2.0666
  926TIP3    H224414   1.498   0.751   1.815  0.8579 -2.0572  0.3070
  927TIP3   OH224415   4.343   0.236   8.512  0.3981  0.1087  0.4535
  927TIP3    H124416   4.279   0.306   8.525 -0.0022  0.3832 -2.4087
  927TIP3    H224417   4.315   0.167   8.573 -2.7626  0.1651 -0.7339
  928TIP3   OH224418   4.680   4.716   8.333 -0.2367  0.3851 -0.4259
  928TIP3    H124419   4.719   4.722   8.420 -0.2500 -0.1623 -0.3795
  928TIP3    H224420   4.617   4.788   8.330  0.3256  0.8997 -0.2757
  929TIP3   OH224421   4.129   1.672   0.167 -0.3179 -0.3707  0.2656
  929TIP3    H124422   4.166   1.609   0.229  0.1481 -0.4178 -0.0574
  929TIP3    H224423   4.045   1.698   0.207 -0.3996 -1.0011  0.5209
  930TIP3   OH224424   1.364   0.829   0.968 -0.0116  0.4510 -1.0612
  930TIP3    H124425   1.349   0.864   0.880 -0.0900 -1.3272 -1.8124
  930TIP3    H224426   1.359   0.734   0.956 -1.5962  0.1736  1.1380
  931TIP3   OH224427   4.146   0.453   0.748 -0.1947 -0.0902 -0.2407
  931TIP3    H124428   4.217   0.442   0.685  0.0079  0.9642 -0.2148
  931TIP3    H224429   4.190   0.463   0.832 -0.4599 -1.3770  0.0602
  932TIP3   OH224430   0.697   1.325   8.737 -0.0582 -0.2615  0.3442
  932TIP3    H124431   0.612   1.307   8.778 -0.2316  1.2346  0.7236
  932TIP3    H224432   0.681   1.403   8.683  1.3275  0.8403  1.4193
  933TIP3   OH224433   1.921   5.145   0.464  0.3810  0.3113  0.0996
  933TIP3    H124434   1.866   5.070   0.485 -0.0164  0.1876 -1.3315
  933TIP3    H224435   1.922   5.149   0.369  2.3260  0.6958  0.0854
  934TIP3   OH224436   4.083   3.943   0.044 -0.1499 -0.7799 -0.1087
  934TIP3    H124437   4.104   3.892   0.122  3.8062  0.6329 -0.0480
  934TIP3    H224438   4.158   3.931  -0.014 -0.7309  2.0681 -1.6464
  935TIP3   OH224439   3.895   4.185   1.229  0.5283  0.8459  0.1049
  935TIP3    H124440   3.946   4.117   1.274  0.7432  1.2873  0.5391
  935TIP3    H224441   3.916   4.173   1.137 -0.1318 -0.2494  0.0879
  936TIP3   OH224442   4.112   4.804   0.088  0.1403  0.1130  0.0247
  936TIP3    H124443   4.152   4.764   0.011  0.0529 -1.2829  0.6765
  936TIP3    H224444   4.026   4.835   0.057  1.1117  1.9457 -1.0468
  937TIP3   OH224445   1.640   2.735   1.231  0.0752  0.5045  0.1410
  937TIP3    H124446   1.589   2.816   1.245  0.7746  0.9762 -0.0025
  937TIP3    H224447   1.701   2.757   1.161 -0.6176 -0.5704 -0.8353
  938TIP3   OH224448   3.639   6.061   7.857 -0.0191  0.4082 -0.0422
  938TIP3    H124449   3.640   6.134   7.918  0.5925  0.1578  0.2599
  938TIP3    H224450   3.645   6.101   7.770  0.5777  0.7122  0.1310
  939TIP3   OH224451   4.934   3.461   8.240  0.3085 -0.1765  0.2489
  939TIP3    H124452   4.937   3.554   8.262 -1.2151  0.1673 -0.8251
  939TIP3    H224453   4.950   3.416   8.323  1.7790  1.0185  0.6554
  940TIP3   OH224454   4.394   3.555   8.159 -0.3452  0.0705  0.0400
  940TIP3    H124455   4.409   3.468   8.122 -1.2683 -0.7940  1.6093
  940TIP3    H224456   4.330   3.595   8.100 -0.4010 -0.5650 -0.3472
  941TIP3   OH224457   2.809   4.656   1.992 -0.3862  0.7318 -0.4237
  941TIP3    H124458   2.744   4.696   1.934 -1.7587  1.0062  1.2186
  941TIP3    H224459   2.813   4.714   2.068  1.0888  0.2062 -0.0580
  942TIP3   OH224460   4.847   4.084   2.212  0.1437 -0.0674 -0.0347
  942TIP3    H124461   4.833   4.043   2.127 -0.4007  2.3936 -1.2082
  942TIP3    H224462   4.796   4.030   2.273 -0.7926 -0.9440 -1.5187
  943TIP3   OH224463   0.307   2.364   7.630 -0.5555  0.0596  0.6477
  943TIP3    H124464   0.220   2.368   7.671 -0.4977  0.2047  0.7573
  943TIP3    H224465   0.295   2.407   7.545 -0.4342  0.6965  0.9434
  944TIP3   OH224466   1.371   5.568   1.019 -0.2961  0.5281 -0.9953
  944TIP3    H124467   1.374   5.477   1.048  1.2776  0.2495 -1.8916
  944TIP3    H224468   1.285   5.578   0.978 -0.7478 -0.3496 -0.2894
  945TIP3   OH224469   6.060   4.289   8.823  0.4859 -0.0879 -0.1133
  945TIP3    H124470   6.071   4.197   8.799 -0.0242 -0.7081  1.8332
  945TIP3    H224471   6.080   4.292   8.916  0.1115  1.7092 -0.0556
  946TIP3   OH224472   0.374   3.490   0.520  0.4982 -0.4376 -0.0453
  946TIP3    H124473   0.413   3.415   0.475  2.9372  1.1799 -0.8381
  946TIP3    H224474   0.365   3.557   0.452  2.3884  1.3905  1.3937
  947TIP3   OH224475   1.090   2.602   0.020 -0.5564  0.6606 -0.1804
  947TIP3    H124476   1.072   2.509   0.031 -1.7312  0.7701 -1.0345
  947TIP3    H224477   1.102   2.634   0.110  2.0041 -0.6687  0.0491
  948TIP3   OH224478   3.449   4.667   6.957  0.0757 -0.1286  0.6091
  948TIP3    H124479   3.388   4.627   7.019  0.7449  0.3221  1.5925
  948TIP3    H224480   3.532   4.622   6.974  0.2151 -0.1611 -0.1370
  949TIP3   OH224481   3.324   2.787   2.264 -0.2235  0.2534  0.5151
  949TIP3    H124482   3.302   2.774   2.356 -2.0797  0.0494  0.0901
  949TIP3    H224483   3.246   2.758   2.217 -0.1411  2.3500 -1.0220
  950TIP3   OH224484   1.213   4.644   6.710  0.5632  0.1001 -0.2002
  950TIP3    H124485   1.176   4.555   6.711  0.2822  0.1729 -1.7072
  950TIP3    H224486   1.158   4.692   6.648  1.2161  1.1120 -0.0182
  951TIP3   OH224487   6.458   3.088   7.912  0.2602 -0.2063  0.0328
  951TIP3    H124488   6.447   3.034   7.834 -0.0223  0.6498 -0.5357
  951TIP3    H224489   6.531   3.047   7.959 -1.1424 -2.1921  0.5987
  952TIP3   OH224490   6.224   6.598   1.706 -0.1857 -0.2349  0.2708
  952TIP3    H124491   6.310   6.640   1.715  0.0312 -0.8220  1.0896
  952TIP3    H224492   6.242   6.505   1.721 -0.7196 -0.5819 -1.1180
  953TIP3   OH224493   5.697   0.975   2.263  0.4884  0.5107 -0.2045
  953TIP3    H124494   5.615   0.991   2.217 -0.7100 -0.9755  1.3169
  953TIP3    H224495   5.710   0.881   2.256  0.7041  0.3613  1.7528
  954TIP3   OH224496   3.924   1.464   8.590 -0.5123  0.3988  0.2094
  954TIP3    H124497   3.896   1.500   8.674 -1.1633 -1.7892  0.9858
  954TIP3    H224498   4.014   1.436   8.604  0.0967  1.8509 -0.4857
  955TIP3   OH224499   3.838   5.922   2.320 -1.0769 -0.1640 -0.3618
  955TIP3    H124500   3.906   5.855   2.315 -0.9724 -0.4154  2.7814
  955TIP3    H224501   3.788   5.900   2.398 -3.5514  1.1972 -1.4446
  956TIP3   OH224502   4.701   6.292   1.528 -0.0797  0.7215  0.3497
  956TIP3    H124503   4.634   6.356   1.501 -0.0143  0.8201  0.4193
  956TIP3    H224504   4.711   6.307   1.622 -0.2022  0.4769  0.4002
  957TIP3   OH224505   6.723   4.363   2.331 -0.1575  0.5128 -0.1738
  957TIP3    H124506   6.729   4.446   2.283 -0.0272 -0.5315 -2.0194
  957TIP3    H224507   6.774   4.301   2.280 -2.2889 -1.3409 -0.2127
  958TIP3   OH224508   5.334   5.526   0.621  0.0162 -0.4074 -0.0143
  958TIP3    H124509   5.293   5.577   0.691  0.2288 -0.9851  0.5475
  958TIP3    H224510   5.375   5.452   0.667  0.2047 -0.7654 -0.7479
  959TIP3   OH224511   3.759   6.636   8.685  0.3167 -0.0984 -0.2679
  959TIP3    H124512   3.680   6.584   8.697 -0.0415  0.6642  0.9197
  959TIP3    H224513   3.794   6.648   8.774  0.4611  1.5254 -0.5022
  960TIP3   OH224514   5.879   2.322   2.667  0.1913 -0.3792 -0.7025
  960TIP3    H124515   5.970   2.353   2.665  1.1382 -2.7213  1.6225
  960TIP3    H224516   5.840   2.369   2.740 -0.4817  0.4885 -1.5897
  961TIP3   OH224517   4.427   6.723   2.709 -0.1277 -0.2317  0.3794
  961TIP3    H124518   4.427   6.632   2.739  1.8818 -0.0891  0.9450
  961TIP3    H224519   4.347   6.760   2.744  0.2023 -1.1515  2.1965
  962TIP3   OH224520   0.110   4.840   0.558  0.2692 -0.0832 -0.0104
  962TIP3    H124521   0.118   4.762   0.503  1.1147 -0.1407  0.1855
  962TIP3    H224522   0.122   4.808   0.647  1.1316  0.3410  0.0313
  963TIP3   OH224523   5.817   0.844   0.041  0.0387 -0.9606  0.0994
  963TIP3    H124524   5.826   0.938   0.027 -0.3564 -1.1066 -1.2329
  963TIP3    H224525   5.908   0.813   0.050  0.1218 -0.1837  2.7738
  964TIP3   OH224526   1.759   4.316   6.933 -0.2496  0.2237 -0.1274
  964TIP3    H124527   1.827   4.254   6.959  0.2031  0.0257 -1.6979
  964TIP3    H224528   1.780   4.396   6.980 -0.0248 -0.3862  0.8338
  965TIP3   OH224529   1.830   2.015   7.082  0.3028  0.2442  0.0300
  965TIP3    H124530   1.872   1.996   6.998  0.1994  1.5590 -0.3436
  965TIP3    H224531   1.782   2.097   7.067  1.3706  1.2490  1.7402
  966TIP3   OH224532   3.238   1.046   2.659 -0.0245  0.1248  0.1742
  966TIP3    H124533   3.186   1.040   2.740 -0.0530 -0.5483  0.1124
  966TIP3    H224534   3.329   1.041   2.689 -0.0493 -0.9527  0.1122
  967TIP3   OH224535   4.391   1.695   2.404 -0.2534  0.1447  0.2639
  967TIP3    H124536   4.407   1.773   2.351 -0.6585 -0.2039 -0.3805
  967TIP3    H224537   4.478   1.654   2.412  0.1139  1.0727  1.2951
  968TIP3   OH224538   2.636   4.911   7.298 -0.3403  0.0338  0.2790
  968TIP3    H124539   2.560   4.950   7.341 -1.8252 -0.3487 -1.8456
  968TIP3    H224540   2.636   4.820   7.326 -1.1987 -0.1738 -0.3738
  969TIP3   OH224541   6.725   6.289   1.232  0.1741  0.1585 -0.3511
  969TIP3    H124542   6.682   6.356   1.178 -0.9203 -0.6726 -0.5463
  969TIP3    H224543   6.679   6.208   1.210 -0.4936 -0.1666  2.0347
  970TIP3   OH224544   0.161   3.312   1.208  0.3084 -0.1123  0.7649
  970TIP3    H124545   0.082   3.277   1.167  0.6741 -0.4246  0.3151
  970TIP3    H224546   0.227   3.310   1.138  0.5390  0.7569  0.9472
  971TIP3   OH224547   5.021   6.363   0.629  0.3618  0.1640  0.1853
  971TIP3    H124548   5.074   6.283   0.629 -0.8347 -0.7016  1.6594
  971TIP3    H224549   4.948   6.343   0.688 -2.4284  0.7493 -2.7402
  972TIP3   OH224550   5.476   4.724   8.081 -0.0187 -0.0002  0.4811
  972TIP3    H124551   5.527   4.805   8.075  0.7026 -0.4443  0.5545
  972TIP3    H224552   5.525   4.661   8.029  0.7058 -1.0412  2.3375
  973TIP3   OH224553   3.883   2.486   1.635  0.6282 -0.1032 -0.0875
  973TIP3    H124554   3.852   2.401   1.668 -0.5560  0.4281  0.2168
  973TIP3    H224555   3.977   2.486   1.653  1.1386 -2.3015 -2.1310
  974TIP3   OH224556   0.454   3.304   2.365 -0.1921  0.9000  0.0522
  974TIP3    H124557   0.486   3.350   2.443  0.4073  2.4386 -1.0626
  974TIP3    H224558   0.529   3.254   2.334 -0.4186  0.3224  0.4127
  975TIP3   OH224559   2.133   6.648   1.315  0.0599  0.3466 -0.1920
  975TIP3    H124560   2.133   6.620   1.223  0.6083  1.1119 -0.4299
  975TIP3    H224561   2.204   6.599   1.356 -0.8459 -0.7771  0.0797
  976TIP3   OH224562   6.588   2.625   8.030 -0.2148  0.4937 -0.6868
  976TIP3    H124563   6.589   2.668   8.115 -0.9817  0.3093 -0.5814
  976TIP3    H224564   6.517   2.668   7.982  2.0223  2.6481 -2.3168
  977TIP3   OH224565   1.699   2.899   7.464  0.2729  0.3471 -0.2243
  977TIP3    H124566   1.666   2.946   7.540 -2.2650  0.0459 -1.0596
  977TIP3    H224567   1.621   2.871   7.417  1.7430 -1.4527 -1.7544
  978TIP3   OH224568   3.011   5.211   2.100 -0.3778 -0.0538 -0.3960
  978TIP3    H124569   2.941   5.205   2.164  0.6416  0.5723  0.8138
  978TIP3    H224570   3.027   5.305   2.090  0.4016 -0.1884 -0.5303
  979TIP3   OH224571   3.279   5.093   2.034 -1.0404 -0.0465 -0.4091
  979TIP3    H124572   3.221   5.168   2.051 -1.1511  0.6869 -3.4889
  979TIP3    H224573   3.360   5.115   2.080 -1.4004  1.4992 -0.4353
  980TIP3   OH224574   6.733   1.227   6.986  0.6271 -0.1073 -0.2488
  980TIP3    H124575   6.648   1.216   6.943 -0.1456 -2.1752  1.5833
  980TIP3    H224576   6.729   1.315   7.024 -0.7941 -0.2142 -0.0764
  981TIP3   OH224577   2.579   6.656   7.378 -0.1284  0.5195 -0.7803
  981TIP3    H124578   2.636   6.714   7.428 -0.5437  0.6019 -0.3955
  981TIP3    H224579   2.491   6.671   7.414 -0.4944  0.8481 -1.7893
  982TIP3   OH224580   6.055   0.975   0.970  0.5359  0.1730 -0.6384
  982TIP3    H124581   6.045   0.906   1.036 -0.9801  2.7677  2.0558
  982TIP3    H224582   6.148   0.997   0.971  0.7551 -0.7292 -0.4059
  983TIP3   OH224583   3.914   6.001   1.715 -0.0722 -0.0886 -0.3066
  983TIP3    H124584   3.851   5.994   1.643  0.4833 -0.0429 -0.7971
  983TIP3    H224585   3.915   5.913   1.753 -0.8339  0.0475  0.0512
  984TIP3   OH224586   0.200   6.724   1.421 -0.3928  0.1235 -0.0012
  984TIP3    H124587   0.230   6.760   1.338 -1.8433  1.0763 -0.1506
  984TIP3    H224588   0.208   6.629   1.410  0.1962  0.2664 -0.9236
  985TIP3   OH224589   4.632   5.547   0.450 -0.2330  0.1067  0.2433
  985TIP3    H124590   4.593   5.540   0.363 -0.1339 -1.6905  0.3021
  985TIP3    H224591   4.725   5.561   0.433 -0.5373  2.4060  0.1078
  986TIP3   OH224592   2.750   0.831   0.143 -0.2068  0.0703  0.1370
  986TIP3    H124593   2.794   0.787   0.070 -0.3771  0.6317 -0.3054
  986TIP3    H224594   2.674   0.776   0.161  1.7505 -2.1769  2.3709
  987TIP3   OH224595   1.622   0.074   2.440 -0.1982 -1.3119 -0.0543
  987TIP3    H124596   1.648   0.050   2.351 -0.0060 -0.3790 -0.2612
  987TIP3    H224597   1.599  -0.010   2.482 -0.8528 -1.7069 -1.1523
  988TIP3   OH224598   5.540   3.870   2.480  0.1832 -0.3156 -0.3346
  988TIP3    H124599   5.583   3.835   2.557 -0.8237  0.7607  0.7535
  988TIP3    H224600   5.559   3.806   2.411  2.4570 -0.4766  0.3589
  989TIP3   OH224601   4.158   1.077   7.992  0.0681  0.2410  0.0663
  989TIP3    H124602   4.083   1.069   7.933 -0.0226  1.0854  0.0590
  989TIP3    H224603   4.235   1.070   7.936  0.0043 -0.8060  0.0959
  990TIP3   OH224604   0.954   1.976   2.933  0.3157  0.0034  0.4281
  990TIP3    H124605   1.017   2.043   2.908  0.3603 -1.2108 -3.3432
  990TIP3    H224606   1.006   1.897   2.945 -0.0208  0.0209  2.4522
  991TIP3   OH224607   4.290   2.540   1.004 -0.2555  0.4110  0.1216
  991TIP3    H124608   4.242   2.464   1.038 -0.3378 -0.2346 -1.3682
  991TIP3    H224609   4.300   2.523   0.911  1.7423  1.1658  0.1508
  992TIP3   OH224610   0.734   4.876   0.170 -1.2802  0.4712 -0.1783
  992TIP3    H124611   0.789   4.798   0.170 -1.4971  0.2512  2.2038
  992TIP3    H224612   0.790   4.945   0.133 -1.0178 -0.6999 -2.1112
  993TIP3   OH224613   2.294   3.932   7.109  0.0684  0.1607  0.1337
  993TIP3    H124614   2.240   3.958   7.035  0.4278  1.9794  0.4737
  993TIP3    H224615   2.348   3.860   7.075 -0.2377  0.5273 -1.1699
  994TIP3   OH224616   4.103   1.368   7.952  0.1094  0.8216  0.5083
  994TIP3    H124617   4.060   1.297   7.904  0.2806  0.6864  0.5521
  994TIP3    H224618   4.049   1.445   7.935 -0.1108  0.6687  0.5047
  995TIP3   OH224619   3.232   2.652   1.039  0.3208 -0.2725  0.8206
  995TIP3    H124620   3.222   2.743   1.012 -3.1064 -0.7422  0.0739
  995TIP3    H224621   3.227   2.655   1.135  3.1058  0.5023  1.0233
  996TIP3   OH224622   3.947   5.692   8.781 -0.3065  0.7015 -0.2889
  996TIP3    H124623   3.961   5.597   8.780  2.0196  0.9775  0.4808
  996TIP3    H224624   3.941   5.717   8.689 -0.1838 -0.1023 -0.5217
  997TIP3   OH224625   0.830   6.296   0.564  0.0077  0.3901  0.2525
  997TIP3    H124626   0.766   6.345   0.616 -1.1247 -0.3364 -0.4159
  997TIP3    H224627   0.914   6.315   0.605 -0.7895  0.2274  2.0425
  998TIP3   OH224628   3.812   4.341   8.447  0.3381 -0.0545  0.2660
  998TIP3    H124629   3.835   4.433   8.433 -1.1915  0.1586 -1.1934
  998TIP3    H224630   3.720   4.343   8.474  0.3957 -1.1304  0.5920
  999TIP3   OH224631   5.789   1.263   7.655 -0.0832 -0.4642 -0.2515
  999TIP3    H124632   5.732   1.340   7.649 -0.6283 -0.8875 -0.7593
  999TIP3    H224633   5.865   1.292   7.705 -0.0002  0.5703 -0.9439
 1000TIP3   OH224634   3.381   6.335   0.816 -0.1125  0.4747 -0.2608
 1000TIP3    H124635   3.467   6.294   0.826  0.3910  1.5895  0.1727
 1000TIP3    H224636   3.325   6.266   0.781  1.0243 -0.2027 -0.7972
 1001TIP3   OH224637   3.044   1.422   0.131 -0.0118  0.1850  0.3052
 1001TIP3    H124638   2.974   1.359   0.118  0.5349 -0.0313 -2.0215
 1001TIP3    H224639   3.122   1.378   0.099  0.6770  1.4362  0.1959
 1002TIP3   OH224640   5.277   3.946   7.788  0.3658 -0.9811 -0.6583
 1002TIP3    H124641   5.194   3.900   7.800  0.5242 -0.8765  1.1868
 1002TIP3    H224642   5.334   3.883   7.744 -0.1603 -1.7100 -0.3093
 1003TIP3   OH224643   6.127   4.590   2.039 -0.4528  0.6745  0.6594
 1003TIP3    H124644   6.068   4.525   2.078  0.0051 -0.5469 -0.5996
 1003TIP3    H224645   6.081   4.619   1.960  0.3043  0.2285  0.0411
 1004TIP3   OH224646   3.567   0.551   7.746  0.7698  0.5627 -0.6287
 1004TIP3    H124647   3.503   0.592   7.688  0.7757 -0.3550 -1.2869
 1004TIP3    H224648   3.564   0.458   7.725  0.3945  0.1080  1.1892
 1005TIP3   OH224649   0.060   6.557   7.770  0.1794  0.2182 -0.3088
 1005TIP3    H124650   0.145   6.513   7.766  0.1760  0.2679 -1.5583
 1005TIP3    H224651   0.007   6.513   7.703 -0.8560  0.0618  0.5798
 1006TIP3   OH224652   2.234   0.251   0.279  0.5831  0.6331 -0.7489
 1006TIP3    H124653   2.179   0.278   0.205  0.8674 -1.2093 -1.6862
 1006TIP3    H224654   2.311   0.212   0.239  1.4135  0.8768  0.5481
 1007TIP3   OH224655   0.199   3.382   7.438  0.1153 -0.2829  0.9585
 1007TIP3    H124656   0.245   3.418   7.363  0.2889  0.1922  1.2884
 1007TIP3    H224657   0.188   3.289   7.417  1.6089 -0.5050  1.0688
 1008TIP3   OH224658   1.461   2.748   2.006  0.7341  0.5635 -0.6967
 1008TIP3    H124659   1.484   2.773   1.916 -1.4303 -0.9792 -1.7683
 1008TIP3    H224660   1.410   2.822   2.039  0.2948  0.5352 -1.2957
 1009TIP3   OH224661   3.671   5.881   1.609  0.2442 -0.5810  0.0189
 1009TIP3    H124662   3.666   5.786   1.620 -0.5025 -0.8810 -2.3435
 1009TIP3    H224663   3.580   5.909   1.600  0.4767  0.3331  0.3711
 1010TIP3   OH224664   2.575   4.496   2.161 -0.2950  0.6539 -0.1600
 1010TIP3    H124665   2.600   4.404   2.170 -1.0438  0.3837 -0.6458
 1010TIP3    H224666   2.657   4.544   2.161  0.1187 -0.0402 -0.1069
 1011TIP3   OH224667   6.680   5.253   2.228 -0.1445 -0.1336  0.1615
 1011TIP3    H124668   6.666   5.336   2.273  0.5224  0.2364 -0.3106
 1011TIP3    H224669   6.604   5.199   2.254 -2.5372  1.7821 -2.3189
 1012TIP3   OH224670   4.393   6.497   0.767 -0.0476  0.0958  0.5884
 1012TIP3    H124671   4.322   6.546   0.725 -0.4116  0.5874  1.7258
 1012TIP3    H224672   4.353   6.413   0.791 -0.1150  0.1877  0.8018
 1013TIP3   OH224673   1.252   4.500   0.487 -0.7108 -0.4651 -0.0856
 1013TIP3    H124674   1.229   4.417   0.447  0.4669 -1.0279  0.3500
 1013TIP3    H224675   1.342   4.516   0.459 -1.0555  0.8694 -0.4864
 1014TIP3   OH224676   4.898   5.885   7.405 -0.1632  0.4529 -0.5886
 1014TIP3    H124677   4.819   5.831   7.408  0.3215 -0.2185  0.7494
 1014TIP3    H224678   4.902   5.927   7.491  2.8810 -2.4579  0.9428
 1015TIP3   OH224679   4.953   2.288   0.347 -0.3676  0.1074  0.2952
 1015TIP3    H124680   4.912   2.245   0.272  0.2579  1.2018 -0.7138
 1015TIP3    H224681   5.045   2.295   0.323 -0.2648  0.9703  0.9191
 1016TIP3   OH224682   3.537   4.287   8.165  0.1236 -0.4204  0.4816
 1016TIP3    H124683   3.501   4.349   8.229 -1.9258 -2.4607  1.4696
 1016TIP3    H224684   3.521   4.201   8.204  0.4852 -1.6863 -1.9759
 1017TIP3   OH224685   4.217   2.893   1.584  0.3284 -1.1668  0.6171
 1017TIP3    H124686   4.251   2.940   1.661  0.1827 -1.6828  1.0044
 1017TIP3    H224687   4.128   2.867   1.609 -0.2751 -0.0473 -0.2955
 1018TIP3   OH224688   2.085   3.801   7.996  0.0723 -0.1294 -0.0717
 1018TIP3    H124689   2.028   3.843   7.931  0.3205 -0.1861 -0.3273
 1018TIP3    H224690   2.029   3.734   8.037 -0.4225  0.6503  0.5645
 1019TIP3   OH224691   6.034   1.664   7.129  0.3513  0.1468 -0.0717
 1019TIP3    H124692   6.112   1.717   7.114 -0.7640  1.6477 -1.0245
 1019TIP3    H224693   6.049   1.621   7.213  1.7023  1.3229  0.3381
 1020TIP3   OH224694   1.745   6.708   1.345 -0.1104  0.4130  0.5711
 1020TIP3    H124695   1.818   6.650   1.326  0.3202  1.1892 -0.2184
 1020TIP3    H224696   1.770   6.751   1.427 -1.3844 -1.9932  2.3426
 1021TIP3   OH224697   5.291   3.775   1.620  0.4310  0.5919 -0.0670
 1021TIP3    H124698   5.301   3.680   1.619 -0.7385  0.4039  1.6642
 1021TIP3    H224699   5.247   3.795   1.537 -2.1977 -0.8208  0.8468
 1022TIP3   OH224700   4.527   4.421   7.735 -0.0517 -0.1029  0.0190
 1022TIP3    H124701   4.601   4.360   7.731 -1.4620 -1.8939 -0.1895
 1022TIP3    H224702   4.512   4.446   7.644  1.6033  2.0132  0.2560
 1023TIP3   OH224703   5.958   4.322   2.593 -0.5367 -0.0478 -0.4336
 1023TIP3    H124704   6.053   4.310   2.592 -0.4006  0.9111  0.1297
 1023TIP3    H224705   5.944   4.408   2.556 -0.9953  0.7911  1.5318
 1024TIP3   OH224706   4.266   2.341   2.159 -0.4769  0.0947 -0.1683
 1024TIP3    H124707   4.251   2.421   2.208  2.1006  0.5932 -0.0582
 1024TIP3    H224708   4.250   2.271   2.223  0.2423  0.6427  0.6355
 1025TIP3   OH224709   1.093   3.367   7.939  0.1752 -0.3522  0.0109
 1025TIP3    H124710   1.185   3.376   7.963 -0.1317  0.0398  1.0849
 1025TIP3    H224711   1.076   3.273   7.949  0.3304 -0.3517  0.3122
 1026TIP3   OH224712   0.201   2.911   1.030  0.0933 -0.2498 -0.7680
 1026TIP3    H124713   0.218   2.817   1.034 -0.2263 -0.2739  0.7471
 1026TIP3    H224714   0.282   2.949   0.999  0.3627 -0.9933 -1.0002
 1027TIP3   OH224715   2.983   4.782   1.768  0.1039 -0.1718  0.1170
 1027TIP3    H124716   3.060   4.834   1.747 -0.2235  1.2044  2.0565
 1027TIP3    H224717   2.981   4.780   1.864 -1.0574 -2.0434  0.0965
 1028TIP3   OH224718   3.846   4.403   2.353 -0.1020 -0.7173 -0.5137
 1028TIP3    H124719   3.861   4.317   2.392 -2.6866 -1.1957 -0.4426
 1028TIP3    H224720   3.777   4.389   2.289 -1.1951  1.4334  0.0983
 1029TIP3   OH224721   1.296   5.519   8.176 -0.5265  0.1809  1.1193
 1029TIP3    H124722   1.340   5.546   8.095  1.8068 -1.2398  1.8185
 1029TIP3    H224723   1.290   5.599   8.228  0.6852  0.5464  0.7271
 1030TIP3   OH224724   5.653   2.356   1.486  0.0432  0.2899  0.1106
 1030TIP3    H124725   5.562   2.331   1.473 -0.1798  0.8980  0.4890
 1030TIP3    H224726   5.653   2.409   1.566  0.6039  0.9138 -0.2888
 1031TIP3   OH224727   4.590   3.012   1.903 -0.0214  0.4683  0.0388
 1031TIP3    H124728   4.615   2.920   1.900  1.3538  0.8516 -1.4820
 1031TIP3    H224729   4.609   3.039   1.993 -1.8845 -1.0443  0.9827
 1032TIP3   OH224730   5.425   3.387   1.327 -0.3499 -0.0712  0.2718
 1032TIP3    H124731   5.446   3.468   1.279  0.1438 -0.1008  0.4379
 1032TIP3    H224732   5.397   3.418   1.414 -0.5848 -0.0579  0.1936
 1033TIP3   OH224733   1.561   0.072   6.872  0.3843  0.1394  0.1260
 1033TIP3    H124734   1.537   0.141   6.934 -1.1750  0.1413 -0.4391
 1033TIP3    H224735   1.647   0.099   6.838 -0.5030  2.1849 -0.6071
 1034TIP3   OH224736   5.629   0.658   0.260 -0.1978 -0.1586  0.5145
 1034TIP3    H124737   5.667   0.713   0.192 -0.4844  1.4821  1.6239
 1034TIP3    H224738   5.586   0.586   0.213 -0.7780  1.1785 -1.0572
 1035TIP3   OH224739   2.753   3.648   1.559  0.0537  0.1165  0.0312
 1035TIP3    H124740   2.734   3.637   1.652  0.1198 -1.4615 -0.1289
 1035TIP3    H224741   2.805   3.729   1.555 -1.6803  1.3703  1.1043
 1036TIP3   OH224742   6.730   5.006   0.053  0.8856 -0.2661  0.1703
 1036TIP3    H124743   6.652   5.008   0.108  1.2778  1.1884  0.7162
 1036TIP3    H224744   6.782   4.934   0.088 -0.2895 -1.4300 -0.3650
 1037TIP3   OH224745   0.336   6.299   2.535  0.6582  0.8250  0.6371
 1037TIP3    H124746   0.340   6.348   2.453  1.4675  0.5371  0.4927
 1037TIP3    H224747   0.367   6.360   2.602 -1.2119  1.4822  0.9592
 1038TIP3   OH224748   1.444   5.505   8.506 -0.3262 -0.8186  0.2041
 1038TIP3    H124749   1.464   5.422   8.462  0.8822  0.8330 -2.5717
 1038TIP3    H224750   1.529   5.537   8.537 -0.7675 -0.5064  1.1504
 1039TIP3   OH224751   0.659   1.442   2.342  0.0959 -0.0900 -0.4989
 1039TIP3    H124752   0.673   1.475   2.431 -2.4316 -1.4801  0.5150
 1039TIP3    H224753   0.743   1.401   2.318  0.7975  0.2428  1.2583
 1040TIP3   OH224754   5.667   1.673   8.480 -0.6941  0.3178 -0.2115
 1040TIP3    H124755   5.687   1.668   8.573  0.4149 -2.3037 -0.5028
 1040TIP3    H224756   5.622   1.591   8.460  0.8762 -0.1255 -2.3396
 1041TIP3   OH224757   1.925   3.566   1.092 -0.4572 -0.0937  0.1220
 1041TIP3    H124758   1.983   3.501   1.133 -1.3299 -1.0428 -0.1079
 1041TIP3    H224759   1.854   3.578   1.154 -1.2245 -0.7195 -0.6047
 1042TIP3   OH224760   6.277   2.377   8.022 -0.1134  0.1999 -0.6454
 1042TIP3    H124761   6.252   2.378   8.114 -0.9869  0.1303 -0.8704
 1042TIP3    H224762   6.225   2.448   7.983 -0.5173 -0.4198 -1.2665
 1043TIP3   OH224763   2.326   1.178   1.435  0.1676  0.5625  0.0655
 1043TIP3    H124764   2.336   1.195   1.529 -0.0446 -0.7087  0.3420
 1043TIP3    H224765   2.366   1.254   1.393 -0.6884  1.6870  1.1749
 1044TIP3   OH224766   4.638   6.471   7.249  0.0528  0.4403 -0.3573
 1044TIP3    H124767   4.558   6.518   7.275  1.1028  2.3474 -0.4409
 1044TIP3    H224768   4.626   6.453   7.156 -0.6421 -0.0716 -0.1789
 1045TIP3   OH224769   3.812   5.102   0.991 -0.3142 -0.1587 -0.1284
 1045TIP3    H124770   3.836   5.036   0.925 -2.3971 -0.9626 -0.1528
 1045TIP3    H224771   3.801   5.183   0.941  0.4801 -0.1938 -0.3766
 1046TIP3   OH224772   4.474   1.825   7.292  0.3074  0.0303 -0.3981
 1046TIP3    H124773   4.453   1.902   7.240 -0.6151 -1.2050 -1.9439
 1046TIP3    H224774   4.525   1.770   7.233  1.4433 -0.3353  0.8624
 1047TIP3   OH224775   1.881   5.228   1.124 -0.1936  1.3738 -0.4183
 1047TIP3    H124776   1.835   5.144   1.120 -1.0903  1.7190  1.2827
 1047TIP3    H224777   1.924   5.237   1.039  0.8043 -1.2862 -0.3074
 1048TIP3   OH224778   2.288   2.823   8.084  0.5332  0.3896 -0.1967
 1048TIP3    H124779   2.364   2.879   8.070  0.8133 -0.2590 -1.4805
 1048TIP3    H224780   2.236   2.832   8.004  1.2378 -2.1063 -1.0498
 1049TIP3   OH224781   5.246   0.326   0.757 -0.3732  0.1543  0.5716
 1049TIP3    H124782   5.179   0.349   0.822  0.4007 -2.9367  2.7050
 1049TIP3    H224783   5.322   0.379   0.781 -0.5319  0.0437  1.3634
 1050TIP3   OH224784   6.626   2.975   8.457  0.2380  0.2697  0.1466
 1050TIP3    H124785   6.563   2.986   8.528 -1.1896 -0.1738 -1.0050
 1050TIP3    H224786   6.707   3.016   8.490 -0.7008  1.0744  1.5605
 1051TIP3   OH224787   2.769   6.534   2.022  0.0210 -0.3055  0.1927
 1051TIP3    H124788   2.722   6.487   2.091  0.1571  1.1162  1.3147
 1051TIP3    H224789   2.700   6.563   1.963 -0.0762 -1.7470 -0.4386
 1052TIP3   OH224790   3.925   6.198   7.780  0.8979  0.6488  0.3998
 1052TIP3    H124791   3.916   6.207   7.875 -1.2709  1.5268  0.1658
 1052TIP3    H224792   3.847   6.239   7.745  2.3265  1.6100 -1.8626
 1053TIP3   OH224793   3.584   1.426   7.965  0.1378  0.1880 -0.0965
 1053TIP3    H124794   3.671   1.390   7.947 -0.5539 -0.2204 -3.1169
 1053TIP3    H224795   3.527   1.349   7.973 -0.2743  0.4946 -0.0323
 1054TIP3   OH224796   6.658   5.457   6.990 -0.9431 -0.3711  0.2919
 1054TIP3    H124797   6.677   5.519   7.060 -0.7864  0.8803 -0.8104
 1054TIP3    H224798   6.724   5.475   6.923 -3.1122  0.9070 -1.6476
 1055TIP3   OH224799   3.519   5.480   2.721  0.7127 -0.3917 -0.6932
 1055TIP3    H124800   3.605   5.514   2.694 -0.3753  1.5847 -1.9362
 1055TIP3    H224801   3.457   5.522   2.661 -1.3790  0.1564  1.6922
 1056TIP3   OH224802   3.449   2.208   2.396 -0.0011  0.4301  0.5704
 1056TIP3    H124803   3.484   2.278   2.452  0.2532  0.1989  0.7033
 1056TIP3    H224804   3.382   2.251   2.344  0.9074  1.0379 -0.1421
 1057TIP3   OH224805   5.733   0.245   1.064  0.2385  0.3518  0.7834
 1057TIP3    H124806   5.649   0.237   1.018  0.6941  0.6786 -0.1331
 1057TIP3    H224807   5.742   0.164   1.113 -0.1706 -0.0991  0.1257
 1058TIP3   OH224808   1.720   3.385   0.932  0.3436 -0.0009 -0.0912
 1058TIP3    H124809   1.674   3.442   0.993  0.3797  0.4868 -0.5187
 1058TIP3    H224810   1.680   3.299   0.945 -1.4267  0.6021 -1.1663
 1059TIP3   OH224811   5.046   6.798   7.737  0.2699  0.1358 -0.4282
 1059TIP3    H124812   5.087   6.866   7.790  0.7816 -0.0832 -0.5379
 1059TIP3    H224813   4.952   6.815   7.744  0.3711  0.5376 -0.0341
 1060TIP3   OH224814   0.948   1.194   8.653 -0.4469  0.3691  0.3860
 1060TIP3    H124815   0.869   1.247   8.659 -1.0620 -0.5464  0.4770
 1060TIP3    H224816   1.016   1.256   8.625 -1.0980  1.2442  0.7092
 1061TIP3   OH224817   2.329   3.127   1.439 -0.3230 -0.2364 -0.7191
 1061TIP3    H124818   2.383   3.138   1.517 -1.6527 -0.0835  0.2188
 1061TIP3    H224819   2.386   3.152   1.366  0.7157  0.3587  0.2675
 1062TIP3   OH224820   6.747   4.763   0.188 -0.0484  0.0453  0.7632
 1062TIP3    H124821   6.693   4.727   0.117  0.9671 -1.2512  0.6161
 1062TIP3    H224822   6.684   4.783   0.257 -0.9075  0.1267 -0.0156
 1063TIP3   OH224823   4.945   4.359   6.673 -0.1264 -0.0700  0.0332
 1063TIP3    H124824   4.881   4.289   6.686 -0.2737 -0.0243 -0.4272
 1063TIP3    H224825   5.009   4.346   6.743  0.1212 -0.9644 -0.3525
 1064TIP3   OH224826   1.832   3.472   8.334 -0.1407 -0.0924 -0.7960
 1064TIP3    H124827   1.843   3.428   8.419  0.8928 -0.4874 -1.1148
 1064TIP3    H224828   1.754   3.431   8.297 -0.5485  0.0159 -0.0818
 1065TIP3   OH224829   0.808   2.355   1.070  0.4883  0.2986  0.4764
 1065TIP3    H124830   0.853   2.424   1.022 -0.1625  0.7600  0.5173
 1065TIP3    H224831   0.718   2.387   1.081  0.6059  0.2044  1.9778
 1066TIP3   OH224832   5.337   2.193   2.245  0.2924  0.1280 -0.8515
 1066TIP3    H124833   5.345   2.210   2.339 -0.5996  0.5077 -0.8393
 1066TIP3    H224834   5.392   2.116   2.230  0.3027 -0.0431  0.0103
 1067TIP3   OH224835   1.275   5.235   0.177  0.2388  0.3944  0.0929
 1067TIP3    H124836   1.241   5.252   0.088 -0.4971  0.3393  0.3540
 1067TIP3    H224837   1.263   5.141   0.189  1.7420  0.1293 -0.3091
 1068TIP3   OH224838   0.927   2.315   7.834 -0.2726  0.2003 -0.3137
 1068TIP3    H124839   0.862   2.383   7.851 -1.4587 -0.9184 -0.2750
 1068TIP3    H224840   0.877   2.234   7.830  1.2010 -0.7787  0.3271
 1069TIP3   OH224841   1.865   3.760   1.715  0.8110  0.1877  0.1641
 1069TIP3    H124842   1.893   3.851   1.717  1.4855 -0.0352  1.4185
 1069TIP3    H224843   1.945   3.710   1.704  0.3621 -0.2576 -1.4986
 1070TIP3   OH224844   5.158   3.715   2.867  0.2804 -0.0799  0.2837
 1070TIP3    H124845   5.119   3.630   2.888 -0.6555  0.8688  2.6718
 1070TIP3    H224846   5.237   3.718   2.920  0.1811  0.6349  0.3898
 1071TIP3   OH224847   1.484   6.815   1.416  0.0807  0.4344 -0.2056
 1071TIP3    H124848   1.544   6.749   1.383  0.5866  0.3898  0.7437
 1071TIP3    H224849   1.468   6.790   1.507 -1.0945  0.6585 -0.3300
 1072TIP3   OH224850   0.169   2.318   0.392 -1.0376 -0.0364 -0.1396
 1072TIP3    H124851   0.161   2.316   0.296  1.3426 -0.2150 -0.3969
 1072TIP3    H224852   0.181   2.410   0.413 -0.8615 -0.0740 -0.0782
 1073TIP3   OH224853   3.161   0.745   0.388  0.3227  0.0468  0.3333
 1073TIP3    H124854   3.171   0.817   0.450 -0.5719 -0.2122  0.7982
 1073TIP3    H224855   3.102   0.683   0.432  0.8928 -0.8655 -0.1475
 1074TIP3   OH224856   5.971   0.830   2.364  0.3611 -0.4029  0.4620
 1074TIP3    H124857   5.898   0.780   2.330 -1.8305  2.2947  0.8514
 1074TIP3    H224858   6.045   0.807   2.307 -1.6080 -0.7085 -2.1610
 1075TIP3   OH224859   1.321   4.984   1.532  0.2408 -0.4616  0.0580
 1075TIP3    H124860   1.294   4.944   1.615 -1.5375  0.1712 -0.1650
 1075TIP3    H224861   1.254   4.957   1.470  1.5193 -0.8821 -1.2031
 1076TIP3   OH224862   1.982   1.320   1.342  0.3095  0.9299 -0.8034
 1076TIP3    H124863   1.948   1.380   1.408  1.6011  1.8188 -0.9248
 1076TIP3    H224864   1.964   1.233   1.378 -2.1888  1.3072 -0.9259
 1077TIP3   OH224865   2.786   0.611   2.015  0.8077  0.2772 -0.3352
 1077TIP3    H124866   2.800   0.523   2.051 -0.3000  0.6499  1.0762
 1077TIP3    H224867   2.800   0.670   2.089 -0.8846  1.1172 -0.6526
 1078TIP3   OH224868   2.108   5.872   8.115 -0.2330 -0.2350  0.4549
 1078TIP3    H124869   2.048   5.871   8.189 -0.6192 -1.5196  0.1633
 1078TIP3    H224870   2.165   5.796   8.130  1.6318  1.1956  0.9502
 1079TIP3   OH224871   0.422   2.318   7.918 -0.0402  0.3140 -0.2542
 1079TIP3    H124872   0.368   2.386   7.877 -0.2322  0.5530  0.3893
 1079TIP3    H224873   0.378   2.299   8.000  1.1325  0.8974  0.5409
 1080TIP3   OH224874   2.462   0.849   0.732 -0.1496 -0.3622 -0.4456
 1080TIP3    H124875   2.537   0.789   0.727  0.9326  1.0207 -2.1416
 1080TIP3    H224876   2.416   0.836   0.649 -1.2679 -0.4961  0.1754
 1081TIP3   OH224877   5.781   5.149   0.872 -0.3739 -0.7334  0.6700
 1081TIP3    H124878   5.802   5.243   0.876  0.9143 -0.8751 -1.2520
 1081TIP3    H224879   5.765   5.124   0.963 -0.8945  1.3721  1.2209
 1082TIP3   OH224880   3.190   6.172   0.657  0.2686  0.0287  0.4117
 1082TIP3    H124881   3.226   6.086   0.632  2.1831  0.9918 -0.3678
 1082TIP3    H224882   3.181   6.219   0.574  1.0614  1.2237  0.9811
 1083TIP3   OH224883   2.048   4.290   0.003 -0.3825 -0.6256 -0.7369
 1083TIP3    H124884   2.103   4.338  -0.060 -1.4382 -0.3103 -1.4422
 1083TIP3    H224885   2.031   4.354   0.072 -0.4624 -0.4858 -0.8834
 1084TIP3   OH224886   1.690   3.708   7.702  1.0120 -0.2993 -0.3078
 1084TIP3    H124887   1.707   3.621   7.664  1.4619 -0.6307  0.6277
 1084TIP3    H224888   1.722   3.769   7.636  0.4159 -0.8261 -1.1130
 1085TIP3   OH224889   5.366   5.886   8.224  0.4503 -0.1169 -0.7324
 1085TIP3    H124890   5.440   5.826   8.238  0.4927  0.4658  2.1656
 1085TIP3    H224891   5.297   5.853   8.281  0.2451  2.1062  0.4459
 1086TIP3   OH224892   2.706   2.636   7.830 -0.0221 -0.7154 -0.1508
 1086TIP3    H124893   2.635   2.688   7.792 -1.8787 -1.8349  1.5230
 1086TIP3    H224894   2.714   2.561   7.772  0.2157 -0.2817 -0.6813
 1087TIP3   OH224895   3.501   1.673   0.914  0.1001 -0.1002  0.1550
 1087TIP3    H124896   3.407   1.666   0.900  0.1669 -0.9849  0.0915
 1087TIP3    H224897   3.540   1.639   0.833  0.4801  0.3354  0.1456
 1088TIP3   OH224898   2.314   5.904   2.083  0.6472 -0.2869  0.4364
 1088TIP3    H124899   2.278   5.976   2.135 -0.7478  0.0893 -0.9688
 1088TIP3    H224900   2.253   5.832   2.098  0.1994 -0.1585 -0.6674
 1089TIP3   OH224901   4.925   1.168   7.494  0.1844 -0.1365  0.2406
 1089TIP3    H124902   4.993   1.220   7.536 -0.7814  1.7113 -0.3568
 1089TIP3    H224903   4.854   1.165   7.558  0.1133 -0.4793  0.1519
 1090TIP3   OH224904   6.467   6.169   8.087  0.1033  0.6156 -0.3450
 1090TIP3    H124905   6.421   6.236   8.137 -0.8178  0.7344 -1.3183
 1090TIP3    H224906   6.400   6.129   8.032  0.3442 -2.0305  1.1220
 1091TIP3   OH224907   4.640   3.898   1.091  0.4987  0.1534 -0.5564
 1091TIP3    H124908   4.555   3.880   1.051  0.5229  1.2700 -1.1417
 1091TIP3    H224909   4.692   3.820   1.074 -0.7733 -1.0934  0.9044
 1092TIP3   OH224910   2.455   6.543   8.595  0.7607 -0.3175  0.5984
 1092TIP3    H124911   2.526   6.574   8.651  0.8665  0.4771  0.0454
 1092TIP3    H224912   2.407   6.622   8.571 -1.6354 -1.0139  2.6694
 1093TIP3   OH224913   5.377   4.743   6.845  0.0125 -0.1291 -0.1150
 1093TIP3    H124914   5.330   4.666   6.814  0.6176 -0.6986  0.3635
 1093TIP3    H224915   5.441   4.762   6.776 -0.8616  0.6338 -0.7573
 1094TIP3   OH224916   6.661   0.355   0.065  0.3579 -0.4189  0.0543
 1094TIP3    H124917   6.678   0.362   0.159  0.1667  3.2418 -0.0173
 1094TIP3    H224918   6.585   0.298   0.058  0.1379 -0.4686  2.1700
 1095TIP3   OH224919   5.252   4.572   7.198  0.3156 -0.5080 -0.5079
 1095TIP3    H124920   5.301   4.507   7.146  2.3913  1.3633 -1.0778
 1095TIP3    H224921   5.229   4.526   7.279  1.9896 -1.8803 -0.7487
 1096TIP3   OH224922   5.297   2.789   0.908 -0.1337  1.2501  0.0225
 1096TIP3    H124923   5.240   2.850   0.955  0.2295  1.9534 -0.4305
 1096TIP3    H224924   5.359   2.759   0.975 -1.2805  0.1391  0.6246
 1097TIP3   OH224925   3.678   5.124   8.602  0.0162 -0.4123 -0.0446
 1097TIP3    H124926   3.690   5.165   8.516 -1.0851  2.2813  0.9639
 1097TIP3    H224927   3.583   5.118   8.612  0.1355 -0.7648  0.9527
 1098TIP3   OH224928   4.814   4.681   0.506 -0.7345  0.3208 -0.4233
 1098TIP3    H124929   4.762   4.748   0.460 -0.9093 -1.1932 -2.5868
 1098TIP3    H224930   4.903   4.695   0.475 -0.9964 -1.3011 -2.1304
 1099TIP3   OH224931   0.929   0.606   8.689  0.3291  0.1105 -0.0805
 1099TIP3    H124932   0.871   0.672   8.651 -2.9184 -0.8823  2.6562
 1099TIP3    H224933   0.937   0.539   8.622 -1.6381  0.3816 -0.6398
 1100TIP3   OH224934   0.654   1.958   1.683 -0.1300 -0.2284 -0.3117
 1100TIP3    H124935   0.720   1.992   1.623 -2.1832  2.0602 -1.4474
 1100TIP3    H224936   0.664   2.010   1.762  0.4301 -0.9917  0.1343
 1101TIP3   OH224937   1.598   5.030   1.097  0.5077 -0.2370 -0.0832
 1101TIP3    H124938   1.521   5.037   1.154  1.4554 -1.8741  1.4906
 1101TIP3    H224939   1.578   4.957   1.039  0.1439  0.5025 -0.9010
 1102TIP3   OH224940   1.924   2.543   1.536  0.0984  0.2140  0.1938
 1102TIP3    H124941   1.905   2.529   1.629 -0.5523 -2.9231 -0.3105
 1102TIP3    H224942   1.840   2.567   1.497  0.1329  0.3705  0.2142
 1103TIP3   OH224943   0.145   6.732   2.034  0.3537 -0.0083 -0.2182
 1103TIP3    H124944   0.223   6.784   2.013  0.1353 -0.1809 -1.5223
 1103TIP3    H224945   0.120   6.691   1.951 -0.1697 -1.2673  0.5355
 1104TIP3   OH224946   4.764   5.855   1.583  0.3844  0.2862  0.0222
 1104TIP3    H124947   4.744   5.949   1.587  0.0963  0.1840  1.3682
 1104TIP3    H224948   4.681   5.812   1.601  0.8677 -0.1982  1.1797
 1105TIP3   OH224949   1.289   5.161   7.933  0.0827  0.3163 -0.4129
 1105TIP3    H124950   1.344   5.220   7.984 -0.8994 -0.0017  1.0662
 1105TIP3    H224951   1.236   5.219   7.878  0.0679  0.7485  0.0554
 1106TIP3   OH224952   5.839   5.800   7.735 -0.1601  0.2490  0.0252
 1106TIP3    H124953   5.778   5.873   7.742 -2.1669 -1.4764  1.6611
 1106TIP3    H224954   5.784   5.723   7.720  1.5776 -1.3872  1.4742
 1107TIP3   OH224955   5.350   6.104   0.196 -0.0469  0.0639 -0.3366
 1107TIP3    H124956   5.334   6.194   0.170  0.8620  0.0365 -1.0562
 1107TIP3    H224957   5.284   6.085   0.262  0.3693  1.5671  0.5384
 1108TIP3   OH224958   1.366   5.431   7.266 -0.4568 -0.7994  0.1728
 1108TIP3    H124959   1.327   5.485   7.334 -0.9471 -1.1026  0.1377
 1108TIP3    H224960   1.294   5.413   7.205  0.1296  0.0030 -0.7785
 1109TIP3   OH224961   5.526   3.853   6.783  0.3484  0.4742 -0.3538
 1109TIP3    H124962   5.571   3.851   6.699  0.7285 -0.3367 -0.1431
 1109TIP3    H224963   5.596   3.866   6.847  0.2343 -0.3369 -0.0603
 1110TIP3   OH224964   3.719   5.855   1.065 -0.0947 -0.4843  0.5868
 1110TIP3    H124965   3.712   5.937   1.016 -2.0305 -1.3403 -0.7017
 1110TIP3    H224966   3.685   5.876   1.152  0.7054  0.3796  0.7074
 1111TIP3   OH224967   0.433   1.935   8.892  0.3239 -0.2487 -0.1594
 1111TIP3    H124968   0.490   1.885   8.950  2.1313 -0.4484 -1.9864
 1111TIP3    H224969   0.390   1.868   8.838  1.3644  0.0196 -1.3809
 1112TIP3   OH224970   5.708   6.087   2.240 -0.4906 -0.2362 -0.5796
 1112TIP3    H124971   5.679   6.123   2.156 -2.0829  1.9334  0.7850
 1112TIP3    H224972   5.650   6.128   2.305  1.7251 -0.5348  1.7403
 1113TIP3   OH224973   1.260   3.530   8.278 -0.3232  0.1262  0.4706
 1113TIP3    H124974   1.212   3.569   8.205 -0.8241 -1.3593 -0.0215
 1113TIP3    H224975   1.344   3.504   8.239 -0.1329  0.3788  0.7106
 1114TIP3   OH224976   0.611   1.101   7.426  0.0624 -0.6716 -0.3398
 1114TIP3    H124977   0.561   1.044   7.367  0.5884 -0.8899 -0.5791
 1114TIP3    H224978   0.576   1.081   7.513 -0.6227 -0.4447 -0.5550
 1115TIP3   OH224979   2.774   3.444   2.715  0.0046  0.3848  0.1198
 1115TIP3    H124980   2.740   3.478   2.632 -0.6114  3.7036  1.5604
 1115TIP3    H224981   2.698   3.404   2.757 -0.1105  0.3137 -0.1488
 1116TIP3   OH224982   2.181   1.971   8.604  0.1756 -0.6245 -0.1358
 1116TIP3    H124983   2.129   1.922   8.668  2.8146  0.3133  2.9859
 1116TIP3    H224984   2.249   1.909   8.577 -0.2410 -0.6367 -1.2086
 1117TIP3   OH224985   1.960   5.631   0.782 -0.3434 -0.1357  0.4540
 1117TIP3    H124986   1.940   5.710   0.833  0.4301  0.5043 -0.2070
 1117TIP3    H224987   1.882   5.618   0.727 -0.6185 -0.0430  0.8171
 1118TIP3   OH224988   6.191   4.874   1.096 -0.2906  0.1306  0.5276
 1118TIP3    H124989   6.178   4.781   1.114  1.1503  0.0732  1.3852
 1118TIP3    H224990   6.187   4.881   1.000 -0.6515 -0.7574  0.4745
 1119TIP3   OH224991   2.505   5.650   2.180 -0.4445 -0.0175  0.2673
 1119TIP3    H124992   2.555   5.732   2.170  0.9428 -0.7008  1.2330
 1119TIP3    H224993   2.465   5.657   2.267 -0.3472 -0.3523  0.3392
 1120TIP3   OH224994   5.111   4.548   0.960  0.1926  0.5092  0.1853
 1120TIP3    H124995   5.113   4.487   1.033  1.4992  1.2326  0.7844
 1120TIP3    H224996   5.088   4.632   1.000  2.2354  1.1989  0.0345
 1121TIP3   OH224997   3.445   4.840   1.548  0.2039 -0.1012  0.5225
 1121TIP3    H124998   3.387   4.900   1.502  0.9627  0.8922  0.8338
 1121TIP3    H224999   3.515   4.821   1.485 -0.1793 -0.9114  0.3215
 1122TIP3   OH225000   5.136   4.961   8.244  0.2271  0.0155 -0.6471
 1122TIP3    H125001   5.047   4.954   8.279 -0.4692 -1.9459 -2.5290
 1122TIP3    H225002   5.188   4.902   8.299  0.0120 -0.0340 -0.4950
 1123TIP3   OH225003   3.937   4.514   1.886 -0.7025 -0.8257  0.2683
 1123TIP3    H125004   3.868   4.562   1.930 -0.4499 -1.4539  1.3781
 1123TIP3    H225005   3.922   4.422   1.909 -0.8860 -1.2605 -1.4129
 1124TIP3   OH225006   4.337   6.432   2.041 -0.4877 -0.0108 -0.4469
 1124TIP3    H125007   4.401   6.498   2.015 -0.4429 -0.1976 -0.8213
 1124TIP3    H225008   4.332   6.439   2.136  1.7056 -1.4554 -0.1438
 1125TIP3   OH225009   6.775   3.416   2.270 -0.2276  0.2631 -0.5029
 1125TIP3    H125010   6.756   3.495   2.321  2.7863  1.3688 -0.8961
 1125TIP3    H225011   6.710   3.417   2.200 -1.0713  1.6385  0.2414
 1126TIP3   OH225012   3.613   2.793   8.658  0.1252  0.0970  0.0252
 1126TIP3    H125013   3.628   2.752   8.743  0.8397  0.6834  0.1936
 1126TIP3    H225014   3.632   2.886   8.673  2.1287 -0.0616 -1.2060
 1127TIP3   OH225015   0.993   5.105   8.882 -0.5269 -0.0634  0.6077
 1127TIP3    H125016   0.962   5.098   8.972 -3.8472 -1.4688 -0.5075
 1127TIP3    H225017   0.990   5.015   8.848 -1.0482  0.6524 -1.4039
 1128TIP3   OH225018   4.349   2.642   8.394 -0.8313  0.6105  0.6132
 1128TIP3    H125019   4.277   2.612   8.338  0.1326 -0.6783  0.0117
 1128TIP3    H225020   4.336   2.596   8.477  0.5162 -1.4875 -0.2351
 1129TIP3   OH225021   6.817   2.867   7.227 -0.3777  0.5424  0.1450
 1129TIP3    H125022   6.761   2.901   7.158 -0.7846 -1.5432 -0.6297
 1129TIP3    H225023   6.866   2.796   7.186 -1.6285 -1.6989  2.2697
 1130TIP3   OH225024   3.928   5.894   0.509 -0.9092 -0.1105 -0.0792
 1130TIP3    H125025   3.929   5.985   0.479 -0.4818 -0.8298 -2.4442
 1130TIP3    H225026   3.927   5.901   0.605  0.5421  2.3742 -0.1436
 1131TIP3   OH225027   1.030   4.302   1.137  0.5829  0.0003 -0.3454
 1131TIP3    H125028   0.992   4.326   1.053  0.6669  1.2122 -0.0513
 1131TIP3    H225029   0.985   4.221   1.161  0.7071 -0.4831 -1.6407
 1132TIP3   OH225030   1.817   1.037   8.617  0.1982  0.1877  0.0342
 1132TIP3    H125031   1.897   1.079   8.584  1.0492 -2.3703 -1.4380
 1132TIP3    H225032   1.846   0.987   8.694  0.2433 -1.3354 -0.9275
 1133TIP3   OH225033   2.131   2.865   8.289  0.4690 -0.1454  0.3663
 1133TIP3    H125034   2.076   2.942   8.279  1.4057  0.3893 -0.9290
 1133TIP3    H225035   2.194   2.870   8.217  1.7345 -1.1410  1.3391
 1134TIP3   OH225036   0.806   1.399   8.127  0.2049 -0.1448 -0.6385
 1134TIP3    H125037   0.800   1.304   8.122  2.1841 -0.3703  0.2436
 1134TIP3    H225038   0.891   1.420   8.087 -0.3338  1.2842 -1.0852
 1135TIP3   OH225039   5.503   0.209   0.140  0.0783 -0.3501 -0.5567
 1135TIP3    H125040   5.499   0.304   0.155  0.2886 -0.6759  1.9524
 1135TIP3    H225041   5.413   0.184   0.122 -0.3710  0.0499  1.0048
 1136TIP3   OH225042   6.419   6.559   8.832 -0.1231 -0.5809  0.0538
 1136TIP3    H125043   6.344   6.618   8.827 -1.1613 -1.8360  0.1267
 1136TIP3    H225044   6.398   6.488   8.771  0.5598 -1.4320  0.7683
 1137TIP3   OH225045   5.049   1.902   0.109 -0.1933 -0.5243  1.0309
 1137TIP3    H125046   5.080   1.821   0.068 -0.6832  0.8063 -2.2333
 1137TIP3    H225047   4.954   1.901   0.095 -0.4252 -0.0460  2.3638
 1138TIP3   OH225048   5.533   3.117   3.161 -0.4160  0.2057  0.0905
 1138TIP3    H125049   5.599   3.161   3.107 -0.2349  0.0618  0.1935
 1138TIP3    H225050   5.580   3.089   3.239 -0.6410  0.2642  0.2485
 1139TIP3   OH225051   4.963   0.303   0.801  1.3005  0.4512  0.5287
 1139TIP3    H125052   4.951   0.240   0.730 -0.9966 -1.0327  2.0946
 1139TIP3    H225053   4.890   0.364   0.792  0.8024  0.0626  1.7440
 1140TIP3   OH225054   0.135   5.580   7.572  0.6125 -0.4984  0.1394
 1140TIP3    H125055   0.130   5.500   7.624  3.0313 -0.9482 -0.2068
 1140TIP3    H225056   0.204   5.631   7.614 -1.2986  1.7665  0.7462
 1141TIP3   OH225057   5.343   3.210   7.584  0.2203 -0.2311 -0.0688
 1141TIP3    H125058   5.292   3.136   7.618  0.9992 -0.0695  1.5400
 1141TIP3    H225059   5.386   3.246   7.661  3.5525 -0.9486 -1.4336
 1142TIP3   OH225060   3.030   4.173   8.715  0.2728 -0.2073 -0.1691
 1142TIP3    H125061   2.940   4.142   8.727  0.0573  0.1648 -0.7664
 1142TIP3    H225062   3.040   4.179   8.620  1.3050 -1.3398 -0.1591
 1143TIP3   OH225063   0.347   2.657   8.876  0.7935  0.3132 -0.8044
 1143TIP3    H125064   0.351   2.746   8.840  2.8262  1.3110  1.6202
 1143TIP3    H225065   0.348   2.600   8.798 -2.2842  2.2905 -2.5295
 1144TIP3   OH225066   3.904   0.792   7.939  0.3263 -0.1390  0.1275
 1144TIP3    H125067   3.911   0.868   7.881 -3.2691 -0.4307 -0.9917
 1144TIP3    H225068   3.933   0.823   8.024 -0.0661  2.2062 -0.5221
 1145TIP3   OH225069   0.718   1.736   0.437  0.1900 -0.2225 -0.6046
 1145TIP3    H125070   0.634   1.713   0.477  0.6705  0.3025  0.7623
 1145TIP3    H225071   0.773   1.659   0.451  0.6071  0.2569  0.5184
 1146TIP3   OH225072   6.700   1.546   6.687  0.6230 -0.0628  0.4819
 1146TIP3    H125073   6.696   1.614   6.755  2.0239  0.6637 -0.1197
 1146TIP3    H225074   6.703   1.595   6.605 -0.4637 -0.9242 -0.0968
 1147TIP3   OH225075   5.277   6.003   0.798  0.4887 -0.4524  0.4313
 1147TIP3    H125076   5.185   5.984   0.780  0.3100  1.6203 -1.2630
 1147TIP3    H225077   5.317   5.917   0.809 -1.7064 -1.4008  1.7223
 1148TIP3   OH225078   5.101   3.356   0.405 -0.0112 -0.1617 -0.0230
 1148TIP3    H125079   5.103   3.278   0.349 -1.9016 -1.3982  1.5087
 1148TIP3    H225080   5.188   3.395   0.394  0.1146 -0.9953 -2.8374
 1149TIP3   OH225081   5.555   2.520   2.262  0.5304 -0.2507  0.1844
 1149TIP3    H125082   5.475   2.467   2.267 -0.9441  1.8444  0.0220
 1149TIP3    H225083   5.577   2.540   2.352 -0.1033  0.5155  0.1796
 1150TIP3   OH225084   2.683   2.842   2.158  0.2697 -0.3843  0.3246
 1150TIP3    H125085   2.692   2.909   2.226 -2.0453  1.0009 -0.6118
 1150TIP3    H225086   2.609   2.789   2.186  1.3294 -1.8396  0.4474
 1151TIP3   OH225087   3.397   0.051   8.375  0.4408 -0.1712  0.0973
 1151TIP3    H125088   3.485   0.084   8.355  0.3079 -0.4631 -1.0207
 1151TIP3    H225089   3.355   0.123   8.422  0.7628  0.5764 -0.7266
 1152TIP3   OH225090   6.167   3.571   7.953 -0.2820  0.1692  0.1511
 1152TIP3    H125091   6.096   3.627   7.984 -0.1639  0.6633 -0.4512
 1152TIP3    H225092   6.210   3.539   8.033 -0.0070  1.3753  0.5015
 1153TIP3   OH225093   4.586   2.543   1.454 -0.4305 -0.4856 -0.2502
 1153TIP3    H125094   4.525   2.611   1.485 -0.6658 -1.3902  1.4014
 1153TIP3    H225095   4.532   2.484   1.402 -0.6441 -0.4642 -0.0548
 1154TIP3   OH225096   6.159   6.334   7.880 -0.3805  0.3184 -0.3603
 1154TIP3    H125097   6.108   6.263   7.841 -0.8426  0.1343  0.5462
 1154TIP3    H225098   6.216   6.290   7.944  0.4647  0.5991 -0.8949
 1155TIP3   OH225099   6.374   0.965   7.786 -0.5744 -0.1558  0.3543
 1155TIP3    H125100   6.384   0.924   7.700  2.0863  1.2914 -0.1047
 1155TIP3    H225101   6.418   0.905   7.846 -1.8135 -0.8117  0.6386
 1156TIP3   OH225102   1.120   1.821   1.443  0.2520 -0.0041  0.5323
 1156TIP3    H125103   1.109   1.818   1.538  1.0967  2.3839  0.7788
 1156TIP3    H225104   1.051   1.880   1.412  0.4710 -0.1339 -0.2319
 1157TIP3   OH225105   4.181   6.585   8.859 -0.3998  0.1247  0.6354
 1157TIP3    H125106   4.208   6.508   8.909 -0.6363  0.3728  1.1622
 1157TIP3    H225107   4.261   6.638   8.850  0.0861 -0.8351 -0.9612
 1158TIP3   OH225108   5.997   0.210   0.593  0.4998 -0.4905  0.4970
 1158TIP3    H125109   6.010   0.181   0.503 -0.7126 -1.6827  0.6691
 1158TIP3    H225110   5.972   0.302   0.586 -1.6976 -1.1056 -0.5911
 1159TIP3   OH225111   1.341   3.327   2.343 -0.3672  0.0323 -0.2181
 1159TIP3    H125112   1.419   3.382   2.347 -0.7514  0.6568 -0.9037
 1159TIP3    H225113   1.270   3.388   2.321 -1.1020 -0.4661  0.7100
 1160TIP3   OH225114   1.794   4.943   0.818 -0.2135 -0.0148 -0.0722
 1160TIP3    H125115   1.833   4.857   0.831  0.0626  0.1663  0.3436
 1160TIP3    H225116   1.711   4.926   0.773 -0.8860 -0.6198  1.3455
 1161TIP3   OH225117   0.355   0.573   7.393 -0.3056  0.0486  1.2160
 1161TIP3    H125118   0.387   0.528   7.471 -0.0899  0.0237  1.1127
 1161TIP3    H225119   0.401   0.531   7.320 -1.4048 -0.7686  0.9578
 1162TIP3   OH225120   1.847   2.867   1.992 -0.6896  0.1551  0.0069
 1162TIP3    H125121   1.886   2.909   2.068 -4.1113  1.1924  1.3640
 1162TIP3    H225122   1.780   2.928   1.962 -2.3686 -2.1059 -1.1565
 1163TIP3   OH225123   0.920   4.628   2.223  0.0387 -0.1809 -0.5059
 1163TIP3    H125124   0.960   4.541   2.221  1.8018  0.5748 -0.6306
 1163TIP3    H225125   0.937   4.660   2.312  0.6773  0.5506 -0.8698
 1164TIP3   OH225126   6.152   3.824   2.642 -0.5247 -0.2789 -0.3479
 1164TIP3    H125127   6.079   3.817   2.580 -1.0480  0.3389  0.1770
 1164TIP3    H225128   6.173   3.734   2.665 -1.3622 -0.4563 -0.2385
 1165TIP3   OH225129   6.427   6.470   7.096 -0.2928  0.2745 -0.1149
 1165TIP3    H125130   6.518   6.455   7.121 -0.3226 -2.2056 -1.2348
 1165TIP3    H225131   6.430   6.476   7.000 -1.2751  0.5380 -0.1369
 1166TIP3   OH225132   4.799   5.620   8.766 -0.5171 -0.0961 -0.2677
 1166TIP3    H125133   4.837   5.609   8.853 -1.3838  1.9476  0.4449
 1166TIP3    H225134   4.770   5.711   8.764 -1.2097 -0.2946 -2.4427
 1167TIP3   OH225135   2.890   0.261   1.878  0.1695 -0.0648 -0.2177
 1167TIP3    H125136   2.959   0.266   1.944 -1.0786  1.3026  1.0806
 1167TIP3    H225137   2.936   0.262   1.794  1.7040  1.3671  0.5873
 1168TIP3   OH225138   0.968   0.209   7.842  0.0734 -0.5280 -0.7616
 1168TIP3    H125139   0.895   0.271   7.840 -0.1208 -0.7506 -0.5750
 1168TIP3    H225140   0.955   0.154   7.765  0.1579 -0.4393 -0.8400
 1169TIP3   OH225141   3.242   6.492   0.993  0.2002 -0.6643 -0.1440
 1169TIP3    H125142   3.280   6.461   1.076  2.5234  1.2395 -0.3878
 1169TIP3    H225143   3.284   6.438   0.926  2.1033  0.9863 -0.3630
 1170TIP3   OH225144   2.430   3.244   0.146  0.4930 -0.2944 -0.1694
 1170TIP3    H125145   2.361   3.184   0.175  1.2727 -1.8573 -1.4328
 1170TIP3    H225146   2.465   3.281   0.228 -1.9377  0.7103  0.4927
 1171TIP3   OH225147   2.073   2.454   0.116 -0.1947 -0.3662 -0.3229
 1171TIP3    H125148   1.982   2.426   0.123 -0.8856  1.3763 -1.4952
 1171TIP3    H225149   2.102   2.422   0.030  0.7808 -2.0404  0.5688
 1172TIP3   OH225150   4.602   4.893   1.255  0.5989 -0.1599 -0.6095
 1172TIP3    H125151   4.585   4.841   1.333 -0.6179  1.9196  0.6092
 1172TIP3    H225152   4.687   4.862   1.223  1.2958 -0.8305  1.7426
 1173TIP3   OH225153   2.207   1.507   8.722 -0.2097 -0.4907  0.8588
 1173TIP3    H125154   2.190   1.601   8.725  1.1133  0.1479 -3.6718
 1173TIP3    H225155   2.120   1.468   8.709 -0.4919  0.5524 -0.7721
 1174TIP3   OH225156   0.062   5.474   2.192 -0.3124  0.0283  0.0312
 1174TIP3    H125157   0.107   5.397   2.157 -1.2079 -0.6428  0.3080
 1174TIP3    H225158   0.069   5.465   2.287 -2.4723 -1.0292  0.1531
 1175TIP3   OH225159   5.697   4.395   8.853 -0.5424 -0.0580 -0.3213
 1175TIP3    H125160   5.659   4.334   8.917 -2.8961  3.2551  1.8438
 1175TIP3    H225161   5.777   4.426   8.895 -0.2844 -0.3721 -0.5840
 1176TIP3   OH225162   6.423   6.342   2.342  0.2142 -0.5771  0.1130
 1176TIP3    H125163   6.456   6.255   2.319 -0.0492 -1.0015  1.2682
 1176TIP3    H225164   6.398   6.335   2.434 -2.3819 -0.0702 -0.4638
 1177TIP3   OH225165   3.620   1.347   1.480 -0.5573  0.0014 -0.0145
 1177TIP3    H125166   3.622   1.418   1.544 -3.3648 -1.0578  1.4139
 1177TIP3    H225167   3.561   1.378   1.411  0.3255  0.0565 -0.7707
 1178TIP3   OH225168   0.839   0.021   8.386 -0.1556 -0.2279  0.1656
 1178TIP3    H125169   0.898  -0.022   8.448 -0.2647  1.0168  1.1710
 1178TIP3    H225170   0.765  -0.039   8.377 -0.7992  0.1504  2.3494
 1179TIP3   OH225171   5.669   3.910   0.252  0.1454 -0.2441  0.3392
 1179TIP3    H125172   5.740   3.892   0.190 -2.0992  0.5875 -2.6940
 1179TIP3    H225173   5.625   3.825   0.263  0.4355 -0.3527  0.6986
 1180TIP3   OH225174   1.311   1.267   0.385  0.1217 -0.0744  0.7954
 1180TIP3    H125175   1.221   1.264   0.352  0.9851 -1.7675 -1.7023
 1180TIP3    H225176   1.340   1.356   0.365 -0.2089 -0.3029 -0.8743
 1181TIP3   OH225177   5.078   3.933   2.451 -0.5674  0.7501 -0.2648
 1181TIP3    H125178   5.109   3.984   2.376 -2.4594  0.9996 -0.9187
 1181TIP3    H225179   4.990   3.905   2.427  0.7421 -3.9551 -0.4670
 1182TIP3   OH225180   5.159   4.342   8.644  0.2275  0.2654 -0.0860
 1182TIP3    H125181   5.064   4.349   8.649  0.3103  0.6181  1.7620
 1182TIP3    H225182   5.175   4.291   8.565 -1.5013  0.0762 -0.3593
 1183TIP3   OH225183   5.520   1.227   1.496 -0.1921 -0.2248  0.1818
 1183TIP3    H125184   5.470   1.279   1.434  2.2209  0.4351 -1.3794
 1183TIP3    H225185   5.545   1.148   1.448  0.2010 -0.5708  0.9277
 1184TIP3   OH225186   0.039   1.589   7.579 -0.1611  0.0190 -0.6248
 1184TIP3    H125187   0.070   1.679   7.573 -0.9882  0.3045 -0.6622
 1184TIP3    H225188   0.011   1.579   7.670  2.0502 -0.9233  0.0425
 1185TIP3   OH225189   3.835   1.275   1.070 -0.3168  0.1640 -0.4729
 1185TIP3    H125190   3.865   1.201   1.124  0.1703  0.7623  0.0984
 1185TIP3    H225191   3.744   1.289   1.098 -0.0786  0.4502  0.1970
 1186TIP3   OH225192   6.558   2.620   1.441  0.0891 -0.3043 -0.0605
 1186TIP3    H125193   6.474   2.609   1.396  1.0176 -0.4630 -1.8428
 1186TIP3    H225194   6.535   2.662   1.524 -1.7497 -0.3489 -0.4982
 1187TIP3   OH225195   6.660   3.866   2.388 -0.2537  0.2756  0.2774
 1187TIP3    H125196   6.598   3.922   2.341 -0.0271  0.4827  0.2190
 1187TIP3    H225197   6.731   3.925   2.412 -0.2311  0.1067  0.6224
 1188TIP3   OH225198   3.871   2.757   8.510  0.3276 -0.5329 -0.1852
 1188TIP3    H125199   3.782   2.754   8.546  0.6610 -0.4431  0.6754
 1188TIP3    H225200   3.862   2.724   8.420 -1.0037  1.8195 -1.0117
 1189TIP3   OH225201   1.912   0.343   0.040 -0.2278  0.6605 -0.1919
 1189TIP3    H125202   1.875   0.275  -0.017  0.2586  0.0786  0.1752
 1189TIP3    H225203   2.003   0.319   0.050 -0.5698  0.0552  1.8155
 1190TIP3   OH225204   4.699   4.975   0.346 -0.6800 -0.3181  0.0400
 1190TIP3    H125205   4.624   5.023   0.310  0.2381  0.8162 -0.4268
 1190TIP3    H225206   4.765   4.978   0.276 -0.5298 -2.1625  0.0532
 1191TIP3   OH225207   3.551   2.232   1.020 -0.2358 -0.4375  0.6539
 1191TIP3    H125208   3.517   2.166   1.079 -1.2734  0.5228  1.1680
 1191TIP3    H225209   3.495   2.227   0.943 -2.4838  1.9490  1.9735
 1192TIP3   OH225210   1.178   2.876   2.590 -0.3032  0.5166  0.4468
 1192TIP3    H125211   1.244   2.939   2.617 -0.1934  0.7600 -0.3461
 1192TIP3    H225212   1.220   2.791   2.601  1.5078  0.7476 -3.2664
 1193TIP3   OH225213   3.719   4.216   8.872  0.0466 -0.4358  0.1306
 1193TIP3    H125214   3.803   4.239   8.831 -1.6010  2.0579 -2.1581
 1193TIP3    H225215   3.724   4.121   8.883  2.0557 -0.8075 -2.7399
 1194TIP3   OH225216   4.594   2.105   1.214  0.3278 -0.2888 -0.0726
 1194TIP3    H125217   4.659   2.120   1.282  0.0515  1.9115 -0.2146
 1194TIP3    H225218   4.514   2.081   1.262  0.7282 -1.0666  0.2145
 1195TIP3   OH225219   3.788   2.166   7.873 -0.0092  0.1037  0.1836
 1195TIP3    H125220   3.725   2.095   7.861 -2.0021  1.8631 -0.4187
 1195TIP3    H225221   3.860   2.127   7.922 -1.5268 -2.0312  0.8301
 1196TIP3   OH225222   1.351   4.394   7.403 -0.2575  0.7463  0.0105
 1196TIP3    H125223   1.281   4.431   7.348 -1.1656 -0.9234 -0.0149
 1196TIP3    H225224   1.305   4.339   7.466  1.0784 -1.5016 -0.8717
 1197TIP3   OH225225   5.778   6.782   0.996  0.0567  0.0159  0.0131
 1197TIP3    H125226   5.865   6.744   0.983 -0.5443 -0.9511 -1.5488
 1197TIP3    H225227   5.760   6.828   0.913 -0.9502  0.1325  0.2845
 1198TIP3   OH225228   4.402   0.867   0.858 -0.4552  0.0448 -0.4029
 1198TIP3    H125229   4.383   0.834   0.769 -0.1981 -1.4645  0.0643
 1198TIP3    H225230   4.320   0.853   0.906 -0.0066 -1.0366  0.0946
 1199TIP3   OH225231   1.962   3.172   1.901  0.5957 -0.4284 -0.0324
 1199TIP3    H125232   1.948   3.145   1.992  0.9132  0.0480  0.1592
 1199TIP3    H225233   1.927   3.261   1.897 -0.4829 -0.8533 -0.6696
 1200TIP3   OH225234   0.345   4.927   8.322 -0.3405  0.7478  0.5715
 1200TIP3    H125235   0.404   5.002   8.311  1.2682 -0.2902  1.7153
 1200TIP3    H225236   0.298   4.920   8.239  0.5702  2.1008 -0.0809
 1201TIP3   OH225237   4.952   2.534   2.163 -0.4231  0.1649  0.3813
 1201TIP3    H125238   4.985   2.445   2.153 -1.4244 -0.0911 -0.8638
 1201TIP3    H225239   4.865   2.532   2.125 -1.1966  1.2581  1.9846
 1202TIP3   OH225240   5.708   0.710   0.692 -0.4006 -0.1921 -0.3558
 1202TIP3    H125241   5.709   0.805   0.690  0.6375 -0.1788  0.2121
 1202TIP3    H225242   5.636   0.686   0.634 -1.7631  0.9485  0.7864
 1203TIP3   OH225243   0.720   6.052   7.835  0.5597 -0.0803 -0.5741
 1203TIP3    H125244   0.660   5.988   7.795 -0.3540  1.4689 -1.8182
 1203TIP3    H225245   0.807   6.015   7.822 -0.0402 -2.4272  1.3221
 1204TIP3   OH225246   5.435   1.901   8.226  0.1592 -0.1947 -0.7706
 1204TIP3    H125247   5.450   1.915   8.319 -0.4578 -0.0819 -0.6819
 1204TIP3    H225248   5.340   1.914   8.215  0.4990  1.9563 -1.7662
 1205TIP3   OH225249   5.930   2.637   1.968  0.2537 -0.0976  1.0286
 1205TIP3    H125250   5.937   2.543   1.987  0.8024  0.2286  2.5277
 1205TIP3    H225251   6.004   2.676   2.015  0.8086  0.9522 -0.6327
 1206TIP3   OH225252   3.365   4.641   0.823 -0.4877 -0.5075 -0.1640
 1206TIP3    H125253   3.376   4.712   0.760  0.7836 -0.8913 -0.4148
 1206TIP3    H225254   3.271   4.636   0.839 -0.7760 -0.0873 -1.6516
 1207TIP3   OH225255   4.142   4.015   2.705  0.1140 -0.0969 -0.3292
 1207TIP3    H125256   4.080   4.078   2.741 -0.5900 -0.3889 -0.9915
 1207TIP3    H225257   4.115   3.931   2.743 -0.0261 -0.2521 -0.7605
 1208TIP3   OH225258   3.997   0.155   8.435 -0.0231 -0.4920  0.3765
 1208TIP3    H125259   4.020   0.134   8.525  0.5485  0.0694  0.3661
 1208TIP3    H225260   4.042   0.088   8.383  0.9275  0.1134  0.4111
 1209TIP3   OH225261   4.048   5.203   7.376 -0.0648 -0.8246  0.3896
 1209TIP3    H125262   4.103   5.266   7.329 -1.1568 -1.2274 -1.5461
 1209TIP3    H225263   3.987   5.257   7.426  0.1312 -0.3665  0.1422
 1210TIP3   OH225264   6.176   6.574   8.671  0.4788 -0.5190  0.2038
 1210TIP3    H125265   6.181   6.547   8.762  2.6017  1.3657  0.7212
 1210TIP3    H225266   6.087   6.607   8.660  0.1697 -0.8784  1.5529
 1211TIP3   OH225267   0.400   4.030   8.068 -0.1334  0.0049 -0.0108
 1211TIP3    H125268   0.447   3.989   8.141 -1.5462 -1.5848  0.0701
 1211TIP3    H225269   0.440   4.116   8.060  0.9057 -0.2363  1.8279
 1212TIP3   OH225270   1.611   5.802   2.410 -0.0472  0.0023 -0.0406
 1212TIP3    H125271   1.704   5.780   2.416  0.1499  1.0744  1.5818
 1212TIP3    H225272   1.601   5.880   2.465 -1.9505 -0.2623  0.0670
 1213TIP3   OH225273   1.436   6.520   7.683  0.2668  0.3802 -0.1814
 1213TIP3    H125274   1.357   6.559   7.646 -0.2652  0.9155  1.4463
 1213TIP3    H225275   1.506   6.549   7.625 -0.5285  1.1376 -0.7988
 1214TIP3   OH225276   4.028   4.716   0.410  0.3002  0.7273  0.6010
 1214TIP3    H125277   3.954   4.672   0.452  0.6661 -1.5741 -0.9372
 1214TIP3    H225278   4.032   4.677   0.322  2.2860  2.0416  0.0369
 1215TIP3   OH225279   5.134   3.029   1.913 -0.1992  0.5497 -0.0980
 1215TIP3    H125280   5.089   3.075   1.984 -0.9021  2.0197 -1.4308
 1215TIP3    H225281   5.110   2.937   1.925  1.0857  0.4747  2.5260
 1216TIP3   OH225282   1.017   1.341   7.195 -0.2993 -0.2793  0.2231
 1216TIP3    H125283   1.013   1.399   7.119  0.6843 -0.8546 -0.2874
 1216TIP3    H225284   0.997   1.398   7.270 -1.1843  0.3094 -0.4426
 1217TIP3   OH225285   0.143   6.681   8.581  0.3055 -0.0914 -0.0021
 1217TIP3    H125286   0.127   6.588   8.594  0.7644 -0.3110 -0.9157
 1217TIP3    H225287   0.235   6.686   8.553 -0.0096  0.5309 -0.9610
 1218TIP3   OH225288   3.393   3.346   2.454  0.4778  0.1118 -0.6290
 1218TIP3    H125289   3.486   3.368   2.451  0.5336 -0.0184  0.0252
 1218TIP3    H225290   3.388   3.254   2.429  0.4860  0.2144 -1.0137
 1219TIP3   OH225291   0.634   1.523   8.546 -0.5669  0.0063 -0.3491
 1219TIP3    H125292   0.660   1.548   8.458 -0.6719  0.8918 -0.1326
 1219TIP3    H225293   0.542   1.549   8.553 -0.0543  1.7074  0.6412
 1220TIP3   OH225294   6.342   1.997   0.683 -0.4115 -0.0961  0.4066
 1220TIP3    H125295   6.429   2.027   0.655 -0.4022 -0.7778 -0.3508
 1220TIP3    H225296   6.300   1.967   0.602 -1.3596  0.2293  0.7681
 1221TIP3   OH225297   1.977   5.726   1.678  0.1188  0.0203  0.0830
 1221TIP3    H125298   2.060   5.772   1.667  0.0661  0.3027  0.7851
 1221TIP3    H225299   1.930   5.740   1.596 -0.1569  1.7623  0.5016
 1222TIP3   OH225300   3.777   2.229   8.186  0.5967  0.2755 -0.0130
 1222TIP3    H125301   3.707   2.165   8.199  1.0665 -0.6879 -1.9155
 1222TIP3    H225302   3.833   2.189   8.120  0.3303  3.0980 -2.0907
 1223TIP3   OH225303   1.448   2.280   8.394  0.0140 -0.6698  0.5724
 1223TIP3    H125304   1.522   2.297   8.452 -1.0396 -1.6095  2.2871
 1223TIP3    H225305   1.375   2.261   8.454 -2.1460  2.0707 -0.9367
 1224TIP3   OH225306   5.381   4.510   0.293 -1.2687 -0.2211 -0.3107
 1224TIP3    H125307   5.391   4.517   0.388 -1.1148  0.5762 -0.3758
 1224TIP3    H225308   5.322   4.437   0.281 -2.8632  0.8669  0.4931
 1225TIP3   OH225309   5.936   6.326   2.041  0.2648  0.2377  0.1214
 1225TIP3    H125310   5.954   6.273   1.963  1.3051  1.2751 -0.3771
 1225TIP3    H225311   5.844   6.352   2.031  0.1425 -0.3243 -0.3204
 1226TIP3   OH225312   3.612   0.688   0.680 -0.5898  0.6373  0.1042
 1226TIP3    H125313   3.535   0.651   0.637  1.0719 -0.3654 -2.2135
 1226TIP3    H225314   3.686   0.640   0.642  1.3919  3.4287  0.1678
 1227TIP3   OH225315   1.630   3.243   0.166 -0.3601  0.3400 -0.3370
 1227TIP3    H125316   1.720   3.263   0.144 -0.5155  0.2815 -1.0434
 1227TIP3    H225317   1.619   3.151   0.141 -0.0270 -0.3091  1.6680
 1228TIP3   OH225318   3.979   0.270   2.280 -0.4904  0.1446 -0.1317
 1228TIP3    H125319   3.919   0.262   2.355  0.0630 -1.5778  0.1656
 1228TIP3    H225320   4.044   0.201   2.294  0.0438  0.2639 -1.8300
 1229TIP3   OH225321   5.750   1.656   1.772 -0.0756  0.8409 -0.0379
 1229TIP3    H125322   5.765   1.635   1.864  0.0321  1.0053 -0.0178
 1229TIP3    H225323   5.657   1.640   1.758 -0.0785  0.7499  0.0820
 1230TIP3   OH225324   5.848   0.470   2.439  0.1854  0.3987 -0.1177
 1230TIP3    H125325   5.907   0.509   2.504 -0.6110  2.0935 -0.3462
 1230TIP3    H225326   5.905   0.419   2.381  0.9906 -0.5998  1.4899
 1231TIP3   OH225327   3.016   1.257   0.392  0.1087 -0.1097  0.7038
 1231TIP3    H125328   2.955   1.199   0.346 -1.4810  0.6984  1.7065
 1231TIP3    H225329   3.028   1.331   0.333  1.1505 -0.8228 -0.0294
 1232TIP3   OH225330   3.654   5.919   8.220 -0.6596 -0.0756  0.4892
 1232TIP3    H125331   3.604   5.838   8.232  0.3643 -0.6468  1.0437
 1232TIP3    H225332   3.692   5.911   8.133 -0.3334 -0.3238  0.6526
 1233TIP3   OH225333   3.884   4.403   7.511 -0.0340 -0.2569 -0.0639
 1233TIP3    H125334   3.874   4.466   7.439 -1.3632 -1.2425 -0.8065
 1233TIP3    H225335   3.968   4.362   7.495 -0.4268 -0.6547 -1.2615
 1234TIP3   OH225336   0.225   4.737   7.512 -0.5660 -0.1506  0.4314
 1234TIP3    H125337   0.274   4.783   7.444  0.5508 -2.5442 -0.4955
 1234TIP3    H225338   0.137   4.726   7.476 -0.6328  0.5559  0.3637
 1235TIP3   OH225339   0.710   3.141   2.407 -0.0248 -0.3290 -0.6879
 1235TIP3    H125340   0.760   3.138   2.488 -1.3311 -0.3304  0.1544
 1235TIP3    H225341   0.754   3.207   2.354  0.0324  0.7247  0.6195
 1236TIP3   OH225342   0.240   3.844   8.713 -0.2874 -0.1157 -0.5006
 1236TIP3    H125343   0.292   3.900   8.656 -0.9034  0.3910 -0.5714
 1236TIP3    H225344   0.305   3.793   8.762  0.3580  1.7184  0.6683
 1237TIP3   OH225345   5.150   6.413   0.382 -0.0391  0.4296  0.3932
 1237TIP3    H125346   5.089   6.399   0.310  0.0693 -0.3925  0.4442
 1237TIP3    H225347   5.095   6.418   0.460 -0.1448  1.1728  0.2735
 1238TIP3   OH225348   3.668   5.081   0.640 -0.1109  0.0538  0.1567
 1238TIP3    H125349   3.674   5.010   0.705  0.0671 -0.8525 -0.8303
 1238TIP3    H225350   3.574   5.096   0.630 -0.1419  0.1696  0.5824
 1239TIP3   OH225351   1.817   4.292   8.581  0.2870 -0.0748  0.6522
 1239TIP3    H125352   1.902   4.292   8.536  0.2435  0.3296  0.5706
 1239TIP3    H225353   1.754   4.318   8.515  0.0067 -0.9507  0.5584
 1240TIP3   OH225354   4.360   4.183   0.018  0.4383 -1.1453  0.3409
 1240TIP3    H125355   4.429   4.124  -0.013  0.8196 -0.8744  0.6801
 1240TIP3    H225356   4.322   4.138   0.094 -0.0467 -1.4893 -0.0883
 1241TIP3   OH225357   1.878   4.342   6.694  0.4963 -0.3830 -0.2288
 1241TIP3    H125358   1.930   4.266   6.721  0.3161 -0.0830  1.0193
 1241TIP3    H225359   1.806   4.346   6.758  0.3572  0.6831 -0.4318
 1242TIP3   OH225360   4.357   0.048   1.519  0.4730 -0.1664 -0.0448
 1242TIP3    H125361   4.366  -0.039   1.480  0.9031  0.3546 -1.1760
 1242TIP3    H225362   4.286   0.039   1.582  0.2568 -1.2451 -0.4146
 1243TIP3   OH225363   5.676   4.995   2.927  0.4275  0.0013  0.1896
 1243TIP3    H125364   5.767   5.021   2.910 -0.5343  1.3851 -4.0033
 1243TIP3    H225365   5.666   4.913   2.879 -1.0999  1.1848 -1.6540
 1244TIP3   OH225366   5.611   1.578   7.893  0.1708  0.4427 -0.2016
 1244TIP3    H125367   5.522   1.589   7.925  1.1345  0.1418  2.9532
 1244TIP3    H225368   5.637   1.491   7.923  1.2498  0.1455 -1.8651
 1245TIP3   OH225369   2.265   1.595   1.017 -0.4262 -0.7325  0.8204
 1245TIP3    H125370   2.256   1.571   1.109 -4.3777  0.9728  1.0737
 1245TIP3    H225371   2.296   1.686   1.019 -3.2795  0.3498  0.7546
 1246TIP3   OH225372   6.678   0.047   1.920 -0.0518  0.9672  0.0096
 1246TIP3    H125373   6.704   0.005   1.838 -0.8287  0.0429  0.2146
 1246TIP3    H225374   6.618   0.117   1.893  0.0788  0.9777 -0.2477
 1247TIP3   OH225375   0.283   5.895   8.896 -0.4701 -0.0823  0.3334
 1247TIP3    H125376   0.243   5.926   8.815  0.2258 -0.1163 -0.0237
 1247TIP3    H225377   0.210   5.889   8.958 -1.0727 -0.4427 -0.3995
 1248TIP3   OH225378   2.836   5.583   8.085  0.6240 -0.2676  0.7034
 1248TIP3    H125379   2.824   5.657   8.025  2.8033 -0.8085 -0.4906
 1248TIP3    H225380   2.873   5.623   8.164  1.4140 -0.0217  0.2164
 1249TIP3   OH225381   4.013   3.411   0.840  0.1705 -0.1602  0.8375
 1249TIP3    H125382   3.983   3.372   0.759  1.5066 -1.7452  1.0665
 1249TIP3    H225383   3.961   3.492   0.848 -1.8047 -1.2416 -0.2566
 1250TIP3   OH225384   4.132   4.559   1.258 -0.4417 -0.6987  0.4623
 1250TIP3    H125385   4.158   4.642   1.298 -1.3588 -0.0650 -0.2048
 1250TIP3    H225386   4.214   4.509   1.251  0.2902  0.4985  0.0840
 1251TIP3   OH225387   5.425   2.195   1.493  0.0174 -0.1464  0.3499
 1251TIP3    H125388   5.379   2.188   1.577  1.5305 -2.6831  1.0547
 1251TIP3    H225389   5.450   2.106   1.471 -0.8679  0.3125 -3.2035
 1252TIP3   OH225390   0.006   3.661   1.842  0.2398 -0.0379 -0.3757
 1252TIP3    H125391  -0.023   3.684   1.930  0.8159 -0.9782  0.0740
 1252TIP3    H225392   0.100   3.646   1.850  0.0455 -1.7894 -0.7558
 1253TIP3   OH225393   4.726   4.116   8.464  0.2837 -0.1700 -0.6046
 1253TIP3    H125394   4.795   4.050   8.469  0.9738  0.3545 -2.3610
 1253TIP3    H225395   4.734   4.166   8.545  2.4398  0.2836 -1.0276
 1254TIP3   OH225396   5.233   0.199   0.079  0.2979  0.3661 -0.8065
 1254TIP3    H125397   5.257   0.245  -0.001 -0.3221  2.0236 -0.0938
 1254TIP3    H225398   5.187   0.264   0.131  0.9084 -0.5737  1.0150
 1255TIP3   OH225399   4.769   3.941   1.991 -0.0144  1.0604  0.1482
 1255TIP3    H125400   4.725   3.861   2.019  0.5377  0.8857  0.5158
 1255TIP3    H225401   4.701   3.989   1.943 -0.1720  0.0919 -0.6310
 1256TIP3   OH225402   2.125   4.737   8.757  0.5001 -0.1044 -0.1873
 1256TIP3    H125403   2.108   4.764   8.667 -2.2636 -0.7903  0.0230
 1256TIP3    H225404   2.216   4.709   8.757 -0.1252 -2.8348 -3.5316
 1257TIP3   OH225405   1.133   1.807   2.355 -0.4912  0.3381 -0.0211
 1257TIP3    H125406   1.156   1.836   2.444 -0.9059  1.0180 -0.1280
 1257TIP3    H225407   1.087   1.724   2.368 -2.9328  1.6908  0.6475
 1258TIP3   OH225408   1.090   1.298   0.200 -0.0073 -0.0599  0.3238
 1258TIP3    H125409   1.167   1.320   0.149 -0.3211  0.8802  0.2444
 1258TIP3    H225410   1.018   1.343   0.155 -0.3475  0.4394  1.3497
 1259TIP3   OH225411   0.143   3.610   0.632  0.3212 -0.6432 -0.1371
 1259TIP3    H125412   0.205   3.681   0.648  0.0247 -0.4047 -0.0257
 1259TIP3    H225413   0.194   3.541   0.590  0.6919 -0.5099  0.0971
 1260TIP3   OH225414   2.985   2.802   7.708  0.0930  0.4008  0.0292
 1260TIP3    H125415   2.994   2.708   7.728  0.6198  0.7645  1.6222
 1260TIP3    H225416   3.075   2.834   7.706 -0.0879  0.8771 -0.5025
 1261TIP3   OH225417   1.217   2.223   7.108  0.5474 -0.2517 -0.4746
 1261TIP3    H125418   1.159   2.204   7.182  0.1408  0.3296 -0.6333
 1261TIP3    H225419   1.270   2.144   7.098  0.2420 -0.5366  0.1021
 1262TIP3   OH225420   1.311   1.342   7.985 -0.1201 -0.1152  0.3610
 1262TIP3    H125421   1.244   1.372   8.047  0.6458 -0.6465  1.4842
 1262TIP3    H225422   1.330   1.419   7.931 -1.1892  0.2051  0.4144
 1263TIP3   OH225423   4.538   2.844   2.504  0.0815  0.1970  0.5974
 1263TIP3    H125424   4.444   2.831   2.517 -0.1616 -0.4804 -1.4072
 1263TIP3    H225425   4.562   2.916   2.562 -0.6648 -2.5631  4.7179
 1264TIP3   OH225426   3.845   0.491   7.724  0.7253  0.0220 -0.6911
 1264TIP3    H125427   3.766   0.545   7.713  0.9870  0.5061 -0.2395
 1264TIP3    H225428   3.827   0.411   7.674 -0.0057  0.1770 -0.6829
 1265TIP3   OH225429   0.648   6.477   2.109 -0.1525  0.3881  0.3560
 1265TIP3    H125430   0.603   6.430   2.039 -0.9103  1.5103  0.0676
 1265TIP3    H225431   0.694   6.409   2.158  0.6680 -0.3881 -1.4197
 1266TIP3   OH225432   5.605   3.504   8.221 -0.0310 -0.1514  0.0374
 1266TIP3    H125433   5.524   3.489   8.172  0.2414 -0.3723 -0.3590
 1266TIP3    H225434   5.674   3.478   8.160  0.3218 -0.3546  0.5179
 1267TIP3   OH225435   2.637   4.417   0.937 -0.2544 -0.4532  0.4933
 1267TIP3    H125436   2.730   4.396   0.952 -0.0313 -0.7817 -1.1746
 1267TIP3    H225437   2.618   4.485   1.003  1.1337 -0.4535  0.9440
 1268TIP3   OH225438   3.645   0.421   1.290 -0.1724  0.6164  0.1669
 1268TIP3    H125439   3.700   0.498   1.306 -1.0329  1.2976 -0.0911
 1268TIP3    H225440   3.555   0.454   1.297 -0.5609 -0.0235 -1.4180
 1269TIP3   OH225441   4.286   4.228   7.206  0.4674  0.4290 -0.5326
 1269TIP3    H125442   4.249   4.172   7.137 -0.3547 -0.1056  0.3172
 1269TIP3    H225443   4.236   4.310   7.199 -0.5934 -0.1151  0.2904
 1270TIP3   OH225444   0.052   6.356   0.144 -0.8665  0.0603 -0.3566
 1270TIP3    H125445  -0.021   6.408   0.108  0.0855  1.6438 -0.1015
 1270TIP3    H225446   0.096   6.416   0.205 -0.0635 -1.2678  0.4028
 1271TIP3   OH225447   3.586   3.139   0.966 -0.0037 -0.4285  0.6320
 1271TIP3    H125448   3.592   3.046   0.986 -0.5497 -0.3833  1.0451
 1271TIP3    H225449   3.550   3.142   0.877  1.9757 -0.6259 -0.2159
 1272TIP3   OH225450   6.214   4.020   1.034 -0.2754  0.3038  0.2771
 1272TIP3    H125451   6.268   4.079   1.087 -1.2247  1.2361  0.2199
 1272TIP3    H225452   6.124   4.048   1.049 -0.6028  0.3736 -1.5373
 1273TIP3   OH225453   4.804   6.274   2.061 -0.1980  0.5552 -0.9110
 1273TIP3    H125454   4.833   6.183   2.065 -0.7929  0.4012  0.3097
 1273TIP3    H225455   4.878   6.324   2.097  0.5194  0.6796 -2.4719
 1274TIP3   OH225456   2.624   5.989   6.746  0.0508 -0.5140  0.0090
 1274TIP3    H125457   2.620   6.050   6.672  0.9446 -0.1320  0.2650
 1274TIP3    H225458   2.697   5.930   6.724  0.8215  0.0746  0.9312
 1275TIP3   OH225459   3.855   4.850   7.594  0.1912  0.8425 -0.0971
 1275TIP3    H125460   3.824   4.926   7.644 -0.4194  0.0492  0.7503
 1275TIP3    H225461   3.930   4.818   7.644  1.2319  1.6048 -1.1181
 1276TIP3   OH225462   3.580   2.071   0.599  0.0035  0.6132  0.1036
 1276TIP3    H125463   3.610   2.066   0.508 -2.0985 -3.0581 -0.6084
 1276TIP3    H225464   3.653   2.036   0.650  0.0033 -0.4904 -0.6139
 1277TIP3   OH225465   1.531   2.604   0.026 -0.1240  0.1828  0.2446
 1277TIP3    H125466   1.461   2.619  -0.039 -0.5602  0.4475  0.7691
 1277TIP3    H225467   1.498   2.533   0.081  0.0683  0.2346  0.4279
 1278TIP3   OH225468   5.405   4.595   0.899  0.3176  0.1697 -0.4613
 1278TIP3    H125469   5.460   4.519   0.914 -1.4015 -0.6720  2.3066
 1278TIP3    H225470   5.321   4.559   0.869 -0.7691  0.7981  1.6194
 1279TIP3   OH225471   3.190   3.166   0.826  0.8023 -0.0993 -0.4447
 1279TIP3    H125472   3.142   3.161   0.743 -1.0493 -0.6343  0.5966
 1279TIP3    H225473   3.122   3.179   0.892  2.1497 -0.4409  1.0733
 1280TIP3   OH225474   4.273   1.825   2.689 -0.5503  0.1011 -0.0367
 1280TIP3    H125475   4.286   1.917   2.712 -0.3655 -0.0174  0.3328
 1280TIP3    H225476   4.271   1.779   2.773  1.8553 -0.5629 -0.2787
 1281TIP3   OH225477   5.118   3.775   8.712  0.4307  0.2003 -0.3971
 1281TIP3    H125478   5.212   3.757   8.699  0.6218 -0.0043  1.0914
 1281TIP3    H225479   5.074   3.699   8.674  0.9612 -0.5191  0.3805
 1282TIP3   OH225480   0.069   5.216   1.461 -0.7477 -0.0885 -0.8523
 1282TIP3    H125481   0.052   5.184   1.372  0.6308  0.4778 -1.3492
 1282TIP3    H225482   0.121   5.295   1.448  3.1640 -2.1469  0.4325
 1283TIP3   OH225483   4.885   5.612   0.336 -0.2100  0.1565  0.0248
 1283TIP3    H125484   4.845   5.658   0.262  0.0868  0.5662  0.1165
 1283TIP3    H225485   4.910   5.527   0.301 -0.6264  0.1167 -0.1855
 1284TIP3   OH225486   4.161   3.889   8.255 -0.8646  0.1756  0.0299
 1284TIP3    H125487   4.181   3.894   8.348  0.2790 -0.1406 -0.1924
 1284TIP3    H225488   4.128   3.976   8.233 -0.3989  0.4951  0.5614
 1285TIP3   OH225489   0.143   1.913   1.293  0.4571 -0.1511  0.5153
 1285TIP3    H125490   0.190   1.996   1.288 -1.8547  1.2542  0.2136
 1285TIP3    H225491   0.109   1.911   1.383 -0.1917 -0.3326  0.2705
 1286TIP3   OH225492   4.569   6.488   7.004 -0.1541  0.2869  0.2178
 1286TIP3    H125493   4.575   6.425   6.933  0.2867 -0.8637  1.2373
 1286TIP3    H225494   4.519   6.561   6.968  1.2469  0.3622 -1.7067
 1287TIP3   OH225495   0.982   1.542   2.027  0.1969 -0.0308 -0.2464
 1287TIP3    H125496   0.993   1.509   2.117 -1.5702 -0.7586 -0.2455
 1287TIP3    H225497   0.967   1.636   2.038  2.8449  0.4270 -0.0490
 1288TIP3   OH225498   0.813   3.570   2.562  0.3144 -0.2843 -0.3347
 1288TIP3    H125499   0.897   3.524   2.559  1.4256  1.6414 -0.3715
 1288TIP3    H225500   0.827   3.642   2.624 -1.6901 -0.5888  0.5408
 1289TIP3   OH225501   1.754   6.473   7.746  0.0581 -0.3411  0.4691
 1289TIP3    H125502   1.810   6.424   7.686  0.0117  1.0063 -0.7217
 1289TIP3    H225503   1.681   6.413   7.765 -0.0106 -0.7353 -0.9610
 1290TIP3   OH225504   2.197   0.888   0.276 -0.2312  0.2188 -0.3951
 1290TIP3    H125505   2.133   0.839   0.225  1.9279 -2.1238 -1.0346
 1290TIP3    H225506   2.193   0.850   0.363  1.2981 -1.0653 -0.8363
 1291TIP3   OH225507   2.397   5.754   0.504 -0.0854  0.6939  0.6802
 1291TIP3    H125508   2.334   5.711   0.561  0.0003  0.6073  0.7108
 1291TIP3    H225509   2.441   5.819   0.559 -1.6772  2.3162  0.1197
 1292TIP3   OH225510   6.546   2.374   7.946 -0.2534 -0.0883  0.3061
 1292TIP3    H125511   6.574   2.457   7.985  0.7023  0.8044 -2.0678
 1292TIP3    H225512   6.451   2.375   7.951 -0.3393  1.7663 -0.7228
 1293TIP3   OH225513   0.741   0.574   1.596 -0.1081  0.9832 -0.6573
 1293TIP3    H125514   0.836   0.569   1.590 -0.2661 -1.5375 -2.6968
 1293TIP3    H225515   0.711   0.484   1.584 -2.7711  1.6362  0.3095
 1294TIP3   OH225516   2.354   1.262   1.029  0.4810 -0.6009  0.4678
 1294TIP3    H125517   2.282   1.201   1.017 -0.2195  0.2097  0.4340
 1294TIP3    H225518   2.321   1.326   1.092  0.7013  0.5041 -0.5085
 1295TIP3   OH225519   2.828   0.317   1.415  0.0399 -0.2837  0.2303
 1295TIP3    H125520   2.821   0.314   1.320 -0.9298 -0.4907  0.3001
 1295TIP3    H225521   2.792   0.403   1.439 -1.2770 -0.8864  0.5141
 1296TIP3   OH225522   0.469   1.360   1.486  0.3964  0.5314 -0.7215
 1296TIP3    H125523   0.481   1.452   1.462  1.7752  0.2370 -1.2873
 1296TIP3    H225524   0.378   1.353   1.513  0.4678  2.2266  0.0559
 1297TIP3   OH225525   1.609   4.064   8.476  0.4334 -0.4883  0.1693
 1297TIP3    H125526   1.633   4.148   8.437 -3.0896  1.2535  1.2565
 1297TIP3    H225527   1.599   4.005   8.401  1.7317  0.4072 -0.7530
 1298TIP3   OH225528   3.890   6.645   7.741  0.1468 -0.2956 -0.0472
 1298TIP3    H125529   3.909   6.737   7.725  1.0284 -0.1778  1.4908
 1298TIP3    H225530   3.960   6.598   7.696  0.1978 -0.1674 -0.1020
 1299TIP3   OH225531   2.657   5.496   0.344  0.2077  0.5234  0.1881
 1299TIP3    H125532   2.669   5.562   0.412 -2.8868  0.5412  0.8785
 1299TIP3    H225533   2.692   5.416   0.381  2.1546  1.3074  0.1498
 1300TIP3   OH225534   0.221   1.695   1.845 -0.0905 -0.0797 -0.1646
 1300TIP3    H125535   0.301   1.649   1.818 -1.3111 -2.2094 -0.3859
 1300TIP3    H225536   0.250   1.783   1.868  2.4720 -1.0776  0.7072
 1301TIP3   OH225537   2.840   1.201   0.645 -0.6521  0.0958 -0.1065
 1301TIP3    H125538   2.857   1.161   0.560  2.4564  0.4757  0.2000
 1301TIP3    H225539   2.798   1.132   0.696  2.2097 -2.0565 -0.3855
 1302TIP3   OH225540   4.101   2.762   2.737  0.4272  0.7251  0.2226
 1302TIP3    H125541   4.101   2.831   2.803  4.9401  1.5052 -0.3261
 1302TIP3    H225542   4.100   2.681   2.788  1.1650  1.2796  1.1389
 1303TIP3   OH225543   3.068   6.002   8.263 -0.1267 -0.0850  0.3031
 1303TIP3    H125544   3.127   6.067   8.301  0.7064  0.0658 -1.1639
 1303TIP3    H225545   3.100   5.990   8.173 -1.3601 -1.1976 -0.0237
 1304TIP3   OH225546   4.474   2.055   8.137  0.6635  0.0234  0.0726
 1304TIP3    H125547   4.451   2.050   8.044  3.3332 -2.1512 -0.6314
 1304TIP3    H225548   4.467   1.964   8.168 -1.1554  0.8456  2.3518
 1305TIP3   OH225549   6.756   0.019   8.102 -0.8924  1.0093  0.9198
 1305TIP3    H125550   6.681   0.030   8.043  0.0052  1.2612 -0.1851
 1305TIP3    H225551   6.786   0.108   8.120  1.4755  0.8859 -1.7228
 1306TIP3   OH225552   3.994   6.062   0.973 -0.2268  0.8481 -0.2701
 1306TIP3    H125553   4.025   6.049   0.883  0.3164  0.7588 -0.0679
 1306TIP3    H225554   3.898   6.056   0.965 -0.3569  3.0452 -1.2083
 1307TIP3   OH225555   5.326   6.242   1.857 -0.6039 -0.0851  0.2317
 1307TIP3    H125556   5.319   6.337   1.848  0.3008 -0.0743 -0.4319
 1307TIP3    H225557   5.412   6.220   1.823 -0.2804 -1.0111  1.5670
 1308TIP3   OH225558   3.720   0.206   0.025 -0.0945 -0.1167  0.5415
 1308TIP3    H125559   3.718   0.161   0.110  0.2204 -1.4067 -0.1145
 1308TIP3    H225560   3.800   0.259   0.028 -0.5227  0.5225  1.3609
 1309TIP3   OH225561   2.589   6.147   0.827  0.4190  0.1433 -0.0578
 1309TIP3    H125562   2.643   6.158   0.749 -1.3227  1.2457 -1.1893
 1309TIP3    H225563   2.568   6.236   0.855  0.4125 -0.2445  1.2600
 1310TIP3   OH225564   2.231   1.840   2.074 -0.2360  0.3712  0.9443
 1310TIP3    H125565   2.147   1.881   2.054  0.4359  1.0149 -0.8287
 1310TIP3    H225566   2.251   1.868   2.163 -2.7746 -1.4136  2.2082
 1311TIP3   OH225567   0.937   4.373   7.855  0.6550  0.4747 -0.1338
 1311TIP3    H125568   0.998   4.375   7.781  0.0265 -1.2376 -0.7525
 1311TIP3    H225569   0.918   4.465   7.873  0.1138  0.9685 -2.7419
 1312TIP3   OH225570   3.701   1.116   2.911  0.0340 -0.4571  0.0837
 1312TIP3    H125571   3.782   1.076   2.944  0.0381 -0.5291 -0.0132
 1312TIP3    H225572   3.731   1.187   2.854  0.0554  1.3918  2.2351
 1313TIP3   OH225573   6.172   0.124   7.104 -0.4451  0.4565  0.1019
 1313TIP3    H125574   6.097   0.093   7.054 -1.2953  2.1059  0.2844
 1313TIP3    H225575   6.199   0.049   7.157 -0.7157 -0.7356 -1.4148
 1314TIP3   OH225576   5.870   5.230   7.808 -0.0511 -0.5470  0.1662
 1314TIP3    H125577   5.917   5.173   7.747 -1.9888 -1.1941 -0.8081
 1314TIP3    H225578   5.907   5.317   7.794  0.5577 -0.9596 -0.8528
 1315TIP3   OH225579   2.930   1.251   1.529 -0.1649  0.2736  0.1421
 1315TIP3    H125580   2.917   1.157   1.526 -1.6456  0.4403  0.2947
 1315TIP3    H225581   2.886   1.284   1.450 -1.9815  1.0134  1.3702
 1316TIP3   OH225582   5.024   2.449   7.391 -0.5052  0.4876 -0.0998
 1316TIP3    H125583   5.025   2.375   7.331 -1.2670  0.9249 -0.6827
 1316TIP3    H225584   5.111   2.450   7.431 -0.8580 -1.4072  0.7959
 1317TIP3   OH225585   3.301   5.838   7.294 -0.5037 -0.7292  0.0066
 1317TIP3    H125586   3.333   5.920   7.259 -1.4534 -0.2623  0.1938
 1317TIP3    H225587   3.377   5.780   7.294  0.3656  0.3785  0.5926
 1318TIP3   OH225588   5.723   1.861   8.241 -0.1712 -0.3097 -0.2280
 1318TIP3    H125589   5.631   1.887   8.240 -0.0285  0.2072 -0.8631
 1318TIP3    H225590   5.741   1.837   8.332 -0.2099  2.2776  0.5255
 1319TIP3   OH225591   2.213   4.815   8.469 -0.0767 -0.2832 -0.5586
 1319TIP3    H125592   2.178   4.904   8.471  1.4236  0.3403 -0.4447
 1319TIP3    H225593   2.306   4.826   8.450 -0.1937 -1.9494 -2.4324
 1320TIP3   OH225594   0.087   2.372   2.670  0.3455 -0.3582 -0.6495
 1320TIP3    H125595   0.113   2.447   2.724 -0.0723  0.4178 -1.4867
 1320TIP3    H225596   0.002   2.345   2.705 -1.5383  2.1794 -2.7776
 1321TIP3   OH225597   3.349   1.764   1.467 -0.1733 -0.0641 -0.2159
 1321TIP3    H125598   3.374   1.777   1.375  0.1301  2.6754  0.1709
 1321TIP3    H225599   3.346   1.852   1.504 -0.0377 -1.0989  2.5079
 1322TIP3   OH225600   1.107   3.996   8.326  0.3691 -0.6889  0.1341
 1322TIP3    H125601   1.154   3.976   8.245  1.2739  1.0337  0.1936
 1322TIP3    H225602   1.020   4.026   8.297  0.8327  0.3242 -0.2377
 1323TIP3   OH225603   2.410   4.611   1.584 -0.4195 -0.1289 -0.4079
 1323TIP3    H125604   2.410   4.694   1.536  1.3283 -0.2738 -0.7130
 1323TIP3    H225605   2.345   4.558   1.539 -0.1794  0.4126 -1.4302
 1324TIP3   OH225606   0.718   5.625   0.183  0.4787 -0.1916 -0.0714
 1324TIP3    H125607   0.755   5.540   0.204 -0.2352 -0.6445 -0.6129
 1324TIP3    H225608   0.624   5.615   0.198  0.4513  0.6798  0.4398
 1325TIP3   OH225609   0.380   2.978   7.837 -0.3692  0.0230 -0.2665
 1325TIP3    H125610   0.343   3.047   7.782 -2.8727 -2.4683 -2.0125
 1325TIP3    H225611   0.427   2.921   7.776  1.2665 -0.1090  1.0454
 1326TIP3   OH225612   6.561   6.097   8.717 -0.5016  0.4986  0.1241
 1326TIP3    H125613   6.522   6.019   8.677  0.4515 -0.1981  0.5113
 1326TIP3    H225614   6.636   6.117   8.662 -0.4013  0.8037  0.3694
 1327TIP3   OH225615   0.562   0.996   8.798  0.7278  0.4624 -0.2182
 1327TIP3    H125616   0.498   0.987   8.727  1.3484  1.9677 -1.0040
 1327TIP3    H225617   0.647   0.988   8.755  1.1013  0.0519  0.5799
 1328TIP3   OH225618   6.647   1.056   6.676  0.3361 -0.2731  0.2683
 1328TIP3    H125619   6.664   0.964   6.652 -0.5831 -1.4988  3.7147
 1328TIP3    H225620   6.734   1.095   6.685  0.7581 -1.0265 -0.3734
 1329TIP3   OH225621   1.461   5.318   8.063  0.1104 -0.1963  0.5604
 1329TIP3    H125622   1.551   5.296   8.086  1.3158  0.5811 -2.7860
 1329TIP3    H225623   1.440   5.395   8.116  1.4270 -0.3866  1.3907
 1330TIP3   OH225624   6.381   5.106   8.849 -0.0171  0.2801  0.3042
 1330TIP3    H125625   6.470   5.136   8.864 -0.5104  4.1074 -2.8079
 1330TIP3    H225626   6.385   5.059   8.766 -0.8720  0.6971  0.0112
 1331TIP3   OH225627   2.425   6.254   1.042  0.3186 -0.1337 -0.2992
 1331TIP3    H125628   2.478   6.256   1.121  1.5947  1.0602 -1.1245
 1331TIP3    H225629   2.354   6.192   1.061  0.7509 -0.0834  1.6420
 1332TIP3   OH225630   0.089   5.581   0.507  0.1082  0.0467  0.4699
 1332TIP3    H125631   0.086   5.530   0.426 -0.5239 -0.0574  0.5471
 1332TIP3    H225632   0.003   5.565   0.548 -0.0199  0.9991  0.5998
 1333TIP3   OH225633   4.625   4.510   8.579  0.4632 -0.4908  0.0319
 1333TIP3    H125634   4.634   4.589   8.633 -2.3273 -1.1118  1.5707
 1333TIP3    H225635   4.672   4.443   8.628 -1.5230 -0.9031  1.4737
 1334TIP3   OH225636   3.680   4.592   7.725  0.0654  0.5416  0.3764
 1334TIP3    H125637   3.691   4.580   7.631 -3.4160  0.0473 -0.1119
 1334TIP3    H225638   3.681   4.504   7.761  1.3022  0.7240  0.8493
 1335TIP3   OH225639   1.215   6.113   8.819 -0.6956  0.1718  0.3378
 1335TIP3    H125640   1.293   6.161   8.789  0.1712 -1.0223  0.5964
 1335TIP3    H225641   1.250   6.044   8.876 -2.1308  0.9888  2.2952
 1336TIP3   OH225642   6.795   2.132   8.741 -0.2605 -0.4157  0.3113
 1336TIP3    H125643   6.863   2.199   8.750  0.4766 -1.0278 -0.5148
 1336TIP3    H225644   6.777   2.104   8.830  0.2401  0.0822  0.5789
 1337TIP3   OH225645   1.442   2.997   7.607 -0.1859  0.1049 -0.4320
 1337TIP3    H125646   1.451   2.925   7.670  0.9104  0.2657 -0.3748
 1337TIP3    H225647   1.368   2.972   7.553 -1.1349 -0.0512  0.8999
 1338TIP3   OH225648   4.975   5.527   8.369 -1.0231 -0.2443  0.1018
 1338TIP3    H125649   4.887   5.540   8.334 -1.5856 -1.0321  1.1605
 1338TIP3    H225650   4.965   5.535   8.464 -0.2118 -1.6291  0.3429
 1339TIP3   OH225651   3.419   0.649   0.462 -0.3215  0.4272  0.0503
 1339TIP3    H125652   3.344   0.699   0.429 -1.2520  0.5090  2.0932
 1339TIP3    H225653   3.482   0.650   0.391 -1.8508  1.2446 -1.3709
 1340TIP3   OH225654   0.491   4.908   2.585 -0.5094  0.2394 -0.4984
 1340TIP3    H125655   0.437   4.842   2.542 -1.5105 -0.0798  1.1296
 1340TIP3    H225656   0.457   4.991   2.553 -0.4818 -0.0019 -1.1673
 1341TIP3   OH225657   6.702   3.581   8.056  0.9486 -0.1356  0.0598
 1341TIP3    H125658   6.632   3.519   8.036 -0.8984  2.0141 -0.4772
 1341TIP3    H225659   6.776   3.552   8.002 -0.4423 -0.8288 -1.5509
 1342TIP3   OH225660   2.187   0.258   0.005 -0.1511  0.0790  0.6946
 1342TIP3    H125661   2.199   0.171  -0.032 -2.0511  0.1084 -0.1472
 1342TIP3    H225662   2.219   0.318  -0.062 -0.0787  0.0593  0.7115
 1343TIP3   OH225663   6.815   4.140   1.541 -0.1377 -0.2984 -0.2835
 1343TIP3    H125664   6.802   4.046   1.548 -1.0159 -0.0822  2.0077
 1343TIP3    H225665   6.882   4.160   1.606 -1.0124  0.8103  0.3175
 1344TIP3   OH225666   1.785   6.126   7.564 -0.2959 -0.3109  1.1330
 1344TIP3    H125667   1.871   6.093   7.590 -0.6530 -0.4226  2.2553
 1344TIP3    H225668   1.747   6.159   7.646  0.2102  3.3589  0.0288
 1345TIP3   OH225669   2.960   4.499   7.612  0.9018  0.4907 -0.6329
 1345TIP3    H125670   2.955   4.428   7.548  3.0825 -0.7015  0.3926
 1345TIP3    H225671   3.054   4.513   7.624  0.5432  1.4949  1.4180
 1346TIP3   OH225672   2.207   5.428   1.354 -0.5508  0.6503  0.0559
 1346TIP3    H125673   2.188   5.360   1.419 -0.7663  0.1529 -0.5140
 1346TIP3    H225674   2.132   5.425   1.294 -0.8926  1.8565  0.3931
 1347TIP3   OH225675   4.270   6.792   0.279  0.1082 -0.5826 -0.0919
 1347TIP3    H125676   4.214   6.869   0.270  0.3126 -0.6405 -2.4856
 1347TIP3    H225677   4.306   6.799   0.367 -0.6377  1.5371  0.0987
 1348TIP3   OH225678   5.572   6.372   7.644 -0.0999  0.1654  0.6631
 1348TIP3    H125679   5.478   6.355   7.633 -0.2425  0.4280  1.4491
 1348TIP3    H225680   5.608   6.361   7.556 -0.5913 -1.6219  0.6292
 1349TIP3   OH225681   0.447   0.513   7.671  0.0160 -0.4839  0.3873
 1349TIP3    H125682   0.435   0.423   7.702  1.2235 -0.3435  1.3546
 1349TIP3    H225683   0.542   0.525   7.671  0.1019 -0.2774 -2.9220
 1350TIP3   OH225684   0.711   5.020   2.736 -0.0938  0.1396 -0.2938
 1350TIP3    H125685   0.667   5.085   2.792  0.5582  1.1631 -0.9463
 1350TIP3    H225686   0.640   4.965   2.703 -0.9645  1.9304 -1.5486
 1351TIP3   OH225687   5.982   2.950   2.244  0.0342  0.3260  0.0035
 1351TIP3    H125688   6.056   2.996   2.206  0.6634  2.0589  3.0195
 1351TIP3    H225689   5.911   3.014   2.244 -0.8282 -0.5809 -0.7741
 1352TIP3   OH225690   4.701   0.292   8.793 -0.1526 -0.2626 -0.4407
 1352TIP3    H125691   4.766   0.346   8.748  0.0280 -0.6345 -0.6390
 1352TIP3    H225692   4.648   0.353   8.843  1.2524 -0.0639  0.8931
 1353TIP3   OH225693   0.452   0.014   7.342  0.2425 -0.5462 -0.1594
 1353TIP3    H125694   0.383  -0.050   7.323 -2.1092  1.0084  2.3526
 1353TIP3    H225695   0.463   0.063   7.261 -2.1931 -0.4233 -0.4978
 1354TIP3   OH225696   3.710   4.751   0.592  0.1329  0.2041 -0.0081
 1354TIP3    H125697   3.725   4.773   0.500 -3.2180 -0.2798 -0.8021
 1354TIP3    H225698   3.779   4.689   0.613  2.0685  1.6677 -1.5944
 1355TIP3   OH225699   0.539   0.011   0.712 -0.7169 -0.0711 -0.0106
 1355TIP3    H125700   0.602  -0.036   0.658 -0.8719  0.0479 -0.2944
 1355TIP3    H225701   0.566   0.103   0.707  0.4888 -0.2904  1.7456
 1356TIP3   OH225702   5.676   3.652   7.926  0.1539  0.3424 -0.0724
 1356TIP3    H125703   5.610   3.721   7.930 -0.9395 -0.7296  1.6038
 1356TIP3    H225704   5.634   3.582   7.876 -0.6750 -0.9790  2.3476
 1357TIP3   OH225705   0.899   5.587   8.868 -0.3097 -0.8783  0.3154
 1357TIP3    H125706   0.870   5.497   8.851  0.2074 -1.1544  0.8817
 1357TIP3    H225707   0.836   5.620   8.932 -1.0589 -0.5127 -0.5878
 1358TIP3   OH225708   6.364   6.129   0.282  0.4167 -0.0929 -0.0442
 1358TIP3    H125709   6.317   6.180   0.348  1.6574  1.0358  0.0302
 1358TIP3    H225710   6.297   6.077   0.239 -0.8966  1.4099  0.0843
 1359TIP3   OH225711   6.225   6.363   1.872  0.2787 -0.0041  0.5285
 1359TIP3    H125712   6.220   6.350   1.967  1.5979 -0.2658  0.5804
 1359TIP3    H225713   6.307   6.412   1.859  0.0928  0.0571 -0.4729
 1360TIP3   OH225714   1.708   3.906   0.036  0.4037 -0.1334 -0.3849
 1360TIP3    H125715   1.691   3.993   0.000 -1.0717 -0.7782 -1.3348
 1360TIP3    H225716   1.792   3.880  -0.003  1.6110  1.3848  1.0302
 1361TIP3   OH225717   3.268   5.062   6.402  0.0092  0.2671  0.1132
 1361TIP3    H125718   3.318   5.134   6.443 -2.9003  0.5671  3.7372
 1361TIP3    H225719   3.288   4.986   6.457 -0.6484 -0.5098 -0.7124
 1362TIP3   OH225720   5.976   0.384   0.964  0.1710  0.0191 -0.7811
 1362TIP3    H125721   5.890   0.343   0.976  0.1976  0.7017  2.8192
 1362TIP3    H225722   5.959   0.456   0.904 -1.9975  0.5747  0.3823
 1363TIP3   OH225723   5.886   0.559   1.791 -0.0340  0.3035 -0.0415
 1363TIP3    H125724   5.911   0.639   1.744 -0.1320 -0.5335 -1.5591
 1363TIP3    H225725   5.868   0.589   1.881  0.0629  1.9538 -0.5425
 1364TIP3   OH225726   5.453   2.215   8.368  0.2844 -0.3229 -0.3274
 1364TIP3    H125727   5.447   2.127   8.405  1.7158 -0.7265 -0.9973
 1364TIP3    H225728   5.467   2.201   8.274 -2.9120  0.6743 -1.0900
 1365TIP3   OH225729   0.447   3.791   6.670 -0.0475  0.0914  0.0915
 1365TIP3    H125730   0.528   3.759   6.630 -0.5867 -1.9086  0.5183
 1365TIP3    H225731   0.476   3.858   6.732  1.1453  0.3361 -0.6834
 1366TIP3   OH225732   1.999   3.313   0.382  0.2264  0.0920  0.0494
 1366TIP3    H125733   1.905   3.326   0.379 -0.0110 -0.9582  1.6122
 1366TIP3    H225734   2.030   3.371   0.452  0.2747 -1.5984  1.5208
 1367TIP3   OH225735   4.523   3.029   8.370  0.1503  0.0431 -0.6236
 1367TIP3    H125736   4.438   2.987   8.360 -0.5928  1.3627 -0.1251
 1367TIP3    H225737   4.585   2.969   8.328 -1.0288 -0.8848 -1.0927
 1368TIP3   OH225738   4.137   0.209   7.799  0.3154  0.3754 -0.2207
 1368TIP3    H125739   4.086   0.228   7.878  2.0893 -0.3794  1.1830
 1368TIP3    H225740   4.154   0.294   7.760  0.6188  0.9130  1.0347
 1369TIP3   OH225741   2.411   6.755   0.030  0.6533  0.8415 -0.0245
 1369TIP3    H125742   2.428   6.841   0.069 -0.2537  0.5395  1.0574
 1369TIP3    H225743   2.455   6.693   0.088  1.2049  0.5413 -0.7384
 1370TIP3   OH225744   5.386   3.472   0.435  0.4616 -0.2236  0.5142
 1370TIP3    H125745   5.468   3.520   0.424 -0.0753  1.2891  2.5093
 1370TIP3    H225746   5.411   3.380   0.430  1.9168  0.1892 -0.9754
 1371TIP3   OH225747   1.801   4.134   8.052  0.3628  0.1596  0.2120
 1371TIP3    H125748   1.890   4.152   8.081  2.1038 -2.0166 -3.0966
 1371TIP3    H225749   1.761   4.221   8.042  1.6613  1.1509  2.7360
 1372TIP3   OH225750   0.546   5.895   0.070  0.1406 -0.3872  0.2205
 1372TIP3    H125751   0.563   5.869  -0.020 -0.2892 -1.6064  0.4740
 1372TIP3    H225752   0.451   5.902   0.076  0.0707 -1.6798  0.9259
 1373TIP3   OH225753   5.633   3.530   7.599 -0.3557 -0.0164 -0.7113
 1373TIP3    H125754   5.606   3.466   7.534 -1.4724 -0.0548 -0.2398
 1373TIP3    H225755   5.627   3.614   7.554  1.9177 -0.2500 -1.5879
 1374TIP3   OH225756   6.350   1.743   0.338  0.0482  0.0754 -0.0525
 1374TIP3    H125757   6.276   1.768   0.393  0.1454  1.3192 -0.4459
 1374TIP3    H225758   6.394   1.673   0.386 -1.3775 -0.6780  0.1786
 1375TIP3   OH225759   5.202   4.963   0.539 -0.0885 -0.9056  0.3330
 1375TIP3    H125760   5.248   4.930   0.616  2.0015  1.1158  0.0721
 1375TIP3    H225761   5.249   5.043   0.515 -1.2701 -0.9216 -2.4760
 1376TIP3   OH225762   0.791   2.724   0.209  0.5565  0.6521  0.2496
 1376TIP3    H125763   0.819   2.731   0.301  1.0550  0.3945  0.1231
 1376TIP3    H225764   0.699   2.701   0.213  0.5090  0.9157  0.6893
 1377TIP3   OH225765   1.332   2.441   2.172  0.1166  0.3407 -0.5464
 1377TIP3    H125766   1.398   2.436   2.103 -0.6575 -2.4591 -1.2524
 1377TIP3    H225767   1.308   2.349   2.187 -0.8312  0.9839  2.4151
 1378TIP3   OH225768   2.157   5.889   8.745 -0.7987  0.1836 -0.0000
 1378TIP3    H125769   2.232   5.879   8.803 -0.1991  1.3361 -0.5512
 1378TIP3    H225770   2.086   5.917   8.802 -0.4843  0.2915  0.3371
 1379TIP3   OH225771   4.023   0.169   1.502  0.0032 -0.0932 -0.0211
 1379TIP3    H125772   3.996   0.253   1.539 -0.0002  0.4313 -1.1532
 1379TIP3    H225773   4.057   0.192   1.415  0.1174 -1.2548 -0.2919
 1380TIP3   OH225774   3.463   1.198   1.257  0.0464 -0.4585  0.6703
 1380TIP3    H125775   3.427   1.259   1.321 -3.2208 -1.1391 -0.3549
 1380TIP3    H225776   3.465   1.248   1.175 -1.4163 -1.2647  0.1087
 1381TIP3   OH225777   0.663   3.303   1.967  0.3019  0.2628  0.5898
 1381TIP3    H125778   0.653   3.287   1.873 -0.5444 -0.3238  0.7723
 1381TIP3    H225779   0.609   3.236   2.009  0.5795  0.5907  1.4969
 1382TIP3   OH225780   2.785   5.539   2.312  0.6133 -0.0543 -0.0205
 1382TIP3    H125781   2.859   5.594   2.287 -0.1519  0.3554 -1.5161
 1382TIP3    H225782   2.805   5.453   2.274  0.7726 -0.2005  0.3979
 1383TIP3   OH225783   4.732   1.500   1.481 -0.7797  0.3923 -0.5651
 1383TIP3    H125784   4.648   1.544   1.496 -0.6236  0.6813 -0.5289
 1383TIP3    H225785   4.788   1.531   1.552 -0.4433  0.7191 -0.9722
 1384TIP3   OH225786   0.498   1.062   7.683 -0.8242 -0.4778  0.2016
 1384TIP3    H125787   0.513   1.156   7.690 -3.3906  0.0188 -0.2836
 1384TIP3    H225788   0.467   1.036   7.769 -1.0473 -0.7053  0.0527
 1385TIP3   OH225789   6.353   5.219   7.359 -0.0628  0.1564  0.4971
 1385TIP3    H125790   6.373   5.268   7.279 -0.0276  2.0057  1.5870
 1385TIP3    H225791   6.303   5.143   7.328  2.6290 -0.9356 -1.5899
 1386TIP3   OH225792   5.728   3.273   8.689 -0.1467 -0.2147  0.4425
 1386TIP3    H125793   5.661   3.327   8.649 -0.0770  0.7091  1.5303
 1386TIP3    H225794   5.795   3.334   8.717  1.3707 -1.1411 -0.9444
 1387TIP3   OH225795   1.520   2.620   8.356 -0.4119 -0.3454  0.5610
 1387TIP3    H125796   1.574   2.694   8.328 -0.7174  0.0426  0.9799
 1387TIP3    H225797   1.434   2.637   8.316 -0.3356 -0.7500  0.2245
 1388TIP3   OH225798   1.774   2.599   2.062 -0.7476 -0.1102  0.0812
 1388TIP3    H125799   1.840   2.612   2.130 -2.4666  1.2680  1.6121
 1388TIP3    H225800   1.788   2.672   2.002  0.3726 -0.9764 -0.7568
 1389TIP3   OH225801   4.015   2.355   8.046 -0.2660 -0.0317 -0.2155
 1389TIP3    H125802   4.008   2.261   8.063  0.7150 -0.0115  0.3672
 1389TIP3    H225803   4.060   2.390   8.123 -0.5304  0.9023 -0.4725
 1390TIP3   OH225804   0.896   3.009   7.372  0.0507  0.0930  0.0876
 1390TIP3    H125805   0.860   2.976   7.290  0.4520  2.5086 -1.1627
 1390TIP3    H225806   0.981   3.045   7.349  1.0389 -0.8849  1.9784
 1391TIP3   OH225807   3.248   1.383   7.826  0.4167  0.0801  0.3392
 1391TIP3    H125808   3.265   1.355   7.916  0.2091 -0.0184  0.3493
 1391TIP3    H225809   3.207   1.307   7.785  0.1491  0.2590  0.2741
 1392TIP3   OH225810   5.278   1.186   0.252  0.1647 -0.1716  0.0543
 1392TIP3    H125811   5.295   1.123   0.322  0.9286 -0.2961 -0.2345
 1392TIP3    H225812   5.272   1.270   0.296  0.8500 -0.2208  0.2542
 1393TIP3   OH225813   4.691   3.935   0.187  0.0940  0.0924  0.3983
 1393TIP3    H125814   4.776   3.929   0.230  0.7849 -0.0364 -0.9490
 1393TIP3    H225815   4.632   3.967   0.255  1.3571  0.8757  1.1529
 1394TIP3   OH225816   4.793   0.520   8.370  0.2020  0.2328  0.0080
 1394TIP3    H125817   4.703   0.506   8.342 -0.3105  1.6446  0.8498
 1394TIP3    H225818   4.846   0.491   8.295 -0.8661 -1.6492 -0.0963
 1395TIP3   OH225819   0.906   1.529   7.643 -0.4781  0.0003  0.3150
 1395TIP3    H125820   0.941   1.515   7.555  0.4565 -0.6193  0.7785
 1395TIP3    H225821   0.873   1.619   7.641  0.4679  0.3521 -0.3575
 1396TIP3   OH225822   4.925   0.831   0.216 -0.6229 -0.2600  0.1984
 1396TIP3    H125823   4.967   0.795   0.139 -0.8847  0.4862 -0.3068
 1396TIP3    H225824   4.935   0.926   0.207  0.4946 -0.1819  1.7416
 1397TIP3   OH225825   5.502   0.760   7.915 -0.0568 -0.2034  0.4025
 1397TIP3    H125826   5.486   0.679   7.867  0.7086 -0.5830  0.7567
 1397TIP3    H225827   5.483   0.829   7.852 -0.0450 -0.6729 -0.1305
 1398TIP3   OH225828   2.253   3.787   1.225  0.0061  0.2820 -0.1292
 1398TIP3    H125829   2.270   3.701   1.186  0.9088  0.4585 -0.1461
 1398TIP3    H225830   2.158   3.799   1.217  0.0131 -0.2311 -1.1294
 1399TIP3   OH225831   5.945   4.976   8.291  0.3098 -0.5505  0.2862
 1399TIP3    H125832   5.913   4.992   8.380 -0.2087 -1.1894  0.2183
 1399TIP3    H225833   6.036   5.007   8.293 -0.2016  1.0274  0.5527
 1400TIP3   OH225834   5.082   4.292   2.041 -0.8420  0.1293  0.4766
 1400TIP3    H125835   5.007   4.344   2.015 -0.3931  0.0471 -1.1302
 1400TIP3    H225836   5.104   4.241   1.962 -0.0335 -0.9565  1.3699
 1401TIP3   OH225837   6.749   2.717   8.424 -0.4504 -1.0250  0.0349
 1401TIP3    H125838   6.723   2.755   8.340 -0.5933  1.8320  1.2570
 1401TIP3    H225839   6.670   2.721   8.478  0.5361  0.8467  1.4640
 1402TIP3   OH225840   1.035   1.320   6.166 -0.2793  0.0317  0.1183
 1402TIP3    H125841   0.976   1.248   6.144  0.2428 -0.5515  0.6021
 1402TIP3    H225842   1.122   1.285   6.150  0.0124  0.2956  1.0957
 1403TIP3   OH225843   6.768   4.180   2.904  0.1028  0.0563 -0.3197
 1403TIP3    H125844   6.847   4.147   2.947  0.0813 -0.1725 -0.4528
 1403TIP3    H225845   6.796   4.258   2.857  0.2009  0.1043 -0.1810
 1404TIP3   OH225846   4.732   4.918   7.631 -0.1168 -0.4301  0.0060
 1404TIP3    H125847   4.751   4.854   7.563 -0.4199 -0.0516 -0.4444
 1404TIP3    H225848   4.743   4.870   7.713  1.9875 -0.4528 -0.2273
 1405TIP3   OH225849   6.174   3.555   1.627 -0.1055 -0.1978 -0.7726
 1405TIP3    H125850   6.168   3.646   1.657  0.4404  0.0200 -1.3142
 1405TIP3    H225851   6.261   3.526   1.655 -0.5212 -0.7834 -0.0084
 1406TIP3   OH225852   3.524   1.355   1.024  0.1973  0.0128 -0.9199
 1406TIP3    H125853   3.493   1.446   1.021 -2.5237 -0.7182  0.6171
 1406TIP3    H225854   3.482   1.313   0.949 -2.5771 -0.8806  0.9209
 1407TIP3   OH225855   0.420   1.698   8.456 -0.3023 -0.1806 -0.9532
 1407TIP3    H125856   0.456   1.778   8.417  0.4508  0.2570  0.5555
 1407TIP3    H225857   0.330   1.720   8.478 -0.0218  0.3531 -0.3136
 1408TIP3   OH225858   5.818   4.289   1.658 -0.5727 -0.7204  0.0765
 1408TIP3    H125859   5.736   4.303   1.706 -0.2937  2.2427 -0.1207
 1408TIP3    H225860   5.793   4.294   1.566 -0.0887  1.6221  0.0011
 1409TIP3   OH225861   4.522   3.087   8.658 -0.4918 -0.0874  0.5699
 1409TIP3    H125862   4.445   3.141   8.640 -0.0770 -0.0072 -1.2143
 1409TIP3    H225863   4.544   3.050   8.572  1.0063 -0.7140  1.2069
 1410TIP3   OH225864   4.236   0.714   7.718 -0.0175  0.3253 -0.0991
 1410TIP3    H125865   4.314   0.745   7.673 -0.0771  0.5210 -0.0671
 1410TIP3    H225866   4.236   0.619   7.703  0.4851  0.2610  0.3086
 1411TIP3   OH225867   5.790   3.321   1.593 -1.0869 -0.1436 -0.5733
 1411TIP3    H125868   5.779   3.250   1.530 -0.8599 -1.1011  0.4436
 1411TIP3    H225869   5.758   3.398   1.546 -1.2300 -0.8765 -1.7442
 1412TIP3   OH225870   6.739   4.834   2.094 -0.2341 -0.2823  0.6132
 1412TIP3    H125871   6.760   4.903   2.031 -0.5056 -0.6875  0.0682
 1412TIP3    H225872   6.647   4.814   2.077 -0.0132 -1.1486  0.4043
 1413TIP3   OH225873   5.982   5.936   1.957  0.1963  0.2718  0.3217
 1413TIP3    H125874   5.946   5.854   1.924  2.9708 -0.5057 -1.0293
 1413TIP3    H225875   5.988   5.923   2.051  0.3274 -0.9686  0.1593
 1414TIP3   OH225876   6.291   1.714   1.104  0.1652 -0.3432 -0.5608
 1414TIP3    H125877   6.350   1.755   1.040 -0.7230  0.4427 -0.9040
 1414TIP3    H225878   6.338   1.636   1.134  0.7164 -0.5829 -1.9785
 1415TIP3   OH225879   2.351   6.626   8.064  0.3840  0.1667 -0.1007
 1415TIP3    H125880   2.288   6.557   8.042  0.1946 -0.1617  1.3961
 1415TIP3    H225881   2.396   6.593   8.141  1.6041  0.9195 -0.4747
 1416TIP3   OH225882   4.996   5.076   1.529 -0.6265 -0.1309 -0.6826
 1416TIP3    H125883   5.013   5.123   1.610 -1.5692 -1.0188  0.0548
 1416TIP3    H225884   5.065   5.105   1.469 -0.2971  1.0139  0.2242
 1417TIP3   OH225885   2.980   1.125   8.285  0.1020  0.1127 -0.6119
 1417TIP3    H125886   3.024   1.041   8.304  0.6857 -0.3033 -3.3518
 1417TIP3    H225887   3.024   1.188   8.342 -0.7524 -1.4603  1.9723
 1418TIP3   OH225888   4.368   4.289   6.937  0.0100  0.0673  0.6791
 1418TIP3    H125889   4.336   4.378   6.925 -0.3701 -0.0517  0.7748
 1418TIP3    H225890   4.434   4.296   7.006 -1.2551  0.0251  1.9631
 1419TIP3   OH225891   3.855   0.534   8.029  0.4204  0.5819  0.3414
 1419TIP3    H125892   3.882   0.584   7.952 -1.0006  1.3382  0.2837
 1419TIP3    H225893   3.760   0.546   8.032  0.3628 -0.0767  1.7715
 1420TIP3   OH225894   6.088   4.900   2.255 -0.4189 -0.1401 -0.7125
 1420TIP3    H125895   6.182   4.915   2.247 -0.1534 -0.9642  0.5158
 1420TIP3    H225896   6.050   4.945   2.179  0.9838 -0.0902 -1.4269
 1421TIP3   OH225897   6.285   3.173   0.438  0.0084 -0.7184  0.2435
 1421TIP3    H125898   6.265   3.262   0.469  0.4665 -0.5840  0.1647
 1421TIP3    H225899   6.200   3.136   0.415 -0.4362 -0.9983  2.1099
 1422TIP3   OH225900   2.759   6.335   1.033 -0.0060 -0.4073  0.2661
 1422TIP3    H125901   2.801   6.266   1.084  0.5345  0.0901  0.4940
 1422TIP3    H225902   2.735   6.402   1.097 -0.2986 -0.2643  0.0117
 1423TIP3   OH225903   4.395   5.614   8.646 -0.5225 -0.2849 -0.3669
 1423TIP3    H125904   4.399   5.702   8.609  0.0672  0.7210  1.9078
 1423TIP3    H225905   4.323   5.572   8.600  0.0712  0.8813 -2.4931
 1424TIP3   OH225906   0.317   6.287   8.690  0.0996  0.0962  0.5387
 1424TIP3    H125907   0.294   6.195   8.701 -0.6235 -0.0386 -1.6066
 1424TIP3    H225908   0.234   6.331   8.673  0.3804  1.2606  2.0490
 1425TIP3   OH225909   1.705   4.461   0.627  0.2946 -0.2174 -0.5673
 1425TIP3    H125910   1.664   4.479   0.712 -0.6584 -2.3870 -0.4971
 1425TIP3    H225911   1.798   4.478   0.641  0.2405 -1.0786  1.1108
 1426TIP3   OH225912   4.189   6.648   1.471 -0.1998 -0.5478 -0.5603
 1426TIP3    H125913   4.164   6.681   1.557 -1.1975 -0.8505 -0.7292
 1426TIP3    H225914   4.234   6.566   1.489 -2.2705 -1.6984 -0.4235
 1427TIP3   OH225915   3.246   5.423   1.577 -0.1131  0.0966 -0.5841
 1427TIP3    H125916   3.273   5.433   1.486 -0.6967  0.3570 -0.7310
 1427TIP3    H225917   3.177   5.356   1.575  0.0844 -0.1213 -0.2914
 1428TIP3   OH225918   4.824   4.602   8.084 -0.0190  0.0071  0.0638
 1428TIP3    H125919   4.907   4.579   8.125 -0.3532 -0.6344  0.3939
 1428TIP3    H225920   4.765   4.622   8.157 -0.4136 -0.4371 -0.1245
 1429TIP3   OH225921   6.304   2.758   2.436 -0.1297 -0.4612  0.1440
 1429TIP3    H125922   6.327   2.700   2.509 -0.0512  1.0562  1.3784
 1429TIP3    H225923   6.388   2.790   2.403 -0.1811 -0.8891 -0.4291
 1430TIP3   OH225924   3.055   5.969   7.353  0.1112  0.2068  0.0446
 1430TIP3    H125925   3.134   5.928   7.317  0.7028  1.0429  0.3454
 1430TIP3    H225926   2.998   5.982   7.278 -0.3698 -1.6913  0.0114
 1431TIP3   OH225927   6.169   6.722   7.495  0.3501 -0.5465  0.0911
 1431TIP3    H125928   6.233   6.698   7.428 -0.7727 -2.8892 -0.2104
 1431TIP3    H225929   6.142   6.639   7.534 -0.0538  0.6277  2.5449
 1432TIP3   OH225930   3.132   4.528   2.339 -0.0408 -0.4374 -0.1536
 1432TIP3    H125931   3.064   4.544   2.404 -0.4017  1.4591 -0.9031
 1432TIP3    H225932   3.211   4.510   2.390 -0.3391  0.9038  0.8476
 1433TIP3   OH225933   0.556   3.963   8.288  0.2692 -0.2879  0.3050
 1433TIP3    H125934   0.495   3.898   8.322 -0.8221 -0.3832 -1.6445
 1433TIP3    H225935   0.637   3.915   8.273  0.0311 -0.7715  0.5493
 1434TIP3   OH225936   0.473   5.966   2.180 -0.3798  0.4200  0.0799
 1434TIP3    H125937   0.505   5.876   2.191  0.3929  0.6736 -0.0183
 1434TIP3    H225938   0.427   5.986   2.261  1.1143  0.5977  0.9169
 1435TIP3   OH225939   5.454   3.900   8.106  0.6317 -0.1430 -0.6863
 1435TIP3    H125940   5.482   3.960   8.175 -3.2433  1.4154 -0.1776
 1435TIP3    H225941   5.479   3.943   8.024  0.7593  0.5511 -0.2835
 1436TIP3   OH225942   6.613   5.280   0.621  0.3182 -0.2328 -0.0391
 1436TIP3    H125943   6.707   5.284   0.639  0.0535  0.5928  1.3371
 1436TIP3    H225944   6.607   5.248   0.531  1.9818  1.4942 -0.8304
 1437TIP3   OH225945   1.183   6.127   7.539 -0.2083 -0.1147  0.3011
 1437TIP3    H125946   1.103   6.074   7.541  0.4830 -1.2083 -0.1971
 1437TIP3    H225947   1.195   6.148   7.446  0.3636 -0.3994  0.3074
 1438TIP3   OH225948   0.810   5.018   0.992  0.9109 -0.6632  0.2808
 1438TIP3    H125949   0.843   5.071   0.920 -1.0298  0.9085  0.4589
 1438TIP3    H225950   0.797   4.931   0.954 -0.7601  0.3023 -1.5276
 1439TIP3   OH225951   0.314   4.650   0.827  0.0367 -0.4948 -0.1525
 1439TIP3    H125952   0.377   4.699   0.774 -0.4697 -0.9743 -1.2071
 1439TIP3    H225953   0.250   4.716   0.855  0.8848 -0.0355  0.7853
 1440TIP3   OH225954   0.729   4.015   1.735 -0.1099 -0.0380  0.9547
 1440TIP3    H125955   0.814   3.976   1.714 -0.1750  0.9997 -1.5732
 1440TIP3    H225956   0.665   3.952   1.703 -0.2150  1.2337 -1.5478
 1441TIP3   OH225957   5.743   5.315   1.207 -0.0311 -0.5673 -0.3837
 1441TIP3    H125958   5.682   5.311   1.281 -0.5347 -0.3727 -0.7803
 1441TIP3    H225959   5.740   5.227   1.168  1.2828 -1.0935  0.6392
 1442TIP3   OH225960   3.074   1.723   8.674 -0.0055  0.7792  0.1311
 1442TIP3    H125961   3.137   1.689   8.610  0.2917  0.1574  0.7450
 1442TIP3    H225962   3.017   1.649   8.694 -0.4803  1.1404  0.1330
 1443TIP3   OH225963   2.317   2.406   7.819 -0.3356 -0.0401 -0.0136
 1443TIP3    H125964   2.317   2.426   7.913 -1.8640  0.5627 -0.1172
 1443TIP3    H225965   2.333   2.311   7.815 -0.0407 -0.0394  0.8332
 1444TIP3   OH225966   5.398   6.450   7.266  0.3185  0.0088 -0.1617
 1444TIP3    H125967   5.410   6.371   7.320 -0.0423 -1.1241 -1.6590
 1444TIP3    H225968   5.325   6.428   7.208  0.6612  1.1967 -1.0734
 1445TIP3   OH225969   6.538   2.909   7.071 -0.3231  0.0026  0.1791
 1445TIP3    H125970   6.576   2.987   7.031 -0.3152 -0.1120 -0.0403
 1445TIP3    H225971   6.449   2.906   7.036 -0.0178 -0.6223 -0.5886
 1446TIP3   OH225972   2.309   4.574   7.880 -0.2475 -0.0590  0.1156
 1446TIP3    H125973   2.225   4.601   7.844 -0.9283 -0.9629  0.9908
 1446TIP3    H225974   2.303   4.594   7.973 -0.5939 -2.7114  0.7160
 1447TIP3   OH225975   6.018   1.882   1.837  0.2433 -0.2959 -0.2180
 1447TIP3    H125976   6.048   1.873   1.747  0.9328  0.9552 -0.1456
 1447TIP3    H225977   5.923   1.887   1.831  0.2920 -0.1231 -0.8983
 1448TIP3   OH225978   3.407   2.641   6.988 -0.4046  0.5175  0.5265
 1448TIP3    H125979   3.353   2.564   7.005  0.8037 -0.6699 -0.6919
 1448TIP3    H225980   3.379   2.671   6.901  1.8821 -1.1041 -0.8746
 1449TIP3   OH225981   1.732   4.543   1.228  0.5129 -0.5713  0.6194
 1449TIP3    H125982   1.822   4.545   1.194  0.3727 -0.9632  0.2113
 1449TIP3    H225983   1.738   4.583   1.314  1.3311 -1.8331  1.1755
 1450TIP3   OH225984   2.975   4.094   1.702 -0.0517 -0.0029  0.4620
 1450TIP3    H125985   2.975   4.117   1.795  0.0189 -0.3273  0.5460
 1450TIP3    H225986   3.066   4.100   1.676 -0.2390  1.3632  0.0802
 1451TIP3   OH225987   2.499   3.151   1.672  0.7257  0.3588  0.1429
 1451TIP3    H125988   2.486   3.190   1.759  0.6631 -1.0246  0.7742
 1451TIP3    H225989   2.591   3.169   1.652  0.1454  2.8977 -0.6667
 1452TIP3   OH225990   0.919   3.299   8.389 -0.0233  0.4274 -0.1690
 1452TIP3    H125991   0.932   3.359   8.461  0.6198 -0.3109  0.3480
 1452TIP3    H225992   1.005   3.290   8.348 -0.1451 -0.0002 -0.3440
 1453TIP3   OH225993   6.410   3.914   7.733  0.7314  0.5041 -0.3706
 1453TIP3    H125994   6.469   3.939   7.662  0.2543 -0.3499 -1.0826
 1453TIP3    H225995   6.337   3.975   7.727  1.5259  1.6009  0.5462
 1454TIP3   OH225996   6.557   3.424   2.775  0.1863 -0.5113  0.5060
 1454TIP3    H125997   6.590   3.503   2.818  1.6312 -1.4989  1.3050
 1454TIP3    H225998   6.462   3.435   2.777  0.3336  2.1884 -1.3747
 1455TIP3   OH225999   1.035   1.589   6.102  0.2566  0.1754 -0.3374
 1455TIP3    H126000   0.951   1.608   6.143 -0.1116 -0.3047 -0.8551
 1455TIP3    H226001   1.051   1.497   6.121  0.9492  0.4132  0.2511
 1456TIP3   OH226002   1.787   3.084   1.700 -0.1878  0.3027 -0.2064
 1456TIP3    H126003   1.698   3.072   1.734 -0.1997  2.1869  0.5120
 1456TIP3    H226004   1.835   3.124   1.772  0.6852  1.2294 -1.2788
 1457TIP3   OH226005   1.274   4.966   0.187 -0.1343 -0.0218  0.8528
 1457TIP3    H126006   1.293   4.913   0.110 -0.1119  1.1907 -0.0090
 1457TIP3    H226007   1.226   4.908   0.245 -1.3523 -0.5880 -0.6479
 1458TIP3   OH226008   2.242   4.605   6.446  0.1419  0.2414 -0.2425
 1458TIP3    H126009   2.222   4.538   6.381 -0.4652  1.0737 -0.9356
 1458TIP3    H226010   2.168   4.604   6.507  0.5758 -0.3427  0.2897
 1459TIP3   OH226011   4.856   1.643   8.529  0.4630  0.1727  0.4091
 1459TIP3    H126012   4.803   1.606   8.599  1.4155 -1.1774  0.4655
 1459TIP3    H226013   4.817   1.607   8.449  2.0033 -1.8893  0.5150
 1460TIP3   OH226014   3.321   5.888   0.700 -0.3889 -0.0637  0.4873
 1460TIP3    H126015   3.359   5.916   0.783 -1.2301 -0.7338  1.1256
 1460TIP3    H226016   3.382   5.824   0.665 -1.7248 -2.6221  2.4536
 1461TIP3   OH226017   3.700   1.775   1.087  0.3732 -0.2437  0.5995
 1461TIP3    H126018   3.635   1.754   1.020 -0.3057 -0.7144  1.3923
 1461TIP3    H226019   3.783   1.773   1.040 -0.1073 -0.3876 -0.2711
 1462TIP3   OH226020   5.843   2.120   1.447 -0.2840  0.3992  0.4014
 1462TIP3    H126021   5.792   2.060   1.393  1.0852  1.1846 -1.9324
 1462TIP3    H226022   5.794   2.202   1.444  0.2968  0.7386 -0.6219
 1463TIP3   OH226023   3.538   3.410   8.888  0.6213  0.3147 -0.0235
 1463TIP3    H126024   3.533   3.500   8.920 -0.0263  0.3372 -0.1739
 1463TIP3    H226025   3.593   3.364   8.952  1.7934  1.0459 -0.4809
 1464TIP3   OH226026   3.986   5.511   2.022  0.2614  0.7438  0.0410
 1464TIP3    H126027   3.967   5.485   2.113  0.2553 -0.6683 -0.3393
 1464TIP3    H226028   3.903   5.549   1.991 -1.0504 -2.3075 -0.5414
 1465TIP3   OH226029   0.251   5.081   0.747  0.1802  0.0336 -0.3260
 1465TIP3    H126030   0.295   5.081   0.662  0.9466 -0.4341  0.0663
 1465TIP3    H226031   0.313   5.041   0.807  0.0183  1.1951  0.6600
 1466TIP3   OH226032   3.142   1.984   1.958 -0.7431  0.3783 -0.3603
 1466TIP3    H126033   3.068   1.925   1.976  0.2876 -0.6374  0.7684
 1466TIP3    H226034   3.161   2.024   2.043 -1.0355  1.9257 -0.9891
 1467TIP3   OH226035   4.930   0.470   0.025 -0.0295 -0.4263  0.1315
 1467TIP3    H126036   4.988   0.538   0.059 -0.5607  1.3052 -2.1576
 1467TIP3    H226037   4.984   0.421  -0.037 -0.0355 -1.2273  0.7422
 1468TIP3   OH226038   3.697   6.317   2.304 -0.0482  0.0572 -0.8020
 1468TIP3    H126039   3.606   6.343   2.321  0.3358  0.4894  0.6364
 1468TIP3    H226040   3.728   6.379   2.238 -0.6047  0.2856 -0.8540
 1469TIP3   OH226041   3.024   1.792   7.336  0.8824  0.3962  0.1329
 1469TIP3    H126042   2.970   1.749   7.270  2.0375 -0.3160 -0.3728
 1469TIP3    H226043   3.033   1.882   7.306 -0.4465  0.6803  0.5086
 1470TIP3   OH226044   4.024   1.506   1.468  0.5892  0.4679 -0.3680
 1470TIP3    H126045   4.014   1.587   1.418  0.9242  0.9790  0.3710
 1470TIP3    H226046   4.047   1.535   1.556 -0.1174 -0.4134  0.1166
 1471TIP3   OH226047   3.602   4.308   0.219 -0.2591 -0.3336 -0.1010
 1471TIP3    H126048   3.658   4.287   0.144 -0.1736 -1.1475  0.1783
 1471TIP3    H226049   3.513   4.302   0.185 -0.2117 -0.4294 -0.2086
 1472TIP3   OH226050   1.458   0.319   8.874 -0.5205 -0.0462 -0.2211
 1472TIP3    H126051   1.408   0.288   8.950  0.5396  0.3498  0.6646
 1472TIP3    H226052   1.521   0.249   8.857 -1.1946 -0.4420 -1.1911
 1473TIP3   OH226053   6.082   2.274   2.142 -0.2089 -0.0895  0.1667
 1473TIP3    H126054   6.111   2.346   2.198 -0.5094  0.4310 -0.3447
 1473TIP3    H226055   6.163   2.230   2.116 -0.0828 -0.5003  1.2217
 1474TIP3   OH226056   3.337   3.257   8.004  0.1310 -0.3806 -0.3717
 1474TIP3    H126057   3.344   3.313   7.927  0.7226  1.4765  0.9517
 1474TIP3    H226058   3.418   3.205   8.003 -0.7248 -1.7651 -1.9665
 1475TIP3   OH226059   1.783   3.471   1.364  0.5180 -0.5742 -0.3700
 1475TIP3    H126060   1.718   3.410   1.330  0.5949 -0.2833 -1.0593
 1475TIP3    H226061   1.866   3.425   1.355  0.4220 -0.9044  0.4106
 1476TIP3   OH226062   6.233   2.466   2.258  0.2007  0.3491  0.1160
 1476TIP3    H126063   6.307   2.479   2.318  0.4709  0.2258 -0.1863
 1476TIP3    H226064   6.219   2.552   2.218 -1.3593  0.9824  1.9013
 1477TIP3   OH226065   3.252   0.356   8.208 -0.4263 -0.2288 -0.4974
 1477TIP3    H126066   3.348   0.349   8.200 -0.3268  0.1921  0.2605
 1477TIP3    H226067   3.235   0.450   8.200 -0.7264 -0.2464 -0.0977
 1478TIP3   OH226068   6.749   4.014   0.235 -0.2129  0.2427 -0.4389
 1478TIP3    H126069   6.667   4.060   0.221  0.4003  1.1833 -1.0785
 1478TIP3    H226070   6.750   3.995   0.329 -1.5494 -0.5797 -0.5797
 1479TIP3   OH226071   2.595   5.760   8.492 -0.4207  0.7381 -0.4211
 1479TIP3    H126072   2.518   5.811   8.518 -0.4819  0.1779  0.5202
 1479TIP3    H226073   2.667   5.823   8.497 -0.2532  0.4416  2.1541
 1480TIP3   OH226074   0.540   1.615   0.622 -0.0634  0.1217  0.5632
 1480TIP3    H126075   0.454   1.651   0.646  0.0733  0.2251  0.8966
 1480TIP3    H226076   0.525   1.520   0.617 -0.3127  0.1800  0.1398
 1481TIP3   OH226077   2.080   6.583   0.216 -0.0242 -0.2307 -0.3609
 1481TIP3    H126078   2.173   6.607   0.211  0.2127 -0.7668  1.0173
 1481TIP3    H226079   2.043   6.614   0.133  1.2361  0.6105 -0.6431
 1482TIP3   OH226080   1.015   2.462   0.297  0.3945  0.0550 -0.2782
 1482TIP3    H126081   0.942   2.430   0.244 -0.9845  0.4543  1.2931
 1482TIP3    H226082   1.051   2.382   0.337  0.0768 -0.0364 -0.1690
 1483TIP3   OH226083   2.169   0.276   0.672 -0.2657  0.1920  0.1581
 1483TIP3    H126084   2.092   0.239   0.628 -0.5165 -0.0928  0.8212
 1483TIP3    H226085   2.243   0.228   0.635 -0.6092 -1.1595  1.1806
 1484TIP3   OH226086   4.061   6.098   0.717  0.1794  0.8917  0.0846
 1484TIP3    H126087   3.990   6.102   0.654  1.0838 -0.0665 -1.0393
 1484TIP3    H226088   4.135   6.141   0.674  1.1303 -0.7342 -0.0151
 1485TIP3   OH226089   1.578   4.557   7.389  0.1651  0.1809  0.7949
 1485TIP3    H126090   1.548   4.646   7.371 -0.3625 -0.2892 -0.8074
 1485TIP3    H226091   1.500   4.502   7.382  0.9775 -0.7965 -1.4304
 1486TIP3   OH226092   4.643   5.757   7.409 -0.3982  0.1989  0.0051
 1486TIP3    H126093   4.681   5.694   7.470  0.6051  1.0016  0.2255
 1486TIP3    H226094   4.611   5.703   7.337 -1.5290 -0.7645  1.1600
 1487TIP3   OH226095   4.445   6.726   6.865 -0.0261  0.3438 -0.1507
 1487TIP3    H126096   4.510   6.793   6.886  1.4064 -0.9946 -0.1306
 1487TIP3    H226097   4.441   6.727   6.769  0.8768 -0.3094 -0.2109
 1488TIP3   OH226098   3.622   0.824   7.797  0.0900 -0.0870 -0.4892
 1488TIP3    H126099   3.609   0.732   7.776  0.6551 -0.1208 -0.6912
 1488TIP3    H226100   3.692   0.825   7.862 -0.6415  0.1264  0.3156
 1489TIP3   OH226101   1.062   3.083   1.281  0.2938 -0.1883 -0.1324
 1489TIP3    H126102   1.047   2.990   1.261  2.2982 -0.5014 -0.4261
 1489TIP3    H226103   0.983   3.111   1.327 -0.7121 -1.8149 -0.7822
 1490TIP3   OH226104   4.833   3.720   0.961 -0.5154 -0.1458 -0.2448
 1490TIP3    H126105   4.917   3.756   0.934 -0.8801  0.4438 -0.6249
 1490TIP3    H226106   4.805   3.666   0.887 -0.5237 -0.2459 -0.1683
 1491TIP3   OH226107   0.512   2.062   7.830  0.2145 -0.4377  0.2767
 1491TIP3    H126108   0.478   2.053   7.741 -0.8053 -1.7193  0.7663
 1491TIP3    H226109   0.496   2.155   7.852  2.2208  0.3973 -1.5048
 1492TIP3   OH226110   2.496   3.738   0.127  0.2994  1.0580  0.2088
 1492TIP3    H126111   2.416   3.752   0.075 -0.1887  0.7942  0.8750
 1492TIP3    H226112   2.487   3.797   0.202 -1.3700 -1.9448  2.5960
 1493TIP3   OH226113   6.438   3.431   2.473  0.0768  0.2986  0.3197
 1493TIP3    H126114   6.367   3.477   2.427  0.4380  0.3251 -0.2294
 1493TIP3    H226115   6.513   3.491   2.466  0.4473 -0.2023 -0.0665
 1494TIP3   OH226116   2.820   0.147   0.109 -0.3101  0.2900 -0.5148
 1494TIP3    H126117   2.762   0.188   0.174  0.5805  0.9351 -0.1111
 1494TIP3    H226118   2.844   0.218   0.050 -2.0823 -0.5386 -2.3299
 1495TIP3   OH226119   5.407   0.358   8.501 -0.3895  0.2003  0.1341
 1495TIP3    H126120   5.379   0.287   8.444  1.1342 -1.3720  1.2055
 1495TIP3    H226121   5.477   0.401   8.453  0.5973 -0.8509  0.5595
 1496TIP3   OH226122   6.482   0.984   0.323 -0.1280 -0.7936 -0.1149
 1496TIP3    H126123   6.466   1.079   0.327  2.2854 -0.2838 -1.1358
 1496TIP3    H226124   6.453   0.952   0.408  1.4425  1.3134  1.3144
 1497TIP3   OH226125   1.595   3.581   8.553 -0.1053  0.1554 -0.0464
 1497TIP3    H126126   1.584   3.609   8.644 -1.6357 -1.6476  0.3873
 1497TIP3    H226127   1.582   3.487   8.555 -0.1076  0.0634 -2.1511
 1498TIP3   OH226128   2.301   3.684   7.309  0.4586 -0.7469  0.0963
 1498TIP3    H126129   2.332   3.658   7.223  3.1619 -0.5731  0.9195
 1498TIP3    H226130   2.333   3.615   7.368 -0.0850 -0.1458  1.1391
 1499TIP3   OH226131   2.291   6.816   2.405 -0.5467  0.6205 -0.5409
 1499TIP3    H126132   2.319   6.886   2.346 -0.6231 -0.1127 -1.4717
 1499TIP3    H226133   2.210   6.848   2.444 -1.1140  0.6487 -1.7150
 1500TIP3   OH226134   4.689   4.381   2.693 -0.8806  0.0472 -0.4434
 1500TIP3    H126135   4.692   4.364   2.788 -0.5597 -2.2071 -0.8061
 1500TIP3    H226136   4.772   4.424   2.674 -1.6009  1.9942  0.4978
 1501TIP3   OH226137   0.690   4.779   1.458  0.2132  0.0504 -0.0698
 1501TIP3    H126138   0.632   4.750   1.528 -1.8589 -1.8397 -2.3427
 1501TIP3    H226139   0.772   4.733   1.473 -0.8939 -2.0057  0.0114
 1502TIP3   OH226140   4.499   3.916   7.751 -0.0553 -0.0718  0.3339
 1502TIP3    H126141   4.548   3.933   7.832 -0.2211 -0.0171  0.4236
 1502TIP3    H226142   4.542   3.840   7.712 -0.0084 -0.1309  0.5012
 1503TIP3   OH226143   2.453   1.844   8.829  0.2287  0.0382 -0.0777
 1503TIP3    H126144   2.458   1.906   8.901 -0.6870  0.4519 -0.3514
 1503TIP3    H226145   2.509   1.771   8.856  2.3336  1.4885 -0.2895
 1504TIP3   OH226146   5.900   2.186   7.918 -0.4625  0.6990  0.2653
 1504TIP3    H126147   5.840   2.114   7.896 -0.9066  0.5018  1.9598
 1504TIP3    H226148   5.868   2.218   8.003 -0.4527  3.0967 -0.5761
 1505TIP3   OH226149   0.037   0.712   6.827 -0.0824  0.4362  0.0823
 1505TIP3    H126150  -0.035   0.649   6.825  0.8631 -0.7603  1.3036
 1505TIP3    H226151   0.110   0.666   6.785 -0.0286  1.6581 -1.2164
 1506TIP3   OH226152   4.453   2.557   8.718  0.3289  0.7469 -0.3028
 1506TIP3    H126153   4.522   2.623   8.727  0.6955  0.2160  0.9187
 1506TIP3    H226154   4.500   2.474   8.707 -0.0834  0.3565  0.7138
 1507TIP3   OH226155   4.553   6.601   2.015 -0.1020  0.1951  0.2415
 1507TIP3    H126156   4.647   6.584   2.015  0.2146  1.7584 -0.1808
 1507TIP3    H226157   4.534   6.634   1.927 -0.8901  0.5855  0.5421
 1508TIP3   OH226158   1.932   6.361   2.372 -0.3921 -0.1316 -0.5181
 1508TIP3    H126159   1.866   6.300   2.404 -1.0772  0.4424 -0.8016
 1508TIP3    H226160   2.011   6.339   2.422 -1.1492  0.0450  0.8328
 1509TIP3   OH226161   6.128   5.043   6.668 -0.4960 -0.2218  0.1979
 1509TIP3    H126162   6.032   5.041   6.668 -0.5766  1.3200  1.6372
 1509TIP3    H226163   6.150   5.135   6.654  0.7551 -0.4066  0.8218
 1510TIP3   OH226164   2.054   0.783   8.022 -0.3096 -0.4212  0.2910
 1510TIP3    H126165   1.982   0.734   7.983  1.9025 -2.0627 -2.0789
 1510TIP3    H226166   2.041   0.873   7.991 -0.9685 -0.8489 -0.7351
 1511TIP3   OH226167   2.933   4.776   7.518  0.3401  0.0640  0.4612
 1511TIP3    H126168   2.951   4.795   7.610 -3.8161 -0.6599  1.6252
 1511TIP3    H226169   2.922   4.681   7.514 -3.2151  0.3611  0.1832
 1512TIP3   OH226170   4.630   3.400   1.835 -0.5470 -0.6073  0.3397
 1512TIP3    H126171   4.706   3.351   1.865 -1.5246 -1.8486  0.9007
 1512TIP3    H226172   4.591   3.344   1.767 -0.7308  0.2127 -0.2558
 1513TIP3   OH226173   0.902   2.688   8.218 -0.5365  0.3143 -0.2235
 1513TIP3    H126174   0.862   2.697   8.305 -1.1962 -2.4840 -0.1592
 1513TIP3    H226175   0.827   2.681   8.158 -0.0791  1.1765 -0.9332
 1514TIP3   OH226176   6.707   5.845   8.220  0.2007 -0.1483 -0.0332
 1514TIP3    H126177   6.799   5.822   8.203  0.4211  0.7784 -0.1460
 1514TIP3    H226178   6.657   5.777   8.177  0.8390 -0.6290 -0.0272
 1515TIP3   OH226179   6.473   5.315   8.028  0.1143  0.5122  0.3527
 1515TIP3    H126180   6.420   5.381   8.073 -2.6695 -0.4855 -1.1956
 1515TIP3    H226181   6.519   5.269   8.098 -1.3189  1.2595  1.8579
 1516TIP3   OH226182   6.665   3.116   1.169 -0.0265 -0.4376 -0.1259
 1516TIP3    H126183   6.744   3.140   1.119 -0.6252  1.3319 -0.2989
 1516TIP3    H226184   6.623   3.048   1.116 -1.0214  1.8780 -2.5163
 1517TIP3   OH226185   3.323   4.629   1.286 -0.7818 -0.1265 -0.6234
 1517TIP3    H126186   3.297   4.630   1.378 -1.5975 -0.9800 -0.8377
 1517TIP3    H226187   3.376   4.550   1.277  0.8265  0.8717 -0.5066
 1518TIP3   OH226188   6.173   6.453   7.242 -0.1086  0.1491  0.4358
 1518TIP3    H126189   6.247   6.490   7.194 -0.3336  0.7922  0.5702
 1518TIP3    H226190   6.194   6.360   7.250 -0.3873 -0.1238 -1.4995
 1519TIP3   OH226191   2.515   3.814   1.086  0.1304  0.1865  0.0043
 1519TIP3    H126192   2.428   3.818   1.125 -0.6676 -0.0024 -1.6784
 1519TIP3    H226193   2.565   3.757   1.145 -0.1428  2.1261  2.2587
 1520TIP3   OH226194   6.173   5.959   0.463 -0.2778  0.3291 -0.3823
 1520TIP3    H126195   6.215   5.874   0.469 -0.0124  0.4781 -0.1490
 1520TIP3    H226196   6.165   5.975   0.369  0.8068  0.6070 -0.4401
 1521TIP3   OH226197   5.058   4.005   0.862  0.3130 -0.4158  0.1566
 1521TIP3    H126198   4.991   4.023   0.928  0.3591  0.2231  0.0352
 1521TIP3    H226199   5.140   4.006   0.911  0.3766  0.3649  0.0475
 1522TIP3   OH226200   2.527   3.657   8.479 -0.4387 -0.3035  0.3470
 1522TIP3    H126201   2.584   3.732   8.497  1.7719 -1.1978 -2.2655
 1522TIP3    H226202   2.558   3.589   8.539 -1.9454  0.5278  2.1802
 1523TIP3   OH226203   0.457   3.718   8.353  0.0241 -0.4328 -0.3996
 1523TIP3    H126204   0.462   3.684   8.442 -2.6702  0.1915  0.0562
 1523TIP3    H226205   0.398   3.658   8.308  0.2660  0.0551 -1.3941
 1524TIP3   OH226206   2.851   5.668   1.573 -0.3171  0.2403  0.1661
 1524TIP3    H126207   2.833   5.691   1.664  0.3039 -0.3052  0.4334
 1524TIP3    H226208   2.781   5.607   1.549 -0.8094  0.8217  0.0873
 1525TIP3   OH226209   3.307   0.151   0.942  0.5702  0.0148 -0.4136
 1525TIP3    H126210   3.215   0.125   0.941  0.9031 -1.1975 -1.0169
 1525TIP3    H226211   3.305   0.247   0.939 -0.6664  0.0198 -0.0475
 1526TIP3   OH226212   2.078   0.806   8.540  0.5045  0.0904  0.2328
 1526TIP3    H126213   2.032   0.800   8.624 -0.2778  1.2240 -0.0958
 1526TIP3    H226214   2.170   0.792   8.563  0.1981 -0.6730  1.1202
 1527TIP3   OH226215   5.421   5.124   2.826 -0.0998 -0.6395 -0.0142
 1527TIP3    H126216   5.385   5.187   2.888 -0.3731 -0.3587 -0.4473
 1527TIP3    H226217   5.488   5.077   2.875 -0.0620 -0.1770  0.3832
 1528TIP3   OH226218   5.833   2.480   8.310 -0.4691  0.1122 -0.2193
 1528TIP3    H126219   5.770   2.494   8.381 -0.3069 -2.3620  0.4795
 1528TIP3    H226220   5.908   2.535   8.333 -0.6684 -0.1826  1.2013
 1529TIP3   OH226221   1.204   2.370   1.257  0.1716 -0.2868  0.0903
 1529TIP3    H126222   1.178   2.383   1.166 -0.5388  1.3687  0.4958
 1529TIP3    H226223   1.286   2.418   1.265  0.0213 -0.0821  0.4189
 1530TIP3   OH226224   5.574   4.219   0.117 -0.7423 -0.5402 -0.0404
 1530TIP3    H126225   5.519   4.143   0.095  0.1383 -0.4185 -3.0554
 1530TIP3    H226226   5.512   4.285   0.147 -1.5509 -2.3201  2.6067
 1531TIP3   OH226227   3.194   2.838   1.993 -0.7272  0.6407  0.8013
 1531TIP3    H126228   3.100   2.821   1.999 -0.5822 -0.0877  1.1896
 1531TIP3    H226229   3.213   2.893   2.069 -0.9483  1.3081  0.3720
 1532TIP3   OH226230   2.056   5.915   8.473  0.3340  0.6986  0.2672
 1532TIP3    H126231   2.086   5.921   8.564  0.5594  0.4848  0.2094
 1532TIP3    H226232   2.024   6.002   8.452  2.2076  1.3364 -0.1128
 1533TIP3   OH226233   3.319   3.909   3.120 -0.4296  0.2198 -0.0766
 1533TIP3    H126234   3.377   3.981   3.093  1.1068 -0.8946  0.1414
 1533TIP3    H226235   3.378   3.840   3.148 -1.8951 -0.9230  0.2989
 1534TIP3   OH226236   3.467   0.764   8.865 -0.3719 -0.0442  0.0311
 1534TIP3    H126237   3.463   0.838   8.804  0.7314  0.2160  0.2692
 1534TIP3    H226238   3.499   0.691   8.812  3.9325  0.9524  0.9232
 1535TIP3   OH226239   1.300   2.793   1.401 -0.3026 -0.0114 -0.6385
 1535TIP3    H126240   1.257   2.735   1.339 -0.6024  0.5332 -0.9427
 1535TIP3    H226241   1.365   2.840   1.349 -0.9631  0.8770 -0.6683
 1536TIP3   OH226242   1.168   5.364   8.393  0.3523 -0.0364  0.0844
 1536TIP3    H126243   1.188   5.418   8.317 -0.0639 -1.2209 -0.9099
 1536TIP3    H226244   1.247   5.311   8.406 -0.7405 -2.3083 -1.7466
 1537TIP3   OH226245   5.901   3.401   0.834  0.0902  0.1044 -0.2507
 1537TIP3    H126246   5.978   3.376   0.885  0.2540 -0.3042 -0.6934
 1537TIP3    H226247   5.934   3.419   0.747 -0.3107 -0.0527 -0.4397
 1538TIP3   OH226248   6.155   1.749   0.799 -0.1104  0.4187 -0.6067
 1538TIP3    H126249   6.213   1.802   0.854 -0.3922  0.0953  0.0210
 1538TIP3    H226250   6.214   1.689   0.753 -0.0305 -1.0249  1.2628
 1539TIP3   OH226251   2.723   3.919   7.579  0.2559  0.6514 -0.5203
 1539TIP3    H126252   2.700   3.974   7.654  0.0571 -0.3499  0.1760
 1539TIP3    H226253   2.685   3.834   7.600  0.4541  0.2808 -1.6328
 1540TIP3   OH226254   3.876   6.159   0.524  0.0611  0.2009  0.2959
 1540TIP3    H126255   3.795   6.113   0.501 -0.9754  1.5948  1.0441
 1540TIP3    H226256   3.876   6.237   0.468  0.5946  0.5177  0.7283
 1541TIP3   OH226257   1.764   6.755   7.787 -0.0511 -0.5143 -0.7260
 1541TIP3    H126258   1.832   6.760   7.854 -0.2036 -0.8861 -0.5426
 1541TIP3    H226259   1.753   6.661   7.770  0.1279 -0.4200 -1.4134
 1542TIP3   OH226260   0.773   3.319   2.235  0.1490  0.4502  0.1637
 1542TIP3    H126261   0.846   3.380   2.228  0.9230 -0.6004 -1.5936
 1542TIP3    H226262   0.741   3.310   2.146 -0.1713 -1.4273  0.4353
 1543TIP3   OH226263   6.586   1.181   8.535  0.2970 -0.1648 -0.5115
 1543TIP3    H126264   6.598   1.092   8.569  0.6464  0.5096  1.1960
 1543TIP3    H226265   6.673   1.220   8.539 -0.0744  0.6413 -0.1078
 1544TIP3   OH226266   1.875   0.727   1.903  0.9586 -0.5685  0.5145
 1544TIP3    H126267   1.917   0.729   1.989  1.9223  2.8979  0.1102
 1544TIP3    H226268   1.798   0.783   1.912  0.2753 -1.2811 -0.5554
 1545TIP3   OH226269   4.702   5.145   8.427 -0.1022  0.2264  0.0008
 1545TIP3    H126270   4.629   5.204   8.443 -0.1842  0.5352 -1.3370
 1545TIP3    H226271   4.669   5.058   8.448 -0.6061  0.4485  0.1380
 1546TIP3   OH226272   4.992   1.069   1.073  0.1563 -0.5681  0.3860
 1546TIP3    H126273   4.981   1.122   1.151 -2.7802  0.0745 -0.3578
 1546TIP3    H226274   4.995   1.133   1.001 -3.2727 -1.2561 -0.5105
 1547TIP3   OH226275   6.036   2.687   8.252 -0.1938 -0.0466  0.1755
 1547TIP3    H126276   5.986   2.736   8.187 -0.1832 -0.0853  0.1379
 1547TIP3    H226277   6.104   2.643   8.201 -0.1936 -0.0872  0.2114
 1548TIP3   OH226278   6.209   0.070   0.075  0.0024  0.2047 -0.0263
 1548TIP3    H126279   6.167   0.130   0.136  1.1093  0.0971  0.8580
 1548TIP3    H226280   6.190   0.107  -0.011 -1.4776  0.4165  0.3562
 1549TIP3   OH226281   4.182   2.677   1.289  0.4605  0.2572  0.0486
 1549TIP3    H126282   4.209   2.634   1.370 -2.0480 -0.4646  0.5637
 1549TIP3    H226283   4.150   2.607   1.233 -1.3039  1.1401 -0.1016
 1550TIP3   OH226284   0.152   3.503   8.557 -0.0627  0.0470  0.3956
 1550TIP3    H126285   0.165   3.411   8.578  0.2602 -0.8743 -3.2472
 1550TIP3    H226286   0.239   3.535   8.534 -0.1093  1.4484  1.9596
 1551TIP3   OH226287   0.068   3.535   6.439  0.5958  0.1052 -0.1553
 1551TIP3    H126288  -0.019   3.504   6.462  0.4064  1.0729  0.4870
 1551TIP3    H226289   0.079   3.616   6.489  1.3219  0.7206 -1.2659
 1552TIP3   OH226290   0.972   3.536   6.982  0.3222 -0.3409 -0.2813
 1552TIP3    H126291   1.060   3.572   6.974  1.1890 -2.0423  0.9937
 1552TIP3    H226292   0.985   3.446   7.012 -1.8841 -0.1733  1.4592
 1553TIP3   OH226293   2.993   3.306   2.223 -0.3470  0.0407  0.1420
 1553TIP3    H126294   2.987   3.278   2.314 -0.5942  1.2078  0.5001
 1553TIP3    H226295   3.061   3.373   2.223  0.4503 -0.7494 -0.7469
 1554TIP3   OH226296   3.523   3.965   0.587  0.2805  0.2871 -0.3193
 1554TIP3    H126297   3.465   3.983   0.661  0.3238  1.3330 -0.5208
 1554TIP3    H226298   3.538   3.871   0.590 -2.7651 -0.3464 -1.2323
 1555TIP3   OH226299   0.985   0.003   0.508  0.0111  0.0345  0.1517
 1555TIP3    H126300   0.966   0.031   0.418  0.3251  3.2388  0.9441
 1555TIP3    H226301   0.914  -0.057   0.530  0.3856 -1.5086 -2.4494
 1556TIP3   OH226302   5.508   2.243   8.784 -0.1584 -0.0183 -0.1719
 1556TIP3    H126303   5.558   2.273   8.709 -0.3649 -0.2070 -0.3871
 1556TIP3    H226304   5.433   2.197   8.746 -0.4402  0.1676  0.1430
 1557TIP3   OH226305   5.853   0.767   1.620 -0.0902  0.4236 -0.3524
 1557TIP3    H126306   5.862   0.847   1.673  2.1377  0.6580 -0.9882
 1557TIP3    H226307   5.826   0.798   1.534 -1.7236  0.2253  0.0638
 1558TIP3   OH226308   1.879   2.147   2.711  0.1788  0.0603  0.4695
 1558TIP3    H126309   1.848   2.104   2.631  0.6165  0.7254 -0.0666
 1558TIP3    H226310   1.813   2.213   2.731 -0.7232 -1.1140  1.5458
 1559TIP3   OH226311   4.144   1.459   1.015 -0.0247 -0.1468 -0.2107
 1559TIP3    H126312   4.175   1.549   1.009  1.3447 -0.6101 -0.4322
 1559TIP3    H226313   4.149   1.437   1.108  1.0319 -0.4565 -0.3368
 1560TIP3   OH226314   2.021   1.073   0.106  0.2091  0.2256 -0.4095
 1560TIP3    H126315   2.103   1.084   0.058  0.0117  0.3990 -0.7154
 1560TIP3    H226316   2.025   1.139   0.175  0.4432  0.0575 -0.2637
 1561TIP3   OH226317   1.985   2.347   1.326  0.2232  0.4300 -0.3478
 1561TIP3    H126318   1.949   2.411   1.264 -1.3316  0.6690  0.7269
 1561TIP3    H226319   1.951   2.375   1.411  0.2299 -1.3224  0.2765
 1562TIP3   OH226320   5.703   0.447   0.436  0.6439 -0.5837  0.5277
 1562TIP3    H126321   5.797   0.465   0.441  0.6868 -0.6773  0.0807
 1562TIP3    H226322   5.665   0.528   0.401  0.9426 -1.6034 -2.3577
 1563TIP3   OH226323   2.815   1.356   1.306  0.4596 -0.9857 -0.2072
 1563TIP3    H126324   2.786   1.344   1.216 -0.9021 -0.0591  0.0752
 1563TIP3    H226325   2.818   1.451   1.318  1.9715 -1.0751  0.3318
 1564TIP3   OH226326   6.195   4.974   7.265 -0.3276  0.1657  0.6979
 1564TIP3    H126327   6.131   4.930   7.209 -0.5160  0.6676  0.5087
 1564TIP3    H226328   6.275   4.922   7.257 -0.8370 -0.7454  1.3130
 1565TIP3   OH226329   4.118   0.719   8.571 -0.1821  0.2152 -0.0270
 1565TIP3    H126330   4.161   0.750   8.651 -0.1312 -2.1076  0.9191
 1565TIP3    H226331   4.026   0.713   8.594 -0.5318  1.6578 -0.9006
 1566TIP3   OH226332   2.026   1.150   7.883  0.3347  0.1136  0.1853
 1566TIP3    H126333   1.981   1.230   7.911  2.9999  1.4784  0.8730
 1566TIP3    H226334   2.080   1.126   7.958  2.3187 -0.2126 -1.2882
 1567TIP3   OH226335   2.893   5.069   8.262 -0.5380  0.0305  0.0321
 1567TIP3    H126336   2.840   5.078   8.341 -0.9483 -0.1160 -0.2211
 1567TIP3    H226337   2.855   5.131   8.200  0.9544  1.5133  0.5523
 1568TIP3   OH226338   3.840   4.851   0.821 -0.2725  0.1436  0.1633
 1568TIP3    H126339   3.827   4.798   0.900 -1.7381 -0.1995 -0.2682
 1568TIP3    H226340   3.771   4.822   0.761 -1.4657  2.8348  0.0671
 1569TIP3   OH226341   6.550   4.778   6.701 -0.3149  0.1658  0.2269
 1569TIP3    H126342   6.584   4.797   6.614  1.7031 -2.7459  0.2626
 1569TIP3    H226343   6.625   4.746   6.751 -1.8981 -0.6392  2.2644
 1570TIP3   OH226344   0.248   1.342   8.302  0.4102  0.1603  0.1491
 1570TIP3    H126345   0.336   1.376   8.288  0.2417  0.8696  0.7867
 1570TIP3    H226346   0.208   1.342   8.215  0.4356  1.5296  0.1289
 1571TIP3   OH226347   4.256   4.962   1.775  0.0194  0.5701 -0.1741
 1571TIP3    H126348   4.287   5.053   1.771  0.2004  0.4836 -0.8772
 1571TIP3    H226349   4.336   4.910   1.765  0.1293  0.3053  1.7409
 1572TIP3   OH226350   5.219   0.493   8.087 -0.2609  0.3154 -0.5049
 1572TIP3    H126351   5.306   0.455   8.098  0.0922  1.0883 -0.6119
 1572TIP3    H226352   5.228   0.584   8.116 -0.4725  1.0413 -2.5682
 1573TIP3   OH226353   4.103   3.320   1.197  0.2861 -0.0181  0.1330
 1573TIP3    H126354   4.013   3.318   1.165  0.7494 -0.4554 -1.1661
 1573TIP3    H226355   4.135   3.407   1.173  0.1306  0.2627  0.8891
 1574TIP3   OH226356   0.065   0.988   6.818  0.5326 -0.2205  0.0101
 1574TIP3    H126357   0.057   0.902   6.859 -1.6470 -1.0355 -1.9768
 1574TIP3    H226358   0.022   1.048   6.879  1.7715 -0.5091  1.2407
 1575TIP3   OH226359   5.911   5.414   8.055  0.3760 -0.7286  0.6197
 1575TIP3    H126360   5.950   5.478   7.995  0.7445  0.0698  1.6712
 1575TIP3    H226361   5.980   5.349   8.068  1.0894  0.2129  1.7823
 1576TIP3   OH226362   2.232   5.663   8.263  0.3867  0.1608 -0.7370
 1576TIP3    H126363   2.237   5.646   8.357 -0.5171  1.1675 -0.4813
 1576TIP3    H226364   2.284   5.593   8.223 -0.6011 -1.2945  0.4020
 1577TIP3   OH226365   3.962   3.016   2.498  0.4080  0.1292 -0.1681
 1577TIP3    H126366   4.038   2.971   2.461 -0.3681  0.3731 -2.1515
 1577TIP3    H226367   3.999   3.081   2.558  1.6360 -1.4413  0.8807
 1578TIP3   OH226368   4.555   6.796   8.104 -0.6819  0.3088 -0.5754
 1578TIP3    H126369   4.495   6.784   8.031 -0.8505 -0.0848 -0.3820
 1578TIP3    H226370   4.544   6.887   8.130 -1.4474  0.1642 -0.3402
 1579TIP3   OH226371   0.926   1.539   7.379 -0.2671  0.3534 -0.3886
 1579TIP3    H126372   0.932   1.634   7.372 -1.4809  0.3725 -1.3930
 1579TIP3    H226373   0.843   1.516   7.337 -0.7533 -1.0182  1.2002
 1580TIP3   OH226374   1.176   5.737   1.198 -0.1077  0.0389  0.7368
 1580TIP3    H126375   1.131   5.795   1.136 -3.6322 -2.4269  0.6984
 1580TIP3    H226376   1.255   5.709   1.151  1.4349  4.0100  0.5048
 1581TIP3   OH226377   4.084   0.127   0.738 -0.7718 -0.0383  0.0405
 1581TIP3    H126378   4.129   0.136   0.654 -2.9436 -2.8645 -1.5876
 1581TIP3    H226379   4.006   0.182   0.730 -0.6642  0.1765  0.4605
 1582TIP3   OH226380   4.965   6.072   0.580 -0.6404 -0.1178  0.0464
 1582TIP3    H126381   4.872   6.058   0.600 -0.6719 -0.9739 -0.6388
 1582TIP3    H226382   4.967   6.089   0.486 -0.2457  1.4323  0.3096
 1583TIP3   OH226383   6.194   4.673   0.592  0.1285  0.2352 -0.3869
 1583TIP3    H126384   6.214   4.737   0.524  0.5252  0.2622 -0.2495
 1583TIP3    H226385   6.245   4.596   0.568  0.5371  0.3606  0.0585
 1584TIP3   OH226386   3.489   5.642   0.715  0.6149 -0.6091 -0.5399
 1584TIP3    H126387   3.555   5.574   0.712  1.9759  0.6828 -1.3274
 1584TIP3    H226388   3.467   5.659   0.623 -0.2912 -0.5149 -0.3203
 1585TIP3   OH226389   2.029   6.478   1.918  0.1946  0.4017 -0.4018
 1585TIP3    H126390   2.088   6.415   1.876  0.2724 -0.2529  0.6556
 1585TIP3    H226391   1.968   6.503   1.848 -0.3200 -1.4385 -0.6844
 1586TIP3   OH226392   0.943   1.136   1.467 -0.0200 -0.4115  0.1250
 1586TIP3    H126393   0.982   1.069   1.410  0.6952  0.7308 -0.7798
 1586TIP3    H226394   1.012   1.202   1.477 -1.1059  0.7898 -0.0275
 1587TIP3   OH226395   1.037   1.570   8.752  0.1661  0.3696 -0.1413
 1587TIP3    H126396   0.992   1.602   8.674 -1.9809 -1.7118  0.1044
 1587TIP3    H226397   1.070   1.484   8.727 -0.1291 -0.1214  1.0932
 1588TIP3   OH226398   4.352   4.036   0.245 -0.6480 -0.0638 -0.1866
 1588TIP3    H126399   4.423   4.044   0.309 -0.6995 -0.0003 -0.1357
 1588TIP3    H226400   4.273   4.052   0.297 -0.6475  0.6360 -0.3913
 1589TIP3   OH226401   1.990   3.067   0.535 -0.9307 -0.3610 -0.1955
 1589TIP3    H126402   2.006   3.118   0.456 -1.3297 -0.7355 -0.5253
 1589TIP3    H226403   1.982   3.132   0.605 -0.7303 -0.0193 -0.4922
 1590TIP3   OH226404   2.820   4.477   7.961  1.0027  0.4440  0.2596
 1590TIP3    H126405   2.837   4.399   7.908  1.0457  0.3611  0.3921
 1590TIP3    H226406   2.867   4.548   7.917  1.0292  0.3785  0.1821
 1591TIP3   OH226407   6.691   5.728   1.187 -0.4349  0.5331  0.1003
 1591TIP3    H126408   6.606   5.717   1.145 -0.3362 -0.5143  0.1567
 1591TIP3    H226409   6.751   5.676   1.134  0.1583  1.1517  0.1415
 1592TIP3   OH226410   2.962   2.902   2.805  0.0675  0.1530 -0.0741
 1592TIP3    H126411   2.929   2.819   2.770 -0.7965  0.6460 -0.4525
 1592TIP3    H226412   3.054   2.884   2.825  0.0942 -0.6762 -0.8662
 1593TIP3   OH226413   4.520   4.682   2.022  0.2153  0.1826 -0.2912
 1593TIP3    H126414   4.531   4.718   2.110  1.1284 -0.5795 -0.0849
 1593TIP3    H226415   4.591   4.619   2.012  0.1289  0.2514 -1.5770
 1594TIP3   OH226416   0.361   2.546   2.678  0.1563  0.1072  0.3275
 1594TIP3    H126417   0.404   2.473   2.722  0.3397 -0.4445 -0.7334
 1594TIP3    H226418   0.335   2.604   2.749 -0.5068 -1.2545  1.2507
 1595TIP3   OH226419   2.127   3.794   0.223 -0.0340  0.8318 -0.3996
 1595TIP3    H126420   2.143   3.720   0.164 -1.8748  1.3372 -1.6087
 1595TIP3    H226421   2.176   3.772   0.302 -0.7505 -1.8697 -0.6012
 1596TIP3   OH226422   6.631   5.270   0.004  0.3338 -0.6067  0.3267
 1596TIP3    H126423   6.689   5.225   0.065  2.3069 -0.3391 -1.2528
 1596TIP3    H226424   6.610   5.353   0.047  0.0952 -1.2298  1.4497
 1597TIP3   OH226425   3.891   6.443   8.154  0.1496  0.2908  0.2371
 1597TIP3    H126426   3.887   6.396   8.237 -0.5272  0.1154  0.1099
 1597TIP3    H226427   3.849   6.527   8.173  3.8409  2.1241  1.2567
 1598TIP3   OH226428   4.737   2.481   1.099 -1.2968 -0.3695 -0.1531
 1598TIP3    H126429   4.754   2.445   1.186 -1.5680  0.8559  0.4315
 1598TIP3    H226430   4.686   2.413   1.054 -1.5700 -0.8199  0.8081
 1599TIP3   OH226431   1.483   2.444   1.333  0.1728  0.4631 -0.4181
 1599TIP3    H126432   1.506   2.380   1.400  0.4281  0.0973 -0.8469
 1599TIP3    H226433   1.560   2.448   1.276 -0.0333  0.7846 -0.6797
 1600TIP3   OH226434   1.119   1.994   0.212  0.3007 -0.1450  0.2269
 1600TIP3    H126435   1.064   1.941   0.154 -0.5636  1.1415 -0.1755
 1600TIP3    H226436   1.203   2.000   0.167 -0.3964  0.9426 -0.9936
 1601TIP3   OH226437   3.027   2.864   2.382 -0.5454 -0.2676  0.0962
 1601TIP3    H126438   3.088   2.816   2.438  0.6430  1.1667  0.1079
 1601TIP3    H226439   2.947   2.872   2.434  0.0532 -0.1955  1.0301
 1602TIP3   OH226440   6.080   0.443   1.223  0.3456 -0.0138  0.3809
 1602TIP3    H126441   6.034   0.409   1.147  0.6526  0.4563 -0.0163
 1602TIP3    H226442   6.030   0.520   1.249  0.9784  0.5776 -0.1364
 1603TIP3   OH226443   0.468   6.557   6.732  0.2354 -0.4769 -0.2974
 1603TIP3    H126444   0.532   6.586   6.797  0.5973 -0.3681 -0.7004
 1603TIP3    H226445   0.413   6.634   6.717  0.9918 -0.0824 -1.1216
 1604TIP3   OH226446   3.930   0.824   1.102  0.1595 -0.9599  0.6186
 1604TIP3    H126447   3.864   0.835   1.034  0.3747  0.3688  0.6057
 1604TIP3    H226448   3.968   0.911   1.114  2.3280 -1.7854  0.1991
 1605TIP3   OH226449   5.513   4.157   0.404  0.1635  0.6245 -0.0888
 1605TIP3    H126450   5.588   4.178   0.350  0.1352 -0.2990 -0.5004
 1605TIP3    H226451   5.454   4.108   0.347  0.0421 -0.1982  0.7063
 1606TIP3   OH226452   0.626   4.985   0.388 -0.1522 -0.1187 -0.1393
 1606TIP3    H126453   0.663   4.918   0.331 -1.0782  0.9607 -2.1342
 1606TIP3    H226454   0.571   5.037   0.330 -1.7728  0.6086  1.9297
 1607TIP3   OH226455   2.186   5.565   7.894  0.1715  0.4176 -0.6902
 1607TIP3    H126456   2.241   5.499   7.936 -1.6591  0.0058  1.2162
 1607TIP3    H226457   2.234   5.647   7.904  0.5005  0.0577  0.8797
 1608TIP3   OH226458   2.165   0.350   7.367 -0.0394 -0.0391 -0.0059
 1608TIP3    H126459   2.251   0.361   7.408  0.4621  0.4057 -1.1489
 1608TIP3    H226460   2.167   0.407   7.290 -0.8839 -1.0140 -0.7808
 1609TIP3   OH226461   3.731   1.663   2.714  0.4969 -0.0661 -0.0775
 1609TIP3    H126462   3.747   1.749   2.752 -1.0089  0.7631 -1.2240
 1609TIP3    H226463   3.636   1.659   2.701  0.4725 -2.0751  0.3257
 1610TIP3   OH226464   1.841   2.982   0.805 -0.2008 -0.0884 -0.7196
 1610TIP3    H126465   1.892   3.061   0.786  1.1137 -0.7210  0.0132
 1610TIP3    H226466   1.754   3.000   0.770 -0.3263  2.2020  0.5403
 1611TIP3   OH226467   0.237   4.841   1.308  0.2327  0.4535  0.6877
 1611TIP3    H126468   0.223   4.781   1.235  0.9197  0.8589  0.2180
 1611TIP3    H226469   0.254   4.784   1.383  2.3896  0.0308 -0.0478
 1612TIP3   OH226470   1.956   3.328   2.190 -0.2644 -0.2249 -0.0289
 1612TIP3    H126471   1.959   3.409   2.240 -0.5813 -1.2100  1.6516
 1612TIP3    H226472   2.045   3.316   2.158  0.2525 -0.1998  1.3554
 1613TIP3   OH226473   3.758   2.664   8.867 -0.2920 -0.6030  0.1530
 1613TIP3    H126474   3.828   2.662   8.932  0.0369 -0.9716 -0.2064
 1613TIP3    H226475   3.695   2.598   8.897 -0.4133 -0.3815  0.3917
 1614TIP3   OH226476   1.323   4.231   6.737 -0.0304  0.7199  0.5342
 1614TIP3    H126477   1.369   4.288   6.798 -1.8155  2.1167  0.6417
 1614TIP3    H226478   1.241   4.276   6.718 -0.7438 -0.9910 -0.7661
 1615TIP3   OH226479   5.466   3.462   2.271 -0.2529 -0.0036  0.2954
 1615TIP3    H126480   5.406   3.446   2.344 -0.3836 -0.0359  0.1809
 1615TIP3    H226481   5.435   3.405   2.201  0.4590 -0.7042  0.5371
 1616TIP3   OH226482   0.476   4.268   7.985 -0.1497  0.8361  0.0712
 1616TIP3    H126483   0.468   4.360   7.959 -1.0005  0.5136 -0.8968
 1616TIP3    H226484   0.540   4.232   7.924  0.0882  0.7574  0.3674
 1617TIP3   OH226485   4.323   1.740   2.949  0.1141  0.3311  0.3375
 1617TIP3    H126486   4.256   1.741   3.018  1.1676  1.4888  1.3932
 1617TIP3    H226487   4.390   1.680   2.981 -0.4592 -0.9565 -0.7946
 1618TIP3   OH226488   3.961   6.070   2.091  0.0323 -1.2265 -0.6079
 1618TIP3    H126489   3.917   6.024   2.163 -0.1227 -0.3313 -0.1126
 1618TIP3    H226490   3.918   6.156   2.089  1.1032 -0.6843 -0.7429
 1619TIP3   OH226491   2.227   4.069   0.132  0.3019 -0.2826 -0.4430
 1619TIP3    H126492   2.174   4.125   0.189  1.8424  1.8004 -0.8956
 1619TIP3    H226493   2.198   3.980   0.151  1.2606  0.1503  4.2920
 1620TIP3   OH226494   1.420   5.593   7.940  0.0876 -0.1084  0.2781
 1620TIP3    H126495   1.496   5.546   7.976 -0.7192 -1.9958 -0.3332
 1620TIP3    H226496   1.456   5.647   7.870  1.1215  0.6037  1.3118
 1621TIP3   OH226497   0.949   4.362   7.562  0.0355 -0.2442 -0.2792
 1621TIP3    H126498   0.978   4.426   7.496  2.4907 -2.6470 -1.7828
 1621TIP3    H226499   0.871   4.322   7.524  0.4755 -0.4511 -1.0026
 1622TIP3   OH226500   4.590   3.981   8.842 -0.1585  0.6790  0.4923
 1622TIP3    H126501   4.650   3.932   8.785 -1.9434 -1.1323  0.0297
 1622TIP3    H226502   4.631   3.978   8.928  0.9380  0.4416 -0.0236
 1623TIP3   OH226503   4.385   1.782   8.075 -0.2104  0.1088 -0.3222
 1623TIP3    H126504   4.307   1.727   8.078 -0.4254  0.2882 -1.8146
 1623TIP3    H226505   4.420   1.769   7.987  1.0302  0.6093  0.0733
 1624TIP3   OH226506   2.173   0.431   1.102  0.1550  0.5281 -0.0571
 1624TIP3    H126507   2.118   0.396   1.032  0.5837 -0.9062  0.3113
 1624TIP3    H226508   2.117   0.496   1.145 -1.0661 -0.5040 -0.0329
 1625TIP3   OH226509   2.316   0.306   7.062 -0.5815  0.6196  0.4648
 1625TIP3    H126510   2.227   0.295   7.026 -0.5916 -0.3072  0.7332
 1625TIP3    H226511   2.309   0.381   7.121 -1.3544  0.1574  0.9814
 1626TIP3   OH226512   5.516   3.504   1.774  0.3955 -0.2514  0.1260
 1626TIP3    H126513   5.540   3.556   1.851 -2.2813  0.5656  0.5281
 1626TIP3    H226514   5.422   3.486   1.785 -0.5284  1.1406 -3.5613
 1627TIP3   OH226515   5.986   2.489   0.406 -0.6283  0.2171  0.1913
 1627TIP3    H126516   5.995   2.576   0.446  2.2254  0.5208 -0.8589
 1627TIP3    H226517   6.046   2.491   0.332 -0.5736 -2.6397  0.0660
 1628TIP3   OH226518   3.449   4.062   1.451 -0.2319 -0.2965 -0.2855
 1628TIP3    H126519   3.493   4.014   1.521  0.7230 -0.4440 -0.9691
 1628TIP3    H226520   3.499   4.041   1.372 -2.6078 -1.9743 -1.4716
 1629TIP3   OH226521   5.344   5.549   8.576 -0.5660 -0.1350  0.0874
 1629TIP3    H126522   5.300   5.581   8.498 -1.9046  0.5916  1.0948
 1629TIP3    H226523   5.314   5.459   8.586 -0.0263 -0.3797 -0.4857
 1630TIP3   OH226524   0.023   2.725   2.376 -0.2423 -0.2586  0.3528
 1630TIP3    H126525   0.066   2.773   2.306 -1.3264 -0.4947 -0.5063
 1630TIP3    H226526   0.021   2.787   2.450  0.4558  0.1734  0.0178
 1631TIP3   OH226527   3.644   3.335   7.896  0.4560  0.1716  0.0697
 1631TIP3    H126528   3.614   3.262   7.949 -1.6082  0.7541 -0.2127
 1631TIP3    H226529   3.673   3.401   7.960 -0.9531  0.4339  0.4629
 1632TIP3   OH226530   0.097   5.700   0.968  0.3712  0.0149  0.3572
 1632TIP3    H126531   0.177   5.732   0.926  0.6802  0.5895  1.3617
 1632TIP3    H226532   0.027   5.720   0.905  0.6484  2.0641  0.6664
 1633TIP3   OH226533   2.427   4.054   2.680  0.1634  0.2673  0.0660
 1633TIP3    H126534   2.476   4.003   2.743  0.7543  0.5411 -0.1656
 1633TIP3    H226535   2.487   4.065   2.606  0.1271  1.4583  0.1908
 1634TIP3   OH226536   4.339   2.544   2.359 -0.4899 -0.3654  0.3544
 1634TIP3    H126537   4.364   2.609   2.425 -0.8506  0.8664 -0.6810
 1634TIP3    H226538   4.264   2.499   2.397 -0.4650  0.0801  0.9465
 1635TIP3   OH226539   4.872   4.859   0.836  0.3566  0.2862 -0.1676
 1635TIP3    H126540   4.839   4.930   0.891  0.6111 -0.4759  1.0281
 1635TIP3    H226541   4.805   4.790   0.844  1.8656 -1.0533  1.8206
 1636TIP3   OH226542   5.797   6.356   1.593 -0.4484  0.1359  0.2907
 1636TIP3    H126543   5.837   6.417   1.655 -0.8827  0.4521  0.2616
 1636TIP3    H226544   5.851   6.364   1.514 -1.1396  1.3201 -0.1009
 1637TIP3   OH226545   1.210   2.705   7.574  0.4631  0.2631 -0.2223
 1637TIP3    H126546   1.133   2.709   7.518 -0.4325  1.3633  1.0159
 1637TIP3    H226547   1.280   2.673   7.517 -0.7424 -0.0839 -1.5529
 1638TIP3   OH226548   6.376   3.315   7.200  0.2787  0.4027  0.1953
 1638TIP3    H126549   6.281   3.328   7.193  0.2513 -0.2457 -0.9180
 1638TIP3    H226550   6.411   3.350   7.118  0.6519 -2.1068 -0.8157
 1639TIP3   OH226551   6.371   5.148   0.595  0.3891 -0.2099 -0.2265
 1639TIP3    H126552   6.453   5.189   0.568  1.1837 -2.0424 -0.7752
 1639TIP3    H226553   6.378   5.140   0.690  0.3391  0.6484 -0.1454
 1640TIP3   OH226554   3.387   5.028   2.810  0.1232  0.4127 -0.1619
 1640TIP3    H126555   3.425   5.101   2.859 -0.2014 -0.8117  2.0595
 1640TIP3    H226556   3.294   5.030   2.833 -0.5679  1.2076 -2.6936
 1641TIP3   OH226557   3.355   1.153   7.601 -0.2778 -0.5678  0.3445
 1641TIP3    H126558   3.444   1.187   7.611 -0.4711  0.5451 -1.2520
 1641TIP3    H226559   3.320   1.149   7.690  1.0501 -0.1252  0.9063
 1642TIP3   OH226560   5.303   1.577   8.556  0.1405  0.7655  0.1298
 1642TIP3    H126561   5.244   1.629   8.502  0.7113 -0.0881 -1.3945
 1642TIP3    H226562   5.255   1.560   8.636 -1.2842  0.9401 -0.6610
 1643TIP3   OH226563   0.386   5.608   2.344 -0.0155 -0.3474 -0.5685
 1643TIP3    H126564   0.334   5.658   2.407  2.0234  1.2527 -0.0536
 1643TIP3    H226565   0.377   5.517   2.372  0.4915  0.2765  1.8196
 1644TIP3   OH226566   2.645   2.167   2.028 -0.2179 -0.1327  0.0530
 1644TIP3    H126567   2.650   2.207   2.115  0.3385 -0.6963  0.2945
 1644TIP3    H226568   2.558   2.128   2.024 -0.7262  0.9886 -0.1451
 1645TIP3   OH226569   1.909   1.064   2.044 -0.4183 -0.1465  0.0224
 1645TIP3    H126570   1.825   1.053   1.999 -0.5639 -0.7055  0.4141
 1645TIP3    H226571   1.893   1.028   2.132  0.4807 -1.0689 -0.1746
 1646TIP3   OH226572   5.442   2.860   1.648 -0.4338  0.7433 -0.1091
 1646TIP3    H126573   5.395   2.794   1.699 -0.3636 -0.1134 -1.1045
 1646TIP3    H226574   5.529   2.823   1.637  0.3181  2.0341  1.1841
 1647TIP3   OH226575   4.302   2.534   0.089  0.1296  0.2363 -0.1092
 1647TIP3    H126576   4.348   2.618   0.080  0.8838 -0.1187  0.3689
 1647TIP3    H226577   4.330   2.483   0.013 -0.1630  0.3329 -0.2848
 1648TIP3   OH226578   5.129   1.765   2.011  0.6023 -0.2413 -0.2565
 1648TIP3    H126579   5.122   1.833   2.078  1.6082  0.0991 -0.4758
 1648TIP3    H226580   5.049   1.774   1.959 -0.6800 -1.1611  1.4638
 1649TIP3   OH226581   4.975   2.672   7.254 -0.0007  0.2833  0.6650
 1649TIP3    H126582   4.997   2.608   7.322 -0.9407  0.8563  1.5246
 1649TIP3    H226583   4.967   2.620   7.174  0.0778 -0.5497  1.1914
 1650TIP3   OH226584   1.821   5.708   7.898 -0.2794  0.0955  0.3389
 1650TIP3    H126585   1.783   5.626   7.930 -0.8522  0.4306  0.5317
 1650TIP3    H226586   1.839   5.759   7.977  1.6681 -0.5153  0.3262
 1651TIP3   OH226587   1.981   3.146   7.045 -0.3895 -0.1880 -0.0877
 1651TIP3    H126588   2.043   3.219   7.047  0.9725 -1.2987 -0.3306
 1651TIP3    H226589   1.974   3.123   6.952 -0.1237 -0.9287  0.0717
 1652TIP3   OH226590   5.118   0.050   0.801 -0.0047 -0.6834 -0.3736
 1652TIP3    H126591   5.161  -0.007   0.737  0.9637 -1.1039  0.6141
 1652TIP3    H226592   5.163   0.134   0.791  0.5771 -0.9206  0.1558
 1653TIP3   OH226593   2.604   5.158   1.631  0.6432  0.3168 -0.4062
 1653TIP3    H126594   2.658   5.101   1.686  0.3274  1.2220  0.8938
 1653TIP3    H226595   2.531   5.184   1.687 -1.8246 -1.7200 -2.4384
 1654TIP3   OH226596   4.966   0.568   0.316  0.3530  0.3349  0.0403
 1654TIP3    H126597   4.967   0.659   0.286  0.0312  0.0991 -0.7131
 1654TIP3    H226598   5.038   0.563   0.378  1.3050  0.7555 -0.9930
 1655TIP3   OH226599   4.527   4.767   7.129 -0.5209  0.6136 -0.2479
 1655TIP3    H126600   4.610   4.771   7.176 -1.3744 -1.0943  1.5234
 1655TIP3    H226601   4.552   4.757   7.037  1.2715 -0.3040  0.2953
 1656TIP3   OH226602   6.721   3.033   8.031 -0.4354  0.2987 -0.1057
 1656TIP3    H126603   6.781   2.969   7.991 -0.4118  0.0708  0.2962
 1656TIP3    H226604   6.764   3.118   8.016  0.5730  0.0511  1.1720
 1657TIP3   OH226605   3.464   2.308   1.668  0.2010  0.0853  0.1118
 1657TIP3    H126606   3.453   2.285   1.576  1.0224  0.1311 -0.0078
 1657TIP3    H226607   3.377   2.300   1.706  0.0857 -1.2372 -0.3790
 1658TIP3   OH226608   2.575   0.204   8.153  0.1603  0.0943  0.7796
 1658TIP3    H126609   2.546   0.277   8.207  3.8909  1.9080  0.7016
 1658TIP3    H226610   2.667   0.225   8.132  0.9428 -3.8399 -0.6421
 1659TIP3   OH226611   3.637   6.378   7.080  0.2659  1.0375 -0.3066
 1659TIP3    H126612   3.699   6.354   7.149 -0.2591 -0.0462 -0.1986
 1659TIP3    H226613   3.617   6.296   7.036 -0.8321  1.4221 -0.5630
 1660TIP3   OH226614   5.809   3.346   8.097 -0.2307 -0.2541  0.3669
 1660TIP3    H126615   5.808   3.292   8.018  1.3784 -0.4072  0.4331
 1660TIP3    H226616   5.892   3.326   8.140  0.1385  1.7913  0.7247
 1661TIP3   OH226617   0.734   1.801   8.731 -0.0267 -0.3822  0.1722
 1661TIP3    H126618   0.741   1.712   8.766 -0.8431 -0.0018  1.3496
 1661TIP3    H226619   0.651   1.801   8.683  0.0707 -0.3052  0.0015
 1662TIP3   OH226620   0.211   5.820   8.160 -0.0072 -0.9035  0.8642
 1662TIP3    H126621   0.306   5.822   8.173  0.0417  0.8501  0.5208
 1662TIP3    H226622   0.199   5.773   8.077  0.6470 -0.2474  0.3847
 1663TIP3   OH226623   4.983   6.650   0.103 -0.0297  0.2120  0.7370
 1663TIP3    H126624   4.901   6.661   0.055 -1.1871 -2.3118  1.9251
 1663TIP3    H226625   4.983   6.722   0.167 -0.9229  0.6745  0.2361
 1664TIP3   OH226626   0.010   4.681   7.358  0.2247  0.2379  0.8160
 1664TIP3    H126627  -0.059   4.618   7.339  0.7152 -0.0990  0.1546
 1664TIP3    H226628   0.022   4.729   7.277 -0.4901  1.5418  1.4443
 1665TIP3   OH226629   3.664   2.052   0.023  0.0294  0.5081 -0.8358
 1665TIP3    H126630   3.597   2.113  -0.008 -1.0344 -0.4897 -0.5471
 1665TIP3    H226631   3.619   1.968   0.030  0.9257  0.1202  0.8020
 1666TIP3   OH226632   4.619   5.383   1.020 -0.0969  0.2477  0.3204
 1666TIP3    H126633   4.619   5.329   0.941 -0.7490 -0.3913  0.7423
 1666TIP3    H226634   4.645   5.470   0.990  2.0362 -0.5262 -0.2073
 1667TIP3   OH226635   0.221   3.649   1.595  0.5774  0.2157  0.0615
 1667TIP3    H126636   0.255   3.698   1.520  0.5108  0.3029  0.0885
 1667TIP3    H226637   0.130   3.631   1.572  1.0545 -1.3799 -0.7107
 1668TIP3   OH226638   2.816   6.751   8.488  0.8402  0.2272  0.1232
 1668TIP3    H126639   2.769   6.674   8.520  0.6383  0.3031  0.0136
 1668TIP3    H226640   2.776   6.769   8.403  0.3134  0.9511  0.5084
 1669TIP3   OH226641   4.206   4.520   1.944 -0.1445 -0.8305  0.1931
 1669TIP3    H126642   4.256   4.543   1.865 -0.2150  0.2057  0.4385
 1669TIP3    H226643   4.115   4.530   1.918 -0.1961  2.5973  1.2012
 1670TIP3   OH226644   0.787   4.242   1.939  0.0623  0.2046 -0.4350
 1670TIP3    H126645   0.819   4.185   1.869  3.3610 -0.9212  1.7638
 1670TIP3    H226646   0.829   4.327   1.921  1.2803 -0.2061  0.3138
 1671TIP3   OH226647   4.223   4.794   0.592 -0.1568 -0.4019 -0.1499
 1671TIP3    H126648   4.163   4.775   0.520 -0.9217  0.2638  0.3024
 1671TIP3    H226649   4.187   4.747   0.666  0.3801 -0.7165 -0.0845
 1672TIP3   OH226650   0.016   4.752   1.727  0.3392  0.1041  0.1583
 1672TIP3    H126651  -0.020   4.800   1.653 -0.6013 -0.0201  0.5179
 1672TIP3    H226652   0.030   4.818   1.794  2.1758  0.3923 -0.4475
 1673TIP3   OH226653   5.393   4.607   3.036 -0.1881  0.1360  0.9287
 1673TIP3    H126654   5.413   4.540   3.101  2.4636 -0.4317 -0.3424
 1673TIP3    H226655   5.415   4.689   3.080 -0.0210 -0.1053  1.3027
 1674TIP3   OH226656   5.062   1.091   8.438  0.1939 -0.5810  0.7649
 1674TIP3    H126657   5.026   1.050   8.517  1.3878 -1.2802  0.9726
 1674TIP3    H226658   5.031   1.036   8.366 -1.0929  0.1914  0.6910
 1675TIP3   OH226659   2.417   4.214   7.561 -0.1958  0.4349  0.5101
 1675TIP3    H126660   2.466   4.291   7.592  0.8355  0.6133 -1.4313
 1675TIP3    H226661   2.332   4.222   7.603  0.6764  1.3443  2.2214
 1676TIP3   OH226662   5.704   0.176   2.662  0.3643  0.3550  0.2644
 1676TIP3    H126663   5.780   0.149   2.612  0.1405 -0.5834  0.3969
 1676TIP3    H226664   5.736   0.186   2.752  0.3300 -0.0825  0.3281
 1677TIP3   OH226665   6.626   1.852   2.881  0.0379  0.7379 -0.2750
 1677TIP3    H126666   6.705   1.875   2.930 -1.5266  3.8385  1.0899
 1677TIP3    H226667   6.635   1.900   2.798  0.7174 -1.0460 -1.2826
 1678TIP3   OH226668   5.951   2.738   0.588  0.2443 -0.1782  0.0401
 1678TIP3    H126669   5.878   2.784   0.546 -1.0687 -3.3965 -1.4864
 1678TIP3    H226670   6.019   2.805   0.596 -1.4737  2.0049 -2.0199
 1679TIP3   OH226671   1.609   1.310   7.169  0.2173  0.4573 -0.4298
 1679TIP3    H126672   1.645   1.234   7.214 -1.5450  0.4861  1.1530
 1679TIP3    H226673   1.685   1.363   7.146  1.5423 -1.9653 -2.0322
 1680TIP3   OH226674   5.000   0.398   1.154  0.0049 -0.1511 -0.4138
 1680TIP3    H126675   4.927   0.447   1.116  1.2255  1.5323 -0.6883
 1680TIP3    H226676   4.963   0.357   1.232 -1.5857 -0.5661 -1.3248
 1681TIP3   OH226677   3.744   0.470   1.926  0.5597 -0.1395 -0.5053
 1681TIP3    H126678   3.751   0.443   1.834 -1.0912  0.8377 -0.9663
 1681TIP3    H226679   3.725   0.564   1.922 -0.0580 -0.1818  0.8113
 1682TIP3   OH226680   1.205   3.896   1.719  0.3927  0.0908  0.2799
 1682TIP3    H126681   1.254   3.966   1.763  0.2223 -0.5168  1.4862
 1682TIP3    H226682   1.267   3.859   1.656  0.9297  0.4461  0.5933
 1683TIP3   OH226683   0.695   5.168   6.367 -0.8503  0.4528  0.2972
 1683TIP3    H126684   0.611   5.190   6.408 -0.4909  1.2137  0.6479
 1683TIP3    H226685   0.760   5.186   6.435 -0.3322  0.6975 -0.2541
 1684TIP3   OH226686   1.179   1.108   1.840  0.2194  0.1186  0.2197
 1684TIP3    H126687   1.168   1.184   1.783 -2.3997  0.9083  1.5969
 1684TIP3    H226688   1.200   1.036   1.781  0.1042  1.3731 -1.4344
 1685TIP3   OH226689   1.770   3.535   0.054  0.0265 -0.3710 -0.2727
 1685TIP3    H126690   1.681   3.550   0.085 -0.4733 -1.2083 -1.2417
 1685TIP3    H226691   1.805   3.623   0.040  0.1357  0.0380  2.1630
 1686TIP3   OH226692   6.028   2.677   2.463  0.1016  0.0977 -0.1570
 1686TIP3    H126693   6.047   2.608   2.526 -0.3909  2.1671  2.4349
 1686TIP3    H226694   6.110   2.726   2.456 -0.3612  0.9900  0.4138
 1687TIP3   OH226695   0.171   0.483   1.444  0.7139 -0.4836  0.3549
 1687TIP3    H126696   0.193   0.473   1.537 -0.5084  2.0725  1.0146
 1687TIP3    H226697   0.230   0.552   1.413 -0.9412  0.8852  0.1121
 1688TIP3   OH226698   6.353   0.569   8.806 -0.2216 -0.3249 -0.8612
 1688TIP3    H126699   6.387   0.620   8.733  1.2236 -1.7263 -1.2205
 1688TIP3    H226700   6.390   0.609   8.884  2.2109 -1.6892 -1.2301
 1689TIP3   OH226701   5.628   5.882   0.733  0.3395  0.8846 -0.2629
 1689TIP3    H126702   5.657   5.843   0.651  1.2221  1.6768 -0.3557
 1689TIP3    H226703   5.563   5.948   0.707 -0.7013 -0.0735 -0.1570
 1690TIP3   OH226704   1.500   1.443   7.440  0.2735  0.5201  0.2873
 1690TIP3    H126705   1.510   1.514   7.376  0.9092 -0.0034 -0.2028
 1690TIP3    H226706   1.586   1.401   7.443 -0.0531 -0.1320  0.6947
 1691TIP3   OH226707   0.659   0.301   2.245 -0.0633 -0.2086 -0.6024
 1691TIP3    H126708   0.574   0.335   2.219  0.0121  0.0428 -0.5237
 1691TIP3    H226709   0.704   0.375   2.285 -1.1080 -1.1281  2.5987
 1692TIP3   OH226710   6.278   0.716   1.718  0.3871  0.0051  0.7148
 1692TIP3    H126711   6.224   0.692   1.794 -0.4527 -2.7690 -0.6056
 1692TIP3    H226712   6.367   0.718   1.752 -0.0993  0.1578  2.0478
 1693TIP3   OH226713   2.624   1.812   0.728 -0.4405  0.1456 -0.1564
 1693TIP3    H126714   2.626   1.719   0.753 -0.1621 -0.1233 -1.1179
 1693TIP3    H226715   2.541   1.822   0.681  0.0217  0.1067 -1.0057
 1694TIP3   OH226716   1.775   6.412   1.462 -0.0247 -0.3054 -0.3072
 1694TIP3    H126717   1.802   6.400   1.371 -1.9408 -1.0276 -0.8207
 1694TIP3    H226718   1.780   6.324   1.500 -0.4077 -0.2137 -0.0489
 1695TIP3   OH226719   2.002   3.496   0.844 -0.6466  0.3784  0.1796
 1695TIP3    H126720   2.089   3.531   0.824  0.2767 -1.6565  0.3455
 1695TIP3    H226721   1.978   3.536   0.927  1.0014 -0.4085  1.0911
 1696TIP3   OH226722   6.742   2.341   1.466 -0.1350  0.4243  0.6451
 1696TIP3    H126723   6.709   2.329   1.377  1.0841 -0.9791  0.3404
 1696TIP3    H226724   6.667   2.373   1.515 -0.5845  2.2802 -1.0845
 1697TIP3   OH226725   1.598   6.654   1.898  0.1452 -0.3571 -0.0365
 1697TIP3    H126726   1.557   6.614   1.975 -0.3078  0.8012  0.3384
 1697TIP3    H226727   1.624   6.741   1.927  2.6399 -0.9371 -0.3530
 1698TIP3   OH226728   0.831   3.630   0.977  0.1875  0.0296  0.2222
 1698TIP3    H126729   0.925   3.620   0.967  0.4738  0.0929  2.4602
 1698TIP3    H226730   0.794   3.552   0.935  1.2485 -0.2359 -0.2484
 1699TIP3   OH226731   0.803   1.091   8.403 -0.0884  0.2368 -0.2987
 1699TIP3    H126732   0.897   1.075   8.413 -0.4819 -1.4364  1.2584
 1699TIP3    H226733   0.791   1.182   8.432  1.1177  0.7304 -1.2490
 1700TIP3   OH226734   6.676   2.777   2.580 -0.0412 -0.2751  0.1629
 1700TIP3    H126735   6.641   2.763   2.492  1.5771 -0.4653 -0.4884
 1700TIP3    H226736   6.717   2.863   2.577 -1.4082  0.4449  1.2511
 1701TIP3   OH226737   2.497   5.549   6.509 -0.3148 -0.2327 -0.3228
 1701TIP3    H126738   2.565   5.616   6.511 -1.1616  0.6650 -0.7373
 1701TIP3    H226739   2.524   5.490   6.438 -0.1644  0.3236 -0.7330
 1702TIP3   OH226740   3.043   2.408   6.663  0.3379  0.0558  0.2323
 1702TIP3    H126741   3.018   2.361   6.742  0.0754 -0.7458 -0.3065
 1702TIP3    H226742   2.965   2.407   6.608 -0.2209  2.6468  0.8674
 1703TIP3   OH226743   4.186   2.210   0.167  0.6041  0.7002 -0.1815
 1703TIP3    H126744   4.268   2.161   0.175 -0.0266 -0.5706 -0.9952
 1703TIP3    H226745   4.172   2.248   0.253  0.1947 -2.1635  1.1293
 1704TIP3   OH226746   4.913   1.991   8.054 -0.2697 -0.4031 -0.0544
 1704TIP3    H126747   4.973   2.063   8.075 -0.2303 -0.6030  0.5391
 1704TIP3    H226748   4.921   1.980   7.960  0.3037 -0.1398 -0.0409
 1705TIP3   OH226749   0.903   1.692   8.543  0.0411  0.3936 -0.0035
 1705TIP3    H126750   0.828   1.718   8.597 -0.6317  0.7626 -1.0771
 1705TIP3    H226751   0.870   1.698   8.453  0.3313 -2.6493 -0.4079
 1706TIP3   OH226752   1.951   4.920   8.855  0.0993  0.3091  0.3770
 1706TIP3    H126753   2.017   4.853   8.837 -0.2234  0.4683 -1.5598
 1706TIP3    H226754   1.881   4.874   8.901 -0.0584 -0.6782 -0.8174
 1707TIP3   OH226755   1.566   0.574   8.809  0.5354  0.1906  0.8646
 1707TIP3    H126756   1.506   0.647   8.826  0.2310  1.0655 -3.0726
 1707TIP3    H226757   1.523   0.499   8.850 -1.0632  1.5391  1.8240
 1708TIP3   OH226758   5.837   6.085   7.491 -0.0670 -0.1168  0.0655
 1708TIP3    H126759   5.928   6.090   7.518  0.0442  1.6468 -0.5156
 1708TIP3    H226760   5.787   6.089   7.573  0.3385  1.8082  0.2663
 1709TIP3   OH226761   1.944   0.144   0.537  0.4193  0.2829  0.2134
 1709TIP3    H126762   1.920   0.114   0.449 -0.3986 -0.5285  0.7033
 1709TIP3    H226763   1.901   0.229   0.547  1.1889  0.7723 -0.4637
 1710TIP3   OH226764   2.501   0.725   0.490 -0.1393  0.4130 -0.0923
 1710TIP3    H126765   2.592   0.697   0.499 -0.3885 -0.2619  0.4232
 1710TIP3    H226766   2.474   0.690   0.405 -0.6245 -1.5029  0.7941
 1711TIP3   OH226767   2.893   4.358   7.014 -0.9013  0.2834  0.5756
 1711TIP3    H126768   2.942   4.329   6.937 -1.5829 -1.0242  0.6088
 1711TIP3    H226769   2.922   4.448   7.029  2.4532 -0.7787  1.3446
 1712TIP3   OH226770   3.280   2.833   8.156 -0.5404 -0.4820 -0.1857
 1712TIP3    H126771   3.266   2.763   8.092 -0.7359 -0.9286  0.3351
 1712TIP3    H226772   3.374   2.832   8.173 -0.3608  0.2043 -1.0944
 1713TIP3   OH226773   0.480   5.873   8.086  0.1221 -0.4490  0.0385
 1713TIP3    H126774   0.472   5.936   8.015 -2.6324 -0.6907  0.0042
 1713TIP3    H226775   0.517   5.795   8.044 -0.2700 -0.1697 -0.8644
 1714TIP3   OH226776   1.533   2.480   1.991 -0.1138 -0.0307  0.5332
 1714TIP3    H126777   1.480   2.560   1.989 -0.0905 -0.0274 -0.7602
 1714TIP3    H226778   1.622   2.511   2.006  0.0131  0.2811 -0.7253
 1715TIP3   OH226779   1.711   4.000   0.751 -0.3459 -0.2817  0.0934
 1715TIP3    H126780   1.626   4.037   0.728 -1.0017 -0.2340  2.3094
 1715TIP3    H226781   1.691   3.929   0.811  1.1562 -0.6384  0.2138
 1716TIP3   OH226782   1.535   4.051   0.505 -0.1409  0.3273 -0.1263
 1716TIP3    H126783   1.625   4.082   0.499  0.1584 -0.0680  1.6408
 1716TIP3    H226784   1.531   3.975   0.447  1.4683 -1.3311  1.8175
 1717TIP3   OH226785   3.839   2.903   0.207  0.3342 -0.0784 -0.5886
 1717TIP3    H126786   3.860   2.815   0.179 -0.4618  0.0599 -1.6845
 1717TIP3    H226787   3.901   2.959   0.160  0.6122 -0.0236 -0.1608
 1718TIP3   OH226788   5.250   0.998   1.263 -0.5351 -0.0133 -0.8347
 1718TIP3    H126789   5.182   0.968   1.203 -1.1031  0.1796 -0.3022
 1718TIP3    H226790   5.236   0.946   1.342  0.0903 -0.1404 -0.8057
 1719TIP3   OH226791   5.877   5.965   8.254  0.2445 -0.8355 -0.1121
 1719TIP3    H126792   5.860   5.892   8.313  0.2520  0.8411  2.0852
 1719TIP3    H226793   5.793   6.010   8.245  0.7990  0.4770  0.8850
 1720TIP3   OH226794   4.422   0.152   8.254  0.8064 -0.5075 -0.1366
 1720TIP3    H126795   4.391   0.177   8.341 -0.9976 -3.3155  0.1620
 1720TIP3    H226796   4.343   0.126   8.207  1.7366  0.9549 -2.7050
 1721TIP3   OH226797   6.307   3.191   0.132  0.0270 -0.6289 -0.0474
 1721TIP3    H126798   6.246   3.262   0.114  0.9614  0.1816 -0.1015
 1721TIP3    H226799   6.314   3.189   0.228  0.7299 -0.0006 -0.0787
 1722TIP3   OH226800   4.860   2.692   2.727 -0.3048  0.7010 -0.3894
 1722TIP3    H126801   4.793   2.738   2.778 -0.0784  0.5857  0.0175
 1722TIP3    H226802   4.813   2.660   2.650 -1.6205 -2.5398  1.5810
 1723TIP3   OH226803   5.795   2.628   1.115 -0.4338  0.5766  0.3549
 1723TIP3    H126804   5.800   2.564   1.044 -0.4653 -1.1888  1.8842
 1723TIP3    H226805   5.706   2.665   1.107 -0.2153  0.8855 -0.8801
 1724TIP3   OH226806   1.518   0.830   8.237 -0.2844 -0.1369  0.0884
 1724TIP3    H126807   1.554   0.761   8.291  0.0322  1.4921  2.0585
 1724TIP3    H226808   1.464   0.882   8.297 -2.1084  0.2350 -1.7450
 1725TIP3   OH226809   2.465   0.521   0.294 -0.1650 -0.2991 -0.2959
 1725TIP3    H126810   2.498   0.575   0.223  0.6384  0.0888  0.3595
 1725TIP3    H226811   2.509   0.437   0.283  0.1802 -0.1470 -0.0966
 1726TIP3   OH226812   0.579   6.148   0.239 -0.0703  0.2373  0.4152
 1726TIP3    H126813   0.567   6.055   0.225 -3.3249  0.7307 -0.9491
 1726TIP3    H226814   0.516   6.171   0.308  0.7539  1.4368  0.8198
 1727TIP3   OH226815   2.890   0.851   7.508 -0.1424  0.1796  0.0969
 1727TIP3    H126816   2.861   0.766   7.475 -0.3532  0.1162  0.4443
 1727TIP3    H226817   2.903   0.904   7.430  1.1921 -0.5493 -0.2255
 1728TIP3   OH226818   0.130   0.941   2.405  0.4927  0.2617  0.2937
 1728TIP3    H126819   0.185   1.003   2.454  1.4366  0.3298 -0.8234
 1728TIP3    H226820   0.109   0.987   2.324 -1.1586  0.1923  0.6380
 1729TIP3   OH226821   0.488   5.513   8.694  0.2794  0.0552 -0.3018
 1729TIP3    H126822   0.531   5.442   8.741  0.4554  0.6575  0.4786
 1729TIP3    H226823   0.555   5.547   8.635  1.0226  1.1633  1.0999
 1730TIP3   OH226824   3.805   1.654   1.690  0.6049  0.5544 -0.4795
 1730TIP3    H126825   3.830   1.714   1.620 -1.3403  0.1539 -1.5743
 1730TIP3    H226826   3.710   1.644   1.682 -0.1600  2.2916  3.6520
 1731TIP3   OH226827   4.114   2.305   8.439 -0.5641  0.1203 -0.3817
 1731TIP3    H126828   4.161   2.285   8.358  1.2150  0.9176  0.3870
 1731TIP3    H226829   4.156   2.385   8.471 -0.8187 -0.4983  1.6069
 1732TIP3   OH226830   3.396   1.197   1.729  0.1488 -1.0317 -0.1942
 1732TIP3    H126831   3.356   1.283   1.743  0.2956 -1.0184  0.1794
 1732TIP3    H226832   3.399   1.186   1.634 -1.6961 -1.4953 -0.2388
 1733TIP3   OH226833   5.450   2.606   1.079 -0.2348  0.5680 -0.2051
 1733TIP3    H126834   5.496   2.534   1.123  2.6113  1.5586 -1.3481
 1733TIP3    H226835   5.487   2.685   1.118 -1.5326  1.4286 -0.6786
 1734TIP3   OH226836   2.125   6.036   1.328  0.3836 -0.4129 -0.2822
 1734TIP3    H126837   2.060   6.101   1.302  1.0527  0.4051  0.0065
 1734TIP3    H226838   2.078   5.953   1.330 -1.3359  0.4844  2.3587
 1735TIP3   OH226839   5.933   4.830   2.524 -0.0069  0.3940 -0.3926
 1735TIP3    H126840   5.965   4.866   2.441 -2.3232 -1.1439 -2.1007
 1735TIP3    H226841   5.877   4.898   2.560 -1.5813 -0.0744 -1.8232
 1736TIP3   OH226842   4.090   3.392   8.028  0.3240  0.4600  0.2582
 1736TIP3    H126843   4.094   3.301   7.998 -0.1399  0.5320 -0.0385
 1736TIP3    H226844   4.077   3.443   7.949 -2.7355  0.5136  0.6491
 1737TIP3   OH226845   0.543   3.850   1.060  0.2257 -0.4710  0.0012
 1737TIP3    H126846   0.551   3.946   1.062 -0.6857 -0.3153 -1.6385
 1737TIP3    H226847   0.612   3.823   0.998 -1.6234 -0.5112 -2.1713
 1738TIP3   OH226848   3.858   4.251   7.844  0.3033 -0.4473  0.0144
 1738TIP3    H126849   3.763   4.250   7.840  0.2036 -1.7116  1.6681
 1738TIP3    H226850   3.878   4.271   7.936  1.6185 -1.2490 -0.0709
 1739TIP3   OH226851   2.123   3.625   8.440 -0.2772 -0.0900 -0.0173
 1739TIP3    H126852   2.089   3.547   8.397 -0.8290 -0.4001  0.9443
 1739TIP3    H226853   2.048   3.661   8.487  0.4088 -0.0838  1.1217
 1740TIP3   OH226854   1.101   0.992   0.186  0.0588 -0.4371  0.0976
 1740TIP3    H126855   1.103   1.069   0.243 -1.9953  0.2678 -0.6652
 1740TIP3    H226856   1.013   0.956   0.199  0.9378 -2.6534  0.3659
 1741TIP3   OH226857   1.480   3.590   0.184  0.3504 -0.4289 -0.0735
 1741TIP3    H126858   1.419   3.592   0.110 -0.7375  1.8824  0.7677
 1741TIP3    H226859   1.431   3.547   0.254  0.3730 -0.2284  0.0664
 1742TIP3   OH226860   1.559   6.492   1.143  0.1389  0.1364  0.1951
 1742TIP3    H126861   1.528   6.580   1.167  1.1706  0.4729  0.3346
 1742TIP3    H226862   1.508   6.470   1.065  0.0688  0.9832 -0.0098
 1743TIP3   OH226863   5.677   5.283   8.871 -0.9402  0.1362 -0.0977
 1743TIP3    H126864   5.618   5.224   8.824 -1.0364  0.4622 -0.3897
 1743TIP3    H226865   5.639   5.370   8.858  0.0608  0.4513 -0.9983
 1744TIP3   OH226866   6.114   2.206   8.485  0.1651 -0.5089  0.4115
 1744TIP3    H126867   6.052   2.154   8.433 -0.2978  0.9444 -0.5627
 1744TIP3    H226868   6.168   2.141   8.530 -0.9668 -1.8182 -0.0463
 1745TIP3   OH226869   3.629   6.095   6.974 -0.0898 -0.1878  0.6851
 1745TIP3    H126870   3.707   6.120   6.924 -0.5227  0.5363  0.3551
 1745TIP3    H226871   3.597   6.016   6.930  0.6882 -0.7335  1.0810
 1746TIP3   OH226872   3.103   3.205   7.894 -0.0282  0.2209  0.5103
 1746TIP3    H126873   3.101   3.113   7.866 -1.7510 -0.1832  1.7654
 1746TIP3    H226874   3.175   3.209   7.958 -0.2918 -0.4108  0.8624
 1747TIP3   OH226875   6.429   6.103   1.390  0.3898  0.3466  0.0862
 1747TIP3    H126876   6.390   6.181   1.430 -0.0192 -0.0492  0.4712
 1747TIP3    H226877   6.523   6.120   1.391  0.2592  1.1711 -0.5481
 1748TIP3   OH226878   5.008   3.621   0.333 -0.2122 -0.0841  0.0575
 1748TIP3    H126879   5.047   3.546   0.377 -0.4684 -0.4219 -0.2859
 1748TIP3    H226880   5.071   3.692   0.344 -0.5883  0.0496  1.6043
 1749TIP3   OH226881   4.505   2.469   0.276 -0.1092  0.4341 -0.3460
 1749TIP3    H126882   4.490   2.517   0.194  1.8815  1.3299 -0.2391
 1749TIP3    H226883   4.493   2.535   0.345 -0.7812 -0.0854  0.0553
 1750TIP3   OH226884   4.629   5.882   2.282  0.7960 -0.7616  0.3920
 1750TIP3    H126885   4.687   5.837   2.343 -0.2251  0.1613  2.0966
 1750TIP3    H226886   4.686   5.907   2.209  1.8615 -2.6787  0.4960
 1751TIP3   OH226887   6.150   5.751   8.607 -0.3910 -0.2579  0.0874
 1751TIP3    H126888   6.220   5.786   8.552 -0.3459  1.4997  1.1968
 1751TIP3    H226889   6.190   5.676   8.651  0.5471  0.2276  0.0886
 1752TIP3   OH226890   5.563   3.086   1.062 -0.2688 -0.0368 -0.0581
 1752TIP3    H126891   5.494   3.132   1.015  0.0816  1.1114  0.4973
 1752TIP3    H226892   5.637   3.148   1.063  1.0408 -1.5010 -1.2567
 1753TIP3   OH226893   5.636   5.544   8.495  0.5283 -0.3155 -0.2793
 1753TIP3    H126894   5.632   5.476   8.428  1.3181  0.3612 -1.0337
 1753TIP3    H226895   5.631   5.497   8.578 -0.5924 -1.1624 -0.7936
 1754TIP3   OH226896   0.743   3.288   8.186  0.2957  0.0722  0.0113
 1754TIP3    H126897   0.707   3.200   8.178  0.1647  0.1479 -0.2893
 1754TIP3    H226898   0.807   3.283   8.256 -0.6711  0.0497  0.9150
 1755TIP3   OH226899   3.845   4.523   0.658 -0.0597 -0.3824  0.1778
 1755TIP3    H126900   3.807   4.487   0.738  2.3604  0.7974  1.9813
 1755TIP3    H226901   3.923   4.469   0.642  2.5813  2.5888  1.8878
 1756TIP3   OH226902   6.521   4.013   1.002 -0.0284  0.0624 -0.0577
 1756TIP3    H126903   6.583   3.974   1.063 -0.0238  0.4191  0.1681
 1756TIP3    H226904   6.456   3.944   0.986  0.2659 -0.2132 -0.0720
 1757TIP3   OH226905   2.196   1.551   8.055 -0.3837 -0.2993 -0.1531
 1757TIP3    H126906   2.226   1.624   8.109  1.6093  1.0916 -2.9290
 1757TIP3    H226907   2.219   1.473   8.105  0.2812  0.8992  1.5003
 1758TIP3   OH226908   0.093   0.388   0.385 -0.2762 -0.7230  0.1137
 1758TIP3    H126909   0.127   0.476   0.369 -0.1988 -0.7477  0.1455
 1758TIP3    H226910   0.001   0.402   0.408 -0.7060 -0.7643 -1.4363
 1759TIP3   OH226911   6.046   4.612   2.846  1.1109  0.0988  0.1819
 1759TIP3    H126912   6.093   4.531   2.865  1.5981  0.3245 -0.0370
 1759TIP3    H226913   6.089   4.647   2.767  0.9452  0.5935  0.3059
 1760TIP3   OH226914   4.441   5.436   7.740 -0.1643  0.4715 -0.2332
 1760TIP3    H126915   4.363   5.460   7.791 -0.5554 -0.0080 -0.5855
 1760TIP3    H226916   4.438   5.493   7.663 -0.5044  0.0470 -0.5417
 1761TIP3   OH226917   3.677   4.067   6.944 -0.6019  0.5340 -0.0099
 1761TIP3    H126918   3.749   4.051   7.005  0.1205  0.4064 -0.8725
 1761TIP3    H226919   3.611   4.001   6.967  0.4710 -0.8022 -0.6089
 1762TIP3   OH226920   4.466   6.528   0.479  0.1061 -0.1925  0.6263
 1762TIP3    H126921   4.410   6.451   0.490 -1.3838  0.8357  0.5824
 1762TIP3    H226922   4.540   6.512   0.537 -0.7713 -1.1249  1.5348
 1763TIP3   OH226923   0.567   5.130   8.298  0.0889 -0.3483  0.2316
 1763TIP3    H126924   0.572   5.195   8.228  1.2854 -1.2691 -0.5717
 1763TIP3    H226925   0.618   5.169   8.370 -0.2496  0.1355  0.2154
 1764TIP3   OH226926   1.868   0.676   8.439  0.0087  0.1103  0.6461
 1764TIP3    H126927   1.828   0.748   8.389  0.1820 -1.8997 -2.7241
 1764TIP3    H226928   1.944   0.716   8.482 -0.7305  2.2173  0.1212
 1765TIP3   OH226929   1.406   2.793   7.808 -0.3896 -0.0309  0.3335
 1765TIP3    H126930   1.412   2.703   7.842 -0.0801 -0.7634 -1.5498
 1765TIP3    H226931   1.312   2.809   7.799 -0.4642  0.0453  1.1532
 1766TIP3   OH226932   2.753   5.490   1.031 -0.7045  0.4540  0.1602
 1766TIP3    H126933   2.742   5.540   0.950  3.0774  0.9059 -0.2777
 1766TIP3    H226934   2.780   5.403   1.002  3.0224  1.2506  0.6825
 1767TIP3   OH226935   0.755   3.529   8.868 -0.3302 -0.1010  0.1475
 1767TIP3    H126936   0.737   3.436   8.860 -1.4229  0.0363  0.8851
 1767TIP3    H226937   0.793   3.539   8.955  0.7303  0.0128 -0.3154
 1768TIP3   OH226938   6.203   2.422   0.238  0.2337 -0.7341 -0.1922
 1768TIP3    H126939   6.277   2.455   0.289 -0.2002  1.1245 -0.7128
 1768TIP3    H226940   6.210   2.467   0.154 -1.1802 -0.9531 -0.4499
 1769TIP3   OH226941   6.704   1.256   8.244 -0.2251 -0.0609  0.5210
 1769TIP3    H126942   6.612   1.277   8.263 -0.5485  0.2977 -1.2457
 1769TIP3    H226943   6.750   1.338   8.255  0.2708 -0.5981  3.1932
 1770TIP3   OH226944   3.412   0.535   1.313  0.0946  0.0748  0.0939
 1770TIP3    H126945   3.426   0.577   1.228  0.6437 -0.4256 -0.0712
 1770TIP3    H226946   3.347   0.590   1.357 -1.0560 -0.2859 -1.0984
 1771TIP3   OH226947   1.802   5.375   0.217 -0.6935  0.3231  0.3218
 1771TIP3    H126948   1.844   5.385   0.302 -0.5944  0.1253  0.2968
 1771TIP3    H226949   1.719   5.421   0.225 -0.9018 -0.1077  0.6841
 1772TIP3   OH226950   0.136   3.800   2.395  0.0051 -0.2238 -0.8160
 1772TIP3    H126951   0.189   3.739   2.446 -0.0725  0.8516  0.5797
 1772TIP3    H226952   0.143   3.883   2.441 -0.9712  0.5147 -1.9485
 1773TIP3   OH226953   0.076   1.643   0.195 -0.3847 -0.0007 -0.0109
 1773TIP3    H126954  -0.019   1.638   0.191 -0.3693  0.0741 -0.4915
 1773TIP3    H226955   0.095   1.682   0.281 -0.7569 -0.7906  0.4384
 1774TIP3   OH226956   4.318   3.280   8.625 -0.3095  0.2565  0.1486
 1774TIP3    H126957   4.278   3.357   8.667 -1.4014 -0.7175  0.9854
 1774TIP3    H226958   4.300   3.292   8.532  2.3127  2.5516 -0.1787
 1775TIP3   OH226959   4.596   1.581   8.344  0.2566  0.1874  0.1494
 1775TIP3    H126960   4.537   1.655   8.342  0.5237  0.3888 -0.8708
 1775TIP3    H226961   4.547   1.510   8.303 -0.5489 -0.6598  2.4177
 1776TIP3   OH226962   5.572   4.082   0.707  0.1011 -0.2086 -0.3447
 1776TIP3    H126963   5.663   4.097   0.736  0.0315 -0.6278  0.0993
 1776TIP3    H226964   5.567   4.125   0.622 -0.0888  2.3264  0.8549
 1777TIP3   OH226965   4.135   6.673   0.782  0.2638  0.3394 -0.5820
 1777TIP3    H126966   4.139   6.757   0.737  1.0008  1.2177  1.0739
 1777TIP3    H226967   4.182   6.686   0.864 -1.2416 -1.1364  0.5994
 1778TIP3   OH226968   2.182   2.274   0.998 -0.3145 -0.3262 -0.2476
 1778TIP3    H126969   2.272   2.241   1.003  0.2646  1.1362 -0.4672
 1778TIP3    H226970   2.189   2.366   1.022 -1.3311  0.5248 -2.9044
 1779TIP3   OH226971   6.797   6.544   7.314  0.2543  0.6179 -0.7168
 1779TIP3    H126972   6.856   6.599   7.365  2.0283  0.5317 -2.5896
 1779TIP3    H226973   6.786   6.590   7.231 -2.0693  0.4377 -0.5660
 1780TIP3   OH226974   0.713   0.274   7.980 -0.1599  0.4539 -0.1196
 1780TIP3    H126975   0.756   0.353   8.014 -0.8227  0.8002 -0.0604
 1780TIP3    H226976   0.773   0.203   8.001  0.9588  1.0646 -1.1235
 1781TIP3   OH226977   1.291   3.089   7.881 -0.1160  0.3485 -0.2456
 1781TIP3    H126978   1.271   3.160   7.820 -0.6041  1.3375  1.0443
 1781TIP3    H226979   1.216   3.030   7.874  0.0817  0.1677 -0.9819
 1782TIP3   OH226980   2.702   3.894   8.296  0.1587 -0.7746  0.3213
 1782TIP3    H126981   2.751   3.976   8.295  0.3970 -0.8879  1.7038
 1782TIP3    H226982   2.765   3.828   8.269 -0.2918 -0.4164 -1.8362
 1783TIP3   OH226983   5.007   4.608   0.254  0.3472  0.2543  0.0454
 1783TIP3    H126984   5.063   4.581   0.181  0.9616  2.9717 -0.5795
 1783TIP3    H226985   5.068   4.637   0.322 -0.1211  3.7140 -0.8225
 1784TIP3   OH226986   4.744   6.341   1.800 -0.5495 -0.0353  0.2189
 1784TIP3    H126987   4.772   6.334   1.891 -1.8981  0.4683  0.6867
 1784TIP3    H226988   4.744   6.435   1.781 -1.7084 -0.0311  0.1786
 1785TIP3   OH226989   4.712   0.780   7.953 -0.0109  0.5504 -0.6729
 1785TIP3    H126990   4.699   0.687   7.972  0.1431  0.8126  0.8567
 1785TIP3    H226991   4.770   0.781   7.877  0.8691 -0.6343 -0.0594
 1786TIP3   OH226992   6.719   3.450   0.133 -0.1770 -0.5792  0.1147
 1786TIP3    H126993   6.675   3.518   0.184 -0.0806 -0.8887  0.6184
 1786TIP3    H226994   6.660   3.375   0.135 -0.0976 -0.6493 -0.0867
 1787TIP3   OH226995   0.520   3.313   1.335 -0.2033  0.0728 -0.1116
 1787TIP3    H126996   0.483   3.355   1.257 -0.9461 -1.1450 -0.4415
 1787TIP3    H226997   0.450   3.256   1.367  0.4178 -0.1306  0.9240
 1788TIP3   OH226998   2.620   3.468   0.127  0.3355 -0.0738  0.5292
 1788TIP3    H126999   2.596   3.558   0.105  1.1610  0.1215  0.3801
 1788TIP3    H227000   2.553   3.414   0.086  0.0253  0.4597  0.3312
 1789TIP3   OH227001   4.654   3.306   8.340  0.0310  0.1260  0.0252
 1789TIP3    H127002   4.620   3.231   8.389 -0.3890  0.1315 -0.2549
 1789TIP3    H227003   4.669   3.272   8.252 -2.8538  1.0304 -0.9164
 1790TIP3   OH227004   5.397   5.944   8.875  0.7925 -0.1314  0.5341
 1790TIP3    H127005   5.349   5.861   8.876  2.3290 -1.0434  0.6344
 1790TIP3    H227006   5.360   5.992   8.949  0.1863 -0.8945  0.7495
 1791TIP3   OH227007   1.188   6.603   0.293  0.5056  0.2930  0.0836
 1791TIP3    H127008   1.099   6.573   0.273  0.4641 -0.1024  0.8136
 1791TIP3    H227009   1.238   6.584   0.214 -0.3374  1.7645 -0.8544
 1792TIP3   OH227010   2.415   5.204   1.806  0.4007 -0.0859 -0.6514
 1792TIP3    H127011   2.426   5.153   1.886 -1.1925  2.0474  1.0542
 1792TIP3    H227012   2.333   5.171   1.769  0.8376 -0.6732 -1.1116
 1793TIP3   OH227013   0.107   4.608   0.401  0.1353  0.4080  0.6172
 1793TIP3    H127014   0.110   4.526   0.450 -0.9835 -0.2057 -0.3044
 1793TIP3    H227015   0.050   4.590   0.327 -0.1110  2.0169  0.3780
 1794TIP3   OH227016   3.204   3.043   8.321 -0.4198  0.0138 -0.4141
 1794TIP3    H127017   3.284   3.043   8.373 -1.4589 -0.5116  1.2405
 1794TIP3    H227018   3.220   2.978   8.252 -0.0045 -1.2693  0.8552
 1795TIP3   OH227019   2.388   3.941   8.826  0.0620  0.1712  0.3265
 1795TIP3    H127020   2.340   3.903   8.752 -0.0743  0.7698  0.1046
 1795TIP3    H227021   2.320   3.972   8.885  0.1585  1.5943 -0.2820
 1796TIP3   OH227022   2.557   2.796   0.137 -0.0338  0.2582 -0.1192
 1796TIP3    H127023   2.568   2.736   0.063  0.1153  0.6032 -0.3822
 1796TIP3    H227024   2.572   2.883   0.099 -1.5030  0.5807 -0.0207
 1797TIP3   OH227025   1.515   5.049   0.345  0.8596 -0.5067  0.2214
 1797TIP3    H127026   1.586   4.986   0.330  0.3826 -1.5839  2.1500
 1797TIP3    H227027   1.438   5.007   0.306  0.5898 -1.0290  1.2941
 1798TIP3   OH227028   2.451   2.095   1.094  0.1008 -0.0824  0.1089
 1798TIP3    H127029   2.444   2.129   1.183  0.5240 -0.5398  0.3230
 1798TIP3    H227030   2.499   2.162   1.046  0.1336  0.0299  0.3002
 1799TIP3   OH227031   3.848   6.422   0.438  0.2899 -0.1614 -0.3313
 1799TIP3    H127032   3.756   6.416   0.411  0.8487 -1.3624 -2.1654
 1799TIP3    H227033   3.847   6.480   0.514 -2.2715 -1.9177  1.1318
 1800TIP3   OH227034   4.154   2.019   1.188 -0.3388 -0.3948  0.3454
 1800TIP3    H127035   4.070   1.997   1.229  0.0726 -1.5122  0.6405
 1800TIP3    H227036   4.188   2.092   1.239 -2.5257  2.2396 -1.6693
 1801TIP3   OH227037   5.167   0.245   8.308 -0.3067 -0.1730  0.4986
 1801TIP3    H127038   5.254   0.231   8.272 -1.2043 -2.4151 -1.0162
 1801TIP3    H227039   5.108   0.213   8.240 -2.3092  0.6823  1.7446
 1802TIP3   OH227040   0.366   1.085   8.046 -0.3627  0.0118 -0.4703
 1802TIP3    H127041   0.409   1.038   8.117 -1.3381 -0.7482 -0.3690
 1802TIP3    H227042   0.372   1.177   8.071 -2.1660 -0.3330  1.4626
 1803TIP3   OH227043   6.630   5.019   7.765  0.1614  0.2929 -0.0543
 1803TIP3    H127044   6.680   4.943   7.794  0.7237 -0.1589 -2.1022
 1803TIP3    H227045   6.634   5.080   7.839 -1.6019 -2.1862  2.2836
 1804TIP3   OH227046   5.888   3.114   0.595 -0.1581 -0.1240  0.5683
 1804TIP3    H127047   5.905   3.208   0.608  1.0580 -0.0978 -0.9925
 1804TIP3    H227048   5.969   3.071   0.624  0.9041 -0.3530 -2.3679
 1805TIP3   OH227049   0.095   2.570   8.775 -0.1541 -0.0812  0.1709
 1805TIP3    H127050   0.155   2.577   8.849  1.7114  0.0705 -1.2476
 1805TIP3    H227051   0.008   2.564   8.813  0.6701  0.9206  2.3164
 1806TIP3   OH227052   1.476   4.694   8.205  0.1358 -0.2427 -0.0683
 1806TIP3    H127053   1.474   4.634   8.131 -2.8333 -1.8101  1.1178
 1806TIP3    H227054   1.385   4.722   8.216  0.0175 -1.5581  3.9990
 1807TIP3   OH227055   6.451   0.020   1.331  0.1734  0.6232 -0.0771
 1807TIP3    H127056   6.394   0.071   1.274  1.1897 -1.5089 -3.2782
 1807TIP3    H227057   6.539   0.052   1.312  0.6085 -0.6912 -0.3786
 1808TIP3   OH227058   3.949   3.937   0.716  0.6442  0.6488 -0.2426
 1808TIP3    H127059   4.009   3.941   0.642 -0.1056  2.1015 -0.8262
 1808TIP3    H227060   3.863   3.952   0.677  0.1534  0.6744  0.8286
 1809TIP3   OH227061   4.970   6.107   2.693  0.4766 -0.1881  0.1704
 1809TIP3    H127062   5.055   6.149   2.706  0.7666 -1.0224  1.1826
 1809TIP3    H227063   4.930   6.106   2.781  0.7285 -2.4594  0.3194
 1810TIP3   OH227064   2.655   1.075   7.005  0.0588 -0.3975  0.2027
 1810TIP3    H127065   2.684   0.993   7.044  0.6482 -0.8573 -1.1432
 1810TIP3    H227066   2.737   1.122   6.986 -0.2754  0.6685  1.2540
 1811TIP3   OH227067   5.048   3.360   1.631 -0.4475 -0.0666 -0.2450
 1811TIP3    H127068   4.972   3.339   1.576 -0.4132  0.8666 -0.6684
 1811TIP3    H227069   5.017   3.429   1.690 -0.1306 -0.1956  0.0775
 1812TIP3   OH227070   5.954   0.806   7.980  0.1529 -0.2792 -0.0064
 1812TIP3    H127071   5.983   0.717   7.957  0.0306  0.0968 -1.7957
 1812TIP3    H227072   5.863   0.795   8.009 -0.3829 -0.6048 -1.6834
 1813TIP3   OH227073   4.941   4.635   8.622 -0.0266  0.0452  0.3377
 1813TIP3    H127074   4.950   4.562   8.561 -0.6030  1.6363 -1.7322
 1813TIP3    H227075   4.848   4.658   8.619  0.3415  1.6078  0.0306
 1814TIP3   OH227076   3.447   6.279   7.896  0.0372 -0.4479 -0.1693
 1814TIP3    H127077   3.417   6.298   7.984 -1.2955  1.8932 -1.0163
 1814TIP3    H227078   3.368   6.256   7.847  0.4629 -0.0228 -1.1048
 1815TIP3   OH227079   5.665   3.383   1.001 -0.1607  0.4870  0.5878
 1815TIP3    H127080   5.742   3.384   0.945 -0.4794 -2.2259 -0.0542
 1815TIP3    H227081   5.696   3.412   1.086  1.0196  1.6858 -0.2215
 1816TIP3   OH227082   2.988   5.120   2.738  0.2343 -0.1583 -0.3792
 1816TIP3    H127083   2.980   5.213   2.761  1.4452 -0.1158 -0.0462
 1816TIP3    H227084   2.918   5.104   2.676 -1.0575  0.5652  0.8347
 1817TIP3   OH227085   3.895   0.083   7.709  0.4254  0.1535 -0.5777
 1817TIP3    H127086   3.977   0.132   7.706 -0.8688  2.4695 -0.4039
 1817TIP3    H227087   3.833   0.136   7.659 -1.3759 -0.7104  0.6099
 1818TIP3   OH227088   4.023   6.460   7.569  0.2117  0.0071 -0.2623
 1818TIP3    H127089   4.031   6.441   7.475  3.4423 -0.5017 -0.0154
 1818TIP3    H227090   4.001   6.375   7.608 -0.1939  0.0173 -0.4599
 1819TIP3   OH227091   3.823   1.485   2.521 -0.6637  0.2976  0.5957
 1819TIP3    H127092   3.918   1.482   2.507 -0.6677 -0.6471  0.7370
 1819TIP3    H227093   3.809   1.567   2.568  0.2472 -0.1987  1.7790
 1820TIP3   OH227094   2.993   6.444   1.233  0.1420 -0.0287 -0.2207
 1820TIP3    H127095   2.903   6.477   1.225  1.0614  2.9756  0.3463
 1820TIP3    H227096   3.035   6.469   1.150  0.5020 -1.4402 -0.4956
 1821TIP3   OH227097   0.027   1.971   2.948  0.1866  0.8469 -1.1002
 1821TIP3    H127098   0.100   1.925   2.907 -0.4481 -2.1874  0.8872
 1821TIP3    H227099   0.068   2.046   2.992  1.9259 -0.0306 -1.1305
 1822TIP3   OH227100   0.775   1.827   8.126 -0.4583 -0.1664  0.7750
 1822TIP3    H127101   0.715   1.832   8.052 -0.4635 -2.0922  0.6038
 1822TIP3    H227102   0.842   1.893   8.108  0.9539 -2.1955 -2.2872
 1823TIP3   OH227103   1.184   1.346   8.618  0.4709 -0.4569 -0.4670
 1823TIP3    H127104   1.236   1.396   8.556  0.3630  0.0849 -0.1281
 1823TIP3    H227105   1.225   1.260   8.620  1.5431  0.0397  0.0079
 1824TIP3   OH227106   5.131   1.387   7.947  0.2430 -0.1492  0.7485
 1824TIP3    H127107   5.036   1.397   7.940  0.3294 -0.4944 -1.6377
 1824TIP3    H227108   5.146   1.371   8.041 -2.0079  0.1189  1.2215
 1825TIP3   OH227109   5.055   3.348   7.262 -0.1258 -0.1355  0.4354
 1825TIP3    H127110   4.981   3.298   7.227  0.7715  0.2050 -2.1348
 1825TIP3    H227111   5.016   3.432   7.290 -0.7220  0.1127 -1.0558
 1826TIP3   OH227112   0.990   2.496   7.241 -0.3081 -0.1184  0.5530
 1826TIP3    H127113   1.015   2.573   7.292  0.9294 -1.2568  1.7419
 1826TIP3    H227114   0.919   2.527   7.185 -1.2905  1.3555  2.5017
 1827TIP3   OH227115   5.936   0.652   2.040 -0.3563 -0.4019 -0.0078
 1827TIP3    H127116   5.892   0.660   2.125 -3.5289 -2.7907 -1.2064
 1827TIP3    H227117   5.945   0.742   2.010 -1.5039  0.3764  1.7877
 1828TIP3   OH227118   3.229   3.113   2.460  0.5095  0.6350 -0.2312
 1828TIP3    H127119   3.175   3.037   2.483  1.4374  0.2525  0.7144
 1828TIP3    H227120   3.172   3.189   2.477  0.3783  0.2552  1.1583
 1829TIP3   OH227121   1.240   3.967   2.633 -0.0908  0.2599 -0.1461
 1829TIP3    H127122   1.167   4.020   2.601 -0.5179  0.9504  1.8020
 1829TIP3    H227123   1.199   3.902   2.690  0.7281  0.1303  0.3170
 1830TIP3   OH227124   1.555   0.575   8.414  0.0537 -0.3725  0.7104
 1830TIP3    H127125   1.515   0.502   8.368 -0.1633 -0.4547  1.0250
 1830TIP3    H227126   1.648   0.553   8.420  0.4890  0.6015 -1.5362
 1831TIP3   OH227127   0.178   1.311   0.885 -0.0169 -0.1185 -0.6495
 1831TIP3    H127128   0.190   1.394   0.840 -0.7906 -1.0825 -2.7587
 1831TIP3    H227129   0.104   1.325   0.945  0.4690  0.9391 -0.2756
 1832TIP3   OH227130   4.527   4.342   0.361 -0.7591  0.0837 -0.7258
 1832TIP3    H127131   4.471   4.408   0.403  2.0281  1.8932  0.4445
 1832TIP3    H227132   4.523   4.266   0.420  0.2168  1.2653  0.9728
 1833TIP3   OH227133   6.508   3.933   1.519 -0.2230  0.3847  0.1965
 1833TIP3    H127134   6.443   3.938   1.449  0.4304  1.7456 -0.3508
 1833TIP3    H227135   6.584   3.981   1.485  0.4066  0.3761  1.5191
 1834TIP3   OH227136   1.652   5.076   7.861 -0.0064  0.1773  0.2467
 1834TIP3    H127137   1.730   5.020   7.862 -0.3993 -0.4078 -0.8608
 1834TIP3    H227138   1.579   5.016   7.873 -0.7520 -0.1788 -4.5109
 1835TIP3   OH227139   3.654   5.114   7.404  0.4120  0.4488 -0.5753
 1835TIP3    H127140   3.666   5.209   7.405  1.9323  0.2824  0.5157
 1835TIP3    H227141   3.620   5.093   7.491  1.7665 -0.1615 -0.1667
 1836TIP3   OH227142   1.079   0.207   1.150  0.6025  0.0307 -0.0635
 1836TIP3    H127143   1.026   0.148   1.096  0.8760 -1.2878  1.0288
 1836TIP3    H227144   1.161   0.217   1.102  0.6927 -0.7968 -0.0992
 1837TIP3   OH227145   2.862   1.459   7.582  0.0208  0.6528 -0.2160
 1837TIP3    H127146   2.787   1.464   7.642 -0.7929  0.8569 -1.2284
 1837TIP3    H227147   2.825   1.476   7.496  0.9032 -1.1444 -0.9982
 1838TIP3   OH227148   4.356   6.127   8.818 -0.5590  0.2923  0.2698
 1838TIP3    H127149   4.336   6.034   8.822  0.5849  0.0217  0.0898
 1838TIP3    H227150   4.294   6.162   8.754  1.6655 -1.1523 -2.9595
 1839TIP3   OH227151   5.584   5.221   6.617 -0.4156 -0.5840 -0.4718
 1839TIP3    H127152   5.530   5.207   6.539 -2.7503  1.7090  0.6034
 1839TIP3    H227153   5.521   5.234   6.688  1.4107  3.1303  0.7122
 1840TIP3   OH227154   4.090   1.218   0.861  0.1505 -0.0209 -0.2048
 1840TIP3    H127155   4.122   1.288   0.917  0.0990 -0.3209  0.2010
 1840TIP3    H227156   3.995   1.220   0.872  0.1969 -0.6090  0.3576
 1841TIP3   OH227157   1.860   2.056   8.827  0.5090  0.6508  0.4178
 1841TIP3    H127158   1.780   2.108   8.815  1.5591  2.1251 -0.5015
 1841TIP3    H227159   1.874   2.013   8.743  1.8842  2.2049 -0.1814
 1842TIP3   OH227160   5.077   3.507   2.001 -0.1163 -0.2525  0.5880
 1842TIP3    H127161   5.120   3.571   1.944  0.1163 -0.0221  1.0137
 1842TIP3    H227162   4.999   3.552   2.032 -1.2870 -1.0628 -1.0587
 1843TIP3   OH227163   0.010   2.172   2.397  0.4388 -0.8325 -0.2692
 1843TIP3    H127164   0.097   2.146   2.430  0.5270 -1.9711 -1.3211
 1843TIP3    H227165   0.013   2.268   2.395  1.5443 -0.8428  0.0481
 1844TIP3   OH227166   0.345   1.508   7.532 -0.4903  0.1376 -0.2509
 1844TIP3    H127167   0.388   1.446   7.591 -0.8863 -1.3845 -1.4814
 1844TIP3    H227168   0.290   1.562   7.590  0.9968  0.3546  1.0220
 1845TIP3   OH227169   0.967   2.666   8.595 -0.3803 -0.1879  0.6700
 1845TIP3    H127170   1.032   2.717   8.547 -0.6407  1.2079  1.7371
 1845TIP3    H227171   1.012   2.584   8.617  0.2896 -0.1362 -0.4572
 1846TIP3   OH227172   1.551   5.693   8.280  0.3895 -0.1433  0.3754
 1846TIP3    H127173   1.636   5.708   8.321 -0.1172 -1.4498  2.0233
 1846TIP3    H227174   1.562   5.612   8.230  0.4280  0.3302 -0.3966
 1847TIP3   OH227175   3.374   3.428   7.781 -0.6052 -0.4879 -0.1369
 1847TIP3    H127176   3.316   3.477   7.722 -0.1758 -1.4686 -1.4274
 1847TIP3    H227177   3.461   3.465   7.765 -0.6076 -0.2177  0.4790
 1848TIP3   OH227178   1.845   0.484   0.304 -0.0682 -0.1189  0.3208
 1848TIP3    H127179   1.760   0.525   0.291  0.7088  1.7836  0.8547
 1848TIP3    H227180   1.863   0.439   0.221 -0.3052  1.9966 -0.9663
 1849TIP3   OH227181   3.163   4.344   7.931  0.2947 -0.7695 -0.6049
 1849TIP3    H127182   3.145   4.251   7.913  1.8737 -1.0123 -1.0701
 1849TIP3    H227183   3.197   4.378   7.848 -1.2757  0.5305 -0.7696
 1850TIP3   OH227184   1.157   3.006   8.804  0.4332  0.4480 -0.6508
 1850TIP3    H127185   1.146   3.100   8.815 -0.9270  0.1652  0.7285
 1850TIP3    H227186   1.079   2.978   8.755  0.2183 -0.1267  0.0068
 1851TIP3   OH227187   2.678   2.340   8.022  0.2605  0.2078 -0.1652
 1851TIP3    H127188   2.670   2.338   7.926 -1.3237  1.4056 -0.0883
 1851TIP3    H227189   2.617   2.272   8.052 -0.0120  0.5354  0.0235
 1852TIP3   OH227190   5.278   1.882   2.400 -0.3364  0.0596  0.2807
 1852TIP3    H127191   5.188   1.874   2.429 -0.2760 -0.0851  0.4280
 1852TIP3    H227192   5.321   1.802   2.432 -0.1264  0.1885  0.3224
 1853TIP3   OH227193   0.092   2.482   1.601 -0.6575 -0.3749  0.1590
 1853TIP3    H127194   0.039   2.426   1.544  0.5544 -1.2577 -0.1174
 1853TIP3    H227195   0.130   2.547   1.543 -3.2884  1.8327  0.6672
 1854TIP3   OH227196   2.539   4.196   1.722  0.0595  0.0916  0.2564
 1854TIP3    H127197   2.517   4.103   1.731  0.7525 -0.1751 -0.6736
 1854TIP3    H227198   2.625   4.204   1.765  0.7055 -0.0216 -0.9811
 1855TIP3   OH227199   2.742   2.537   2.032  0.0997 -0.0687  0.2156
 1855TIP3    H127200   2.692   2.480   1.974  1.9384  0.1323 -1.7046
 1855TIP3    H227201   2.744   2.621   1.986  1.6883  0.0737  0.4810
 1856TIP3   OH227202   3.804   3.644   7.879 -0.1280  0.1349 -0.8445
 1856TIP3    H127203   3.898   3.625   7.870 -0.1708 -0.8916  0.5969
 1856TIP3    H227204   3.790   3.651   7.973 -1.3517  1.1713 -1.0872
 1857TIP3   OH227205   3.389   5.538   7.074 -0.3461  1.3305  0.1807
 1857TIP3    H127206   3.455   5.555   7.007 -0.0653 -1.3772 -0.3674
 1857TIP3    H227207   3.306   5.548   7.028 -0.1651  0.1273 -0.4766
 1858TIP3   OH227208   3.402   2.242   2.805 -0.1923  0.1222 -0.2868
 1858TIP3    H127209   3.328   2.291   2.840  0.7884  0.4878  1.3579
 1858TIP3    H227210   3.464   2.310   2.777  0.8350 -0.1200  1.2759
 1859TIP3   OH227211   2.877   6.746   7.986 -0.5078  0.1394 -0.1355
 1859TIP3    H127212   2.897   6.703   7.903 -0.4607 -0.6961  0.2996
 1859TIP3    H227213   2.894   6.838   7.970  0.3367 -0.1221 -0.8062
 1860TIP3   OH227214   3.298   5.631   8.765 -0.0325  0.8481  0.6663
 1860TIP3    H127215   3.223   5.614   8.708  1.8737 -1.0962 -1.4556
 1860TIP3    H227216   3.334   5.714   8.732 -0.8615  1.4830  1.3113
 1861TIP3   OH227217   6.359   2.656   6.816 -0.5405  0.0446  0.4742
 1861TIP3    H127218   6.312   2.726   6.771 -1.5906 -0.0542  1.3810
 1861TIP3    H227219   6.312   2.576   6.792  0.3718 -0.3102 -0.1845
 1862TIP3   OH227220   2.334   5.472   2.353 -0.3202 -0.7893  0.7147
 1862TIP3    H127221   2.300   5.559   2.373 -1.1939 -1.0338  0.3321
 1862TIP3    H227222   2.422   5.471   2.392 -0.0877  0.4408  0.2423
 1863TIP3   OH227223   1.089   1.580   1.319  0.3082 -0.2510  0.0149
 1863TIP3    H127224   1.180   1.560   1.299  0.1622 -0.4416 -0.4685
 1863TIP3    H227225   1.091   1.671   1.351  0.8222 -0.6425  1.1610
 1864TIP3   OH227226   1.357   2.463   8.167 -0.4502 -0.6588 -0.0598
 1864TIP3    H127227   1.273   2.506   8.186 -0.5471 -0.5413 -0.7121
 1864TIP3    H227228   1.385   2.426   8.251 -0.8364 -0.1399  0.3064
 1865TIP3   OH227229   3.541   1.243   0.559 -0.1015  0.1017 -0.1140
 1865TIP3    H127230   3.621   1.291   0.539 -1.4241  2.0269 -1.1186
 1865TIP3    H227231   3.552   1.158   0.516  1.5024  0.1750  0.0760
 1866TIP3   OH227232   0.179   2.634   0.733 -0.6091 -0.2697  0.3652
 1866TIP3    H127233   0.187   2.544   0.763 -1.0367 -0.9916 -1.5309
 1866TIP3    H227234   0.105   2.669   0.781  0.4754 -0.4099  2.2334
 1867TIP3   OH227235   1.208   0.717   7.684 -0.1355 -0.1089  0.2913
 1867TIP3    H127236   1.268   0.783   7.651 -0.5425 -0.8978 -2.2237
 1867TIP3    H227237   1.251   0.633   7.666 -1.4511 -0.6469 -0.5219
 1868TIP3   OH227238   1.637   3.896   1.247 -0.0333  0.6334 -0.1710
 1868TIP3    H127239   1.696   3.864   1.316 -0.8415 -1.5424 -0.3869
 1868TIP3    H227240   1.680   3.870   1.165 -0.9319 -0.4082 -0.3424
 1869TIP3   OH227241   5.090   5.393   0.793  0.0961  0.6019 -0.0030
 1869TIP3    H127242   5.181   5.375   0.815 -0.8039 -1.3075  2.6374
 1869TIP3    H227243   5.077   5.352   0.707  1.1602 -1.2577  0.6669
 1870TIP3   OH227244   6.025   0.213   8.434 -0.2608 -0.5728  0.9559
 1870TIP3    H127245   6.034   0.234   8.341  0.6799  0.8148  1.3426
 1870TIP3    H227246   6.037   0.118   8.438 -2.9944 -1.1145 -0.6487
 1871TIP3   OH227247   6.579   1.993   0.515  0.6734  0.1865 -0.0409
 1871TIP3    H127248   6.665   2.027   0.490  0.1531  0.4625 -1.5984
 1871TIP3    H227249   6.519   2.032   0.451 -0.7071  0.4551  1.3549
 1872TIP3   OH227250   5.883   4.648   8.608  0.4658  0.2561  0.1032
 1872TIP3    H127251   5.888   4.703   8.529  0.3178  0.1295  0.0046
 1872TIP3    H227252   5.934   4.696   8.674  3.4244 -1.1675 -0.9507
 1873TIP3   OH227253   1.733   2.242   8.485  0.2083 -0.2593  0.2303
 1873TIP3    H127254   1.756   2.237   8.392 -2.1258 -0.0001 -0.4278
 1873TIP3    H227255   1.760   2.330   8.511 -0.8089  0.3781 -0.7536
 1874TIP3   OH227256   4.144   6.682   2.174 -0.0797  0.3598  0.0949
 1874TIP3    H127257   4.220   6.626   2.191  0.4951  0.7957 -0.9436
 1874TIP3    H227258   4.160   6.760   2.226  0.8686  1.0112 -1.1221
 1875TIP3   OH227259   5.407   0.035   0.388 -0.2965  0.5395  0.1439
 1875TIP3    H127260   5.321   0.034   0.345 -1.2581 -0.5674  1.9547
 1875TIP3    H227261   5.456   0.103   0.342 -2.1392  1.2074 -0.9494
 1876TIP3   OH227262   5.576   0.755   8.862  0.1166  0.4566 -0.2965
 1876TIP3    H127263   5.663   0.789   8.885 -0.4777  1.2090  1.0194
 1876TIP3    H227264   5.525   0.834   8.841 -0.5147  0.1272 -0.0294
 1877TIP3   OH227265   4.416   2.343   2.725  0.5369 -0.8500 -0.0572
 1877TIP3    H127266   4.370   2.427   2.732  1.1891 -0.6057  2.4544
 1877TIP3    H227267   4.503   2.361   2.762  2.3870 -1.5567 -3.6025
 1878TIP3   OH227268   0.412   0.536   1.972  0.6680 -0.1626  0.2712
 1878TIP3    H127269   0.320   0.513   1.986  0.5655 -0.1637 -0.3424
 1878TIP3    H227270   0.443   0.567   2.057  0.5869 -1.8022  0.9383
 1879TIP3   OH227271   4.489   4.714   2.290 -0.5178 -0.2005  0.5132
 1879TIP3    H127272   4.551   4.663   2.342 -1.5399 -1.1248  0.8576
 1879TIP3    H227273   4.418   4.653   2.269 -1.6582  0.9846  0.7219
 1880TIP3   OH227274   1.990   0.753   2.147 -0.0215 -0.4653 -0.0237
 1880TIP3    H127275   2.082   0.757   2.124 -0.1610  0.2728 -0.4942
 1880TIP3    H227276   1.986   0.785   2.237  0.0680  0.6415 -0.3854
 1881TIP3   OH227277   6.522   3.601   8.848  0.9551  0.0502  0.0296
 1881TIP3    H127278   6.524   3.505   8.847 -0.2869  0.0149 -0.6527
 1881TIP3    H227279   6.612   3.626   8.871  0.8404 -1.2816  2.2621
 1882TIP3   OH227280   6.726   1.169   7.396 -0.0151 -0.3990  1.0731
 1882TIP3    H127281   6.757   1.260   7.390 -0.7997 -0.2177 -2.0763
 1882TIP3    H227282   6.630   1.176   7.388 -0.0470 -1.4956  0.1857
 1883TIP3   OH227283   5.485   1.331   7.654 -0.1344 -0.0316  0.0542
 1883TIP3    H127284   5.519   1.263   7.596 -1.2785  0.0220 -0.6989
 1883TIP3    H227285   5.477   1.409   7.598  1.7575  0.9353  1.0481
 1884TIP3   OH227286   1.857   4.570   7.436  0.4258  0.1779  0.1871
 1884TIP3    H127287   1.906   4.601   7.359 -0.2173 -1.6248 -1.0117
 1884TIP3    H227288   1.771   4.546   7.402 -0.2253  0.2894  1.6765
 1885TIP3   OH227289   6.433   2.387   7.359  0.2153 -0.1766 -0.4648
 1885TIP3    H127290   6.391   2.319   7.307 -2.4495  1.4708 -0.6437
 1885TIP3    H227291   6.364   2.419   7.417  1.4227  2.1540 -0.1932
 1886TIP3   OH227292   6.462   3.772   2.655 -0.6558  0.8172  0.6032
 1886TIP3    H127293   6.460   3.734   2.567  0.3462 -0.4590  1.1139
 1886TIP3    H227294   6.389   3.730   2.701 -0.0442  0.1054  0.9277
 1887TIP3   OH227295   1.872   2.687   1.781  0.7157 -0.0159  0.2145
 1887TIP3    H127296   1.863   2.757   1.846 -0.2772  1.4635 -1.4432
 1887TIP3    H227297   1.961   2.696   1.747  2.1163 -2.2719  2.8773
 1888TIP3   OH227298   0.859   3.183   1.012  0.2127  0.2434  0.2949
 1888TIP3    H127299   0.874   3.092   0.985  1.7329  0.5170  0.1385
 1888TIP3    H227300   0.944   3.225   1.002 -0.3509  1.5627  0.8771
 1889TIP3   OH227301   0.166   4.812   8.738 -0.2572 -0.4186  0.0396
 1889TIP3    H127302   0.222   4.825   8.661 -2.1007  0.8121 -1.1645
 1889TIP3    H227303   0.204   4.736   8.782  0.5419 -1.5447 -2.4018
 1890TIP3   OH227304   3.934   3.498   1.388  0.2611 -0.3032 -0.0147
 1890TIP3    H127305   3.903   3.510   1.478 -1.2047  0.1790 -0.5652
 1890TIP3    H227306   3.923   3.405   1.371  0.1924 -0.3285  0.1701
 1891TIP3   OH227307   4.558   5.209   3.125 -0.2980 -0.3609 -0.1686
 1891TIP3    H127308   4.523   5.246   3.044 -1.1323 -2.0450 -0.6138
 1891TIP3    H227309   4.653   5.206   3.111 -0.3939 -0.1839 -0.8822
 1892TIP3   OH227310   0.875   6.822   1.825 -0.5943 -0.1726  0.0409
 1892TIP3    H127311   0.852   6.915   1.822 -0.9801 -0.2451  0.7509
 1892TIP3    H227312   0.968   6.820   1.800 -1.1704  0.1656 -2.4216
 1893TIP3   OH227313   3.295   0.624   0.693 -0.3462  0.3751  0.5925
 1893TIP3    H127314   3.341   0.669   0.623 -0.0805 -0.7958 -0.0095
 1893TIP3    H227315   3.203   0.622   0.664  0.1702 -2.8545 -1.3551
 1894TIP3   OH227316   0.893   4.867   8.093 -0.3100 -0.1982 -0.2715
 1894TIP3    H127317   0.877   4.891   8.002 -1.5147  0.0116 -0.0103
 1894TIP3    H227318   0.903   4.951   8.138 -0.2238 -0.2918 -0.1155
 1895TIP3   OH227319   2.178   3.411   8.042  0.1610 -0.6954  0.0248
 1895TIP3    H127320   2.221   3.409   8.128  0.6973  0.6564 -0.1885
 1895TIP3    H227321   2.135   3.326   8.035 -0.3185 -0.6375  1.8426
 1896TIP3   OH227322   2.183   3.041   0.115  0.7782 -0.1550  0.0510
 1896TIP3    H127323   2.115   2.975   0.101  2.4977 -2.0120 -0.0337
 1896TIP3    H227324   2.235   3.006   0.188  0.1861  2.4814  1.8923
 1897TIP3   OH227325   2.192   0.474   8.216 -0.1475 -0.0526 -0.2478
 1897TIP3    H127326   2.192   0.559   8.259 -1.7183 -0.2931  0.2780
 1897TIP3    H227327   2.200   0.495   8.122  2.5585  0.4945  0.0341
 1898TIP3   OH227328   4.342   4.896   2.135  0.2425 -0.6555  0.5488
 1898TIP3    H127329   4.373   4.836   2.203 -0.1278 -1.5064 -0.0123
 1898TIP3    H227330   4.365   4.853   2.053  1.5130  0.7862  0.0947
 1899TIP3   OH227331   5.879   3.229   7.718  0.6063 -0.4104 -0.1908
 1899TIP3    H127332   5.837   3.263   7.639  0.7156  0.2547  0.0375
 1899TIP3    H227333   5.934   3.157   7.686 -0.3830 -1.0271 -0.5435
 1900TIP3   OH227334   1.582   3.238   7.522 -0.6977 -0.5077  0.0084
 1900TIP3    H127335   1.671   3.217   7.547 -0.5490  1.0383  0.8564
 1900TIP3    H227336   1.583   3.332   7.504 -2.0004 -0.5902 -0.6492
 1901TIP3   OH227337   3.987   2.680   0.137  0.7657  0.2991  0.1410
 1901TIP3    H127338   4.058   2.707   0.080  0.2448 -1.5294 -1.5011
 1901TIP3    H227339   4.024   2.609   0.189  0.5170  0.1962  0.1802
 1902TIP3   OH227340   3.927   4.219   1.938  0.2000  0.3468  0.0326
 1902TIP3    H127341   3.982   4.195   2.014  0.4120  0.5835 -0.0447
 1902TIP3    H227342   3.895   4.135   1.905  3.1628 -0.1860 -1.9221
 1903TIP3   OH227343   1.192   2.067   8.357  0.0754 -0.1016 -0.0095
 1903TIP3    H127344   1.175   2.132   8.426 -0.6783 -0.2580 -0.0410
 1903TIP3    H227345   1.194   2.118   8.276 -1.3602 -0.2066 -0.1353
 1904TIP3   OH227346   5.578   2.831   1.156  0.0157 -0.2119  0.1949
 1904TIP3    H127347   5.569   2.909   1.102 -0.5380 -1.9241 -2.3359
 1904TIP3    H227348   5.656   2.847   1.209 -1.0909  2.7580  1.0982
 1905TIP3   OH227349   2.276   1.421   1.875  0.1753  0.5593 -0.3113
 1905TIP3    H127350   2.259   1.450   1.965 -0.2414  0.0950 -0.2361
 1905TIP3    H227351   2.266   1.326   1.878  2.8615  0.1881 -0.2403
 1906TIP3   OH227352   6.740   0.591   8.797  0.5345 -0.1171 -0.4718
 1906TIP3    H127353   6.694   0.536   8.860 -0.1096 -0.3377 -1.1162
 1906TIP3    H227354   6.691   0.579   8.715  2.0018 -0.7019 -1.2908
 1907TIP3   OH227355   4.086   1.884   8.246 -0.0902 -0.0733  0.2385
 1907TIP3    H127356   4.123   1.819   8.186 -1.5628  0.9688 -1.9140
 1907TIP3    H227357   4.067   1.835   8.326  1.5310 -1.6198 -0.2580
 1908TIP3   OH227358   4.022   5.889   1.357  0.2088  0.2986  0.3625
 1908TIP3    H127359   4.061   5.834   1.425 -1.4891 -1.6319 -0.1017
 1908TIP3    H227360   4.073   5.870   1.278 -0.1546 -0.3950  0.2827
 1909TIP3   OH227361   0.475   4.372   1.013 -0.4270  0.5476  0.3657
 1909TIP3    H127362   0.519   4.287   1.020  0.3339  0.9546  0.6790
 1909TIP3    H227363   0.465   4.401   1.104  0.5075  1.3817  0.2143
 1910TIP3   OH227364   3.299   6.328   7.222  0.2303 -0.4237  0.4802
 1910TIP3    H127365   3.353   6.372   7.157 -0.3985  0.1444  0.3270
 1910TIP3    H227366   3.210   6.359   7.204 -0.5550 -3.0987 -0.7589
 1911TIP3   OH227367   3.504   6.719   7.097 -0.3551 -0.7821  0.5405
 1911TIP3    H127368   3.508   6.791   7.160  0.8783 -0.2853 -0.0775
 1911TIP3    H227369   3.596   6.696   7.081 -0.6659 -1.2205 -0.7014
 1912TIP3   OH227370   3.479   1.648   0.294 -0.6993  0.5124  0.1717
 1912TIP3    H127371   3.385   1.630   0.303 -0.4411 -1.8375 -1.0175
 1912TIP3    H227372   3.503   1.691   0.376 -2.1531 -2.0790  2.1176
 1913TIP3   OH227373   2.053   2.328   7.939 -0.6372  0.3139  0.5918
 1913TIP3    H127374   2.061   2.382   8.017 -2.9651 -0.4451  1.4777
 1913TIP3    H227375   2.101   2.248   7.960  0.5332  0.9408  0.3610
 1914TIP3   OH227376   0.025   2.065   0.450 -0.0103  0.4296  0.1463
 1914TIP3    H127377   0.045   2.070   0.544  1.6276  0.5954 -0.1829
 1914TIP3    H227378   0.073   2.139   0.412 -0.9207  0.5546 -0.7939
 1915TIP3   OH227379   4.370   1.359   7.948 -0.2294 -0.0485  0.3151
 1915TIP3    H127380   4.375   1.271   7.984 -0.5580 -0.3628 -0.3978
 1915TIP3    H227381   4.277   1.377   7.939 -0.1700 -0.3379 -1.2016
 1916TIP3   OH227382   3.177   4.794   1.149 -0.1346 -0.7494 -0.5326
 1916TIP3    H127383   3.234   4.871   1.150 -0.3955 -0.5549  0.1716
 1916TIP3    H227384   3.218   4.733   1.211 -1.4554 -0.0193  1.1334
 1917TIP3   OH227385   2.017   4.029   8.802 -0.0520  0.2225  0.1264
 1917TIP3    H127386   2.056   4.053   8.719  1.2174  0.6178  0.8051
 1917TIP3    H227387   2.049   4.095   8.864  1.6665 -1.8047  1.5607
 1918TIP3   OH227388   0.073   6.295   8.054  0.0949  0.4271  0.1161
 1918TIP3    H127389   0.031   6.364   8.105 -0.3723  0.4183 -0.2480
 1918TIP3    H227390   0.020   6.217   8.069  0.2204  0.3148 -0.0168
 1919TIP3   OH227391   6.363   5.500   8.207  0.6265 -0.4592  0.2103
 1919TIP3    H127392   6.401   5.495   8.295 -0.3226 -0.3320  0.6465
 1919TIP3    H227393   6.303   5.575   8.211 -0.5671 -1.3571 -0.0717
 1920TIP3   OH227394   5.047   5.660   7.821 -0.0839  0.2772 -0.3122
 1920TIP3    H127395   5.137   5.662   7.787  0.2438  0.9259  0.5510
 1920TIP3    H227396   5.002   5.731   7.775  0.5321  1.5763  1.0346
 1921TIP3   OH227397   1.102   2.265   1.795 -0.1170 -0.1949 -1.0757
 1921TIP3    H127398   1.115   2.279   1.701  2.7267  3.6083 -0.4004
 1921TIP3    H227399   1.191   2.253   1.829 -0.7794  1.1652  1.3594
 1922TIP3   OH227400   4.365   2.609   2.704  0.2727  0.0468 -0.1954
 1922TIP3    H127401   4.352   2.651   2.789  0.1710 -0.6182  0.1253
 1922TIP3    H227402   4.329   2.671   2.641  1.2919  1.0265  0.1393
 1923TIP3   OH227403   1.280   1.486   6.300 -0.1909 -0.2332  0.3327
 1923TIP3    H127404   1.242   1.556   6.353  1.4833  0.6971  0.3862
 1923TIP3    H227405   1.294   1.414   6.361 -1.6787 -0.5552  0.3353
 1924TIP3   OH227406   1.931   3.877   1.256 -0.3257  0.0365 -0.3812
 1924TIP3    H127407   1.981   3.882   1.175 -0.4879  1.0107 -0.4294
 1924TIP3    H227408   1.962   3.951   1.308 -1.0949  0.1430 -0.0615
 1925TIP3   OH227409   5.755   2.953   1.363  0.2993  0.2945  0.0360
 1925TIP3    H127410   5.841   2.914   1.378 -0.4379 -2.2817 -1.7848
 1925TIP3    H227411   5.698   2.913   1.429  0.0684  0.2954 -0.1610
 1926TIP3   OH227412   6.176   4.094   7.674  0.3609  0.0333 -0.2228
 1926TIP3    H127413   6.204   4.103   7.583  1.6779  1.0426  0.2478
 1926TIP3    H227414   6.143   4.181   7.698  1.2661  0.1519  0.6487
 1927TIP3   OH227415   4.231   6.145   1.086 -0.7740 -0.4972  0.7619
 1927TIP3    H127416   4.301   6.080   1.078 -0.4969 -0.1552  0.3726
 1927TIP3    H227417   4.160   6.110   1.031 -0.9274 -0.8632  1.1880
 1928TIP3   OH227418   2.044   2.040   1.501  0.0005  0.0655  0.3404
 1928TIP3    H127419   2.074   2.060   1.590 -0.5442  0.0819  0.5284
 1928TIP3    H227420   1.958   2.082   1.496 -0.3573 -0.6848  0.1079
 1929TIP3   OH227421   5.602   0.399   2.485 -0.0824  0.1427 -0.2978
 1929TIP3    H127422   5.686   0.441   2.471  0.3116 -0.2638  0.7151
 1929TIP3    H227423   5.623   0.317   2.529 -1.1024  0.7312  1.3780
 1930TIP3   OH227424   1.363   0.480   8.592  0.2580 -0.3094 -0.3458
 1930TIP3    H127425   1.402   0.430   8.664  1.3447  0.2130 -0.5510
 1930TIP3    H227426   1.437   0.524   8.551 -0.6094  1.1207 -0.4464
 1931TIP3   OH227427   1.933   1.209   6.919  0.6244 -0.4925 -0.2455
 1931TIP3    H127428   2.007   1.165   6.877  0.3428 -0.4920 -0.7557
 1931TIP3    H227429   1.900   1.146   6.982  0.9589 -0.5558 -0.1334
 1932TIP3   OH227430   1.586   5.407   0.770 -0.6124 -0.1818  0.1308
 1932TIP3    H127431   1.612   5.333   0.715  1.4315  1.0004 -0.6113
 1932TIP3    H227432   1.592   5.374   0.860  0.3449 -0.9140 -0.1927
 1933TIP3   OH227433   0.650   2.103   1.909 -0.2314 -0.3996  0.2988
 1933TIP3    H127434   0.743   2.098   1.929  0.1258  1.2735 -0.7419
 1933TIP3    H227435   0.615   2.163   1.974 -1.0125 -2.4654  1.8875
 1934TIP3   OH227436   1.074   2.259   7.351  0.6767  0.3604 -0.4741
 1934TIP3    H127437   1.083   2.286   7.442  4.3568 -0.7513 -0.3580
 1934TIP3    H227438   1.063   2.341   7.303 -1.1441  0.9764  0.8458
 1935TIP3   OH227439   2.123   4.830   7.349 -0.1209 -0.3646  0.3269
 1935TIP3    H127440   2.214   4.801   7.339 -0.2377 -2.0782  3.2383
 1935TIP3    H227441   2.073   4.768   7.296  0.2772 -0.2075 -0.2506
 1936TIP3   OH227442   3.314   0.042   1.834  0.4140  0.3747  0.2275
 1936TIP3    H127443   3.283   0.128   1.863  1.3802  0.2305  1.8003
 1936TIP3    H227444   3.235  -0.013   1.833  0.2448  0.5222  2.1796
 1937TIP3   OH227445   1.486   3.856   0.311 -0.1265 -0.2406  0.2223
 1937TIP3    H127446   1.467   3.797   0.238 -0.3880  0.8118 -0.5852
 1937TIP3    H227447   1.582   3.863   0.311 -0.1868  1.0547 -1.1171
 1938TIP3   OH227448   6.425   0.741   8.556 -0.1614 -0.1819 -0.0219
 1938TIP3    H127449   6.354   0.684   8.526  0.8939 -2.1731  1.0405
 1938TIP3    H227450   6.469   0.768   8.475 -0.3643 -1.3803 -0.5603
 1939TIP3   OH227451   4.188   2.978   2.343 -0.6658  0.3624 -0.0609
 1939TIP3    H127452   4.238   3.049   2.383 -1.3176  1.2802 -0.8524
 1939TIP3    H227453   4.218   2.974   2.253 -0.9632 -0.0704 -0.1454
 1940TIP3   OH227454   5.194   1.838   0.733  0.1667 -0.5048  0.6697
 1940TIP3    H127455   5.119   1.873   0.780  0.3896 -0.4545  0.9889
 1940TIP3    H227456   5.158   1.765   0.682 -0.3013  0.1921 -0.0223
 1941TIP3   OH227457   3.435   2.318   0.600  0.3097  0.0028 -0.0616
 1941TIP3    H127458   3.469   2.250   0.542  0.9581  0.3965 -0.1600
 1941TIP3    H227459   3.513   2.365   0.629 -0.0327 -0.0333  0.9350
 1942TIP3   OH227460   1.303   1.582   2.458 -0.1136 -0.2633 -0.1551
 1942TIP3    H127461   1.209   1.584   2.476 -0.6348  0.0471 -2.6477
 1942TIP3    H227462   1.319   1.494   2.425  0.7964 -0.7815  1.5268
 1943TIP3   OH227463   1.954   2.100   1.181 -0.2001 -0.5692 -0.6008
 1943TIP3    H127464   2.003   2.161   1.235 -0.8023 -0.0954 -0.5773
 1943TIP3    H227465   2.010   2.023   1.175 -1.1508 -1.7197  2.8543
 1944TIP3   OH227466   2.071   6.487   8.578 -0.1681 -0.1813 -0.5343
 1944TIP3    H127467   2.132   6.413   8.578 -0.3540 -0.3473  0.1817
 1944TIP3    H227468   2.102   6.543   8.508  1.4509  0.2482  0.4622
 1945TIP3   OH227469   6.366   4.530   8.708 -0.3315  0.0655 -0.1122
 1945TIP3    H127470   6.407   4.522   8.622 -0.8892  2.0476 -0.5989
 1945TIP3    H227471   6.344   4.440   8.732  0.5074 -0.6056 -1.6879
 1946TIP3   OH227472   3.814   4.237   0.458 -0.6769  0.0861  0.8294
 1946TIP3    H127473   3.822   4.210   0.366 -1.6331  1.6921  0.2380
 1946TIP3    H227474   3.898   4.277   0.479 -0.9530  1.0592  0.1607
 1947TIP3   OH227475   3.153   1.809   0.886 -0.6493 -0.8383 -0.6078
 1947TIP3    H127476   3.212   1.884   0.895 -0.6911 -0.5654 -2.3649
 1947TIP3    H227477   3.068   1.841   0.917 -0.6312 -0.1930 -1.2052
 1948TIP3   OH227478   0.631   0.623   2.139 -0.6811 -0.2610  0.3454
 1948TIP3    H127479   0.698   0.564   2.105 -1.4703 -0.7123 -0.5037
 1948TIP3    H227480   0.641   0.619   2.234  0.2134 -0.6369  0.2482
 1949TIP3   OH227481   6.173   4.713   8.470  0.6277  0.2704 -0.0439
 1949TIP3    H127482   6.237   4.717   8.541  0.3628 -0.1438  0.2179
 1949TIP3    H227483   6.134   4.801   8.469  0.5481  0.2474  0.4062
 1950TIP3   OH227484   5.638   0.844   8.363  0.0244 -0.0171  0.5020
 1950TIP3    H127485   5.598   0.920   8.406 -0.8696 -1.2219  1.9232
 1950TIP3    H227486   5.666   0.787   8.435 -0.1053 -1.4194 -0.5036
 1951TIP3   OH227487   4.904   2.076   7.557  0.2155  0.6901 -0.0498
 1951TIP3    H127488   4.873   2.112   7.473 -1.8762 -1.8294 -0.4847
 1951TIP3    H227489   4.982   2.026   7.534 -0.0403  0.4490 -0.4071
 1952TIP3   OH227490   5.047   6.538   1.947 -0.3398 -0.0871 -0.4653
 1952TIP3    H127491   5.094   6.463   1.985 -1.9261 -1.7339 -1.5644
 1952TIP3    H227492   5.116   6.599   1.922  1.2276 -2.2057 -1.6581
 1953TIP3   OH227493   6.289   4.451   7.673  0.3778  0.3474  0.0938
 1953TIP3    H127494   6.270   4.541   7.648  0.3953  0.1036 -0.8354
 1953TIP3    H227495   6.204   4.407   7.670  0.7384 -0.3109 -2.2515
 1954TIP3   OH227496   0.683   6.445   7.402  0.2314  0.1047  0.0946
 1954TIP3    H127497   0.693   6.391   7.323  1.0494 -0.2290  0.4094
 1954TIP3    H227498   0.706   6.533   7.373  0.8854 -0.0776  0.0247
 1955TIP3   OH227499   1.820   5.702   8.403 -0.5852 -0.4487 -0.0180
 1955TIP3    H127500   1.890   5.768   8.397 -0.6614 -0.3091  0.6369
 1955TIP3    H227501   1.859   5.631   8.453 -0.7202 -0.6290 -0.1691
 1956TIP3   OH227502   4.103   6.107   1.501  0.0696  0.1889 -0.2150
 1956TIP3    H127503   4.049   6.099   1.579 -0.2911  1.1068 -0.3561
 1956TIP3    H227504   4.058   6.055   1.435 -1.2854  1.7875 -0.6419
 1957TIP3   OH227505   6.408   0.986   7.237  0.2251  0.5431  0.1551
 1957TIP3    H127506   6.485   0.937   7.208 -1.5704 -1.9151 -0.7672
 1957TIP3    H227507   6.443   1.070   7.266  3.1300 -0.0692 -1.2059
 1958TIP3   OH227508   6.563   4.423   7.735  0.0295  0.3068  0.5396
 1958TIP3    H127509   6.472   4.445   7.717 -0.4151 -0.3797  1.8765
 1958TIP3    H227510   6.586   4.359   7.667  0.1779  1.9425 -1.0326
 1959TIP3   OH227511   3.459   5.080   8.255  0.1217  0.4565  0.1727
 1959TIP3    H127512   3.404   5.010   8.221  2.4744 -1.7667  0.6407
 1959TIP3    H227513   3.397   5.143   8.292 -2.1358 -0.9044 -1.0500
 1960TIP3   OH227514   4.611   1.076   2.211 -0.3085 -0.8168 -0.6449
 1960TIP3    H127515   4.691   1.119   2.182 -0.1103 -1.4876 -1.1214
 1960TIP3    H227516   4.612   1.085   2.306 -0.7528  1.0464 -0.7722
 1961TIP3   OH227517   1.897   4.700   0.785  0.0152  0.5214  0.8238
 1961TIP3    H127518   1.862   4.628   0.836 -1.3436 -0.2896 -1.1193
 1961TIP3    H227519   1.951   4.658   0.718 -1.5845  1.1388 -0.9519
 1962TIP3   OH227520   5.787   2.305   7.553  0.3220  0.5974  0.3400
 1962TIP3    H127521   5.820   2.221   7.585  0.9085  0.9731  0.7514
 1962TIP3    H227522   5.830   2.318   7.469 -1.4308 -0.5215 -0.7892
 1963TIP3   OH227523   2.468   4.528   0.428 -0.3089  0.8884 -0.4639
 1963TIP3    H127524   2.466   4.436   0.452  2.1577  1.2037  1.3423
 1963TIP3    H227525   2.384   4.562   0.458 -1.0751 -0.6562 -0.7675
 1964TIP3   OH227526   5.875   6.751   7.939 -0.1181 -0.1745  0.3513
 1964TIP3    H127527   5.787   6.713   7.938 -0.3821  0.4221 -0.7672
 1964TIP3    H227528   5.933   6.675   7.940 -0.6396 -0.5835  0.4465
 1965TIP3   OH227529   4.604   5.057   2.259 -0.2328  0.1317 -0.1237
 1965TIP3    H127530   4.681   5.017   2.300  0.1735  0.8703 -0.1580
 1965TIP3    H227531   4.534   4.993   2.273 -0.0278  0.2262  1.4368
 1966TIP3   OH227532   2.434   3.826   2.027  0.0902 -0.2343  0.1682
 1966TIP3    H127533   2.388   3.761   2.080  2.1786 -1.3382  0.7339
 1966TIP3    H227534   2.442   3.902   2.085  0.1887 -0.5364  0.5579
 1967TIP3   OH227535   6.417   4.549   8.165 -0.4166  0.1525 -0.5985
 1967TIP3    H127536   6.454   4.475   8.116 -0.5560 -0.7284  0.5770
 1967TIP3    H227537   6.472   4.624   8.141 -0.8229 -0.1017 -2.5155
 1968TIP3   OH227538   3.758   6.563   2.421  0.1306 -0.9785  0.4416
 1968TIP3    H127539   3.831   6.594   2.474 -0.0333  0.3483 -0.0644
 1968TIP3    H227540   3.799   6.506   2.356  1.0561  1.1051 -0.9499
 1969TIP3   OH227541   5.162   6.764   2.147 -0.2291 -0.6046 -0.2129
 1969TIP3    H127542   5.163   6.786   2.054  0.2155 -1.3275 -0.3899
 1969TIP3    H227543   5.208   6.680   2.152 -0.7615 -0.8602  0.5844
 1970TIP3   OH227544   2.345   5.797   0.042 -0.3159  0.3714  0.7608
 1970TIP3    H127545   2.437   5.770   0.038  0.0293  1.5166  0.2246
 1970TIP3    H227546   2.295   5.716   0.031  0.6086 -0.4357  2.2323
 1971TIP3   OH227547   1.546   6.302   1.809 -0.2116  0.0063 -0.5370
 1971TIP3    H127548   1.504   6.364   1.750 -1.6934  1.4819  1.9314
 1971TIP3    H227549   1.483   6.230   1.817 -0.0020 -0.2011 -0.7006
 1972TIP3   OH227550   0.259   6.737   2.478  0.1415  0.1093  0.2112
 1972TIP3    H127551   0.196   6.716   2.409  1.0797 -0.3008 -0.5479
 1972TIP3    H227552   0.343   6.707   2.444  0.7020  0.3111  1.3528
 1973TIP3   OH227553   2.778   1.429   2.053 -0.2397  0.1438  0.3381
 1973TIP3    H127554   2.787   1.470   1.967 -2.8553  0.6125  0.1901
 1973TIP3    H227555   2.708   1.365   2.042  0.0336 -0.4797  1.9027
 1974TIP3   OH227556   6.140   0.206   1.778 -0.3197 -0.2950  0.6615
 1974TIP3    H127557   6.091   0.137   1.824 -2.6722  0.4547 -0.6051
 1974TIP3    H227558   6.109   0.202   1.688  0.9413  1.1770  0.1141
 1975TIP3   OH227559   2.029   6.223   8.340 -0.0433 -0.4981  0.1916
 1975TIP3    H127560   2.069   6.292   8.393  0.8049 -0.7512 -0.1124
 1975TIP3    H227561   1.992   6.269   8.265  1.3394 -0.4715 -0.4849
 1976TIP3   OH227562   6.092   4.060   8.710 -0.0404  0.4239 -0.3303
 1976TIP3    H127563   6.093   3.971   8.745  2.1494 -0.4545 -2.3547
 1976TIP3    H227564   6.018   4.061   8.650 -1.1801  0.6074  1.0128
 1977TIP3   OH227565   4.137   6.651   7.207  0.2397 -0.2235 -0.0761
 1977TIP3    H127566   4.104   6.562   7.220 -0.7662  0.2804  1.0663
 1977TIP3    H227567   4.122   6.695   7.291  0.6951  1.0317 -0.6226
 1978TIP3   OH227568   2.511   4.422   7.731  0.2504  0.6975 -0.4357
 1978TIP3    H127569   2.426   4.440   7.772 -0.1902 -0.7138 -0.7040
 1978TIP3    H227570   2.573   4.475   7.782 -0.6219  0.8422  0.5086
 1979TIP3   OH227571   0.497   5.201   1.911 -0.0048 -0.0991 -0.3026
 1979TIP3    H127572   0.530   5.229   1.826  1.5194 -1.9906 -0.4097
 1979TIP3    H227573   0.528   5.269   1.972  0.0641  0.5638 -1.0648
 1980TIP3   OH227574   1.525   0.351   1.988 -0.0027 -0.4558  0.2188
 1980TIP3    H127575   1.478   0.423   2.030  0.2265  0.5129 -1.1090
 1980TIP3    H227576   1.496   0.355   1.897  0.6812 -1.5076 -0.0532
 1981TIP3   OH227577   2.538   0.616   7.355 -0.0780 -0.6577 -0.3243
 1981TIP3    H127578   2.545   0.578   7.268 -1.4079  0.4684 -0.9506
 1981TIP3    H227579   2.444   0.619   7.373  0.0845  0.6780  0.4367
 1982TIP3   OH227580   3.998   1.551   1.864 -0.2124 -0.1526  0.2605
 1982TIP3    H127581   3.944   1.615   1.816  0.7818 -0.2093 -0.9947
 1982TIP3    H227582   3.945   1.471   1.863 -1.2594  0.4804  1.4266
 1983TIP3   OH227583   5.745   4.692   8.187 -0.2418 -0.2729 -0.2857
 1983TIP3    H127584   5.793   4.609   8.187  1.0272  0.3991 -1.7377
 1983TIP3    H227585   5.654   4.668   8.201  0.2278 -1.8154  0.2531
 1984TIP3   OH227586   5.126   0.664   0.068 -0.1288  0.1164 -0.6875
 1984TIP3    H127587   5.194   0.704   0.123  0.2719  0.7714 -1.6233
 1984TIP3    H227588   5.158   0.676  -0.021 -0.1314 -2.0941 -1.0349
 1985TIP3   OH227589   5.084   4.718   1.354 -0.2663 -0.1654 -0.0214
 1985TIP3    H127590   5.105   4.663   1.429 -1.7191 -0.9066 -0.1385
 1985TIP3    H227591   5.142   4.794   1.364  0.9713 -1.1542  0.7532
 1986TIP3   OH227592   2.067   5.111   7.306  0.1203 -0.5127 -0.1643
 1986TIP3    H127593   2.099   5.023   7.327  2.0927  0.3014  0.4447
 1986TIP3    H227594   2.104   5.130   7.219  0.0747 -0.1069 -0.0952
 1987TIP3   OH227595   5.650   3.658   8.777 -0.0533 -0.0003 -0.1293
 1987TIP3    H127596   5.731   3.610   8.757  0.5312  1.2983 -1.0330
 1987TIP3    H227597   5.676   3.724   8.840 -0.9861 -1.1819  1.5848
 1988TIP3   OH227598   5.979   6.380   7.426  0.3268  0.2041 -0.2375
 1988TIP3    H127599   6.027   6.437   7.366  1.7741 -0.8196 -0.1090
 1988TIP3    H227600   6.023   6.295   7.419 -1.0684 -0.6137  0.4077
 1989TIP3   OH227601   2.482   5.500   1.276  0.1426 -0.3273  0.2198
 1989TIP3    H127602   2.393   5.466   1.284  0.5676 -1.2876  1.1409
 1989TIP3    H227603   2.538   5.429   1.310  1.1700  0.7360  0.8193
 1990TIP3   OH227604   2.131   3.669   2.062  0.3332 -0.1171  0.1509
 1990TIP3    H127605   2.095   3.581   2.057 -0.6096  0.2869 -0.5012
 1990TIP3    H227606   2.106   3.710   1.979  0.8908  0.7108  0.3808
 1991TIP3   OH227607   0.048   6.255   0.540  0.1688 -0.1694  0.2844
 1991TIP3    H127608   0.025   6.348   0.546  2.3252  0.5356 -0.9909
 1991TIP3    H227609   0.117   6.244   0.605 -0.8336 -1.1965  1.2085
 1992TIP3   OH227610   2.701   4.645   8.859 -0.1997  0.2503 -0.3718
 1992TIP3    H127611   2.771   4.682   8.805 -0.6230 -0.5141 -1.4876
 1992TIP3    H227612   2.666   4.719   8.908 -0.0482  1.0456 -1.4409
 1993TIP3   OH227613   2.380   4.507   8.167 -0.9366  0.0905  0.2045
 1993TIP3    H127614   2.308   4.568   8.150 -0.4459  0.4051 -0.8951
 1993TIP3    H227615   2.345   4.421   8.143 -1.0844  0.1847  0.0814
 1994TIP3   OH227616   0.761   2.293   2.606 -0.2799 -0.1333 -0.0049
 1994TIP3    H127617   0.835   2.354   2.601  0.9409 -1.4614  0.8478
 1994TIP3    H227618   0.734   2.280   2.515  0.4024  0.5426 -0.3145
 1995TIP3   OH227619   0.293   5.719   8.556 -0.0256  0.0034  0.2054
 1995TIP3    H127620   0.321   5.631   8.579  1.1158  0.9451  2.6873
 1995TIP3    H227621   0.340   5.739   8.474 -0.1841 -1.5815 -0.3046
 1996TIP3   OH227622   3.553   6.289   6.670  0.1451 -0.1660  0.3180
 1996TIP3    H127623   3.631   6.251   6.711 -0.1844 -1.8769 -0.5600
 1996TIP3    H227624   3.484   6.225   6.686 -1.0728  1.2223  0.9039
 1997TIP3   OH227625   5.654   4.390   0.511 -0.8015 -0.6681 -0.3872
 1997TIP3    H127626   5.581   4.445   0.541 -0.7137 -0.2385 -0.9332
 1997TIP3    H227627   5.619   4.347   0.433 -1.1263 -1.9834  0.4536
 1998TIP3   OH227628   0.752   3.166   8.590 -0.1441  0.4073 -0.3167
 1998TIP3    H127629   0.799   3.093   8.629 -0.9028  1.1887  2.2574
 1998TIP3    H227630   0.816   3.208   8.532  1.2996 -0.4051  0.6362
 1999TIP3   OH227631   1.604   0.193   7.517 -0.0902 -0.1316 -0.2477
 1999TIP3    H127632   1.526   0.163   7.564  0.4441 -0.0501  0.7044
 1999TIP3    H227633   1.663   0.118   7.516  0.3144  0.1775  0.1068
 2000TIP3   OH227634   6.634   3.634   2.117 -0.1854  0.2593  0.0070
 2000TIP3    H127635   6.597   3.722   2.122  2.8332  1.6034  0.9469
 2000TIP3    H227636   6.728   3.647   2.124  0.5285 -2.9444 -1.6937
 2001TIP3   OH227637   6.219   6.097   1.764 -0.6119 -0.1284  0.2644
 2001TIP3    H127638   6.131   6.061   1.774 -0.5120 -0.0568  1.5745
 2001TIP3    H227639   6.214   6.185   1.802  0.0856 -0.2159  0.5720
 2002TIP3   OH227640   1.552   2.459   8.626  0.4601  0.1024 -0.1437
 2002TIP3    H127641   1.607   2.486   8.552  0.5514  0.2441 -0.0242
 2002TIP3    H227642   1.474   2.514   8.619 -0.0719 -0.7159 -0.8332
 2003TIP3   OH227643   2.640   3.458   7.467  0.3816 -0.1913 -0.6290
 2003TIP3    H127644   2.633   3.484   7.376  1.0942 -0.9676 -0.9165
 2003TIP3    H227645   2.561   3.494   7.508  0.5577  1.0312 -1.3189
 2004TIP3   OH227646   1.677   1.377   0.046 -0.3160 -0.2093 -0.0355
 2004TIP3    H127647   1.601   1.337   0.088 -0.0857 -1.0472 -0.3805
 2004TIP3    H227648   1.703   1.313  -0.021 -0.6355  1.0566 -1.4132
 2005TIP3   OH227649   3.145   4.907   7.111 -0.0680  0.5172  0.3754
 2005TIP3    H127650   3.107   4.964   7.179  0.2903 -1.2039  2.1189
 2005TIP3    H227651   3.212   4.857   7.157  0.5930 -0.3188 -1.4225
 2006TIP3   OH227652   6.416   6.389   1.265  0.4229 -0.5258  0.1020
 2006TIP3    H127653   6.356   6.323   1.230 -0.2054  0.0689  0.0451
 2006TIP3    H227654   6.461   6.424   1.188  1.2055 -1.3130  0.1909
 2007TIP3   OH227655   5.203   3.340   2.317 -0.2646 -0.1800 -0.2239
 2007TIP3    H127656   5.224   3.342   2.223 -0.4495 -1.4891 -0.3095
 2007TIP3    H227657   5.108   3.332   2.320 -0.2892  0.1816  0.0901
 2008TIP3   OH227658   6.206   5.926   0.190 -1.0902  0.0023 -0.1355
 2008TIP3    H127659   6.275   5.860   0.178 -0.2767  0.7563  0.2712
 2008TIP3    H227660   6.146   5.912   0.117 -0.3340 -0.4701 -0.6775
 2009TIP3   OH227661   6.608   4.294   1.978  0.8580 -0.4071 -0.3400
 2009TIP3    H127662   6.649   4.209   1.997  0.8385 -0.4146 -0.3315
 2009TIP3    H227663   6.682   4.355   1.971  0.9185 -0.5468 -1.0028
 2010TIP3   OH227664   0.665   6.079   8.184 -0.5697  0.2996  0.0418
 2010TIP3    H127665   0.605   6.007   8.171 -0.2015 -0.1656  0.8576
 2010TIP3    H227666   0.616   6.143   8.235 -0.0550 -0.5428  1.6421
 2011TIP3   OH227667   6.660   4.359   0.399  0.1676 -0.3858 -0.2958
 2011TIP3    H127668   6.619   4.420   0.459  1.1551  0.1284 -0.1210
 2011TIP3    H227669   6.738   4.329   0.445  0.4898 -0.6326 -0.9847
 2012TIP3   OH227670   3.055   3.114   1.314 -0.8441  0.2849  0.1629
 2012TIP3    H127671   3.100   3.032   1.334  1.5818  1.1559 -1.1767
 2012TIP3    H227672   3.111   3.155   1.247 -2.9200  2.2060 -0.5001
 2013TIP3   OH227673   4.382   0.253   0.892 -0.3516  0.5945 -0.2504
 2013TIP3    H127674   4.304   0.200   0.907  0.0398  0.3071  0.8698
 2013TIP3    H227675   4.395   0.300   0.974  1.4009 -0.3740  0.0898
 2014TIP3   OH227676   4.741   1.356   8.307 -0.2770 -0.2956  0.6287
 2014TIP3    H127677   4.715   1.311   8.387 -1.4745 -0.2054  0.3027
 2014TIP3    H227678   4.694   1.439   8.309 -0.7383 -0.5135 -0.4181
 2015TIP3   OH227679   4.009   3.896   7.886 -0.3800  0.6295 -0.2471
 2015TIP3    H127680   4.028   3.989   7.873 -0.9313  1.1710  2.3193
 2015TIP3    H227681   3.914   3.892   7.901 -0.4364 -0.4198 -0.7539
 2016TIP3   OH227682   4.944   3.380   2.258  0.5403 -0.1365  0.1702
 2016TIP3    H127683   4.905   3.408   2.341  0.2493 -1.4574  0.4923
 2016TIP3    H227684   4.908   3.441   2.194 -0.5478 -0.1208  0.7651
 2017TIP3   OH227685   3.589   0.653   8.337  0.2868  0.5806  0.0232
 2017TIP3    H127686   3.638   0.601   8.402  0.1999  1.9757  1.2598
 2017TIP3    H227687   3.611   0.612   8.253  1.4798 -0.4608  0.7881
 2018TIP3   OH227688   1.956   3.247   1.029  0.1361 -0.5415  0.2071
 2018TIP3    H127689   1.911   3.170   1.062  1.1384 -0.6297  1.4429
 2018TIP3    H227690   1.906   3.273   0.952  0.2613 -2.9009 -0.7270
 2019TIP3   OH227691   6.360   5.929   8.277  0.1214  0.0130  0.0845
 2019TIP3    H127692   6.432   5.992   8.286  0.4375 -0.3840  0.3388
 2019TIP3    H227693   6.282   5.981   8.297  0.4870  0.0393  1.5824
 2020TIP3   OH227694   1.794   3.703   2.367 -1.1115 -0.4432  0.4236
 2020TIP3    H127695   1.708   3.733   2.338  0.0472  1.3404 -1.3692
 2020TIP3    H227696   1.836   3.781   2.403 -0.1570 -1.2637  1.1522
 2021TIP3   OH227697   3.494   0.581   2.496  0.7776  0.2569 -0.0800
 2021TIP3    H127698   3.567   0.620   2.545  0.5992  1.7130 -0.9294
 2021TIP3    H227699   3.492   0.489   2.525  0.9049  0.9537  2.3694
 2022TIP3   OH227700   5.017   3.942   8.455  0.1998 -0.2308 -0.2879
 2022TIP3    H127701   5.024   3.937   8.550 -0.8631  1.3887 -0.0986
 2022TIP3    H227702   5.098   3.985   8.427 -0.7698  2.0064  0.1973
 2023TIP3   OH227703   5.349   5.356   2.089 -0.4639  0.1157  0.1701
 2023TIP3    H127704   5.402   5.345   2.009  0.2764  0.5437  0.5850
 2023TIP3    H227705   5.278   5.413   2.062 -1.0852 -0.9644 -0.5546
 2024TIP3   OH227706   4.527   2.671   1.116  0.2709  0.8121 -0.1173
 2024TIP3    H127707   4.479   2.619   1.051  0.8880  1.0882 -0.8039
 2024TIP3    H227708   4.598   2.613   1.145 -0.3691  0.4530  0.8007
 2025TIP3   OH227709   2.494   6.529   0.581 -0.3599  0.2332  0.0698
 2025TIP3    H127710   2.510   6.438   0.556 -1.5058  0.0797 -0.1581
 2025TIP3    H227711   2.576   6.574   0.560  0.9532 -1.0811  2.0482
 2026TIP3   OH227712   3.595   4.876   1.904 -0.3249  0.1960 -0.6020
 2026TIP3    H127713   3.515   4.823   1.909  0.0976 -0.3188  1.0155
 2026TIP3    H227714   3.633   4.871   1.991  3.5011 -2.6646 -2.1637
 2027TIP3   OH227715   5.154   0.511   0.531  0.1418  0.0607  0.0328
 2027TIP3    H127716   5.170   0.433   0.584  0.3631 -0.2350 -0.4675
 2027TIP3    H227717   5.235   0.562   0.537 -0.1804  0.5141  0.7784
 2028TIP3   OH227718   3.660   5.433   8.346 -0.6277 -0.0076 -0.1635
 2028TIP3    H127719   3.579   5.441   8.397  0.5327 -0.4123  1.8335
 2028TIP3    H227720   3.696   5.348   8.370  0.2932  0.0581 -1.2250
 2029TIP3   OH227721   4.499   1.602   1.608  0.1798 -0.2125 -0.2955
 2029TIP3    H127722   4.409   1.571   1.605  0.5090 -1.2545  0.2082
 2029TIP3    H227723   4.536   1.563   1.687  0.7530  1.1288  0.1388
 2030TIP3   OH227724   1.685   3.099   7.719  0.1628 -0.2196 -0.0323
 2030TIP3    H127725   1.595   3.094   7.688 -0.3778  1.2624  1.1673
 2030TIP3    H227726   1.691   3.032   7.787 -0.5261  0.6557  0.9353
 2031TIP3   OH227727   2.684   5.284   7.722  0.6822 -0.0878  0.2590
 2031TIP3    H127728   2.746   5.285   7.649 -1.5793  0.7624 -1.7727
 2031TIP3    H227729   2.652   5.194   7.724 -0.1567  0.1723 -0.6640
 2032TIP3   OH227730   1.546   6.328   0.550 -0.1311 -0.1363  0.5394
 2032TIP3    H127731   1.578   6.238   0.560 -0.0815 -0.2013 -0.1183
 2032TIP3    H227732   1.616   6.383   0.585  0.0742 -0.3362  0.4438
 2033TIP3   OH227733   6.305   3.556   8.307 -0.0808  0.6220  0.2028
 2033TIP3    H127734   6.317   3.498   8.232  1.5405 -0.0680  0.9452
 2033TIP3    H227735   6.292   3.497   8.381 -0.2356  1.2510  0.6851
 2034TIP3   OH227736   5.713   2.997   2.326  0.3224 -0.1955  0.4489
 2034TIP3    H127737   5.664   2.975   2.247 -0.1762  1.2423  0.3294
 2034TIP3    H227738   5.651   3.048   2.379  0.9601 -0.3230  1.3425
 2035TIP3   OH227739   3.735   4.188   2.180  0.0543  0.4456  0.0431
 2035TIP3    H127740   3.642   4.168   2.189  0.0326  0.7499  0.5598
 2035TIP3    H227741   3.736   4.272   2.133  0.1372 -0.5690 -1.8834
 2036TIP3   OH227742   2.649   2.652   7.437  0.3456  0.8160 -0.3090
 2036TIP3    H127743   2.602   2.600   7.372  2.6559  0.6640 -2.0044
 2036TIP3    H227744   2.602   2.637   7.519 -0.4470 -2.1549 -1.1720
 2037TIP3   OH227745   6.227   4.922   0.817 -0.3556  0.9000 -0.2257
 2037TIP3    H127746   6.153   4.967   0.776 -0.5999  1.2684  0.6073
 2037TIP3    H227747   6.283   4.896   0.743 -2.2633 -1.1365 -1.0540
 2038TIP3   OH227748   5.908   1.585   0.653 -1.0305 -0.3859 -0.3107
 2038TIP3    H127749   5.963   1.655   0.617  0.8378 -1.9531 -0.6542
 2038TIP3    H227750   5.943   1.569   0.741  0.2273 -2.4810 -1.1133
 2039TIP3   OH227751   2.197   2.303   8.507 -0.6530 -0.1868 -0.2536
 2039TIP3    H127752   2.143   2.334   8.580 -1.3279  3.3469 -2.0490
 2039TIP3    H227753   2.279   2.352   8.516 -0.5456 -0.1125 -1.5354
 2040TIP3   OH227754   1.428   4.323   8.215  0.0208 -0.3063 -0.9407
 2040TIP3    H127755   1.392   4.368   8.138  1.0346  0.9091 -0.7289
 2040TIP3    H227756   1.426   4.230   8.191 -0.7783 -0.0437 -1.9652
 2041TIP3   OH227757   2.865   0.496   1.150  0.4497  0.5058  0.6288
 2041TIP3    H127758   2.945   0.443   1.154 -0.6884 -1.5962 -1.5476
 2041TIP3    H227759   2.895   0.584   1.129  2.1940 -0.6154 -2.1936
 2042TIP3   OH227760   5.918   3.124   8.525  0.5086 -0.1295  0.2768
 2042TIP3    H127761   5.884   3.168   8.603 -1.0521  0.0006 -0.4414
 2042TIP3    H227762   5.865   3.157   8.453  3.7316  1.9582 -1.3768
 2043TIP3   OH227763   5.465   6.511   6.619 -0.0900 -0.1055 -0.0546
 2043TIP3    H127764   5.408   6.472   6.552 -0.8000 -0.2532  0.6141
 2043TIP3    H227765   5.436   6.602   6.624 -0.4341 -0.2353  0.4416
 2044TIP3   OH227766   5.725   6.235   0.377  0.3301 -0.1226 -0.1865
 2044TIP3    H127767   5.705   6.327   0.393  0.8343  0.1874 -1.2192
 2044TIP3    H227768   5.798   6.237   0.316 -1.6476 -1.1357 -2.8166
 2045TIP3   OH227769   2.746   1.211   8.419  0.1301 -0.7631 -0.3336
 2045TIP3    H127770   2.720   1.293   8.376 -1.3340 -0.5604  0.8266
 2045TIP3    H227771   2.823   1.182   8.372  2.2766  2.5847  0.7670
 2046TIP3   OH227772   5.664   3.961   1.653  0.5712  0.2562  0.1184
 2046TIP3    H127773   5.756   3.972   1.628  0.5096  0.8383  0.1217
 2046TIP3    H227774   5.668   3.947   1.748  0.5887  1.5933  0.3400
 2047TIP3   OH227775   5.316   6.385   0.160  0.3012  0.3555  0.4037
 2047TIP3    H127776   5.304   6.441   0.083 -0.4678  0.7463  0.7956
 2047TIP3    H227777   5.244   6.408   0.218 -0.3619 -1.4349  0.3501
 2048TIP3   OH227778   6.401   3.195   8.295 -0.2569 -0.1015  0.8355
 2048TIP3    H127779   6.342   3.135   8.250 -0.0341 -0.2866  0.7871
 2048TIP3    H227780   6.423   3.150   8.376  0.0252 -0.1478  0.7334
 2049TIP3   OH227781   0.473   1.116   2.140  0.7981  0.5128  0.0666
 2049TIP3    H127782   0.487   1.025   2.114 -0.2922 -0.3233  2.1150
 2049TIP3    H227783   0.549   1.163   2.106  1.2604 -1.0907 -1.2799
 2050TIP3   OH227784   1.109   5.273   7.744  0.1530 -0.7212  0.4755
 2050TIP3    H127785   1.038   5.334   7.762  1.0237  0.8046 -0.9245
 2050TIP3    H227786   1.086   5.233   7.661 -0.3171 -2.2185  1.2948
 2051TIP3   OH227787   3.240   3.650   7.708  0.2380  0.0097  0.1936
 2051TIP3    H127788   3.309   3.698   7.755 -1.0605  0.3530  1.8212
 2051TIP3    H227789   3.162   3.704   7.720 -0.6023 -1.0276 -0.5299
 2052TIP3   OH227790   4.931   0.625   0.634  0.4743  0.0512 -0.1515
 2052TIP3    H127791   5.013   0.581   0.611  0.5397  0.0161  0.1486
 2052TIP3    H227792   4.943   0.715   0.601  0.4771 -0.0563 -0.4534
 2053TIP3   OH227793   1.565   3.259   8.247 -0.3153  0.4139  0.1778
 2053TIP3    H127794   1.488   3.270   8.191 -0.1980 -0.9300 -0.2674
 2053TIP3    H227795   1.631   3.219   8.191 -0.4782 -1.8065  1.4316
 2054TIP3   OH227796   0.204   0.150   1.576 -0.0257  0.4713 -0.0475
 2054TIP3    H127797   0.114   0.182   1.576  0.0106  0.7861  2.1643
 2054TIP3    H227798   0.195   0.054   1.576 -0.4054  0.4969  0.7641
 2055TIP3   OH227799   6.072   1.921   1.477  0.1063  0.7862  0.0749
 2055TIP3    H127800   6.047   1.885   1.392 -0.6272 -0.5121  0.8032
 2055TIP3    H227801   5.990   1.951   1.516  0.1408 -0.3663  1.0860
 2056TIP3   OH227802   3.565   2.043   8.213  0.0692 -0.2751 -0.4931
 2056TIP3    H127803   3.496   2.052   8.278  1.2937  1.1106  0.6711
 2056TIP3    H227804   3.586   1.949   8.215  0.5169 -0.1847  1.6077
 2057TIP3   OH227805   0.691   1.192   0.484 -0.4501  0.0179  0.3975
 2057TIP3    H127806   0.683   1.175   0.578  2.8464 -2.3386  0.4320
 2057TIP3    H227807   0.701   1.105   0.445 -0.9896  0.9864 -2.0781
 2058TIP3   OH227808   1.651   5.240   0.533 -0.3126 -0.0382 -0.5220
 2058TIP3    H127809   1.597   5.174   0.490 -1.2031  0.1378  0.2850
 2058TIP3    H227810   1.736   5.198   0.545 -1.0656 -1.3090  0.5901
 2059TIP3   OH227811   2.051   3.670   7.424  0.1679  0.2122 -0.1181
 2059TIP3    H127812   2.132   3.662   7.374  0.0535  0.8066 -0.4015
 2059TIP3    H227813   2.009   3.585   7.414  0.9001 -0.2193  0.2975
 2060TIP3   OH227814   2.144   5.314   7.462  0.4635  0.3042  0.4158
 2060TIP3    H127815   2.085   5.340   7.533  0.5668 -1.9896  1.4456
 2060TIP3    H227816   2.099   5.242   7.418  1.3084  0.3325 -0.5393
 2061TIP3   OH227817   0.887   4.058   1.142  0.0685 -0.2122 -0.2357
 2061TIP3    H127818   0.824   4.071   1.072 -1.8711  0.3423  1.5328
 2061TIP3    H227819   0.868   3.971   1.176  1.9793 -1.0966 -1.2743
 2062TIP3   OH227820   2.493   4.237   0.488 -0.5859  0.4115  0.5568
 2062TIP3    H127821   2.443   4.235   0.406  1.2664 -0.7026 -0.6039
 2062TIP3    H227822   2.550   4.161   0.484  0.7651  1.2712  2.1153
 2063TIP3   OH227823   2.762   4.223   1.846  0.5490 -0.1925 -0.0258
 2063TIP3    H127824   2.811   4.284   1.900 -0.5426  0.0187  0.7570
 2063TIP3    H227825   2.826   4.190   1.782  1.7357 -0.0784  1.0782
 2064TIP3   OH227826   6.158   1.400   1.943  0.2891  0.1112  0.6508
 2064TIP3    H127827   6.210   1.478   1.922 -0.1142  0.2490  0.1544
 2064TIP3    H227828   6.094   1.429   2.007  0.2237  0.1561  0.5645
 2065TIP3   OH227829   6.099   3.299   8.197  0.0984 -0.0823  0.7293
 2065TIP3    H127830   6.124   3.207   8.186 -2.9850 -0.8960 -0.5304
 2065TIP3    H227831   6.087   3.332   8.108  0.4481  1.3389  1.1851
 2066TIP3   OH227832   2.373   5.461   0.343  0.0441 -0.2879 -0.0151
 2066TIP3    H127833   2.449   5.409   0.316 -0.4190  0.1611 -2.4927
 2066TIP3    H227834   2.410   5.528   0.401  1.0340 -1.7705  1.1587
 2067TIP3   OH227835   6.231   0.794   7.240  0.2292 -0.0981  0.3901
 2067TIP3    H127836   6.244   0.781   7.334  1.0651  0.7103  0.4006
 2067TIP3    H227837   6.282   0.872   7.220  0.7084 -0.7247 -0.9018
 2068TIP3   OH227838   0.154   3.167   8.326  0.2078 -0.1172  0.5759
 2068TIP3    H127839   0.188   3.128   8.245  1.4099 -0.4792  1.2425
 2068TIP3    H227840   0.232   3.189   8.377 -0.5167  0.8793  1.2913
 2069TIP3   OH227841   3.705   5.135   2.338  0.0045  0.4005 -0.1233
 2069TIP3    H127842   3.611   5.151   2.328 -0.1539  0.3361  1.0452
 2069TIP3    H227843   3.722   5.155   2.430  0.6613 -1.8599  0.3004
 2070TIP3   OH227844   6.501   5.661   8.790 -0.2675 -0.1452 -0.6551
 2070TIP3    H127845   6.451   5.716   8.730  0.3961  1.5174  0.2301
 2070TIP3    H227846   6.480   5.571   8.765 -0.4934  0.4962 -2.9272
 2071TIP3   OH227847   6.579   3.881   7.962 -0.0124  0.7528 -0.3359
 2071TIP3    H127848   6.501   3.880   7.906 -0.7930  1.9893  0.6606
 2071TIP3    H227849   6.647   3.838   7.910 -0.8181  1.4734 -2.0586
 2072TIP3   OH227850   0.389   2.083   0.256 -0.0330 -0.2776  0.1489
 2072TIP3    H127851   0.329   2.038   0.315 -0.3418 -0.1815 -0.0867
 2072TIP3    H227852   0.354   2.067   0.169  0.2517 -0.1703  0.0111
 2073TIP3   OH227853   1.145   3.376   1.008 -0.4490  0.3880 -0.0261
 2073TIP3    H127854   1.217   3.434   0.984  0.8385 -1.4678 -0.9715
 2073TIP3    H227855   1.182   3.288   0.999 -2.6595 -0.6196  0.1158
 2074TIP3   OH227856   5.092   2.213   1.920  0.1375 -0.2742  0.4763
 2074TIP3    H127857   5.061   2.259   1.842 -0.3269  1.2799  1.5362
 2074TIP3    H227858   5.116   2.126   1.888  2.1186  0.9847 -1.8346
 2075TIP3   OH227859   1.021   4.929   0.720 -0.1152 -0.1965 -0.3434
 2075TIP3    H127860   1.045   4.872   0.647 -0.4583  0.1824 -0.7610
 2075TIP3    H227861   1.066   4.892   0.795 -0.8695 -1.4306 -0.4671
 2076TIP3   OH227862   2.404   3.515   8.248 -0.3155 -0.7232  0.4904
 2076TIP3    H127863   2.497   3.535   8.241 -0.5732  0.1363 -0.7016
 2076TIP3    H227864   2.374   3.567   8.322 -0.3003  0.8546 -0.5645
 2077TIP3   OH227865   2.012   3.362   1.290 -0.1100 -0.1262  0.1922
 2077TIP3    H127866   1.988   3.295   1.226  2.2820 -0.5789 -0.3212
 2077TIP3    H227867   2.077   3.319   1.346 -0.0911  1.1450  1.1957
 2078TIP3   OH227868   1.230   3.405   1.313  0.0223 -0.3230  0.0929
 2078TIP3    H127869   1.228   3.365   1.226  0.5140 -0.8369  0.3045
 2078TIP3    H227870   1.322   3.398   1.340  0.1212  0.9546  0.1455
 2079TIP3   OH227871   4.285   0.392   2.393  0.4420  0.2654  0.4610
 2079TIP3    H127872   4.326   0.366   2.475  0.2540 -0.9020  0.1926
 2079TIP3    H227873   4.195   0.413   2.416 -0.7216 -3.6485  0.0337
 2080TIP3   OH227874   6.660   5.704   7.549 -0.0748  0.1770 -0.3879
 2080TIP3    H127875   6.726   5.715   7.617 -1.1177 -0.9177  0.8688
 2080TIP3    H227876   6.610   5.786   7.551 -0.5992 -0.1387  0.7834
 2081TIP3   OH227877   4.419   4.359   0.762 -0.1891 -0.0789  0.4897
 2081TIP3    H127878   4.340   4.375   0.814 -0.5988 -0.2811 -0.0505
 2081TIP3    H227879   4.450   4.446   0.737 -0.2798 -0.0004  0.6521
 2082TIP3   OH227880   5.594   5.908   8.392 -0.3089  0.2157 -0.2454
 2082TIP3    H127881   5.553   5.860   8.463  0.2464  0.4800  0.2618
 2082TIP3    H227882   5.604   5.843   8.322 -0.7713 -0.0648 -0.0515
 2083TIP3   OH227883   6.052   4.961   7.493  0.0385 -0.0691 -0.2234
 2083TIP3    H127884   6.067   5.053   7.516  0.3051 -0.3327  0.7097
 2083TIP3    H227885   6.089   4.952   7.405  3.1390 -0.0501  0.9573
 2084TIP3   OH227886   4.979   0.233   1.616  0.5108 -0.7075 -0.0600
 2084TIP3    H127887   4.987   0.308   1.558  1.1195 -1.6208 -1.1771
 2084TIP3    H227888   5.048   0.246   1.682  1.9937 -1.3229 -1.4464
 2085TIP3   OH227889   6.348   6.576   2.676 -0.6649  0.2851 -0.9067
 2085TIP3    H127890   6.288   6.517   2.630 -2.5841 -0.6047  2.3356
 2085TIP3    H227891   6.297   6.656   2.690  0.8046  1.5735 -2.4964
 2086TIP3   OH227892   2.450   2.329   6.614  0.0118  0.1570  0.1044
 2086TIP3    H127893   2.452   2.357   6.705 -0.6170 -0.7196  0.4045
 2086TIP3    H227894   2.370   2.276   6.607  1.8281 -2.7577 -0.0589
 2087TIP3   OH227895   3.179   0.153   8.633  0.2885 -0.0751 -0.4641
 2087TIP3    H127896   3.235   0.109   8.696  1.3476 -0.2756 -1.5076
 2087TIP3    H227897   3.174   0.244   8.664 -0.3365 -0.4567  0.6292
 2088TIP3   OH227898   1.852   2.360   1.910  0.0162 -0.2495  0.0894
 2088TIP3    H127899   1.836   2.417   1.985 -0.0749  0.0050 -0.1177
 2088TIP3    H227900   1.939   2.386   1.878 -0.8207  1.1952 -1.2081
 2089TIP3   OH227901   0.252   4.044   2.701  0.6535 -0.0228 -0.3052
 2089TIP3    H127902   0.317   3.987   2.661 -0.2186 -0.7918 -0.6610
 2089TIP3    H227903   0.301   4.096   2.764  1.7496  0.0158 -1.1706
 2090TIP3   OH227904   3.407   1.938   1.925 -0.0705  0.5907  0.2147
 2090TIP3    H127905   3.314   1.944   1.946 -0.9153  0.2021 -2.9665
 2090TIP3    H227906   3.440   2.027   1.933 -0.3042  0.5420  2.6371
 2091TIP3   OH227907   3.953   3.478   2.195  0.0638 -0.2599  0.5012
 2091TIP3    H127908   3.890   3.519   2.253 -2.2045 -1.7213 -0.7792
 2091TIP3    H227909   3.949   3.530   2.114  0.9169 -0.0588  0.5730
 2092TIP3   OH227910   1.321   4.818   1.036  0.2855 -0.2522 -0.4484
 2092TIP3    H127911   1.231   4.799   1.012 -0.2799  3.1029 -1.3770
 2092TIP3    H227912   1.373   4.784   0.963 -0.4892  0.3029 -1.2767
 2093TIP3   OH227913   1.490   5.877   7.189 -0.1753  0.3933  0.1920
 2093TIP3    H127914   1.549   5.802   7.182  1.0848  1.4479 -1.0944
 2093TIP3    H227915   1.504   5.911   7.278 -1.1600 -1.1713  0.9789
 2094TIP3   OH227916   0.691   2.491   7.806 -0.4481 -0.3936 -0.3331
 2094TIP3    H127917   0.608   2.513   7.848 -0.0417  1.8508 -0.5518
 2094TIP3    H227918   0.665   2.449   7.724 -1.2970 -1.7733  0.6063
 2095TIP3   OH227919   5.114   2.724   1.789 -0.3642 -0.0623 -0.3283
 2095TIP3    H127920   5.170   2.710   1.865  1.0644  0.0333 -1.3342
 2095TIP3    H227921   5.032   2.678   1.810  0.1162 -0.2939  1.1169
 2096TIP3   OH227922   4.392   4.167   7.702 -0.2354  0.1294 -0.2351
 2096TIP3    H127923   4.404   4.084   7.748  1.0929 -1.0703 -2.5270
 2096TIP3    H227924   4.466   4.221   7.730 -0.4282  0.0777  0.3706
 2097TIP3   OH227925   2.514   6.605   8.297  0.6481 -0.0060 -0.1910
 2097TIP3    H127926   2.581   6.674   8.299  0.7815 -0.0781 -1.3918
 2097TIP3    H227927   2.559   6.529   8.259  0.1817 -0.4035  0.0333
 2098TIP3   OH227928   5.311   4.746   8.327  0.0374 -0.4937 -0.3615
 2098TIP3    H127929   5.355   4.701   8.255  0.7141 -0.2840 -0.0943
 2098TIP3    H227930   5.273   4.676   8.380 -0.6452 -0.6383 -1.0294
 2099TIP3   OH227931   2.861   0.910   8.584  0.1267  0.1322  0.6069
 2099TIP3    H127932   2.922   0.837   8.589 -1.1625 -1.4815 -3.1984
 2099TIP3    H227933   2.917   0.987   8.574  1.4995 -0.6410  1.9363
 2100TIP3   OH227934   0.070   2.169   8.048  0.5843  0.6437 -0.0418
 2100TIP3    H127935   0.014   2.211   8.112 -0.8814  0.4281 -1.1460
 2100TIP3    H227936   0.024   2.177   7.965  2.3248  0.7145 -1.0627
 2101TIP3   OH227937   2.126   2.249   0.519 -0.0095  0.6521 -0.6238
 2101TIP3    H127938   2.138   2.297   0.601  2.8134 -0.1910 -0.4459
 2101TIP3    H227939   2.201   2.274   0.465  0.9326 -2.4999 -0.9879
 2102TIP3   OH227940   4.299   6.822   1.196  0.2651  0.0970 -0.4111
 2102TIP3    H127941   4.356   6.779   1.260 -0.0735  0.3907  0.0982
 2102TIP3    H227942   4.212   6.818   1.236 -0.2648 -1.2629 -1.6345
 2103TIP3   OH227943   5.375   0.762   0.200  0.1748 -0.2581  0.4563
 2103TIP3    H127944   5.428   0.784   0.123  0.4936  2.4646  1.3452
 2103TIP3    H227945   5.438   0.758   0.271 -0.3795 -0.6538  0.9296
 2104TIP3   OH227946   5.980   0.282   2.235 -0.1259  0.3515  0.4393
 2104TIP3    H127947   5.954   0.201   2.279 -1.2268  1.2223  1.4507
 2104TIP3    H227948   5.901   0.312   2.190  0.9827 -0.5357 -2.2706
 2105TIP3   OH227949   1.198   0.611   8.762 -0.0988  0.1406 -0.1226
 2105TIP3    H127950   1.106   0.585   8.750  0.4302 -2.2079  0.2632
 2105TIP3    H227951   1.244   0.569   8.689  0.5717  2.2223 -0.9585
 2106TIP3   OH227952   3.553   4.059   8.691 -0.1220  0.2079 -0.7302
 2106TIP3    H127953   3.553   4.122   8.763  0.7912  0.8149 -1.2544
 2106TIP3    H227954   3.551   3.973   8.734  0.3785  0.5631  0.0121
 2107TIP3   OH227955   5.264   2.542   7.050 -0.1036  0.1269  0.7028
 2107TIP3    H127956   5.169   2.532   7.049 -0.1842  0.7564 -1.2056
 2107TIP3    H227957   5.296   2.464   7.005  0.1449  0.8830 -0.4642
 2108TIP3   OH227958   2.027   5.425   6.659  0.0992  0.6214 -0.1204
 2108TIP3    H127959   2.072   5.357   6.709 -0.2246  0.1968 -0.4017
 2108TIP3    H227960   1.941   5.388   6.638  0.0930  0.9302 -0.6839
 2109TIP3   OH227961   1.095   0.751   2.387  0.3471 -0.1313 -0.0172
 2109TIP3    H127962   1.184   0.777   2.408  0.0384  0.8423  0.1678
 2109TIP3    H227963   1.095   0.655   2.391  1.6522 -0.1984 -1.1475
 2110TIP3   OH227964   5.606   6.772   8.088 -0.3138  0.7401 -0.3275
 2110TIP3    H127965   5.618   6.743   7.998 -1.4763  0.2065 -0.3251
 2110TIP3    H227966   5.512   6.783   8.097 -0.0152  3.9938 -0.1482
 2111TIP3   OH227967   5.289   0.983   0.433  0.3712  0.4233  0.6367
 2111TIP3    H127968   5.346   0.968   0.508  0.0275  0.1841  0.8562
 2111TIP3    H227969   5.323   0.926   0.364  0.0361 -0.1877  0.9605
 2112TIP3   OH227970   6.496   0.370   7.473  0.5431 -0.6071  0.2217
 2112TIP3    H127971   6.434   0.428   7.517 -0.1175 -0.5898 -0.6809
 2112TIP3    H227972   6.543   0.326   7.543 -0.4085 -0.5215  0.9282
 2113TIP3   OH227973   4.057   1.623   2.325  0.5956  0.3276  0.2646
 2113TIP3    H127974   3.968   1.608   2.294  0.3954  0.7282  0.6246
 2113TIP3    H227975   4.114   1.594   2.254  0.1776 -0.0345  0.0791
 2114TIP3   OH227976   1.369   0.348   1.784 -0.0740  0.0726 -0.3328
 2114TIP3    H127977   1.363   0.440   1.757  0.1692  0.3841  0.6258
 2114TIP3    H227978   1.313   0.301   1.722  1.4129  0.5600 -2.1513
 2115TIP3   OH227979   4.677   0.808   0.677 -0.7192  0.0795  0.1120
 2115TIP3    H127980   4.746   0.840   0.619 -1.0162  0.0336 -0.2728
 2115TIP3    H227981   4.691   0.714   0.682  1.1201  0.3887  2.5015
 2116TIP3   OH227982   6.630   0.680   0.759  1.2942  0.1072 -0.2368
 2116TIP3    H127983   6.563   0.716   0.700  1.2166 -0.5907 -0.5933
 2116TIP3    H227984   6.612   0.721   0.843  0.6753  0.2546 -0.4308
 2117TIP3   OH227985   5.691   1.493   0.956  0.2678 -0.5772 -0.4311
 2117TIP3    H127986   5.782   1.469   0.940  0.4351  0.4360 -1.1265
 2117TIP3    H227987   5.674   1.465   1.046  1.6437  0.2579  0.1166
 2118TIP3   OH227988   6.522   6.681   1.545 -0.5658  0.3233 -0.2175
 2118TIP3    H127989   6.473   6.723   1.616 -1.2645 -0.6635 -0.0863
 2118TIP3    H227990   6.483   6.717   1.465 -0.3917  0.7579 -0.1109
 2119TIP3   OH227991   4.418   2.497   7.974 -0.1240  0.2377  0.9177
 2119TIP3    H127992   4.376   2.419   7.937 -0.6391  0.9957 -0.1644
 2119TIP3    H227993   4.504   2.466   8.003  0.0141 -0.5559 -0.2599
 2120TIP3   OH227994   5.635   6.403   1.346  0.1065  0.2788  0.1872
 2120TIP3    H127995   5.560   6.373   1.294  1.1229  0.5477 -1.4999
 2120TIP3    H227996   5.684   6.323   1.366  0.9032  0.3804 -1.2361
 2121TIP3   OH227997   5.792   0.351   7.222 -0.3511 -0.3288  0.1670
 2121TIP3    H127998   5.758   0.346   7.133 -0.8370  0.5015  0.2932
 2121TIP3    H227999   5.779   0.442   7.248  2.3193  0.1466  0.1076
 2122TIP3   OH228000   0.417   0.202   1.956  0.3572 -0.1677  0.2533
 2122TIP3    H128001   0.390   0.128   2.010  0.6416  0.0466  0.7060
 2122TIP3    H228002   0.377   0.278   1.999  0.7203  0.0226  0.2592
 2123TIP3   OH228003   5.069   0.856   0.807  0.0206  0.6333 -0.2314
 2123TIP3    H128004   5.140   0.916   0.833  0.0491  0.3705  0.3091
 2123TIP3    H228005   5.024   0.835   0.889 -1.2884  1.5444 -0.6846
 2124TIP3   OH228006   0.618   6.057   2.424  0.0064  0.0416 -0.3390
 2124TIP3    H128007   0.525   6.064   2.447  0.0291 -1.1253  0.1725
 2124TIP3    H228008   0.664   6.066   2.508  0.2343 -1.3998 -0.2805
 2125TIP3   OH228009   5.268   0.747   8.105  0.4146 -0.4832 -0.0563
 2125TIP3    H128010   5.357   0.759   8.072  0.2445 -2.9563 -1.7441
 2125TIP3    H228011   5.222   0.827   8.080  0.9690 -1.1466 -3.8265
 2126TIP3   OH228012   0.297   1.451   7.885  0.5013  0.4691 -0.1035
 2126TIP3    H128013   0.277   1.438   7.978  0.6025  0.1536 -0.1230
 2126TIP3    H228014   0.227   1.507   7.853 -0.1720 -0.3423 -0.0970
 2127TIP3   OH228015   4.548   3.596   7.912  0.3249  0.0932  0.1359
 2127TIP3    H128016   4.485   3.576   7.842  0.9954 -0.1861 -0.3984
 2127TIP3    H228017   4.522   3.682   7.944  0.0002  0.2187 -0.4518
 2128TIP3   OH228018   4.067   2.187   0.464 -0.4213  0.2406 -0.4723
 2128TIP3    H128019   4.021   2.235   0.533 -3.0056 -1.7318 -0.6884
 2128TIP3    H228020   4.001   2.174   0.396  1.3654 -0.0552 -2.2218
 2129TIP3   OH228021   3.676   2.441   0.714 -0.0761  0.1889 -0.2782
 2129TIP3    H128022   3.733   2.469   0.643  3.4642 -0.1394  2.1659
 2129TIP3    H228023   3.711   2.485   0.792 -0.0147 -3.7129  2.1921
 2130TIP3   OH228024   4.310   2.318   7.506 -0.0349 -0.1768 -0.1127
 2130TIP3    H128025   4.313   2.413   7.509 -1.4578 -0.1317  0.9592
 2130TIP3    H228026   4.381   2.293   7.447 -0.7171  1.6158 -1.7621
 2131TIP3   OH228027   6.319   1.463   8.507  0.9287 -0.0839  0.5011
 2131TIP3    H128028   6.228   1.474   8.480  0.9322  0.1405  0.5857
 2131TIP3    H228029   6.359   1.549   8.494  1.3928 -0.4445 -0.5446
 2132TIP3   OH228030   4.254   1.898   0.043 -0.0187  0.2383 -0.4311
 2132TIP3    H128031   4.229   1.815   0.084  1.5040 -0.5503 -1.0162
 2132TIP3    H228032   4.293   1.949   0.115 -0.7515  0.3630 -0.1172
 2133TIP3   OH228033   3.805   0.196   1.323 -0.2845  0.5372 -0.2943
 2133TIP3    H128034   3.890   0.225   1.290  0.1099  0.4934  0.6512
 2133TIP3    H228035   3.746   0.268   1.302  0.1800  0.9644 -0.1623
 2134TIP3   OH228036   2.104   6.689   1.683  0.1553  0.0080 -0.4067
 2134TIP3    H128037   2.022   6.674   1.730 -0.0099 -1.7075 -1.1579
 2134TIP3    H228038   2.109   6.617   1.619  1.3419  1.1185 -1.6450
 2135TIP3   OH228039   5.845   1.097   8.816  0.1844 -0.1628 -0.4802
 2135TIP3    H128040   5.835   1.076   8.723  1.6494 -1.4199 -0.4108
 2135TIP3    H228041   5.940   1.092   8.831 -0.0418 -0.1533  1.1087
 2136TIP3   OH228042   5.210   1.001   7.261 -0.1648 -0.3470  0.0742
 2136TIP3    H128043   5.191   0.980   7.352  0.6288 -0.1781  0.2805
 2136TIP3    H228044   5.198   1.095   7.254 -1.5774 -0.5287 -0.3372
 2137TIP3   OH228045   4.898   5.221   2.103  1.0151 -0.5967  0.1094
 2137TIP3    H128046   4.922   5.128   2.107  4.5874  0.0771 -1.1317
 2137TIP3    H228047   4.886   5.237   2.009 -0.4750  0.0369  0.3963
 2138TIP3   OH228048   4.840   2.578   8.184 -0.0878  0.8783 -0.4931
 2138TIP3    H128049   4.781   2.653   8.171  0.5695  1.2997 -1.0927
 2138TIP3    H228050   4.888   2.600   8.264 -1.5957 -0.0477  0.7252
 2139TIP3   OH228051   0.719   3.944   7.733  0.0199  0.3222 -0.5677
 2139TIP3    H128052   0.789   3.914   7.792  0.8606  0.6119 -1.3986
 2139TIP3    H228053   0.726   4.039   7.735 -0.4690  0.3590 -0.5314
 2140TIP3   OH228054   4.840   4.853   1.487  0.1474 -0.0969 -0.3732
 2140TIP3    H128055   4.896   4.781   1.457 -0.1083 -0.5514  0.2128
 2140TIP3    H228056   4.891   4.932   1.469 -0.0423 -0.3219 -2.0934
 2141TIP3   OH228057   2.940   1.045   2.193 -0.2413 -0.9367 -0.4386
 2141TIP3    H128058   2.868   1.039   2.256 -0.5424 -0.7909 -0.7665
 2141TIP3    H228059   3.019   1.039   2.246 -0.4929 -0.7788 -0.0440
 2142TIP3   OH228060   0.928   6.213   8.259  0.5103  0.7386 -0.4070
 2142TIP3    H128061   0.993   6.253   8.317 -1.9103  1.3895  2.0598
 2142TIP3    H228062   0.944   6.254   8.173  2.3665  1.9570  0.4499
 2143TIP3   OH228063   4.132   4.342   2.315  0.4286 -0.2362  0.0659
 2143TIP3    H128064   4.047   4.323   2.353 -0.3593 -1.1103 -1.9709
 2143TIP3    H228065   4.168   4.256   2.293  1.7532  0.1332  0.6963
 2144TIP3   OH228066   5.470   1.981   2.734 -0.0186 -0.2287  0.6853
 2144TIP3    H128067   5.524   2.042   2.684 -1.2634 -1.1429 -1.9219
 2144TIP3    H228068   5.532   1.918   2.770  0.9474  0.6413  0.5821
 2145TIP3   OH228069   4.069   3.564   7.798 -0.0472 -0.4335 -0.2944
 2145TIP3    H128070   4.101   3.481   7.764  1.4580  0.3690 -0.9516
 2145TIP3    H228071   4.076   3.624   7.723 -0.4649  0.4376  0.3481
 2146TIP3   OH228072   1.206   0.016   2.466  0.2857 -0.3222 -0.0234
 2146TIP3    H128073   1.250   0.004   2.382 -2.4111  0.7341 -1.7250
 2146TIP3    H228074   1.115  -0.006   2.449 -0.6587  1.3826  2.2109
 2147TIP3   OH228075   5.422   0.061   1.232 -0.1610  0.1364  0.5737
 2147TIP3    H128076   5.441  -0.026   1.198 -2.4797  0.3258 -1.5154
 2147TIP3    H228077   5.455   0.060   1.322  1.5393 -2.2249  0.0276
 2148TIP3   OH228078   0.880   2.662   7.870 -0.2149 -0.3744 -0.3272
 2148TIP3    H128079   0.809   2.598   7.867 -1.2436  0.6519  0.8470
 2148TIP3    H228080   0.960   2.611   7.857 -1.2004 -1.4014 -3.1010
 2149TIP3   OH228081   2.625   2.200   0.344  0.4304 -0.4882 -0.2343
 2149TIP3    H128082   2.641   2.155   0.427  1.0213  1.1616  0.5840
 2149TIP3    H228083   2.709   2.196   0.298  0.6494  0.2187  0.0843
 2150TIP3   OH228084   0.304   6.475   1.476  0.4269 -0.7246  0.2527
 2150TIP3    H128085   0.393   6.503   1.456 -0.1104 -1.0769 -3.1179
 2150TIP3    H228086   0.311   6.381   1.491  0.7145 -0.6119  0.8629
 2151TIP3   OH228087   3.889   1.563   7.976 -0.4722 -0.5759  0.1760
 2151TIP3    H128088   3.884   1.659   7.974  0.8028 -0.4926  0.2939
 2151TIP3    H228089   3.853   1.536   7.891  2.2738  0.2079 -1.3490
 2152TIP3   OH228090   3.860   0.903   1.928  0.2634  0.2402  0.3015
 2152TIP3    H128091   3.948   0.904   1.893 -0.0281  0.5060 -0.4418
 2152TIP3    H228092   3.872   0.898   2.023  1.0642 -0.2117  0.1865
 2153TIP3   OH228093   2.541   3.509   7.901 -0.1332  0.1313  0.2585
 2153TIP3    H128094   2.589   3.525   7.982  0.8648 -0.5295 -0.1818
 2153TIP3    H228095   2.482   3.584   7.893  1.2325  1.2831  0.5399
 2154TIP3   OH228096   1.641   3.975   1.846 -0.2538  0.6239 -0.1897
 2154TIP3    H128097   1.610   3.893   1.884 -0.9306  0.8431 -0.2453
 2154TIP3    H228098   1.709   3.949   1.784  2.6158  0.4199  2.7750
 2155TIP3   OH228099   1.317   4.151   1.899  0.0480 -0.2163 -0.4343
 2155TIP3    H128100   1.273   4.235   1.883  0.6617  0.1739 -0.1066
 2155TIP3    H228101   1.307   4.136   1.993  1.0801  0.1497 -0.2577
 2156TIP3   OH228102   1.857   5.603   8.811 -0.0326  0.2124  0.3697
 2156TIP3    H128103   1.816   5.517   8.820 -2.6925  1.2115 -1.0468
 2156TIP3    H228104   1.930   5.589   8.751 -0.5405 -1.0248  0.0110
 2157TIP3   OH228105   1.538   6.504   0.343  0.1934 -0.4307 -0.4487
 2157TIP3    H128106   1.521   6.442   0.272  1.3703 -0.7318 -0.4954
 2157TIP3    H228107   1.525   6.452   0.423  1.5798 -0.8788 -0.4914
 2158TIP3   OH228108   4.566   0.873   8.198 -0.6123  0.3678 -0.1347
 2158TIP3    H128109   4.576   0.966   8.178  0.0368  0.1027 -1.1616
 2158TIP3    H228110   4.624   0.829   8.136 -2.2133 -0.8236 -0.8755
 2159TIP3   OH228111   5.895   3.177   0.060  0.0971 -0.0229 -0.1109
 2159TIP3    H128112   5.935   3.098   0.025 -1.5135 -0.3333 -1.3904
 2159TIP3    H228113   5.804   3.152   0.079  0.0478  1.0367  1.2259
 2160TIP3   OH228114   1.543   6.018   7.404 -0.1313  0.0251  0.0615
 2160TIP3    H128115   1.613   6.084   7.406 -1.9008  2.0351 -0.2051
 2160TIP3    H228116   1.520   6.005   7.497  1.0528 -1.2332  0.2111
 2161TIP3   OH228117   1.830   0.358   7.872 -0.0449 -0.5349  0.2832
 2161TIP3    H128118   1.843   0.434   7.928 -1.3426 -0.2424  0.2173
 2161TIP3    H228119   1.752   0.379   7.820  0.3560 -1.3531 -0.6938
 2162TIP3   OH228120   2.398   2.212   1.814  0.3789  0.0280 -0.8593
 2162TIP3    H128121   2.420   2.296   1.853 -1.4970 -0.1017  0.6247
 2162TIP3    H228122   2.407   2.149   1.886  1.5270 -1.0402 -1.8883
 2163TIP3   OH228123   5.247   2.399   1.256 -0.0450  0.2341 -0.4629
 2163TIP3    H128124   5.271   2.336   1.188 -0.0823  0.5322 -0.7583
 2163TIP3    H228125   5.330   2.425   1.295  0.0807  0.9001 -1.1544
 2164TIP3   OH228126   6.372   3.548   2.208  0.8399 -0.1498  0.4537
 2164TIP3    H128127   6.310   3.610   2.246 -2.0185 -0.6933 -2.9064
 2164TIP3    H228128   6.438   3.603   2.166  0.5929  0.5119  0.9090
 2165TIP3   OH228129   4.261   2.046   0.599  0.2699 -0.3326  0.5994
 2165TIP3    H128130   4.242   2.065   0.691 -0.2381 -0.8529  0.6067
 2165TIP3    H228131   4.196   2.095   0.550  1.6384  1.4017  0.4101
 2166TIP3   OH228132   6.628   6.713   2.389 -0.4060  0.6200  0.0237
 2166TIP3    H128133   6.575   6.765   2.450 -0.3904  1.4727 -0.6727
 2166TIP3    H228134   6.662   6.642   2.442 -0.7560  1.0965  0.9110
 2167TIP3   OH228135   5.890   5.564   0.340 -0.0337 -1.0789  0.0878
 2167TIP3    H128136   5.852   5.498   0.282  2.3833 -0.6415 -2.1761
 2167TIP3    H228137   5.974   5.586   0.300  0.3710  1.5824  2.1196
 2168TIP3   OH228138   0.329   1.972   2.681 -0.0770  0.7959  0.0044
 2168TIP3    H128139   0.399   2.021   2.724 -0.0564  0.1350  0.7309
 2168TIP3    H228140   0.332   1.885   2.720 -0.2200  0.2498 -1.1596
 2169TIP3   OH228141   1.712   5.173   8.388 -0.6936 -0.3010 -0.1824
 2169TIP3    H128142   1.687   5.108   8.454 -0.4142  0.6865  0.9416
 2169TIP3    H228143   1.800   5.146   8.361 -1.0062 -0.9972 -0.5282
 2170TIP3   OH228144   1.456   4.079   0.759  0.2638 -0.3308 -0.0401
 2170TIP3    H128145   1.408   4.161   0.756  0.1358 -0.4101 -0.1599
 2170TIP3    H228146   1.456   4.048   0.669  2.8151  0.9849 -0.5939
 2171TIP3   OH228147   6.751   4.553   1.904 -0.0355 -0.5054 -0.0021
 2171TIP3    H128148   6.797   4.606   1.838  0.4436 -0.7112  0.1638
 2171TIP3    H228149   6.663   4.591   1.907  0.2526  0.1838  0.0059
 2172TIP3   OH228150   3.116   3.425   1.289 -0.1608  0.0239  0.6553
 2172TIP3    H128151   3.035   3.385   1.256 -0.5020  1.2623 -0.0890
 2172TIP3    H228152   3.178   3.418   1.217 -1.1652  3.4945 -0.7108
 2173TIP3   OH228153   0.115   2.296   3.042  0.3010  0.4123  0.1663
 2173TIP3    H128154   0.155   2.382   3.038  1.0955  0.0569  0.2832
 2173TIP3    H228155   0.021   2.312   3.029  0.5038  1.2350 -0.3249
 2174TIP3   OH228156   3.363   4.718   8.596  0.1235 -0.1945  0.2770
 2174TIP3    H128157   3.435   4.779   8.612 -0.4954  0.6406 -0.0188
 2174TIP3    H228158   3.381   4.643   8.652 -0.5501  1.4454  2.8596
 2175TIP3   OH228159   6.729   5.734   0.025 -0.3703  0.0208 -0.1797
 2175TIP3    H128160   6.718   5.829   0.035 -0.1842  0.1918 -1.3951
 2175TIP3    H228161   6.651   5.706  -0.023 -0.2233 -0.3643 -0.1963
 2176TIP3   OH228162   5.004   2.472   7.046 -0.1462  0.2424 -0.6390
 2176TIP3    H128163   4.911   2.472   7.022 -0.6641 -0.2367  1.1844
 2176TIP3    H228164   5.015   2.391   7.096  0.1384  2.2945  2.9752
 2177TIP3   OH228165   6.240   3.950   0.296  0.3281 -0.0809 -0.4955
 2177TIP3    H128166   6.199   3.911   0.373  0.6410 -0.3847 -0.4793
 2177TIP3    H228167   6.315   3.893   0.277  0.9339  0.6512 -0.3246
 2178TIP3   OH228168   5.194   0.836   2.030 -0.0911  0.9426 -0.4925
 2178TIP3    H128169   5.128   0.847   1.962 -1.0408 -2.5889 -0.3455
 2178TIP3    H228170   5.145   0.809   2.108  1.2857  1.2379  0.5260
 2179TIP3   OH228171   3.648   2.031   8.594 -0.3627  0.3444 -0.0311
 2179TIP3    H128172   3.565   2.029   8.546  0.2858  3.3701 -1.4989
 2179TIP3    H228173   3.671   2.124   8.599  2.8289 -0.3453  0.5081
 2180TIP3   OH228174   0.857   0.970   8.745 -0.2939 -0.1575 -0.3093
 2180TIP3    H128175   0.875   1.059   8.716 -0.4512 -0.4918 -1.4578
 2180TIP3    H228176   0.850   0.977   8.840  0.9626  0.8325 -0.2575
 2181TIP3   OH228177   4.013   0.903   8.154 -0.0262 -0.6361 -0.0984
 2181TIP3    H128178   4.073   0.976   8.140  0.8007 -1.2648  0.1069
 2181TIP3    H228179   3.992   0.905   8.247 -0.2169 -0.4943 -0.1453
 2182TIP3   OH228180   1.626   6.213   7.776 -0.3741  0.2097 -0.6872
 2182TIP3    H128181   1.577   6.224   7.695  0.2410 -0.4124 -1.1602
 2182TIP3    H228182   1.560   6.195   7.842 -0.8379  0.0995 -1.1772
 2183TIP3   OH228183   6.789   1.337   0.398  0.3033 -0.0371  0.3098
 2183TIP3    H128184   6.812   1.244   0.399  2.5849  0.4197 -1.7821
 2183TIP3    H228185   6.873   1.382   0.392 -0.8211  2.1309  0.1410
 2184TIP3   OH228186   1.489   4.726   0.225  0.0840 -0.5309 -0.1829
 2184TIP3    H128187   1.471   4.679   0.306 -1.2115 -0.4650 -0.4198
 2184TIP3    H228188   1.476   4.661   0.156  1.5853 -0.6981 -0.3364
 2185TIP3   OH228189   5.290   4.177   7.935  0.2203  0.5870 -0.1386
 2185TIP3    H128190   5.322   4.101   7.887  2.0257  1.2663 -0.0842
 2185TIP3    H228191   5.195   4.173   7.926  0.3905 -0.4889 -1.9374
 2186TIP3   OH228192   0.841   1.781   3.183  0.3025  0.1126  0.2880
 2186TIP3    H128193   0.908   1.831   3.230  0.9466 -0.3050 -0.1712
 2186TIP3    H228194   0.829   1.828   3.101 -0.9280  0.9223  0.8899
 2187TIP3   OH228195   5.362   4.704   0.120 -0.3310  0.4511  0.1744
 2187TIP3    H128196   5.390   4.637   0.182  2.5022 -0.3432 -1.7036
 2187TIP3    H228197   5.284   4.667   0.078 -0.0112 -0.7577  0.5905
 2188TIP3   OH228198   5.956   2.349   1.883 -0.2400  0.0845  0.3056
 2188TIP3    H128199   5.882   2.295   1.909 -1.1030  0.8129 -0.5838
 2188TIP3    H228200   6.028   2.286   1.870 -0.6483 -0.6124  1.2542
 2189TIP3   OH228201   3.968   4.407   2.665 -0.4856 -0.3469 -0.0186
 2189TIP3    H128202   3.924   4.346   2.725 -0.6142 -0.4297 -0.1979
 2189TIP3    H228203   3.972   4.489   2.714  2.0723 -1.1624  1.3062
 2190TIP3   OH228204   0.364   1.716   0.384  0.1085 -0.3715 -0.0945
 2190TIP3    H128205   0.373   1.757   0.471 -0.1660 -0.5862  0.0351
 2190TIP3    H228206   0.287   1.660   0.392  1.4096 -2.1840  0.2215
 2191TIP3   OH228207   1.102   2.899   7.873  0.0812 -0.2307 -0.6091
 2191TIP3    H128208   1.068   2.811   7.890 -0.4362 -0.1090 -0.9806
 2191TIP3    H228209   1.090   2.911   7.779 -0.0084  0.3040 -0.5295
 2192TIP3   OH228210   1.848   3.646   0.631 -0.2522  0.6346  0.1896
 2192TIP3    H128211   1.916   3.713   0.625  0.8442 -0.3701  0.8387
 2192TIP3    H228212   1.869   3.598   0.711 -0.5457 -0.9486 -0.6354
 2193TIP3   OH228213   5.389   4.902   2.494 -0.2185 -0.0705  0.2722
 2193TIP3    H128214   5.422   4.816   2.521  0.1230 -0.2122 -0.5547
 2193TIP3    H228215   5.367   4.891   2.402 -0.3477  0.6840  0.2084
 2194TIP3   OH228216   1.278   4.652   2.015  0.5068 -0.0128 -0.2578
 2194TIP3    H128217   1.283   4.740   2.053 -1.4606  0.6216 -1.2953
 2194TIP3    H228218   1.265   4.668   1.921 -2.7506 -1.2695 -0.1486
 2195TIP3   OH228219   5.133   3.131   0.743 -0.0516 -0.6600 -0.2928
 2195TIP3    H128220   5.117   3.100   0.654  0.7590 -1.3309 -0.2197
 2195TIP3    H228221   5.082   3.212   0.750 -1.0567 -1.2082 -0.9760
 2196TIP3   OH228222   6.393   1.283   0.314  0.5606  0.3918  0.7931
 2196TIP3    H128223   6.320   1.316   0.262  0.5214 -0.8842  0.0005
 2196TIP3    H228224   6.432   1.362   0.352  0.1143  1.2965 -0.5274
 2197TIP3   OH228225   3.681   6.277   8.056  0.5818  0.2316 -0.2718
 2197TIP3    H128226   3.751   6.336   8.087 -1.0698  2.3007 -0.2939
 2197TIP3    H228227   3.640   6.325   7.984 -0.0806 -1.5017 -1.0767
 2198TIP3   OH228228   5.282   5.734   2.282 -0.6376  0.2763  0.2792
 2198TIP3    H128229   5.331   5.658   2.315  2.2468  1.6127 -0.5944
 2198TIP3    H228230   5.277   5.793   2.357 -0.5884  0.2835  0.2769
 2199TIP3   OH228231   3.865   5.746   0.122  0.4311  0.1496  0.2902
 2199TIP3    H128232   3.887   5.723   0.032 -1.4830  1.3026 -0.5407
 2199TIP3    H228233   3.898   5.835   0.132  0.9135 -0.0885  0.8362
 2200TIP3   OH228234   5.557   4.968   0.830  0.0251  0.4701 -0.1225
 2200TIP3    H128235   5.589   5.054   0.858  1.1465  0.6417 -1.7934
 2200TIP3    H228236   5.624   4.907   0.859  0.3503  0.4509 -0.8812
 2201TIP3   OH228237   6.664   6.411   1.607  0.2411  0.2944 -0.1790
 2201TIP3    H128238   6.695   6.321   1.616 -1.0811 -0.3721 -1.7683
 2201TIP3    H228239   6.743   6.463   1.599  1.0621 -1.1459 -2.4690
 2202TIP3   OH228240   6.580   4.257   1.576  0.3899  0.8140 -0.4929
 2202TIP3    H128241   6.597   4.351   1.576 -0.3312  0.9567 -0.9590
 2202TIP3    H228242   6.667   4.216   1.578  0.6991  1.4836  0.1418
 2203TIP3   OH228243   2.177   0.750   8.278 -0.6057 -0.5004 -0.3675
 2203TIP3    H128244   2.126   0.761   8.198 -0.5726  1.8329 -0.1486
 2203TIP3    H228245   2.114   0.769   8.348 -0.4034 -1.6030  0.1284
 2204TIP3   OH228246   5.094   4.350   8.210  0.0746 -0.4004 -0.5198
 2204TIP3    H128247   5.149   4.397   8.148 -2.4472 -0.0010 -2.6779
 2204TIP3    H228248   5.053   4.281   8.157 -1.6400 -0.5198  0.8658
 2205TIP3   OH228249   5.546   1.422   8.468  0.1913  0.1514 -0.0604
 2205TIP3    H128250   5.522   1.389   8.555 -0.4221 -0.5258 -0.4753
 2205TIP3    H228251   5.465   1.456   8.431  0.5465  0.8797 -0.1920
 2206TIP3   OH228252   2.168   5.717   1.428  0.9812  0.1471  0.5468
 2206TIP3    H128253   2.162   5.623   1.411 -0.4613  0.2989  0.0215
 2206TIP3    H228254   2.261   5.736   1.425  1.3539 -1.3672  1.2766
 2207TIP3   OH228255   5.316   1.439   8.896 -0.3778 -0.2012  0.1480
 2207TIP3    H128256   5.259   1.513   8.915 -0.0426  0.5545 -1.6424
 2207TIP3    H228257   5.404   1.471   8.915 -0.3173 -0.5007  0.3831
 2208TIP3   OH228258   1.682   0.907   2.001 -0.2078  0.3798  0.4267
 2208TIP3    H128259   1.595   0.947   2.002  0.6722  2.4985 -0.5376
 2208TIP3    H228260   1.714   0.916   2.090  0.2737  2.7000  0.0803
 2209TIP3   OH228261   3.248   0.437   8.707  0.6631 -0.2706  0.2464
 2209TIP3    H128262   3.301   0.491   8.648  0.6011 -3.1659 -2.7227
 2209TIP3    H228263   3.310   0.404   8.772  1.6809 -0.4652 -0.8019
 2210TIP3   OH228264   5.369   5.358   1.664 -0.0530 -0.6728  0.0457
 2210TIP3    H128265   5.299   5.395   1.611 -0.4708 -0.0370  1.0016
 2210TIP3    H228266   5.449   5.380   1.616 -0.3092  1.2344  0.3956
 2211TIP3   OH228267   2.603   1.274   1.673  0.6303 -0.4003  0.0077
 2211TIP3    H128268   2.640   1.221   1.602 -1.0973 -2.8000  0.7510
 2211TIP3    H228269   2.527   1.317   1.633 -0.4915 -1.9492  0.3805
 2212TIP3   OH228270   1.815   6.653   8.613 -0.0398  0.2066  0.1289
 2212TIP3    H128271   1.909   6.632   8.610  0.1301  0.8924  0.5820
 2212TIP3    H228272   1.777   6.600   8.543  0.7224  0.1033 -0.2161
 2213TIP3   OH228273   2.596   3.978   0.437  0.1617 -0.3072 -0.0382
 2213TIP3    H128274   2.621   3.904   0.494  0.0387 -0.9875 -0.8555
 2213TIP3    H228275   2.676   3.999   0.390 -0.0687 -0.6076 -0.5677
 2214TIP3   OH228276   1.670   0.414   8.215  0.3075 -0.3471 -0.1105
 2214TIP3    H128277   1.759   0.441   8.238 -0.3891  1.2923  0.8951
 2214TIP3    H228278   1.673   0.319   8.214  1.7822 -0.3539  1.1703
 2215TIP3   OH228279   3.899   1.637   0.346  0.7346  0.1692  0.7702
 2215TIP3    H128280   3.866   1.552   0.316  0.4941  0.5482 -0.0770
 2215TIP3    H228281   3.919   1.624   0.438 -3.2838  0.3107  1.8304
 2216TIP3   OH228282   2.922   2.989   1.826  0.2639  0.4623 -0.4015
 2216TIP3    H128283   2.945   3.012   1.916  0.4474  3.1465 -1.0482
 2216TIP3    H228284   2.995   3.023   1.774 -0.5373  0.2605 -1.6893
 2217TIP3   OH228285   2.778   2.881   0.342 -0.5292  0.5000  0.2887
 2217TIP3    H128286   2.703   2.849   0.293  0.4004 -1.1818 -0.1153
 2217TIP3    H228287   2.854   2.840   0.299  0.3580 -0.8776  2.9541
 2218TIP3   OH228288   4.870   4.471   7.673 -0.2136 -0.6900  0.0709
 2218TIP3    H128289   4.832   4.411   7.738  0.6748 -0.7418  0.5516
 2218TIP3    H228290   4.826   4.554   7.689 -1.0855 -1.0663 -0.2613
 2219TIP3   OH228291   3.940   2.203   1.732  0.3870 -0.3086  0.2883
 2219TIP3    H128292   3.995   2.219   1.810  0.8374  0.9548 -0.2690
 2219TIP3    H228293   3.851   2.219   1.762  0.6215  0.9267  0.3727
 2220TIP3   OH228294   0.059   5.836   0.458 -0.3993 -0.0986 -0.1282
 2220TIP3    H128295   0.089   5.745   0.465 -1.0820 -0.6922 -3.2345
 2220TIP3    H228296  -0.011   5.843   0.523 -0.5051 -1.8980 -0.0005
 2221TIP3   OH228297   0.264   4.922   2.052  0.2131 -0.7007  0.1905
 2221TIP3    H128298   0.208   4.848   2.076  1.2029 -1.8890 -1.0242
 2221TIP3    H228299   0.205   4.986   2.013 -1.2222  0.6510  4.0854
 2222TIP3   OH228300   0.741   3.510   2.959  0.2380 -0.2028 -0.0047
 2222TIP3    H128301   0.774   3.587   2.912 -0.3521 -0.7689 -1.4131
 2222TIP3    H228302   0.649   3.530   2.977 -0.5729 -1.3952 -2.3684
 2223TIP3   OH228303   2.941   2.106   1.675  0.2348  0.1829 -0.8820
 2223TIP3    H128304   2.922   2.021   1.715  1.5841  1.0268  1.7922
 2223TIP3    H228305   2.885   2.167   1.723  2.8819  1.4255  0.8256
 2224TIP3   OH228306   3.340   4.730   1.923  0.6398 -0.0200 -0.2982
 2224TIP3    H128307   3.384   4.645   1.912  1.8904  0.7725 -1.9188
 2224TIP3    H228308   3.268   4.712   1.982  0.6344 -2.3063 -0.8935
 2225TIP3   OH228309   0.720   0.686   2.660 -0.2100  0.1130 -0.1133
 2225TIP3    H128310   0.761   0.615   2.710  0.0280  0.1793 -0.2124
 2225TIP3    H228311   0.636   0.650   2.631  0.2981 -0.4344 -0.9213
 2226TIP3   OH228312   3.737   0.702   0.933  0.6541  0.0140  0.4900
 2226TIP3    H128313   3.787   0.622   0.920  1.5166  0.1148  2.7717
 2226TIP3    H228314   3.697   0.719   0.848  3.4807 -0.7354 -1.1125
 2227TIP3   OH228315   2.939   2.246   7.999  0.4714  0.3991 -0.5504
 2227TIP3    H128316   2.940   2.177   7.933 -0.4683 -1.0935  0.9145
 2227TIP3    H228317   2.848   2.277   8.000  0.1756 -0.4243  0.8127
 2228TIP3   OH228318   5.984   4.036   2.017 -0.1985  0.5142  0.4453
 2228TIP3    H128319   6.009   4.129   2.014  0.4189  0.4395  2.2244
 2228TIP3    H228320   5.903   4.034   2.067  0.5229 -0.0126  1.6338
 2229TIP3   OH228321   2.403   0.833   1.609  0.0403 -0.2603  0.1886
 2229TIP3    H128322   2.496   0.858   1.607 -0.1320  0.6318  2.0100
 2229TIP3    H228323   2.373   0.848   1.520  0.9024  2.4308  0.2809
 2230TIP3   OH228324   5.168   2.162   1.054 -0.2813 -0.7361  0.4194
 2230TIP3    H128325   5.193   2.242   1.007 -1.6680 -1.3927 -1.6182
 2230TIP3    H228326   5.072   2.163   1.052 -0.3346 -1.9382  1.3105
 2231TIP3   OH228327   2.628   3.696   1.327  0.3534  0.0009  0.3469
 2231TIP3    H128328   2.621   3.791   1.326 -1.7696 -0.1080 -0.7700
 2231TIP3    H228329   2.663   3.674   1.413 -0.5593  1.7037  1.1752
 2232TIP3   OH228330   5.721   1.353   0.204  0.1187  0.2110 -0.0940
 2232TIP3    H128331   5.712   1.268   0.247  0.4131  0.4364  0.4296
 2232TIP3    H228332   5.720   1.416   0.277 -1.1767  0.7401 -0.5374
 2233TIP3   OH228333   2.520   2.322   8.857  0.0535 -0.1431  0.0801
 2233TIP3    H128334   2.486   2.274   8.932  0.1943 -1.3119 -0.5859
 2233TIP3    H228335   2.492   2.271   8.781  0.4141  0.7059 -0.6426
 2234TIP3   OH228336   0.537   6.797   8.010  0.0866 -0.5406 -0.6138
 2234TIP3    H128337   0.551   6.703   8.020 -0.1297 -0.3794  1.9001
 2234TIP3    H228338   0.626   6.834   8.006  0.1750 -0.7761 -0.8690
 2235TIP3   OH228339   4.075   4.048   1.423  0.6608 -0.2627  0.5006
 2235TIP3    H128340   4.084   3.958   1.456  2.7497 -0.0037  0.7641
 2235TIP3    H228341   4.146   4.057   1.360  0.3667  1.1660  0.3549
 2236TIP3   OH228342   2.939   4.798   8.731 -0.2690 -1.0865  0.2556
 2236TIP3    H128343   3.015   4.854   8.717 -0.4933  0.1322  3.3393
 2236TIP3    H228344   2.884   4.845   8.793 -2.5927 -2.8537 -0.2895
 2237TIP3   OH228345   6.082   5.365   1.134  0.1368 -0.3891 -0.4520
 2237TIP3    H128346   6.049   5.275   1.126 -0.2927 -0.3351  0.5780
 2237TIP3    H228347   6.133   5.364   1.214 -0.9675  0.6081  0.2916
 2238TIP3   OH228348   0.886   0.762   8.080 -0.4026  0.0123 -0.4394
 2238TIP3    H128349   0.942   0.693   8.116 -1.0997 -0.7063 -0.7120
 2238TIP3    H228350   0.930   0.789   7.999 -1.4202 -1.9449 -1.7200
 2239TIP3   OH228351   1.030   4.332   1.638  0.0028  0.3713 -0.1040
 2239TIP3    H128352   0.994   4.389   1.706 -1.3170  0.5018 -0.8688
 2239TIP3    H228353   1.124   4.334   1.653 -0.2868 -0.3976  2.3414
 2240TIP3   OH228354   3.359   4.358   0.463  0.2358 -0.2923 -0.3923
 2240TIP3    H128355   3.446   4.377   0.498 -0.2339 -0.0486  0.6726
 2240TIP3    H228356   3.333   4.439   0.419  0.5145 -0.3438 -0.6551
 2241TIP3   OH228357   2.203   0.433   1.496 -0.0620 -0.2358 -0.7772
 2241TIP3    H128358   2.133   0.387   1.542  0.4014  1.7210  2.1241
 2241TIP3    H228359   2.159   0.473   1.420 -1.9875  0.4264  0.6073
 2242TIP3   OH228360   4.817   4.062   1.364 -0.1407 -0.8762  0.0164
 2242TIP3    H128361   4.728   4.090   1.344 -0.7352 -2.3167  0.5800
 2242TIP3    H228362   4.818   3.968   1.349  1.6309 -0.7305 -1.1421
 2243TIP3   OH228363   1.893   5.741   1.420 -0.2221 -0.0861 -0.3446
 2243TIP3    H128364   1.874   5.765   1.330  1.0786  1.2280 -0.3023
 2243TIP3    H228365   1.987   5.720   1.420 -0.3371 -0.6566  0.5804
 2244TIP3   OH228366   1.557   0.906   1.629  0.0635  0.0163 -0.2710
 2244TIP3    H128367   1.526   0.986   1.672  1.0093  1.1087 -1.5222
 2244TIP3    H228368   1.525   0.915   1.539  1.0616 -0.5210 -0.6846
 2245TIP3   OH228369   5.352   1.770   1.870  0.2881 -0.4327 -0.2415
 2245TIP3    H128370   5.262   1.782   1.900  0.2066  1.6182 -1.1396
 2245TIP3    H228371   5.382   1.691   1.915 -0.8406  0.6830  2.7168
 2246TIP3   OH228372   5.252   3.338   0.068 -0.5342 -0.3088 -0.4347
 2246TIP3    H128373   5.228   3.372   0.154 -0.5529 -2.4520  0.4737
 2246TIP3    H228374   5.171   3.345   0.017 -0.8074  0.0645  0.0379
 2247TIP3   OH228375   5.975   4.559   1.017  0.3540 -0.0999  0.8578
 2247TIP3    H128376   5.902   4.609   1.053  0.5247 -1.0564  2.6136
 2247TIP3    H228377   6.017   4.519   1.093  2.8178  0.5446 -0.0636
 2248TIP3   OH228378   6.733   6.611   0.900 -0.2712 -0.5261  0.2516
 2248TIP3    H128379   6.679   6.651   0.832  0.1997 -1.7412 -0.8675
 2248TIP3    H228380   6.738   6.678   0.969 -1.6724  0.2989 -0.4113
 2249TIP3   OH228381   2.588   1.974   8.412  0.5909  0.0976 -0.0578
 2249TIP3    H128382   2.601   2.017   8.496  3.8719  0.0648 -0.4145
 2249TIP3    H228383   2.522   1.907   8.429 -0.1652  1.3016  2.0095
 2250TIP3   OH228384   5.147   4.382   7.682  0.0970 -0.5799 -0.7181
 2250TIP3    H128385   5.121   4.290   7.678 -2.3404  0.0654 -3.1309
 2250TIP3    H228386   5.087   4.421   7.746  0.7622 -0.5528 -0.1037
 2251TIP3   OH228387   4.310   5.867   8.448 -0.1739 -0.3943  0.5273
 2251TIP3    H128388   4.235   5.848   8.504 -3.3003  3.5797 -1.7506
 2251TIP3    H228389   4.298   5.811   8.371  0.1013 -0.8861  0.8427
 2252TIP3   OH228390   3.022   4.146   1.960 -0.2920  0.1989  0.0971
 2252TIP3    H128391   3.104   4.106   1.987  0.3407  0.8098 -0.8699
 2252TIP3    H228392   3.025   4.234   1.998 -1.0370 -0.1599  1.0293
 2253TIP3   OH228393   0.581   0.426   0.825 -0.0052 -0.0916 -0.2556
 2253TIP3    H128394   0.577   0.379   0.742 -0.3207  0.1735 -0.3906
 2253TIP3    H228395   0.645   0.377   0.877 -0.8434 -1.1040 -0.1334
 2254TIP3   OH228396   0.367   3.063   1.336  0.1304  0.4929  0.0831
 2254TIP3    H128397   0.333   3.005   1.405  0.6013  1.6848  1.3571
 2254TIP3    H228398   0.296   3.068   1.272 -1.0807  0.8406  1.4053
 2255TIP3   OH228399   1.624   1.562   6.231  0.6982  0.1821 -0.2798
 2255TIP3    H128400   1.570   1.641   6.240  0.2061 -0.2541  0.8475
 2255TIP3    H228401   1.566   1.497   6.192 -0.1680 -0.7477  2.3017
 2256TIP3   OH228402   3.946   5.803   8.540  0.4186 -0.2827 -0.2130
 2256TIP3    H128403   3.994   5.871   8.494  0.3819  1.2557  1.8562
 2256TIP3    H228404   3.885   5.768   8.476 -0.5616  2.6572 -1.0226
 2257TIP3   OH228405   6.614   5.961   7.551  0.6139  0.0618  0.1801
 2257TIP3    H128406   6.630   6.038   7.605 -0.7734  0.9637 -0.6716
 2257TIP3    H228407   6.639   5.987   7.463  0.3383 -0.5442 -0.0818
 2258TIP3   OH228408   0.520   4.350   6.951  0.0807  0.1761  0.4938
 2258TIP3    H128409   0.546   4.260   6.929  0.4516  0.3604  0.1694
 2258TIP3    H228410   0.432   4.359   6.914  1.1539  0.8855 -2.0936
 2259TIP3   OH228411   3.360   3.357   0.324  0.3054 -0.6712 -0.8445
 2259TIP3    H128412   3.314   3.412   0.387 -1.1026  0.5903 -2.8856
 2259TIP3    H228413   3.364   3.271   0.366 -2.3175 -0.3714  0.1887
 2260TIP3   OH228414   0.932   5.928   7.170 -0.0652  0.4665 -0.0204
 2260TIP3    H128415   1.008   5.953   7.117 -0.8419  0.0323 -1.3732
 2260TIP3    H228416   0.884   5.866   7.116 -1.4134  0.7452  0.8152
 2261TIP3   OH228417   0.249   4.270   2.883 -0.3151  0.5298  0.4363
 2261TIP3    H128418   0.303   4.248   2.959  0.6977  2.2743  0.2664
 2261TIP3    H228419   0.175   4.318   2.919 -2.2191 -2.3960  0.7420
 2262TIP3   OH228420   2.563   2.068   1.624 -0.1805  0.1502  0.0321
 2262TIP3    H128421   2.505   2.130   1.669 -1.1367 -0.2702 -0.5863
 2262TIP3    H228422   2.566   2.099   1.534  0.9639  0.4371  0.1537
 2263TIP3   OH228423   5.515   5.108   0.567 -0.2533 -0.2582  0.3346
 2263TIP3    H128424   5.565   5.188   0.579  0.4267 -0.4974 -0.7779
 2263TIP3    H228425   5.534   5.055   0.645 -1.0786  0.8244  1.3030
 2264TIP3   OH228426   4.445   6.364   1.740  0.0719  0.2619  0.3287
 2264TIP3    H128427   4.483   6.324   1.819  1.7755 -2.5712 -1.7445
 2264TIP3    H228428   4.351   6.365   1.757  0.3971 -0.1662  2.4403
 2265TIP3   OH228429   1.056   4.387   2.209  0.3002  0.1258  0.7080
 2265TIP3    H128430   1.115   4.358   2.279 -0.3414 -2.8286  0.1793
 2265TIP3    H228431   0.970   4.351   2.235 -0.2049  0.0918 -0.9311
 2266TIP3   OH228432   3.717   5.126   8.329 -0.3160 -0.4162  0.1993
 2266TIP3    H128433   3.625   5.100   8.317 -0.8706  1.5384 -0.2242
 2266TIP3    H228434   3.754   5.123   8.241  0.9369 -4.0411  0.7124
 2267TIP3   OH228435   4.449   0.366   0.341 -0.3129  0.0700  0.4522
 2267TIP3    H128436   4.449   0.451   0.385  2.5741  0.2251  0.3474
 2267TIP3    H228437   4.501   0.309   0.399  1.9928 -0.2129 -1.7158
 2268TIP3   OH228438   1.446   6.692   0.185  0.0405 -0.0234 -0.2767
 2268TIP3    H128439   1.413   6.758   0.247 -0.3661  0.4104 -0.9480
 2268TIP3    H228440   1.486   6.626   0.241  0.1354  0.6141  0.4321
 2269TIP3   OH228441   4.403   0.626   6.768  0.3940  0.0634 -0.6843
 2269TIP3    H128442   4.429   0.676   6.690 -0.3520  2.1889  0.3785
 2269TIP3    H228443   4.320   0.664   6.795 -1.3017 -3.1086 -0.9372
 2270TIP3   OH228444   5.600   4.956   6.964  0.1259  0.2032 -0.2818
 2270TIP3    H128445   5.517   4.975   6.921 -0.3032  2.3648  1.3402
 2270TIP3    H228446   5.600   4.861   6.976 -1.9557  0.1234 -0.5934
 2271TIP3   OH228447   6.387   0.185   1.124 -0.2700 -0.0477  0.1487
 2271TIP3    H128448   6.322   0.219   1.062 -0.1193  0.0644  0.0525
 2271TIP3    H228449   6.471   0.217   1.091  0.0137 -1.5258 -0.6581
 2272TIP3   OH228450   3.818   1.826   8.765 -0.5170  0.0039  0.0063
 2272TIP3    H128451   3.772   1.746   8.789  1.3058 -1.0727  0.0406
 2272TIP3    H228452   3.753   1.895   8.778 -1.6288 -1.2653  1.5904
 2273TIP3   OH228453   5.306   5.403   7.611  0.1956 -0.2714 -0.3633
 2273TIP3    H128454   5.237   5.458   7.575  0.2641  0.0168 -0.0636
 2273TIP3    H228455   5.383   5.422   7.558  0.2492  0.0121 -0.1853
 2274TIP3   OH228456   4.954   5.546   0.962  0.3249 -0.3145  0.2406
 2274TIP3    H128457   4.865   5.533   0.930  0.2413 -0.4464  0.5220
 2274TIP3    H228458   5.006   5.481   0.914  0.3040 -0.1089 -0.0637
 2275TIP3   OH228459   0.077   5.759   2.101 -0.1320  0.4279 -0.1860
 2275TIP3    H128460   0.035   5.694   2.157  0.1508  0.2709 -0.1529
 2275TIP3    H228461   0.165   5.725   2.086  0.2421  1.1131  0.3598
 2276TIP3   OH228462   3.081   1.613   7.876  0.3494  0.3377  0.3227
 2276TIP3    H128463   3.134   1.545   7.835  1.9432 -0.2189  3.0118
 2276TIP3    H228464   3.135   1.692   7.871  1.3137 -0.0945  2.5403
 2277TIP3   OH228465   0.756   6.143   2.634  0.6052 -0.3125  0.6666
 2277TIP3    H128466   0.763   6.198   2.712  1.3594 -0.7544  0.9229
 2277TIP3    H228467   0.844   6.108   2.621  0.6354  0.2412 -0.7591
 2278TIP3   OH228468   1.819   1.253   7.725 -0.1364 -0.0756 -0.0888
 2278TIP3    H128469   1.776   1.327   7.768 -1.2117 -0.8136  0.1414
 2278TIP3    H228470   1.856   1.202   7.796  0.5467  0.1966 -0.2430
 2279TIP3   OH228471   3.832   0.594   0.378  0.1296 -0.4103 -0.1568
 2279TIP3    H128472   3.833   0.689   0.387  0.3479 -0.4529  0.2740
 2279TIP3    H228473   3.922   0.566   0.395 -0.0923 -0.7597  0.4913
 2280TIP3   OH228474   6.179   4.237   7.987  0.3314  0.0479  0.1899
 2280TIP3    H128475   6.214   4.156   8.025  0.7148 -0.6990 -1.6428
 2280TIP3    H228476   6.256   4.289   7.966  0.1751  0.0967 -0.2792
 2281TIP3   OH228477   3.428   2.503   2.187 -0.4546 -0.2027  0.1800
 2281TIP3    H128478   3.348   2.454   2.207 -1.7865  1.0678 -1.6594
 2281TIP3    H228479   3.422   2.582   2.241 -1.2273  0.5631 -0.9587
 2282TIP3   OH228480   4.526   3.894   0.736  0.3940 -0.1089 -0.5469
 2282TIP3    H128481   4.594   3.852   0.684  1.0307  0.1964  0.0185
 2282TIP3    H228482   4.449   3.839   0.725  1.3650 -1.8121  0.6914
 2283TIP3   OH228483   1.989   3.022   2.155  0.2653  0.2947 -0.7245
 2283TIP3    H128484   1.954   3.048   2.241  1.2540 -0.0075 -0.2091
 2283TIP3    H228485   2.076   3.060   2.153  1.0444 -1.3775 -0.7240
 2284TIP3   OH228486   0.483   1.501   2.120 -0.1369  0.3202  0.4135
 2284TIP3    H128487   0.559   1.502   2.062 -0.6724 -1.8861 -0.4470
 2284TIP3    H228488   0.510   1.447   2.194  0.1357  2.1308  1.7048
 2285TIP3   OH228489   2.824   6.026   1.814  0.2791 -0.1934 -0.0158
 2285TIP3    H128490   2.751   6.042   1.754  1.7030  0.3750 -1.6928
 2285TIP3    H228491   2.787   6.038   1.901 -1.3302  1.3668 -0.8527
 2286TIP3   OH228492   1.382   4.539   8.473  0.3799  0.1037  0.0011
 2286TIP3    H128493   1.297   4.498   8.458 -1.3123  1.9706  3.3670
 2286TIP3    H228494   1.420   4.548   8.385 -2.7162 -1.0768 -1.6132
 2287TIP3   OH228495   0.524   0.794   7.786  0.2553 -0.0331 -0.2694
 2287TIP3    H128496   0.481   0.757   7.709  3.0244  0.9792 -2.4850
 2287TIP3    H228497   0.493   0.740   7.859  0.0999 -3.3319 -2.5511
 2288TIP3   OH228498   5.601   3.623   0.466  0.1924 -0.2731  0.1363
 2288TIP3    H128499   5.645   3.620   0.551 -2.6167 -1.1116  1.6620
 2288TIP3    H228500   5.549   3.704   0.468 -0.0840 -0.4157 -0.7072
 2289TIP3   OH228501   5.488   1.671   1.662  0.5114  0.2858  0.6276
 2289TIP3    H128502   5.416   1.711   1.710 -0.3941 -0.0898 -0.3595
 2289TIP3    H228503   5.449   1.644   1.579  1.8696  0.3751 -0.0799
 2290TIP3   OH228504   6.356   3.744   0.119 -0.4334  0.3499 -0.4108
 2290TIP3    H128505   6.425   3.686   0.088  0.8628  1.0977  0.9400
 2290TIP3    H228506   6.296   3.687   0.166 -0.3884 -0.2168 -1.0363
 2291TIP3   OH228507   0.878   3.026   6.728  0.5052 -0.3351  0.3513
 2291TIP3    H128508   0.788   2.994   6.727  0.9220 -1.6201  1.1394
 2291TIP3    H228509   0.891   3.057   6.817 -0.0181  2.5776 -0.4923
 2292TIP3   OH228510   1.704   5.950   2.616 -0.0223  0.2527 -0.5892
 2292TIP3    H128511   1.754   5.872   2.639 -0.1829  0.6796  1.4728
 2292TIP3    H228512   1.621   5.939   2.663  0.0523  1.7552 -0.0616
 2293TIP3   OH228513   1.512   4.538   0.428 -0.1684 -0.3313  0.4420
 2293TIP3    H128514   1.556   4.467   0.382  0.4126  0.0040  0.4711
 2293TIP3    H228515   1.558   4.544   0.512 -0.0160  0.2739  0.3205
 2294TIP3   OH228516   5.622   4.422   2.070  0.2157 -0.0337  0.2432
 2294TIP3    H128517   5.604   4.413   1.976 -0.5929 -1.8833  0.5202
 2294TIP3    H228518   5.552   4.479   2.102  1.2107  1.6496 -0.4328
 2295TIP3   OH228519   2.983   4.289   7.415 -0.4919  0.3059 -0.2528
 2295TIP3    H128520   3.074   4.257   7.415 -0.2616  0.9570 -0.3213
 2295TIP3    H228521   2.944   4.247   7.338 -0.0573  0.5624 -0.6199
 2296TIP3   OH228522   3.588   4.363   7.872  0.3901  0.1014 -0.1400
 2296TIP3    H128523   3.517   4.321   7.824 -1.8385  3.1375  0.1889
 2296TIP3    H228524   3.564   4.351   7.965  2.5815 -2.3200  0.2277
 2297TIP3   OH228525   0.466   0.936   7.268  0.4909 -0.0609 -0.3812
 2297TIP3    H128526   0.380   0.901   7.293  0.4017  0.1001 -0.4613
 2297TIP3    H228527   0.471   0.924   7.174  0.7572 -0.5080 -0.3127
 2298TIP3   OH228528   0.368   0.799   0.068 -0.2741  0.0915  0.2569
 2298TIP3    H128529   0.275   0.774   0.072 -0.0164 -0.7991  1.1101
 2298TIP3    H228530   0.392   0.787  -0.024 -0.6169 -1.1979  0.3140
 2299TIP3   OH228531   2.134   6.264   1.737  0.0041 -0.4651 -0.2885
 2299TIP3    H128532   2.196   6.198   1.766  0.1680  0.0288  0.5113
 2299TIP3    H228533   2.076   6.218   1.676  1.9478 -0.6620 -2.1300
 2300TIP3   OH228534   0.589   2.319   7.594 -0.4058 -0.2162  0.0769
 2300TIP3    H128535   0.497   2.315   7.618 -0.8564 -0.9542 -1.5902
 2300TIP3    H228536   0.588   2.348   7.503  1.1604  2.2427  0.7464
 2301TIP3   OH228537   2.990   6.115   2.025 -0.6298 -0.0732  0.7847
 2301TIP3    H128538   3.024   6.179   1.962  0.5068  0.2224  1.6551
 2301TIP3    H228539   2.960   6.042   1.972 -2.3432  1.3231 -0.2699
 2302TIP3   OH228540   2.793   1.292   0.103 -0.8008  0.7972 -0.4322
 2302TIP3    H128541   2.836   1.226   0.048 -1.3295 -1.0429  1.2716
 2302TIP3    H228542   2.773   1.246   0.185  1.5207  3.8592  2.0733
 2303TIP3   OH228543   3.936   3.018   8.434 -0.1327 -0.0301 -0.7568
 2303TIP3    H128544   3.930   2.932   8.477  1.1770  0.7699  1.1621
 2303TIP3    H228545   3.948   3.080   8.506 -2.6621  2.0270 -1.9365
 2304TIP3   OH228546   3.229   2.842   2.776  0.3281 -0.0177 -0.2170
 2304TIP3    H128547   3.283   2.885   2.710  0.8338 -1.1246 -0.5505
 2304TIP3    H228548   3.286   2.833   2.852  1.0698 -2.2279 -0.9484
 2305TIP3   OH228549   0.022   3.519   7.828  0.0967 -0.0226  0.6066
 2305TIP3    H128550   0.011   3.614   7.832  0.9919  0.0669  1.9480
 2305TIP3    H228551  -0.005   3.495   7.740 -2.6845  1.1060  1.0609
 2306TIP3   OH228552   4.229   0.443   7.665 -0.7137  0.0776 -0.1474
 2306TIP3    H128553   4.305   0.388   7.645 -0.8107 -0.4046  0.7288
 2306TIP3    H228554   4.171   0.434   7.590 -0.0935  0.1043 -0.6308
 2307TIP3   OH228555   1.008   6.431   0.713 -0.2515 -0.8548  0.4470
 2307TIP3    H128556   1.062   6.492   0.663 -0.2695 -2.0241 -1.0642
 2307TIP3    H228557   1.047   6.431   0.801  0.8646 -0.0693 -0.0314
 2308TIP3   OH228558   6.448   2.945   7.694 -0.2668  0.0404 -0.4638
 2308TIP3    H128559   6.534   2.944   7.653  0.2304 -0.5934  0.5396
 2308TIP3    H228560   6.386   2.944   7.621  0.5850 -1.1311 -1.2002
 2309TIP3   OH228561   4.689   4.199   7.741 -0.4595  0.1532 -0.4290
 2309TIP3    H128562   4.752   4.163   7.679  1.7679  1.3017  1.0040
 2309TIP3    H228563   4.692   4.140   7.816  0.7982  1.4468  0.6140
 2310TIP3   OH228564   2.261   0.509   0.499 -0.3713 -0.2982  0.6326
 2310TIP3    H128565   2.352   0.509   0.469 -0.6464  1.4610 -0.3418
 2310TIP3    H228566   2.261   0.451   0.575  1.8395  0.6638  1.4546
 2311TIP3   OH228567   2.927   5.874   1.436 -0.4745 -0.1468  0.0629
 2311TIP3    H128568   2.852   5.917   1.397 -0.5973 -0.3797  0.0424
 2311TIP3    H228569   2.894   5.789   1.465 -0.1259 -0.4087 -0.3043
 2312TIP3   OH228570   4.475   0.388   6.871 -0.4417 -0.3092  0.2043
 2312TIP3    H128571   4.566   0.417   6.886  0.9676 -1.4425 -4.2899
 2312TIP3    H228572   4.443   0.449   6.804 -1.2343 -2.5799 -1.6106
 2313TIP3   OH228573   5.084   2.890   2.786  0.3086  0.3572 -0.2186
 2313TIP3    H128574   5.064   2.870   2.878  0.7060  0.1233 -0.1805
 2313TIP3    H228575   5.029   2.830   2.736 -0.2925  0.8412 -0.1422
 2314TIP3   OH228576   0.451   6.096   7.930  0.2610  0.5608  0.0214
 2314TIP3    H128577   0.545   6.117   7.923 -0.2231  2.9257 -0.3482
 2314TIP3    H228578   0.408   6.182   7.931 -2.1017 -0.4700 -2.3429
 2315TIP3   OH228579   6.745   3.461   7.567 -0.2554  0.7347  0.4154
 2315TIP3    H128580   6.787   3.402   7.505  1.7556  1.5303  0.9444
 2315TIP3    H228581   6.786   3.546   7.550 -0.2615  1.1390  2.2460
 2316TIP3   OH228582   3.926   2.850   1.652 -0.8954  0.7534 -0.0044
 2316TIP3    H128583   3.901   2.938   1.680 -0.6526  0.9147 -0.2984
 2316TIP3    H228584   3.936   2.801   1.734 -1.0627  0.9896  0.1568
 2317TIP3   OH228585   4.395   3.611   8.687  0.6757 -0.0676  0.0708
 2317TIP3    H128586   4.480   3.574   8.711  0.5264 -0.5424 -0.1343
 2317TIP3    H228587   4.380   3.581   8.597  0.3033  0.0393  0.0943
 2318TIP3   OH228588   3.074   0.277   0.422 -0.1545 -0.8014 -0.1031
 2318TIP3    H128589   3.115   0.192   0.406 -0.2944 -0.9166  0.1573
 2318TIP3    H228590   3.075   0.287   0.517  0.3479 -0.2757 -0.1555
 2319TIP3   OH228591   6.175   3.787   8.200 -0.8930  0.1832 -0.5716
 2319TIP3    H128592   6.092   3.755   8.235 -0.1655 -0.3292  0.7419
 2319TIP3    H228593   6.241   3.729   8.237  0.1832  1.3710 -0.5575
 2320TIP3   OH228594   6.164   1.125   2.071 -0.0967 -0.2339 -0.2770
 2320TIP3    H128595   6.087   1.072   2.053  0.4523 -0.1670 -3.5388
 2320TIP3    H228596   6.140   1.213   2.040  0.6264  0.2533  0.5113
 2321TIP3   OH228597   3.103   6.784   8.469  0.1549 -0.3749 -0.5843
 2321TIP3    H128598   3.008   6.788   8.455 -0.1842 -2.5456  0.6869
 2321TIP3    H228599   3.124   6.865   8.516 -1.0982 -0.0144 -0.6083
 2322TIP3   OH228600   4.869   5.433   1.215  0.2377 -0.1385  0.4909
 2322TIP3    H128601   4.905   5.498   1.276 -0.8699  0.7826  0.1910
 2322TIP3    H228602   4.912   5.452   1.132 -1.8495  1.8892 -0.2280
 2323TIP3   OH228603   4.120   1.529   2.600 -0.9277  0.1417  0.1882
 2323TIP3    H128604   4.188   1.464   2.616 -0.6523  0.4213  0.1546
 2323TIP3    H228605   4.074   1.537   2.683 -1.8176 -1.0706 -0.1583
 2324TIP3   OH228606   0.108   3.939   1.940 -0.1309 -0.5571  0.2460
 2324TIP3    H128607   0.141   3.972   1.856 -0.1683  1.3691  0.9502
 2324TIP3    H228608   0.111   3.844   1.930 -2.2511 -0.4727 -2.7874
 2325TIP3   OH228609   2.171   6.413   7.918 -0.6126 -0.5890 -0.0468
 2325TIP3    H128610   2.187   6.493   7.869 -3.8596  0.7223  0.7856
 2325TIP3    H228611   2.096   6.373   7.874 -1.1382 -1.4129  1.5413
 2326TIP3   OH228612   3.909   2.208   1.110  0.0696  0.3164  0.2113
 2326TIP3    H128613   3.832   2.168   1.150  1.4672 -0.7480  2.0053
 2326TIP3    H228614   3.954   2.135   1.068  1.1020  0.5073  0.9356
 2327TIP3   OH228615   1.322   1.296   1.042 -0.4560  0.0746  0.1712
 2327TIP3    H128616   1.254   1.243   0.999 -0.7700  0.7548 -0.1889
 2327TIP3    H228617   1.401   1.278   0.992 -0.6613  0.2909 -0.2413
 2328TIP3   OH228618   0.691   5.686   0.597 -0.9673  0.3725 -0.0017
 2328TIP3    H128619   0.764   5.715   0.542 -0.0682  1.2221  1.5818
 2328TIP3    H228620   0.621   5.665   0.535 -0.2247  1.9590 -1.4397
 2329TIP3   OH228621   3.329   6.086   6.683 -0.0762  0.6886  0.1593
 2329TIP3    H128622   3.263   6.066   6.617  0.2263 -0.3775  0.1559
 2329TIP3    H228623   3.339   6.004   6.733  1.7209  0.5837 -0.2925
 2330TIP3   OH228624   0.433   1.992   1.090 -0.0443 -0.4783  0.4040
 2330TIP3    H128625   0.487   2.033   1.158  1.0154 -0.8790 -0.1568
 2330TIP3    H228626   0.490   1.924   1.053 -1.5894 -2.1582  1.0057
 2331TIP3   OH228627   2.561   0.692   1.282  0.2107 -0.3876  0.4762
 2331TIP3    H128628   2.613   0.719   1.357  0.7268  0.3697 -0.1362
 2331TIP3    H228629   2.483   0.747   1.285 -0.1257 -0.8778  0.8705
 2332TIP3   OH228630   2.084   2.179   7.703 -0.3725  0.3019 -0.4845
 2332TIP3    H128631   2.020   2.110   7.723 -1.3540  0.8798 -1.5694
 2332TIP3    H228632   2.072   2.243   7.773 -0.1707 -0.1257 -0.0483
 2333TIP3   OH228633   1.567   2.184   8.140  0.2945 -0.1678  0.6445
 2333TIP3    H128634   1.661   2.205   8.142  0.2300  0.0511  2.0289
 2333TIP3    H228635   1.535   2.209   8.226 -0.6748 -2.0058  0.8572
 2334TIP3   OH228636   2.701   1.713   8.822  0.1392 -0.0843 -0.0303
 2334TIP3    H128637   2.756   1.635   8.828  0.4791  0.0215 -1.4979
 2334TIP3    H228638   2.761   1.786   8.834  0.6731  0.0961 -3.0290
 2335TIP3   OH228639   6.280   5.105   0.313 -0.1692  0.3138 -1.3063
 2335TIP3    H128640   6.289   5.140   0.401 -0.2623 -1.8326 -0.3680
 2335TIP3    H228641   6.193   5.131   0.285 -0.3463  0.5649 -0.5359
 2336TIP3   OH228642   6.020   3.596   2.091 -0.0406  0.3789  0.0731
 2336TIP3    H128643   6.053   3.618   2.178  1.1039  1.8860 -0.6913
 2336TIP3    H228644   6.039   3.674   2.038 -0.0138 -0.7898 -1.7102
 2337TIP3   OH228645   6.265   6.496   0.901 -0.0529  0.4702 -0.7053
 2337TIP3    H128646   6.317   6.569   0.933 -0.8503  0.7818 -0.0535
 2337TIP3    H228647   6.324   6.446   0.845  0.5775  1.4670 -0.9538
 2338TIP3   OH228648   0.221   5.367   0.864 -0.2987 -0.5145 -0.2699
 2338TIP3    H128649   0.158   5.394   0.797 -0.1550  0.1127 -0.1598
 2338TIP3    H228650   0.242   5.276   0.841  0.0826 -0.1783 -1.3404
 2339TIP3   OH228651   0.781   3.212   1.285  0.4021  0.0623  0.3464
 2339TIP3    H128652   0.784   3.220   1.190  0.6272  1.5022  0.4470
 2339TIP3    H228653   0.692   3.238   1.309  0.1355 -0.9486  0.4938
 2340TIP3   OH228654   0.516   2.954   0.711  0.2328 -0.0020  0.0929
 2340TIP3    H128655   0.484   2.867   0.684 -0.6953  0.4619 -0.3662
 2340TIP3    H228656   0.519   2.950   0.806  1.2733 -0.8938  0.0463
 2341TIP3   OH228657   0.279   2.681   8.079  0.2717 -0.4687 -0.1674
 2341TIP3    H128658   0.202   2.636   8.114  0.3581 -0.3415  0.1810
 2341TIP3    H228659   0.293   2.755   8.137  0.6810 -0.5125 -0.2080
 2342TIP3   OH228660   4.214   4.195   8.701 -0.0041  0.2920 -0.0704
 2342TIP3    H128661   4.289   4.220   8.646 -0.2127 -1.5825 -1.3165
 2342TIP3    H228662   4.253   4.179   8.787  1.2563 -1.5115 -0.9014
 2343TIP3   OH228663   6.484   0.580   0.988  0.8282  0.1714  0.3367
 2343TIP3    H128664   6.409   0.563   0.931  1.4532  4.0432 -2.0130
 2343TIP3    H228665   6.445   0.618   1.067  0.1919  0.9042 -0.3087
 2344TIP3   OH228666   6.067   1.843   7.687  0.5704 -0.7112 -0.1219
 2344TIP3    H128667   6.039   1.861   7.598  0.0767 -1.3130 -0.0967
 2344TIP3    H228668   6.034   1.755   7.705 -0.1918 -0.2307  0.9829
 2345TIP3   OH228669   6.693   2.917   2.104 -0.4539  0.5982 -0.0860
 2345TIP3    H128670   6.604   2.922   2.070 -0.3469  0.6581 -0.3595
 2345TIP3    H228671   6.732   3.002   2.082 -0.3861  0.6411  0.1931
 2346TIP3   OH228672   1.950   0.319   1.608  0.2429 -0.0980  0.1320
 2346TIP3    H128673   1.913   0.236   1.577  3.4720 -1.9580  0.7552
 2346TIP3    H228674   1.966   0.304   1.701  0.6428  1.3464  0.3115
 2347TIP3   OH228675   3.465   4.016   7.967 -0.2823 -0.1979 -0.1144
 2347TIP3    H128676   3.414   4.094   7.945  0.1939  0.3771  0.7576
 2347TIP3    H228677   3.492   4.030   8.058  1.6852 -0.3176 -0.6155
 2348TIP3   OH228678   3.246   2.507   8.542 -0.1525  0.1545 -0.6023
 2348TIP3    H128679   3.320   2.468   8.588 -1.2363 -3.3208 -1.5383
 2348TIP3    H228680   3.170   2.487   8.596 -0.7215  1.5787 -0.8353
 2349TIP3   OH228681   2.167   1.638   1.686  0.4493 -0.0971  0.4921
 2349TIP3    H128682   2.231   1.706   1.707  1.4361 -0.0025 -2.3410
 2349TIP3    H228683   2.205   1.557   1.721  2.1926 -0.0352 -1.1056
 2350TIP3   OH228684   1.548   2.589   0.997 -0.0555 -0.3903 -0.1953
 2350TIP3    H128685   1.591   2.503   1.000  1.8755  0.4701 -1.2436
 2350TIP3    H228686   1.580   2.635   1.074  0.5217  0.0878 -0.7169
 2351TIP3   OH228687   1.968   5.455   8.139  0.0530  0.6829 -0.2153
 2351TIP3    H128688   1.922   5.391   8.084  1.7985 -0.8694  0.0300
 2351TIP3    H228689   2.017   5.509   8.077 -0.0343  0.6416 -0.3208
 2352TIP3   OH228690   2.812   2.882   2.526  1.0146  0.4122 -0.2526
 2352TIP3    H128691   2.806   2.969   2.564  1.5378  0.5632 -0.5099
 2352TIP3    H228692   2.820   2.823   2.601  1.0918  0.6220 -0.0954
 2353TIP3   OH228693   5.916   2.728   1.383 -0.2278  0.1218 -0.0572
 2353TIP3    H128694   6.000   2.688   1.406 -0.4878 -0.3179  0.1246
 2353TIP3    H228695   5.889   2.683   1.304 -1.1107 -0.9253  0.8201
 2354TIP3   OH228696   4.276   5.315   8.734  0.0478 -0.0794 -0.0458
 2354TIP3    H128697   4.344   5.254   8.706 -0.2778 -0.0613 -0.9147
 2354TIP3    H228698   4.215   5.261   8.785  1.3251  0.1468  1.8453
 2355TIP3   OH228699   3.711   6.053   8.451  0.6705  0.1974 -0.1201
 2355TIP3    H128700   3.687   5.998   8.526 -1.3034  1.7034  0.4350
 2355TIP3    H228701   3.695   5.997   8.375  0.3939 -0.5749  0.4867
 2356TIP3   OH228702   2.306   4.992   8.874  0.7477  0.2778 -0.3040
 2356TIP3    H128703   2.248   4.998   8.950  2.0799  2.2397  0.6608
 2356TIP3    H228704   2.259   5.037   8.804  0.1723 -0.1272 -0.1785
 2357TIP3   OH228705   0.682   6.343   7.081  0.6630 -0.3584  0.8892
 2357TIP3    H128706   0.747   6.284   7.043  1.4938  1.2822 -0.3773
 2357TIP3    H228707   0.713   6.431   7.057 -0.9955  0.5568  1.9294
 2358TIP3   OH228708   2.183   1.016   2.027  0.1250 -0.1266  0.2901
 2358TIP3    H128709   2.088   1.023   2.023  0.2164  0.9725 -0.1898
 2358TIP3    H228710   2.202   1.005   2.121 -0.3880  1.3033  0.5878
 2359TIP3   OH228711   3.354   3.678   2.177 -0.4715 -0.2456 -0.5548
 2359TIP3    H128712   3.439   3.648   2.146 -0.8182 -2.3966  0.4008
 2359TIP3    H228713   3.309   3.708   2.097  0.8697  0.2057 -1.1761
 2360TIP3   OH228714   3.694   0.871   2.586  0.0575  0.1383 -0.4923
 2360TIP3    H128715   3.777   0.917   2.599 -0.2916  0.8550 -0.7265
 2360TIP3    H228716   3.709   0.784   2.623  0.8299  0.3375 -0.3048
 2361TIP3   OH228717   4.083   1.227   0.512  0.1174 -0.3709 -0.2275
 2361TIP3    H128718   4.005   1.260   0.468  0.2693 -1.2628 -1.2053
 2361TIP3    H228719   4.054   1.206   0.601 -1.0062 -1.6212 -0.8657
 2362TIP3   OH228720   4.227   1.077   0.331 -0.2921  0.2114 -0.1843
 2362TIP3    H128721   4.316   1.095   0.360 -0.2088 -0.9389  0.3364
 2362TIP3    H228722   4.172   1.122   0.395 -0.1410  2.8029 -1.7438
 2363TIP3   OH228723   5.067   5.217   8.486  1.1580 -0.1241  0.5225
 2363TIP3    H128724   5.117   5.281   8.435 -0.5406  1.2312  0.4990
 2363TIP3    H228725   5.004   5.181   8.425  0.3198  0.1629  1.2040
 2364TIP3   OH228726   5.202   1.180   8.898 -0.0290 -0.0747 -0.4340
 2364TIP3    H128727   5.241   1.170   8.984  2.1101 -1.6586 -1.5138
 2364TIP3    H228728   5.203   1.275   8.883  1.4854  0.0888  0.4620
 2365TIP3   OH228729   0.426   2.729   0.629 -0.2466  0.2413  0.3258
 2365TIP3    H128730   0.354   2.711   0.689 -0.0785 -0.5381  0.2967
 2365TIP3    H228731   0.443   2.646   0.585 -0.8349  0.9719 -1.3222
 2366TIP3   OH228732   6.589   5.864   6.902 -0.0743 -0.6390 -0.2238
 2366TIP3    H128733   6.518   5.927   6.886  0.4223 -0.1372 -0.4791
 2366TIP3    H228734   6.574   5.834   6.992 -1.1487 -1.2492 -0.5841
 2367TIP3   OH228735   3.254   5.400   8.590  0.0325 -0.2857 -0.2987
 2367TIP3    H128736   3.170   5.437   8.565 -0.7564 -1.2750  0.7454
 2367TIP3    H228737   3.248   5.389   8.685  1.8718  0.8828 -0.0077
 2368TIP3   OH228738   4.683   4.434   8.306  0.2936 -0.2413 -0.5531
 2368TIP3    H128739   4.642   4.407   8.387  0.3422 -1.4361 -0.9119
 2368TIP3    H228740   4.688   4.530   8.312 -1.6824 -0.1274 -0.1114
 2369TIP3   OH228741   1.854   3.746   8.292 -0.8608 -0.0278  1.0326
 2369TIP3    H128742   1.873   3.656   8.320 -0.1677 -0.4948 -0.8357
 2369TIP3    H228743   1.897   3.800   8.358 -0.8446 -1.0572  1.9057
 2370TIP3   OH228744   1.848   6.248   0.698 -0.1877  0.1670  0.1872
 2370TIP3    H128745   1.838   6.166   0.650 -1.1984  0.1519  0.3845
 2370TIP3    H228746   1.923   6.234   0.755 -0.4799 -0.7097  0.3711
 2371TIP3   OH228747   6.192   2.441   8.646 -0.2691  0.1624 -0.0566
 2371TIP3    H128748   6.164   2.369   8.590  0.2305  0.4358 -0.6689
 2371TIP3    H228749   6.117   2.457   8.704 -0.8518 -0.0269 -0.7429
 2372TIP3   OH228750   4.163   4.865   1.166  0.0138  0.0362 -0.2820
 2372TIP3    H128751   4.087   4.855   1.223  1.2033 -0.6616  1.2299
 2372TIP3    H228752   4.141   4.816   1.087 -0.8118 -0.7608  0.4329
 2373TIP3   OH228753   4.100   2.907   7.709  0.3787  0.1806 -0.0205
 2373TIP3    H128754   4.048   2.930   7.633 -1.2282 -1.2472  0.5805
 2373TIP3    H228755   4.060   2.955   7.781  0.1301 -0.6173  0.3849
 2374TIP3   OH228756   1.555   1.111   7.689  0.0521  0.1352 -0.3065
 2374TIP3    H128757   1.469   1.137   7.722  0.0387 -0.0089 -0.2284
 2374TIP3    H228758   1.604   1.193   7.685 -0.9673  0.7426 -3.0772
 2375TIP3   OH228759   2.500   5.077   0.824 -0.6032 -0.1318  0.5184
 2375TIP3    H128760   2.580   5.025   0.831 -0.3846  0.1803  0.3538
 2375TIP3    H228761   2.449   5.033   0.756 -1.3368 -1.3277  1.7875
 2376TIP3   OH228762   5.746   4.792   2.752  0.3127  0.1847 -0.1412
 2376TIP3    H128763   5.837   4.804   2.777  0.1190 -0.4827  0.9472
 2376TIP3    H228764   5.727   4.865   2.693  0.8548  1.7368  1.5274
 2377TIP3   OH228765   3.044   5.578   8.605  0.5099 -0.8524  0.1024
 2377TIP3    H128766   2.962   5.528   8.595  0.1513 -0.2941  0.2280
 2377TIP3    H228767   3.018   5.669   8.594  1.1911 -0.6984 -0.2764
 2378TIP3   OH228768   5.531   1.015   1.329  0.0628 -0.0755  0.0198
 2378TIP3    H128769   5.446   1.008   1.285  1.1936  0.4944 -2.4127
 2378TIP3    H228770   5.580   0.939   1.299  0.9754  0.4952  0.0214
 2379TIP3   OH228771   4.501   2.420   2.051 -0.4876  0.0441  0.1172
 2379TIP3    H128772   4.527   2.333   2.023  0.5621  0.8053 -1.4333
 2379TIP3    H228773   4.411   2.411   2.080  0.1406 -1.8709  1.6290
 2380TIP3   OH228774   5.829   4.854   1.082 -0.1896 -0.4482 -0.5182
 2380TIP3    H128775   5.913   4.896   1.065 -0.6774  0.5090 -0.5805
 2380TIP3    H228776   5.799   4.891   1.165 -1.3368  0.5071 -1.3133
 2381TIP3   OH228777   2.211   1.467   1.258 -0.0063 -0.3900  0.7636
 2381TIP3    H128778   2.152   1.530   1.300 -2.6241 -0.9000 -1.8296
 2381TIP3    H228779   2.165   1.383   1.265  0.6129 -0.9006 -0.9253
 2382TIP3   OH228780   4.885   0.354   8.560 -0.2650  0.6080  0.6081
 2382TIP3    H128781   4.968   0.399   8.580 -0.6946  1.7395 -0.0455
 2382TIP3    H228782   4.849   0.402   8.485 -1.3749 -0.0557  0.6904
 2383TIP3   OH228783   0.095   1.323   8.041 -0.1261  0.1218 -0.0249
 2383TIP3    H128784   0.005   1.355   8.047 -0.3650 -0.4409 -0.4612
 2383TIP3    H228785   0.096   1.269   7.962  0.7197  0.5004 -0.2809
 2384TIP3   OH228786   4.946   2.385   1.721 -0.5008 -0.8615  0.0810
 2384TIP3    H128787   4.879   2.453   1.725 -0.2356 -0.5377 -0.7741
 2384TIP3    H228788   4.962   2.372   1.627  2.3413  0.7723  0.2446
 2385TIP3   OH228789   4.426   6.262   8.039 -0.0571  0.4570 -0.4667
 2385TIP3    H128790   4.362   6.322   8.002  0.5453  1.3126 -0.1543
 2385TIP3    H228791   4.383   6.223   8.115  0.1598  1.8487  0.3937
 2386TIP3   OH228792   1.410   0.423   8.230 -0.2071  0.0640 -0.0145
 2386TIP3    H128793   1.380   0.478   8.158 -0.8772 -0.7463 -0.3746
 2386TIP3    H228794   1.503   0.410   8.214 -0.4752 -0.6445 -1.1209
 2387TIP3   OH228795   4.914   3.487   2.559  0.2512 -0.1486  0.4908
 2387TIP3    H128796   4.955   3.414   2.604  0.2317 -0.5337 -0.1110
 2387TIP3    H228797   4.979   3.557   2.561  1.0836 -0.8582 -0.7466
 2388TIP3   OH228798   4.008   0.446   1.551  0.2472 -0.2975  0.7500
 2388TIP3    H128799   4.007   0.475   1.459  1.9335 -2.2621  0.0297
 2388TIP3    H228800   3.916   0.448   1.577 -0.2903  0.2301 -1.0063
 2389TIP3   OH228801   4.820   3.498   1.327 -0.3323  0.0501 -0.4022
 2389TIP3    H128802   4.797   3.427   1.387  0.7661 -1.1930 -1.3805
 2389TIP3    H228803   4.887   3.460   1.270 -2.5993  0.4963 -3.6580
 2390TIP3   OH228804   4.283   2.245   7.847 -0.3093  0.0216 -0.1376
 2390TIP3    H128805   4.251   2.264   7.759 -1.5730 -0.7643  0.1245
 2390TIP3    H228806   4.319   2.156   7.840  0.5274  0.3453 -0.0824
 2391TIP3   OH228807   6.392   4.213   1.131  0.1590 -0.3749  0.0080
 2391TIP3    H128808   6.446   4.147   1.087  1.6020  0.5112  0.3678
 2391TIP3    H228809   6.427   4.296   1.100 -0.5333  0.2340  0.8281
 2392TIP3   OH228810   2.868   3.597   1.224  0.2347  0.5407 -0.7772
 2392TIP3    H128811   2.782   3.593   1.265  0.9771  2.1020  1.0950
 2392TIP3    H228812   2.910   3.515   1.249 -0.1000  0.5433 -0.1919
 2393TIP3   OH228813   0.911   4.915   2.590 -0.2273 -0.0301  0.6268
 2393TIP3    H128814   0.933   4.999   2.551  0.1952 -0.1476  0.6151
 2393TIP3    H228815   0.859   4.937   2.668 -1.1820  0.2006 -0.0518
 2394TIP3   OH228816   6.241   2.225   7.183 -0.5857 -0.2698  0.1183
 2394TIP3    H128817   6.191   2.303   7.159  0.1817  0.1774 -0.0691
 2394TIP3    H228818   6.254   2.180   7.100  0.0865  0.0802  0.0297
 2395TIP3   OH228819   1.383   3.753   1.239  0.2689  0.5911  0.5733
 2395TIP3    H128820   1.462   3.807   1.247  1.0766  0.0355 -2.5644
 2395TIP3    H228821   1.389   3.713   1.153 -2.5299 -1.0301  0.9998
 2396TIP3   OH228822   5.571   4.323   1.823  0.5819  0.0866  0.0718
 2396TIP3    H128823   5.521   4.283   1.894 -0.2217  1.2373  0.1849
 2396TIP3    H228824   5.509   4.332   1.751  0.7693  0.9654  0.0026
 2397TIP3   OH228825   5.402   0.826   8.617 -0.5187 -0.2511  0.1436
 2397TIP3    H128826   5.461   0.902   8.617  0.9661 -1.3672 -0.7754
 2397TIP3    H228827   5.347   0.839   8.540  0.6568 -0.7651 -0.8137
 2398TIP3   OH228828   3.154   1.540   7.582  0.4598  0.1166  0.1706
 2398TIP3    H128829   3.059   1.541   7.570  0.3805  1.5129  0.7000
 2398TIP3    H228830   3.169   1.476   7.651  0.0081 -0.8282 -0.5861
 2399TIP3   OH228831   1.485   4.132   7.151 -0.2797  0.6524  0.0488
 2399TIP3    H128832   1.518   4.058   7.100  0.5505  0.5680  0.6938
 2399TIP3    H228833   1.471   4.201   7.086  1.2899  0.7259 -0.2413
 2400TIP3   OH228834   4.448   0.133   6.686 -0.4649  0.7334  0.0049
 2400TIP3    H128835   4.406   0.181   6.757  1.7918 -0.9950  2.6957
 2400TIP3    H228836   4.538   0.166   6.684 -0.4029  0.5825 -1.9702
 2401TIP3   OH228837   5.705   0.831   8.076 -0.5783  0.4752  0.0433
 2401TIP3    H128838   5.620   0.808   8.037 -0.2833 -0.6560  0.0220
 2401TIP3    H228839   5.686   0.842   8.169 -0.6632 -0.3337  0.1305
 2402TIP3   OH228840   5.072   5.184   1.278  0.4972  0.2307 -0.2987
 2402TIP3    H128841   5.106   5.111   1.226 -1.9198 -1.2419  0.0543
 2402TIP3    H228842   5.027   5.240   1.215 -0.1370 -0.1439 -0.1881
 2403TIP3   OH228843   4.337   1.111   0.953 -0.3888  0.5741 -0.4268
 2403TIP3    H128844   4.390   1.047   0.905 -1.5844 -1.3975  0.7303
 2403TIP3    H228845   4.254   1.114   0.906 -1.0846 -0.3602  0.6809
 2404TIP3   OH228846   4.094   4.450   7.245  0.6849 -0.2700 -0.6566
 2404TIP3    H128847   3.999   4.437   7.250  0.7634 -0.6482 -0.1491
 2404TIP3    H228848   4.109   4.534   7.288  0.5513 -0.0794 -0.9789
 2405TIP3   OH228849   2.025   2.544   0.403 -0.0984 -0.0176 -0.1130
 2405TIP3    H128850   2.044   2.493   0.325  0.4004  0.2894 -0.1915
 2405TIP3    H228851   2.058   2.492   0.476  1.4632  0.6896 -0.2724
 2406TIP3   OH228852   5.442   5.809   1.154 -0.1238  0.7363  0.4497
 2406TIP3    H128853   5.501   5.759   1.208  1.6331  1.3229 -0.8362
 2406TIP3    H228854   5.364   5.823   1.209 -0.6454 -3.1089  0.9322
 2407TIP3   OH228855   2.624   1.252   8.698 -0.8321 -0.6182  0.0686
 2407TIP3    H128856   2.639   1.183   8.763  1.9930 -0.7086 -0.5337
 2407TIP3    H228857   2.638   1.209   8.613 -3.1116 -0.1875 -0.5989
 2408TIP3   OH228858   1.188   1.020   7.200  0.2382 -0.2918  0.3038
 2408TIP3    H128859   1.117   1.083   7.196 -1.5822 -2.3120 -1.2893
 2408TIP3    H228860   1.263   1.071   7.231 -1.6340  2.1232  1.1642
 2409TIP3   OH228861   4.353   0.308   2.680  0.0166 -0.7926  0.1418
 2409TIP3    H128862   4.383   0.258   2.755  0.8365 -2.0835 -1.0119
 2409TIP3    H228863   4.270   0.347   2.709 -0.0174 -1.7903  1.4829
 2410TIP3   OH228864   3.333   5.714   7.606 -0.0865 -0.2751 -0.0816
 2410TIP3    H128865   3.302   5.753   7.525 -1.1145 -1.4997 -0.3122
 2410TIP3    H228866   3.428   5.727   7.605 -0.1019 -0.1751 -1.4080
 2411TIP3   OH228867   6.180   2.924   0.575  1.1297  0.2957 -0.1414
 2411TIP3    H128868   6.248   2.866   0.608  0.7573 -0.5556 -0.8360
 2411TIP3    H228869   6.172   2.992   0.641  0.9722 -0.9103  1.1211
 2412TIP3   OH228870   3.765   4.799   8.331 -0.1193 -0.0973  0.0321
 2412TIP3    H128871   3.812   4.763   8.256  0.1234 -0.3003  0.2773
 2412TIP3    H228872   3.742   4.888   8.305  0.4944  0.0413 -0.0559
 2413TIP3   OH228873   5.967   2.114   8.262  0.2646  0.6926  0.6875
 2413TIP3    H128874   5.954   2.024   8.292  0.2519  0.2216 -0.6778
 2413TIP3    H228875   6.042   2.110   8.203 -0.6633  1.2731 -0.5839
 2414TIP3   OH228876   3.113   4.283   0.530  0.1574  0.4874  0.1701
 2414TIP3    H128877   3.202   4.310   0.504 -0.3766  2.9483  0.6517
 2414TIP3    H228878   3.113   4.287   0.625 -0.3661  0.1245  0.1898
 2415TIP3   OH228879   4.284   1.675   1.337 -0.0751 -0.1953 -0.2737
 2415TIP3    H128880   4.197   1.710   1.318 -0.7353 -1.4394  0.3200
 2415TIP3    H228881   4.272   1.580   1.338  0.8044 -0.3481  2.0107
 2416TIP3   OH228882   5.246   3.579   8.298  0.2156 -0.3365 -0.2967
 2416TIP3    H128883   5.156   3.610   8.286 -0.0323 -1.7037 -2.5726
 2416TIP3    H228884   5.285   3.587   8.212  1.2669 -2.7563 -0.1237
 2417TIP3   OH228885   5.627   2.620   0.413  0.0642 -0.1307  0.0340
 2417TIP3    H128886   5.613   2.647   0.503  1.9745  0.5734  0.1796
 2417TIP3    H228887   5.618   2.524   0.415 -0.2826 -0.0885  0.8851
 2418TIP3   OH228888   4.576   5.795   8.244  0.5398 -0.1105 -0.5179
 2418TIP3    H128889   4.557   5.719   8.188  1.5917 -1.2121  0.5562
 2418TIP3    H228890   4.491   5.819   8.281  0.2213 -0.9471 -0.6580
 2419TIP3   OH228891   4.798   4.929   2.391  0.0743 -0.0237 -0.6204
 2419TIP3    H128892   4.791   4.964   2.480 -1.2265 -2.8792  0.5317
 2419TIP3    H228893   4.891   4.909   2.379  0.4050  1.2417 -0.3127
 2420TIP3   OH228894   1.935   6.549   8.840  0.5365  0.3805  0.4416
 2420TIP3    H128895   1.873   6.598   8.785 -2.1168 -1.1106  1.9017
 2420TIP3    H228896   1.996   6.510   8.778 -2.4727 -1.4378 -1.6245
 2421TIP3   OH228897   6.205   6.648   8.286  0.2032  0.0780 -0.2437
 2421TIP3    H128898   6.123   6.609   8.257 -0.0068 -0.6916  1.3163
 2421TIP3    H228899   6.264   6.639   8.211 -0.2016 -2.1918 -0.3447
 2422TIP3   OH228900   2.321   0.116   1.799 -0.5093 -0.4340  0.2388
 2422TIP3    H128901   2.316   0.174   1.723  0.5137  1.2767  1.4019
 2422TIP3    H228902   2.382   0.160   1.858  1.6829 -3.4987  0.5400
 2423TIP3   OH228903   4.947   3.100   2.547 -0.2038  0.3289 -0.2355
 2423TIP3    H128904   5.029   3.071   2.507 -0.1118  0.3263 -0.0416
 2423TIP3    H228905   4.972   3.139   2.630 -0.5231 -0.9053  0.4649
 2424TIP3   OH228906   3.167   4.475   0.734 -0.2669  0.0132 -0.0958
 2424TIP3    H128907   3.139   4.519   0.654 -1.4923  0.7497  0.7207
 2424TIP3    H228908   3.118   4.517   0.804  0.1829 -1.1622  0.9671
 2425TIP3   OH228909   2.008   1.678   7.838 -0.2359 -0.3920 -0.1903
 2425TIP3    H128910   2.084   1.660   7.782 -0.7806  0.4897 -1.2290
 2425TIP3    H228911   2.035   1.646   7.925  1.3478 -0.0500 -0.5250
 2426TIP3   OH228912   6.509   0.475   2.776 -0.1365 -0.4642  0.3245
 2426TIP3    H128913   6.482   0.551   2.725  0.8295 -0.2607  0.0880
 2426TIP3    H228914   6.450   0.473   2.851  0.6393  1.3136  1.0517
 2427TIP3   OH228915   1.322   1.185   1.375  1.1039  0.2747  0.3227
 2427TIP3    H128916   1.341   1.244   1.302  1.8608 -1.6651 -1.1515
 2427TIP3    H228917   1.324   1.241   1.453 -0.2465  2.5247 -1.1496
 2428TIP3   OH228918   1.638   4.909   0.124  0.6133  0.7749 -0.5948
 2428TIP3    H128919   1.575   4.846   0.157 -0.0167  1.5725 -0.2308
 2428TIP3    H228920   1.686   4.862   0.056 -0.5216  0.2108 -1.0343
 2429TIP3   OH228921   3.478   3.548   1.673  0.5333 -0.1998  0.4958
 2429TIP3    H128922   3.396   3.596   1.663 -1.0657 -3.0774 -2.0579
 2429TIP3    H228923   3.536   3.585   1.607 -0.7026 -1.6071 -1.4954
 2430TIP3   OH228924   6.674   6.526   0.018 -0.0651 -0.5024  0.0556
 2430TIP3    H128925   6.654   6.615   0.047  0.0951 -0.1514 -0.8552
 2430TIP3    H228926   6.590   6.489  -0.007 -0.1426 -0.6408  0.5138
 2431TIP3   OH228927   6.508   0.900   2.806 -0.3840 -0.4843 -0.2743
 2431TIP3    H128928   6.452   0.978   2.807  0.9333  0.4847 -0.7993
 2431TIP3    H228929   6.591   0.929   2.843 -0.3474 -2.0418  0.9952
 2432TIP3   OH228930   1.452   4.599   7.737  0.1684 -0.4087 -0.3807
 2432TIP3    H128931   1.367   4.631   7.706 -0.5557  0.2110  2.0494
 2432TIP3    H228932   1.450   4.505   7.719  0.1591 -0.0166 -2.8237
 2433TIP3   OH228933   2.403   4.780   1.343 -0.2992 -0.1648 -0.3027
 2433TIP3    H128934   2.424   4.754   1.253 -0.9906  1.6992 -1.0313
 2433TIP3    H228935   2.431   4.871   1.350 -1.6909  0.2180  0.8778
 2434TIP3   OH228936   4.426   0.415   0.666 -0.4609  0.3004  0.4312
 2434TIP3    H128937   4.422   0.351   0.738 -1.2186  0.2429  0.3512
 2434TIP3    H228938   4.503   0.468   0.685  0.6094 -1.0813  0.1285
 2435TIP3   OH228939   2.729   4.902   7.026  0.2302 -0.3447  0.0500
 2435TIP3    H128940   2.707   4.920   7.117  1.6099  0.8182  0.2035
 2435TIP3    H228941   2.697   4.814   7.010 -0.7416 -0.2674  1.4172
 2436TIP3   OH228942   6.125   6.082   2.547 -0.2065 -0.9796 -0.4466
 2436TIP3    H128943   6.151   6.081   2.455 -1.2911 -0.6644 -0.7659
 2436TIP3    H228944   6.075   6.001   2.558 -1.7924 -0.0633 -0.6603
 2437TIP3   OH228945   1.949   3.561   8.024  0.4082 -0.2673 -0.1096
 2437TIP3    H128946   1.905   3.518   8.097 -0.3474 -0.1006 -0.4520
 2437TIP3    H228947   2.034   3.517   8.018  0.8053  0.2579  1.3618
 2438TIP3   OH228948   4.742   4.710   7.460  0.4941  0.3086  0.7536
 2438TIP3    H128949   4.767   4.618   7.448 -0.8614  0.0013 -0.0147
 2438TIP3    H228950   4.769   4.752   7.378 -0.5555  0.1743  0.3207
 2439TIP3   OH228951   0.798   5.515   1.916 -0.3815 -0.1472  0.0007
 2439TIP3    H128952   0.710   5.539   1.887  0.1106 -1.4599 -2.9628
 2439TIP3    H228953   0.794   5.520   2.011 -3.6684 -0.1592 -0.0140
 2440TIP3   OH228954   5.959   4.411   6.768 -0.0622 -0.3453  0.3787
 2440TIP3    H128955   5.898   4.361   6.823 -1.2508 -0.6449 -1.1495
 2440TIP3    H228956   5.997   4.346   6.709 -0.9036  0.3603 -0.9926
 2441TIP3   OH228957   3.177   4.063   7.872  0.7097 -0.3750  0.4785
 2441TIP3    H128958   3.098   4.010   7.859  0.0027  0.1896  2.2539
 2441TIP3    H228959   3.232   4.009   7.930  0.5905  0.2176  1.1544
 2442TIP3   OH228960   0.464   5.913   0.648  0.7142  0.2022  0.6044
 2442TIP3    H128961   0.503   5.852   0.585 -0.7871  1.4304 -1.6412
 2442TIP3    H228962   0.537   5.967   0.677  1.3857 -0.1359 -0.3907
 2443TIP3   OH228963   3.049   6.027   1.101  0.4687 -0.0170 -0.3566
 2443TIP3    H128964   3.143   6.036   1.114  0.2043 -0.2499  2.0099
 2443TIP3    H228965   3.010   6.057   1.183 -1.4759 -0.8583 -0.9282
 2444TIP3   OH228966   6.592   6.783   0.072 -0.1309  0.4419 -0.5711
 2444TIP3    H128967   6.542   6.786   0.154  2.1497  0.0364  0.9111
 2444TIP3    H228968   6.536   6.828   0.008 -1.3281  2.1628  1.5650
 2445TIP3   OH228969   0.343   4.657   1.484 -0.2522 -0.1337  0.3077
 2445TIP3    H128970   0.414   4.603   1.448 -0.7185 -0.4111 -0.2070
 2445TIP3    H228971   0.324   4.617   1.569 -1.4253 -1.5798 -0.5782
 2446TIP3   OH228972   6.087   0.102   1.306  0.6416 -0.0677 -0.0342
 2446TIP3    H128973   6.076   0.193   1.335 -0.8081  0.4347 -1.9610
 2446TIP3    H228974   6.109   0.054   1.386  1.4621  1.9579  1.0401
 2447TIP3   OH228975   2.048   4.820   1.183  0.2606  0.1891 -0.1547
 2447TIP3    H128976   1.969   4.835   1.235  0.2177  0.4713 -0.3035
 2447TIP3    H228977   2.098   4.900   1.191 -0.6866  1.0487 -2.2008
 2448TIP3   OH228978   2.208   3.191   2.121  0.5821 -0.1263  0.3441
 2448TIP3    H128979   2.208   3.279   2.083  1.9985  0.5880  1.8809
 2448TIP3    H228980   2.300   3.166   2.125  0.3640 -0.8163  1.8057
 2449TIP3   OH228981   0.171   4.867   0.252  0.2424 -0.2258 -0.4126
 2449TIP3    H128982   0.229   4.792   0.239  0.0865 -0.1453 -1.7284
 2449TIP3    H228983   0.083   4.830   0.255  0.1387 -0.0873 -1.3811
 2450TIP3   OH228984   0.277   4.035   1.695 -0.7287 -0.1738 -0.0900
 2450TIP3    H128985   0.292   3.988   1.613  1.4117 -1.4376  0.9452
 2450TIP3    H228986   0.329   4.115   1.686  0.6173 -0.9402  0.4876
 2451TIP3   OH228987   3.051   5.680   1.055 -0.4092 -0.1472  0.0921
 2451TIP3    H128988   3.002   5.732   0.991 -0.9077  1.5574  1.7556
 2451TIP3    H228989   3.071   5.741   1.126  3.6266 -0.9111 -0.1408
 2452TIP3   OH228990   6.761   5.405   8.326  0.2945 -0.1578 -0.1154
 2452TIP3    H128991   6.763   5.449   8.410 -1.1743 -0.1938 -0.0318
 2452TIP3    H228992   6.717   5.322   8.344  2.8318 -1.6500 -0.3022
 2453TIP3   OH228993   6.339   0.384   1.308 -0.3023  0.1141 -0.3563
 2453TIP3    H128994   6.362   0.296   1.280  0.6209  0.8581 -2.1230
 2453TIP3    H228995   6.245   0.392   1.287 -0.5304 -0.6256  0.3623
 2454TIP3   OH228996   3.540   1.563   0.668  0.4090 -0.4441 -0.1076
 2454TIP3    H128997   3.610   1.516   0.623 -0.9817 -1.5597 -1.2588
 2454TIP3    H228998   3.497   1.496   0.721  0.2947  0.2473  0.6871
 2455TIP3   OH228999   6.286   3.829   2.917 -0.6789 -0.0390 -0.5722
 2455TIP3    H129000   6.284   3.741   2.880 -0.2199 -0.6035  0.7009
 2455TIP3    H229001   6.379   3.850   2.926 -0.7806  0.7413 -1.2273
 2456TIP3   OH229002   6.625   0.814   6.570 -0.4467 -0.1045 -0.6588
 2456TIP3    H129003   6.694   0.781   6.627  0.9537  1.8952 -1.0905
 2456TIP3    H229004   6.590   0.736   6.527  0.9110 -1.2668  0.2636
 2457TIP3   OH229005   3.595   6.515   8.289 -0.5035  0.3934 -0.8515
 2457TIP3    H129006   3.645   6.574   8.346  1.3630  0.6566 -2.6751
 2457TIP3    H229007   3.588   6.434   8.339 -0.6280  1.2233  0.5313
 2458TIP3   OH229008   3.493   4.775   2.783  0.2787 -0.5003  0.3839
 2458TIP3    H129009   3.433   4.847   2.802  0.3385  0.1680 -1.7087
 2458TIP3    H229010   3.440   4.696   2.795 -0.8880  0.0607 -0.8688
 2459TIP3   OH229011   0.173   2.595   0.425 -0.1110  0.1302 -0.1954
 2459TIP3    H129012   0.201   2.611   0.515  0.7110 -0.3476 -0.3600
 2459TIP3    H229013   0.130   2.677   0.399  0.9321  0.8082  0.1432
 2460TIP3   OH229014   5.010   4.364   2.305  0.5664 -0.1221  0.3143
 2460TIP3    H129015   4.919   4.337   2.320 -0.6611  3.2558 -0.3320
 2460TIP3    H229016   5.025   4.344   2.213 -0.3576  1.3562 -0.1882
 2461TIP3   OH229017   5.545   4.590   1.625 -0.7299 -0.1495  0.2874
 2461TIP3    H129018   5.610   4.608   1.557  0.5077 -0.5051  1.3417
 2461TIP3    H229019   5.559   4.498   1.648 -1.7916 -0.3084  0.3493
 2462TIP3   OH229020   5.242   5.087   2.068 -0.2811  0.1844  0.0460
 2462TIP3    H129021   5.285   5.171   2.088 -0.4718  1.1144 -2.9811
 2462TIP3    H229022   5.299   5.045   2.004 -2.1396 -0.0810 -1.5484
 2463TIP3   OH229023   6.804   3.049   1.625  0.2743  0.0291  0.0301
 2463TIP3    H129024   6.741   3.073   1.693  0.9948 -1.6375  1.3811
 2463TIP3    H229025   6.751   3.040   1.545 -1.3572 -1.8307  1.2214
 2464TIP3   OH229026   0.764   1.032   2.002 -0.1584 -0.0487 -0.2832
 2464TIP3    H129027   0.786   1.084   2.080 -0.1461 -1.2724  0.5605
 2464TIP3    H229028   0.753   1.097   1.932  0.2890  1.0451  0.6259
 2465TIP3   OH229029   5.681   2.732   1.512  0.1514 -0.3220 -0.3645
 2465TIP3    H129030   5.771   2.742   1.481  0.1121 -0.4492 -0.5191
 2465TIP3    H229031   5.686   2.662   1.577  0.4241  0.6443  0.7080
 2466TIP3   OH229032   2.905   4.734   1.285  0.3688  0.2024 -0.0776
 2466TIP3    H129033   2.973   4.738   1.218  0.2637 -0.3561 -0.2252
 2466TIP3    H229034   2.936   4.667   1.347  0.1628  0.2588  0.0887
 2467TIP3   OH229035   5.682   2.130   2.622 -0.0420  0.0173  0.0407
 2467TIP3    H129036   5.627   2.188   2.571  1.2611  0.9866 -0.2943
 2467TIP3    H229037   5.744   2.187   2.667 -1.1364 -0.7713  2.7726
 2468TIP3   OH229038   6.372   0.861   7.534 -0.4253  0.6515  0.0986
 2468TIP3    H129039   6.457   0.816   7.526 -1.2432 -0.8397 -0.6421
 2468TIP3    H229040   6.378   0.933   7.472  0.1250  0.2418 -0.3430
 2469TIP3   OH229041   2.237   4.105   2.477 -0.4623 -0.2847  0.5887
 2469TIP3    H129042   2.154   4.131   2.518  0.4389  2.2909  0.9724
 2469TIP3    H229043   2.290   4.072   2.549 -0.8850 -1.2929  0.4549
 2470TIP3   OH229044   4.728   6.296   8.851 -0.1938 -0.0049 -0.3776
 2470TIP3    H129045   4.817   6.322   8.828  0.3788 -1.4248  0.1016
 2470TIP3    H229046   4.702   6.236   8.781 -0.2830 -0.5844  0.1454
 2471TIP3   OH229047   4.005   1.859   0.542 -0.1876  0.1714  0.4289
 2471TIP3    H129048   3.964   1.814   0.468 -0.1570 -0.4770  0.7909
 2471TIP3    H229049   4.077   1.909   0.504  0.6373 -1.1588  0.1514
 2472TIP3   OH229050   6.421   2.662   0.971  0.9088 -0.1170 -0.0710
 2472TIP3    H129051   6.395   2.678   1.061  0.4036  0.4118 -0.3069
 2472TIP3    H229052   6.508   2.622   0.978 -0.0726 -2.2845  0.7620
 2473TIP3   OH229053   4.721   2.179   8.168 -0.2747  0.5495 -0.4479
 2473TIP3    H129054   4.771   2.111   8.122 -0.2178  0.0167  0.3822
 2473TIP3    H229055   4.629   2.153   8.156 -0.2180 -0.7139  1.3491
 2474TIP3   OH229056   6.191   2.761   0.821 -0.5867  0.1647  0.1154
 2474TIP3    H129057   6.276   2.747   0.861 -0.2285 -1.9171 -1.2339
 2474TIP3    H229058   6.130   2.772   0.894  0.2574 -2.0610  1.2126
 2475TIP3   OH229059   0.290   2.790   7.473  0.4958  0.2444  0.3315
 2475TIP3    H129060   0.367   2.785   7.530  0.8577 -0.3950 -0.1948
 2475TIP3    H229061   0.325   2.814   7.387  0.1171 -0.1318  0.0696
 2476TIP3   OH229062   5.399   1.507   7.472  0.3598 -0.1964  0.1921
 2476TIP3    H129063   5.354   1.490   7.389  0.1752  2.6062 -0.3738
 2476TIP3    H229064   5.329   1.535   7.531  0.6678 -1.0056  0.9563
 2477TIP3   OH229065   1.612   5.164   0.045 -0.0086 -0.3273 -0.0754
 2477TIP3    H129066   1.607   5.086   0.101  0.5690 -0.2547  0.0807
 2477TIP3    H229067   1.609   5.238   0.106 -1.3710 -0.1969 -0.2719
 2478TIP3   OH229068   3.658   0.916   0.553  0.4499  0.2939  0.4706
 2478TIP3    H129069   3.658   0.831   0.597 -0.2618  0.9403  1.7415
 2478TIP3    H229070   3.665   0.980   0.623  1.9203  1.2969 -0.5213
 2479TIP3   OH229071   2.337   1.932   2.330  0.0317  0.0911  0.0966
 2479TIP3    H129072   2.297   1.859   2.377 -2.0352  1.1003  0.0079
 2479TIP3    H229073   2.312   2.009   2.381  1.0307  0.8654 -0.5610
 2480TIP3   OH229074   6.514   0.846   8.316 -0.2100 -0.5057  0.6790
 2480TIP3    H129075   6.463   0.875   8.241 -0.8629 -0.2103  1.2214
 2480TIP3    H229076   6.596   0.896   8.311 -0.6420  0.2105  0.6831
 2481TIP3   OH229077   1.019   6.026   0.205 -0.4033  0.4813 -0.2988
 2481TIP3    H129078   0.946   6.084   0.224  0.0895  1.4253 -1.1837
 2481TIP3    H229079   0.999   5.946   0.252 -2.2609  0.5257 -0.9446
 2482TIP3   OH229080   4.831   6.608   7.878  0.5480  0.3727 -0.1477
 2482TIP3    H129081   4.920   6.620   7.912 -0.2959  0.3972  2.2237
 2482TIP3    H229082   4.777   6.598   7.955 -1.6012  0.7182 -1.5198
 2483TIP3   OH229083   0.286   2.386   8.404  0.0680 -0.0862 -0.6404
 2483TIP3    H129084   0.194   2.412   8.403 -0.5711 -2.1221 -0.3552
 2483TIP3    H229085   0.327   2.438   8.335 -1.2463  0.9687 -0.6675
 2484TIP3   OH229086   2.434   2.470   2.011 -0.4622  0.3690 -0.0344
 2484TIP3    H129087   2.459   2.561   2.000  0.9113 -0.1502 -1.5999
 2484TIP3    H229088   2.425   2.458   2.105  2.0598  1.4421  0.3960
 2485TIP3   OH229089   4.744   2.035   2.019  0.1318 -0.0455  0.2348
 2485TIP3    H129090   4.786   2.101   2.074  1.0714 -1.3474  1.1344
 2485TIP3    H229091   4.790   1.954   2.040  0.1249 -0.7131 -2.0480
 2486TIP3   OH229092   3.626   3.802   2.189 -0.2122  0.2948  0.1718
 2486TIP3    H129093   3.707   3.853   2.194 -0.6536  1.0449 -0.1045
 2486TIP3    H229094   3.652   3.719   2.150  0.8000 -0.2927  1.9625
 2487TIP3   OH229095   0.003   3.143   2.038 -0.3087  0.2283  0.0852
 2487TIP3    H129096   0.064   3.214   2.061 -1.4896  1.0442  0.7840
 2487TIP3    H229097  -0.024   3.164   1.948  0.5223 -0.2157 -0.2817
 2488TIP3   OH229098   4.301   4.706   0.266  0.2517 -0.4667 -0.1588
 2488TIP3    H129099   4.217   4.725   0.224  0.0254 -1.7972 -0.3413
 2488TIP3    H229100   4.360   4.688   0.193  1.3348  2.6068 -0.1801
 2489TIP3   OH229101   6.095   5.218   0.554 -0.1825  0.5507  0.3968
 2489TIP3    H129102   6.186   5.202   0.579 -0.0184 -0.0076 -0.5359
 2489TIP3    H229103   6.045   5.152   0.602 -0.0577  0.6059  0.6038
 2490TIP3   OH229104   3.855   3.977   3.241 -0.0168 -0.1413 -0.1019
 2490TIP3    H129105   3.833   3.927   3.161  1.9336 -2.4777  0.6961
 2490TIP3    H229106   3.924   4.036   3.214  1.8087 -2.0733  0.0828
 2491TIP3   OH229107   1.884   5.127   7.036  0.2427 -0.1927  0.4715
 2491TIP3    H129108   1.858   5.200   6.980  0.7599 -0.7124 -0.4736
 2491TIP3    H229109   1.978   5.136   7.046  0.6257 -1.7270 -1.1958
 2492TIP3   OH229110   6.571   6.435   0.359  0.5393 -0.0927 -0.2304
 2492TIP3    H129111   6.544   6.417   0.449 -1.0436  2.6499 -0.0566
 2492TIP3    H229112   6.618   6.356   0.332 -2.0622 -2.5188  1.7402
 2493TIP3   OH229113   4.172   5.467   7.361  0.3515 -0.1204 -0.3345
 2493TIP3    H129114   4.264   5.441   7.363  1.0805  2.1667 -1.3770
 2493TIP3    H229115   4.155   5.504   7.447  0.8399  0.7631 -0.6113
 2494TIP3   OH229116   1.435   1.521   0.827 -0.2042 -0.5711  0.0607
 2494TIP3    H129117   1.372   1.561   0.887 -0.9132  1.4591 -1.8833
 2494TIP3    H229118   1.383   1.457   0.778 -0.6016  0.4515 -0.9082
 2495TIP3   OH229119   1.368   3.329   0.126 -0.0222  0.3863  0.4970
 2495TIP3    H129120   1.344   3.383   0.051  1.9273  0.6583  0.0183
 2495TIP3    H229121   1.463   3.337   0.133 -0.0347 -0.4053  2.4184
 2496TIP3   OH229122   0.469   5.490   6.605  0.2115  0.4257  0.1961
 2496TIP3    H129123   0.536   5.544   6.562  0.6228  1.7324  2.3569
 2496TIP3    H229124   0.482   5.403   6.567  1.0942  1.2928 -1.6540
 2497TIP3   OH229125   4.283   5.318   0.794 -0.6036  0.6462 -0.0376
 2497TIP3    H129126   4.314   5.266   0.720  0.4535  0.8769  0.2341
 2497TIP3    H229127   4.316   5.406   0.777 -0.1869  0.6593  0.8068
 2498TIP3   OH229128   2.644   2.735   1.847 -0.2134 -0.0836  0.3228
 2498TIP3    H129129   2.560   2.737   1.893 -0.1874 -1.2148  0.4410
 2498TIP3    H229130   2.625   2.692   1.764  0.0635  0.5258 -0.0662
 2499TIP3   OH229131   6.708   0.879   0.219 -0.0170  0.1447  0.0040
 2499TIP3    H129132   6.698   0.811   0.286  0.4483  0.5981  0.5468
 2499TIP3    H229133   6.626   0.929   0.223 -0.2880 -0.2737 -0.2754
 2500TIP3   OH229134   0.291   3.719   1.895 -0.7445  0.0053  0.4444
 2500TIP3    H129135   0.370   3.668   1.913 -1.0264 -0.3024  0.8393
 2500TIP3    H229136   0.278   3.711   1.801 -0.1536  0.2901  0.3294
 2501TIP3   OH229137   4.351   0.147   6.997 -0.5661  0.2862  0.6511
 2501TIP3    H129138   4.409   0.110   7.064  1.0855  0.3339 -0.6799
 2501TIP3    H229139   4.398   0.223   6.964 -1.1322  0.0287 -0.8356
 2502TIP3   OH229140   2.635   5.837   2.394 -0.9093 -0.4325 -0.0435
 2502TIP3    H129141   2.583   5.765   2.429  0.3780 -1.2480  0.2976
 2502TIP3    H229142   2.722   5.824   2.432 -0.4993  0.9964 -0.4151
 2503TIP3   OH229143   1.490   4.236   0.970  0.3950 -0.4051  0.1471
 2503TIP3    H129144   1.479   4.153   0.925  1.8610 -1.5617  1.7527
 2503TIP3    H229145   1.429   4.232   1.043  0.7037 -0.2384  0.4209
 2504TIP3   OH229146   1.606   2.154   0.136 -0.0740 -0.4037 -0.0714
 2504TIP3    H129147   1.582   2.063   0.117 -0.3812 -0.3993  0.2692
 2504TIP3    H229148   1.531   2.205   0.104 -0.8386 -0.4343  1.5357
 2505TIP3   OH229149   2.700   4.423   2.825 -0.0600  0.2913 -0.0532
 2505TIP3    H129150   2.772   4.484   2.840  1.2252 -1.3346  0.7604
 2505TIP3    H229151   2.726   4.374   2.746 -0.5342  0.0499 -0.0625
 2506TIP3   OH229152   4.684   3.589   8.296 -0.0861  0.2058  0.0679
 2506TIP3    H129153   4.592   3.584   8.270 -0.4623  0.3190  1.3212
 2506TIP3    H229154   4.711   3.498   8.308  0.0266  0.1635 -0.5007
 2507TIP3   OH229155   4.194   1.431   8.559 -0.5542  0.4473 -0.4243
 2507TIP3    H129156   4.241   1.513   8.577 -0.1299  0.0216  0.4652
 2507TIP3    H229157   4.242   1.392   8.486  1.1678 -0.4761  1.1122
 2508TIP3   OH229158   4.670   3.712   2.109  0.2098  0.3636  0.6130
 2508TIP3    H129159   4.623   3.740   2.188 -0.4920  0.5837  0.1280
 2508TIP3    H229160   4.756   3.686   2.140 -0.5437 -0.9810  1.6776
 2509TIP3   OH229161   0.992   6.249   1.551 -0.2466 -0.3155 -0.4060
 2509TIP3    H129162   0.996   6.227   1.457  1.9383 -0.8378 -0.2579
 2509TIP3    H229163   1.066   6.309   1.564 -1.3160  0.8021  0.7686
 2510TIP3   OH229164   2.831   1.633   1.310  0.0190 -0.6801  0.0662
 2510TIP3    H129165   2.899   1.651   1.245  1.2613 -2.6738  0.7163
 2510TIP3    H229166   2.830   1.710   1.366  1.9986 -0.7217  0.2270
 2511TIP3   OH229167   4.032   0.459   6.874  0.4035 -0.0842  0.0994
 2511TIP3    H129168   4.058   0.541   6.831 -1.4731  0.4979 -0.0057
 2511TIP3    H229169   4.036   0.393   6.804  0.3422  0.2436 -0.2162
 2512TIP3   OH229170   0.303   6.778   6.701 -0.0351  0.4356 -0.0902
 2512TIP3    H129171   0.253   6.748   6.777  0.1421 -0.1690 -0.2068
 2512TIP3    H229172   0.242   6.773   6.628 -1.3300  4.2562  0.4826
 2513TIP3   OH229173   6.624   1.728   0.613 -0.2760  0.2868  0.1879
 2513TIP3    H129174   6.586   1.813   0.589 -0.4380  0.9325  2.4442
 2513TIP3    H229175   6.611   1.722   0.708  1.5046 -1.3923  0.3954
 2514TIP3   OH229176   3.459   5.380   7.706 -0.0997 -0.4976  0.5573
 2514TIP3    H129177   3.441   5.383   7.800 -0.8063 -0.8443  0.4355
 2514TIP3    H229178   3.483   5.288   7.689  1.5505 -0.1282  0.6601
 2515TIP3   OH229179   5.605   5.688   8.223  0.3565 -0.0182  0.7355
 2515TIP3    H129180   5.635   5.672   8.134 -0.2057 -1.6332  0.8082
 2515TIP3    H229181   5.675   5.656   8.279  0.9557  1.5066  0.9070
 2516TIP3   OH229182   3.002   5.902   0.211 -0.4415  0.8084  0.1349
 2516TIP3    H129183   3.000   5.825   0.267  1.0290  0.9647  0.4397
 2516TIP3    H229184   2.911   5.931   0.207 -0.9937 -0.7838  0.2112
 2517TIP3   OH229185   5.373   2.469   8.370  0.3522  0.0865  0.6221
 2517TIP3    H129186   5.391   2.375   8.371  0.0959  0.0024 -0.5416
 2517TIP3    H229187   5.358   2.489   8.277 -0.4243  1.1170  0.9516
 2518TIP3   OH229188   2.258   2.220   8.256  0.2037  0.1665 -0.6269
 2518TIP3    H129189   2.353   2.232   8.247 -0.0538  1.8302 -1.5972
 2518TIP3    H229190   2.240   2.241   8.348  0.9162 -1.5164 -0.0671
 2519TIP3   OH229191   3.733   0.592   7.175  0.0089  0.0343 -0.2824
 2519TIP3    H129192   3.759   0.522   7.116 -0.8076  0.0445 -0.6658
 2519TIP3    H229193   3.804   0.656   7.171 -0.3027  0.3139 -1.7075
 2520TIP3   OH229194   3.012   1.152   1.239  0.4744 -0.5685  0.2654
 2520TIP3    H129195   2.960   1.153   1.158  0.4525 -2.6856  0.2052
 2520TIP3    H229196   3.068   1.229   1.231 -0.8351  0.3414 -0.8660
 2521TIP3   OH229197   3.456   5.747   1.909  0.2386 -0.0691 -0.0489
 2521TIP3    H129198   3.437   5.826   1.859 -0.7496 -1.1970 -1.5176
 2521TIP3    H229199   3.374   5.697   1.907  1.0233 -1.4122  0.3202
 2522TIP3   OH229200   3.815   1.551   8.837 -0.4214 -0.1316  0.0251
 2522TIP3    H129201   3.903   1.534   8.870  0.2298  0.2624 -1.4083
 2522TIP3    H229202   3.758   1.537   8.912  0.7345 -1.6095  0.6928
 2523TIP3   OH229203   0.915   5.160   1.484 -0.5364  0.2246 -0.0160
 2523TIP3    H129204   0.969   5.230   1.448 -2.2401  1.3893 -0.4379
 2523TIP3    H229205   0.897   5.103   1.409  1.4454 -1.1633  0.4679
 2524TIP3   OH229206   1.496   5.904   8.635 -0.4771 -0.0488  0.1424
 2524TIP3    H129207   1.563   5.879   8.698 -0.5270  0.5585  0.4407
 2524TIP3    H229208   1.532   5.982   8.592 -0.1815 -0.7811 -0.9938
 2525TIP3   OH229209   6.279   5.558   1.712 -0.4300  0.1934  0.2451
 2525TIP3    H129210   6.374   5.545   1.704 -0.8264 -2.9171 -0.8960
 2525TIP3    H229211   6.270   5.632   1.772  2.7000  0.8457  0.0937
 2526TIP3   OH229212   1.718   4.765   8.798  0.4973  0.5425  0.1510
 2526TIP3    H129213   1.647   4.718   8.755  1.0289 -0.5780  0.4506
 2526TIP3    H229214   1.796   4.741   8.749  0.8549  0.6773  0.6476
 2527TIP3   OH229215   4.606   4.940   8.062 -0.6673  0.0078  0.0710
 2527TIP3    H129216   4.555   4.860   8.050 -0.4199  0.1867 -2.7480
 2527TIP3    H229217   4.573   4.977   8.144 -0.8492 -2.8690  1.4560
 2528TIP3   OH229218   2.201   2.551   1.459 -0.0903 -0.0841  0.3464
 2528TIP3    H129219   2.229   2.463   1.485 -0.8494 -0.6005 -0.5158
 2528TIP3    H229220   2.106   2.549   1.465 -0.1774  0.3390 -0.6603
 2529TIP3   OH229221   0.204   6.371   0.741 -0.7243 -0.0995 -0.3195
 2529TIP3    H129222   0.284   6.416   0.714  0.1591 -1.3075  0.2182
 2529TIP3    H229223   0.211   6.364   0.837 -2.6748  1.9763  0.1001
 2530TIP3   OH229224   1.125   2.427   1.005  0.5226 -0.1522  0.1489
 2530TIP3    H129225   1.125   2.360   0.937  2.9227  0.5307 -0.6048
 2530TIP3    H229226   1.146   2.508   0.959 -0.6486  0.8564  1.3073
 2531TIP3   OH229227   6.192   3.728   0.570 -0.0480  0.0483  0.1263
 2531TIP3    H129228   6.157   3.679   0.644 -2.0881  0.2495 -0.6391
 2531TIP3    H229229   6.220   3.811   0.607 -1.7439  0.4466  0.5961
 2532TIP3   OH229230   2.578   5.447   2.464 -0.0810 -0.6491  0.0918
 2532TIP3    H129231   2.655   5.472   2.412 -0.0472 -0.5138  0.2065
 2532TIP3    H229232   2.615   5.409   2.544 -0.1052 -2.6185 -0.7821
 2533TIP3   OH229233   1.906   2.574   1.190  0.1125  0.1531  0.3952
 2533TIP3    H129234   1.923   2.643   1.253  1.5490 -0.7724  1.0582
 2533TIP3    H229235   1.915   2.616   1.104  0.3562  0.9060  0.7866
 2534TIP3   OH229236   3.633   2.473   7.053  0.4500  0.6911  0.3334
 2534TIP3    H129237   3.668   2.480   6.964 -1.1362  1.2272 -0.2816
 2534TIP3    H229238   3.556   2.530   7.053 -0.4540 -0.4615  1.5995
 2535TIP3   OH229239   5.526   5.063   7.477  0.2074 -0.2857  0.6793
 2535TIP3    H129240   5.615   5.029   7.469  1.0515  1.8418  0.4902
 2535TIP3    H229241   5.526   5.112   7.559  0.3420  2.7004 -0.9562
 2536TIP3   OH229242   2.437   0.937   2.289  0.0852 -0.2566  0.1123
 2536TIP3    H129243   2.450   1.019   2.335  0.3734 -0.1117 -0.2223
 2536TIP3    H229244   2.343   0.920   2.296 -0.2551  0.9169 -1.1737
 2537TIP3   OH229245   6.168   0.434   7.741  0.4386 -0.0828 -0.1106
 2537TIP3    H129246   6.254   0.472   7.720  1.1708 -1.4414  0.2922
 2537TIP3    H229247   6.114   0.452   7.664  1.0988  0.7616 -0.3917
 2538TIP3   OH229248   1.767   2.746   8.810  0.0163 -0.6036  0.4984
 2538TIP3    H129249   1.687   2.755   8.861  0.4013  0.6869  0.9118
 2538TIP3    H229250   1.779   2.651   8.800 -0.4786 -0.8615  2.1604
 2539TIP3   OH229251   5.978   1.696   8.697  0.0484  0.3958  0.4879
 2539TIP3    H129252   5.990   1.773   8.752  1.2867  0.5814 -0.0065
 2539TIP3    H229253   5.897   1.657   8.728  0.4564  0.7630  2.1224
 2540TIP3   OH229254   3.615   4.925   1.064 -0.0320  0.1110 -0.0081
 2540TIP3    H129255   3.691   4.982   1.059 -1.4356  2.0844  0.1987
 2540TIP3    H229256   3.544   4.981   1.093 -1.3135 -1.9552  1.1253
 2541TIP3   OH229257   1.078   5.405   1.708 -0.3212  0.0736  0.1782
 2541TIP3    H129258   1.128   5.466   1.762 -0.6701  1.5999 -1.1496
 2541TIP3    H229259   1.035   5.460   1.643 -1.6903 -1.4710 -0.2915
 2542TIP3   OH229260   0.105   6.479   1.671 -0.0030 -0.2784  0.0143
 2542TIP3    H129261   0.161   6.467   1.594 -0.3027 -1.4772 -0.0250
 2542TIP3    H229262   0.161   6.455   1.745  0.3197  0.9757  0.2058
 2543TIP3   OH229263   5.099   2.519   8.289 -0.0135 -0.3088  0.1889
 2543TIP3    H129264   5.156   2.511   8.212  2.2190  0.4911  1.6520
 2543TIP3    H229265   5.048   2.438   8.290  1.4923 -1.3168 -0.9265
 2544TIP3   OH229266   0.880   1.205   7.536  0.0205 -0.2196 -0.3561
 2544TIP3    H129267   0.851   1.284   7.581  1.8292 -0.0821  0.6371
 2544TIP3    H229268   0.819   1.197   7.462 -1.0104  1.3495  0.2585
 2545TIP3   OH229269   1.887   5.443   0.524  0.3305 -0.3021  0.2435
 2545TIP3    H129270   1.875   5.350   0.508  0.9434  0.0720 -3.1550
 2545TIP3    H229271   1.806   5.472   0.565  0.3301 -2.3494  1.8447
 2546TIP3   OH229272   2.556   6.441   2.905  0.3630 -0.9522 -0.4547
 2546TIP3    H129273   2.538   6.411   2.816 -2.4008 -0.5375 -0.1153
 2546TIP3    H229274   2.637   6.491   2.898 -0.8755  0.8321 -3.1693
 2547TIP3   OH229275   0.159   6.608   8.090  0.0823 -0.1042 -0.3020
 2547TIP3    H129276   0.117   6.622   8.005  0.5108  0.4656 -0.4299
 2547TIP3    H229277   0.153   6.693   8.134  0.4221 -0.2245 -0.0151
 2548TIP3   OH229278   3.475   2.022   2.959 -0.2059 -0.2975 -0.7324
 2548TIP3    H129279   3.452   2.097   2.904 -1.3107  2.3191  2.9101
 2548TIP3    H229280   3.395   1.970   2.962 -0.7637  0.5552 -0.2146
 2549TIP3   OH229281   2.182   5.079   1.102  0.4806 -0.2416  0.0987
 2549TIP3    H129282   2.180   5.117   1.190  0.2782 -1.3510  0.6020
 2549TIP3    H229283   2.136   5.141   1.047 -0.3467 -0.0339  1.0006
 2550TIP3   OH229284   4.453   5.187   0.518  0.4857  1.2567  0.3387
 2550TIP3    H129285   4.517   5.140   0.571 -0.5264  0.8824  1.2655
 2550TIP3    H229286   4.489   5.184   0.429  1.4638  0.5659  0.7394
 2551TIP3   OH229287   6.741   3.612   1.595 -0.1450 -0.3666 -0.1667
 2551TIP3    H129288   6.744   3.519   1.575 -1.6501 -0.0614 -2.1670
 2551TIP3    H229289   6.763   3.618   1.688  1.5774 -2.5242 -0.3654
 2552TIP3   OH229290   0.381   5.233   7.799  0.2092 -0.3657 -0.4517
 2552TIP3    H129291   0.289   5.208   7.800  0.4819 -1.4419 -0.8925
 2552TIP3    H229292   0.402   5.244   7.706  0.0928  1.6345 -0.2899
 2553TIP3   OH229293   3.487   6.554   1.819  0.7014  0.3811  0.2553
 2553TIP3    H129294   3.480   6.648   1.830  2.6800  0.6962 -0.8959
 2553TIP3    H229295   3.420   6.518   1.878  0.5005  2.4491  1.3564
 2554TIP3   OH229296   2.012   2.079   0.690  0.0532 -0.1942 -0.2126
 2554TIP3    H129297   2.024   2.132   0.611 -1.4240 -1.9245 -1.6914
 2554TIP3    H229298   1.945   2.124   0.740  1.2427  1.1018  0.2935
 2555TIP3   OH229299   1.045   0.560   1.176 -0.6519 -0.2980  0.5706
 2555TIP3    H129300   1.081   0.640   1.214 -0.5099 -0.8728  1.6914
 2555TIP3    H229301   1.090   0.551   1.092 -0.2374  0.4783  0.7008
 2556TIP3   OH229302   0.610   1.674   1.715 -0.1257  0.2454 -0.1929
 2556TIP3    H129303   0.641   1.764   1.707 -0.4300  0.3701  0.0298
 2556TIP3    H229304   0.549   1.664   1.642  2.1508 -0.7346 -2.1034
 2557TIP3   OH229305   1.463   6.784   1.043  0.1397 -0.2298 -0.1230
 2557TIP3    H129306   1.427   6.743   0.965 -2.0475 -0.1875  0.7890
 2557TIP3    H229307   1.424   6.872   1.045  0.5064 -0.0704  0.7658
 2558TIP3   OH229308   4.899   5.847   7.719 -0.8117  0.1689 -0.1570
 2558TIP3    H129309   4.815   5.829   7.762 -0.9150  2.1337  0.6177
 2558TIP3    H229310   4.909   5.942   7.726  1.9505 -0.0806  0.6976
 2559TIP3   OH229311   3.614   3.096   8.025 -1.2519  0.1562 -0.3043
 2559TIP3    H129312   3.636   3.098   8.118  1.0316  1.3109 -0.8001
 2559TIP3    H229313   3.633   3.006   7.998  0.0507  0.3330 -0.0414
 2560TIP3   OH229314   6.495   4.322   8.008  0.5937  0.3940  0.1744
 2560TIP3    H129315   6.512   4.318   7.914 -2.1405 -0.3242 -0.3930
 2560TIP3    H229316   6.552   4.255   8.046  1.3027  0.2854 -1.0312
 2561TIP3   OH229317   2.667   2.021   8.667 -0.0572 -0.1532  0.3842
 2561TIP3    H129318   2.754   2.012   8.628 -0.3008  0.4254 -0.3197
 2561TIP3    H229319   2.675   1.982   8.754  1.3733  1.4388  1.0097
 2562TIP3   OH229320   5.686   4.666   7.382  0.2867 -0.0163  0.5056
 2562TIP3    H129321   5.722   4.747   7.418  1.0847 -0.1981  0.1295
 2562TIP3    H229322   5.594   4.667   7.408  0.6302  0.2860  1.8022
 2563TIP3   OH229323   5.133   4.811   7.465  0.2979  0.3875 -0.3779
 2563TIP3    H129324   5.088   4.869   7.527 -2.3241  0.1363 -1.9032
 2563TIP3    H229325   5.085   4.729   7.470 -0.4740  0.5744 -3.1789
 2564TIP3   OH229326   3.227   5.324   1.883  0.3099 -0.6450 -0.0753
 2564TIP3    H129327   3.167   5.381   1.930 -0.7456  1.6934 -3.8054
 2564TIP3    H229328   3.307   5.375   1.874 -0.4494  0.2237 -2.9596
 2565TIP3   OH229329   3.291   5.968   1.810 -0.3484 -0.1032  0.6454
 2565TIP3    H129330   3.227   5.957   1.739 -0.7980  0.8836  0.8889
 2565TIP3    H229331   3.357   6.027   1.774 -0.1432 -0.2480  0.7793
 2566TIP3   OH229332   4.256   0.529   0.971 -0.2494 -0.1388  0.0485
 2566TIP3    H129333   4.263   0.617   1.009 -4.3391 -0.6455  2.6852
 2566TIP3    H229334   4.284   0.470   1.041 -2.3388 -0.9651  0.2583
 2567TIP3   OH229335   5.250   2.324   0.363 -0.1245 -0.3004 -0.1492
 2567TIP3    H129336   5.237   2.231   0.349 -1.4874 -0.1265 -0.1036
 2567TIP3    H229337   5.286   2.356   0.280 -1.2565 -0.5760 -0.7628
 2568TIP3   OH229338   4.469   6.090   8.457 -0.6080 -0.2333  0.1339
 2568TIP3    H129339   4.406   6.020   8.439 -1.3502  0.5576 -0.4822
 2568TIP3    H229340   4.420   6.171   8.439  0.9205  0.3892 -1.5015
 2569TIP3   OH229341   1.806   4.731   1.466  0.7564  0.2546 -0.5371
 2569TIP3    H129342   1.883   4.732   1.522  1.6350 -0.4681 -1.6904
 2569TIP3    H229343   1.828   4.791   1.394 -0.2205  0.9183 -0.3024
 2570TIP3   OH229344   2.773   5.508   8.588  0.0868 -0.5743  0.4534
 2570TIP3    H129345   2.738   5.594   8.567  1.0317  0.5008  2.8452
 2570TIP3    H229346   2.755   5.455   8.511 -1.3306  1.5059 -0.7491
 2571TIP3   OH229347   5.742   3.620   0.726  0.2183 -0.3627 -0.2123
 2571TIP3    H129348   5.799   3.694   0.704 -0.3940  0.2735  0.2960
 2571TIP3    H229349   5.799   3.558   0.771  0.5052  0.2931  0.3423
 2572TIP3   OH229350   0.340   3.633   7.465  0.3485 -0.4035 -0.2920
 2572TIP3    H129351   0.365   3.576   7.392 -1.6912 -0.2070 -1.2251
 2572TIP3    H229352   0.336   3.720   7.427  0.3299 -0.1249  0.3356
 2573TIP3   OH229353   1.486   1.490   8.186 -0.7950  0.2525  0.2509
 2573TIP3    H129354   1.533   1.532   8.115 -0.3330 -0.8694 -0.1306
 2573TIP3    H229355   1.460   1.405   8.151 -2.0740  0.3772  0.8541
 2574TIP3   OH229356   1.949   5.190   8.705 -0.6522  0.7213 -0.2725
 2574TIP3    H129357   2.019   5.167   8.645 -0.2996  1.2817 -0.0811
 2574TIP3    H229358   1.946   5.116   8.767 -0.5440  0.4793 -0.5551
 2575TIP3   OH229359   0.693   2.367   1.745 -0.0587 -0.3294  0.5402
 2575TIP3    H129360   0.751   2.333   1.814  0.8184 -0.1669 -0.1005
 2575TIP3    H229361   0.753   2.398   1.677 -0.8862  0.9705  0.3840
 2576TIP3   OH229362   0.184   2.949   1.868 -0.0742  0.9937 -0.6356
 2576TIP3    H129363   0.101   2.957   1.821  0.0913 -0.3943 -1.2178
 2576TIP3    H229364   0.217   2.863   1.842  1.3106  1.3261 -0.0246
 2577TIP3   OH229365   3.667   3.397   1.816 -0.2543  0.4910 -0.9749
 2577TIP3    H129366   3.581   3.433   1.796 -1.2387 -1.6053 -0.7670
 2577TIP3    H229367   3.670   3.315   1.767 -0.0718 -1.5325  2.1357
 2578TIP3   OH229368   2.410   1.829   1.736  0.1744  0.3036 -0.6623
 2578TIP3    H129369   2.433   1.739   1.716 -2.5638 -0.4057 -0.9392
 2578TIP3    H229370   2.432   1.877   1.656  2.4730  0.1314 -0.2112
 2579TIP3   OH229371   0.943   1.199   2.478  0.1067  0.1184  0.1740
 2579TIP3    H129372   0.937   1.291   2.502  1.0108  0.2617 -0.0980
 2579TIP3    H229373   0.944   1.153   2.562 -0.0194  0.3805  0.3211
 2580TIP3   OH229374   0.568   5.560   1.031  0.0152  0.5284 -0.3800
 2580TIP3    H129375   0.491   5.510   1.004 -0.4630  0.4785  1.0158
 2580TIP3    H229376   0.633   5.543   0.963 -0.4158 -1.3346 -0.3647
 2581TIP3   OH229377   2.597   4.633   0.649  0.1009 -0.5213 -0.1634
 2581TIP3    H129378   2.579   4.598   0.736 -0.4015  0.1918  0.0231
 2581TIP3    H229379   2.533   4.590   0.592  0.1614 -0.6731 -0.1197
 2582TIP3   OH229380   0.177   0.148   0.544 -0.1378 -0.0671  0.3166
 2582TIP3    H129381   0.195   0.236   0.576 -0.1622  0.7761 -1.8270
 2582TIP3    H229382   0.082   0.138   0.554 -0.6484  1.4058 -2.1789
 2583TIP3   OH229383   1.392   2.966   0.384 -0.1240  0.0088  0.0237
 2583TIP3    H129384   1.476   2.936   0.419  0.4267 -0.6734 -1.7366
 2583TIP3    H229385   1.327   2.911   0.427  0.2450  0.9412  1.8479
 2584TIP3   OH229386   4.944   3.608   7.369  0.1125  0.6806  0.3542
 2584TIP3    H129387   4.872   3.608   7.432  0.1706 -0.0903  0.4214
 2584TIP3    H229388   4.903   3.633   7.286 -0.6526 -1.6848 -0.0555
 2585TIP3   OH229389   6.134   3.366   1.972 -0.3860  0.1499  0.3614
 2585TIP3    H129390   6.061   3.392   1.916 -0.6231 -0.2738  0.4676
 2585TIP3    H229391   6.138   3.433   2.040 -0.7173  0.1370  0.3942
 2586TIP3   OH229392   2.950   5.194   7.134 -0.5760  0.3518  0.2933
 2586TIP3    H129393   2.958   5.137   7.211  0.6204 -1.1251 -0.8606
 2586TIP3    H229394   2.858   5.186   7.109 -0.3176 -1.6471 -0.1959
 2587TIP3   OH229395   2.143   0.433   2.102  0.3645  0.1298 -0.3706
 2587TIP3    H129396   2.169   0.524   2.112  0.0182  0.1310  0.6626
 2587TIP3    H229397   2.152   0.396   2.189 -0.1856 -0.6425 -0.6319
 2588TIP3   OH229398   0.849   2.119   7.223  0.1620 -0.6877  0.2685
 2588TIP3    H129399   0.884   2.175   7.293  0.4981 -1.8089  1.0313
 2588TIP3    H229400   0.848   2.176   7.146  1.3050  0.1272  0.8080
 2589TIP3   OH229401   3.360   6.638   8.216 -0.0066  0.3128  0.3394
 2589TIP3    H129402   3.440   6.588   8.227  0.7401  1.7128  1.6233
 2589TIP3    H229403   3.350   6.687   8.298 -0.7364  2.1838 -0.7975
 2590TIP3   OH229404   4.989   2.765   0.775  0.4940 -0.0267 -0.3433
 2590TIP3    H129405   5.009   2.745   0.683 -0.0964  0.6720 -0.6376
 2590TIP3    H229406   4.989   2.680   0.818 -0.4675 -0.5198 -1.2555
 2591TIP3   OH229407   0.147   2.024   8.296  0.1585  0.2834 -0.2657
 2591TIP3    H129408   0.200   2.052   8.371 -1.7659 -0.7844  1.5945
 2591TIP3    H229409   0.077   2.090   8.290  0.3597  0.4262 -1.2245
 2592TIP3   OH229410   3.899   4.483   1.550 -0.7504  0.3896  0.6118
 2592TIP3    H129411   3.935   4.512   1.635  1.7551  0.7449 -0.4772
 2592TIP3    H229412   3.931   4.548   1.488 -0.2529 -1.3074 -0.9830
 2593TIP3   OH229413   2.666   4.538   1.185  0.2800  0.1866  0.2131
 2593TIP3    H129414   2.673   4.462   1.243 -1.9425 -0.1200  0.1947
 2593TIP3    H229415   2.683   4.613   1.241 -1.2510 -0.1459  1.1955
 2594TIP3   OH229416   2.464   6.779   7.760  0.0750  0.4245 -0.2883
 2594TIP3    H129417   2.405   6.829   7.816  0.5878  1.4710 -0.6582
 2594TIP3    H229418   2.432   6.689   7.765 -1.0381  0.8339  0.1692
 2595TIP3   OH229419   0.885   4.502   1.461  0.8171  0.0465 -0.0812
 2595TIP3    H129420   0.956   4.525   1.401  0.3305  2.3229  0.1276
 2595TIP3    H229421   0.925   4.442   1.524  1.8018 -0.9449 -1.5868
 2596TIP3   OH229422   2.503   6.159   6.895  0.3122 -0.0433 -0.0319
 2596TIP3    H129423   2.539   6.084   6.847 -0.4990 -0.2863 -0.2626
 2596TIP3    H229424   2.580   6.211   6.918  0.9626 -1.3057  0.7569
 2597TIP3   OH229425   2.240   2.862   7.775 -0.2604 -0.0507 -0.3709
 2597TIP3    H129426   2.298   2.906   7.714 -0.5976  0.2075 -0.5103
 2597TIP3    H229427   2.154   2.866   7.733 -0.5284  0.2889  0.2056
 2598TIP3   OH229428   4.999   1.211   0.787  0.5885  0.2484 -0.5130
 2598TIP3    H129429   4.999   1.306   0.799  2.5318  0.1155  0.8987
 2598TIP3    H229430   4.912   1.192   0.751 -1.3532  2.1172  2.7050
 2599TIP3   OH229431   4.408   5.512   2.709 -0.0663 -0.1761  0.4953
 2599TIP3    H129432   4.457   5.451   2.763 -0.2823  0.2124  1.1466
 2599TIP3    H229433   4.368   5.573   2.772  0.0023  0.5243 -0.1246
 2600TIP3   OH229434   2.109   1.131   7.538 -0.0041 -0.1421  0.5352
 2600TIP3    H129435   2.086   1.194   7.607 -0.5180 -0.7701  0.9472
 2600TIP3    H229436   2.128   1.050   7.585  1.6173 -0.0581  0.0910
 2601TIP3   OH229437   1.662   2.930   7.065 -0.3261  0.6736 -0.5480
 2601TIP3    H129438   1.576   2.904   7.031 -0.9548  0.3378  1.2204
 2601TIP3    H229439   1.705   2.970   6.990 -0.8875 -1.7500 -2.3007
 2602TIP3   OH229440   3.354   0.950   1.278  0.6596 -0.0052  0.1888
 2602TIP3    H129441   3.431   0.904   1.312  0.0394 -0.0009  1.6556
 2602TIP3    H229442   3.388   1.033   1.247  1.2176  0.1262  1.1210
 2603TIP3   OH229443   5.988   6.264   0.253  0.0109 -0.0500  0.1692
 2603TIP3    H129444   6.053   6.292   0.188 -0.8301  0.6135 -0.4155
 2603TIP3    H229445   6.009   6.173   0.271 -0.4230 -0.6192 -1.9132
 2604TIP3   OH229446   5.197   2.394   0.627 -0.3588  0.0039  0.1140
 2604TIP3    H129447   5.223   2.361   0.541 -0.0713 -1.6886  0.8122
 2604TIP3    H229448   5.244   2.478   0.636 -0.4088  0.2225 -1.3583
 2605TIP3   OH229449   0.334   1.965   1.765  0.4887 -0.7726 -0.4346
 2605TIP3    H129450   0.302   2.054   1.776  1.2808 -0.4495 -0.7295
 2605TIP3    H229451   0.383   1.966   1.683  1.1173 -1.3028 -0.0740
 2606TIP3   OH229452   0.150   1.695   8.800  0.1066  0.1783 -0.2060
 2606TIP3    H129453   0.074   1.721   8.851 -1.1287  0.0757 -1.9353
 2606TIP3    H229454   0.175   1.610   8.837 -0.8598  0.0254  0.1275
 2607TIP3   OH229455   5.394   6.776   6.585 -0.2335 -0.0284 -0.0262
 2607TIP3    H129456   5.321   6.816   6.539 -0.5714 -0.3429  0.2313
 2607TIP3    H229457   5.467   6.836   6.570 -0.2999 -0.1941 -1.0826
 2608TIP3   OH229458   0.060   4.297   2.659 -0.1925 -0.1543  0.1244
 2608TIP3    H129459   0.116   4.368   2.627 -0.2276 -0.3856 -0.4661
 2608TIP3    H229460   0.116   4.247   2.717 -0.9558  2.0164  2.9699
 2609TIP3   OH229461   3.582   6.425   1.021 -0.7817  0.3765 -0.1635
 2609TIP3    H129462   3.592   6.333   0.997 -2.7931 -0.2421  1.1221
 2609TIP3    H229463   3.667   6.450   1.056 -0.6580 -1.5513  1.1178
 2610TIP3   OH229464   5.254   4.087   8.434 -0.4194 -0.4956  0.6386
 2610TIP3    H129465   5.322   4.108   8.369 -0.6972 -0.5941  0.3169
 2610TIP3    H229466   5.304   4.060   8.511 -0.0977 -1.5038  0.0927
 2611TIP3   OH229467   1.231   4.147   7.955 -0.4206 -0.2460  0.1824
 2611TIP3    H129468   1.289   4.113   8.023 -0.5511  0.1696  0.5056
 2611TIP3    H229469   1.204   4.069   7.906 -1.5890 -0.7668  1.5939
 2612TIP3   OH229470   0.643   6.328   1.246  0.0607 -0.3454  0.2904
 2612TIP3    H129471   0.597   6.360   1.168 -0.5334  0.1247  0.8262
 2612TIP3    H229472   0.613   6.238   1.256  0.0140 -0.3547  0.0744
 2613TIP3   OH229473   5.092   3.494   0.879  0.2444 -0.3882 -0.0221
 2613TIP3    H129474   5.081   3.493   0.974  0.1249  0.0974 -0.0282
 2613TIP3    H229475   5.035   3.424   0.848  0.7951 -0.9925  0.3120
 2614TIP3   OH229476   4.905   0.934   8.722 -0.6654  0.4413  0.1955
 2614TIP3    H129477   4.858   0.855   8.750 -0.0758  0.3953  1.1124
 2614TIP3    H229478   4.997   0.912   8.731 -0.4277  0.4822 -1.7294
 2615TIP3   OH229479   6.631   3.048   8.813 -0.0477  0.3452 -0.4050
 2615TIP3    H129480   6.708   2.991   8.820  0.8087  1.2730 -1.8526
 2615TIP3    H229481   6.564   2.992   8.773 -0.2706 -0.5571  1.1304
 2616TIP3   OH229482   5.290   2.646   0.369 -0.0877  0.0813 -0.0688
 2616TIP3    H129483   5.371   2.690   0.343 -0.6187  1.5720  0.7018
 2616TIP3    H229484   5.299   2.635   0.464 -0.6974  0.0627 -0.0116
 2617TIP3   OH229485   3.165   6.378   1.444 -0.3022  0.3464  0.1643
 2617TIP3    H129486   3.249   6.417   1.421 -0.4270  0.4080 -0.1985
 2617TIP3    H229487   3.119   6.368   1.360 -0.1672 -0.8303  0.2048
 2618TIP3   OH229488   2.529   6.218   8.424 -0.3141 -0.0368  0.6948
 2618TIP3    H129489   2.450   6.266   8.400  1.2121  1.7101 -1.1825
 2618TIP3    H229490   2.572   6.274   8.489  0.1879 -0.1733  0.4850
 2619TIP3   OH229491   2.734   2.351   8.308  0.0686  0.4674  0.4962
 2619TIP3    H129492   2.718   2.353   8.214 -0.9752 -0.8529  0.6141
 2619TIP3    H229493   2.755   2.441   8.331  1.0175  0.6936 -1.1012
 2620TIP3   OH229494   3.888   1.081   2.642 -0.6972 -0.2535  0.6495
 2620TIP3    H129495   3.838   1.133   2.705  1.0904  0.9066  1.1742
 2620TIP3    H229496   3.979   1.091   2.669 -0.0457 -1.2518 -1.0322
 2621TIP3   OH229497   1.001   5.840   8.818  0.0171 -0.2234  0.2598
 2621TIP3    H129498   0.994   5.858   8.725  0.9496  0.8375  0.3713
 2621TIP3    H229499   0.991   5.745   8.825  0.3325 -0.3656 -0.9673
 2622TIP3   OH229500   4.103   5.156   8.891 -0.0203  0.2678  0.0402
 2622TIP3    H129501   4.139   5.106   8.963 -0.9856 -1.1039 -0.3739
 2622TIP3    H229502   4.099   5.094   8.818 -0.9450  1.0323 -0.5985
 2623TIP3   OH229503   6.716   5.195   8.504  0.0203 -0.0489  0.4115
 2623TIP3    H129504   6.782   5.240   8.556  0.7577  1.3627 -1.6175
 2623TIP3    H229505   6.754   5.108   8.487  0.4374  0.0270  0.9428
 2624TIP3   OH229506   4.065   2.738   2.186 -0.5303  0.4800 -0.1294
 2624TIP3    H129507   4.068   2.834   2.186  0.2084  0.4679  0.1896
 2624TIP3    H229508   4.045   2.715   2.277 -0.2285  0.3203 -0.1038
 2625TIP3   OH229509   2.349   3.946   7.575  0.5533 -0.5049 -0.0106
 2625TIP3    H129510   2.347   3.918   7.667  2.0909 -1.2932 -0.1993
 2625TIP3    H229511   2.411   4.019   7.574 -1.4529  1.2956  0.0058
 2626TIP3   OH229512   2.073   2.444   0.700 -0.1051 -0.2989 -0.2499
 2626TIP3    H129513   2.002   2.411   0.755  1.5288 -1.4060  1.2857
 2626TIP3    H229514   2.108   2.519   0.747  1.1329 -1.0874  0.1383
 2627TIP3   OH229515   0.655   6.165   8.576 -0.2534 -0.5173  0.1262
 2627TIP3    H129516   0.623   6.154   8.666  1.4771 -1.2057  0.6978
 2627TIP3    H229517   0.695   6.081   8.555  0.9636  0.2248 -0.6125
 2628TIP3   OH229518   1.184   6.195   7.255  0.1671 -0.0726  0.9696
 2628TIP3    H129519   1.166   6.124   7.193 -0.0037  0.2982  0.5992
 2628TIP3    H229520   1.236   6.258   7.206  0.6117 -0.0986  1.4013
 2629TIP3   OH229521   6.090   1.859   2.095  0.1633  0.4439  0.3536
 2629TIP3    H129522   6.068   1.876   2.003  0.0006  0.1408  0.3369
 2629TIP3    H229523   6.006   1.839   2.136  0.5526 -2.6265 -0.0987
 2630TIP3   OH229524   1.154   2.307   8.871 -0.5768  0.4157  0.7940
 2630TIP3    H129525   1.201   2.365   8.931  1.3446 -0.5988  0.3493
 2630TIP3    H229526   1.166   2.220   8.908 -3.0622  0.1892  1.2253
 2631TIP3   OH229527   6.647   2.687   1.140  0.2746 -0.3230 -0.6827
 2631TIP3    H129528   6.664   2.657   1.229  0.2850 -1.3792 -1.0271
 2631TIP3    H229529   6.696   2.627   1.084 -1.3342 -0.9631 -1.4920
 2632TIP3   OH229530   1.743   0.891   2.272 -0.2974 -0.4636  0.0358
 2632TIP3    H129531   1.678   0.916   2.338  0.6971 -0.9071  1.2082
 2632TIP3    H229532   1.807   0.839   2.319  0.6982 -0.4025 -1.1945
 2633TIP3   OH229533   2.750   6.813   1.936  0.4225 -0.2081  0.5875
 2633TIP3    H129534   2.804   6.756   1.991  2.4911  0.0717 -1.0687
 2633TIP3    H229535   2.800   6.894   1.929 -0.3213  0.1537 -0.8017
 2634TIP3   OH229536   6.066   1.105   8.436  0.8444  0.0196  0.5637
 2634TIP3    H129537   6.100   1.027   8.391  0.5487  0.4744 -0.4679
 2634TIP3    H229538   6.144   1.155   8.459  1.0288 -0.5027  1.1159
 2635TIP3   OH229539   1.684   5.412   8.243  0.1437  0.0658  0.1725
 2635TIP3    H129540   1.667   5.350   8.314 -0.0692 -2.9645 -2.3217
 2635TIP3    H229541   1.776   5.437   8.255  1.1393 -2.9740 -0.2127
 2636TIP3   OH229542   4.279   4.568   0.958  0.5278  0.1090  0.1057
 2636TIP3    H129543   4.366   4.594   0.988  0.3845  0.4389  0.2363
 2636TIP3    H229544   4.232   4.650   0.945 -0.0603 -0.0858  0.9118
 2637TIP3   OH229545   0.106   2.098   7.222  0.0585  0.4892 -0.0001
 2637TIP3    H129546   0.035   2.127   7.279  0.1572 -1.9813  1.5314
 2637TIP3    H229547   0.186   2.129   7.265  0.0359  0.9357 -0.2710
 2638TIP3   OH229548   5.705   2.786   1.877  0.3390  0.5056 -0.1662
 2638TIP3    H129549   5.784   2.746   1.914  0.7125  1.8483  0.5203
 2638TIP3    H229550   5.660   2.825   1.951 -0.6642  0.3006 -0.6472
 2639TIP3   OH229551   5.794   2.153   0.621 -0.5825 -0.1454  0.1065
 2639TIP3    H129552   5.740   2.154   0.700 -0.6423  1.6259  0.0852
 2639TIP3    H229553   5.867   2.095   0.642 -1.7137 -1.4103  0.6623
 2640TIP3   OH229554   0.713   0.217   1.886 -0.4305 -0.2501 -0.1602
 2640TIP3    H129555   0.653   0.171   1.827 -2.6543 -0.1607  1.8986
 2640TIP3    H229556   0.682   0.307   1.886  1.7550  0.5773 -1.4846
 2641TIP3   OH229557   0.149   0.747   0.992  0.1070  0.5666 -0.5386
 2641TIP3    H129558   0.061   0.781   1.011  0.3113  1.4370 -1.0855
 2641TIP3    H229559   0.159   0.672   1.051 -1.4263 -0.2237 -1.2169
 2642TIP3   OH229560   5.714   0.130   8.266 -0.4295 -0.2270  0.6662
 2642TIP3    H129561   5.772   0.082   8.326  0.0833  1.0420  1.2190
 2642TIP3    H229562   5.695   0.067   8.196  2.6778 -0.3502 -0.2368
 2643TIP3   OH229563   2.869   1.637   0.881  0.1163 -0.4324  0.3005
 2643TIP3    H129564   2.883   1.731   0.886 -0.8274 -0.2438 -0.4071
 2643TIP3    H229565   2.884   1.615   0.789 -0.4401 -0.8349  0.2985
 2644TIP3   OH229566   5.548   2.392   1.181 -0.4850 -0.2146  0.2777
 2644TIP3    H129567   5.609   2.319   1.176  2.1646  1.9238 -2.5658
 2644TIP3    H229568   5.566   2.433   1.265  0.3605 -0.9209  0.4565
 2645TIP3   OH229569   4.960   4.503   1.585  0.4468  0.0656 -0.3812
 2645TIP3    H129570   4.977   4.435   1.520  1.4935 -0.5870  0.5386
 2645TIP3    H229571   5.022   4.485   1.655 -1.1910  0.2443  1.1818
 2646TIP3   OH229572   2.722   5.919   2.142  0.4204  0.3728 -0.2730
 2646TIP3    H129573   2.665   5.986   2.105 -0.2146 -0.1157 -0.2030
 2646TIP3    H229574   2.675   5.887   2.219  0.6485 -0.2420 -0.3806
 2647TIP3   OH229575   0.438   2.327   1.923  0.3831  0.3318 -0.3760
 2647TIP3    H129576   0.352   2.362   1.945  0.4514  1.0569 -1.2236
 2647TIP3    H229577   0.447   2.340   1.829  1.3874  0.1902 -0.3212
 2648TIP3   OH229578   5.519   2.179   8.079 -0.1013 -0.3208  0.4440
 2648TIP3    H129579   5.532   2.106   8.019 -0.0276  0.5127 -0.5692
 2648TIP3    H229580   5.606   2.216   8.092 -0.3264  0.4411 -0.1544
 2649TIP3   OH229581   5.418   0.129   8.321  0.1754 -0.4824  0.0340
 2649TIP3    H129582   5.455   0.059   8.375  2.2485 -1.3020 -2.3086
 2649TIP3    H229583   5.375   0.084   8.249  2.4172  0.5427 -2.0730
 2650TIP3   OH229584   2.852   1.943   8.406 -0.1745 -0.3560 -0.0598
 2650TIP3    H129585   2.885   2.019   8.358 -0.0056  0.3493  1.1065
 2650TIP3    H229586   2.757   1.958   8.413 -0.5268 -1.4947 -1.8973
 2651TIP3   OH229587   0.267   2.498   2.292 -0.3122 -0.4491  0.3842
 2651TIP3    H129588   0.304   2.580   2.326  1.5098 -1.1144  0.0862
 2651TIP3    H229589   0.200   2.474   2.357 -0.0577  0.6515  1.0925
 2652TIP3   OH229590   3.882   2.111   8.760  0.6751  0.1345  0.7036
 2652TIP3    H129591   3.925   2.031   8.729  0.5019  0.3950 -0.2236
 2652TIP3    H229592   3.818   2.080   8.825  0.9249 -0.4316  0.6839
 2653TIP3   OH229593   6.700   1.002   2.502 -0.1850  0.0198 -0.2516
 2653TIP3    H129594   6.788   1.002   2.464  0.3469 -2.2286  0.8514
 2653TIP3    H229595   6.708   1.051   2.583  0.3683 -1.1726  0.4366
 2654TIP3   OH229596   0.051   5.566   6.582 -0.0009 -0.0242 -0.7823
 2654TIP3    H129597   0.085   5.530   6.664  0.6036  0.5221 -0.7863
 2654TIP3    H229598  -0.013   5.632   6.610 -0.7748 -0.7603 -0.7717
 2655TIP3   OH229599   0.191   1.249   1.606  0.3999 -0.2220  0.2314
 2655TIP3    H129600   0.153   1.303   1.535  1.7811 -0.5733 -0.8117
 2655TIP3    H229601   0.171   1.159   1.580 -2.4282 -0.3018  2.2729
 2656TIP3   OH229602   3.856   0.905   8.414  0.1398 -0.4847 -0.1771
 2656TIP3    H129603   3.796   0.956   8.468 -0.3436 -2.5845  1.4006
 2656TIP3    H229604   3.832   0.813   8.431  1.7261 -1.3063 -1.9541
 2657TIP3   OH229605   0.835   4.533   7.115  0.2263 -0.4507 -0.1749
 2657TIP3    H129606   0.748   4.573   7.121  1.1804  1.9383 -1.3507
 2657TIP3    H229607   0.839   4.498   7.026  0.7441  0.1603 -0.3953
 2658TIP3   OH229608   3.907   2.454   0.423 -0.1701 -0.9808  1.3330
 2658TIP3    H129609   3.987   2.438   0.372 -0.3462 -0.7452  0.9804
 2658TIP3    H229610   3.938   2.493   0.505  0.0368 -0.3620  0.9672
 2659TIP3   OH229611   4.337   5.691   0.819  0.3527  0.3106  0.4081
 2659TIP3    H129612   4.359   5.745   0.743  1.3480  0.4179  0.7607
 2659TIP3    H229613   4.394   5.615   0.811 -0.7149 -0.4820  0.1690
 2660TIP3   OH229614   3.781   4.350   0.852 -0.5210 -0.0484  0.7602
 2660TIP3    H129615   3.855   4.345   0.912 -1.1156 -1.8164  1.3958
 2660TIP3    H229616   3.767   4.260   0.822 -0.6988  0.6563 -1.5265
 2661TIP3   OH229617   4.834   1.222   2.141 -0.3460  1.1277  0.3698
 2661TIP3    H129618   4.911   1.186   2.098 -1.1960 -0.6907  0.2779
 2661TIP3    H229619   4.857   1.226   2.233 -1.1216 -2.4864  0.8679
 2662TIP3   OH229620   0.723   1.160   0.769  0.6086  0.2551  0.1571
 2662TIP3    H129621   0.766   1.111   0.839  0.5429  2.1254  1.5923
 2662TIP3    H229622   0.633   1.171   0.800  0.1670 -0.1694 -0.9354
 2663TIP3   OH229623   4.869   2.168   0.117  0.0889  0.4835  0.1441
 2663TIP3    H129624   4.837   2.078   0.114 -0.3401  0.6009  1.0064
 2663TIP3    H229625   4.792   2.222   0.099 -0.0608  0.7399  1.5023
 2664TIP3   OH229626   2.710   0.033   7.541 -0.3534  0.1674 -0.1927
 2664TIP3    H129627   2.788   0.054   7.489 -0.2146  1.0052  0.3348
 2664TIP3    H229628   2.730   0.065   7.628 -1.2936  0.3932 -0.0466
 2665TIP3   OH229629   5.605   6.118   2.782 -0.1016 -0.0730  0.8002
 2665TIP3    H129630   5.638   6.208   2.771 -1.1737  0.2518  0.0958
 2665TIP3    H229631   5.528   6.114   2.725 -0.0298 -1.4662  0.7804
 2666TIP3   OH229632   6.699   4.253   1.053  0.0378  0.4907  0.0226
 2666TIP3    H129633   6.672   4.181   0.996 -0.1341  1.0077 -0.5671
 2666TIP3    H229634   6.730   4.210   1.133  0.5770 -0.2719 -0.5753
 2667TIP3   OH229635   3.575   4.890   2.293  0.6761 -0.5269 -0.3608
 2667TIP3    H129636   3.582   4.924   2.382  0.6842 -0.7966 -0.2554
 2667TIP3    H229637   3.555   4.797   2.304 -1.9930 -0.0575 -0.6361
 2668TIP3   OH229638   6.585   0.236   6.807 -0.2603  0.2822  0.0777
 2668TIP3    H129639   6.559   0.166   6.865 -0.7716 -0.0320 -0.5204
 2668TIP3    H229640   6.516   0.302   6.816 -1.1035 -0.3837 -1.2171
 2669TIP3   OH229641   4.262   0.664   8.269  0.6845  0.2468  0.3805
 2669TIP3    H129642   4.169   0.653   8.289  0.1337  3.6327  0.2206
 2669TIP3    H229643   4.264   0.702   8.181  2.1268  1.3102  0.8239
 2670TIP3   OH229644   3.888   1.519   1.178 -0.0429 -0.1191 -0.7641
 2670TIP3    H129645   3.881   1.433   1.137  0.3566 -1.2371  1.3891
 2670TIP3    H229646   3.813   1.523   1.237  1.0475  0.1541  0.6321
 2671TIP3   OH229647   1.300   4.379   0.750 -0.1604 -0.0993  0.3070
 2671TIP3    H129648   1.283   4.410   0.661  0.8675  0.2784  0.2300
 2671TIP3    H229649   1.254   4.295   0.755  2.9466 -2.1238 -1.9473
 2672TIP3   OH229650   4.314   5.039   7.758 -0.6054 -0.0943 -0.2428
 2672TIP3    H129651   4.219   5.044   7.758 -0.5714  0.8174  0.5339
 2672TIP3    H229652   4.333   4.946   7.766 -1.4380 -0.2245  0.3482
 2673TIP3   OH229653   2.765   5.357   0.700  0.7205 -0.2439 -0.2175
 2673TIP3    H129654   2.831   5.326   0.761 -0.0663  1.5920  1.6782
 2673TIP3    H229655   2.683   5.319   0.732  0.0952  1.7716  0.7754
 2674TIP3   OH229656   2.449   0.188   0.112  0.0845 -0.0141  0.3986
 2674TIP3    H129657   2.517   0.198   0.179  0.1871  0.8278  0.1743
 2674TIP3    H229658   2.472   0.252   0.045 -0.3743 -0.4197 -0.1516
 2675TIP3   OH229659   6.816   1.411   1.857 -0.1419  0.4740  0.1290
 2675TIP3    H129660   6.763   1.346   1.903 -1.1977  1.4414  0.3303
 2675TIP3    H229661   6.782   1.411   1.767 -0.5170  1.1018  0.2594
 2676TIP3   OH229662   6.635   0.172   8.572 -0.7226  0.0903 -0.3150
 2676TIP3    H129663   6.598   0.256   8.598  0.7136  0.6261  0.1009
 2676TIP3    H229664   6.580   0.142   8.500 -1.4629  1.2157 -0.2328
 2677TIP3   OH229665   2.602   1.619   8.583  0.0065 -0.2757 -0.4715
 2677TIP3    H129666   2.622   1.665   8.665  1.1828  2.2089 -2.0369
 2677TIP3    H229667   2.681   1.630   8.530 -0.5523 -2.2577 -1.8033
 2678TIP3   OH229668   3.033   5.865   8.544  0.2770  0.1641 -0.1813
 2678TIP3    H129669   2.992   5.923   8.609  0.6080 -0.4850  0.6361
 2678TIP3    H229670   3.058   5.922   8.472  2.1917  1.3627  1.3324
 2679TIP3   OH229671   0.472   6.518   1.832  0.1764 -0.4065  0.3942
 2679TIP3    H129672   0.426   6.581   1.775  0.9339  0.7165  0.9815
 2679TIP3    H229673   0.421   6.517   1.913 -0.1281 -0.9681  0.2036
 2680TIP3   OH229674   0.206   0.364   0.707 -0.3821  0.9411 -0.0043
 2680TIP3    H129675   0.248   0.446   0.681 -0.1610  0.8083 -0.0660
 2680TIP3    H229676   0.113   0.385   0.711 -0.8155  0.3786 -3.4108
 2681TIP3   OH229677   2.588   6.378   3.193 -0.2883  0.3474 -0.8135
 2681TIP3    H129678   2.573   6.383   3.099  0.6012  0.2650 -0.9676
 2681TIP3    H229679   2.564   6.465   3.226  0.6933  0.8298 -1.3208
 2682TIP3   OH229680   4.469   1.669   0.472 -0.8637 -0.2744  0.3943
 2682TIP3    H129681   4.409   1.630   0.409 -0.4685 -1.6624  0.8494
 2682TIP3    H229682   4.502   1.595   0.524 -1.4531  0.8509  2.4867
 2683TIP3   OH229683   2.000   1.895   2.805 -0.5909  0.1005  0.3323
 2683TIP3    H129684   1.959   1.857   2.727 -0.6086  0.7672  0.0036
 2683TIP3    H229685   1.970   1.986   2.806  1.1390  0.7255 -0.1338
 2684TIP3   OH229686   4.969   3.447   8.902  0.0236 -0.3372 -0.2425
 2684TIP3    H129687   4.903   3.512   8.923  0.1212 -0.7362  1.4067
 2684TIP3    H229688   4.989   3.462   8.809  0.5060  2.4043  0.2235
 2685TIP3   OH229689   0.629   0.119   0.053 -0.1031  0.4582  0.2163
 2685TIP3    H129690   0.674   0.179  -0.006  0.2997  0.9169  0.9672
 2685TIP3    H229691   0.644   0.156   0.140  0.3920 -0.8787  0.7238
 2686TIP3   OH229692   3.637   0.370   0.666  0.0551 -0.1635 -0.3102
 2686TIP3    H129693   3.713   0.357   0.610  0.5399 -0.4010  0.3954
 2686TIP3    H229694   3.673   0.383   0.754 -0.7190 -0.3707  0.0497
 2687TIP3   OH229695   0.141   5.903   7.279  0.2626 -0.1113  0.6600
 2687TIP3    H129696   0.216   5.895   7.219  0.0332  1.4869  0.1167
 2687TIP3    H229697   0.101   5.816   7.279  0.0604 -0.0880 -1.8272
 2688TIP3   OH229698   4.122   5.016   7.004 -0.2804 -0.0947  0.2444
 2688TIP3    H129699   4.193   4.961   6.968  0.4778 -0.0157  1.5804
 2688TIP3    H229700   4.056   5.016   6.934  0.6980 -0.7881 -0.7372
 2689TIP3   OH229701   3.178   4.757   0.595 -0.5775 -0.6968 -1.0743
 2689TIP3    H129702   3.225   4.841   0.599 -1.4706 -0.0961 -2.3949
 2689TIP3    H229703   3.086   4.781   0.607 -0.7444 -1.6540 -0.2628
 2690TIP3   OH229704   2.951   6.344   0.188 -0.2793  0.3296  0.6291
 2690TIP3    H129705   2.925   6.339   0.096  0.7319  1.7185  0.2485
 2690TIP3    H229706   2.876   6.383   0.233 -1.0519 -1.0023  0.5415
 2691TIP3   OH229707   4.190   3.885   8.563 -0.1839 -0.5716 -0.2464
 2691TIP3    H129708   4.119   3.828   8.592  1.7550 -1.9346  2.2474
 2691TIP3    H229709   4.174   3.968   8.609 -1.5438  0.0791 -1.7948
 2692TIP3   OH229710   4.775   2.931   1.307  0.0501 -0.1625  0.0524
 2692TIP3    H129711   4.823   2.859   1.349  0.6656 -0.2129 -0.7177
 2692TIP3    H229712   4.745   2.894   1.224 -2.5385 -0.5671  1.0726
 2693TIP3   OH229713   5.916   4.556   2.477  0.1090  0.0381  0.6125
 2693TIP3    H129714   5.914   4.637   2.528 -0.7014  0.3833  0.0644
 2693TIP3    H229715   5.931   4.585   2.387 -1.0258 -0.3282  0.2848
 2694TIP3   OH229716   0.178   3.748   6.600 -0.0639 -0.2568 -0.5105
 2694TIP3    H129717   0.152   3.827   6.554 -0.5460 -0.1131 -0.0096
 2694TIP3    H229718   0.273   3.756   6.611 -0.3201  1.1648  1.1522
 2695TIP3   OH229719   6.682   4.955   0.481  0.2119 -0.5167 -0.1640
 2695TIP3    H129720   6.772   4.929   0.503  0.2330 -0.9180 -0.7079
 2695TIP3    H229721   6.693   5.011   0.404 -0.0156 -0.6812 -0.3166
 2696TIP3   OH229722   4.298   4.005   1.201 -0.2198 -0.0779 -0.3291
 2696TIP3    H129723   4.213   3.963   1.183  0.0323 -0.9038  0.3590
 2696TIP3    H229724   4.328   4.035   1.115 -1.3605  0.5218 -0.5347
 2697TIP3   OH229725   5.905   2.894   7.861  0.4161 -0.0095  0.2211
 2697TIP3    H129726   5.820   2.853   7.872  0.9053 -1.0365  0.3630
 2697TIP3    H229727   5.897   2.947   7.782 -1.1730  2.1754  1.7368
 2698TIP3   OH229728   5.537   3.823   1.044 -0.3994  0.0178 -0.2728
 2698TIP3    H129729   5.604   3.835   0.977  0.8127  0.9474  1.0427
 2698TIP3    H229730   5.536   3.906   1.092 -2.9278  0.2480 -0.5925
 2699TIP3   OH229731   5.143   3.814   7.512  0.3953 -0.4177  0.8572
 2699TIP3    H129732   5.227   3.810   7.559  1.9757  0.7670 -1.6470
 2699TIP3    H229733   5.154   3.887   7.451 -2.1834 -0.7687 -0.1150
 2700TIP3   OH229734   2.066   2.327   8.767  0.3984  0.1212 -0.6596
 2700TIP3    H129735   2.126   2.252   8.773 -0.7850 -0.8611 -0.5654
 2700TIP3    H229736   1.982   2.288   8.742  0.0870  1.6113 -2.0511
 2701TIP3   OH229737   2.744   2.666   8.632 -0.5986  0.6405  0.5181
 2701TIP3    H129738   2.790   2.587   8.603  0.2346  1.3350 -0.1208
 2701TIP3    H229739   2.814   2.730   8.645 -1.2094  1.0852  1.6623
 2702TIP3   OH229740   3.154   0.029   0.584  1.0972 -0.2128 -0.5787
 2702TIP3    H129741   3.170  -0.021   0.664  0.7004 -0.5811 -0.7318
 2702TIP3    H229742   3.142   0.119   0.615 -0.6028 -0.5949 -0.0623
 2703TIP3   OH229743   5.498   4.365   3.128  0.0976  0.1524 -0.0885
 2703TIP3    H129744   5.508   4.319   3.212 -0.5845  1.1506  0.5757
 2703TIP3    H229745   5.536   4.306   3.063  0.1402 -0.8976  0.8505
 2704TIP3   OH229746   5.835   6.672   0.276 -0.1734  0.2567 -0.2150
 2704TIP3    H129747   5.847   6.606   0.344  0.6033  0.3101 -0.2956
 2704TIP3    H229748   5.740   6.688   0.274 -0.5846 -1.9000 -1.1717
 2705TIP3   OH229749   6.586   6.513   2.208 -0.2602 -0.4177 -0.2301
 2705TIP3    H129750   6.533   6.446   2.251 -1.6300  1.0178  0.4337
 2705TIP3    H229751   6.597   6.581   2.275  0.1257  0.5226 -1.2115
 2706TIP3   OH229752   0.056   5.129   1.198 -0.1842  0.5181  0.0571
 2706TIP3    H129753  -0.005   5.110   1.126 -0.7764 -1.3959  1.0062
 2706TIP3    H229754   0.139   5.090   1.170 -0.6861 -1.1745  0.8124
 2707TIP3   OH229755   1.980   5.472   1.178  0.6764  0.1954  0.5480
 2707TIP3    H129756   1.949   5.382   1.172  2.0343 -0.2322 -1.0654
 2707TIP3    H229757   1.907   5.525   1.147  0.7696 -0.6023 -1.1490
 2708TIP3   OH229758   5.188   3.160   8.527  0.0287 -0.3345  0.2863
 2708TIP3    H129759   5.144   3.173   8.611 -0.0144  0.6156  0.1364
 2708TIP3    H229760   5.235   3.242   8.512  1.1373 -1.0059  0.0210
 2709TIP3   OH229761   1.721   2.659   8.068  0.0472 -0.2919  0.2104
 2709TIP3    H129762   1.736   2.680   8.160  0.0495  1.7326 -0.2198
 2709TIP3    H229763   1.779   2.717   8.019  0.2554 -1.5290 -1.0825
 2710TIP3   OH229764   4.678   1.447   8.671  0.3821 -0.8589  0.1072
 2710TIP3    H129765   4.637   1.488   8.747  0.1642  0.5316 -0.7275
 2710TIP3    H229766   4.617   1.378   8.645 -0.2631 -0.3754  0.3173
 2711TIP3   OH229767   3.887   3.188   7.789  0.0907  0.2475  0.0483
 2711TIP3    H129768   3.808   3.144   7.758  0.3233 -0.8312  0.8836
 2711TIP3    H229769   3.857   3.273   7.820 -0.5138  0.3836 -0.8644
 2712TIP3   OH229770   0.525   4.403   7.647 -0.4138  0.1502 -0.0701
 2712TIP3    H129771   0.443   4.453   7.651 -0.1919  0.5158 -0.1751
 2712TIP3    H229772   0.586   4.459   7.600  0.4408  0.6419  1.5477
 2713TIP3   OH229773   5.751   5.455   1.788  0.3286 -0.0070 -0.2420
 2713TIP3    H129774   5.706   5.535   1.761 -0.1571  0.2102  1.1284
 2713TIP3    H229775   5.776   5.413   1.705 -0.9404  0.6894 -1.0248
 2714TIP3   OH229776   1.494   6.572   8.832  0.3990 -0.3636  0.0988
 2714TIP3    H129777   1.420   6.521   8.800  0.1810  0.4861 -0.8068
 2714TIP3    H229778   1.460   6.621   8.906 -0.3455  1.0652 -1.1506
 2715TIP3   OH229779   4.271   1.732   1.012 -0.1086 -0.0777  0.0392
 2715TIP3    H129780   4.318   1.736   1.095 -0.3186  0.7100  0.1338
 2715TIP3    H229781   4.339   1.729   0.946  0.0931  1.0611  0.1765
 2716TIP3   OH229782   2.870   5.999   0.697 -0.2842 -0.2295 -0.2792
 2716TIP3    H129783   2.855   5.969   0.786 -1.5744 -1.6963 -0.9417
 2716TIP3    H229784   2.962   5.976   0.680  0.0288  0.2396  0.7187
 2717TIP3   OH229785   0.818   6.598   8.213  0.5621 -0.4820 -0.2299
 2717TIP3    H129786   0.767   6.550   8.278 -1.5238 -1.9937 -2.7778
 2717TIP3    H229787   0.906   6.605   8.252 -0.4032 -1.7745  2.4445
 2718TIP3   OH229788   0.441   3.196   8.364 -0.4510 -0.1079  0.3266
 2718TIP3    H129789   0.452   3.238   8.278 -0.8285  1.2217  0.9134
 2718TIP3    H229790   0.488   3.113   8.355 -1.8831 -0.7831 -1.7133
 2719TIP3   OH229791   1.856   3.363   1.712  0.3002  0.5152 -0.2771
 2719TIP3    H129792   1.832   3.284   1.664  0.4253  1.9391 -2.8395
 2719TIP3    H229793   1.787   3.373   1.777  1.1439 -2.5466  1.2884
 2720TIP3   OH229794   1.706   2.131   1.308  0.0563 -0.3140  0.3236
 2720TIP3    H129795   1.720   2.133   1.402 -2.0508 -1.3104  0.7216
 2720TIP3    H229796   1.791   2.104   1.271  0.5361 -1.2732  2.0384
 2721TIP3   OH229797   3.470   4.019   8.241 -0.6837 -0.0016 -0.6529
 2721TIP3    H129798   3.500   3.930   8.256  1.0766  0.4991 -0.9398
 2721TIP3    H229799   3.388   4.026   8.290  1.2476 -0.4850  2.9925
 2722TIP3   OH229800   4.093   0.040   2.391  0.1470 -0.5443 -0.1327
 2722TIP3    H129801   4.176   0.054   2.437 -0.1029 -0.1868  0.2170
 2722TIP3    H229802   4.060  -0.042   2.429 -0.6442  0.3648  1.2388
 2723TIP3   OH229803   1.914   3.348   8.569  0.0413  0.5901  0.5171
 2723TIP3    H129804   1.825   3.314   8.578  0.2833 -0.3010 -0.2891
 2723TIP3    H229805   1.970   3.273   8.588  0.5935  0.5430 -1.1884
 2724TIP3   OH229806   6.806   5.826   8.672 -0.2939  0.6868 -0.1730
 2724TIP3    H129807   6.814   5.922   8.678 -0.3356  0.6393  0.6639
 2724TIP3    H229808   6.775   5.799   8.758 -0.8970 -0.0260 -0.5984
 2725TIP3   OH229809   1.389   6.079   1.103 -0.4086 -0.4058  0.5871
 2725TIP3    H129810   1.463   6.121   1.148 -0.9991  0.6877  0.5689
 2725TIP3    H229811   1.315   6.093   1.162 -0.9205 -0.1095 -0.1201
 2726TIP3   OH229812   5.656   5.339   0.640  0.9275  0.0385 -0.6596
 2726TIP3    H129813   5.738   5.360   0.597  0.2401  1.3305 -1.4314
 2726TIP3    H229814   5.645   5.409   0.706  0.0532  0.3868 -1.1570
 2727TIP3   OH229815   2.523   5.818   1.901  0.1498  0.4764  0.1514
 2727TIP3    H129816   2.459   5.748   1.886  0.6655 -0.0819  0.4532
 2727TIP3    H229817   2.481   5.876   1.964 -0.8264  1.1945 -1.1274
 2728TIP3   OH229818   2.795   6.510   7.198 -0.4861 -0.4876 -0.4448
 2728TIP3    H129819   2.805   6.597   7.238 -2.7031 -0.9045  1.2108
 2728TIP3    H229820   2.749   6.527   7.116 -2.7449 -0.1820  0.8095
 2729TIP3   OH229821   6.393   5.141   0.861 -0.1925 -0.1693  0.2336
 2729TIP3    H129822   6.442   5.128   0.942 -0.3984 -0.0980  0.3711
 2729TIP3    H229823   6.318   5.082   0.869 -0.2965 -0.0465  0.1665
 2730TIP3   OH229824   4.432   6.051   7.858  1.0088  0.0142 -0.0507
 2730TIP3    H129825   4.450   6.123   7.919 -0.0336  0.8661 -0.7073
 2730TIP3    H229826   4.340   6.062   7.835  1.4071 -0.2042 -1.8814
 2731TIP3   OH229827   5.605   1.174   3.061 -0.0199  0.2510 -0.0263
 2731TIP3    H129828   5.631   1.105   3.000 -0.7997  0.6383 -0.8248
 2731TIP3    H229829   5.686   1.224   3.077  0.3180 -0.2145 -0.2649
 2732TIP3   OH229830   6.318   3.284   1.136  0.0776 -0.0154  0.3812
 2732TIP3    H129831   6.234   3.262   1.175 -1.0350  1.1236 -1.2154
 2732TIP3    H229832   6.376   3.301   1.210 -0.8142 -1.7508  1.5222
 2733TIP3   OH229833   6.383   2.285   2.097  0.0991  0.1863 -0.7521
 2733TIP3    H129834   6.455   2.340   2.067 -0.2515  1.2141  0.2418
 2733TIP3    H229835   6.326   2.344   2.147 -0.1503 -1.1115  0.5831
 2734TIP3   OH229836   3.373   5.795   1.131 -0.6590  0.4883 -0.2090
 2734TIP3    H129837   3.320   5.793   1.210 -0.1500 -1.7262  0.1247
 2734TIP3    H229838   3.458   5.759   1.157  0.4137  2.1299 -1.1913
 2735TIP3   OH229839   2.139   5.190   8.073  0.3507  0.6911  0.6253
 2735TIP3    H129840   2.132   5.204   7.979  3.4488 -1.6292 -0.1295
 2735TIP3    H229841   2.194   5.261   8.105 -1.0757  1.7363  0.8172
 2736TIP3   OH229842   2.051   5.323   1.820 -0.1150  0.0568 -0.3409
 2736TIP3    H129843   2.015   5.282   1.899  0.8121  0.8968  0.5477
 2736TIP3    H229844   2.082   5.409   1.849  1.7563 -0.2610 -1.2310
 2737TIP3   OH229845   0.713   1.562   1.951  1.0093 -0.0395  0.1421
 2737TIP3    H129846   0.699   1.593   1.862  1.1378  1.3586  0.5821
 2737TIP3    H229847   0.809   1.559   1.961  1.0349  1.8605  0.8715
 2738TIP3   OH229848   6.736   2.750   0.786  0.2687  0.1453  0.3112
 2738TIP3    H129849   6.649   2.786   0.804  0.1307  1.2678 -2.1692
 2738TIP3    H229850   6.779   2.818   0.733  2.1053 -1.0252  0.2213
 2739TIP3   OH229851   0.489   6.212   1.787  0.1622  0.3870 -0.1996
 2739TIP3    H129852   0.463   6.304   1.786  0.0432  0.3806 -2.6998
 2739TIP3    H229853   0.560   6.206   1.723  1.9564 -0.8361  1.7445
 2740TIP3   OH229854   2.133   1.327   7.149 -0.2375  0.5372  0.6416
 2740TIP3    H129855   2.163   1.402   7.096 -1.2137  1.7285  1.7218
 2740TIP3    H229856   2.151   1.251   7.094 -0.4595  1.6642 -1.0747
 2741TIP3   OH229857   0.791   1.795   7.617 -0.3707  0.0695 -0.5878
 2741TIP3    H129858   0.699   1.771   7.622 -0.7827  1.5577 -0.3300
 2741TIP3    H229859   0.791   1.875   7.565  0.7500  0.2028 -0.3995
 2742TIP3   OH229860   0.156   2.376   1.866 -0.2499 -0.1009  0.5652
 2742TIP3    H129861   0.141   2.418   1.781  0.0223  1.7184  1.3733
 2742TIP3    H229862   0.107   2.429   1.929  0.7119 -0.5482  1.7422
 2743TIP3   OH229863   6.157   3.951   2.352 -0.0100 -0.0624  0.4053
 2743TIP3    H129864   6.245   3.977   2.325  0.1608 -0.5166  0.5202
 2743TIP3    H229865   6.100   4.021   2.318  0.4779  0.6775  1.0811
 2744TIP3   OH229866   3.584   0.363   2.802  0.3417 -0.1155 -0.0988
 2744TIP3    H129867   3.505   0.309   2.807  0.0810  0.3025  0.3972
 2744TIP3    H229868   3.635   0.324   2.731 -1.0956  0.6688 -1.6166
 2745TIP3   OH229869   6.443   1.683   2.737  0.2820  0.0643  0.0121
 2745TIP3    H129870   6.496   1.761   2.755  0.2249  0.0184  0.4057
 2745TIP3    H229871   6.439   1.677   2.642  0.9454  0.0906 -0.0186
 2746TIP3   OH229872   4.704   4.702   7.835  0.2894 -0.2828 -0.2872
 2746TIP3    H129873   4.616   4.667   7.838 -0.1830  0.8302 -0.6408
 2746TIP3    H229874   4.736   4.694   7.925 -0.3120 -0.3535 -0.0753
 2747TIP3   OH229875   5.243   3.263   8.075  0.3300 -0.4790 -0.1484
 2747TIP3    H129876   5.307   3.260   8.004 -1.8616  0.8347 -2.3452
 2747TIP3    H229877   5.263   3.344   8.122  1.8496 -1.4017  0.9046
 2748TIP3   OH229878   3.151   0.816   1.757  0.5517 -0.2009  0.1813
 2748TIP3    H129879   3.142   0.721   1.747  0.7692 -0.5566  2.7411
 2748TIP3    H229880   3.245   0.828   1.775  0.7068  0.6351 -1.0983
 2749TIP3   OH229881   4.487   5.352   8.115  0.0333  0.0379 -0.2123
 2749TIP3    H129882   4.419   5.326   8.177  1.1220 -0.2591  0.9126
 2749TIP3    H229883   4.488   5.284   8.048  0.1447 -0.6973  0.5219
 2750TIP3   OH229884   1.920   2.019   0.189  0.2873  0.5886  0.0090
 2750TIP3    H129885   1.995   1.999   0.134  0.5868 -0.9794  0.9290
 2750TIP3    H229886   1.852   2.046   0.128  0.1669 -2.3857 -1.3431
 2751TIP3   OH229887   1.137   0.848   8.655 -0.1485 -0.0630 -0.0565
 2751TIP3    H129888   1.174   0.763   8.677  0.2289  0.0807 -0.1299
 2751TIP3    H229889   1.045   0.842   8.683 -0.4983 -0.9662 -1.3242
 2752TIP3   OH229890   4.620   2.419   0.720  0.3924 -0.9245  0.0598
 2752TIP3    H129891   4.698   2.463   0.687 -0.1022 -1.1592 -1.4997
 2752TIP3    H229892   4.632   2.327   0.696  0.3965 -1.2826  1.3241
 2753TIP3   OH229893   0.802   0.298   8.318  0.3111  0.2980  0.0819
 2753TIP3    H129894   0.712   0.324   8.299  0.2416  0.2446  0.3343
 2753TIP3    H229895   0.804   0.205   8.298  0.1958  0.2074  0.4757
 2754TIP3   OH229896   4.358   2.240   8.867 -0.5009  0.5871 -0.3575
 2754TIP3    H129897   4.301   2.244   8.943 -1.6618 -1.7145 -1.0192
 2754TIP3    H229898   4.299   2.235   8.792  0.5785 -0.1315 -1.1927
 2755TIP3   OH229899   6.566   2.138   7.060  0.0161 -0.0381  0.4153
 2755TIP3    H129900   6.572   2.092   7.144 -1.4195  0.3013  0.7269
 2755TIP3    H229901   6.657   2.156   7.037  0.4682 -0.5828  1.6476
 2756TIP3   OH229902   3.873   0.084   2.637 -0.3792  0.3099  0.0355
 2756TIP3    H129903   3.899   0.134   2.714 -0.0071  0.2629 -0.0577
 2756TIP3    H229904   3.921   0.002   2.645 -0.5399  0.2025 -0.1128
 2757TIP3   OH229905   4.915   1.817   1.511  0.3298 -0.3939 -0.1073
 2757TIP3    H129906   4.886   1.890   1.566 -0.8447 -1.8939  1.3717
 2757TIP3    H229907   4.836   1.790   1.464  0.6171 -1.1016 -0.1921
 2758TIP3   OH229908   6.233   4.399   0.853 -0.1623 -0.7846  0.1781
 2758TIP3    H129909   6.307   4.385   0.912 -0.3338 -1.4414  0.2401
 2758TIP3    H229910   6.169   4.447   0.905  0.6724  0.8667 -0.2199
 2759TIP3   OH229911   1.037   2.085   1.322  0.1747 -0.2893 -0.2263
 2759TIP3    H129912   1.128   2.070   1.346  0.4185 -1.9312 -1.8852
 2759TIP3    H229913   1.042   2.121   1.233 -0.7991  0.2594 -0.0755
 2760TIP3   OH229914   3.260   0.697   1.511 -0.4851 -0.3292  0.7128
 2760TIP3    H129915   3.202   0.757   1.558 -0.1290  0.0729  0.6523
 2760TIP3    H229916   3.337   0.750   1.490 -0.7459 -0.4133 -0.5751
 2761TIP3   OH229917   6.432   3.813   8.703  0.0576 -0.0076 -0.6580
 2761TIP3    H129918   6.372   3.785   8.634  0.4309 -0.6985 -0.7062
 2761TIP3    H229919   6.448   3.734   8.755 -2.0538  0.9572  1.6664
 2762TIP3   OH229920   2.137   5.585   0.476  0.5761  0.9294  0.0441
 2762TIP3    H129921   2.058   5.533   0.495  0.8466  0.9238  1.2208
 2762TIP3    H229922   2.194   5.525   0.428  0.7106  0.2516  1.0251
 2763TIP3   OH229923   1.809   4.876   7.403  0.5770  0.4188 -0.2311
 2763TIP3    H129924   1.899   4.845   7.411  0.6409  0.1415 -1.7246
 2763TIP3    H229925   1.757   4.812   7.452  1.0119 -0.5036 -0.9422
 2764TIP3   OH229926   3.431   2.736   0.642  0.0509 -0.1344 -1.0262
 2764TIP3    H129927   3.340   2.715   0.664 -0.1542  1.2806 -0.4088
 2764TIP3    H229928   3.483   2.683   0.703 -0.3765 -0.3720 -0.8630
 2765TIP3   OH229929   3.239   0.328   0.155 -0.1599  0.2112 -0.0376
 2765TIP3    H129930   3.314   0.332   0.096  0.1449 -0.4137  0.2984
 2765TIP3    H229931   3.277   0.328   0.243 -0.6381  1.9349  0.1977
 2766TIP3   OH229932   6.213   2.000   0.082  0.0598 -0.2206 -0.7010
 2766TIP3    H129933   6.285   2.060   0.063  0.8681 -1.2977 -1.1520
 2766TIP3    H229934   6.255   1.914   0.089 -1.1274 -0.7979 -0.5202
 2767TIP3   OH229935   2.654   2.717   8.084  0.1706  0.1642  0.1165
 2767TIP3    H129936   2.692   2.662   8.016 -0.9151  0.0734 -0.4360
 2767TIP3    H229937   2.699   2.690   8.165  0.0042 -1.1797 -0.2206
 2768TIP3   OH229938   0.653   0.830   0.152 -0.0543 -0.1418 -0.3419
 2768TIP3    H129939   0.696   0.904   0.110 -2.6691  1.0214 -1.1988
 2768TIP3    H229940   0.584   0.805   0.090 -2.4057 -0.0479  2.0533
 2769TIP3   OH229941   0.488   0.158   8.210  0.3583  0.5759  0.2465
 2769TIP3    H129942   0.501   0.109   8.129  3.7894 -0.1180  1.0588
 2769TIP3    H229943   0.404   0.128   8.244 -1.1681  0.8674 -2.9537
 2770TIP3   OH229944   0.335   5.677   2.020 -0.3056  0.4734  0.8825
 2770TIP3    H129945   0.388   5.749   1.986 -0.8164  0.6385  0.4328
 2770TIP3    H229946   0.397   5.606   2.035 -0.0953  0.3449 -0.5287
 2771TIP3   OH229947   2.042   0.492   2.606 -0.5249 -0.6927 -0.0379
 2771TIP3    H129948   1.995   0.416   2.640 -0.2705 -0.1234  1.6866
 2771TIP3    H229949   1.973   0.557   2.591 -0.5972 -0.8178 -0.2539
 2772TIP3   OH229950   3.013   0.533   1.726 -0.1273  0.8798  0.3276
 2772TIP3    H129951   2.928   0.531   1.680 -0.5309 -0.0251  1.0696
 2772TIP3    H229952   3.076   0.502   1.661 -0.2786  1.9209 -0.3529
 2773TIP3   OH229953   6.143   0.090   0.771 -0.4399 -0.4684 -0.4451
 2773TIP3    H129954   6.200   0.158   0.807  0.7690 -0.7655 -1.6973
 2773TIP3    H229955   6.118   0.122   0.684 -2.2200 -0.3527  0.0680
 2774TIP3   OH229956   3.145   3.984   0.886  0.4828 -1.0129  0.2958
 2774TIP3    H129957   3.067   3.963   0.836  0.9265  0.6031 -1.1624
 2774TIP3    H229958   3.112   4.026   0.966 -0.1778 -2.1277  0.6271
 2775TIP3   OH229959   5.314   3.069   8.892 -0.0966  0.7685 -0.5470
 2775TIP3    H129960   5.404   3.076   8.859 -0.1541  1.5489 -0.5623
 2775TIP3    H229961   5.286   3.160   8.905 -1.0370  0.5490 -0.9454
 2776TIP3   OH229962   5.264   4.800   2.854 -0.2237 -0.0518 -0.0202
 2776TIP3    H129963   5.176   4.765   2.841 -0.6680  1.0858 -0.2376
 2776TIP3    H229964   5.311   4.731   2.900 -0.7777 -1.2925 -1.2447
 2777TIP3   OH229965   3.208   2.226   1.768  0.4176 -0.5179  0.2372
 2777TIP3    H129966   3.124   2.188   1.742  0.6910  0.2402 -1.9589
 2777TIP3    H229967   3.187   2.279   1.845 -1.6765  1.5966 -1.6207
 2778TIP3   OH229968   2.466   0.292   2.324 -0.0312 -0.1748 -0.4283
 2778TIP3    H129969   2.390   0.278   2.266 -0.9074 -0.1996  0.6994
 2778TIP3    H229970   2.434   0.349   2.393  0.9293 -0.3687  0.1980
 2779TIP3   OH229971   4.788   3.895   2.417  0.2279  0.1743 -0.0665
 2779TIP3    H129972   4.718   3.834   2.395  0.2359 -0.7791  2.2831
 2779TIP3    H229973   4.770   3.922   2.507  2.3304  0.6737  0.2740
 2780TIP3   OH229974   3.033   0.495   7.697 -0.5834  0.3724 -0.2590
 2780TIP3    H129975   3.045   0.405   7.667 -0.5170 -0.0553  0.9912
 2780TIP3    H229976   2.961   0.528   7.644 -0.4073 -0.3139 -0.9470
 2781TIP3   OH229977   0.481   2.685   8.387  0.1535 -0.3464  0.1871
 2781TIP3    H129978   0.522   2.654   8.306  2.4020 -0.0644  1.1476
 2781TIP3    H229979   0.410   2.741   8.357  0.4277 -0.8723 -1.5967
 2782TIP3   OH229980   3.313   6.673   6.852  0.1470  0.1526 -0.4675
 2782TIP3    H129981   3.348   6.748   6.900  0.0997  0.4303 -0.8585
 2782TIP3    H229982   3.248   6.711   6.793  0.8533 -0.0442 -1.4039
 2783TIP3   OH229983   4.474   2.777   7.922 -0.2089 -0.5623  0.0342
 2783TIP3    H129984   4.408   2.770   7.853  1.1543  0.2382 -1.3950
 2783TIP3    H229985   4.463   2.696   7.973 -1.1959 -1.2071 -1.1324
 2784TIP3   OH229986   5.403   6.003   7.568  0.4252  0.8668 -0.9619
 2784TIP3    H129987   5.462   5.929   7.580 -0.6604  0.1059 -0.0898
 2784TIP3    H229988   5.430   6.041   7.484  0.8779 -0.6441 -1.5481
 2785TIP3   OH229989   1.262   3.052   2.370 -0.0690  0.3009 -0.2948
 2785TIP3    H129990   1.256   3.148   2.372 -1.9300  0.3094 -2.3176
 2785TIP3    H229991   1.237   3.025   2.459 -0.2278  1.6706  0.0998
 2786TIP3   OH229992   2.554   4.428   8.656  0.3642 -0.2812 -0.5322
 2786TIP3    H129993   2.575   4.342   8.691  1.0459 -0.0654 -0.3932
 2786TIP3    H229994   2.553   4.416   8.561 -0.6132 -0.6729 -0.4772
 2787TIP3   OH229995   1.598   0.687   1.085 -0.0304 -0.0632  0.3186
 2787TIP3    H129996   1.575   0.728   1.001 -0.6549  0.3866  0.7038
 2787TIP3    H229997   1.647   0.608   1.060 -0.9276 -0.3835 -0.4952
 2788TIP3   OH229998   3.356   3.408   8.685 -0.2536  0.1392 -0.3302
 2788TIP3    H129999   3.420   3.417   8.756  1.1267  1.1250 -1.6400
 2788TIP3    H230000   3.297   3.339   8.714  1.1024 -0.4421  1.1554
 2789TIP3   OH230001   2.144   6.254   7.093  0.0871 -0.5645 -0.2219
 2789TIP3    H130002   2.236   6.249   7.117 -0.5887 -1.3844  2.5163
 2789TIP3    H230003   2.144   6.295   7.006  2.9631 -0.0047 -0.0489
 2790TIP3   OH230004   1.480   4.898   8.013 -0.4513 -0.3260 -0.3772
 2790TIP3    H130005   1.398   4.947   8.012 -1.3938 -1.8466 -1.4312
 2790TIP3    H230006   1.485   4.862   8.102 -0.8073 -0.0498 -0.2427
 2791TIP3   OH230007   0.239   3.553   8.235 -0.2372  0.1096  0.3153
 2791TIP3    H130008   0.187   3.490   8.285 -1.6509  0.6267 -0.4467
 2791TIP3    H230009   0.247   3.514   8.148  2.4539 -0.9182  0.9244
 2792TIP3   OH230010   0.119   0.954   8.096 -0.2010 -0.3395  0.1307
 2792TIP3    H130011   0.142   0.862   8.091  1.4150  0.1044 -2.3982
 2792TIP3    H230012   0.201   1.001   8.077 -0.8558  1.6589  1.7957
 2793TIP3   OH230013   6.365   6.076   0.927 -0.4899 -0.3013  0.2431
 2793TIP3    H130014   6.414   6.081   0.846 -0.7513  1.5196  0.1564
 2793TIP3    H230015   6.306   6.001   0.915  1.1178 -1.5390 -0.2567
 2794TIP3   OH230016   2.168   2.649   7.313 -0.0404 -0.2373  0.1119
 2794TIP3    H130017   2.133   2.593   7.243 -1.6385  0.8208  0.0080
 2794TIP3    H230018   2.123   2.619   7.392 -0.4341  0.4661  0.1629
 2795TIP3   OH230019   1.115   3.367   7.335  0.2432  0.3230  0.6111
 2795TIP3    H130020   1.136   3.281   7.301  0.6074  0.4768  0.4353
 2795TIP3    H230021   1.113   3.356   7.430 -2.0818 -0.4004  0.5379
 2796TIP3   OH230022   4.270   2.106   2.690 -0.3100 -0.5346 -0.0207
 2796TIP3    H130023   4.226   2.139   2.611 -0.5549 -1.0396 -0.0997
 2796TIP3    H230024   4.331   2.176   2.714  0.9970 -1.0512 -1.6372
 2797TIP3   OH230025   0.350   3.495   6.417  0.1591 -0.1643 -0.5888
 2797TIP3    H130026   0.295   3.484   6.495  1.1263 -1.1172 -0.0027
 2797TIP3    H230027   0.289   3.491   6.344 -0.7714  0.7038  0.1001
 2798TIP3   OH230028   0.242   3.187   7.719 -0.2876 -0.3272  0.5063
 2798TIP3    H130029   0.169   3.131   7.694 -1.0399  0.4240  0.9668
 2798TIP3    H230030   0.243   3.256   7.652  0.2284 -0.5268  0.3033
 2799TIP3   OH230031   5.466   1.347   1.745  0.1357  0.1727  0.1562
 2799TIP3    H130032   5.495   1.307   1.663 -0.2107  0.2461 -0.0016
 2799TIP3    H230033   5.390   1.399   1.720  0.1238  0.3161  0.4988
 2800TIP3   OH230034   0.857   3.508   7.262 -0.1505  0.0280  0.4200
 2800TIP3    H130035   0.802   3.434   7.235 -0.3204  0.3517 -0.1208
 2800TIP3    H230036   0.943   3.470   7.277 -0.1171 -0.1995 -0.3275
 2801TIP3   OH230037   5.292   6.090   1.378 -0.0158  0.3566 -0.5363
 2801TIP3    H130038   5.208   6.104   1.423  0.2276  1.0971 -0.2881
 2801TIP3    H230039   5.344   6.040   1.441 -0.7123 -1.3117 -1.2200
 2802TIP3   OH230040   4.674   2.416   8.027  0.1627 -0.0943  0.4776
 2802TIP3    H130041   4.697   2.338   8.079  1.3207 -1.5157 -1.9945
 2802TIP3    H230042   4.743   2.479   8.046 -0.5635  0.2345  2.1942
 2803TIP3   OH230043   3.392   6.401   1.209 -0.1625  0.7518 -0.0190
 2803TIP3    H130044   3.452   6.429   1.140  0.4534  0.1252  0.2547
 2803TIP3    H230045   3.448   6.389   1.286 -0.7122  0.6265  0.3667
 2804TIP3   OH230046   0.594   1.808   7.902 -0.1232  0.0499  0.0033
 2804TIP3    H130047   0.556   1.896   7.901 -1.8721 -0.6704  0.5977
 2804TIP3    H230048   0.549   1.762   7.831  0.4938 -0.5002 -0.0406
 2805TIP3   OH230049   4.544   5.182   7.620 -0.7147  0.2438 -0.3767
 2805TIP3    H130050   4.469   5.184   7.680  0.0732  0.9377  0.6198
 2805TIP3    H230051   4.570   5.089   7.618  0.3043  0.4051  1.7682
 2806TIP3   OH230052   5.100   0.837   1.482  0.2515  0.5467 -0.2376
 2806TIP3    H130053   5.045   0.763   1.459  0.1679  0.4987  0.1073
 2806TIP3    H230054   5.176   0.799   1.527  0.8750  0.5614 -1.2524
 2807TIP3   OH230055   4.152   3.646   7.556 -0.6252 -0.0819  0.2501
 2807TIP3    H130056   4.162   3.742   7.555 -3.7569  0.3439  0.7837
 2807TIP3    H230057   4.127   3.624   7.467 -1.6233 -0.1395  0.5342
 2808TIP3   OH230058   4.369   5.928   0.496 -0.6553  0.0828 -0.0916
 2808TIP3    H130059   4.381   6.015   0.534  0.1803 -0.2230  0.3835
 2808TIP3    H230060   4.278   5.926   0.467  0.2638  2.6690 -4.0197
 2809TIP3   OH230061   1.541   5.592   1.604  0.5330 -0.6465  0.1346
 2809TIP3    H130062   1.477   5.520   1.603  1.4964 -1.5198 -0.5034
 2809TIP3    H230063   1.605   5.566   1.671  0.4132  0.0532  0.5266
 2810TIP3   OH230064   0.219   2.186   1.258 -0.1501 -0.3956  0.2996
 2810TIP3    H130065   0.314   2.170   1.259 -0.3053 -1.4134  1.4800
 2810TIP3    H230066   0.205   2.248   1.329 -0.3202  0.1483 -0.2040
 2811TIP3   OH230067   3.362   5.387   7.418  0.5852 -0.4948  0.3070
 2811TIP3    H130068   3.395   5.390   7.508  0.3514 -0.5779  0.3957
 2811TIP3    H230069   3.439   5.365   7.365  0.4707 -1.7095  0.6268
 2812TIP3   OH230070   2.219   1.726   2.464  0.2239  0.7067  0.2192
 2812TIP3    H130071   2.197   1.649   2.412  1.1172  1.1725 -0.8839
 2812TIP3    H230072   2.146   1.735   2.525  0.2847 -1.2297  0.6372
 2813TIP3   OH230073   0.928   2.958   8.668  0.0032 -0.1407 -0.4900
 2813TIP3    H130074   0.923   2.887   8.731 -1.5421  0.1780 -0.2184
 2813TIP3    H230075   0.965   2.918   8.589 -0.1203 -1.0655 -0.0851
 2814TIP3   OH230076   6.670   1.871   2.599  0.5525 -0.1155 -0.2373
 2814TIP3    H130077   6.635   1.941   2.544  1.8262  1.0740  0.3946
 2814TIP3    H230078   6.764   1.872   2.582  0.8079 -0.5351  1.0423
 2815TIP3   OH230079   3.246   6.380   8.106 -0.7950 -0.1421 -0.0568
 2815TIP3    H130080   3.251   6.323   8.182 -0.0174  0.5496  0.4285
 2815TIP3    H230081   3.249   6.469   8.143 -0.3819  0.2012 -0.8968
 2816TIP3   OH230082   2.123   1.311   0.666  0.3668 -0.0411 -0.6234
 2816TIP3    H130083   2.110   1.401   0.694 -2.5171 -0.9297  1.4762
 2816TIP3    H230084   2.167   1.317   0.582  0.5377  3.2848 -0.4100
 2817TIP3   OH230085   3.245   4.637   1.575  0.2333 -0.1086 -0.3170
 2817TIP3    H130086   3.335   4.661   1.595  0.2989 -0.5139 -0.1006
 2817TIP3    H230087   3.228   4.560   1.630 -0.3473  0.1549 -0.1183
 2818TIP3   OH230088   1.890   0.263   7.343  0.2792 -0.8432  0.3482
 2818TIP3    H130089   1.848   0.274   7.429 -0.0242 -1.1733  0.2449
 2818TIP3    H230090   1.980   0.294   7.356  0.2041 -0.7876  0.7554
 2819TIP3   OH230091   5.539   2.882   2.140  0.1290 -0.0314 -0.6616
 2819TIP3    H130092   5.461   2.938   2.138  1.1431  1.4234 -0.4301
 2819TIP3    H230093   5.506   2.797   2.167 -1.5987  0.1908 -1.8953
 2820TIP3   OH230094   1.286   2.388   0.173  0.5272  0.4217  0.4038
 2820TIP3    H130095   1.315   2.313   0.224  0.0772 -0.1489 -0.1604
 2820TIP3    H230096   1.311   2.464   0.225  3.0254 -0.0088 -0.0225
 2821TIP3   OH230097   4.364   1.342   0.502  0.1744 -0.8555 -0.3432
 2821TIP3    H130098   4.288   1.372   0.553 -1.0142 -2.5220 -1.0405
 2821TIP3    H230099   4.439   1.362   0.558 -0.8608 -0.1555  0.8579
 2822TIP3   OH230100   6.400   2.282   6.892 -0.1758 -0.4654  0.0482
 2822TIP3    H130101   6.450   2.320   6.820 -0.4032 -0.6680 -0.2223
 2822TIP3    H230102   6.464   2.230   6.941 -0.1768 -0.9457 -0.4559
 2823TIP3   OH230103   3.423   2.356   7.243 -0.1315 -0.5970 -0.1184
 2823TIP3    H130104   3.503   2.360   7.190  0.6612 -0.9532  0.9998
 2823TIP3    H230105   3.353   2.339   7.180  0.5636  0.3941 -1.2168
 2824TIP3   OH230106   6.072   5.209   7.620 -0.0713  0.2570 -0.0310
 2824TIP3    H130107   6.031   5.272   7.562 -1.2559 -0.1217  0.3634
 2824TIP3    H230108   6.161   5.240   7.631  0.1083  0.4683 -1.8490
 2825TIP3   OH230109   0.760   6.283   8.033  0.0534 -0.6130 -0.6483
 2825TIP3    H130110   0.760   6.205   8.089  0.2229  0.2574  0.6108
 2825TIP3    H230111   0.750   6.249   7.944 -0.7239 -2.0110 -0.0511
 2826TIP3   OH230112   4.281   4.598   7.420  0.0061  0.2226 -0.5495
 2826TIP3    H130113   4.350   4.662   7.438 -0.2997  0.5944 -0.6966
 2826TIP3    H230114   4.300   4.565   7.332  0.5178 -0.3463 -0.2341
 2827TIP3   OH230115   3.667   2.197   7.177  0.2869  0.5385 -0.1931
 2827TIP3    H130116   3.757   2.230   7.177  0.1805  0.8367 -0.5661
 2827TIP3    H230117   3.632   2.221   7.091  0.4170 -1.1671 -0.7631
 2828TIP3   OH230118   5.203   5.188   2.445 -0.0244 -0.5837 -0.3884
 2828TIP3    H130119   5.188   5.281   2.464  2.0367 -0.1154 -0.8117
 2828TIP3    H230120   5.218   5.185   2.351  1.0892 -1.1466 -0.2079
 2829TIP3   OH230121   4.624   3.712   7.605 -0.2130  0.2207 -0.6697
 2829TIP3    H130122   4.649   3.641   7.546 -1.1172  0.8104 -1.8186
 2829TIP3    H230123   4.694   3.777   7.596  0.3991 -0.3151  0.0613
 2830TIP3   OH230124   4.501   3.258   0.649  0.0108  0.3650  0.5043
 2830TIP3    H130125   4.532   3.272   0.560 -0.6792 -0.8827  0.0332
 2830TIP3    H230126   4.438   3.329   0.664 -1.3074 -0.4659 -0.7440
 2831TIP3   OH230127   5.136   2.073   3.212  0.0505 -0.1380 -0.1285
 2831TIP3    H130128   5.184   2.120   3.280  0.4412 -0.8801  0.1135
 2831TIP3    H230129   5.060   2.129   3.193 -0.5680 -0.3530  1.5729
 2832TIP3   OH230130   0.984   6.643   1.382  0.5738 -0.1888  0.1292
 2832TIP3    H130131   1.049   6.690   1.331  1.3430 -0.9736  0.3663
 2832TIP3    H230132   0.968   6.563   1.332 -0.2325  0.0047  0.0616
 2833TIP3   OH230133   3.950   5.251   1.868 -0.0346  0.3393 -0.0089
 2833TIP3    H130134   4.003   5.193   1.923 -0.9814 -0.1871  0.3694
 2833TIP3    H230135   3.980   5.233   1.778  0.6144  0.2528  0.2207
 2834TIP3   OH230136   5.490   6.562   8.895 -0.3129  0.2754 -0.0710
 2834TIP3    H130137   5.510   6.547   8.987 -3.3477 -0.9068  0.5254
 2834TIP3    H230138   5.457   6.652   8.892  0.2280  0.4721 -0.0886
 2835TIP3   OH230139   0.073   2.127   1.795 -0.1966 -0.0975 -0.5783
 2835TIP3    H130140   0.097   2.202   1.850  1.4581 -0.6035 -0.5664
 2835TIP3    H230141   0.079   2.052   1.854 -0.8386 -0.3603 -0.8471
 2836TIP3   OH230142   6.369   3.386   8.094 -0.4121  0.4527 -0.4169
 2836TIP3    H130143   6.394   3.306   8.141 -1.4216 -0.7944 -1.9090
 2836TIP3    H230144   6.440   3.399   8.031  0.0216  1.0708  0.1846
 2837TIP3   OH230145   0.866   4.033   1.442 -1.0160  0.0282 -0.0490
 2837TIP3    H130146   0.922   4.066   1.372  1.1867 -1.5777  0.8327
 2837TIP3    H230147   0.863   3.938   1.428 -0.1370 -0.3963  2.2085
 2838TIP3   OH230148   3.647   5.403   7.342  0.2322 -0.7020  0.0228
 2838TIP3    H130149   3.697   5.438   7.268  0.0362 -1.1974 -0.3563
 2838TIP3    H230150   3.710   5.400   7.414  0.2164  0.5108  0.0936
 2839TIP3   OH230151   5.634   5.537   0.190  0.0621 -0.3485 -0.1015
 2839TIP3    H130152   5.604   5.588   0.114  0.1496 -1.8424 -1.1813
 2839TIP3    H230153   5.575   5.563   0.260  0.7339  1.9862 -0.3036
 2840TIP3   OH230154   2.882   6.732   6.730  0.2947  0.1151 -0.1942
 2840TIP3    H130155   2.828   6.653   6.730  0.0273  0.2946 -0.4718
 2840TIP3    H230156   2.971   6.700   6.717  0.0376 -0.0552 -1.7444
 2841TIP3   OH230157   6.458   1.398   7.152 -0.2265  0.0220  0.3007
 2841TIP3    H130158   6.487   1.386   7.062 -1.2103  0.5543 -0.1033
 2841TIP3    H230159   6.363   1.398   7.147 -0.3047 -0.2748  1.3956
 2842TIP3   OH230160   0.380   0.363   2.225 -0.2961 -0.1830  0.4568
 2842TIP3    H130161   0.330   0.432   2.270  0.2156  0.5029 -0.0118
 2842TIP3    H230162   0.323   0.286   2.231 -1.2998  0.5082  0.1756
 2843TIP3   OH230163   6.656   0.067   7.230 -0.3408  0.0211 -0.7113
 2843TIP3    H130164   6.711   0.089   7.306 -0.1099 -1.1226 -0.5325
 2843TIP3    H230165   6.684  -0.021   7.204  1.2466  1.2426 -3.6145
 2844TIP3   OH230166   1.008   2.012   0.772 -0.6716 -0.1904 -0.1160
 2844TIP3    H130167   0.925   1.983   0.733 -0.5704 -0.8324  0.1408
 2844TIP3    H230168   1.074   1.955   0.733 -0.2854  0.5818 -0.6260
 2845TIP3   OH230169   3.986   6.440   1.551 -0.1445  0.2275  0.1496
 2845TIP3    H130170   4.059   6.446   1.612  0.6105  3.5023 -0.8869
 2845TIP3    H230171   3.911   6.472   1.601 -0.5276 -1.3334  0.6318
 2846TIP3   OH230172   0.351   6.351   7.982 -0.2097  0.5492  0.0752
 2846TIP3    H130173   0.264   6.331   8.016 -0.9201 -0.2891 -2.0754
 2846TIP3    H230174   0.380   6.426   8.034 -1.8070  0.2639  1.4667
 2847TIP3   OH230175   1.991   6.284   7.710  0.1342  0.3005  0.3015
 2847TIP3    H130176   2.024   6.286   7.620 -0.9718  1.0641 -0.1071
 2847TIP3    H230177   1.997   6.192   7.736 -1.4085 -0.3125 -1.2958
 2848TIP3   OH230178   4.969   2.615   7.869  0.0579 -0.2537 -0.2577
 2848TIP3    H130179   5.059   2.583   7.859  0.9644  2.4408 -2.1667
 2848TIP3    H230180   4.968   2.658   7.955  0.2838 -1.1247  0.1883
 2849TIP3   OH230181   4.003   1.722   1.307  0.0880  0.5184  0.1185
 2849TIP3    H130182   3.955   1.654   1.260 -0.2277 -0.0529  1.2380
 2849TIP3    H230183   3.949   1.800   1.295 -0.3158  0.2360  0.0703
 2850TIP3   OH230184   2.443   1.707   0.518 -0.2536 -0.1087 -0.0815
 2850TIP3    H130185   2.460   1.623   0.560  0.6203 -0.6819 -1.5005
 2850TIP3    H230186   2.352   1.726   0.538  0.2913  0.0731  2.7021
 2851TIP3   OH230187   6.800   0.406   7.820 -0.0153  0.2141 -0.0216
 2851TIP3    H130188   6.790   0.354   7.740 -1.1280  1.6286 -0.8632
 2851TIP3    H230189   6.888   0.443   7.814  0.0097  0.0926 -0.4595
 2852TIP3   OH230190   0.579   5.258   0.251  0.1451 -0.4550 -0.1649
 2852TIP3    H130191   0.507   5.214   0.206 -0.8963 -1.1939  2.0945
 2852TIP3    H230192   0.544   5.344   0.274 -0.4368 -1.1542  1.7680
 2853TIP3   OH230193   6.621   0.019   2.865  0.2740 -0.1695 -0.5040
 2853TIP3    H130194   6.683   0.082   2.902  0.2067 -1.5231  2.1772
 2853TIP3    H230195   6.537   0.043   2.905 -0.1002 -0.8304 -0.8826
 2854TIP3   OH230196   6.403   4.641   0.829  0.2145 -0.2521 -0.0365
 2854TIP3    H130197   6.427   4.729   0.800 -0.4329 -0.2576 -0.6247
 2854TIP3    H230198   6.314   4.629   0.795 -0.8139 -0.0712  2.4322
 2855TIP3   OH230199   2.538   1.452   2.663 -0.0452  0.3973  0.0356
 2855TIP3    H130200   2.448   1.421   2.659  0.0930 -0.1079  0.7609
 2855TIP3    H230201   2.546   1.512   2.589 -1.6607  2.2919  1.3061
 2856TIP3   OH230202   3.970   1.812   2.615 -0.2076  0.3079  0.6773
 2856TIP3    H130203   3.918   1.748   2.664  1.2536 -0.6462  1.0363
 2856TIP3    H230204   3.975   1.888   2.672 -1.4767  0.5679  0.4879
 2857TIP3   OH230205   1.241   0.742   7.173  0.5326 -0.2306  0.6997
 2857TIP3    H130206   1.333   0.763   7.158  0.9660 -1.3758  1.5862
 2857TIP3    H230207   1.203   0.824   7.206  1.6610 -0.2082  2.0278
 2858TIP3   OH230208   1.815   0.218   0.936 -0.1596 -0.5591  0.3576
 2858TIP3    H130209   1.848   0.297   0.892  1.1897 -0.9360  0.6330
 2858TIP3    H230210   1.894   0.170   0.960 -0.9460 -1.6022  0.9256
 2859TIP3   OH230211   3.487   6.698   0.360 -0.1052 -0.2717 -0.3434
 2859TIP3    H130212   3.520   6.609   0.367 -0.0478 -0.1752  0.7407
 2859TIP3    H230213   3.545   6.740   0.297  0.5334 -0.7020 -0.0554
 2860TIP3   OH230214   3.734   0.097   8.635 -0.6050  0.7464 -0.2070
 2860TIP3    H130215   3.737   0.003   8.654 -2.5767  0.6551 -0.0991
 2860TIP3    H230216   3.730   0.138   8.722  2.8319  1.1689 -0.1225
 2861TIP3   OH230217   4.373   3.271   0.039  0.1078  0.3069  0.1235
 2861TIP3    H130218   4.383   3.339  -0.029 -0.1969  0.7150  0.4823
 2861TIP3    H230219   4.365   3.320   0.121 -0.4418 -0.1537  0.3516
 2862TIP3   OH230220   3.053   5.483   0.014  0.5217 -0.2977 -0.7311
 2862TIP3    H130221   3.070   5.577   0.017  0.6863 -0.3291 -0.7143
 2862TIP3    H230222   3.078   5.450   0.100 -2.3961  0.1264  0.4038
 2863TIP3   OH230223   4.478   6.765   1.823 -0.2391  0.7578  0.3250
 2863TIP3    H130224   4.407   6.828   1.824  1.4052  2.7330  0.2585
 2863TIP3    H230225   4.538   6.798   1.756 -0.0761 -1.8403 -0.9273
 2864TIP3   OH230226   0.879   3.126   2.625 -0.1530 -0.2827  0.2442
 2864TIP3    H130227   0.857   3.139   2.717 -0.6608 -2.2898  0.4535
 2864TIP3    H230228   0.973   3.141   2.620 -0.4169  1.8474  0.6478
 2865TIP3   OH230229   1.914   4.271   7.565 -0.3385  0.1484 -0.9163
 2865TIP3    H130230   1.833   4.220   7.572  0.7794 -1.7419 -0.9206
 2865TIP3    H230231   1.885   4.362   7.565 -2.2937 -0.3406  1.9785
 2866TIP3   OH230232   5.200   3.073   7.319  0.1497 -0.3360 -0.0114
 2866TIP3    H130233   5.234   2.983   7.318 -1.2452 -0.9324 -2.4890
 2866TIP3    H230234   5.127   3.070   7.380  0.3900 -0.7554  0.2688
 2867TIP3   OH230235   0.024   2.585   8.051 -0.6848 -0.4817  0.0700
 2867TIP3    H130236  -0.056   2.614   8.006 -0.1375 -1.5841 -1.7319
 2867TIP3    H230237   0.027   2.491   8.034 -0.0166 -0.8125  1.8224
 2868TIP3   OH230238   3.780   1.950   1.886  0.1686  0.4177  0.2882
 2868TIP3    H130239   3.807   1.932   1.796 -0.0175 -0.1960  0.3500
 2868TIP3    H230240   3.736   2.034   1.882  2.7773  1.9061  0.3021
 2869TIP3   OH230241   4.720   3.561   0.780 -0.1283 -0.1290 -0.0244
 2869TIP3    H130242   4.627   3.548   0.761  0.1860  1.1498 -2.9252
 2869TIP3    H230243   4.763   3.560   0.695  2.5495 -0.5543  1.2222
 2870TIP3   OH230244   5.404   3.014   0.491  0.2202  0.4509  0.3865
 2870TIP3    H130245   5.405   3.058   0.576 -0.1377 -0.2468  0.7567
 2870TIP3    H230246   5.319   2.971   0.487  1.3060 -1.8868  0.9311
 2871TIP3   OH230247   1.479   1.126   1.776  0.3140  0.2514 -0.2224
 2871TIP3    H130248   1.389   1.153   1.758  1.2573  3.3458 -0.8985
 2871TIP3    H230249   1.475   1.086   1.863 -1.4893  1.7556  0.4541
 2872TIP3   OH230250   2.344   6.100   1.827 -0.0725 -0.6933 -0.1869
 2872TIP3    H130251   2.344   6.098   1.923 -1.6292  0.5217 -0.1444
 2872TIP3    H230252   2.431   6.133   1.804 -0.3133  0.7450  0.8653
 2873TIP3   OH230253   6.555   5.726   1.936 -0.1145  0.7669  0.5133
 2873TIP3    H130254   6.459   5.722   1.939 -0.1318  1.5848  1.2509
 2873TIP3    H230255   6.580   5.647   1.887 -1.0376 -0.8402  2.4964
 2874TIP3   OH230256   2.239   1.130   1.753  0.4238 -0.1958 -0.0225
 2874TIP3    H130257   2.150   1.127   1.787  0.5893 -0.0484  0.4482
 2874TIP3    H230258   2.244   1.058   1.690  0.9032 -2.3886  2.3343
 2875TIP3   OH230259   5.996   0.324   6.595  0.3003 -0.3850  0.0882
 2875TIP3    H130260   5.948   0.284   6.667  0.5052 -1.3957 -0.3158
 2875TIP3    H230261   6.042   0.251   6.553  2.6717  0.5950  0.8101
 2876TIP3   OH230262   3.995   2.081   8.092  0.0699  0.0733 -0.1692
 2876TIP3    H130263   4.007   2.032   8.173 -1.2571 -0.9132 -0.5368
 2876TIP3    H230264   4.057   2.041   8.031  0.8677  0.6307  0.2516
 2877TIP3   OH230265   0.101   1.145   6.610  0.7209 -0.1399  0.0291
 2877TIP3    H130266   0.181   1.197   6.604  0.2742  0.5241 -0.2553
 2877TIP3    H230267   0.107   1.103   6.696  1.8220 -0.8641 -0.3693
 2878TIP3   OH230268   1.504   1.824   7.809  0.0610  0.1917 -0.3111
 2878TIP3    H130269   1.598   1.838   7.800  0.1860 -0.9455 -1.0061
 2878TIP3    H230270   1.478   1.783   7.726 -0.9997  0.2476 -0.0247
 2879TIP3   OH230271   3.318   1.133   8.414 -0.2871  0.3555  0.1939
 2879TIP3    H130272   3.365   1.095   8.340 -1.9485 -1.3943 -0.0453
 2879TIP3    H230273   3.384   1.138   8.484  1.0527  1.1335 -1.0817
 2880TIP3   OH230274   1.903   4.810   7.711  0.2780  0.3070  0.7890
 2880TIP3    H130275   1.817   4.786   7.677  1.3480 -1.2627 -1.0048
 2880TIP3    H230276   1.913   4.902   7.688 -0.0974 -0.0452 -0.8950
 2881TIP3   OH230277   4.324   6.004   2.790 -0.2122  0.0294  0.3221
 2881TIP3    H130278   4.284   6.090   2.801  1.3788  0.8033  0.2606
 2881TIP3    H230279   4.329   5.969   2.879 -1.5024 -0.3426  0.2804
 2882TIP3   OH230280   6.332   1.599   1.920 -0.0245  0.0448 -0.5904
 2882TIP3    H130281   6.302   1.687   1.940  0.2871  0.4779 -1.9423
 2882TIP3    H230282   6.400   1.581   1.985 -0.8140  0.3727  0.3488
 2883TIP3   OH230283   5.262   3.643   0.584  0.3653 -0.0043 -0.0856
 2883TIP3    H130284   5.302   3.562   0.553 -0.4697 -0.8756  1.0095
 2883TIP3    H230285   5.272   3.704   0.512 -1.5755 -1.9230 -2.1232
 2884TIP3   OH230286   1.410   0.494   7.601  0.2334 -0.2082  0.5670
 2884TIP3    H130287   1.456   0.484   7.684  0.0902 -0.2361  0.6436
 2884TIP3    H230288   1.479   0.512   7.537  0.3747 -0.4928  0.6374
 2885TIP3   OH230289   5.392   5.812   0.285  0.5453  0.0721  0.2125
 2885TIP3    H130290   5.318   5.871   0.274  0.2010 -0.0804  1.5041
 2885TIP3    H230291   5.462   5.869   0.319  0.2104 -0.2216  1.4665
 2886TIP3   OH230292   6.794   5.121   0.897  0.9347 -0.3870  0.4221
 2886TIP3    H130293   6.708   5.162   0.886  1.8782  1.7612  0.4650
 2886TIP3    H230294   6.853   5.173   0.841  2.2978 -1.4592  0.7996
 2887TIP3   OH230295   0.539   2.210   0.891 -0.7249 -0.0801  0.2815
 2887TIP3    H130296   0.533   2.303   0.869 -0.0066  0.3462  1.7422
 2887TIP3    H230297   0.516   2.206   0.984 -1.9109 -1.5309 -0.0507
 2888TIP3   OH230298   6.648   4.845   8.632 -0.4608  0.2019 -0.2938
 2888TIP3    H130299   6.710   4.912   8.661 -0.5919  0.3862 -0.4314
 2888TIP3    H230300   6.685   4.811   8.551 -0.5298  0.3040 -0.3701
 2889TIP3   OH230301   5.142   5.752   7.296 -0.0124 -0.4233 -0.4018
 2889TIP3    H130302   5.119   5.845   7.301 -0.1729 -0.3330 -2.2677
 2889TIP3    H230303   5.082   5.716   7.231 -0.1492 -1.9229  0.5065
 2890TIP3   OH230304   2.198   4.202   0.597 -0.0888  0.2160  0.3386
 2890TIP3    H130305   2.124   4.161   0.642 -0.4307  0.2929 -0.1549
 2890TIP3    H230306   2.270   4.140   0.610 -0.4289 -0.2168  0.1795
 2891TIP3   OH230307   6.300   0.907   2.169 -0.1494 -0.0606 -0.3672
 2891TIP3    H130308   6.359   0.918   2.244  1.3320 -1.2351 -1.2986
 2891TIP3    H230309   6.276   0.996   2.144  0.4777  0.4041  0.6208
 2892TIP3   OH230310   5.451   6.297   2.125 -0.6469  0.4380  0.0010
 2892TIP3    H130311   5.462   6.333   2.037  0.2774  0.3737  0.0896
 2892TIP3    H230312   5.520   6.339   2.177 -1.0702  0.3372  0.6574
 2893TIP3   OH230313   3.056   5.248   1.452 -0.1303  0.2442  0.6240
 2893TIP3    H130314   3.003   5.175   1.421  1.2029 -0.6056  0.2232
 2893TIP3    H230315   3.017   5.325   1.412  0.0230 -0.5566 -1.1433
 2894TIP3   OH230316   0.799   1.903   0.665  0.4117 -0.2728  0.3615
 2894TIP3    H130317   0.796   1.940   0.577 -0.6254 -1.5406 -0.1731
 2894TIP3    H230318   0.758   1.817   0.656  2.6484 -1.5714  1.5445
 2895TIP3   OH230319   3.922   5.388   1.319  0.4921  0.4665 -0.0477
 2895TIP3    H130320   3.902   5.468   1.270 -3.0160 -0.6204 -0.7162
 2895TIP3    H230321   3.958   5.328   1.255  0.3857  0.5848 -0.2197
 2896TIP3   OH230322   1.635   1.824   8.471  0.1057  0.5136  0.2569
 2896TIP3    H130323   1.542   1.847   8.478  0.2757  1.8161 -1.2066
 2896TIP3    H230324   1.636   1.728   8.475 -1.6366  0.2718 -2.2938
 2897TIP3   OH230325   4.711   0.014   1.400 -0.2424  0.3047 -0.0963
 2897TIP3    H130326   4.690  -0.071   1.361  0.1694 -0.3007  0.9856
 2897TIP3    H230327   4.661   0.077   1.347  0.5867 -0.4285 -1.8484
 2898TIP3   OH230328   6.615   3.668   0.253  0.4043 -0.2187 -0.3334
 2898TIP3    H130329   6.639   3.758   0.234 -0.6899 -0.3166 -2.4913
 2898TIP3    H230330   6.533   3.674   0.302  0.4484 -0.0329 -0.2850
 2899TIP3   OH230331   6.501   2.449   2.374  0.0322  0.0032 -0.7614
 2899TIP3    H130332   6.538   2.443   2.462 -0.7283  1.5782 -0.3024
 2899TIP3    H230333   6.577   2.450   2.316  0.7359  2.3067  0.1050
 2900TIP3   OH230334   0.749   5.609   8.514  0.7709  0.1162 -0.4857
 2900TIP3    H130335   0.785   5.546   8.452 -0.7410  0.0610 -1.3525
 2900TIP3    H230336   0.825   5.648   8.556  1.7643 -1.5936 -0.6216
 2901TIP3   OH230337   4.765   4.435   1.265 -0.0188  0.7545  0.3775
 2901TIP3    H130338   4.719   4.486   1.333 -0.6656  1.4365 -0.5518
 2901TIP3    H230339   4.853   4.424   1.300  0.1353  2.5036  0.6215
 2902TIP3   OH230340   6.268   5.709   0.420  0.3741  0.0483 -0.2871
 2902TIP3    H130341   6.240   5.618   0.412  3.5088 -1.1066  0.4946
 2902TIP3    H230342   6.279   5.739   0.330  1.3850 -1.1162 -0.5907
 2903TIP3   OH230343   5.682   1.789   0.729 -0.4625  0.0392  0.0468
 2903TIP3    H130344   5.644   1.702   0.736  1.6550 -0.8605  1.5361
 2903TIP3    H230345   5.617   1.847   0.768 -0.9340 -1.2105  1.1882
 2904TIP3   OH230346   6.809   6.403   7.551 -0.1353  0.5769  0.0221
 2904TIP3    H130347   6.838   6.313   7.561 -1.7046  0.0284 -0.0459
 2904TIP3    H230348   6.814   6.419   7.456 -1.3355  0.0031 -0.1594
 2905TIP3   OH230349   2.225   5.245   0.519  0.3969  0.9425 -0.6320
 2905TIP3    H130350   2.237   5.311   0.451 -0.0645  1.9223  0.2261
 2905TIP3    H230351   2.150   5.193   0.489 -0.2816  1.8432 -0.5128
 2906TIP3   OH230352   2.337   4.903   0.657 -0.1248  0.0335  0.0392
 2906TIP3    H130353   2.340   4.820   0.705  0.5773  0.0107 -0.0279
 2906TIP3    H230354   2.246   4.932   0.663  0.0865  0.3907  1.9726
 2907TIP3   OH230355   2.121   5.279   0.244 -0.4954 -0.0189 -0.6003
 2907TIP3    H130356   2.198   5.316   0.201  0.0613 -1.4385 -0.8694
 2907TIP3    H230357   2.047   5.306   0.190 -0.2172  1.3673 -0.3320
 2908TIP3   OH230358   6.752   3.371   0.555 -0.1097 -0.1319  0.4590
 2908TIP3    H130359   6.693   3.444   0.534  0.0193  0.4973  2.1521
 2908TIP3    H230360   6.726   3.301   0.495 -2.9696 -0.0855  1.5130
 2909TIP3   OH230361   2.205   1.162   0.372  0.2669 -0.1356 -0.3864
 2909TIP3    H130362   2.167   1.240   0.331 -0.8292 -1.0322 -1.1300
 2909TIP3    H230363   2.217   1.100   0.300  0.9841 -0.7190  0.2168
 2910TIP3   OH230364   0.434   6.520   8.207 -0.5634 -0.3326 -0.6575
 2910TIP3    H130365   0.350   6.560   8.185 -0.7894 -0.0941  0.5606
 2910TIP3    H230366   0.419   6.478   8.292  1.5129  2.9002  1.5140
 2911TIP3   OH230367   4.042   2.807   1.908 -0.0546 -0.0608 -0.3285
 2911TIP3    H130368   4.110   2.743   1.884 -0.2730 -0.1543 -0.7012
 2911TIP3    H230369   4.017   2.782   1.997  0.0216 -0.3559 -0.3869
 2912TIP3   OH230370   2.036   5.803   1.165 -0.3689  0.0885 -0.5803
 2912TIP3    H130371   2.093   5.729   1.144  0.0591  0.8534 -2.3692
 2912TIP3    H230372   2.092   5.880   1.154 -0.6728  0.7032  1.7028
 2913TIP3   OH230373   5.043   2.742   0.471 -0.5110  0.2513  1.1480
 2913TIP3    H130374   5.037   2.833   0.444 -2.3503  0.2124  1.2658
 2913TIP3    H230375   5.120   2.708   0.427 -0.8628  1.3787 -0.3967
 2914TIP3   OH230376   1.375   0.907   1.367  0.0173  0.3142  0.3912
 2914TIP3    H130377   1.422   0.906   1.284  0.8848 -0.8207  0.8646
 2914TIP3    H230378   1.337   0.995   1.372  0.7004  0.7026 -0.7780
 2915TIP3   OH230379   2.859   2.068   0.472  0.4975  0.2400  0.0579
 2915TIP3    H130380   2.839   2.046   0.562 -2.0051  0.7511 -0.2779
 2915TIP3    H230381   2.843   1.988   0.423  1.1885  0.1422 -0.0092
 2916TIP3   OH230382   0.502   5.510   1.596 -0.2080 -0.0951  0.0107
 2916TIP3    H130383   0.539   5.492   1.509 -0.3879  2.0011 -0.5765
 2916TIP3    H230384   0.422   5.459   1.599 -0.6569  0.4443 -1.4620
 2917TIP3   OH230385   6.768   3.541   0.788 -0.3252 -0.5571  0.5609
 2917TIP3    H130386   6.742   3.457   0.752  0.3846 -0.4506 -0.2314
 2917TIP3    H230387   6.823   3.580   0.720  0.8303 -0.2298  1.6606
 2918TIP3   OH230388   1.141   4.407   8.364 -0.2365  0.9524  1.4360
 2918TIP3    H130389   1.048   4.427   8.375 -0.4042  0.4177  1.0348
 2918TIP3    H230390   1.146   4.361   8.280  0.3748  0.8807  1.5061
 2919TIP3   OH230391   0.244   4.576   8.195 -0.6648 -0.3354  0.2310
 2919TIP3    H130392   0.305   4.614   8.258  0.0313 -1.1825  0.0762
 2919TIP3    H230393   0.204   4.503   8.242 -0.7289 -0.4831 -0.0530
 2920TIP3   OH230394   5.622   1.487   0.691  0.0026  0.3344  0.4444
 2920TIP3    H130395   5.706   1.445   0.673  0.7130  1.5374  0.8380
 2920TIP3    H230396   5.625   1.509   0.784 -0.1684  1.6015  0.1635
 2921TIP3   OH230397   0.520   4.903   7.624  0.7659 -0.1212  0.4049
 2921TIP3    H130398   0.456   4.954   7.574 -0.2719 -0.7037  1.0934
 2921TIP3    H230399   0.603   4.947   7.607  0.0147  1.4100  0.4264
 2922TIP3   OH230400   2.639   5.514   7.853  0.4124 -0.0019  0.1463
 2922TIP3    H130401   2.678   5.518   7.941  2.1060 -1.4494 -0.4841
 2922TIP3    H230402   2.656   5.424   7.824 -1.1234  0.1140 -1.2413
 2923TIP3   OH230403   6.628   1.184   0.647 -0.2064  0.1756 -0.5268
 2923TIP3    H130404   6.652   1.103   0.694  1.6059 -0.4766 -2.4368
 2923TIP3    H230405   6.701   1.200   0.588 -1.9001  1.5252 -2.3896
 2924TIP3   OH230406   1.512   3.671   6.800 -0.1042 -0.5480 -0.7049
 2924TIP3    H130407   1.591   3.620   6.817  0.9730  1.1800 -0.3105
 2924TIP3    H230408   1.453   3.609   6.757  1.1206 -2.1174 -0.2286
 2925TIP3   OH230409   6.165   1.412   0.194 -0.5771  0.6288  0.2713
 2925TIP3    H130410   6.143   1.447   0.108 -1.7262  1.4531  0.8851
 2925TIP3    H230411   6.117   1.329   0.200  0.1544  0.1537 -0.1809
 2926TIP3   OH230412   1.510   5.390   0.200  0.3249 -0.3690 -0.1742
 2926TIP3    H130413   1.441   5.324   0.200 -3.3221  3.0538  0.2005
 2926TIP3    H230414   1.513   5.421   0.291 -1.4308  2.9174 -1.0945
 2927TIP3   OH230415   1.311   2.635   8.772 -0.1239  0.0246  0.0670
 2927TIP3    H130416   1.230   2.619   8.821  0.1813 -1.0733  0.2321
 2927TIP3    H230417   1.293   2.603   8.684 -0.2101  0.7334 -0.1772
 2928TIP3   OH230418   5.571   2.313   7.770 -0.6144  0.2941  0.0978
 2928TIP3    H130419   5.535   2.226   7.785  0.4910 -0.2233 -0.1229
 2928TIP3    H230420   5.629   2.303   7.694  1.0182  0.7578  1.2163
 2929TIP3   OH230421   5.658   4.124   1.302 -0.2981  0.5847 -0.0566
 2929TIP3    H130422   5.752   4.108   1.299 -0.3110  0.4261  0.2585
 2929TIP3    H230423   5.623   4.053   1.356 -0.7527 -0.0086 -1.0994
 2930TIP3   OH230424   5.724   3.465   2.463  0.1580  0.1158  0.0506
 2930TIP3    H130425   5.637   3.490   2.495  0.2018 -2.8059  3.0246
 2930TIP3    H230426   5.709   3.383   2.415  1.2017 -0.0151 -0.0738
 2931TIP3   OH230427   3.140   0.942   0.898  0.3529  0.4454  0.1408
 2931TIP3    H130428   3.111   0.963   0.810  2.6885  0.6675 -0.6511
 2931TIP3    H230429   3.122   1.020   0.949 -0.8618  0.3761 -0.1523
 2932TIP3   OH230430   4.214   5.320   2.761  0.1219  0.6173 -0.2508
 2932TIP3    H130431   4.208   5.314   2.665  1.2642  0.4764 -0.3233
 2932TIP3    H230432   4.248   5.408   2.777  0.3466  0.4810  0.0098
 2933TIP3   OH230433   5.134   0.454   2.295 -0.1999 -0.2045  0.0697
 2933TIP3    H130434   5.054   0.443   2.346  0.4096 -2.8217  0.5825
 2933TIP3    H230435   5.205   0.430   2.356  0.7343 -0.8454 -1.2191
 2934TIP3   OH230436   3.457   3.643   0.107 -0.3289 -0.1065  0.6706
 2934TIP3    H130437   3.365   3.633   0.085  0.3185 -2.0545 -1.6360
 2934TIP3    H230438   3.459   3.649   0.203 -2.7847 -0.3501  0.7902
 2935TIP3   OH230439   4.382   2.145   6.900 -0.0749 -0.4263 -0.0405
 2935TIP3    H130440   4.459   2.121   6.849  0.1813 -1.1063  0.6502
 2935TIP3    H230441   4.371   2.239   6.883  1.2273 -0.1969  0.2755
 2936TIP3   OH230442   1.371   4.945   8.651 -0.1361  0.1290  0.2920
 2936TIP3    H130443   1.290   4.995   8.643 -0.1094  0.2361  0.6691
 2936TIP3    H230444   1.440   5.011   8.656 -0.0690  0.0483  0.4351
 2937TIP3   OH230445   5.037   5.229   7.741 -0.0686 -0.0053 -0.1599
 2937TIP3    H130446   5.048   5.319   7.711  2.4913  0.2512  1.2321
 2937TIP3    H230447   4.946   5.225   7.770 -0.2056  2.2066 -0.0595
 2938TIP3   OH230448   5.982   1.691   0.231  0.9176  0.0666  0.6480
 2938TIP3    H130449   5.999   1.636   0.155 -0.2034 -1.8022  1.6823
 2938TIP3    H230450   5.962   1.777   0.194 -2.4236 -1.4140 -1.4453
 2939TIP3   OH230451   2.557   2.205   7.243  0.7075  0.8062 -0.4466
 2939TIP3    H130452   2.628   2.266   7.263  0.4141  0.9173  0.2854
 2939TIP3    H230453   2.477   2.252   7.269  0.5197 -0.1112  0.7457
 2940TIP3   OH230454   6.809   3.853   1.492 -0.2498  0.3383  0.1449
 2940TIP3    H130455   6.796   3.851   1.397 -0.6584 -0.4672  0.2080
 2940TIP3    H230456   6.766   3.773   1.524  0.4815  0.2404  0.9270
 2941TIP3   OH230457   0.343   2.662   1.135  0.0169  0.1550  0.2216
 2941TIP3    H130458   0.422   2.631   1.090  0.6095  0.1872  1.2176
 2941TIP3    H230459   0.374   2.729   1.196 -0.7201 -0.1012  0.9018
 2942TIP3   OH230460   5.136   2.998   8.314  0.2736 -0.3887  0.6920
 2942TIP3    H130461   5.209   3.004   8.252 -0.0692  1.4349  0.4197
 2942TIP3    H230462   5.156   3.063   8.381  0.1972 -1.7185  2.0769
 2943TIP3   OH230463   5.371   4.028   1.649  0.4639 -1.1278  0.3105
 2943TIP3    H130464   5.465   4.021   1.662  0.6781  0.5212 -0.0696
 2943TIP3    H230465   5.341   3.938   1.636  2.3132 -1.5294 -1.8211
 2944TIP3   OH230466   2.077   1.573   0.697 -0.2770  0.1663  0.0237
 2944TIP3    H130467   2.050   1.575   0.789 -2.1873  2.2531 -0.4986
 2944TIP3    H230468   2.077   1.665   0.670  1.3570 -0.3114 -1.7937
 2945TIP3   OH230469   1.436   5.566   6.981 -0.1497  0.3780  0.2453
 2945TIP3    H130470   1.497   5.592   7.050 -0.6497 -0.4497  1.0200
 2945TIP3    H230471   1.356   5.541   7.028 -0.7236  0.4299 -0.6833
 2946TIP3   OH230472   1.235   3.601   6.960  0.0801 -0.5163  0.2697
 2946TIP3    H130473   1.276   3.673   6.912 -1.6405  0.8074  0.7051
 2946TIP3    H230474   1.298   3.579   7.028  0.4003  0.9937  0.4951
 2947TIP3   OH230475   1.676   6.468   8.428 -0.6930 -0.6459  0.5020
 2947TIP3    H130476   1.598   6.413   8.415 -0.6764 -0.4390 -0.5314
 2947TIP3    H230477   1.699   6.498   8.341  0.0929 -0.0644  0.8993
 2948TIP3   OH230478   0.617   5.284   8.809  0.3209 -0.3802  0.0113
 2948TIP3    H130479   0.584   5.194   8.810  0.7621 -0.5524  1.0197
 2948TIP3    H230480   0.711   5.275   8.796  0.5949 -0.1903  1.5813
 2949TIP3   OH230481   1.999   0.177   8.003  0.7450  0.0570  0.3370
 2949TIP3    H130482   2.058   0.252   8.012  1.9072 -0.7152 -0.5944
 2949TIP3    H230483   1.920   0.214   7.963  1.3197  0.7738 -0.1644
 2950TIP3   OH230484   0.730   2.879   7.995  0.3074  1.0991  0.3781
 2950TIP3    H130485   0.679   2.912   7.921 -1.8142 -1.1302  0.7160
 2950TIP3    H230486   0.773   2.801   7.962  0.0322  0.5697  1.2343
 2951TIP3   OH230487   6.384   0.031   1.711  0.4693  0.4079  0.2202
 2951TIP3    H130488   6.420   0.094   1.773 -0.2384  0.7942  0.2515
 2951TIP3    H230489   6.298   0.066   1.689 -0.4320 -1.1328  1.1067
 2952TIP3   OH230490   4.426   6.816   7.654 -0.4884  0.3539 -0.7130
 2952TIP3    H130491   4.506   6.786   7.610 -0.1619  1.5724 -0.9776
 2952TIP3    H230492   4.367   6.741   7.648  1.0243 -1.0362  0.5840
 2953TIP3   OH230493   3.150   0.609   8.103 -0.6943 -0.1602  0.3098
 2953TIP3    H130494   3.077   0.619   8.043  0.3156 -1.5046 -1.2327
 2953TIP3    H230495   3.204   0.687   8.089  0.5653 -1.3502 -2.1237
 2954TIP3   OH230496   4.294   4.538   2.203 -0.1106 -0.3353  0.1974
 2954TIP3    H130497   4.267   4.537   2.111 -1.4234  0.4425  0.5506
 2954TIP3    H230498   4.238   4.473   2.244 -1.3390  1.0927  0.8889
 2955TIP3   OH230499   1.155   5.680   2.083  0.1027 -0.1790 -0.2483
 2955TIP3    H130500   1.097   5.623   2.133 -0.7716  0.7273 -0.1890
 2955TIP3    H230501   1.148   5.765   2.127 -2.5444  1.3254 -3.1433
 2956TIP3   OH230502   3.221   4.884   1.738  0.3113  0.3029 -0.1542
 2956TIP3    H130503   3.266   4.856   1.818 -0.2786  0.2017  0.1475
 2956TIP3    H230504   3.278   4.854   1.667  2.1297  2.6032  0.2347
 2957TIP3   OH230505   6.081   0.995   7.855 -0.1814  0.0447 -0.0711
 2957TIP3    H130506   6.175   1.014   7.863 -0.0961  0.0619 -0.9904
 2957TIP3    H230507   6.064   0.927   7.920  0.2050  0.9254  0.9786
 2958TIP3   OH230508   1.626   3.241   1.309 -0.1127 -0.2523  0.1723
 2958TIP3    H130509   1.688   3.180   1.270  0.4301  1.1892 -1.3183
 2958TIP3    H230510   1.587   3.192   1.382  3.2231 -1.0049  1.6430
 2959TIP3   OH230511   3.458   2.201   8.853 -0.1018 -0.5429  0.4600
 2959TIP3    H130512   3.404   2.218   8.930 -0.1528 -2.2597  0.8606
 2959TIP3    H230513   3.446   2.277   8.797 -4.6837 -1.6596 -0.4499
 2960TIP3   OH230514   6.281   3.024   1.021 -0.0395  0.6635 -0.1729
 2960TIP3    H130515   6.305   3.108   1.060 -2.4896  0.7734  1.3580
 2960TIP3    H230516   6.322   2.958   1.077 -2.1503  0.8547  1.7645
 2961TIP3   OH230517   5.698   6.085   1.577  0.5886  0.9383 -0.1367
 2961TIP3    H130518   5.717   6.179   1.581  2.0012  0.7121 -0.7266
 2961TIP3    H230519   5.731   6.050   1.660 -0.1687  0.9891  0.1922
 2962TIP3   OH230520   0.814   5.052   1.255 -0.1013  0.5550 -0.4391
 2962TIP3    H130521   0.731   5.008   1.274  1.6685 -2.2278  1.4648
 2962TIP3    H230522   0.827   5.038   1.161 -0.2880 -1.9089 -0.1659
 2963TIP3   OH230523   5.760   1.572   0.402  0.0890 -0.5695 -0.0077
 2963TIP3    H130524   5.801   1.578   0.488  0.3971 -0.8271 -0.1372
 2963TIP3    H230525   5.806   1.637   0.348 -2.2865  2.0932  0.8752
 2964TIP3   OH230526   1.548   2.846   0.561 -0.2419  0.1642  0.1550
 2964TIP3    H130527   1.516   2.792   0.633  2.1771  0.3500  1.4588
 2964TIP3    H230528   1.628   2.803   0.532 -0.0130  1.2935 -1.0007
 2965TIP3   OH230529   1.543   0.059   8.135 -0.5713 -0.7509  0.0644
 2965TIP3    H130530   1.612   0.123   8.153  0.3049 -1.8211  0.6340
 2965TIP3    H230531   1.523   0.020   8.220  1.2298 -3.4908 -0.6370
 2966TIP3   OH230532   6.514   0.511   7.923  0.6395  0.2948 -0.1535
 2966TIP3    H130533   6.533   0.605   7.928  0.4748  0.3335 -0.2581
 2966TIP3    H230534   6.599   0.471   7.907  0.4201  0.6232 -2.5434
 2967TIP3   OH230535   1.364   5.417   1.410 -0.4027 -0.0266 -0.1555
 2967TIP3    H130536   1.314   5.499   1.404  0.1505  0.2770 -0.6326
 2967TIP3    H230537   1.331   5.375   1.489  1.6439  2.2224  2.0524
 2968TIP3   OH230538   1.119   4.575   8.719  0.7088 -0.5579 -0.6275
 2968TIP3    H130539   1.108   4.622   8.637 -1.9480  1.3115  0.6624
 2968TIP3    H230540   1.030   4.562   8.752  1.4218 -4.7204  0.1928
 2969TIP3   OH230541   3.886   0.971   8.826  0.5344 -0.1175 -0.2892
 2969TIP3    H130542   3.978   0.984   8.851  0.6291 -0.7627 -0.2827
 2969TIP3    H230543   3.846   1.057   8.838  0.4897 -0.4381  2.3430
 2970TIP3   OH230544   4.065   5.203   1.594 -0.6519 -0.2452  0.2453
 2970TIP3    H130545   4.145   5.216   1.544 -0.2660  1.7459  1.2852
 2970TIP3    H230546   4.028   5.122   1.559  1.6876 -1.1111 -0.3822
 2971TIP3   OH230547   4.907   5.670   8.055  0.2247 -0.5526 -0.4751
 2971TIP3    H130548   4.963   5.690   7.980 -0.0095 -0.5259 -0.6437
 2971TIP3    H230549   4.935   5.583   8.083  1.0387 -0.1346  0.0674
 2972TIP3   OH230550   1.060   5.705   7.769 -1.1510 -0.3667 -0.0158
 2972TIP3    H130551   1.125   5.772   7.791 -1.4702 -0.1878  0.3967
 2972TIP3    H230552   1.095   5.663   7.691  1.4469 -2.8793  2.2340
 2973TIP3   OH230553   6.448   5.797   8.553  0.2722  0.0129 -0.4954
 2973TIP3    H130554   6.496   5.858   8.497  0.0963 -0.3511 -1.0457
 2973TIP3    H230555   6.480   5.710   8.528 -0.0433 -0.1757 -0.2544
 2974TIP3   OH230556   6.117   0.718   0.588  0.3682  0.0569 -0.7315
 2974TIP3    H130557   6.069   0.796   0.616  2.0587  1.2143 -0.9156
 2974TIP3    H230558   6.207   0.748   0.575  0.8871 -1.7396 -1.6815
 2975TIP3   OH230559   1.243   4.246   0.383 -0.1711 -0.2788  0.2569
 2975TIP3    H130560   1.261   4.189   0.308  0.5156 -0.3137  0.4435
 2975TIP3    H230561   1.256   4.190   0.460  0.8487  0.1937  0.4529
 2976TIP3   OH230562   5.284   4.435   8.023  0.1914 -0.3054  0.0191
 2976TIP3    H130563   5.232   4.475   7.954 -1.5416 -0.3126  1.2632
 2976TIP3    H230564   5.301   4.346   7.993 -1.8689 -0.8098  0.2456
 2977TIP3   OH230565   6.589   0.049   0.877  0.0031 -0.4096 -0.0103
 2977TIP3    H130566   6.606   0.142   0.892 -0.3632 -0.2952 -0.2722
 2977TIP3    H230567   6.587   0.040   0.782  0.7604 -0.8286  0.0047
 2978TIP3   OH230568   6.506   4.147   0.240  0.1342 -0.5116  0.1616
 2978TIP3    H130569   6.527   4.213   0.306 -4.5183  0.1341  1.3208
 2978TIP3    H230570   6.477   4.071   0.289 -1.6436 -0.7076 -1.1025
 2979TIP3   OH230571   2.878   5.239   0.915  0.4085  0.1778  0.0949
 2979TIP3    H130572   2.840   5.152   0.929  0.1267  0.3304  0.2955
 2979TIP3    H230573   2.934   5.253   0.992 -0.6285  0.7432  0.7834
 2980TIP3   OH230574   0.769   3.816   8.062  0.0785  0.0749  0.1722
 2980TIP3    H130575   0.684   3.850   8.089  0.4622  2.8972 -1.6807
 2980TIP3    H230576   0.754   3.724   8.042 -2.0894  0.0638  1.5596
 2981TIP3   OH230577   3.975   2.509   0.915  0.1029  0.0402 -0.2200
 2981TIP3    H130578   4.023   2.492   0.995  0.6362 -0.9907 -0.7357
 2981TIP3    H230579   3.884   2.486   0.935 -0.0669  1.2825  0.5318
 2982TIP3   OH230580   4.962   3.324   0.666 -0.2132 -0.1391 -0.2787
 2982TIP3    H130581   4.890   3.272   0.629  0.0002 -0.6414 -0.0091
 2982TIP3    H230582   5.006   3.362   0.591 -0.0091 -0.8431 -0.5221
 2983TIP3   OH230583   5.258   1.602   2.166  0.0747 -0.4621  0.9180
 2983TIP3    H130584   5.223   1.669   2.108  0.9316  0.4034  1.3709
 2983TIP3    H230585   5.182   1.571   2.215 -0.7274 -1.4311 -0.8292
 2984TIP3   OH230586   1.830   1.617   6.707 -0.0520 -0.0404  0.0296
 2984TIP3    H130587   1.801   1.616   6.616 -0.4850 -1.4192  0.1688
 2984TIP3    H230588   1.850   1.526   6.727  1.9364  0.4874  0.7318
 2985TIP3   OH230589   0.242   2.064   0.909  0.0223  0.4117  0.5093
 2985TIP3    H130590   0.276   2.034   0.993 -1.4298  0.2596  1.0740
 2985TIP3    H230591   0.300   2.025   0.844  0.0260 -1.0632  1.3612
 2986TIP3   OH230592   5.563   2.803   0.186 -0.6583  0.0454 -0.0779
 2986TIP3    H130593   5.549   2.742   0.114  0.6836  0.7031 -0.9269
 2986TIP3    H230594   5.575   2.748   0.263 -0.5747 -0.7138 -0.6300
 2987TIP3   OH230595   1.815   3.787   0.975 -0.0020  0.3583 -0.1144
 2987TIP3    H130596   1.861   3.715   1.020 -0.6287  0.2700  0.4039
 2987TIP3    H230597   1.881   3.855   0.965  0.1898  0.3252  0.8308
 2988TIP3   OH230598   1.866   4.557   8.295  0.6026  0.1240 -0.1184
 2988TIP3    H130599   1.818   4.489   8.248  0.7643 -0.7551  0.9503
 2988TIP3    H230600   1.863   4.633   8.237 -0.8480 -0.3384 -0.6904
 2989TIP3   OH230601   0.405   4.141   8.884 -0.1604 -0.2116 -0.4013
 2989TIP3    H130602   0.483   4.198   8.883 -0.5807  0.4887 -3.3744
 2989TIP3    H230603   0.334   4.199   8.910 -0.1996  0.0326 -1.0320
 2990TIP3   OH230604   4.033   4.732   7.774 -0.6089  0.0787  0.0314
 2990TIP3    H130605   4.045   4.643   7.740 -1.7239  0.2678 -0.8937
 2990TIP3    H230606   4.017   4.719   7.867 -1.5680 -0.7614 -0.2338
 2991TIP3   OH230607   0.725   5.310   0.474 -0.6713 -0.7015  0.2995
 2991TIP3    H130608   0.659   5.320   0.541 -0.0576  0.7051  0.7192
 2991TIP3    H230609   0.678   5.273   0.399 -1.4573 -1.8083  1.3127
 2992TIP3   OH230610   5.887   5.730   1.043 -0.0972  0.0800 -0.2391
 2992TIP3    H130611   5.888   5.708   1.136  1.3637  0.7155 -0.0783
 2992TIP3    H230612   5.825   5.803   1.036  0.1076  0.3171  0.3187
 2993TIP3   OH230613   4.620   5.629   1.286  0.0017  0.4375  0.5443
 2993TIP3    H130614   4.622   5.715   1.244 -1.8691  0.1951 -0.1711
 2993TIP3    H230615   4.561   5.641   1.361 -1.5106 -0.5183 -0.4270
 2994TIP3   OH230616   2.235   2.346   7.559 -1.0053  0.5869 -0.4303
 2994TIP3    H130617   2.250   2.391   7.642  3.0715  0.1728 -0.7280
 2994TIP3    H230618   2.177   2.273   7.582  0.5280  0.0690  2.2953
 2995TIP3   OH230619   2.967   1.363   2.238  0.0211 -0.0738 -0.2253
 2995TIP3    H130620   2.896   1.419   2.205 -0.2762  0.7253  1.6149
 2995TIP3    H230621   2.948   1.277   2.203 -1.5696  0.2473 -0.2485
 2996TIP3   OH230622   2.340   6.804   0.954 -0.1952 -0.4860  0.0326
 2996TIP3    H130623   2.343   6.759   0.869  1.4509 -0.1289 -0.1319
 2996TIP3    H230624   2.248   6.826   0.966 -0.6079 -1.4024 -1.2012
 2997TIP3   OH230625   3.614   2.406   0.332 -0.1844  0.2177 -0.2150
 2997TIP3    H130626   3.708   2.421   0.336  0.1704 -1.3790 -1.3718
 2997TIP3    H230627   3.575   2.493   0.326  1.2201  0.8881  0.0950
 2998TIP3   OH230628   4.954   0.451   8.156 -0.0841 -0.2959  0.3527
 2998TIP3    H130629   5.046   0.470   8.175  0.3741  1.0297 -2.7020
 2998TIP3    H230630   4.954   0.359   8.128  0.1980 -0.4692  0.9061
 2999TIP3   OH230631   6.407   2.388   1.263  0.0284  0.0232  0.0062
 2999TIP3    H130632   6.492   2.350   1.240 -1.5555 -3.8147 -0.2683
 2999TIP3    H230633   6.388   2.353   1.350 -1.7297 -0.1595 -0.4123
 3000TIP3   OH230634   6.550   3.486   1.897 -0.4734 -0.2324  0.4132
 3000TIP3    H130635   6.588   3.527   1.975  1.0065 -1.4684  0.3926
 3000TIP3    H230636   6.485   3.549   1.866 -1.0680  0.3198  2.5963
 3001TIP3   OH230637   0.949   3.469   8.641 -0.3673 -0.0319  0.0084
 3001TIP3    H130638   0.853   3.474   8.645 -0.3044  0.9436  0.3781
 3001TIP3    H230639   0.979   3.523   8.713  0.4925  1.1318 -1.1801
 3002TIP3   OH230640   5.116   6.692   7.434 -0.6403  0.5171 -0.4509
 3002TIP3    H130641   5.077   6.621   7.382 -0.7594  0.5483 -0.4034
 3002TIP3    H230642   5.044   6.725   7.488 -0.3571  0.0407  0.2273
 3003TIP3   OH230643   6.323   4.214   1.477  0.4435 -0.0385 -0.6237
 3003TIP3    H130644   6.416   4.239   1.481  0.1220  1.1107 -0.2316
 3003TIP3    H230645   6.304   4.209   1.383  0.9680 -0.5588 -0.7088
 3004TIP3   OH230646   6.713   0.238   7.618 -0.1617 -0.1795  0.0652
 3004TIP3    H130647   6.740   0.230   7.527 -1.1697  0.1372 -0.2790
 3004TIP3    H230648   6.736   0.154   7.658  1.8734  0.2821 -0.0195
 3005TIP3   OH230649   3.825   5.427   7.869  0.2366 -0.1128 -0.1550
 3005TIP3    H130650   3.826   5.409   7.774 -0.3966 -2.8582  0.2573
 3005TIP3    H230651   3.915   5.411   7.897  0.3319  0.3008 -0.2180
 3006TIP3   OH230652   3.478   0.047   8.007  0.2274 -0.3962 -0.0340
 3006TIP3    H130653   3.390   0.054   7.970 -0.5963 -0.8620  1.7389
 3006TIP3    H230654   3.479  -0.038   8.051  1.3552 -0.1349  0.4693
 3007TIP3   OH230655   5.561   3.046   8.741 -0.0714  0.5142  0.0251
 3007TIP3    H130656   5.618   3.112   8.703  0.0130 -0.5106 -1.6963
 3007TIP3    H230657   5.506   3.016   8.669  0.3762 -1.7990  0.5619
 3008TIP3   OH230658   4.765   1.744   2.924 -0.4734  0.0131  0.8179
 3008TIP3    H130659   4.731   1.828   2.954  2.2078  2.1113 -1.3458
 3008TIP3    H230660   4.853   1.738   2.962  0.5709 -0.2206 -1.4115
 3009TIP3   OH230661   1.841   6.503   1.733  0.1188 -0.2223 -0.4186
 3009TIP3    H130662   1.829   6.476   1.642 -0.0574  3.1352 -1.5342
 3009TIP3    H230663   1.757   6.544   1.757  0.7018  0.3728  0.6631
 3010TIP3   OH230664   5.281   5.686   8.819 -0.3866  0.1933 -0.1904
 3010TIP3    H130665   5.215   5.672   8.887  1.1761 -1.5737  1.1055
 3010TIP3    H230666   5.280   5.605   8.767  1.4097 -0.3522  0.5291
 3011TIP3   OH230667   0.963   4.645   8.239  0.3094 -0.0684  0.0160
 3011TIP3    H130668   0.947   4.738   8.227 -0.2536 -0.1728 -0.0511
 3011TIP3    H230669   0.882   4.602   8.212 -0.8279 -0.3572  3.3903
 3012TIP3   OH230670   4.451   6.333   8.620 -0.4942 -0.0888  0.0242
 3012TIP3    H130671   4.366   6.292   8.633 -1.5373  2.4168  2.0169
 3012TIP3    H230672   4.511   6.281   8.673 -1.7526  0.7565  2.4350
 3013TIP3   OH230673   4.276   2.767   2.511  0.1793  0.4418 -0.1321
 3013TIP3    H130674   4.250   2.828   2.442  0.0521  0.2351 -0.2709
 3013TIP3    H230675   4.199   2.761   2.567  0.1261  0.2743 -0.2197
 3014TIP3   OH230676   4.438   0.823   8.744  0.2742 -0.5032 -0.2817
 3014TIP3    H130677   4.387   0.753   8.786 -1.1619  0.5084 -0.2779
 3014TIP3    H230678   4.453   0.791   8.655 -1.4894 -0.3272 -0.6924
 3015TIP3   OH230679   1.354   2.964   2.100 -0.3069 -0.0564 -0.5020
 3015TIP3    H130680   1.317   3.026   2.038 -1.5007 -1.0651 -0.8316
 3015TIP3    H230681   1.373   3.017   2.178 -1.1442  0.7527 -0.8315
 3016TIP3   OH230682   0.737   6.561   1.758  0.6938  0.5522  0.2698
 3016TIP3    H130683   0.730   6.644   1.710 -0.5636 -0.1671 -0.8741
 3016TIP3    H230684   0.647   6.540   1.783  0.8270 -0.9863 -0.4134
 3017TIP3   OH230685   4.713   2.597   2.029 -0.5846 -0.1560 -0.1083
 3017TIP3    H130686   4.641   2.536   2.014 -1.0434  0.6266 -1.2680
 3017TIP3    H230687   4.691   2.640   2.111 -0.4543 -1.2577  0.5187
 3018TIP3   OH230688   5.603   5.645   1.657 -0.1204 -0.4497 -0.2548
 3018TIP3    H130689   5.615   5.586   1.582 -1.5906 -2.2049  0.8048
 3018TIP3    H230690   5.510   5.639   1.678  0.5969 -2.0281  3.2147
 3019TIP3   OH230691   4.847   3.847   7.514  0.3650 -0.4499 -0.4913
 3019TIP3    H130692   4.938   3.818   7.503  1.2678  0.7967  2.5948
 3019TIP3    H230693   4.854   3.939   7.542 -1.8274 -0.3756 -0.0054
 3020TIP3   OH230694   6.686   0.718   0.447  0.5808 -0.1539 -0.5809
 3020TIP3    H130695   6.739   0.749   0.521 -0.2424 -1.5083  0.6353
 3020TIP3    H230696   6.596   0.726   0.478  0.1102  0.8751 -2.1173
 3021TIP3   OH230697   3.335   1.862   2.356  0.2307 -0.3762 -0.3573
 3021TIP3    H130698   3.276   1.814   2.298 -1.8730 -1.1388  2.2010
 3021TIP3    H230699   3.316   1.827   2.443  3.7434  0.1692  0.7739
 3022TIP3   OH230700   2.217   2.178   2.452  0.5093 -0.0748 -0.3033
 3022TIP3    H130701   2.125   2.155   2.452  0.1289  1.3563 -0.6763
 3022TIP3    H230702   2.234   2.212   2.540  0.2037  1.3544 -0.7680
 3023TIP3   OH230703   4.285   4.417   2.643  0.3562 -0.3324  0.3773
 3023TIP3    H130704   4.304   4.328   2.613 -1.3128 -1.0841  1.3839
 3023TIP3    H230705   4.189   4.421   2.645  0.3509  0.3905  3.3168
 3024TIP3   OH230706   5.021   1.681   0.521 -0.6347 -0.0464  0.1661
 3024TIP3    H130707   4.997   1.774   0.518 -0.9471 -0.1488 -1.4385
 3024TIP3    H230708   4.940   1.636   0.546 -0.8339  0.0195 -0.3436
 3025TIP3   OH230709   3.498   2.169   0.278  0.3991 -0.7378 -0.5000
 3025TIP3    H130710   3.535   2.247   0.320 -0.0660 -1.8128  2.1285
 3025TIP3    H230711   3.542   2.165   0.193  0.2594  2.4711 -0.8465
 3026TIP3   OH230712   6.053   6.158   8.518  0.2160  0.4367 -0.0861
 3026TIP3    H130713   5.963   6.132   8.538 -0.0084  1.2600  0.0256
 3026TIP3    H230714   6.097   6.161   8.603  0.7174 -1.1934 -0.2464
 3027TIP3   OH230715   4.974   2.693   3.228 -0.7546 -0.3624  0.4404
 3027TIP3    H130716   4.981   2.678   3.134 -0.7941  0.2690  0.3294
 3027TIP3    H230717   5.055   2.737   3.251 -1.1831  0.4238  0.5000
 3028TIP3   OH230718   5.080   6.507   0.844 -0.4651  0.4084 -0.0112
 3028TIP3    H130719   5.049   6.460   0.766 -1.2089 -1.3810  1.2956
 3028TIP3    H230720   5.172   6.484   0.851 -0.8189 -0.9091  0.6096
 3029TIP3   OH230721   4.444   1.749   0.791 -0.0671  0.3422  0.0821
 3029TIP3    H130722   4.472   1.681   0.730 -0.1739 -0.0289  0.4387
 3029TIP3    H230723   4.524   1.797   0.812 -0.3715  2.0025 -2.1576
 3030TIP3   OH230724   6.350   4.290   0.620  0.6110 -0.2483 -0.1669
 3030TIP3    H130725   6.318   4.345   0.548  0.5862  0.6150  0.4864
 3030TIP3    H230726   6.291   4.309   0.693  0.7854 -0.9248  0.1585
 3031TIP3   OH230727   2.583   4.041   7.773 -0.0726  0.5155 -0.3742
 3031TIP3    H130728   2.526   4.105   7.730  1.7105  2.4793 -0.0071
 3031TIP3    H230729   2.524   3.990   7.829 -1.6612  1.4121 -1.1480
 3032TIP3   OH230730   0.920   5.699   0.813 -0.7520 -0.8116  0.0599
 3032TIP3    H130731   0.853   5.631   0.811 -0.2270 -1.4289  1.4657
 3032TIP3    H230732   0.872   5.780   0.830 -1.2076 -1.1743  0.5522
 3033TIP3   OH230733   6.660   0.549   8.501  0.5545 -0.0696 -0.1067
 3033TIP3    H130734   6.691   0.634   8.470  0.0674 -0.1627 -0.8780
 3033TIP3    H230735   6.642   0.500   8.421 -0.3038 -0.4806  0.3264
 3034TIP3   OH230736   2.252   4.243   2.211  0.4931 -0.2749 -0.2311
 3034TIP3    H130737   2.264   4.174   2.276  0.3516 -0.0812  0.0015
 3034TIP3    H230738   2.316   4.223   2.142  1.8363  0.4638  0.7510
 3035TIP3   OH230739   3.863   3.928   2.204  0.5000  0.1584 -0.1891
 3035TIP3    H130740   3.920   3.962   2.135 -0.7593  2.1784 -0.3325
 3035TIP3    H230741   3.842   4.005   2.257  0.5642 -1.1465  1.8296
 3036TIP3   OH230742   3.521   1.579   7.712  0.2675  0.4180 -0.0438
 3036TIP3    H130743   3.507   1.524   7.789  0.7936 -1.2251 -1.0517
 3036TIP3    H230744   3.616   1.592   7.709  0.3773 -0.4697 -0.9907
 3037TIP3   OH230745   5.017   3.823   2.002 -0.4489 -0.0831 -0.6034
 3037TIP3    H130746   5.111   3.824   1.986 -0.3783  0.4976 -0.1833
 3037TIP3    H230747   4.986   3.908   1.972 -0.4857  0.5992  1.2461
 3038TIP3   OH230748   0.975   3.617   1.483  0.3355 -0.1020 -0.0133
 3038TIP3    H130749   1.039   3.681   1.450 -0.3003  0.6700  0.2063
 3038TIP3    H230750   0.924   3.593   1.406 -0.0307  0.3869  0.0667
 3039TIP3   OH230751   5.510   5.795   8.639 -0.0547 -0.0230 -0.1650
 3039TIP3    H130752   5.470   5.716   8.602 -0.0606  0.1569 -0.5418
 3039TIP3    H230753   5.504   5.783   8.734 -0.9328 -0.0338 -0.2194
 3040TIP3   OH230754   6.472   6.486   1.824  0.4283  0.5596 -0.3458
 3040TIP3    H130755   6.498   6.450   1.740  0.5976 -2.1088  0.7537
 3040TIP3    H230756   6.550   6.530   1.857  0.8627  0.1658 -0.8374
 3041TIP3   OH230757   0.212   5.786   6.477 -0.1604  0.6152  0.3390
 3041TIP3    H130758   0.299   5.772   6.515  0.0958 -0.2968 -0.5259
 3041TIP3    H230759   0.174   5.698   6.472  0.3754  0.4385 -2.7201
 3042TIP3   OH230760   0.747   3.453   0.525  0.2526  0.5307  0.6202
 3042TIP3    H130761   0.808   3.474   0.596  0.3782  1.5669  0.2273
 3042TIP3    H230762   0.720   3.363   0.543  1.8874  0.0415  0.8039
 3043TIP3   OH230763   5.264   2.379   2.035 -0.0008  0.1241  0.3014
 3043TIP3    H130764   5.198   2.329   1.987 -1.7189  3.1777 -0.7917
 3043TIP3    H230765   5.295   2.319   2.103 -1.9785 -2.3125 -0.8029
 3044TIP3   OH230766   3.148   3.604   7.448 -0.1641  0.3681  0.0019
 3044TIP3    H130767   3.212   3.553   7.398 -1.9898 -1.5200 -0.5690
 3044TIP3    H230768   3.177   3.599   7.539  1.3493  0.9432 -0.4290
 3045TIP3   OH230769   4.849   6.644   2.121 -0.0661 -0.0027  0.1549
 3045TIP3    H130770   4.913   6.605   2.062 -1.3681 -2.2785  0.1308
 3045TIP3    H230771   4.891   6.639   2.208  0.6566  0.6469 -0.1357
 3046TIP3   OH230772   2.072   2.604   7.719 -0.0715  0.2502  0.0393
 3046TIP3    H130773   2.029   2.688   7.703  1.3202  1.3059  1.4424
 3046TIP3    H230774   2.070   2.593   7.814  1.8823 -0.0768  0.1006
 3047TIP3   OH230775   1.870   6.266   2.046  0.0388 -0.1988  0.1880
 3047TIP3    H130776   1.886   6.328   1.975 -0.0551  1.3288  1.4457
 3047TIP3    H230777   1.787   6.294   2.084  0.4578 -0.5221  1.3726
 3048TIP3   OH230778   1.642   3.281   8.509  0.3451 -0.2437  0.3540
 3048TIP3    H130779   1.629   3.274   8.415  1.4864 -0.6213  0.2103
 3048TIP3    H230780   1.591   3.208   8.546  0.6746 -0.6833 -0.0493
 3049TIP3   OH230781   4.711   6.219   1.241 -0.2169  0.6596  0.2264
 3049TIP3    H130782   4.707   6.236   1.335  1.9392  2.2738  0.0879
 3049TIP3    H230783   4.792   6.170   1.228 -0.9325 -0.3500 -0.7328
 3050TIP3   OH230784   4.178   2.787   0.963 -0.5516 -0.3193 -0.0977
 3050TIP3    H130785   4.086   2.773   0.985 -0.4071  0.4292  1.0935
 3050TIP3    H230786   4.220   2.702   0.979 -0.9112 -0.4682  0.0581
 3051TIP3   OH230787   3.949   2.191   7.402  0.4062  0.0277 -0.0322
 3051TIP3    H130788   3.920   2.102   7.382 -0.7653  0.2803  0.4396
 3051TIP3    H230789   4.031   2.201   7.353  0.5095 -1.2649 -0.1686
 3052TIP3   OH230790   3.317   4.677   7.839 -0.5543  0.7000 -0.0874
 3052TIP3    H130791   3.281   4.761   7.809  0.9619  0.8363 -1.6946
 3052TIP3    H230792   3.311   4.620   7.762 -0.5122 -0.3189  0.6478
 3053TIP3   OH230793   1.075   0.598   0.603 -0.0405  0.3392 -0.6157
 3053TIP3    H130794   1.159   0.610   0.647  0.0763  1.3866 -1.1121
 3053TIP3    H230795   1.040   0.686   0.592 -1.2997 -0.0947 -0.2613
 3054TIP3   OH230796   2.558   1.017   0.453 -0.2158 -0.0318  0.1070
 3054TIP3    H130797   2.536   0.927   0.432  2.1763 -1.4839  2.9726
 3054TIP3    H230798   2.494   1.042   0.520 -0.4766  0.1753 -0.2166
 3055TIP3   OH230799   3.527   1.599   1.612 -0.1231  0.3919  0.0831
 3055TIP3    H130800   3.460   1.568   1.672 -0.3908 -2.2290 -1.4349
 3055TIP3    H230801   3.480   1.655   1.550 -0.8517 -0.9719 -0.6348
 3056TIP3   OH230802   6.657   3.603   2.463  0.7712  0.3188  0.4916
 3056TIP3    H130803   6.715   3.583   2.537 -0.3660 -1.2943  1.0054
 3056TIP3    H230804   6.683   3.691   2.436  0.5704  1.4257  3.4601
 3057TIP3   OH230805   5.891   4.360   0.668 -0.2888  0.1123  0.1765
 3057TIP3    H130806   5.809   4.378   0.623 -0.9697 -0.2659  1.2302
 3057TIP3    H230807   5.935   4.445   0.673 -1.7652  0.8340  1.8022
 3058TIP3   OH230808   2.586   4.133   2.103  0.4797  0.2327  0.2520
 3058TIP3    H130809   2.639   4.135   2.023  1.0255 -0.0752  0.6012
 3058TIP3    H230810   2.647   4.105   2.171  0.0788  0.7544  0.8263
 3059TIP3   OH230811   5.059   6.384   1.097  0.1098 -0.3328 -0.0282
 3059TIP3    H130812   5.054   6.435   1.178  0.1408 -0.3597 -0.0092
 3059TIP3    H230813   5.075   6.450   1.028 -1.4940 -0.1314 -0.2337
 3060TIP3   OH230814   3.653   2.391   2.033 -0.1771  0.4679 -0.3943
 3060TIP3    H130815   3.732   2.445   2.038  0.0447  0.1390 -0.3545
 3060TIP3    H230816   3.595   2.428   2.099 -0.2644  1.0498 -0.7860
 3061TIP3   OH230817   6.052   6.690   1.047  0.5364 -0.0009 -0.1737
 3061TIP3    H130818   6.125   6.688   1.109  1.7717 -3.1223 -1.5469
 3061TIP3    H230819   5.993   6.620   1.075 -0.5022  0.6063 -0.7431
 3062TIP3   OH230820   3.506   5.249   0.104  0.1965  0.1342 -0.3770
 3062TIP3    H130821   3.441   5.195   0.059 -1.2239  1.3776  0.0973
 3062TIP3    H230822   3.482   5.339   0.081  2.7767  0.6193 -1.5327
 3063TIP3   OH230823   6.160   2.153   1.873  0.5457  0.6847 -0.4434
 3063TIP3    H130824   6.112   2.071   1.873 -0.6848  1.3859 -1.2338
 3063TIP3    H230825   6.252   2.127   1.865  0.0904 -0.5857 -2.0712
 3064TIP3   OH230826   1.783   3.186   7.255 -0.1634 -0.3161 -0.3590
 3064TIP3    H130827   1.849   3.174   7.186  1.2488 -0.1897  0.9340
 3064TIP3    H230828   1.767   3.281   7.256  0.8689 -0.1300  0.3962
 3065TIP3   OH230829   0.580   6.103   7.211 -0.4985 -0.6578  0.2853
 3065TIP3    H130830   0.625   6.171   7.159 -1.8725 -0.4553 -0.6759
 3065TIP3    H230831   0.565   6.032   7.149 -1.5521 -0.6905  0.5736
 3066TIP3   OH230832   6.708   3.868   8.655  0.5087 -0.1715 -0.3036
 3066TIP3    H130833   6.702   3.949   8.605 -0.5090  0.2056  0.4008
 3066TIP3    H230834   6.617   3.843   8.672  0.8197 -1.1972 -0.0898
 3067TIP3   OH230835   6.048   1.927   7.432  0.1805  0.2947  0.3204
 3067TIP3    H130836   6.007   1.965   7.354  1.1954 -0.0659 -0.4104
 3067TIP3    H230837   6.141   1.941   7.419  0.4632 -0.9709  0.8198
 3068TIP3   OH230838   1.399   5.228   8.429  0.0250  0.1222  0.2756
 3068TIP3    H130839   1.403   5.220   8.524 -0.6178 -0.6745  0.2549
 3068TIP3    H230840   1.481   5.191   8.398 -0.8973 -2.2875  0.4292
 3069TIP3   OH230841   5.951   4.601   0.762  0.2690 -0.3528 -0.0689
 3069TIP3    H130842   6.032   4.646   0.737 -0.0955  0.0046 -0.6327
 3069TIP3    H230843   5.964   4.577   0.854  1.0897 -0.4687 -0.2058
 3070TIP3   OH230844   5.042   2.256   2.394 -0.4811  0.4530  0.4087
 3070TIP3    H130845   5.115   2.240   2.454 -0.1352 -0.3407 -0.1901
 3070TIP3    H230846   4.989   2.323   2.436  1.9626  3.0163 -0.2679
 3071TIP3   OH230847   3.957   3.784   1.670  0.3877 -0.3942  0.0504
 3071TIP3    H130848   4.043   3.812   1.702  0.4128 -0.0157 -0.3287
 3071TIP3    H230849   3.975   3.703   1.623  0.8609  0.5943 -1.5776
 3072TIP3   OH230850   3.948   5.467   1.701 -0.0958  0.3633 -0.0407
 3072TIP3    H130851   3.975   5.427   1.784  1.2041 -0.2380 -0.7186
 3072TIP3    H230852   3.936   5.393   1.641 -0.3693  0.8252 -0.5690
 3073TIP3   OH230853   0.758   3.255   8.868  0.5072 -0.3290  0.0071
 3073TIP3    H130854   0.818   3.201   8.919  4.6925  2.5563 -1.3202
 3073TIP3    H230855   0.759   3.214   8.781 -2.0993 -1.9926  0.6512
 3074TIP3   OH230856   4.497   4.438   7.467  0.0151  0.1547 -0.2244
 3074TIP3    H130857   4.469   4.486   7.388  0.7478 -0.8252 -1.1190
 3074TIP3    H230858   4.549   4.365   7.433  0.9962  0.1400  1.2122
 3075TIP3   OH230859   2.283   2.397   0.292 -0.1632 -0.3871 -0.5095
 3075TIP3    H130860   2.345   2.354   0.232 -1.2611 -2.7570 -0.0647
 3075TIP3    H230861   2.216   2.434   0.235 -0.2856 -1.1104 -0.8529
 3076TIP3   OH230862   4.461   4.888   0.692  0.1395 -0.0236 -0.2253
 3076TIP3    H130863   4.372   4.880   0.657 -1.0664  1.4316  2.1993
 3076TIP3    H230864   4.493   4.798   0.697 -0.4677 -0.4313 -2.7784
 3077TIP3   OH230865   1.016   5.096   2.103  0.2180  0.0616 -0.6760
 3077TIP3    H130866   0.995   5.143   2.022 -1.8100  1.3432  0.4915
 3077TIP3    H230867   0.995   5.159   2.173  0.8336 -1.3849  0.8688
 3078TIP3   OH230868   0.303   2.204   7.389 -0.2486 -0.0298  0.5534
 3078TIP3    H130869   0.332   2.295   7.382  1.1709 -0.3317  1.9976
 3078TIP3    H230870   0.218   2.210   7.432 -1.1345  0.7046 -1.2044
 3079TIP3   OH230871   3.721   3.078   8.733 -0.0171 -0.1500 -0.2042
 3079TIP3    H130872   3.690   3.121   8.812  0.9358  1.7725 -0.8133
 3079TIP3    H230873   3.813   3.059   8.751 -0.1974 -1.1619 -0.2825
 3080TIP3   OH230874   4.126   5.520   0.673  0.4063 -0.5028  0.1246
 3080TIP3    H130875   4.149   5.608   0.702  4.1379 -0.8830 -1.1798
 3080TIP3    H230876   4.097   5.475   0.752 -1.7299  1.8019  0.8040
 3081TIP3   OH230877   2.414   4.213   1.469 -0.0378  0.0798  0.3564
 3081TIP3    H130878   2.465   4.229   1.548 -1.9783  2.2717  1.2654
 3081TIP3    H230879   2.473   4.237   1.397  1.1671 -0.2783  1.1976
 3082TIP3   OH230880   6.633   1.649   0.054  0.4741 -0.3854  0.6004
 3082TIP3    H130881   6.651   1.555   0.053  0.9488 -0.3002  0.5665
 3082TIP3    H230882   6.622   1.673  -0.038  2.3611 -0.0571  0.4173
 3083TIP3   OH230883   1.943   4.660   7.967  0.0306 -0.0804 -0.3295
 3083TIP3    H130884   1.961   4.707   7.885  0.2390 -2.2405 -1.6132
 3083TIP3    H230885   1.849   4.667   7.978  0.1162  1.0501 -0.2089
 3084TIP3   OH230886   0.107   6.428   2.203  0.4131  0.0992 -0.0270
 3084TIP3    H130887   0.054   6.385   2.270  0.0127 -0.3484 -0.6206
 3084TIP3    H230888   0.196   6.428   2.239  0.2163 -0.1948  0.4739
 3085TIP3   OH230889   0.205   0.906   0.786 -0.3159 -0.5432  0.4719
 3085TIP3    H130890   0.197   0.842   0.857 -0.1247 -0.4567  0.5746
 3085TIP3    H230891   0.265   0.972   0.821  1.5799 -1.6223 -0.5521
 3086TIP3   OH230892   2.540   6.748   1.776  1.0055 -0.0452 -0.3281
 3086TIP3    H130893   2.612   6.769   1.836 -1.6343  2.0557  2.3740
 3086TIP3    H230894   2.558   6.801   1.698  1.2986  2.2451  1.2100
 3087TIP3   OH230895   5.976   5.483   8.349  0.1990  0.1380  0.4077
 3087TIP3    H130896   5.931   5.440   8.276 -1.8353  0.0986  1.6193
 3087TIP3    H230897   6.028   5.552   8.308 -1.3705  0.5188 -1.0537
 3088TIP3   OH230898   4.529   2.173   7.353  0.1492  0.0889 -0.9575
 3088TIP3    H130899   4.614   2.179   7.311  0.5379  0.4540 -0.1325
 3088TIP3    H230900   4.469   2.149   7.282  0.9549 -0.3416 -1.5102
 3089TIP3   OH230901   5.878   3.079   1.058  0.2081 -0.5400  0.0595
 3089TIP3    H130902   5.971   3.059   1.056  0.1824 -0.6163 -0.5018
 3089TIP3    H230903   5.842   3.036   0.980  0.0096  1.0494 -0.7553
 3090TIP3   OH230904   0.872   2.348   8.773  0.6751 -0.2239  0.1671
 3090TIP3    H130905   0.827   2.264   8.768  0.7444 -0.2076 -1.3034
 3090TIP3    H230906   0.952   2.330   8.821  1.1421 -1.2366 -0.9306
 3091TIP3   OH230907   1.381   3.304   8.021 -0.4445 -0.1681 -0.6654
 3091TIP3    H130908   1.446   3.357   7.976  2.7563 -1.6700  1.7616
 3091TIP3    H230909   1.362   3.232   7.962 -0.9938  0.9759 -1.9311
 3092TIP3   OH230910   3.595   0.254   1.023  0.0605  0.5177  0.4129
 3092TIP3    H130911   3.517   0.307   1.005  0.0616  0.5885  0.6045
 3092TIP3    H230912   3.665   0.318   1.036  0.5505  0.4103 -1.4870
 3093TIP3   OH230913   2.853   6.046   8.690  0.4370 -0.0049  0.6119
 3093TIP3    H130914   2.758   6.054   8.678  0.6102  0.4523 -0.5847
 3093TIP3    H230915   2.875   6.117   8.750 -0.0204 -0.3663  1.2274
 3094TIP3   OH230916   6.480   5.108   2.012 -0.0851 -0.1366  0.6973
 3094TIP3    H130917   6.527   5.192   2.014 -2.2813  1.2130 -0.3169
 3094TIP3    H230918   6.457   5.091   2.103  0.5328  0.2554  0.9376
 3095TIP3   OH230919   5.150   4.707   0.480  0.4727 -0.3478  0.3487
 3095TIP3    H130920   5.175   4.648   0.552 -0.8835 -1.5311 -0.1031
 3095TIP3    H230921   5.178   4.794   0.509  1.7119 -1.0746  1.4357
 3096TIP3   OH230922   5.589   1.223   0.872  0.0846 -0.1993 -0.3628
 3096TIP3    H130923   5.683   1.241   0.879  0.3032  0.3963 -3.3753
 3096TIP3    H230924   5.547   1.307   0.887  0.2567  0.1364 -1.6255
 3097TIP3   OH230925   5.375   3.693   8.681  0.4182  1.2551  0.3107
 3097TIP3    H130926   5.338   3.606   8.666 -2.2047  2.0526  1.6531
 3097TIP3    H230927   5.464   3.676   8.713 -0.5873 -1.0379  2.1770
 3098TIP3   OH230928   6.089   3.048   0.303 -0.1854  0.0732  0.2337
 3098TIP3    H130929   6.015   3.103   0.275 -0.8477 -0.5927  0.6242
 3098TIP3    H230930   6.100   2.985   0.232  0.7369  0.8434 -0.3300
 3099TIP3   OH230931   4.413   1.038   1.898 -0.1328 -0.0239 -0.1352
 3099TIP3    H130932   4.442   1.129   1.899 -1.1993  0.3380 -0.2948
 3099TIP3    H230933   4.343   1.036   1.832  1.1210 -1.3706 -1.4935
 3100TIP3   OH230934   5.443   1.533   1.955  0.4493  0.1512 -0.5206
 3100TIP3    H130935   5.463   1.463   1.893  0.3956  0.5367 -0.9839
 3100TIP3    H230936   5.381   1.495   2.016  2.2750 -0.9838  0.7423
 3101TIP3   OH230937   0.870   4.062   0.426  0.1761  0.5810 -0.4877
 3101TIP3    H130938   0.935   4.010   0.474  0.1035  0.4787 -0.4996
 3101TIP3    H230939   0.903   4.064   0.336  0.4756  1.0364 -0.3706
 3102TIP3   OH230940   0.296   4.585   8.839 -0.6040  0.1637  0.1698
 3102TIP3    H130941   0.282   4.553   8.928 -0.7771  0.7597  0.3582
 3102TIP3    H230942   0.348   4.517   8.797 -1.3795 -0.6050  0.4148
 3103TIP3   OH230943   6.644   1.184   1.514 -0.6891  0.5974 -0.4803
 3103TIP3    H130944   6.669   1.122   1.582  0.1815  1.2330 -0.1932
 3103TIP3    H230945   6.549   1.183   1.513 -0.6885 -0.6767 -0.4320
 3104TIP3   OH230946   3.260   4.535   0.117  0.2354  0.1880 -0.0494
 3104TIP3    H130947   3.255   4.543   0.212  1.6811  1.5393 -0.0376
 3104TIP3    H230948   3.186   4.586   0.084  0.8659  1.4024  0.3444
 3105TIP3   OH230949   5.419   0.549   0.856  0.0606  0.2382  0.0417
 3105TIP3    H130950   5.477   0.576   0.927 -1.1785  1.6660  0.5768
 3105TIP3    H230951   5.332   0.546   0.897 -0.5317  0.1233 -1.1849
 3106TIP3   OH230952   4.235   5.581   7.884  0.0718 -0.4354  0.2134
 3106TIP3    H130953   4.195   5.503   7.923 -0.0739 -0.7273 -0.5163
 3106TIP3    H230954   4.166   5.648   7.888  0.6888  0.1578  2.2863
 3107TIP3   OH230955   0.687   0.315   1.512 -0.0719 -0.2849 -0.0862
 3107TIP3    H130956   0.709   0.256   1.440 -2.2914 -0.2407 -0.8768
 3107TIP3    H230957   0.593   0.302   1.527 -0.3662  2.0414  0.6047
 3108TIP3   OH230958   6.330   5.630   2.512  0.0310  0.1979  0.1462
 3108TIP3    H130959   6.364   5.715   2.483 -0.9306  1.0974  1.5393
 3108TIP3    H230960   6.396   5.598   2.573  0.6503 -0.3335 -0.7756
 3109TIP3   OH230961   3.245   6.005   7.652 -0.2982  0.5872  0.0965
 3109TIP3    H130962   3.204   6.090   7.634  3.0376  2.2787 -0.2607
 3109TIP3    H230963   3.306   5.992   7.579 -1.0693 -2.4596 -0.1436
 3110TIP3   OH230964   4.825   6.603   1.821 -0.5688  0.0555  1.0427
 3110TIP3    H130965   4.819   6.698   1.811 -1.0979 -0.1514 -1.0459
 3110TIP3    H230966   4.910   6.589   1.864 -0.3692  1.4394  1.1551
 3111TIP3   OH230967   4.213   0.714   0.209 -0.3979  0.7778 -0.2215
 3111TIP3    H130968   4.188   0.672   0.127  2.4420  0.8006 -1.2293
 3111TIP3    H230969   4.220   0.807   0.188  2.3056  0.5727 -0.6368
 3112TIP3   OH230970   2.501   5.071   2.828  0.4836  0.2987 -0.1318
 3112TIP3    H130971   2.406   5.070   2.837  0.4205  1.1544 -0.6317
 3112TIP3    H230972   2.519   5.003   2.763  0.5563 -2.4757  2.5491
 3113TIP3   OH230973   1.930   6.002   8.877 -0.4298 -0.2742 -0.4499
 3113TIP3    H130974   1.923   5.959   8.962 -0.2744 -0.1839 -0.3912
 3113TIP3    H230975   1.940   6.095   8.898 -0.3721 -0.2541 -0.5667
 3114TIP3   OH230976   0.495   5.307   8.030 -0.7744 -0.5555  0.2376
 3114TIP3    H130977   0.585   5.278   8.021  0.4771  3.0816 -0.4243
 3114TIP3    H230978   0.458   5.298   7.942 -0.5781 -0.5298  0.1531
 3115TIP3   OH230979   1.195   1.793   0.689 -0.5633 -0.7740 -0.3522
 3115TIP3    H130980   1.259   1.727   0.716 -0.7833 -0.9832 -0.3379
 3115TIP3    H230981   1.127   1.789   0.756  0.6062  1.2064  1.0749
 3116TIP3   OH230982   4.112   4.363   0.822  0.4125  0.2306 -0.0915
 3116TIP3    H130983   4.087   4.278   0.856  0.8064  0.1755  0.0599
 3116TIP3    H230984   4.106   4.422   0.897 -1.3494  0.6564 -0.5130
 3117TIP3   OH230985   0.777   3.266   2.850  0.2914  0.2021  0.0858
 3117TIP3    H130986   0.772   3.354   2.886  0.2863  0.9128 -1.6064
 3117TIP3    H230987   0.723   3.213   2.909  0.7504  1.1931  1.4413
 3118TIP3   OH230988   6.532   0.027   0.613 -0.3097 -0.2297  0.4923
 3118TIP3    H130989   6.487  -0.033   0.553 -0.3656 -1.5924  1.8343
 3118TIP3    H230990   6.599   0.069   0.559 -0.5303 -1.2074 -0.5925
 3119TIP3   OH230991   2.378   3.439   8.846 -0.0026 -0.4100  0.2567
 3119TIP3    H130992   2.332   3.407   8.768  0.4557  0.9995 -0.6277
 3119TIP3    H230993   2.389   3.362   8.901  0.1182 -1.5477 -1.3017
 3120TIP3   OH230994   2.677   1.319   8.090 -0.2264 -0.1725 -0.7616
 3120TIP3    H130995   2.600   1.338   8.035 -0.0618 -2.1479 -1.7443
 3120TIP3    H230996   2.661   1.231   8.124  1.6473 -0.6677 -1.0936
 3121TIP3   OH230997   2.381   3.579   7.563 -0.8002 -0.4744 -0.5596
 3121TIP3    H130998   2.334   3.521   7.623 -1.2673 -0.6572 -1.0928
 3121TIP3    H230999   2.415   3.649   7.620 -0.0328 -1.3738  0.1159
 3122TIP3   OH231000   1.964   4.418   2.857 -0.0394 -0.4557  0.1813
 3122TIP3    H131001   2.054   4.388   2.868  0.2578  0.4206  0.2028
 3122TIP3    H231002   1.955   4.436   2.763  0.3810  1.1496  0.4103
 3123TIP3   OH231003   6.682   6.117   7.043 -0.9392 -0.1895  0.4901
 3123TIP3    H131004   6.599   6.091   7.002 -1.3541 -0.1708  1.3073
 3123TIP3    H231005   6.669   6.209   7.067  0.6750  1.0769 -2.8038
 3124TIP3   OH231006   0.358   0.773   2.353  0.2840 -0.5828 -0.0156
 3124TIP3    H131007   0.273   0.815   2.367  0.0929 -1.4259  1.5729
 3124TIP3    H231008   0.343   0.682   2.378  1.6945 -0.7089  0.4298
 3125TIP3   OH231009   1.029   1.534   6.980  0.0436 -0.5098 -0.6082
 3125TIP3    H131010   0.936   1.528   6.960 -0.6285 -0.3128  2.0768
 3125TIP3    H231011   1.069   1.568   6.900 -2.2305 -0.1936 -1.6883
 3126TIP3   OH231012   4.668   6.068   1.857  0.0382 -0.2732 -0.7867
 3126TIP3    H131013   4.761   6.071   1.877 -0.4523  1.5718  1.6744
 3126TIP3    H231014   4.653   6.144   1.800  0.2016 -1.3790 -2.3847
 3127TIP3   OH231015   0.301   2.893   8.243  0.0612 -0.2440 -0.2325
 3127TIP3    H131016   0.226   2.904   8.301  0.0839 -1.0390 -0.0412
 3127TIP3    H231017   0.294   2.966   8.181 -0.7253 -0.1683 -0.0681
 3128TIP3   OH231018   1.108   4.703   0.895 -0.1666 -0.3139  0.3490
 3128TIP3    H131019   1.095   4.630   0.835  0.0857 -0.7898  0.8748
 3128TIP3    H231020   1.049   4.686   0.968 -3.1986  2.0495 -1.2920
 3129TIP3   OH231021   3.924   6.764   0.303  0.8337  0.3792  0.3737
 3129TIP3    H131022   3.903   6.721   0.387 -0.7533  0.5195  0.0852
 3129TIP3    H231023   3.964   6.847   0.328  1.4030 -0.0571  0.9683
 3130TIP3   OH231024   1.786   4.175   2.796  0.1529 -0.3810 -0.0196
 3130TIP3    H131025   1.693   4.184   2.778 -0.1592 -3.6418 -0.5846
 3130TIP3    H231026   1.808   4.254   2.846 -2.5011  1.2523 -1.1762
 3131TIP3   OH231027   4.842   1.241   1.649  0.6885 -0.4852 -0.0474
 3131TIP3    H131028   4.862   1.268   1.739 -1.4372 -2.4187  1.1075
 3131TIP3    H231029   4.888   1.157   1.639 -0.8245 -1.3516  0.0550
 3132TIP3   OH231030   4.556   5.230   8.898  0.0611  0.2708 -0.2309
 3132TIP3    H131031   4.635   5.180   8.875  1.0121  1.8286 -0.5020
 3132TIP3    H231032   4.560   5.307   8.842 -1.7523  0.3216 -0.3341
 3133TIP3   OH231033   2.378   5.387   8.429 -0.0500  0.8265  0.0462
 3133TIP3    H131034   2.409   5.434   8.506  0.3596  0.3944  0.1558
 3133TIP3    H231035   2.325   5.315   8.464  1.9014 -0.7025  0.0938
 3134TIP3   OH231036   6.235   4.566   1.561 -0.0156 -0.1864  0.3900
 3134TIP3    H131037   6.298   4.578   1.632  1.2281 -0.5841 -0.6066
 3134TIP3    H231038   6.269   4.621   1.490 -0.6888 -0.5603 -0.2304
 3135TIP3   OH231039   2.376   6.364   8.797  0.1626 -0.5015 -0.7921
 3135TIP3    H131040   2.418   6.435   8.748 -0.5724  1.6984  1.5359
 3135TIP3    H231041   2.441   6.339   8.863  0.0455 -1.3156 -0.9817
 3136TIP3   OH231042   5.621   3.591   1.513  0.0103 -0.0855  0.2974
 3136TIP3    H131043   5.584   3.562   1.596 -1.0575  0.8738  0.1672
 3136TIP3    H231044   5.547   3.592   1.452  0.6681 -0.1994 -0.5257
 3137TIP3   OH231045   1.984   6.115   1.568  0.4235 -0.2633 -0.3879
 3137TIP3    H131046   1.968   6.106   1.474  0.3206 -0.5786 -0.3425
 3137TIP3    H231047   1.896   6.116   1.607  0.4496 -2.7348 -0.0741
 3138TIP3   OH231048   3.957   6.766   1.910  0.5044  0.1024  0.1580
 3138TIP3    H131049   4.015   6.736   1.979 -0.8646 -0.0606  1.2781
 3138TIP3    H231050   3.891   6.820   1.955  0.4870  1.3074 -1.2331
 3139TIP3   OH231051   1.899   1.400   1.944 -0.3609 -0.0252 -0.1259
 3139TIP3    H131052   1.877   1.324   1.999  1.7239 -0.4086  0.2503
 3139TIP3    H231053   1.984   1.429   1.977 -0.4356  1.5635 -1.2637
 3140TIP3   OH231054   6.733   6.761   8.373  0.3303  0.1862  0.2731
 3140TIP3    H131055   6.736   6.784   8.280  0.5113  2.0909  0.7181
 3140TIP3    H231056   6.641   6.772   8.396  0.3583  0.0920  0.4283
 3141TIP3   OH231057   3.049   6.013   1.665  0.1329  0.1356  0.2462
 3141TIP3    H131058   3.039   5.941   1.602 -0.4674  0.2520  0.1977
 3141TIP3    H231059   2.961   6.025   1.701  0.5241 -0.0905  1.2913
 3142TIP3   OH231060   4.441   4.150   8.025  0.3720 -0.1254  0.0224
 3142TIP3    H131061   4.394   4.232   8.015  0.7604 -0.1010 -2.2486
 3142TIP3    H231062   4.428   4.125   8.116  0.0163  2.2949  0.6975
 3143TIP3   OH231063   5.233   1.527   0.399  0.5269  0.2286 -0.3438
 3143TIP3    H131064   5.180   1.595   0.441  0.3569 -0.2849  0.2733
 3143TIP3    H231065   5.320   1.538   0.438  0.6628  0.4867 -0.7039
 3144TIP3   OH231066   0.220   0.629   0.320 -0.0398  0.4707 -0.1918
 3144TIP3    H131067   0.240   0.710   0.366 -1.1413  0.4975  0.2787
 3144TIP3    H231068   0.158   0.654   0.252  1.0495  0.3158 -1.2848
 3145TIP3   OH231069   4.689   0.374   1.091  0.3324  0.4200 -0.2035
 3145TIP3    H131070   4.712   0.283   1.074  0.6270  0.2312  1.0933
 3145TIP3    H231071   4.693   0.382   1.186  0.2041  1.7664 -0.2951
 3146TIP3   OH231072   2.994   1.754   2.297  0.1337 -0.4931  0.1436
 3146TIP3    H131073   2.918   1.735   2.241  0.6000 -1.5101 -0.1648
 3146TIP3    H231074   2.959   1.810   2.366 -0.3394  1.3647 -1.5077
 3147TIP3   OH231075   5.285   1.629   0.944  0.3124  0.5558 -0.1213
 3147TIP3    H131076   5.251   1.718   0.956  0.2280  0.4174  0.7505
 3147TIP3    H231077   5.331   1.610   1.026  0.5388 -0.1143 -0.3968
 3148TIP3   OH231078   1.453   1.021   2.029 -0.3921  0.2869  0.5266
 3148TIP3    H131079   1.390   0.966   2.076 -2.6043  0.3070 -2.1828
 3148TIP3    H231080   1.461   1.099   2.084  0.0314 -1.1446  2.6551
 3149TIP3   OH231081   6.099   5.566   1.503 -0.0046 -0.2033 -0.5105
 3149TIP3    H131082   6.157   5.569   1.579 -0.4391  0.2184 -0.1924
 3149TIP3    H231083   6.101   5.654   1.467 -1.5905  0.2391  0.3811
 3150TIP3   OH231084   5.624   5.954   7.045  0.1683 -0.1154 -0.4319
 3150TIP3    H131085   5.582   6.039   7.035  1.2033  0.6512  1.2877
 3150TIP3    H231086   5.551   5.892   7.049 -0.6684  0.8500 -0.2704
 3151TIP3   OH231087   2.108   4.027   7.394  0.0254  0.2734 -0.3027
 3151TIP3    H131088   2.033   4.055   7.342 -0.5306 -0.9462 -0.1799
 3151TIP3    H231089   2.078   4.030   7.484  0.2884  0.2599 -0.2122
 3152TIP3   OH231090   4.628   0.621   1.291  0.3679  0.2545 -0.3220
 3152TIP3    H131091   4.656   0.697   1.341 -1.9331  1.1610 -0.2940
 3152TIP3    H231092   4.628   0.651   1.200  0.4933 -0.0644 -0.4293
 3153TIP3   OH231093   0.727   5.928   8.447  0.2716  0.1248  0.0229
 3153TIP3    H131094   0.684   5.910   8.363 -0.6586 -0.3071  0.5686
 3153TIP3    H231095   0.819   5.940   8.425  0.7187 -3.4380 -0.7176
 3154TIP3   OH231096   5.012   1.356   1.912 -0.4640  0.1794  0.1875
 3154TIP3    H131097   5.033   1.268   1.944 -0.0390 -0.6401 -2.1553
 3154TIP3    H231098   5.073   1.370   1.840 -0.4595  2.4747  0.5661
 3155TIP3   OH231099   4.304   3.797   0.613  0.4272  0.1865 -0.2118
 3155TIP3    H131100   4.240   3.731   0.586 -0.5098  0.8738  0.2738
 3155TIP3    H231101   4.264   3.880   0.589  0.5768  0.6997  1.2172
 3156TIP3   OH231102   1.287   6.476   1.399 -0.6058  0.7632  0.1697
 3156TIP3    H131103   1.249   6.428   1.326  0.5354 -0.0698  0.0942
 3156TIP3    H231104   1.268   6.568   1.380 -1.5514  0.4540 -0.4334
 3157TIP3   OH231105   0.371   6.435   2.248  0.4238 -0.5363  0.0591
 3157TIP3    H131106   0.400   6.398   2.164  0.2035  0.4687 -0.4814
 3157TIP3    H231107   0.412   6.522   2.250 -2.7984  1.1612 -0.9513
 3158TIP3   OH231108   2.455   6.066   7.381  1.0733  0.0367  0.6099
 3158TIP3    H131109   2.525   6.012   7.346 -0.3260 -0.8151 -1.0358
 3158TIP3    H231110   2.479   6.156   7.358  1.4168 -0.2938 -0.3473
 3159TIP3   OH231111   2.873   1.133   1.948 -0.1983  0.5238 -0.0705
 3159TIP3    H131112   2.881   1.108   2.040  1.7959 -0.1870 -0.3954
 3159TIP3    H231113   2.780   1.119   1.928 -0.5051 -0.1218  1.6000
 3160TIP3   OH231114   1.170   2.776   1.631 -0.6962 -0.0310  0.1886
 3160TIP3    H131115   1.217   2.793   1.550  0.5607  0.6346  1.0293
 3160TIP3    H231116   1.078   2.789   1.608 -0.5303 -1.4790 -1.5261
 3161TIP3   OH231117   1.192   5.545   7.599  0.2609  0.2018 -0.2830
 3161TIP3    H131118   1.277   5.509   7.574  0.1482  0.9449 -1.8683
 3161TIP3    H231119   1.133   5.470   7.600  0.6828 -0.1349 -0.4587
 3162TIP3   OH231120   1.758   1.278   7.454 -0.1327 -0.4963  0.1605
 3162TIP3    H131121   1.783   1.266   7.546  0.7617 -2.0604 -0.2425
 3162TIP3    H231122   1.842   1.284   7.408 -0.5784  0.0466 -0.5832
 3163TIP3   OH231123   0.294   3.167   0.184  0.1226 -0.3180  0.3745
 3163TIP3    H131124   0.298   3.129   0.096  1.3913 -1.9006  1.0552
 3163TIP3    H231125   0.281   3.091   0.242  0.4591  0.5596  1.6365
 3164TIP3   OH231126   6.801   2.482   2.103  0.5107 -0.2218  0.4872
 3164TIP3    H131127   6.814   2.482   2.198  0.7783 -1.3881  0.4746
 3164TIP3    H231128   6.830   2.568   2.074 -1.6530  0.9906  1.7083
 3165TIP3   OH231129   3.302   4.003   2.052 -0.1249 -0.1421 -0.0773
 3165TIP3    H131130   3.375   4.052   2.089 -1.1903  3.6955 -2.4444
 3165TIP3    H231131   3.343   3.938   1.996  1.4541  0.3344  0.4783
 3166TIP3   OH231132   2.489   5.905   0.699  0.1869  0.2105 -0.4798
 3166TIP3    H131133   2.506   5.988   0.745  1.6229 -0.1411 -0.3290
 3166TIP3    H231134   2.402   5.880   0.728 -0.0611  1.4015 -0.1143
 3167TIP3   OH231135   5.445   3.213   1.897 -0.1885  0.6523 -0.2994
 3167TIP3    H131136   5.436   3.234   1.804  0.8109  0.9089 -0.3463
 3167TIP3    H231137   5.538   3.226   1.916  0.0295 -1.2986  0.2678
 3168TIP3   OH231138   0.360   3.877   2.155  0.3945  0.2968 -0.1481
 3168TIP3    H131139   0.358   3.787   2.188  1.4712 -0.1341 -1.1659
 3168TIP3    H231140   0.357   3.868   2.059  0.8515  1.3159 -0.2782
 3169TIP3   OH231141   4.794   2.997   1.655 -0.1581  0.6038  0.0195
 3169TIP3    H131142   4.742   2.986   1.575 -1.8699 -0.8271  1.2562
 3169TIP3    H231143   4.758   2.933   1.716  2.5445  0.1318  1.2614
 3170TIP3   OH231144   6.641   6.693   8.673 -0.1966  0.1779  0.1891
 3170TIP3    H131145   6.581   6.656   8.739  0.3323  0.4265  0.8163
 3170TIP3    H231146   6.635   6.632   8.599 -1.2505  0.2136  0.2263
 3171TIP3   OH231147   3.606   6.149   7.598 -0.0146  0.1774 -0.2927
 3171TIP3    H131148   3.668   6.215   7.570  0.8255 -0.3603  0.2507
 3171TIP3    H231149   3.528   6.164   7.544 -0.5601  2.7652  1.0433
 3172TIP3   OH231150   2.507   4.756   8.454  0.1754  0.2027  0.2458
 3172TIP3    H131151   2.569   4.794   8.392 -0.1767 -1.0981 -0.9396
 3172TIP3    H231152   2.556   4.684   8.495  0.0184  0.3005  0.6123
 3173TIP3   OH231153   1.291   3.480   1.987  0.0942  0.3339 -0.3505
 3173TIP3    H131154   1.233   3.462   2.060 -0.8388  0.9969 -0.9013
 3173TIP3    H231155   1.352   3.546   2.021  0.5977 -0.4295  0.2567
 3174TIP3   OH231156   2.356   5.431   8.165 -0.8469 -0.3060 -0.0865
 3174TIP3    H131157   2.411   5.370   8.115  1.2210  0.9143  0.6041
 3174TIP3    H231158   2.365   5.401   8.256  3.3990  3.0277  0.9324
 3175TIP3   OH231159   2.809   5.595   0.158  0.1563  0.4175  0.0446
 3175TIP3    H131160   2.786   5.543   0.081 -0.5508 -0.8278  1.0591
 3175TIP3    H231161   2.745   5.570   0.224  1.2657  0.8001  1.3164
 3176TIP3   OH231162   3.068   4.299   0.082  0.2087  0.4384  0.3721
 3176TIP3    H131163   3.043   4.250   0.004  1.1556 -0.4699  0.6059
 3176TIP3    H231164   3.066   4.391   0.055 -4.0163  0.5631  0.5992
 3177TIP3   OH231165   1.470   0.245   6.514  0.0485 -0.4790  0.0709
 3177TIP3    H131166   1.402   0.227   6.579  2.2573 -0.6213  2.5201
 3177TIP3    H231167   1.493   0.159   6.478 -1.4157 -0.3639 -1.2417
 3178TIP3   OH231168   3.695   3.929   0.953 -0.1829  0.4025 -0.1447
 3178TIP3    H131169   3.755   4.000   0.930 -2.9653  2.5150 -1.6053
 3178TIP3    H231170   3.611   3.956   0.915 -2.5456 -1.4237  3.2354
 3179TIP3   OH231171   1.816   2.270   8.205 -0.5561 -0.3454 -0.0371
 3179TIP3    H131172   1.866   2.348   8.229 -2.8945  0.7046  1.9490
 3179TIP3    H231173   1.882   2.204   8.184  1.5392  2.2781 -2.5023
 3180TIP3   OH231174   0.375   2.714   0.234 -0.5531  0.4541  0.1227
 3180TIP3    H131175   0.364   2.685   0.144  0.4556 -0.1332  0.1674
 3180TIP3    H231176   0.343   2.641   0.287  1.2678 -0.3285  0.2307
 3181TIP3   OH231177   4.338   3.717   0.963 -0.3415 -0.7151 -0.2466
 3181TIP3    H131178   4.348   3.643   1.023 -2.2517 -0.3740  0.5553
 3181TIP3    H231179   4.425   3.729   0.925  1.2395 -0.3683  3.1508
 3182TIP3   OH231180   2.534   1.116   1.165  0.7513  0.2013 -0.1718
 3182TIP3    H131181   2.480   1.174   1.110 -0.2625 -0.0364  0.5530
 3182TIP3    H231182   2.520   1.029   1.129 -1.0037 -0.1517  1.2691
 3183TIP3   OH231183   6.050   6.268   2.279  0.6592 -0.6524  0.0707
 3183TIP3    H131184   6.068   6.174   2.291  2.0857 -0.2394  1.5722
 3183TIP3    H231185   5.980   6.271   2.214 -0.6189 -2.8221  1.2296
 3184TIP3   OH231186   3.469   2.535   8.107 -0.0096 -0.1134  0.2757
 3184TIP3    H131187   3.507   2.453   8.075 -1.7417 -0.9130  0.1878
 3184TIP3    H231188   3.517   2.604   8.059 -0.4407 -1.1642 -1.7812
 3185TIP3   OH231189   3.001   5.700   8.341  0.8573  0.0240  0.1417
 3185TIP3    H131190   3.096   5.714   8.336  0.9002  0.9559  2.3212
 3185TIP3    H231191   2.973   5.753   8.416 -1.2931 -0.7598 -0.0384
 3186TIP3   OH231192   2.477   0.961   2.575 -0.1576 -0.0544 -0.1368
 3186TIP3    H131193   2.534   0.918   2.511 -1.4649 -0.4763 -1.0576
 3186TIP3    H231194   2.439   0.889   2.626  2.9771  0.3275  3.1371
 3187TIP3   OH231195   3.432   5.993   0.011 -0.4098 -0.1464 -0.0387
 3187TIP3    H131196   3.463   5.905   0.034  0.3374 -0.0611 -0.6768
 3187TIP3    H231197   3.375   6.018   0.084 -0.5170 -1.0962  0.2293
 3188TIP3   OH231198   2.862   4.103   1.461 -0.0653  0.1498  0.2070
 3188TIP3    H131199   2.889   4.120   1.551  1.0326  2.6296 -0.4949
 3188TIP3    H231200   2.944   4.092   1.413 -0.4668  1.7541 -0.9401
 3189TIP3   OH231201   3.783   4.503   0.299 -0.2265  0.0894  0.6388
 3189TIP3    H131202   3.872   4.490   0.265  0.7409 -0.9035  3.2891
 3189TIP3    H231203   3.736   4.424   0.275 -0.9293  1.1585 -1.9477
 3190TIP3   OH231204   2.176   3.278   7.333  0.2469 -0.5294 -0.9370
 3190TIP3    H131205   2.173   3.313   7.244  0.3438  1.1593 -0.3207
 3190TIP3    H231206   2.269   3.277   7.355  0.1057  1.2231 -0.0919
 3191TIP3   OH231207   2.270   3.817   2.258  0.0063  0.5749  0.5775
 3191TIP3    H131208   2.266   3.744   2.319 -0.4831 -0.4901 -0.6680
 3191TIP3    H231209   2.208   3.794   2.189  0.6388  1.6564 -0.4008
 3192TIP3   OH231210   1.131   4.571   7.660 -0.1976  0.0520  0.3924
 3192TIP3    H131211   1.040   4.577   7.631  0.6040 -0.4496 -2.5552
 3192TIP3    H231212   1.145   4.477   7.673 -0.0497  0.1143  0.6764
 3193TIP3   OH231213   3.433   2.440   1.324  0.2089 -0.8086  0.3403
 3193TIP3    H131214   3.524   2.413   1.335  0.4382 -1.1895 -1.8789
 3193TIP3    H231215   3.414   2.495   1.399  2.6383  0.2201  0.2850
 3194TIP3   OH231216   3.329   4.369   1.919 -0.5417  0.0804  0.0844
 3194TIP3    H131217   3.368   4.378   2.006  1.7949  1.3306 -0.9979
 3194TIP3    H231218   3.398   4.331   1.865 -1.0496  1.5868 -1.7550
 3195TIP3   OH231219   5.544   2.363   0.438 -0.1240 -0.2422 -0.6556
 3195TIP3    H131220   5.543   2.270   0.458 -0.0511 -0.6145 -2.2170
 3195TIP3    H231221   5.506   2.369   0.350 -0.2836  1.2197 -0.5201
 3196TIP3   OH231222   0.590   2.579   1.900 -0.1756 -0.2742 -1.1127
 3196TIP3    H131223   0.500   2.608   1.914  0.0166  0.1038 -0.6448
 3196TIP3    H231224   0.582   2.489   1.868 -0.7150 -0.2689 -0.9915
 3197TIP3   OH231225   3.959   1.048   2.936 -0.1687 -0.3071  0.1083
 3197TIP3    H131226   3.988   1.031   3.026 -1.2571  1.1012  0.7532
 3197TIP3    H231227   4.039   1.070   2.889  0.9276 -4.0261 -0.1030
 3198TIP3   OH231228   3.903   2.497   2.130 -0.0905  0.2759 -0.0666
 3198TIP3    H131229   3.939   2.457   2.209 -1.4063 -0.6611  0.0935
 3198TIP3    H231230   3.924   2.590   2.138  0.0228  0.1548  1.2602
 3199TIP3   OH231231   4.088   0.165   0.192 -0.2000 -0.3426 -0.1044
 3199TIP3    H131232   4.034   0.194   0.119  0.4705 -0.6410 -0.7313
 3199TIP3    H231233   4.149   0.237   0.207  1.3328 -1.2891 -1.5295
 3200TIP3   OH231234   4.946   0.862   1.907  0.2651 -0.3660 -0.4930
 3200TIP3    H131235   4.924   0.825   1.822  0.5587 -0.3838 -0.5643
 3200TIP3    H231236   4.877   0.831   1.966 -1.0569  1.2685 -1.1173
 3201TIP3   OH231237   4.739   5.030   8.872 -0.5113 -0.0697  0.3118
 3201TIP3    H131238   4.791   5.028   8.792  0.7311  0.2127  1.0676
 3201TIP3    H231239   4.781   4.964   8.929  0.2654  1.4905  1.6437
 3202TIP3   OH231240   3.613   4.801   7.449 -0.5778  0.1145  0.1011
 3202TIP3    H131241   3.655   4.799   7.363 -1.2111 -3.0500 -0.2711
 3202TIP3    H231242   3.683   4.783   7.511 -0.1818  2.0703  0.2839
 3203TIP3   OH231243   2.783   1.078   0.283  0.0455 -0.3988 -0.3117
 3203TIP3    H131244   2.789   0.990   0.246 -1.5488 -0.8462  0.3854
 3203TIP3    H231245   2.717   1.070   0.352  0.0748  1.2932 -0.0445
 3204TIP3   OH231246   6.336   6.770   0.978  0.6790 -0.0306 -0.1352
 3204TIP3    H131247   6.315   6.831   1.048  0.9773  1.5247 -1.3633
 3204TIP3    H231248   6.421   6.798   0.946  0.7582 -1.0066 -0.8187
 3205TIP3   OH231249   1.525   2.797   1.571 -0.2917  0.2211  0.0422
 3205TIP3    H131250   1.457   2.745   1.528  0.6528  0.0101 -1.2487
 3205TIP3    H231251   1.477   2.852   1.633 -1.8627  1.3740 -2.0717
 3206TIP3   OH231252   4.391   4.673   2.588 -0.5304 -0.1165 -0.0932
 3206TIP3    H131253   4.352   4.586   2.589 -0.0207 -0.3461  0.4638
 3206TIP3    H231254   4.386   4.701   2.497 -4.0332  0.8123  0.2281
 3207TIP3   OH231255   6.687   3.596   8.495  0.5599 -0.1714  0.2365
 3207TIP3    H131256   6.762   3.541   8.468 -0.8307 -0.4751 -3.6974
 3207TIP3    H231257   6.620   3.533   8.521 -0.0810 -0.2724 -1.5376
 3208TIP3   OH231258   2.941   1.374   1.790 -0.0888 -0.4527  0.5178
 3208TIP3    H131259   2.925   1.351   1.698  1.4759 -0.7951  0.3140
 3208TIP3    H231260   2.939   1.290   1.836  2.1312 -0.6820  0.3050
 3209TIP3   OH231261   2.964   4.584   0.264  0.1628  0.6212 -0.8756
 3209TIP3    H131262   2.952   4.567   0.170  1.7378 -0.3029 -0.9469
 3209TIP3    H231263   2.914   4.515   0.307  1.2376 -0.3357 -1.0984
 3210TIP3   OH231264   3.496   0.300   1.732 -0.4207  0.0072 -0.5203
 3210TIP3    H131265   3.411   0.258   1.742 -0.1834  0.0182  2.2373
 3210TIP3    H231266   3.558   0.238   1.771  0.5045  1.0171 -0.3452
 3211TIP3   OH231267   3.336   5.441   7.970 -0.0890  0.0886  0.0347
 3211TIP3    H131268   3.292   5.423   8.054  1.5208  1.3486  1.2224
 3211TIP3    H231269   3.423   5.472   7.995  0.0194  1.6920 -2.0859
 3212TIP3   OH231270   3.885   2.707   1.381  0.2337 -0.7989 -0.2140
 3212TIP3    H131271   3.927   2.754   1.310  0.1820 -0.6117 -0.1217
 3212TIP3    H231272   3.924   2.744   1.461 -0.1665 -0.5663 -0.1258
 3213TIP3   OH231273   0.876   1.441   0.037 -0.2599 -0.6047  0.0300
 3213TIP3    H131274   0.789   1.473   0.012  0.1746  0.9440  0.3863
 3213TIP3    H231275   0.937   1.503  -0.003  0.6316 -0.9977  0.7429
 3214TIP3   OH231276   4.279   5.129   1.095 -0.2307  0.4404  0.2294
 3214TIP3    H131277   4.190   5.143   1.125 -0.3316  0.9846 -0.3072
 3214TIP3    H231278   4.270   5.101   1.004  0.1452  0.4822  0.1778
 3215TIP3   OH231279   4.084   4.446   0.195 -0.0094  0.6875 -0.0142
 3215TIP3    H131280   4.179   4.450   0.178  0.9096 -0.1226  3.9075
 3215TIP3    H231281   4.060   4.355   0.178  0.3552  0.4597  0.6427
 3216TIP3   OH231282   6.439   3.434   1.366 -0.4911 -0.0969 -0.6439
 3216TIP3    H131283   6.464   3.504   1.427 -1.2576  0.4553 -0.9550
 3216TIP3    H231284   6.398   3.368   1.422 -0.4911  0.0586 -0.4555
 3217TIP3   OH231285   5.582   5.164   7.715 -0.2295  0.1542  0.0073
 3217TIP3    H131286   5.500   5.168   7.765 -0.4499 -1.4883 -0.1508
 3217TIP3    H231287   5.648   5.201   7.774 -1.4253  3.9696 -0.8168
 3218TIP3   OH231288   5.366   4.967   8.476  0.3047  0.4492 -0.1552
 3218TIP3    H131289   5.278   4.970   8.514  0.9245  0.6198  1.3555
 3218TIP3    H231290   5.372   4.882   8.434  0.4884 -0.9761  2.5524
 3219TIP3   OH231291   5.595   5.403   6.889  0.1591 -0.6822 -0.0253
 3219TIP3    H131292   5.636   5.426   6.806 -1.9928  0.4501 -0.8417
 3219TIP3    H231293   5.533   5.334   6.867 -1.1106  0.2740  0.4327
 3220TIP3   OH231294   6.638   1.445   7.970 -0.0394 -0.2327 -0.5409
 3220TIP3    H131295   6.583   1.487   8.035  0.4809 -0.6216  0.1586
 3220TIP3    H231296   6.581   1.380   7.928 -0.2965 -0.1836 -0.2689
 3221TIP3   OH231297   2.874   1.480   0.624 -0.3106 -0.1816 -0.0779
 3221TIP3    H131298   2.801   1.509   0.570  1.1121 -1.5220 -2.9075
 3221TIP3    H231299   2.871   1.384   0.619  1.8401 -0.2640 -0.5713
 3222TIP3   OH231300   4.317   0.422   2.948 -0.3435  0.0638  0.3606
 3222TIP3    H131301   4.259   0.429   2.873  0.0806  1.7942  0.1388
 3222TIP3    H231302   4.282   0.484   3.012  0.5020  0.1796  0.7338
 3223TIP3   OH231303   5.232   2.789   7.316  0.0130  0.1919 -0.2061
 3223TIP3    H131304   5.305   2.727   7.323 -1.9857 -2.3115 -0.2978
 3223TIP3    H231305   5.210   2.790   7.223 -0.8422 -0.0157 -0.0095
 3224TIP3   OH231306   6.713   0.437   7.224  0.2286  0.0331  0.2592
 3224TIP3    H131307   6.652   0.510   7.229  0.0832 -0.0163 -0.6486
 3224TIP3    H231308   6.658   0.359   7.233  0.2529  0.0094  0.2072
 3225TIP3   OH231309   2.046   3.373   2.767  0.7630 -0.2204  0.0674
 3225TIP3    H131310   2.052   3.313   2.841  0.8889  0.2475  0.4386
 3225TIP3    H231311   2.058   3.317   2.690  1.0206 -0.6487  0.4139
 3226TIP3   OH231312   3.667   2.200   1.847 -0.3836  0.0802 -0.0631
 3226TIP3    H131313   3.592   2.240   1.803  0.4357  0.8735 -0.7880
 3226TIP3    H231314   3.681   2.255   1.924  1.5143  2.0897 -1.7062
 3227TIP3   OH231315   5.456   0.899   0.667 -0.2986 -0.1934  0.4023
 3227TIP3    H131316   5.370   0.939   0.686  0.0724  0.1135  1.5187
 3227TIP3    H231317   5.513   0.931   0.738  1.0964  0.7223 -1.0684
 3228TIP3   OH231318   4.604   1.139   8.507  0.2513 -0.1881 -0.4033
 3228TIP3    H131319   4.611   1.064   8.566 -0.0134 -0.4448 -0.6932
 3228TIP3    H231320   4.517   1.130   8.468 -0.4915  1.2026  0.8116
 3229TIP3   OH231321   3.392   4.502   8.779  0.0045  0.5820  0.6778
 3229TIP3    H131322   3.354   4.511   8.866  1.4356 -0.4137  1.4363
 3229TIP3    H231323   3.316   4.488   8.722 -0.9089  0.6478  1.8307
 3230TIP3   OH231324   3.867   1.847   7.870  0.2885  0.2742  0.7185
 3230TIP3    H131325   3.938   1.908   7.852  0.3060  0.1258  0.2559
 3230TIP3    H231326   3.794   1.877   7.815  1.0254 -1.4555 -1.3718
 3231TIP3   OH231327   3.268   6.739   1.153  0.3521  1.3415 -0.0624
 3231TIP3    H131328   3.260   6.661   1.098  0.5001  1.1489  0.1855
 3231TIP3    H231329   3.184   6.746   1.198  0.6732  0.7638  0.6467
 3232TIP3   OH231330   6.553   3.750   8.315 -0.0114 -0.3866  0.3504
 3232TIP3    H131331   6.479   3.690   8.320 -0.1774 -0.2104  0.0156
 3232TIP3    H231332   6.614   3.719   8.382 -0.6633 -0.1482  1.0618
 3233TIP3   OH231333   1.076   4.356   7.026  0.2091  0.1465  0.3341
 3233TIP3    H131334   1.055   4.365   6.934  1.9013 -3.4043 -0.5634
 3233TIP3    H231335   1.011   4.294   7.060  2.3908 -2.4758  0.1345
 3234TIP3   OH231336   2.058   5.210   7.780 -0.3712  0.3967 -0.4349
 3234TIP3    H131337   2.066   5.300   7.748 -1.1151 -0.3124 -2.8567
 3234TIP3    H231338   2.034   5.160   7.702 -2.0157 -1.5907  1.2478
 3235TIP3   OH231339   2.678   2.724   1.278  0.2763  0.6659  0.1669
 3235TIP3    H131340   2.761   2.759   1.312  0.1022  0.0892  1.2605
 3235TIP3    H231341   2.692   2.716   1.184  2.0514 -0.9321  0.5116
 3236TIP3   OH231342   6.132   0.754   7.512 -0.1010  0.3696 -0.2659
 3236TIP3    H131343   6.128   0.661   7.534 -0.9257  0.7353  1.2583
 3236TIP3    H231344   6.220   0.781   7.540  0.0538  0.1050 -0.4917
 3237TIP3   OH231345   1.348   2.801   8.218 -0.0668 -0.0843  0.0621
 3237TIP3    H131346   1.340   2.892   8.246 -0.7980  0.5416 -2.0244
 3237TIP3    H231347   1.376   2.806   8.127 -1.5665 -1.9020 -0.5591
 3238TIP3   OH231348   4.705   6.718   8.846  0.6299  0.2221  0.3766
 3238TIP3    H131349   4.681   6.634   8.885  2.0257 -1.0267 -1.2553
 3238TIP3    H231350   4.679   6.783   8.911 -1.6865 -1.3388  1.1619
 3239TIP3   OH231351   5.929   2.346   0.879 -0.1984  0.2884 -0.9385
 3239TIP3    H131352   5.841   2.377   0.898  0.4659  0.3633  2.7938
 3239TIP3    H231353   5.967   2.413   0.822 -1.7245  1.5390 -0.5303
 3240TIP3   OH231354   5.370   1.215   7.902  0.0086 -0.4739 -0.1672
 3240TIP3    H131355   5.311   1.291   7.908  0.2442 -0.1313 -1.7881
 3240TIP3    H231356   5.418   1.228   7.821  0.2148 -2.2642 -0.3750
 3241TIP3   OH231357   0.686   5.266   8.490 -0.1466 -0.1067  0.0662
 3241TIP3    H131358   0.685   5.274   8.586  2.1771 -0.3640  0.1640
 3241TIP3    H231359   0.752   5.328   8.461  1.3191 -2.0641 -1.0742
 3242TIP3   OH231360   2.794   2.352   8.855 -0.2374 -0.8019  0.1786
 3242TIP3    H131361   2.789   2.378   8.764 -0.2344 -0.0937  0.3773
 3242TIP3    H231362   2.703   2.340   8.882 -0.2668 -0.4818  0.2290
 3243TIP3   OH231363   1.809   0.978   7.628 -0.3165 -0.0299 -0.2673
 3243TIP3    H131364   1.729   1.030   7.633 -1.0867 -1.2668  1.2548
 3243TIP3    H231365   1.793   0.915   7.558 -0.3529  0.2517 -0.5105
 3244TIP3   OH231366   0.488   4.525   7.975  0.3925  0.2217 -0.3247
 3244TIP3    H131367   0.518   4.594   7.916  1.5235  0.4095  0.4373
 3244TIP3    H231368   0.402   4.556   8.005  1.1074  1.5885  0.4169
 3245TIP3   OH231369   3.224   6.598   7.884 -0.0401 -0.4219  0.1356
 3245TIP3    H131370   3.259   6.671   7.936  0.9506  0.5896 -1.8321
 3245TIP3    H231371   3.268   6.521   7.918  0.3151  0.1507  1.0219
 3246TIP3   OH231372   6.142   6.151   8.780  0.1300  0.1533  0.3251
 3246TIP3    H131373   6.147   6.195   8.865 -1.2136  1.0804 -0.0409
 3246TIP3    H231374   6.136   6.058   8.801 -0.7758  0.4146  1.2799
 3247TIP3   OH231375   2.602   6.003   1.078 -0.0959  0.9403  0.1608
 3247TIP3    H131376   2.518   6.000   1.124 -0.3067 -4.2953 -0.0225
 3247TIP3    H231377   2.579   6.027   0.988 -1.4494 -0.3241  0.1323
 3248TIP3   OH231378   1.793   0.627   7.961  0.2970 -0.2458  0.5382
 3248TIP3    H131379   1.749   0.639   8.045  0.4096  0.8042  0.4690
 3248TIP3    H231380   1.784   0.712   7.917  0.5591 -0.6674 -0.3571
 3249TIP3   OH231381   0.244   4.478   7.110  0.6728 -0.4912 -0.6783
 3249TIP3    H131382   0.245   4.427   7.029  1.3094  0.4681 -1.2953
 3249TIP3    H231383   0.161   4.454   7.153  1.1142 -2.2887 -0.7616
 3250TIP3   OH231384   0.693   3.787   0.717  0.7314 -0.6924 -0.2511
 3250TIP3    H131385   0.762   3.752   0.661  1.9989  0.5804  0.4577
 3250TIP3    H231386   0.616   3.790   0.661  1.8803  0.2424 -1.8475
 3251TIP3   OH231387   4.793   3.220   1.053  0.6966 -0.2577 -0.1980
 3251TIP3    H131388   4.772   3.177   0.971  3.5190 -3.0826  0.3594
 3251TIP3    H231389   4.887   3.240   1.047  1.1550 -1.1207  2.4596
 3252TIP3   OH231390   2.776   6.785   8.800 -0.2038  0.0977 -0.1922
 3252TIP3    H131391   2.730   6.825   8.726 -0.1579  2.3351  0.9025
 3252TIP3    H231392   2.796   6.858   8.858  2.0500 -1.2190  0.8315
 3253TIP3   OH231393   4.647   3.253   3.237 -0.5791  0.1628 -0.1261
 3253TIP3    H131394   4.650   3.178   3.177 -0.0664  0.7234 -0.8257
 3253TIP3    H231395   4.739   3.277   3.249 -0.7510  2.9205 -2.8532
 3254TIP3   OH231396   6.582   1.635   2.049  0.3080 -0.2785  0.1301
 3254TIP3    H131397   6.517   1.702   2.071 -0.7919 -0.9798 -0.8173
 3254TIP3    H231398   6.664   1.669   2.083 -0.3719  1.1414  0.4434
 3255TIP3   OH231399   6.580   5.012   7.160 -0.4056  0.5171  0.3439
 3255TIP3    H131400   6.662   5.003   7.210 -0.6396  1.7972  1.0027
 3255TIP3    H231401   6.572   4.929   7.112  1.3195  0.4003  0.1910
 3256TIP3   OH231402   6.800   3.619   8.816  0.5328 -0.1727  0.4042
 3256TIP3    H131403   6.811   3.693   8.876  0.0303  0.2101  0.0315
 3256TIP3    H231404   6.830   3.543   8.867 -1.1243 -0.0581  1.6546
 3257TIP3   OH231405   3.481   3.749   8.315  0.3416  0.2522  1.2682
 3257TIP3    H131406   3.442   3.720   8.397 -0.2196 -0.8289  0.6436
 3257TIP3    H231407   3.565   3.702   8.311 -0.6084 -1.4641  0.2120
 3258TIP3   OH231408   3.239   4.380   1.021  0.4960  0.3871 -0.3791
 3258TIP3    H131409   3.205   4.462   0.986  1.8533  0.5107 -1.5004
 3258TIP3    H231410   3.311   4.356   0.962  1.8899 -0.1983  1.4346
 3259TIP3   OH231411   4.833   3.828   1.737 -0.2912  0.1827  0.5514
 3259TIP3    H131412   4.845   3.735   1.716  0.5039  0.0977  1.3338
 3259TIP3    H231413   4.848   3.833   1.831  2.1447  1.4726  0.1615
 3260TIP3   OH231414   2.139   0.401   7.936 -0.3114 -0.0573 -0.2983
 3260TIP3    H131415   2.221   0.410   7.888 -0.1601 -1.4623 -0.3381
 3260TIP3    H231416   2.074   0.447   7.882  0.3219  0.5452 -0.5596
 3261TIP3   OH231417   1.915   0.037   8.845  0.1342 -0.5242 -0.1902
 3261TIP3    H131418   2.004   0.015   8.818 -0.2660 -1.4932 -0.7536
 3261TIP3    H231419   1.879   0.087   8.772  0.3001  0.1116  0.1553
 3262TIP3   OH231420   0.022   1.841   0.826 -0.7135  0.2735  0.0162
 3262TIP3    H131421   0.056   1.753   0.811 -2.3951 -0.1380 -1.8507
 3262TIP3    H231422  -0.025   1.836   0.908 -1.3216 -0.7567 -0.3837
 3263TIP3   OH231423   2.991   3.222   2.496  0.3470 -0.4901 -0.1066
 3263TIP3    H131424   2.912   3.183   2.533 -0.5342  0.1527 -1.2035
 3263TIP3    H231425   3.002   3.304   2.545  0.4757 -0.7074  0.2246
 3264TIP3   OH231426   4.317   5.822   7.706  0.3460 -0.0266 -0.0102
 3264TIP3    H131427   4.342   5.867   7.787 -0.9423  0.7415 -0.0070
 3264TIP3    H231428   4.246   5.763   7.732  1.4217 -1.4630 -0.1901
 3265TIP3   OH231429   4.944   0.624   1.439  0.4923 -0.0507  0.3209
 3265TIP3    H131430   4.871   0.589   1.389 -1.5020  0.4966  2.6434
 3265TIP3    H231431   5.015   0.560   1.427 -0.3499 -0.6293 -1.9338
 3266TIP3   OH231432   0.260   0.730   8.364 -0.0598  0.3339  0.2566
 3266TIP3    H131433   0.217   0.698   8.284 -2.4562  0.1634  1.5540
 3266TIP3    H231434   0.341   0.772   8.332 -1.9683  2.2666 -2.5317
 3267TIP3   OH231435   6.457   2.797   2.754 -0.3893  0.5769  0.4268
 3267TIP3    H131436   6.541   2.781   2.711 -0.8035  1.6630 -0.8750
 3267TIP3    H231437   6.398   2.731   2.719 -0.4227  0.6831  0.2845
 3268TIP3   OH231438   4.875   2.500   0.534 -1.1148  0.3661 -0.0947
 3268TIP3    H131439   4.936   2.574   0.530 -1.1037  0.4597  1.2758
 3268TIP3    H231440   4.919   2.430   0.486 -0.1377  0.5929  0.4340
 3269TIP3   OH231441   5.057   1.124   0.484  0.0124 -0.2700 -0.1326
 3269TIP3    H131442   5.116   1.052   0.509 -1.0711 -0.6564  1.4621
 3269TIP3    H231443   5.056   1.121   0.389  2.0537 -0.6582 -0.1957
 3270TIP3   OH231444   4.742   0.821   2.089  0.0399 -0.0301 -0.1196
 3270TIP3    H131445   4.765   0.768   2.166 -1.8162  0.2926  0.7205
 3270TIP3    H231446   4.714   0.905   2.126  3.1615  1.7591 -1.4300
 3271TIP3   OH231447   0.628   0.746   1.011 -0.1171 -0.2022 -0.0678
 3271TIP3    H131448   0.702   0.752   1.071 -0.8548  0.4719  0.8088
 3271TIP3    H231449   0.552   0.769   1.065 -1.3018 -3.1330 -0.3048
 3272TIP3   OH231450   4.855   3.259   0.192  0.2044  0.0069  0.3416
 3272TIP3    H131451   4.914   3.298   0.127  1.3329 -0.1390  1.2507
 3272TIP3    H231452   4.791   3.328   0.210 -0.9120 -0.3786 -1.8230
 3273TIP3   OH231453   4.209   5.916   0.228 -0.1643 -0.2392  0.3005
 3273TIP3    H131454   4.189   5.825   0.249  0.0015 -1.2931 -3.3980
 3273TIP3    H231455   4.135   5.944   0.174  1.1939  0.7736 -1.1145
 3274TIP3   OH231456   1.169   1.102   7.501  0.2900 -0.9091 -0.1209
 3274TIP3    H131457   1.195   1.193   7.512  0.3895 -1.1876  2.7640
 3274TIP3    H231458   1.075   1.105   7.482  0.1306 -0.2198  0.7465
 3275TIP3   OH231459   6.253   0.764   2.910  0.3132 -0.1712 -0.4752
 3275TIP3    H131460   6.177   0.821   2.918 -1.0813 -2.1336  1.2833
 3275TIP3    H231461   6.304   0.802   2.839 -1.0503  2.6091 -0.0930
 3276TIP3   OH231462   3.258   2.138   7.920  0.4364  0.5148  0.2857
 3276TIP3    H131463   3.252   2.191   7.840 -0.0137 -0.3266 -0.2553
 3276TIP3    H231464   3.251   2.201   7.991  0.5968  1.2560 -0.3363
 3277TIP3   OH231465   0.986   4.396   6.764 -0.5990  0.5878  0.4061
 3277TIP3    H131466   0.891   4.394   6.774 -0.6341  0.9341  0.1690
 3277TIP3    H231467   1.003   4.345   6.684 -0.6994  1.5720 -0.2694
 3278TIP3   OH231468   0.294   5.935   0.341 -0.1080 -0.4518  0.2814
 3278TIP3    H131469   0.206   5.912   0.373  0.1216 -0.9804  0.5605
 3278TIP3    H231470   0.284   6.022   0.303 -0.9645 -0.9009 -0.5743
 3279TIP3   OH231471   1.126   2.827   8.444  0.9916  1.0640 -0.4757
 3279TIP3    H131472   1.203   2.782   8.409  0.3355  0.9905 -1.8875
 3279TIP3    H231473   1.104   2.892   8.378  0.2566  1.5694  0.2484
 3280TIP3   OH231474   4.869   1.763   7.520  0.1401 -0.3524 -0.6901
 3280TIP3    H131475   4.832   1.812   7.447  0.1600 -0.7975 -1.0068
 3280TIP3    H231476   4.959   1.793   7.527 -0.2652  0.7612  0.1033
 3281TIP3   OH231477   3.629   0.777   1.861 -0.3600 -0.2650 -1.2198
 3281TIP3    H131478   3.574   0.855   1.870 -0.5490 -0.6087  1.5549
 3281TIP3    H231479   3.719   0.810   1.861 -0.4311  0.1828 -4.2491
 3282TIP3   OH231480   2.848   0.838   8.071 -0.7751  0.1931 -0.2976
 3282TIP3    H131481   2.834   0.745   8.053  2.7906 -1.0713  2.1215
 3282TIP3    H231482   2.794   0.856   8.148  0.2972 -0.6925  0.7173
 3283TIP3   OH231483   4.216   1.828   1.959 -0.0615  0.0275 -0.0275
 3283TIP3    H131484   4.163   1.902   1.987  0.6316  0.9646 -1.0740
 3283TIP3    H231485   4.189   1.812   1.868  0.5496 -0.3165 -0.1562
 3284TIP3   OH231486   3.544   3.382   7.084 -0.0945 -0.5239  0.0295
 3284TIP3    H131487   3.463   3.331   7.090 -0.3533 -0.1438 -0.1913
 3284TIP3    H231488   3.519   3.460   7.035  0.3720 -0.3304  0.1003
 3285TIP3   OH231489   4.217   2.790   0.335  0.4787 -0.5115  0.5531
 3285TIP3    H131490   4.188   2.703   0.361 -0.6964 -0.2203  0.2453
 3285TIP3    H231491   4.166   2.811   0.257  0.7684  0.4364  0.6021
 3286TIP3   OH231492   6.703   2.419   0.326  0.5276 -0.6788 -0.6396
 3286TIP3    H131493   6.798   2.404   0.318  0.3284 -2.4174 -0.0404
 3286TIP3    H231494   6.664   2.333   0.314 -0.7880 -0.5750  2.2817
 3287TIP3   OH231495   5.490   3.530   2.599 -0.0608 -0.2766 -0.5762
 3287TIP3    H131496   5.517   3.559   2.687 -0.3021 -1.4545 -0.1018
 3287TIP3    H231497   5.399   3.502   2.611  0.3139 -1.7009 -0.8942
 3288TIP3   OH231498   5.024   1.568   2.311 -0.8317 -0.7277 -0.8241
 3288TIP3    H131499   5.001   1.528   2.395  0.5000 -2.5623 -1.2655
 3288TIP3    H231500   5.050   1.658   2.334 -1.3308 -0.9196  0.5970
 3289TIP3   OH231501   4.993   2.255   8.099  0.2788 -0.3788 -1.0352
 3289TIP3    H131502   5.055   2.279   8.168  2.6722 -0.7544 -2.9114
 3289TIP3    H231503   4.910   2.244   8.145  2.0964 -2.7585  2.2192
 3290TIP3   OH231504   5.680   6.360   8.079 -0.2409 -0.3500 -0.3077
 3290TIP3    H131505   5.735   6.360   8.000 -0.2825 -0.2755 -0.3379
 3290TIP3    H231506   5.632   6.278   8.076 -0.1464 -0.4050 -0.2934
 3291TIP3   OH231507   3.872   1.892   1.561 -0.0705 -0.0510 -0.2780
 3291TIP3    H131508   3.812   1.963   1.539  0.3041 -0.2549 -2.0423
 3291TIP3    H231509   3.925   1.879   1.483  0.2537 -1.9048  0.1924
 3292TIP3   OH231510   3.749   1.432   7.470 -0.3792  0.3444  0.1063
 3292TIP3    H131511   3.841   1.459   7.472 -0.2614 -0.0706  1.4128
 3292TIP3    H231512   3.748   1.356   7.412  0.2778 -0.2103  0.8003
 3293TIP3   OH231513   1.262   2.198   8.593  1.3129 -0.5329  0.1978
 3293TIP3    H131514   1.213   2.235   8.666 -1.2048 -1.5564 -0.8727
 3293TIP3    H231515   1.299   2.116   8.627  1.2756 -0.3484  0.6802
 3294TIP3   OH231516   5.929   2.876   1.699  0.3594  0.2245  0.2892
 3294TIP3    H131517   5.849   2.926   1.688  0.0617 -0.3888 -0.3938
 3294TIP3    H231518   5.901   2.784   1.703  0.9591  0.0509  0.7522
 3295TIP3   OH231519   1.363   1.165   8.682 -0.1005 -0.1073 -0.3770
 3295TIP3    H131520   1.349   1.105   8.756 -0.1527  0.3306 -0.0297
 3295TIP3    H231521   1.410   1.112   8.618 -1.4718 -0.9966 -0.7176
 3296TIP3   OH231522   1.087   1.947   1.715  0.0975 -0.2168  0.1615
 3296TIP3    H131523   1.165   1.997   1.690  0.1330 -0.6647 -0.6586
 3296TIP3    H231524   1.068   1.976   1.805  1.8494 -0.9120  0.8007
 3297TIP3   OH231525   3.370   4.246   0.116 -0.2288 -0.3475  0.6152
 3297TIP3    H131526   3.339   4.172   0.064 -1.2810 -0.8003  1.8274
 3297TIP3    H231527   3.292   4.301   0.128 -0.4175 -0.9967  2.8980
 3298TIP3   OH231528   4.165   2.942   7.240 -0.0970 -0.2368  0.5709
 3298TIP3    H131529   4.078   2.901   7.245  0.2449 -1.1415 -0.4847
 3298TIP3    H231530   4.224   2.879   7.280  0.2088 -0.0867  0.3601
 3299TIP3   OH231531   2.967   1.606   8.116 -0.8137  0.0287 -0.5763
 3299TIP3    H131532   2.987   1.637   8.027  0.2510  0.5047 -0.1898
 3299TIP3    H231533   2.995   1.514   8.116  0.4701  0.4069 -0.3460
 3300TIP3   OH231534   5.314   1.162   8.318  0.0590 -0.6013 -0.0509
 3300TIP3    H131535   5.319   1.070   8.342  1.9387  0.0352  2.4476
 3300TIP3    H231536   5.234   1.193   8.362  0.1643 -0.7645  0.2616
 3301TIP3   OH231537   0.242   2.206   6.842  0.3382 -0.4963 -0.4334
 3301TIP3    H131538   0.259   2.294   6.808  1.8447 -0.6205 -0.0952
 3301TIP3    H231539   0.267   2.148   6.770 -0.2770 -0.6556 -0.5174
 3302TIP3   OH231540   0.101   1.010   1.482 -0.2184 -0.1572 -0.5017
 3302TIP3    H131541   0.044   1.011   1.405 -0.7501 -0.2043 -0.1054
 3302TIP3    H231542   0.183   0.972   1.450 -0.4590 -0.2383 -1.0311
 3303TIP3   OH231543   0.582   1.983   6.777  0.6624 -0.2195  0.1871
 3303TIP3    H131544   0.614   2.072   6.766 -2.3671  0.9914  0.2938
 3303TIP3    H231545   0.657   1.935   6.812  1.3820  3.2819  4.3070
 3304TIP3   OH231546   4.574   4.800   1.494 -0.1039  0.0826  0.9174
 3304TIP3    H131547   4.666   4.811   1.520 -0.5131  1.3629  1.9589
 3304TIP3    H231548   4.525   4.812   1.575 -1.2284  0.0869  0.2533
 3305TIP3   OH231549   0.526   3.327   8.580 -0.0495  0.4591 -0.0937
 3305TIP3    H131550   0.477   3.289   8.507 -0.2875 -0.2658  0.4326
 3305TIP3    H231551   0.605   3.274   8.586  0.9074  1.7117 -1.0303
 3306TIP3   OH231552   3.375   1.730   0.527  0.3342 -0.1572 -0.0451
 3306TIP3    H131553   3.293   1.693   0.560  0.4733  0.2126  0.7349
 3306TIP3    H231554   3.442   1.692   0.583  0.6782 -0.2757 -0.5342
 3307TIP3   OH231555   0.074   5.984   6.303 -0.0871 -0.4015  0.3503
 3307TIP3    H131556   0.121   6.052   6.352 -0.7875 -1.0190  1.9363
 3307TIP3    H231557   0.122   5.904   6.321  0.1756 -0.5102 -0.7444
 3308TIP3   OH231558   3.902   2.269   0.706  0.1698 -0.3740  0.1453
 3308TIP3    H131559   3.823   2.322   0.697  0.7446  0.7438  1.3873
 3308TIP3    H231560   3.870   2.181   0.728 -0.7331 -0.0495  0.1725
 3309TIP3   OH231561   0.653   2.310   8.365 -0.0245  0.1566 -0.0536
 3309TIP3    H131562   0.575   2.255   8.374  0.9251 -1.3753 -0.7154
 3309TIP3    H231563   0.658   2.330   8.272  0.2272  0.4608  0.0236
 3310TIP3   OH231564   6.304   0.522   0.327 -0.0973  0.1216  0.1953
 3310TIP3    H131565   6.330   0.557   0.413  1.2339  1.6100 -0.7388
 3310TIP3    H231566   6.290   0.600   0.273 -0.3282 -0.7900 -1.1021
 3311TIP3   OH231567   0.924   4.465   1.853 -0.2414  0.5446 -0.0522
 3311TIP3    H131568   1.015   4.455   1.884 -0.0444  1.4889 -0.2935
 3311TIP3    H231569   0.910   4.560   1.850 -0.9166  0.4310 -0.9655
 3312TIP3   OH231570   0.341   1.759   0.741 -0.4926 -0.3202  0.1545
 3312TIP3    H131571   0.363   1.851   0.723 -0.7854 -0.5091 -1.3506
 3312TIP3    H231572   0.370   1.744   0.831 -0.3117  1.2055  0.3823
 3313TIP3   OH231573   0.461   2.343   2.826 -0.0274  0.3819  0.4409
 3313TIP3    H131574   0.549   2.321   2.855  0.7315  1.9936 -0.5232
 3313TIP3    H231575   0.405   2.319   2.900  0.8480 -2.9897  0.1506
 3314TIP3   OH231576   2.265   5.680   8.545  0.4302 -0.5388  0.0708
 3314TIP3    H131577   2.338   5.650   8.600  1.9027  0.0288 -1.4609
 3314TIP3    H231578   2.247   5.769   8.574  2.4117  0.4351 -1.3929
 3315TIP3   OH231579   6.750   2.918   7.697  0.9792  0.0719 -0.2071
 3315TIP3    H131580   6.769   2.841   7.643 -1.8574 -0.8284 -0.0731
 3315TIP3    H231581   6.799   2.904   7.778  1.7369 -0.7882 -0.7986
 3316TIP3   OH231582   3.292   5.287   0.962  0.4368 -0.0799 -0.6647
 3316TIP3    H131583   3.377   5.294   1.005  0.0346  1.0003 -0.0011
 3316TIP3    H231584   3.271   5.376   0.936 -0.3810 -0.3742 -1.0404
 3317TIP3   OH231585   5.825   4.169   0.842 -0.2032  0.7614  0.0736
 3317TIP3    H131586   5.848   4.251   0.798  2.2513  0.1479  0.0258
 3317TIP3    H231587   5.848   4.100   0.779 -3.2060 -0.0168 -0.3092
 3318TIP3   OH231588   6.338   4.031   8.894  0.3083  0.1480 -0.0262
 3318TIP3    H131589   6.381   3.965   8.839  1.4280  0.6018  0.2705
 3318TIP3    H231590   6.348   3.997   8.983 -0.3847  0.0286  0.0088
 3319TIP3   OH231591   0.729   5.507   0.808  0.3499 -0.3150 -0.1601
 3319TIP3    H131592   0.672   5.554   0.748  3.4074  0.3771 -2.8033
 3319TIP3    H231593   0.711   5.414   0.792 -0.4327 -0.1145 -0.4891
 3320TIP3   OH231594   4.745   2.419   8.406  0.0309  0.3594  0.5568
 3320TIP3    H131595   4.778   2.329   8.405  3.0310  1.2747  2.5580
 3320TIP3    H231596   4.782   2.459   8.327  0.4520  0.3593  0.7515
 3321TIP3   OH231597   4.260   3.145   7.927  0.1524 -0.3120 -0.0889
 3321TIP3    H131598   4.342   3.177   7.964  1.9574 -2.0339 -2.2985
 3321TIP3    H231599   4.227   3.218   7.875  0.4202  0.2926  0.5689
 3322TIP3   OH231600   0.274   2.315   0.794 -0.3501 -0.0033 -0.0218
 3322TIP3    H131601   0.288   2.234   0.744  2.2859  0.4904 -0.2660
 3322TIP3    H231602   0.295   2.292   0.884  0.2357  0.3488 -0.0628
 3323TIP3   OH231603   2.444   5.556   7.671 -0.5828 -0.3911 -0.2231
 3323TIP3    H131604   2.528   5.538   7.712  1.7593  1.5694 -3.6706
 3323TIP3    H231605   2.419   5.643   7.704 -1.7784 -1.2885  1.3879
 3324TIP3   OH231606   2.732   5.667   0.551 -0.0850 -0.0021 -0.1290
 3324TIP3    H131607   2.759   5.645   0.640 -0.4800  3.6181  1.0428
 3324TIP3    H231608   2.648   5.712   0.561  0.5471  1.8063 -2.1169
 3325TIP3   OH231609   0.528   5.448   7.027  0.1220 -0.3925 -0.6268
 3325TIP3    H131610   0.448   5.426   6.978  0.5832  0.6880 -1.9096
 3325TIP3    H231611   0.549   5.537   6.999  0.4814  0.2295  1.4802
 3326TIP3   OH231612   3.142   5.242   8.814 -0.6771  0.2622  0.1640
 3326TIP3    H131613   3.106   5.248   8.725  0.2667  1.4472 -0.1486
 3326TIP3    H231614   3.118   5.324   8.855 -2.8671 -1.0425  1.7312
 3327TIP3   OH231615   3.702   2.783   7.782 -0.0679  0.5105 -0.0446
 3327TIP3    H131616   3.760   2.789   7.858  0.8914  1.1483 -0.8037
 3327TIP3    H231617   3.690   2.874   7.754 -0.7639  0.3157 -0.4016
 3328TIP3   OH231618   3.719   2.319   8.634 -0.7332 -0.6809 -0.3276
 3328TIP3    H131619   3.756   2.349   8.550 -0.8130  1.3044  0.2769
 3328TIP3    H231620   3.788   2.266   8.673 -0.1932 -0.5707 -1.1044
 3329TIP3   OH231621   5.366   0.587   8.738  0.4328  1.1168 -0.3262
 3329TIP3    H131622   5.445   0.541   8.712 -0.6918 -0.5169 -0.9805
 3329TIP3    H231623   5.383   0.679   8.715  2.3929  0.9316  0.2280
 3330TIP3   OH231624   2.004   4.164   2.594  0.3616 -0.2191 -0.2686
 3330TIP3    H131625   1.977   4.232   2.531 -0.1885 -0.9724 -0.8639
 3330TIP3    H231626   1.948   4.178   2.670  0.5952  0.3079 -0.1910
 3331TIP3   OH231627   5.394   4.303   2.351  0.0059 -0.3263  0.3807
 3331TIP3    H131628   5.320   4.280   2.408 -2.1110 -1.6599 -2.6082
 3331TIP3    H231629   5.462   4.240   2.374  0.2247  0.7418  3.0163
 3332TIP3   OH231630   3.536   5.371   1.595  0.0199 -0.3296  0.3991
 3332TIP3    H131631   3.451   5.414   1.585  0.5680  0.5571 -0.7003
 3332TIP3    H231632   3.515   5.279   1.610 -1.1316 -0.0954  0.3296
 3333TIP3   OH231633   2.325   5.276   0.771  0.3845 -0.0402  0.1407
 3333TIP3    H131634   2.309   5.263   0.677 -1.9559 -1.3439  0.6545
 3333TIP3    H231635   2.391   5.210   0.793 -1.3840 -1.9613 -0.0241
 3334TIP3   OH231636   5.785   6.129   0.629  0.6122  0.2548 -0.1103
 3334TIP3    H131637   5.762   6.148   0.538 -0.3542 -1.0799 -0.1741
 3334TIP3    H231638   5.731   6.189   0.680 -0.9439 -0.8781 -0.3583
 3335TIP3   OH231639   3.045   5.551   0.723 -0.1122  0.5279  0.1698
 3335TIP3    H131640   2.960   5.535   0.765  1.4391 -0.8751  3.0405
 3335TIP3    H231641   3.103   5.575   0.795  1.9443  1.5828 -1.7369
 3336TIP3   OH231642   2.170   3.560   0.051  0.1505 -0.1591  0.0633
 3336TIP3    H131643   2.260   3.529   0.038  0.1326 -0.4639  0.6017
 3336TIP3    H231644   2.124   3.485   0.089  0.3612  0.7762  2.3396
 3337TIP3   OH231645   0.660   2.776   0.491  0.0206 -0.0473  0.6875
 3337TIP3    H131646   0.580   2.747   0.536 -0.5038 -0.1025 -0.2509
 3337TIP3    H231647   0.629   2.842   0.429  0.4319 -1.2816 -0.8936
 3338TIP3   OH231648   0.582   5.683   2.170  0.0858  0.0847  0.4164
 3338TIP3    H131649   0.645   5.611   2.169  0.8472  0.7022 -1.3596
 3338TIP3    H231650   0.509   5.651   2.223  0.4301 -1.9851 -0.2720
 3339TIP3   OH231651   2.881   3.295   7.003  0.0225  0.2630 -0.6286
 3339TIP3    H131652   2.786   3.296   7.010  0.0031 -0.4600 -0.6765
 3339TIP3    H231653   2.899   3.331   6.916 -0.1414  1.4898 -0.1691
 3340TIP3   OH231654   4.853   0.396   1.849  0.2498  0.5072  0.3179
 3340TIP3    H131655   4.903   0.326   1.806 -0.1275 -0.2269  1.0428
 3340TIP3    H231656   4.903   0.417   1.927  1.7807  2.9599 -1.1872
 3341TIP3   OH231657   6.019   0.432   7.513  0.3175 -0.0228  1.1528
 3341TIP3    H131658   6.036   0.362   7.450 -0.2729  0.8974 -0.0654
 3341TIP3    H231659   5.924   0.434   7.523  0.1570  1.7370 -0.2195
 3342TIP3   OH231660   3.691   3.833   1.708 -0.1002 -0.2527  0.4110
 3342TIP3    H131661   3.710   3.922   1.737  0.4051 -0.5764  1.1123
 3342TIP3    H231662   3.769   3.805   1.661 -0.3191 -0.2754  0.0584
 3343TIP3   OH231663   6.410   1.399   0.988 -0.7204 -0.4234 -0.2532
 3343TIP3    H131664   6.473   1.407   1.060 -0.9896 -0.6661  0.0151
 3343TIP3    H231665   6.462   1.412   0.909 -0.1623 -1.5209 -0.0807
 3344TIP3   OH231666   2.097   4.287   1.854  0.1667  0.2150  0.2740
 3344TIP3    H131667   2.084   4.346   1.929  1.9162 -0.2600  0.9896
 3344TIP3    H231668   2.164   4.226   1.883  1.1299  0.2113 -1.8085
 3345TIP3   OH231669   6.656   5.706   0.355  0.0051 -0.3756  0.2102
 3345TIP3    H131670   6.597   5.772   0.393 -0.8849  0.4649 -2.3845
 3345TIP3    H231671   6.743   5.746   0.360 -0.6819  1.8872 -2.7001
 3346TIP3   OH231672   2.226   5.635   6.651  0.5798 -0.0177 -0.1515
 3346TIP3    H131673   2.311   5.604   6.619  0.9609  0.2902  0.5290
 3346TIP3    H231674   2.166   5.563   6.632  0.2857  0.9651 -3.4786
 3347TIP3   OH231675   3.446   3.640   7.272  0.0718 -0.6646 -0.6306
 3347TIP3    H131676   3.496   3.690   7.337 -0.3172 -0.1336 -0.7314
 3347TIP3    H231677   3.409   3.567   7.322 -2.0790  0.9495  0.3000
 3348TIP3   OH231678   3.101   0.110   0.088 -0.1598  0.3816  0.4141
 3348TIP3    H131679   3.149   0.185   0.123  1.8412  0.8572 -2.9129
 3348TIP3    H231680   3.034   0.149   0.031 -0.0197 -0.3289 -0.2521
 3349TIP3   OH231681   5.444   5.384   7.120  0.2250 -0.1692 -0.0718
 3349TIP3    H131682   5.355   5.359   7.094 -0.3855  1.2366  0.5714
 3349TIP3    H231683   5.495   5.378   7.039 -0.5203 -0.6754 -0.5146
 3350TIP3   OH231684   0.249   2.963   1.569 -0.1751  0.6284  0.4172
 3350TIP3    H131685   0.250   2.900   1.641  0.3340 -0.8460 -0.8250
 3350TIP3    H231686   0.159   2.995   1.566 -0.9841 -1.5328 -0.1283
 3351TIP3   OH231687   0.024   1.355   8.488  0.4806  0.0357 -0.0173
 3351TIP3    H131688   0.097   1.335   8.430  0.2263  0.7031 -0.5896
 3351TIP3    H231689  -0.011   1.438   8.455 -0.3829 -0.1477  0.3971
 3352TIP3   OH231690   3.618   2.855   1.673 -0.0611  0.1715 -0.3520
 3352TIP3    H131691   3.534   2.857   1.719  0.6829  1.4940  1.0603
 3352TIP3    H231692   3.664   2.780   1.711 -0.1436  0.1790 -0.2356
 3353TIP3   OH231693   1.532   6.513   1.551  0.3547  0.1167 -0.4415
 3353TIP3    H131694   1.455   6.477   1.507 -1.0676  1.4198  0.8549
 3353TIP3    H231695   1.606   6.486   1.497 -1.1513  0.2755 -2.6982
 3354TIP3   OH231696   0.031   0.577   2.454  0.0425  0.2272 -0.0363
 3354TIP3    H131697   0.124   0.571   2.433 -0.2979 -1.2936 -1.3048
 3354TIP3    H231698   0.000   0.655   2.406  0.2839 -0.3929 -1.2293
 3355TIP3   OH231699   4.269   3.058   8.786 -0.3428 -0.1527  0.2293
 3355TIP3    H131700   4.320   3.115   8.844  2.0670 -0.8419 -1.0597
 3355TIP3    H231701   4.253   3.111   8.708  0.2573 -0.6048 -0.2102
 3356TIP3   OH231702   1.598   0.671   0.806  0.0980 -0.0422  0.5031
 3356TIP3    H131703   1.525   0.702   0.752 -1.9923 -1.6714  2.2504
 3356TIP3    H231704   1.676   0.707   0.762 -1.6291  1.0331 -1.9498
 3357TIP3   OH231705   3.317   0.024   8.836  0.6548 -0.0233  0.3107
 3357TIP3    H131706   3.384   0.069   8.887 -1.0778  1.4407  1.4282
 3357TIP3    H231707   3.240   0.022   8.893 -0.0695 -2.3384 -0.6177
 3358TIP3   OH231708   4.858   2.994   8.591 -0.6084  1.0917 -0.3723
 3358TIP3    H131709   4.842   3.015   8.499 -0.0542 -1.1918 -1.0582
 3358TIP3    H231710   4.772   2.998   8.633 -0.9156  1.8116 -1.0713
 3359TIP3   OH231711   2.167   2.767   2.154 -0.1644  0.0586  0.3136
 3359TIP3    H131712   2.087   2.814   2.132  0.0519  0.5795  0.5876
 3359TIP3    H231713   2.166   2.762   2.250  1.2285  2.1569  0.5184
 3360TIP3   OH231714   6.053   4.079   1.470 -0.4330 -0.3020  0.2106
 3360TIP3    H131715   6.007   4.077   1.554 -0.0751  0.1173  0.4187
 3360TIP3    H231716   6.145   4.066   1.493  0.0582  2.5478  0.1739
 3361TIP3   OH231717   0.538   1.709   7.542  0.6507  0.3725 -0.6839
 3361TIP3    H131718   0.480   1.778   7.573  1.4967  0.6754  0.2972
 3361TIP3    H231719   0.480   1.636   7.519 -0.0758  0.3568  1.0529
 3362TIP3   OH231720   3.947   0.831   0.467 -0.1499  0.6298  0.1404
 3362TIP3    H131721   3.905   0.889   0.530 -0.1481  1.5093 -0.6417
 3362TIP3    H231722   4.041   0.851   0.475  0.3603 -1.9913  2.5584
 3363TIP3   OH231723   5.536   2.600   8.865 -0.4531 -0.1678  0.0644
 3363TIP3    H131724   5.612   2.605   8.807 -1.8591 -0.9808 -1.9714
 3363TIP3    H231725   5.520   2.506   8.875  0.2278 -0.0805  2.4976
 3364TIP3   OH231726   4.244   1.485   0.309 -0.2407  0.3972  0.3144
 3364TIP3    H131727   4.306   1.451   0.245  0.0001  0.9505  0.2512
 3364TIP3    H231728   4.256   1.430   0.386 -0.3116 -0.0720 -0.0075
 3365TIP3   OH231729   1.559   1.084   7.374 -0.3058 -0.5928  0.5570
 3365TIP3    H131730   1.474   1.127   7.380  0.4144  1.1255 -0.7503
 3365TIP3    H231731   1.619   1.142   7.422  0.5511 -0.4712 -0.6013
 3366TIP3   OH231732   1.910   2.235   0.951 -0.3302  0.1033 -0.4364
 3366TIP3    H131733   2.001   2.263   0.954 -0.6411  1.1562 -0.4334
 3366TIP3    H231734   1.898   2.183   1.031 -0.4549  2.3352  1.1050
 3367TIP3   OH231735   4.841   3.077   0.409 -0.0621 -0.3071  0.0256
 3367TIP3    H131736   4.762   3.024   0.401  1.0564 -1.8148 -1.8446
 3367TIP3    H231737   4.825   3.152   0.351 -1.0611  0.7091  1.5549
 3368TIP3   OH231738   3.986   5.314   8.430  0.5345 -0.2897 -0.5131
 3368TIP3    H131739   3.928   5.339   8.502 -1.1641  1.0533 -2.2644
 3368TIP3    H231740   3.960   5.224   8.409  0.3974 -0.3587 -0.0553
 3369TIP3   OH231741   6.336   0.648   1.213  0.0353 -0.4281 -0.0406
 3369TIP3    H131742   6.368   0.695   1.290 -1.0860  0.2656  0.0336
 3369TIP3    H231743   6.347   0.556   1.235 -0.9690 -0.2591  1.2940
 3370TIP3   OH231744   1.075   5.806   6.872  0.3340 -0.6578 -0.0932
 3370TIP3    H131745   1.053   5.713   6.882  2.4942 -1.4289 -1.7508
 3370TIP3    H231746   1.047   5.827   6.783 -2.2791  1.0365  0.9906
 3371TIP3   OH231747   1.121   2.331   7.614  0.1177  0.8236 -0.2157
 3371TIP3    H131748   1.193   2.370   7.663 -0.5387  2.4312 -0.4578
 3371TIP3    H231749   1.061   2.299   7.681  0.7476  0.0474 -0.0127
 3372TIP3   OH231750   1.146   3.508   0.262  0.4329  0.5271 -0.3828
 3372TIP3    H131751   1.220   3.516   0.322 -1.1602 -1.1009  1.9707
 3372TIP3    H231752   1.130   3.414   0.256 -2.8506  0.8445  1.1309
 3373TIP3   OH231753   4.417   4.446   2.910 -0.2009 -0.2531  0.2608
 3373TIP3    H131754   4.394   4.445   2.817 -1.6938  1.5106  0.5536
 3373TIP3    H231755   4.366   4.519   2.947  1.0408 -0.3270  2.2887
 3374TIP3   OH231756   0.206   4.323   0.082 -0.4760  0.3879  0.0615
 3374TIP3    H131757   0.162   4.400   0.117 -0.6971  0.1782  0.2419
 3374TIP3    H231758   0.219   4.266   0.158  0.1324  0.4595  0.0211
 3375TIP3   OH231759   1.400   2.316   7.801 -0.1749  0.5098 -0.2370
 3375TIP3    H131760   1.439   2.384   7.856  1.1964  0.2993 -0.8936
 3375TIP3    H231761   1.431   2.337   7.712 -1.6465  0.3556 -0.8089
 3376TIP3   OH231762   2.720   2.693   0.980  0.4778  0.2822 -0.8731
 3376TIP3    H131763   2.797   2.751   0.984  0.4669  0.4512 -2.6082
 3376TIP3    H231764   2.688   2.701   0.890 -1.5931  0.2163 -0.1966
 3377TIP3   OH231765   4.861   3.070   8.328 -0.1150  0.3462 -0.5116
 3377TIP3    H131766   4.944   3.030   8.303  0.4265  0.4702  1.0202
 3377TIP3    H231767   4.833   3.117   8.249  2.6191  2.5418 -0.3447
 3378TIP3   OH231768   1.628   0.612   1.387  0.2699 -0.3397 -0.4878
 3378TIP3    H131769   1.613   0.599   1.293  2.4343  0.4989 -1.0166
 3378TIP3    H231770   1.690   0.543   1.411 -0.6593 -0.8632  0.4608
 3379TIP3   OH231771   6.332   4.616   2.245  0.0619 -0.1503  0.4157
 3379TIP3    H131772   6.259   4.605   2.183  0.1443 -2.0776  0.6001
 3379TIP3    H231773   6.350   4.710   2.243 -0.1730 -0.0749 -2.2260
 3380TIP3   OH231774   3.548   3.889   1.930 -0.2290  0.2316 -0.5858
 3380TIP3    H131775   3.586   3.854   2.011  0.2800  1.1951 -0.4011
 3380TIP3    H231776   3.592   3.840   1.860  0.2874  0.3153 -0.3241
 3381TIP3   OH231777   5.421   0.467   0.116  0.3032 -0.2414 -0.3980
 3381TIP3    H131778   5.354   0.471   0.184  0.6044 -0.7264 -0.0653
 3381TIP3    H231779   5.381   0.511   0.041 -1.0231 -1.8896 -0.7375
 3382TIP3   OH231780   1.095   2.251   2.433  0.0357  0.0011 -0.3701
 3382TIP3    H131781   1.188   2.272   2.441  0.0159  0.3776 -1.0044
 3382TIP3    H231782   1.051   2.336   2.439 -0.3395 -0.2608  0.7782
 3383TIP3   OH231783   5.770   2.230   7.090 -0.2055 -0.6518 -0.3721
 3383TIP3    H131784   5.797   2.310   7.134 -0.1068 -1.1161  0.4272
 3383TIP3    H231785   5.843   2.170   7.103  0.0697 -0.6270 -1.6566
 3384TIP3   OH231786   6.054   3.079   7.075 -0.3553  0.3891 -0.0187
 3384TIP3    H131787   6.021   3.129   7.000 -2.5004 -0.9727 -0.0571
 3384TIP3    H231788   5.988   3.090   7.143  0.1372 -0.7262  0.6751
 3385TIP3   OH231789   1.711   1.690   0.472 -0.2561  0.6709 -0.1990
 3385TIP3    H131790   1.757   1.682   0.556  0.3084  0.0733 -0.5461
 3385TIP3    H231791   1.647   1.759   0.485  0.6903  1.4628  0.3352
 3386TIP3   OH231792   1.330   5.294   2.090 -0.3799  0.0130 -0.2314
 3386TIP3    H131793   1.380   5.346   2.027  0.0504  2.1579  1.7520
 3386TIP3    H231794   1.248   5.273   2.045 -0.4752  2.2602 -1.2379
 3387TIP3   OH231795   2.382   3.862   8.344  0.1196 -0.3631 -0.2404
 3387TIP3    H131796   2.429   3.787   8.382  0.5308  0.0669  0.1033
 3387TIP3    H231797   2.416   3.869   8.255 -1.4066 -1.8664 -1.0074
 3388TIP3   OH231798   2.532   0.556   2.170 -0.0018  0.4042 -0.2286
 3388TIP3    H131799   2.580   0.614   2.229  0.4335  0.3134 -0.4835
 3388TIP3    H231800   2.551   0.468   2.203 -1.6280  0.4271  0.8874
 3389TIP3   OH231801   6.702   6.569   1.348 -0.7887  0.5189  0.1333
 3389TIP3    H131802   6.639   6.575   1.419 -2.0153 -0.1539 -0.8664
 3389TIP3    H231803   6.734   6.479   1.351  0.6042  1.0112  1.0004
 3390TIP3   OH231804   1.481   4.064   8.706  0.0799  0.4075 -0.7752
 3390TIP3    H131805   1.406   4.124   8.703 -0.1673  0.0567 -2.1589
 3390TIP3    H231806   1.512   4.059   8.615  1.0507 -0.3692 -0.4210
 3391TIP3   OH231807   5.991   4.740   6.464 -0.2877 -0.1825 -0.1125
 3391TIP3    H131808   6.078   4.739   6.504  0.5311  1.4183 -1.7095
 3391TIP3    H231809   5.941   4.676   6.514  1.2623  0.1740  2.0381
 3392TIP3   OH231810   3.224   1.564   0.329 -0.1996 -0.6219  0.4099
 3392TIP3    H131811   3.198   1.569   0.421 -0.6307  1.4488  0.2158
 3392TIP3    H231812   3.143   1.552   0.281 -0.2308  0.3962  0.1812
 3393TIP3   OH231813   1.543   3.430   7.793 -0.0193  0.4411 -0.5351
 3393TIP3    H131814   1.639   3.429   7.797 -0.0464 -0.2617  0.1157
 3393TIP3    H231815   1.520   3.523   7.787  0.6590  0.7142  0.7199
 3394TIP3   OH231816   6.494   0.970   1.114 -0.1378 -0.0491 -0.0974
 3394TIP3    H131817   6.549   1.043   1.086 -1.5008  1.5920  1.3495
 3394TIP3    H231818   6.426   0.965   1.047 -0.4908  0.5142  0.2207
 3395TIP3   OH231819   6.329   1.202   8.479  0.2631 -0.8068  0.5092
 3395TIP3    H131820   6.333   1.296   8.498 -0.1692 -0.5811 -0.4168
 3395TIP3    H231821   6.420   1.172   8.485  0.2890 -0.5241  1.6959
 3396TIP3   OH231822   0.824   0.454   0.470  0.3608 -0.1186  0.2708
 3396TIP3    H131823   0.864   0.490   0.391  1.6682  0.2643  1.0806
 3396TIP3    H231824   0.841   0.519   0.538 -1.4196 -0.0764  0.7332
 3397TIP3   OH231825   5.388   3.390   0.733 -0.4387  0.1915 -0.2103
 3397TIP3    H131826   5.462   3.349   0.689 -0.7693 -0.4998 -0.1271
 3397TIP3    H231827   5.380   3.343   0.816 -0.9453  0.2820 -0.2036
 3398TIP3   OH231828   4.456   4.161   1.581 -0.1089  0.7771 -0.0074
 3398TIP3    H131829   4.499   4.129   1.502 -0.0772  0.2612  0.2155
 3398TIP3    H231830   4.421   4.082   1.623 -2.4859  1.2779 -0.8847
 3399TIP3   OH231831   4.682   4.328   2.966  0.2318 -0.1474  0.0552
 3399TIP3    H131832   4.680   4.303   3.058  0.3052  1.9325  0.6498
 3399TIP3    H231833   4.591   4.349   2.945  0.2354 -0.4879 -0.3236
 3400TIP3   OH231834   0.705   5.042   0.635 -0.0571 -0.2626  0.0469
 3400TIP3    H131835   0.795   5.072   0.628  0.1708 -0.4745  1.6722
 3400TIP3    H231836   0.681   5.017   0.546  2.4905 -3.1072  0.0208
 3401TIP3   OH231837   4.333   1.332   1.893  0.0086  0.2189  0.3155
 3401TIP3    H131838   4.246   1.298   1.915  0.6755 -0.9010  1.3482
 3401TIP3    H231839   4.367   1.364   1.977  0.8581  0.0211  0.0487
 3402TIP3   OH231840   4.754   3.768   8.101  0.1890 -0.4017  0.3632
 3402TIP3    H131841   4.725   3.704   8.167  0.9530 -2.0378 -0.8053
 3402TIP3    H231842   4.673   3.802   8.064 -0.2955 -2.1993 -0.3435
 3403TIP3   OH231843   2.485   3.736   7.031  0.3358 -0.1853 -0.0286
 3403TIP3    H131844   2.439   3.653   7.039  0.4324 -0.1713  0.8520
 3403TIP3    H231845   2.511   3.742   6.939  0.1299 -1.0171 -0.1420
 3404TIP3   OH231846   2.171   0.778   0.531 -0.0692 -0.0416 -0.0600
 3404TIP3    H131847   2.220   0.696   0.532  0.8742  0.4265 -2.0062
 3404TIP3    H231848   2.085   0.756   0.567  0.1233 -1.9070 -0.6467
 3405TIP3   OH231849   6.687   5.296   1.626  0.2233  0.2435 -0.6641
 3405TIP3    H131850   6.776   5.287   1.590  0.2008  1.7249 -1.1403
 3405TIP3    H231851   6.684   5.232   1.697  2.5922  1.8845  1.0898
 3406TIP3   OH231852   1.971   0.623   1.240  0.3424 -0.0670  0.4379
 3406TIP3    H131853   1.980   0.704   1.290  0.0562 -0.3713  0.9896
 3406TIP3    H231854   1.881   0.595   1.255  0.8117 -1.1958  1.3674
 3407TIP3   OH231855   5.891   6.484   0.065  0.8371  0.0170  0.1401
 3407TIP3    H131856   5.978   6.521   0.052  1.0798 -1.1090 -1.7398
 3407TIP3    H231857   5.855   6.534   0.139  3.0969  0.3885  1.0772
 3408TIP3   OH231858   0.666   1.113   1.202  0.6007  0.2050  0.2591
 3408TIP3    H131859   0.591   1.173   1.196  0.6016  0.2813  0.9858
 3408TIP3    H231860   0.663   1.080   1.292  1.7411  0.5937  0.4527
 3409TIP3   OH231861   5.487   2.014   0.107  0.6006 -0.2927 -0.4611
 3409TIP3    H131862   5.432   2.031   0.031 -2.4506 -0.6029  1.5000
 3409TIP3    H231863   5.480   2.094   0.160  0.4655 -1.0711  0.7224
 3410TIP3   OH231864   3.928   6.797   8.075 -0.2611  0.2829 -0.3030
 3410TIP3    H131865   3.893   6.880   8.042 -0.3596  0.7798  0.9956
 3410TIP3    H231866   3.859   6.734   8.058 -0.7309  0.7356 -0.1038
 3411TIP3   OH231867   3.029   0.846   0.003  0.0851 -0.2078 -0.0411
 3411TIP3    H131868   2.950   0.820  -0.045  0.6433 -1.1307 -0.4827
 3411TIP3    H231869   3.077   0.764   0.016  1.4474  0.4608 -0.6442
 3412TIP3   OH231870   5.017   3.529   1.128  0.4009 -0.6036  0.0314
 3412TIP3    H131871   5.065   3.579   1.194  0.3276 -1.3225  0.6458
 3412TIP3    H231872   4.962   3.593   1.084  1.0584  0.0248  0.1109
 3413TIP3   OH231873   3.758   1.221   7.978  0.5701  0.6787  0.1581
 3413TIP3    H131874   3.745   1.206   8.072 -2.5615 -0.5515 -0.3587
 3413TIP3    H231875   3.831   1.164   7.954  1.3238  0.9069  1.7736
 3414TIP3   OH231876   3.627   1.471   2.051 -0.5912 -0.3247  0.5796
 3414TIP3    H131877   3.581   1.453   2.133  0.4596 -0.5679  1.1351
 3414TIP3    H231878   3.576   1.541   2.009 -0.9005  0.1002  1.6471
 3415TIP3   OH231879   5.085   0.535   2.569 -0.1191  0.3532  0.0907
 3415TIP3    H131880   5.048   0.575   2.648  0.1778 -0.9851  0.9351
 3415TIP3    H231881   5.090   0.441   2.589  1.1619  0.1462 -1.0342
 3416TIP3   OH231882   1.049   2.160   2.745  0.1450 -0.4478  0.1951
 3416TIP3    H131883   1.123   2.099   2.740  0.1902 -0.4167  0.4372
 3416TIP3    H231884   1.077   2.235   2.693  0.4571 -0.2631  0.6228
 3417TIP3   OH231885   3.006   6.239   0.918  0.4195  0.2807  0.4151
 3417TIP3    H131886   3.003   6.208   0.827 -1.1045 -0.2047  0.5978
 3417TIP3    H231887   3.000   6.159   0.970  3.1105  0.3886  1.0150
 3418TIP3   OH231888   5.965   4.078   2.721 -0.0833  0.2127 -0.0489
 3418TIP3    H131889   5.967   4.160   2.672 -0.9836  0.1127 -0.2746
 3418TIP3    H231890   5.872   4.061   2.736 -0.1177 -1.9850 -2.1273
 3419TIP3   OH231891   5.592   4.147   1.042 -0.0953  0.1796 -0.0378
 3419TIP3    H131892   5.665   4.113   0.990 -0.3259  0.8397 -0.8123
 3419TIP3    H231893   5.628   4.156   1.130  0.1369 -1.4939  0.0769
 3420TIP3   OH231894   5.776   5.338   2.500  0.7640 -0.1529 -0.2701
 3420TIP3    H131895   5.682   5.347   2.515  0.8483  1.2137 -0.4113
 3420TIP3    H231896   5.815   5.417   2.538  1.7167 -0.0924 -1.2830
 3421TIP3   OH231897   3.512   0.654   1.100  0.1401  0.1358  0.8554
 3421TIP3    H131898   3.466   0.723   1.051  0.4882 -0.5735 -0.4912
 3421TIP3    H231899   3.603   0.660   1.071 -0.2885 -2.6986 -1.5124
 3422TIP3   OH231900   4.265   2.961   0.604  0.3199  0.3508 -0.6941
 3422TIP3    H131901   4.281   2.866   0.598 -0.3480  0.2907 -1.9202
 3422TIP3    H231902   4.258   2.989   0.513 -0.9759  1.3133 -0.3133
 3423TIP3   OH231903   1.225   1.845   2.001 -0.2050 -0.4433  0.6784
 3423TIP3    H131904   1.215   1.939   1.988 -0.7942 -0.4285  1.1582
 3423TIP3    H231905   1.139   1.816   2.032  0.1569 -1.0217  1.1753
 3424TIP3   OH231906   6.369   0.264   8.259 -0.4756  0.0501 -0.3288
 3424TIP3    H131907   6.284   0.256   8.214 -1.3333  3.2610  0.4623
 3424TIP3    H231908   6.411   0.180   8.245 -3.0682 -1.0754 -2.2546
 3425TIP3   OH231909   2.753   1.795   7.450  0.8095  0.2873  0.6580
 3425TIP3    H131910   2.710   1.710   7.436  0.9246  0.2729  0.3762
 3425TIP3    H231911   2.831   1.791   7.396  0.5080  0.8059  0.1694
 3426TIP3   OH231912   1.581   2.117   2.217  0.1129  0.4020  0.0445
 3426TIP3    H131913   1.598   2.029   2.250  0.5551  0.8133  0.9227
 3426TIP3    H231914   1.664   2.164   2.230 -0.4364  1.2434  0.5377
 3427TIP3   OH231915   3.508   6.573   0.669 -0.3513 -0.1677 -0.0280
 3427TIP3    H131916   3.442   6.636   0.641 -0.1345  0.2599  0.3998
 3427TIP3    H231917   3.461   6.509   0.722 -0.1959  0.9611  1.5243
 3428TIP3   OH231918   5.422   4.772   7.434 -0.0036  0.2832  0.6983
 3428TIP3    H131919   5.420   4.862   7.467 -0.5731  0.8017 -0.6738
 3428TIP3    H231920   5.329   4.749   7.424  0.1491 -0.1971  0.3601
 3429TIP3   OH231921   1.368   3.512   8.818  0.7906 -0.4352 -0.4782
 3429TIP3    H131922   1.414   3.591   8.789 -0.4755  0.2806 -0.6066
 3429TIP3    H231923   1.277   3.525   8.790  0.0552 -0.8810  1.5477
 3430TIP3   OH231924   5.259   2.399   0.956 -0.3691 -0.6618 -0.0024
 3430TIP3    H131925   5.317   2.465   0.994  1.7531 -1.0108 -2.3949
 3430TIP3    H231926   5.254   2.421   0.863 -2.3714 -1.9452 -0.2750
 3431TIP3   OH231927   3.316   5.442   1.305 -0.5921 -0.5335  0.1004
 3431TIP3    H131928   3.387   5.404   1.254 -1.6126 -1.7276 -0.4798
 3431TIP3    H231929   3.244   5.451   1.244 -0.8731  0.9556  0.6078
 3432TIP3   OH231930   6.486   1.290   2.188  0.5912  0.9238  0.3664
 3432TIP3    H131931   6.572   1.252   2.205  1.2945  1.8852 -0.9134
 3432TIP3    H231932   6.476   1.285   2.093 -1.8151 -1.3251  0.6344
 3433TIP3   OH231933   1.745   1.506   8.523 -0.0216 -0.4122  0.6414
 3433TIP3    H131934   1.790   1.536   8.444 -0.3829  0.0590  0.6055
 3433TIP3    H231935   1.693   1.431   8.493 -0.9528  0.3822  0.1816
 3434TIP3   OH231936   6.549   3.836   1.239 -0.8206  0.5515  0.0275
 3434TIP3    H131937   6.580   3.747   1.225 -1.6723  0.0803  1.0613
 3434TIP3    H231938   6.468   3.826   1.290 -1.7993  1.8185 -1.1924
 3435TIP3   OH231939   5.704   3.794   2.661 -0.2040 -0.1002 -0.3201
 3435TIP3    H131940   5.717   3.883   2.693 -1.1535  0.2194 -0.7606
 3435TIP3    H231941   5.772   3.742   2.703  0.8358  0.9714 -0.6371
 3436TIP3   OH231942   5.229   3.749   0.991  0.2499  0.5189  0.0137
 3436TIP3    H131943   5.193   3.761   1.079  0.6958 -0.4683  0.3542
 3436TIP3    H231944   5.319   3.780   0.998  1.2022 -2.0748  0.7263
 3437TIP3   OH231945   2.122   1.804   0.561  0.6800 -0.5865  0.4179
 3437TIP3    H131946   2.100   1.897   0.558  1.2227 -0.4101  1.4358
 3437TIP3    H231947   2.071   1.765   0.490 -1.1916  0.1520  1.2802
 3438TIP3   OH231948   4.633   6.368   0.855 -0.1845 -0.4930 -0.0133
 3438TIP3    H131949   4.612   6.282   0.818 -2.1407  0.3499 -0.9977
 3438TIP3    H231950   4.574   6.428   0.810  0.3404  1.2092  1.4832
 3439TIP3   OH231951   0.332   0.240   8.707  0.0259 -0.1492 -0.2157
 3439TIP3    H131952   0.258   0.291   8.740  0.0877 -0.5918  0.6351
 3439TIP3    H231953   0.396   0.306   8.677 -0.5165  0.2364 -0.5375
 3440TIP3   OH231954   4.615   3.501   8.771 -0.2813  0.1419 -0.1067
 3440TIP3    H131955   4.673   3.426   8.784 -3.1831 -2.5754 -1.8256
 3440TIP3    H231956   4.588   3.526   8.860 -0.1427 -1.5873  0.4513
 3441TIP3   OH231957   1.547   1.069   0.460 -0.4244 -0.7213  0.1714
 3441TIP3    H131958   1.583   1.158   0.458  1.0457 -1.2746  0.1579
 3441TIP3    H231959   1.622   1.013   0.441 -1.3681 -1.9627 -0.0176
 3442TIP3   OH231960   2.516   0.216   8.490 -0.5939 -0.2504 -0.1485
 3442TIP3    H131961   2.501   0.286   8.426 -2.2128 -0.0934  0.3400
 3442TIP3    H231962   2.600   0.237   8.530  0.2081 -0.0738 -1.8451
 3443TIP3   OH231963   6.698   0.436   1.709 -0.0749 -0.4035  0.3083
 3443TIP3    H131964   6.729   0.351   1.677  0.4061 -0.1433  0.0723
 3443TIP3    H231965   6.691   0.490   1.630  2.7998  0.7960  0.7453
 3444TIP3   OH231966   1.510   5.725   7.720 -0.2086  0.6783 -0.3416
 3444TIP3    H131967   1.504   5.819   7.698  0.5289  0.4859 -1.4632
 3444TIP3    H231968   1.521   5.682   7.636  0.0514 -0.3769  0.2197
 3445TIP3   OH231969   1.357   5.864   8.309 -0.4258 -0.6782 -0.2506
 3445TIP3    H131970   1.342   5.896   8.398  0.4631 -1.2738  0.1211
 3445TIP3    H231971   1.427   5.800   8.318  1.1911  0.7761 -1.6664
 3446TIP3   OH231972   5.574   2.449   1.981 -0.5672 -0.3631  0.1667
 3446TIP3    H131973   5.607   2.359   1.983 -0.4488 -0.3192  0.2814
 3446TIP3    H231974   5.552   2.468   2.072  0.0504 -0.0463  0.2577
 3447TIP3   OH231975   4.700   1.391   0.183  0.0107 -0.5088  0.0874
 3447TIP3    H131976   4.621   1.445   0.179  0.4360  0.1970  0.9390
 3447TIP3    H231977   4.682   1.327   0.251 -0.5998 -1.6478 -1.1091
 3448TIP3   OH231978   1.428   0.558   1.591  0.3687 -0.3738 -0.0720
 3448TIP3    H131979   1.507   0.576   1.541 -0.6938  0.4748 -1.5005
 3448TIP3    H231980   1.398   0.473   1.558 -0.7108  0.5068 -1.4182
 3449TIP3   OH231981   3.218   2.423   6.990  0.3119 -0.3686  0.5254
 3449TIP3    H131982   3.188   2.388   7.074 -0.2766 -1.3422 -0.0743
 3449TIP3    H231983   3.180   2.365   6.924  1.7465 -0.3423 -0.3798
 3450TIP3   OH231984   0.449   5.976   8.418  0.2696 -0.3582 -0.4593
 3450TIP3    H131985   0.476   5.886   8.433 -0.4676 -0.2787  1.6883
 3450TIP3    H231986   0.496   6.026   8.485 -0.4786  0.6360 -0.6576
 3451TIP3   OH231987   1.423   6.197   0.825 -0.5329 -0.2183  0.1635
 3451TIP3    H131988   1.329   6.212   0.814 -0.6906  0.2526  1.8933
 3451TIP3    H231989   1.432   6.160   0.912  0.8708 -0.6365 -0.1208
 3452TIP3   OH231990   3.999   2.663   2.458 -0.2674 -0.2579 -0.9802
 3452TIP3    H131991   4.006   2.692   2.549  0.2512  0.8183 -1.3448
 3452TIP3    H231992   4.038   2.575   2.458  2.5526  0.9030 -0.7004
 3453TIP3   OH231993   0.228   4.547   1.744 -0.2001 -0.4860  0.1632
 3453TIP3    H131994   0.294   4.600   1.788 -1.2765 -0.0670  1.3343
 3453TIP3    H231995   0.173   4.611   1.698  0.5268 -0.8732 -1.2912
 3454TIP3   OH231996   4.792   6.133   7.280 -0.2679  0.0578  0.4943
 3454TIP3    H131997   4.811   6.042   7.300 -1.6608 -0.5528 -0.7681
 3454TIP3    H231998   4.863   6.182   7.321  0.1049 -1.5233  1.8325
 3455TIP3   OH231999   6.068   4.028   8.421  0.2512 -0.2442 -0.2030
 3455TIP3    H132000   6.102   4.018   8.332  2.5440 -0.5959  0.6353
 3455TIP3    H232001   6.146   4.033   8.475 -1.0500 -2.3295  2.0620
 3456TIP3   OH232002   1.564   4.597   2.117  0.2712  0.0265  0.2585
 3456TIP3    H132003   1.531   4.631   2.034  0.6832  0.1664  0.1496
 3456TIP3    H232004   1.488   4.598   2.176 -0.0018  0.0012 -0.0936
 3457TIP3   OH232005   6.031   3.926   7.822 -0.1316 -0.1334  0.1241
 3457TIP3    H132006   5.990   4.002   7.863 -0.6864 -1.0875  1.4100
 3457TIP3    H232007   6.099   3.963   7.766 -1.6980  1.4094 -0.8437
 3458TIP3   OH232008   2.447   3.936   6.509  0.3231 -0.1832  0.0878
 3458TIP3    H132009   2.421   3.844   6.515  1.0198 -0.5622 -1.9563
 3458TIP3    H232010   2.541   3.936   6.527  0.1040  0.3512  1.3890
 3459TIP3   OH232011   6.489   2.982   0.425  0.1714 -0.4663 -0.2231
 3459TIP3    H132012   6.415   3.041   0.410 -0.3106 -1.3173 -1.3154
 3459TIP3    H232013   6.449   2.902   0.460  0.9133  0.1657  2.3310
 3460TIP3   OH232014   5.278   3.404   8.500 -0.2334 -0.2614  0.2057
 3460TIP3    H132015   5.278   3.461   8.423  1.3991  0.9105  1.0187
 3460TIP3    H232016   5.370   3.391   8.520 -0.6257 -0.7398  1.8257
 3461TIP3   OH232017   5.726   3.246   3.025  0.7264  0.0547  0.1601
 3461TIP3    H132018   5.760   3.313   3.086 -0.9082  0.3000  0.8426
 3461TIP3    H232019   5.763   3.271   2.940  0.9306  1.2653  0.5762
 3462TIP3   OH232020   3.211   3.593   8.482 -0.3875  0.3984  0.4381
 3462TIP3    H132021   3.227   3.522   8.544 -0.3155  1.2796  1.4531
 3462TIP3    H232022   3.149   3.555   8.419 -0.8130 -0.3914  1.2931
 3463TIP3   OH232023   3.220   3.450   2.260  0.3994  0.4258  0.2013
 3463TIP3    H132024   3.276   3.416   2.330 -0.7884  1.4988  1.7320
 3463TIP3    H232025   3.272   3.520   2.221  0.8349  0.2220  0.3993
 3464TIP3   OH232026   1.368   0.665   8.064  0.2597 -0.1679  0.3816
 3464TIP3    H132027   1.390   0.667   7.971 -1.9797 -2.7717 -0.3275
 3464TIP3    H232028   1.435   0.719   8.105  1.1927  1.2958 -2.7356
 3465TIP3   OH232029   2.241   0.688   2.123  0.1100  0.8207  0.3131
 3465TIP3    H132030   2.262   0.732   2.041 -0.0650  1.1248  0.4302
 3465TIP3    H232031   2.321   0.639   2.145 -0.2452 -0.2325 -0.6522
 3466TIP3   OH232032   3.277   2.886   7.204  0.6422  0.0120 -0.0829
 3466TIP3    H132033   3.345   2.873   7.270  1.5806  1.0858 -0.8179
 3466TIP3    H232034   3.317   2.859   7.121  0.3338  1.0761 -0.5951
 3467TIP3   OH232035   3.108   0.578   0.048  1.3083  0.2798  0.7093
 3467TIP3    H132036   3.044   0.557   0.116 -0.8027  2.2553 -0.5197
 3467TIP3    H232037   3.184   0.524   0.069 -0.6853 -2.1241  2.3244
 3468TIP3   OH232038   2.259   0.541   2.769  0.1083  0.2346 -0.2231
 3468TIP3    H132039   2.264   0.446   2.779 -0.4891  0.2568  0.3554
 3468TIP3    H232040   2.190   0.555   2.704  0.0632  0.2790 -0.1655
 3469TIP3   OH232041   4.570   3.036   7.916  0.4605 -0.0130 -0.7844
 3469TIP3    H132042   4.652   3.007   7.876 -0.3115 -1.3583 -1.4515
 3469TIP3    H232043   4.516   2.958   7.921 -0.0081  0.3890  1.6979
 3470TIP3   OH232044   3.981   3.196   0.062 -0.1048  0.4778  0.4930
 3470TIP3    H132045   4.001   3.289   0.058  1.3153  0.1579 -2.7633
 3470TIP3    H232046   4.060   3.156   0.098  0.2733  0.3436 -0.4593
 3471TIP3   OH232047   0.264   3.416   1.756 -0.1062  0.8952  0.1470
 3471TIP3    H132048   0.349   3.374   1.750 -0.9132 -0.8525  0.2928
 3471TIP3    H232049   0.270   3.492   1.698  2.1394  1.9372  1.6433
 3472TIP3   OH232050   2.894   5.445   1.372 -0.1822 -0.0522 -0.6616
 3472TIP3    H132051   2.907   5.472   1.463  1.4448 -0.7514 -0.6366
 3472TIP3    H232052   2.826   5.503   1.338  0.9949  1.9582  0.2662
 3473TIP3   OH232053   4.054   6.722   1.105  0.2713 -0.2329  0.6390
 3473TIP3    H132054   4.040   6.667   1.183 -0.4873  0.0995  0.7436
 3473TIP3    H232055   4.013   6.674   1.034  0.2474 -0.1523  0.5979
 3474TIP3   OH232056   4.127   6.442   0.602 -0.0903  0.9376  0.1490
 3474TIP3    H132057   4.194   6.375   0.591 -3.0481 -1.9324 -2.3263
 3474TIP3    H232058   4.126   6.490   0.520 -1.1227  0.8656  0.1036
 3475TIP3   OH232059   5.336   3.572   8.044 -0.3070 -0.0115 -0.9131
 3475TIP3    H132060   5.400   3.638   8.015 -1.8147  1.3915 -1.1820
 3475TIP3    H232061   5.257   3.593   7.995 -1.8415  0.0798  1.4517
 3476TIP3   OH232062   4.436   4.554   1.802 -0.4622 -0.3974  0.0095
 3476TIP3    H132063   4.419   4.600   1.884 -0.4130  1.7656 -1.1258
 3476TIP3    H232064   4.531   4.560   1.790 -0.2291 -2.2088  0.5761
 3477TIP3   OH232065   2.426   4.988   1.061 -0.6199  0.4125 -0.3535
 3477TIP3    H132066   2.331   4.999   1.069 -0.7502  1.9265 -2.9285
 3477TIP3    H232067   2.447   5.021   0.974  2.2363 -0.3702 -0.0704
 3478TIP3   OH232068   1.628   1.248   8.422  0.1742 -0.2290 -0.0629
 3478TIP3    H132069   1.632   1.157   8.450  1.5410 -0.4299 -0.8257
 3478TIP3    H232070   1.548   1.254   8.369  1.5642 -1.7862 -2.5278
 3479TIP3   OH232071   3.345   0.790   7.374 -0.4870 -0.3344  0.6525
 3479TIP3    H132072   3.306   0.758   7.293 -2.2982 -3.0578  2.4109
 3479TIP3    H232073   3.296   0.870   7.394 -0.0382  0.3483 -0.8752
 3480TIP3   OH232074   0.336   3.515   7.722  0.1328  0.2262 -0.2875
 3480TIP3    H132075   0.378   3.558   7.649  0.4170  1.0423  0.3387
 3480TIP3    H232076   0.242   3.531   7.709  0.2312  0.9946 -0.0990
 3481TIP3   OH232077   2.664   3.057   1.950  0.0463  0.2022  0.6765
 3481TIP3    H132078   2.656   2.972   1.993  0.9366  0.4269  1.3124
 3481TIP3    H232079   2.746   3.051   1.901 -0.4492  0.3101 -0.1889
 3482TIP3   OH232080   5.143   2.125   1.610 -0.1233  0.3048 -0.0146
 3482TIP3    H132081   5.141   2.067   1.534  0.0838  0.6557 -0.2945
 3482TIP3    H232082   5.087   2.199   1.586 -0.0949  0.3952  0.1911
 3483TIP3   OH232083   1.336   0.484   0.675 -0.2352 -0.7157  0.0310
 3483TIP3    H132084   1.377   0.539   0.608 -0.5783  0.8493  1.0639
 3483TIP3    H232085   1.407   0.425   0.704 -0.3464 -2.2024 -2.3995
 3484TIP3   OH232086   3.141   3.258   1.889 -0.1470  0.1748 -0.6512
 3484TIP3    H132087   3.067   3.225   1.940  0.3601 -0.3013 -0.2091
 3484TIP3    H232088   3.166   3.185   1.832  0.2511  0.1804 -0.4902
 3485TIP3   OH232089   0.747   1.857   0.189  0.2108  0.1305 -0.2798
 3485TIP3    H132090   0.742   1.811   0.273  2.2302 -1.8657 -1.1585
 3485TIP3    H232091   0.789   1.795   0.131 -2.3803  0.8788 -3.2265
 3486TIP3   OH232092   0.908   5.389   0.257 -0.4810 -1.0548  0.7445
 3486TIP3    H132093   1.003   5.380   0.260 -0.3921 -1.6788 -1.5802
 3486TIP3    H232094   0.879   5.380   0.347  1.5558 -2.2487  1.3293
 3487TIP3   OH232095   0.731   0.536   2.387  0.2513  0.5143 -0.5824
 3487TIP3    H132096   0.667   0.562   2.453  1.5150 -1.6004  1.5937
 3487TIP3    H232097   0.812   0.580   2.413  0.6769 -0.0464 -0.9356
 3488TIP3   OH232098   5.622   4.714   7.094 -0.0468 -0.1318  0.2268
 3488TIP3    H132099   5.647   4.698   7.185 -0.0343 -2.8166 -0.1659
 3488TIP3    H232100   5.659   4.640   7.045  1.3672  2.0606 -2.2846
 3489TIP3   OH232101   4.303   3.223   1.442 -0.2977 -0.1303  0.0919
 3489TIP3    H132102   4.376   3.162   1.448  0.2591  0.5055 -0.1057
 3489TIP3    H232103   4.227   3.167   1.422  0.1472 -0.7818  0.1904
 3490TIP3   OH232104   1.536   6.004   0.083 -0.2686  0.3949  0.1245
 3490TIP3    H132105   1.551   5.950   0.006  0.0729  0.7343 -0.0541
 3490TIP3    H232106   1.471   5.956   0.134  1.4758 -1.1662  0.9595
 3491TIP3   OH232107   3.636   4.406   8.705 -0.1144 -0.2481 -0.5183
 3491TIP3    H132108   3.654   4.335   8.767  0.7276  0.5467  0.1922
 3491TIP3    H232109   3.563   4.454   8.744 -1.0905 -1.0576 -1.3064
 3492TIP3   OH232110   1.383   2.146   0.361 -0.4518  0.2796 -0.5179
 3492TIP3    H132111   1.472   2.116   0.379 -0.4215  0.6031 -0.1157
 3492TIP3    H232112   1.327   2.075   0.392 -0.3088 -0.4437 -1.8291
 3493TIP3   OH232113   3.197   1.015   7.439  0.7518 -0.0353  0.4792
 3493TIP3    H132114   3.246   1.068   7.503 -0.2750  0.5857  0.7824
 3493TIP3    H232115   3.105   1.039   7.454  0.4157 -0.5925 -0.5926
 3494TIP3   OH232116   6.302   1.540   0.655 -0.0145 -0.0285 -0.1174
 3494TIP3    H132117   6.382   1.501   0.620  0.4967  1.1037 -0.2385
 3494TIP3    H232118   6.238   1.531   0.585 -0.2092 -1.5321  0.2164
 3495TIP3   OH232119   2.332   2.068   7.751  0.5957 -0.1906 -0.0584
 3495TIP3    H132120   2.248   2.106   7.723  0.4571 -0.1216  0.4406
 3495TIP3    H232121   2.317   2.043   7.842  0.9599 -0.6545 -0.1257
 3496TIP3   OH232122   6.731   3.759   7.758 -0.1856  0.2014  0.5012
 3496TIP3    H132123   6.660   3.736   7.699 -0.0288 -1.0549  0.7842
 3496TIP3    H232124   6.798   3.797   7.701 -0.8918  1.0061  0.1806
 3497TIP3   OH232125   4.220   0.408   0.187 -0.1293 -0.5606 -0.2357
 3497TIP3    H132126   4.308   0.390   0.221  0.5701  1.5876 -0.7375
 3497TIP3    H232127   4.173   0.446   0.261 -0.4756 -1.2143 -0.1148
 3498TIP3   OH232128   0.003   6.236   2.414  0.0871 -0.0758 -0.4145
 3498TIP3    H132129   0.058   6.199   2.483 -1.9210 -1.9018  0.3052
 3498TIP3    H232130  -0.045   6.306   2.457 -0.4725 -0.5976 -0.1691
 3499TIP3   OH232131   0.767   5.239   8.006 -0.1208  0.6531 -0.7878
 3499TIP3    H132132   0.762   5.177   7.933 -0.3929  0.1814 -0.3769
 3499TIP3    H232133   0.821   5.195   8.071 -3.8160 -1.1687  1.3626
 3500TIP3   OH232134   4.256   4.668   2.986 -0.5490 -0.1252  0.1117
 3500TIP3    H132135   4.174   4.684   2.940 -0.5153 -0.6524 -0.1428
 3500TIP3    H232136   4.296   4.754   2.995 -1.7753  0.3344  1.4943
 3501TIP3   OH232137   1.631   1.350   7.913 -0.9547  0.8890  0.3790
 3501TIP3    H132138   1.573   1.393   7.850 -2.2244 -2.2020 -0.7948
 3501TIP3    H232139   1.581   1.274   7.942  1.7388 -0.8144  0.8665
 3502TIP3   OH232140   2.153   2.093   1.747  0.1458 -0.0449 -0.0979
 3502TIP3    H132141   2.109   2.044   1.816 -1.1376  1.0355 -0.1063
 3502TIP3    H232142   2.241   2.109   1.781 -1.4054  3.4353  2.9349
 3503TIP3   OH232143   0.859   4.697   7.655 -0.2826 -0.4001  0.1257
 3503TIP3    H132144   0.904   4.771   7.615  1.7479 -1.1058  0.9888
 3503TIP3    H232145   0.776   4.692   7.608 -0.5142  2.4089  0.0236
 3504TIP3   OH232146   3.737   5.671   1.923 -0.1666  0.0291 -0.0835
 3504TIP3    H132147   3.686   5.676   1.842 -0.7241  0.3344  0.2776
 3504TIP3    H232148   3.681   5.713   1.989  0.3125 -0.1468  0.4415
 3505TIP3   OH232149   4.033   5.019   7.843  0.3565 -0.4998  0.4822
 3505TIP3    H132150   4.027   4.927   7.817 -0.6400  0.0539 -1.4090
 3505TIP3    H232151   3.961   5.062   7.797  0.8405  1.2578  1.2712
 3506TIP3   OH232152   1.902   2.934   0.127  0.1199 -0.2836 -0.1578
 3506TIP3    H132153   1.924   2.859   0.182  1.4028  0.6056  0.5874
 3506TIP3    H232154   1.820   2.966   0.162  0.7738  0.0930  1.0835
 3507TIP3   OH232155   0.064   1.838   7.364 -0.0650 -0.4247 -0.4271
 3507TIP3    H132156   0.020   1.779   7.302  2.1865 -2.1023 -0.5780
 3507TIP3    H232157   0.087   1.915   7.311 -0.8231 -0.5069 -0.8914
 3508TIP3   OH232158   3.132   6.251   1.835  0.0210  0.6475  0.7306
 3508TIP3    H132159   3.098   6.213   1.754 -0.4283  1.5064  0.5095
 3508TIP3    H232160   3.223   6.221   1.838  0.5745  1.9866 -0.9756
 3509TIP3   OH232161   0.048   5.053   1.910  0.1168  0.0893 -0.1945
 3509TIP3    H132162   0.075   5.140   1.937  0.9343  0.2421 -1.4066
 3509TIP3    H232163  -0.030   5.068   1.857 -0.2294  0.0011  0.2890
 3510TIP3   OH232164   1.985   3.100   7.473 -0.3940  0.4726 -0.1407
 3510TIP3    H132165   1.935   3.054   7.405 -0.8349  0.7181  0.0095
 3510TIP3    H232166   2.070   3.118   7.433 -1.0946  1.7860 -1.1292
 3511TIP3   OH232167   1.436   0.302   6.958  0.4973 -0.1726  0.1947
 3511TIP3    H132168   1.380   0.299   7.036  0.7493 -2.2360  0.3464
 3511TIP3    H232169   1.442   0.395   6.937 -1.5601  0.2449  1.1870
 3512TIP3   OH232170   5.665   5.585   7.127  0.4229  0.4285 -0.3412
 3512TIP3    H132171   5.601   5.523   7.091  2.9368 -1.6086 -1.6492
 3512TIP3    H232172   5.632   5.605   7.214 -1.5483 -1.2011 -0.6275
 3513TIP3   OH232173   3.211   1.673   8.231 -0.2773 -0.4332  0.3498
 3513TIP3    H132174   3.247   1.634   8.152 -1.5375 -0.7772 -0.0585
 3513TIP3    H232175   3.116   1.672   8.219 -0.6399 -2.2625  2.6645
 3514TIP3   OH232176   5.403   4.383   1.143  0.4189 -0.5862 -0.3314
 3514TIP3    H132177   5.446   4.306   1.179  1.7610  0.3211  0.0997
 3514TIP3    H232178   5.327   4.349   1.095  1.4177 -2.2321 -0.8131
 3515TIP3   OH232179   0.716   1.431   7.811 -0.4849  0.1375 -0.6410
 3515TIP3    H132180   0.782   1.480   7.761 -1.7201  2.2199 -0.3461
 3515TIP3    H232181   0.762   1.404   7.891  0.6236 -0.4228 -1.4547
 3516TIP3   OH232182   0.673   4.200   0.560  0.0792  0.7652 -0.0705
 3516TIP3    H132183   0.731   4.131   0.527 -0.0124  0.9239 -0.5627
 3516TIP3    H232184   0.732   4.267   0.593  0.1844 -0.0037  1.4089
 3517TIP3   OH232185   3.870   0.424   1.099 -0.3669  0.0819 -0.1313
 3517TIP3    H132186   3.952   0.416   1.147  0.8898 -0.0543 -2.1895
 3517TIP3    H232187   3.806   0.451   1.165  1.0510 -0.9665  1.7632
 3518TIP3   OH232188   3.870   4.265   3.084 -0.7160  0.6692  0.4701
 3518TIP3    H132189   3.784   4.305   3.066 -0.6545  1.4589  1.8294
 3518TIP3    H232190   3.931   4.338   3.084 -0.0626  0.1386 -0.2186
 3519TIP3   OH232191   6.530   2.681   8.574 -0.0375  0.0209  0.1200
 3519TIP3    H132192   6.508   2.648   8.661 -0.8626 -0.2349 -0.1699
 3519TIP3    H232193   6.484   2.765   8.569  0.1464  0.1136 -0.0076
 3520TIP3   OH232194   2.386   2.462   7.095 -0.5555 -0.4262  0.3736
 3520TIP3    H132195   2.348   2.415   7.169  0.6962 -1.0133  0.6679
 3520TIP3    H232196   2.381   2.554   7.120 -2.4576 -0.4027  0.0637
 3521TIP3   OH232197   3.036   5.339   2.421  0.1630 -0.1755 -0.1015
 3521TIP3    H132198   3.073   5.383   2.344 -1.6876  1.7717  0.0243
 3521TIP3    H232199   2.954   5.301   2.389  0.6114 -1.5583  0.3577
 3522TIP3   OH232200   6.276   0.522   8.370 -0.0785  0.2923 -0.0214
 3522TIP3    H132201   6.295   0.539   8.277 -2.3007  1.4369 -0.3544
 3522TIP3    H232202   6.274   0.427   8.377 -3.0671  0.0628 -1.9962
 3523TIP3   OH232203   2.636   0.169   7.775 -0.4376 -0.3247 -0.2731
 3523TIP3    H132204   2.569   0.216   7.824  0.8920  0.7536  0.5486
 3523TIP3    H232205   2.590   0.092   7.741 -1.7219 -0.4251  1.5536
 3524TIP3   OH232206   4.671   3.461   0.188  0.3000  0.3326  0.1802
 3524TIP3    H132207   4.582   3.493   0.174  1.0650  1.8023 -1.6429
 3524TIP3    H232208   4.727   3.537   0.174  1.8288 -0.2907  2.4064
 3525TIP3   OH232209   6.176   6.351   0.093  0.1755 -0.0016  0.4466
 3525TIP3    H132210   6.167   6.445   0.075 -0.8008  0.1067  1.4051
 3525TIP3    H232211   6.270   6.336   0.095  0.4031  0.3689 -2.5383
 3526TIP3   OH232212   2.961   1.411   8.461  0.9047  0.3843 -0.4056
 3526TIP3    H132213   2.888   1.462   8.424  0.5353 -0.0280 -0.2528
 3526TIP3    H232214   2.931   1.385   8.548  2.8669  3.7935  1.4919
 3527TIP3   OH232215   1.518   1.382   6.889 -0.4457 -0.2930 -0.0496
 3527TIP3    H132216   1.563   1.324   6.951 -0.6050  0.5659  0.8789
 3527TIP3    H232217   1.453   1.428   6.941 -0.8700  0.1517 -0.9449
 3528TIP3   OH232218   0.314   1.418   1.793 -0.3067  0.2325 -0.4907
 3528TIP3    H132219   0.252   1.352   1.766  0.6177  0.3724 -3.2162
 3528TIP3    H232220   0.399   1.373   1.792  0.0454  0.8753 -0.1139
 3529TIP3   OH232221   2.349   2.720   8.704 -0.1558  0.0617  0.1187
 3529TIP3    H132222   2.422   2.658   8.706 -0.3196 -0.1582  2.2102
 3529TIP3    H232223   2.347   2.752   8.614  0.9080 -1.7993 -0.6337
 3530TIP3   OH232224   6.632   3.989   2.704 -0.4668 -0.3460  0.0544
 3530TIP3    H132225   6.638   3.975   2.799  1.0184  0.0915  0.0522
 3530TIP3    H232226   6.562   3.931   2.676 -1.5895  0.2078  1.5527
 3531TIP3   OH232227   1.700   2.576   7.629  0.1115  0.4190  0.2145
 3531TIP3    H132228   1.699   2.545   7.720  1.4530  3.9752  1.6219
 3531TIP3    H232229   1.792   2.570   7.603 -0.4226 -1.8128 -1.5446
 3532TIP3   OH232230   0.698   4.803   0.836  0.1320 -0.3402 -0.1211
 3532TIP3    H132231   0.746   4.721   0.829  0.6962 -0.0569  0.3483
 3532TIP3    H232232   0.700   4.840   0.748  0.3955 -0.5366 -0.1986
 3533TIP3   OH232233   5.811   4.876   0.562  0.0194  0.1916 -0.1531
 3533TIP3    H132234   5.740   4.880   0.626 -0.1649  0.3352 -0.3642
 3533TIP3    H232235   5.780   4.816   0.495  0.4996 -0.4976  0.2357
 3534TIP3   OH232236   0.505   0.451   0.080  0.4832  0.0936  0.1168
 3534TIP3    H132237   0.514   0.545   0.067 -1.0472  0.2862  0.3010
 3534TIP3    H232238   0.412   0.433   0.067  0.5203 -1.1960  1.3424
 3535TIP3   OH232239   1.745   0.907   1.301 -0.0519 -0.2805  0.2416
 3535TIP3    H132240   1.718   0.838   1.362  1.0079 -0.7219  0.2311
 3535TIP3    H232241   1.698   0.887   1.220 -0.9671 -0.0653  0.7086
 3536TIP3   OH232242   0.261   4.056   7.114 -0.0051  0.5800  0.5640
 3536TIP3    H132243   0.299   4.116   7.179  0.1474  1.2447 -0.1227
 3536TIP3    H232244   0.245   4.111   7.037  0.1309 -0.2599 -0.0813
 3537TIP3   OH232245   6.022   3.360   0.568 -0.0162 -0.2467  0.6067
 3537TIP3    H132246   5.953   3.363   0.501 -1.1271  1.9864  1.7706
 3537TIP3    H232247   6.100   3.395   0.524 -0.7495  1.2498  0.4359
 3538TIP3   OH232248   5.459   2.580   1.390 -0.1194 -0.9169 -0.0066
 3538TIP3    H132249   5.536   2.617   1.434  0.6424 -0.1965 -1.8615
 3538TIP3    H232250   5.404   2.548   1.462  1.7273 -1.1238  1.3982
 3539TIP3   OH232251   2.994   2.554   8.112 -0.1027  0.4659  0.1633
 3539TIP3    H132252   2.996   2.517   8.023  0.9464 -1.6266  0.9941
 3539TIP3    H232253   3.085   2.554   8.140 -0.6569 -1.4829  2.1999
 3540TIP3   OH232254   6.643   4.284   7.475 -0.1195  0.2705 -0.1325
 3540TIP3    H132255   6.576   4.246   7.419 -1.0283 -2.1523  2.3957
 3540TIP3    H232256   6.720   4.228   7.462  0.3100  0.9027 -0.3880
 3541TIP3   OH232257   6.490   3.693   7.522 -0.1508 -0.1118  0.2006
 3541TIP3    H132258   6.408   3.738   7.506  0.6632  0.9904 -1.0345
 3541TIP3    H232259   6.493   3.623   7.457 -0.0432 -0.0768  0.1683
 3542TIP3   OH232260   2.883   6.625   1.034 -0.1745 -0.4216  0.8576
 3542TIP3    H132261   2.958   6.684   1.039 -1.0824  0.6697  2.8756
 3542TIP3    H232262   2.809   6.682   1.012 -0.5427 -1.4052 -0.6224
 3543TIP3   OH232263   5.987   0.085   0.355 -0.0576 -0.5254  0.2685
 3543TIP3    H132264   5.999   0.149   0.285  1.5987 -1.7764 -0.6290
 3543TIP3    H232265   5.917   0.027   0.323 -0.5682 -0.0322  0.4685
 3544TIP3   OH232266   1.801   6.364   1.173  0.3060  0.6657 -0.0689
 3544TIP3    H132267   1.711   6.389   1.153  0.5595  1.6696 -0.0552
 3544TIP3    H232268   1.854   6.420   1.116  0.8997 -1.3667 -1.6099
 3545TIP3   OH232269   2.644   1.588   1.536 -0.0042  0.6724  0.2668
 3545TIP3    H132270   2.600   1.662   1.493  1.0578  0.7220 -0.7845
 3545TIP3    H232271   2.711   1.560   1.474  2.5035  1.5636  2.3749
 3546TIP3   OH232272   1.392   0.769   8.893  0.2064 -0.3438 -0.0797
 3546TIP3    H132273   1.312   0.720   8.876 -0.2101  0.4038 -0.3105
 3546TIP3    H232274   1.367   0.861   8.884  1.6811 -0.1029 -2.9758
 3547TIP3   OH232275   5.925   5.604   8.791  0.2300  0.4466 -0.1442
 3547TIP3    H132276   5.894   5.685   8.752  0.9193  0.1222 -1.4238
 3547TIP3    H232277   5.933   5.543   8.718 -0.8548 -0.9899  0.8638
 3548TIP3   OH232278   5.652   2.808   7.861  0.2874  0.3100  0.4542
 3548TIP3    H132279   5.653   2.737   7.798  2.9395  0.4373  0.2079
 3548TIP3    H232280   5.562   2.814   7.891 -0.2662 -2.2372 -0.5228
 3549TIP3   OH232281   5.856   4.179   2.355  0.3510 -0.3691  0.0163
 3549TIP3    H132282   5.863   4.244   2.285  1.0262 -1.0709 -0.5799
 3549TIP3    H232283   5.921   4.207   2.420 -0.0970  0.1366  0.2539
 3550TIP3   OH232284   6.749   6.758   1.145  0.0163 -0.1824 -0.7482
 3550TIP3    H132285   6.734   6.678   1.195  1.3263 -0.9739 -1.5599
 3550TIP3    H232286   6.841   6.780   1.162  0.4247 -0.3404 -2.5850
 3551TIP3   OH232287   3.139   3.522   1.567 -0.3914  0.5931  0.2922
 3551TIP3    H132288   3.130   3.539   1.474 -1.8879 -0.2080  0.2540
 3551TIP3    H232289   3.176   3.433   1.572  0.0644  0.7885  0.4704
 3552TIP3   OH232290   0.159   2.897   0.213 -0.2309  0.3824  0.3334
 3552TIP3    H132291   0.236   2.841   0.210 -1.0332 -0.7271 -1.3650
 3552TIP3    H232292   0.105   2.860   0.282  0.7393  1.1843  1.5493
 3553TIP3   OH232293   5.747   5.004   8.530  0.0002 -0.2553  0.0514
 3553TIP3    H132294   5.811   4.965   8.590 -0.0630  0.2018  0.4199
 3553TIP3    H232295   5.671   5.024   8.586  0.2867  1.0219  0.0065
 3554TIP3   OH232296   4.862   0.667   1.706  0.3580 -0.3755  0.6186
 3554TIP3    H132297   4.838   0.587   1.751  0.7640 -1.6795 -1.3628
 3554TIP3    H232298   4.881   0.640   1.616  0.0181  2.0141 -0.2554
 3555TIP3   OH232299   6.004   5.877   2.215  0.9101  0.4741 -0.8187
 3555TIP3    H132300   6.097   5.891   2.229  1.3241 -3.0186  0.8113
 3555TIP3    H232301   5.965   5.879   2.302 -0.0389 -0.9707 -1.1791
 3556TIP3   OH232302   1.643   1.525   2.654  0.2590 -0.5749  0.7447
 3556TIP3    H132303   1.655   1.590   2.724  1.2695 -0.4302  0.4556
 3556TIP3    H232304   1.730   1.517   2.614 -0.1191 -1.2731  0.0433
 3557TIP3   OH232305   4.427   5.929   1.008  0.1168  0.0096  0.0575
 3557TIP3    H132306   4.419   5.843   0.965  0.5380  0.8337 -1.7667
 3557TIP3    H232307   4.507   5.923   1.059 -0.3249 -0.9546  0.6945
 3558TIP3   OH232308   1.215   4.659   1.552 -0.2575  0.0862 -0.5854
 3558TIP3    H132309   1.249   4.575   1.584 -0.9549  0.1992  0.5036
 3558TIP3    H232310   1.221   4.653   1.457  2.4347 -0.0628 -0.4888
 3559TIP3   OH232311   3.060   5.402   1.135 -0.5941 -0.2179 -0.3007
 3559TIP3    H132312   3.066   5.494   1.109 -2.0289 -0.3276 -1.1485
 3559TIP3    H232313   3.004   5.403   1.212  1.1482 -0.2059  1.0245
 3560TIP3   OH232314   4.894   0.871   7.287 -0.4954 -0.0310 -0.0801
 3560TIP3    H132315   4.902   0.926   7.210 -0.7119 -0.0132 -0.0904
 3560TIP3    H232316   4.916   0.929   7.360  0.5816 -0.2736 -0.1909
 3561TIP3   OH232317   3.735   2.194   1.314  0.1120  0.0248 -0.6919
 3561TIP3    H132318   3.726   2.289   1.321 -0.8598  0.0853 -2.3346
 3561TIP3    H232319   3.798   2.171   1.382  1.8493  2.0742 -1.5184
 3562TIP3   OH232320   4.755   5.814   2.003  0.2966  0.9286 -0.6345
 3562TIP3    H132321   4.746   5.886   1.940  2.4018 -0.5688 -2.8282
 3562TIP3    H232322   4.825   5.843   2.063 -0.6091  1.6929  0.0889
 3563TIP3   OH232323   6.315   4.238   8.705  0.8983 -0.3062  0.0273
 3563TIP3    H132324   6.325   4.157   8.754  0.2969  0.2840  1.1366
 3563TIP3    H232325   6.222   4.243   8.685  0.9788 -0.0225 -0.2818
 3564TIP3   OH232326   1.021   3.524   0.780  0.4512 -0.5400  0.2892
 3564TIP3    H132327   0.930   3.511   0.752  0.4714  0.1069 -0.1002
 3564TIP3    H232328   1.043   3.443   0.827  0.4065 -1.6770 -1.5470
 3565TIP3   OH232329   4.369   6.448   1.499  0.3660 -0.2134 -0.3810
 3565TIP3    H132330   4.324   6.383   1.446 -3.1975  0.6249  1.2435
 3565TIP3    H232331   4.398   6.400   1.577  0.9678 -0.5127 -0.7921
 3566TIP3   OH232332   2.465   1.763   1.416 -0.1316 -0.3358 -0.3442
 3566TIP3    H132333   2.386   1.816   1.403 -0.8253 -0.6954  2.0016
 3566TIP3    H232334   2.491   1.736   1.328 -2.4942 -0.0287 -1.1900
 3567TIP3   OH232335   3.309   1.760   7.865 -0.2369  0.1653  0.2052
 3567TIP3    H132336   3.338   1.786   7.778 -3.4530 -1.6089 -1.6162
 3567TIP3    H232337   3.389   1.732   7.910  1.7158  2.4565 -1.5819
 3568TIP3   OH232338   6.400   5.071   1.137 -0.5448 -0.0062 -0.1205
 3568TIP3    H132339   6.355   4.987   1.142  1.5887 -1.1538  0.9801
 3568TIP3    H232340   6.384   5.112   1.222  0.0261 -0.1884  0.0800
 3569TIP3   OH232341   0.261   6.193   0.247  0.0976  0.1705 -0.7113
 3569TIP3    H132342   0.300   6.269   0.290 -0.6067 -0.0433  0.3334
 3569TIP3    H232343   0.189   6.229   0.195 -0.7629  0.1561  0.4305
 3570TIP3   OH232344   0.567   1.921   8.327  0.6996  0.7665  0.3719
 3570TIP3    H132345   0.507   1.994   8.311 -0.1017 -0.2589 -1.7781
 3570TIP3    H232346   0.644   1.942   8.273  0.4371  0.0235 -0.3093
 3571TIP3   OH232347   6.126   0.902   8.184  0.5052 -0.0292  0.4421
 3571TIP3    H132348   6.186   0.958   8.135  1.4080 -1.6957 -0.4621
 3571TIP3    H232349   6.064   0.870   8.117 -0.3452  0.3168  1.0462
 3572TIP3   OH232350   1.983   5.808   0.550  0.0438 -0.6592  0.4433
 3572TIP3    H132351   2.055   5.748   0.528 -0.7722 -1.1163 -1.0891
 3572TIP3    H232352   1.909   5.750   0.570 -0.5558 -0.1816 -0.3507
 3573TIP3   OH232353   3.840   6.502   1.830 -0.1565 -0.2501  0.0430
 3573TIP3    H132354   3.893   6.580   1.814  0.5222 -1.0319 -1.7776
 3573TIP3    H232355   3.754   6.524   1.796 -1.0284  0.9236  2.7576
 3574TIP3   OH232356   4.663   6.060   8.273  0.6188  0.6507 -0.4213
 3574TIP3    H132357   4.659   5.967   8.250 -1.8501  0.9917 -1.6957
 3574TIP3    H232358   4.604   6.069   8.348  0.7102  1.2332 -0.4121
 3575TIP3   OH232359   6.418   5.743   0.177  0.4551 -0.5623 -0.2626
 3575TIP3    H132360   6.429   5.704   0.090 -0.1974 -0.3705 -0.4332
 3575TIP3    H232361   6.505   5.737   0.217  0.5392 -1.4951 -0.5706
 3576TIP3   OH232362   2.038   4.215   0.343 -0.0253 -0.1844 -0.5081
 3576TIP3    H132363   2.101   4.199   0.414 -0.4467 -0.1745 -0.1313
 3576TIP3    H232364   1.978   4.140   0.346 -0.4854  0.1859 -0.3748
 3577TIP3   OH232365   6.452   2.868   1.175  0.1984 -0.0804  0.4621
 3577TIP3    H132366   6.390   2.817   1.227 -0.5619 -0.6876 -1.0034
 3577TIP3    H232367   6.525   2.809   1.160 -0.9846 -1.0578 -1.8255
 3578TIP3   OH232368   3.692   4.751   0.321 -0.8558  0.9927  0.8682
 3578TIP3    H132369   3.696   4.656   0.329 -1.9010  1.0609  2.7015
 3578TIP3    H232370   3.746   4.771   0.245 -2.9561 -1.2882 -1.4248
 3579TIP3   OH232371   1.315   2.483   0.442  0.5421  0.1044  0.1887
 3579TIP3    H132372   1.315   2.562   0.387  0.1309 -0.6612 -0.9459
 3579TIP3    H232373   1.229   2.484   0.485 -0.0368 -0.4305 -0.9082
 3580TIP3   OH232374   6.359   2.245   1.020 -0.4133  0.0424 -0.0122
 3580TIP3    H132375   6.336   2.277   1.107 -2.1918 -0.9245 -0.0636
 3580TIP3    H232376   6.280   2.200   0.990  0.2592  0.0811 -2.0054
 3581TIP3   OH232377   0.347   6.760   0.519 -0.4102 -0.0416 -0.3525
 3581TIP3    H132378   0.288   6.835   0.520 -1.9796 -1.2280 -0.2595
 3581TIP3    H232379   0.410   6.778   0.588 -0.8070  1.1475 -0.2776
 3582TIP3   OH232380   6.709   2.033   0.085 -0.5316 -0.0966  0.0378
 3582TIP3    H132381   6.654   2.092   0.137 -1.1695 -1.0528  0.4768
 3582TIP3    H232382   6.700   1.948   0.128  0.6561 -0.4452 -0.3711
 3583TIP3   OH232383   5.570   6.009   0.384 -0.1634 -0.4792  0.4776
 3583TIP3    H132384   5.623   6.077   0.342  0.5758 -0.6813  1.0797
 3583TIP3    H232385   5.523   6.055   0.453 -0.1588 -0.4589  0.4673
 3584TIP3   OH232386   4.982   4.955   1.992  0.6575  0.4436  0.0443
 3584TIP3    H132387   5.069   4.994   1.984  0.8326 -0.2943 -2.4976
 3584TIP3    H232388   4.999   4.861   1.994 -0.0736  0.2863 -0.7250
 3585TIP3   OH232389   0.451   0.662   0.827  0.4483 -0.0815 -0.5777
 3585TIP3    H132390   0.467   0.568   0.830  0.6303 -0.0464 -0.4596
 3585TIP3    H232391   0.515   0.700   0.888 -0.1564  0.0440 -0.0091
 3586TIP3   OH232392   5.377   0.407   7.515 -0.2201 -0.0768  0.0170
 3586TIP3    H132393   5.365   0.425   7.422 -0.7971 -1.1067 -0.1250
 3586TIP3    H232394   5.346   0.486   7.559  2.2571  1.3906 -0.7055
 3587TIP3   OH232395   6.472   1.221   7.358  0.2057  0.0481  0.6850
 3587TIP3    H132396   6.439   1.257   7.440  2.9958  0.8222  1.5694
 3587TIP3    H232397   6.477   1.295   7.298 -0.5111 -0.2481  0.2441
 3588TIP3   OH232398   2.759   3.298   1.723 -1.3616  0.6796  0.0095
 3588TIP3    H132399   2.788   3.240   1.653 -1.9710 -0.9481  1.0375
 3588TIP3    H232400   2.837   3.311   1.778 -1.3179  0.4965 -0.0092
 3589TIP3   OH232401   2.966   4.730   7.966  0.0922 -0.0481  0.2242
 3589TIP3    H132402   2.927   4.770   8.044  0.3674  0.0121  0.3305
 3589TIP3    H232403   3.059   4.749   7.973  0.0928  0.1252 -0.2214
 3590TIP3   OH232404   2.979   6.650   7.739  0.3252  0.5247  0.2056
 3590TIP3    H132405   3.044   6.634   7.807  1.3984  2.3851 -0.3066
 3590TIP3    H232406   3.009   6.729   7.695 -1.6966  0.8049 -0.8075
 3591TIP3   OH232407   5.183   1.238   1.725 -0.0699 -0.4509  0.2853
 3591TIP3    H132408   5.269   1.233   1.766 -0.3301 -0.1388  0.8834
 3591TIP3    H232409   5.160   1.147   1.705  0.4500 -0.5252  0.0018
 3592TIP3   OH232410   2.172   4.704   8.110  0.6697  0.1526 -0.6208
 3592TIP3    H132411   2.164   4.747   8.195  0.8410 -0.3467 -0.3496
 3592TIP3    H232412   2.086   4.714   8.070  1.0125  1.7398 -1.0451
 3593TIP3   OH232413   4.650   2.773   6.965  0.5262  0.1513 -0.2489
 3593TIP3    H132414   4.588   2.806   7.030  0.9894  1.1341 -0.2909
 3593TIP3    H232415   4.729   2.826   6.977  1.1785 -0.7154 -0.5621
 3594TIP3   OH232416   1.501   5.352   7.799  0.0608 -0.1343 -0.0758
 3594TIP3    H132417   1.497   5.256   7.793 -0.8565 -0.0402 -1.2892
 3594TIP3    H232418   1.493   5.371   7.892  1.3431 -1.2751  0.2979
 3595TIP3   OH232419   1.472   0.372   7.890 -1.3077 -0.1254  0.2041
 3595TIP3    H132420   1.381   0.389   7.913 -1.4399 -0.1320 -0.2997
 3595TIP3    H232421   1.477   0.277   7.881 -0.9118 -0.2606  1.5989
 3596TIP3   OH232422   4.510   3.155   1.100 -0.5189 -0.1141  0.0427
 3596TIP3    H132423   4.496   3.243   1.133 -1.9899 -0.7253  1.1441
 3596TIP3    H232424   4.605   3.150   1.085 -0.3326  1.4317  0.5361
 3597TIP3   OH232425   3.015   4.489   8.143 -0.7052 -0.0032 -0.6046
 3597TIP3    H132426   3.076   4.432   8.095 -2.1242 -0.5846 -1.8132
 3597TIP3    H232427   2.943   4.502   8.082 -1.8712  0.5268  0.8345
 3598TIP3   OH232428   2.268   1.951   0.755 -0.3598 -0.1816  0.3883
 3598TIP3    H132429   2.244   1.877   0.698 -0.5039 -0.3494  0.6660
 3598TIP3    H232430   2.197   2.014   0.741 -0.4673 -0.2794  0.4806
 3599TIP3   OH232431   2.697   4.908   0.002  0.3947 -0.0347  0.2262
 3599TIP3    H132432   2.623   4.927   0.060  0.9175  0.3422  0.7889
 3599TIP3    H232433   2.704   4.986  -0.053 -0.4029 -0.5941 -0.6844
 3600TIP3   OH232434   5.268   3.502   1.501  0.3357  0.5064 -0.1631
 3600TIP3    H132435   5.212   3.437   1.544  1.1719 -0.4169 -0.4306
 3600TIP3    H232436   5.209   3.573   1.477 -0.2274  0.9815  2.3152
 3601TIP3   OH232437   2.197   1.082   7.018  0.0718  0.7459 -0.4984
 3601TIP3    H132438   2.139   1.040   7.080  0.2669  2.3866  0.8830
 3601TIP3    H232439   2.243   1.010   6.975 -0.3153 -0.4574  1.0116
 3602TIP3   OH232440   1.224   1.036   0.543  0.2791  0.4574  0.2760
 3602TIP3    H132441   1.300   1.074   0.498  0.5191  0.5558  0.7635
 3602TIP3    H232442   1.151   1.054   0.485  0.7776 -0.5603 -0.7291
 3603TIP3   OH232443   4.087   5.644   7.168  0.4353  0.0974 -0.1439
 3603TIP3    H132444   4.146   5.711   7.203  0.5671 -1.1117  2.1844
 3603TIP3    H232445   4.119   5.562   7.206 -0.6931 -1.0801 -1.6043
 3604TIP3   OH232446   4.613   0.236   7.876 -0.0036 -0.3530  0.3863
 3604TIP3    H132447   4.569   0.252   7.793 -0.6609 -1.5391  0.4878
 3604TIP3    H232448   4.618   0.323   7.917 -1.8058 -0.0992  0.1456
 3605TIP3   OH232449   5.836   5.746   7.407  0.3556 -0.3712 -0.5674
 3605TIP3    H132450   5.860   5.828   7.365 -0.7184  0.0003 -0.4648
 3605TIP3    H232451   5.920   5.706   7.431  0.8810  0.7844 -0.4399
 3606TIP3   OH232452   4.653   5.890   7.879 -0.1155 -0.2006  0.1755
 3606TIP3    H132453   4.565   5.921   7.860  0.2874  1.6252  1.0919
 3606TIP3    H232454   4.644   5.839   7.959 -0.2746  0.3955  0.5425
 3607TIP3   OH232455   0.153   0.638   8.620 -0.0432 -0.5418 -0.2580
 3607TIP3    H132456   0.140   0.673   8.532 -0.3138 -1.4035 -0.5688
 3607TIP3    H232457   0.071   0.594   8.641 -0.1822  0.1192  0.6555
 3608TIP3   OH232458   5.617   4.991   8.278  0.2268 -0.3413 -0.3664
 3608TIP3    H132459   5.528   5.027   8.277 -0.2225 -1.4090 -0.4722
 3608TIP3    H232460   5.633   4.969   8.370  0.2567 -0.4495 -0.3975
 3609TIP3   OH232461   5.632   6.249   8.612  0.2151  0.0532 -0.4507
 3609TIP3    H132462   5.550   6.297   8.599 -0.3738 -0.7457  0.2271
 3609TIP3    H232463   5.666   6.281   8.695  1.4373  1.5473 -1.4749
 3610TIP3   OH232464   4.271   4.769   8.488 -0.1011  0.1178  0.4108
 3610TIP3    H132465   4.210   4.816   8.430  1.4952 -0.5576 -1.9624
 3610TIP3    H232466   4.239   4.679   8.486 -0.0641  0.1004  0.6417
 3611TIP3   OH232467   5.959   5.855   1.619  0.4620  0.5712 -0.3654
 3611TIP3    H132468   6.022   5.793   1.584 -0.1952 -0.9376  1.0065
 3611TIP3    H232469   5.966   5.932   1.562  3.9013  0.7122  0.0527
 3612TIP3   OH232470   3.229   2.707   2.520 -0.0883 -0.1690  0.0316
 3612TIP3    H132471   3.196   2.713   2.609  1.5147 -1.4150  0.7694
 3612TIP3    H232472   3.286   2.629   2.521 -0.5014 -0.5644 -2.2250
 3613TIP3   OH232473   6.089   1.339   7.419  0.1648  0.2254 -0.1894
 3613TIP3    H132474   6.091   1.373   7.509 -1.3024 -0.1540  0.0214
 3613TIP3    H232475   6.109   1.246   7.428 -0.6700  0.0402 -0.1508
 3614TIP3   OH232476   5.348   5.128   0.983 -0.0478 -0.2112  0.6444
 3614TIP3    H132477   5.405   5.053   0.964  1.5789 -0.1128  4.3020
 3614TIP3    H232478   5.276   5.092   1.034 -2.3947  0.0114 -2.2295
 3615TIP3   OH232479   6.161   2.303   0.601 -0.2642 -0.3221  0.0251
 3615TIP3    H132480   6.123   2.371   0.658  0.3335  0.0304  0.0091
 3615TIP3    H232481   6.099   2.296   0.528 -0.6983 -0.3089  0.3842
 3616TIP3   OH232482   5.668   6.648   1.511 -0.5114 -0.2020  0.2364
 3616TIP3    H132483   5.733   6.690   1.455 -1.4397  1.0332  0.0361
 3616TIP3    H232484   5.643   6.568   1.464  0.1041 -0.1596 -0.1716
 3617TIP3   OH232485   5.657   5.442   7.963 -0.3810 -0.0808  0.3520
 3617TIP3    H132486   5.748   5.438   7.993 -0.6816  1.4184  1.6297
 3617TIP3    H232487   5.622   5.354   7.977  0.5614 -0.3759  0.8961
 3618TIP3   OH232488   4.203   0.816   1.048  0.0560  0.2668 -0.0211
 3618TIP3    H132489   4.111   0.810   1.073  0.3165 -1.4607  0.6405
 3618TIP3    H232490   4.248   0.841   1.129  0.0479  2.8305 -0.7055
 3619TIP3   OH232491   1.272   4.122   7.552 -0.3850  0.8271 -0.6842
 3619TIP3    H132492   1.256   4.049   7.612  0.5575  0.3394 -1.0119
 3619TIP3    H232493   1.280   4.081   7.466  1.0894  1.1972 -0.7436
 3620TIP3   OH232494   1.416   4.765   7.393 -0.0118 -0.1120 -0.4001
 3620TIP3    H132495   1.331   4.759   7.349  0.8786  2.6980 -2.8344
 3620TIP3    H232496   1.396   4.809   7.476 -1.0721 -0.5990 -0.3826
 3621TIP3   OH232497   1.435   2.688   0.742 -0.0357  0.3623  0.0827
 3621TIP3    H132498   1.477   2.630   0.806  0.5367  1.9664  1.2397
 3621TIP3    H232499   1.346   2.701   0.776  0.6528  2.2410  1.3770
 3622TIP3   OH232500   2.371   0.883   1.335  0.0415  0.7099  0.4469
 3622TIP3    H132501   2.369   0.978   1.330 -1.0000  0.7370  1.1102
 3622TIP3    H232502   2.281   0.855   1.318  0.2230 -0.1139  0.7671
 3623TIP3   OH232503   5.969   3.391   1.770  0.0604 -0.2530  0.0156
 3623TIP3    H132504   6.023   3.444   1.712 -0.8172 -1.0617 -1.5942
 3623TIP3    H232505   5.889   3.375   1.721 -1.1234 -0.1737  1.8425
 3624TIP3   OH232506   5.760   1.879   0.408 -0.1393 -0.0525  0.3074
 3624TIP3    H132507   5.770   1.861   0.501 -1.6899 -1.2178  0.2829
 3624TIP3    H232508   5.841   1.924   0.384  1.9200 -2.8018  1.4633
 3625TIP3   OH232509   3.819   4.672   1.022  0.2234 -0.3626 -0.5383
 3625TIP3    H132510   3.859   4.586   1.033 -1.4810 -1.3013 -1.2880
 3625TIP3    H232511   3.726   4.658   1.037  0.2356  2.1313  3.2141
 3626TIP3   OH232512   5.555   2.366   2.557  0.0123 -0.0326 -0.4766
 3626TIP3    H132513   5.623   2.434   2.560  1.3570 -1.3589  1.8026
 3626TIP3    H232514   5.527   2.356   2.648 -0.7745 -1.9297 -0.8835
 3627TIP3   OH232515   4.256   0.900   8.385  0.2602 -0.2675  0.6468
 3627TIP3    H132516   4.257   0.829   8.320 -0.8104  0.4848 -0.2291
 3627TIP3    H232517   4.182   0.878   8.442  0.5294 -0.3497  0.9704
 3628TIP3   OH232518   0.233   6.321   7.173  0.0657  0.0837 -0.2670
 3628TIP3    H132519   0.189   6.405   7.184 -0.5563 -0.2914  0.1797
 3628TIP3    H232520   0.287   6.332   7.094  0.9213  1.2831  0.4533
 3629TIP3   OH232521   5.585   0.247   1.887  0.1080  0.2711 -0.2041
 3629TIP3    H132522   5.522   0.319   1.899  2.0852  1.9618  0.6466
 3629TIP3    H232523   5.647   0.281   1.823  1.2488 -0.5555  0.4380
 3630TIP3   OH232524   5.312   4.948   1.830 -0.3915 -0.0613 -0.3328
 3630TIP3    H132525   5.322   4.867   1.781  2.0086 -0.4617  0.6900
 3630TIP3    H232526   5.274   5.009   1.767  0.9567 -1.0301 -2.1810
 3631TIP3   OH232527   3.767   6.674   8.414  0.2746  0.5636 -0.0522
 3631TIP3    H132528   3.762   6.760   8.372  0.0548 -0.1156 -1.4940
 3631TIP3    H232529   3.753   6.691   8.507  1.5711  2.2289 -0.1220
 3632TIP3   OH232530   1.420   6.730   1.681 -0.3135 -0.8929 -0.2461
 3632TIP3    H132531   1.470   6.653   1.651  1.3145  0.4984 -1.2747
 3632TIP3    H232532   1.456   6.750   1.767 -0.0034 -0.6633 -0.4287
 3633TIP3   OH232533   0.197   6.017   0.622  0.0271  0.6026  0.0681
 3633TIP3    H132534   0.206   6.020   0.527  1.6601  0.3663  0.1933
 3633TIP3    H232535   0.281   5.986   0.654 -0.9501 -0.7011  1.5342
 3634TIP3   OH232536   3.120   6.769   2.329  0.1029  0.1053  0.3474
 3634TIP3    H132537   3.101   6.787   2.421  0.0703  1.9605  0.0042
 3634TIP3    H232538   3.182   6.696   2.331  0.3617  0.3421  1.8415
 3635TIP3   OH232539   1.132   3.696   1.051  0.3558 -0.3934  0.3538
 3635TIP3    H132540   1.165   3.697   1.141  0.0489  0.2506  0.4651
 3635TIP3    H232541   1.208   3.718   0.997  0.4631 -0.4531  0.4787
 3636TIP3   OH232542   2.179   4.891   1.493 -0.1790  0.1576 -0.3210
 3636TIP3    H132543   2.107   4.829   1.490 -1.4014  1.5554 -2.0569
 3636TIP3    H232544   2.249   4.851   1.442 -1.7606  1.0434 -3.3814
 3637TIP3   OH232545   4.680   4.771   8.696  0.5537 -0.3451  0.2721
 3637TIP3    H132546   4.601   4.823   8.710 -1.1152 -1.9877 -2.2585
 3637TIP3    H232547   4.751   4.836   8.691 -0.9524  1.3796  0.3734
 3638TIP3   OH232548   6.743   2.196   7.817 -0.3178 -0.3507  0.0097
 3638TIP3    H132549   6.659   2.214   7.859 -1.0297 -2.6053 -0.2856
 3638TIP3    H232550   6.720   2.165   7.729  0.8458 -0.5805 -0.2338
 3639TIP3   OH232551   2.536   2.130   2.323  0.2121  0.4157  0.2681
 3639TIP3    H132552   2.475   2.065   2.289  1.2891 -0.3656 -0.2304
 3639TIP3    H232553   2.610   2.079   2.355  0.8464  1.3708  0.3618
 3640TIP3   OH232554   5.081   0.142   7.454  0.6747  0.4785 -0.4178
 3640TIP3    H132555   5.108   0.051   7.441 -1.0419 -0.9270  3.9793
 3640TIP3    H232556   5.002   0.152   7.402  1.3336 -0.2255 -1.5951
 3641TIP3   OH232557   4.682   6.144   8.621  0.1477  0.2546 -0.5575
 3641TIP3    H132558   4.612   6.113   8.564  0.4050 -0.1102 -0.6776
 3641TIP3    H232559   4.759   6.150   8.565 -0.4269  3.6170 -1.2065
 3642TIP3   OH232560   6.754   1.114   1.938  0.3742 -0.6633 -0.3530
 3642TIP3    H132561   6.831   1.089   1.886  0.1397 -1.3232 -0.3958
 3642TIP3    H232562   6.685   1.129   1.873  0.2235 -0.9763 -0.2717
 3643TIP3   OH232563   4.526   2.880   0.932 -0.0941 -0.2876  0.1973
 3643TIP3    H132564   4.578   2.825   0.990  1.6630  2.1737  1.1216
 3643TIP3    H232565   4.537   2.841   0.845  0.3298 -1.8648  0.9321
 3644TIP3   OH232566   5.245   5.296   8.692  0.1976 -0.0419 -0.2779
 3644TIP3    H132567   5.199   5.240   8.628  0.1905  2.6421 -2.8485
 3644TIP3    H232568   5.324   5.246   8.715 -1.2195 -2.3432 -0.0805
 3645TIP3   OH232569   2.529   3.028   0.902 -0.2274  0.7371  0.1751
 3645TIP3    H132570   2.594   2.959   0.913 -0.9034 -0.2556 -1.5590
 3645TIP3    H232571   2.471   3.019   0.977 -0.3626 -0.6884 -0.0755
 3646TIP3   OH232572   2.798   0.579   7.462  0.6940 -0.0615  0.1434
 3646TIP3    H132573   2.798   0.485   7.446 -0.1863 -0.6265  2.8246
 3646TIP3    H232574   2.709   0.608   7.441  0.8241  0.0802 -0.2173
 3647TIP3   OH232575   4.697   5.750   0.189 -0.5198  0.5635  0.0200
 3647TIP3    H132576   4.664   5.835   0.159 -0.8127  0.0664 -1.1446
 3647TIP3    H232577   4.619   5.699   0.208 -0.3952  0.1267 -0.5803
 3648TIP3   OH232578   0.503   2.129   2.373  0.1252 -0.1521  0.2379
 3648TIP3    H132579   0.522   2.207   2.320  1.5346 -0.9762 -0.5393
 3648TIP3    H232580   0.415   2.144   2.407 -0.3918  0.9182 -1.4448
 3649TIP3   OH232581   5.930   3.728   8.002 -0.7430  0.2819 -0.6711
 3649TIP3    H132582   5.840   3.696   7.988 -0.3888 -0.4015 -1.4931
 3649TIP3    H232583   5.945   3.790   7.932  0.1552 -1.2342 -1.8963
 3650TIP3   OH232584   5.113   5.141   8.043 -0.6336  0.4343 -0.3103
 3650TIP3    H132585   5.024   5.113   8.019 -1.8500  2.2029  1.7989
 3650TIP3    H232586   5.142   5.076   8.106 -0.3041 -0.2573 -1.1484
 3651TIP3   OH232587   5.710   6.715   1.791 -0.2305  0.2913  0.1150
 3651TIP3    H132588   5.661   6.705   1.710  0.8718  1.4741 -0.7261
 3651TIP3    H232589   5.643   6.712   1.860 -1.2629  0.0569 -0.8706
 3652TIP3   OH232590   2.346   5.337   0.037  0.6774  0.3035  0.5752
 3652TIP3    H132591   2.324   5.300  -0.048 -2.7080 -0.0214  1.4541
 3652TIP3    H232592   2.398   5.268   0.080 -0.5443 -1.0084  0.0362
 3653TIP3   OH232593   3.138   6.315   7.835 -0.0984  0.4924  0.1415
 3653TIP3    H132594   3.137   6.333   7.929  0.9039  1.5366 -0.0385
 3653TIP3    H232595   3.072   6.374   7.799 -0.0845  0.4923  0.1162
 3654TIP3   OH232596   0.480   2.793   1.398 -0.0381  0.6154  0.4353
 3654TIP3    H132597   0.469   2.885   1.373  0.0147  0.7783  0.9834
 3654TIP3    H232598   0.485   2.795   1.494 -1.3351 -0.0826  0.5509
 3655TIP3   OH232599   6.395   1.274   1.245  1.1083 -0.1781 -0.0415
 3655TIP3    H132600   6.329   1.274   1.314 -1.0274 -0.4278 -1.9429
 3655TIP3    H232601   6.403   1.183   1.218  2.3674 -0.1705  0.2499
 3656TIP3   OH232602   5.848   5.427   0.984 -0.5652 -0.4113  0.4347
 3656TIP3    H132603   5.809   5.407   1.069  0.2908 -2.4551  0.3907
 3656TIP3    H232604   5.942   5.420   0.998 -0.2768  1.5450 -0.1723
 3657TIP3   OH232605   1.481   3.527   1.421 -0.1278 -0.9071 -0.4373
 3657TIP3    H132606   1.538   3.560   1.490 -0.1877  0.5391 -1.0553
 3657TIP3    H232607   1.444   3.605   1.380 -0.4168 -1.7378 -1.8446
 3658TIP3   OH232608   5.166   4.271   2.527 -0.4235 -0.1729 -0.7165
 3658TIP3    H132609   5.155   4.354   2.575  0.8136  0.2021 -1.0587
 3658TIP3    H232610   5.107   4.279   2.452 -0.7884  0.1263 -0.4055
 3659TIP3   OH232611   4.822   0.603   7.326 -0.1388 -0.8721 -0.2975
 3659TIP3    H132612   4.840   0.697   7.322 -0.1769 -0.6361  2.9512
 3659TIP3    H232613   4.873   0.572   7.400 -3.1526 -2.5937  1.2617
 3660TIP3   OH232614   6.465   0.333   0.579 -0.2922  0.4548 -0.2075
 3660TIP3    H132615   6.475   0.288   0.664 -1.3936  1.0542  0.2525
 3660TIP3    H232616   6.439   0.264   0.519  0.3715  0.0451 -0.0397
 3661TIP3   OH232617   2.720   3.841   8.617 -0.0166  0.5443 -0.5057
 3661TIP3    H132618   2.782   3.912   8.602 -0.2284  1.0050  0.6818
 3661TIP3    H232619   2.715   3.833   8.713 -0.8944 -0.2750 -0.6012
 3662TIP3   OH232620   0.269   4.398   2.025  0.1309  0.1150  0.4159
 3662TIP3    H132621   0.268   4.305   2.046  0.6497  0.2802  1.2419
 3662TIP3    H232622   0.282   4.401   1.931 -0.1034 -0.6485  0.3504
 3663TIP3   OH232623   5.917   5.778   0.685 -0.0441  0.4116 -0.1847
 3663TIP3    H132624   5.974   5.851   0.661 -0.1459  0.7182  0.5089
 3663TIP3    H232625   5.857   5.769   0.611 -0.5228  1.5222  0.0552
 3664TIP3   OH232626   6.757   1.921   7.629  0.2941 -0.0409 -0.3086
 3664TIP3    H132627   6.766   1.904   7.535 -0.4716 -1.6201 -0.1256
 3664TIP3    H232628   6.823   1.988   7.647  2.6609 -1.9125 -1.3938
 3665TIP3   OH232629   0.067   6.708   2.303 -0.3074 -0.2145  0.0497
 3665TIP3    H132630   0.074   6.686   2.210  0.2174  0.2692 -0.0345
 3665TIP3    H232631  -0.023   6.687   2.326 -1.2212  1.9324 -1.1980
 3666TIP3   OH232632   6.731   3.722   0.993  0.0920 -0.0666 -0.0280
 3666TIP3    H132633   6.687   3.667   1.058  0.3181  0.1594  0.3264
 3666TIP3    H232634   6.723   3.675   0.911 -1.6402  0.4129 -0.1575
 3667TIP3   OH232635   0.872   4.879   8.485  0.1968 -0.1255  0.1889
 3667TIP3    H132636   0.854   4.909   8.574  0.6203 -0.2478  0.3207
 3667TIP3    H232637   0.934   4.806   8.496 -1.6293 -1.7926 -0.0493
 3668TIP3   OH232638   1.712   0.943   0.734 -0.1704 -0.1568  0.1008
 3668TIP3    H132639   1.711   1.037   0.752  0.9858 -0.0075 -0.5137
 3668TIP3    H232640   1.655   0.932   0.659 -1.5970 -0.1890  1.1546
 3669TIP3   OH232641   5.318   3.368   2.070 -0.0382  0.0188 -0.4028
 3669TIP3    H132642   5.361   3.315   2.002 -1.0699 -1.8050  0.3155
 3669TIP3    H232643   5.263   3.429   2.021  2.0121  1.3080 -1.2873
 3670TIP3   OH232644   6.681   1.124   0.975  0.3163  0.1382  0.7124
 3670TIP3    H132645   6.733   1.204   0.980  2.1995 -1.0333  0.5754
 3670TIP3    H232646   6.707   1.084   0.892 -1.9929  0.2502 -0.1632
 3671TIP3   OH232647   1.840   0.947   1.718 -0.0826  0.6508 -0.1698
 3671TIP3    H132648   1.761   0.923   1.669 -0.4364 -0.3061  0.8268
 3671TIP3    H232649   1.861   0.868   1.768  0.6790  1.3741  0.6654
 3672TIP3   OH232650   1.927   4.305   1.642  0.0365  0.3029  0.2298
 3672TIP3    H132651   2.002   4.322   1.699 -0.9250 -0.8902  1.9419
 3672TIP3    H232652   1.858   4.362   1.675 -0.1020  0.7273 -0.7571
 3673TIP3   OH232653   5.649   6.551   0.893 -0.3686 -0.5564  0.7190
 3673TIP3    H132654   5.717   6.618   0.897 -1.8601  1.0801  0.2711
 3673TIP3    H232655   5.672   6.488   0.961  1.8211 -0.3427  0.2442
 3674TIP3   OH232656   6.326   4.332   0.159  0.0258 -0.1105 -0.3496
 3674TIP3    H132657   6.245   4.281   0.162 -0.7028  0.9441 -1.2853
 3674TIP3    H232658   6.394   4.270   0.182 -1.0437 -1.0308  0.4402
 3675TIP3   OH232659   3.735   4.433   2.867 -0.3898  0.3453  0.0145
 3675TIP3    H132660   3.656   4.436   2.921  0.8584  1.5792  1.9091
 3675TIP3    H232661   3.806   4.456   2.928  1.4744 -0.9915 -1.5475
 3676TIP3   OH232662   5.712   2.527   6.929 -0.4952 -0.1350 -0.1045
 3676TIP3    H132663   5.797   2.519   6.973 -0.7605 -1.4481  0.2090
 3676TIP3    H232664   5.734   2.545   6.838  0.0845  0.8980  0.2168
 3677TIP3   OH232665   1.215   4.049   1.405 -0.0310 -0.7786  0.4347
 3677TIP3    H132666   1.138   4.092   1.441  0.7708 -0.0402  1.3001
 3677TIP3    H232667   1.287   4.078   1.460  0.9990 -0.8313 -0.8344
 3678TIP3   OH232668   0.669   4.700   1.732 -0.8969 -0.2938  0.3387
 3678TIP3    H132669   0.763   4.715   1.730 -1.0272  0.4951 -0.1927
 3678TIP3    H232670   0.633   4.780   1.771 -1.5263  0.3819 -1.5423
 3679TIP3   OH232671   4.890   6.291   0.873 -0.6981  0.2515  0.3349
 3679TIP3    H132672   4.935   6.317   0.954  0.0868 -1.1211  0.3641
 3679TIP3    H232673   4.801   6.325   0.882 -0.1378  1.5975  1.0093
 3680TIP3   OH232674   2.123   1.529   2.104  0.0805  0.0144 -0.5362
 3680TIP3    H132675   2.078   1.506   2.186  0.3990 -1.0682 -0.6534
 3680TIP3    H232676   2.114   1.624   2.098 -1.0718 -0.0311  0.0973
 3681TIP3   OH232677   6.232   4.601   1.194 -0.1201 -0.0795 -0.0513
 3681TIP3    H132678   6.303   4.559   1.146 -0.0340  1.6721 -1.5409
 3681TIP3    H232679   6.276   4.649   1.264  0.0606  0.1981 -0.3580
 3682TIP3   OH232680   1.786   2.805   0.988 -0.2866  0.2694  0.0637
 3682TIP3    H132681   1.771   2.730   0.930 -0.5890  1.0327 -0.8614
 3682TIP3    H232682   1.806   2.877   0.929  0.9964  0.7123  0.9787
 3683TIP3   OH232683   6.451   1.897   1.625 -0.1088  0.0173  0.1783
 3683TIP3    H132684   6.389   1.844   1.575  0.2809  0.8009 -1.2144
 3683TIP3    H232685   6.507   1.833   1.669 -0.0591 -0.7388 -0.9279
 3684TIP3   OH232686   2.688   4.235   7.406 -0.2473  0.1975 -0.0718
 3684TIP3    H132687   2.749   4.180   7.358  0.3087 -0.3167  1.1692
 3684TIP3    H232688   2.738   4.266   7.482 -1.0138  1.1799  0.0474
 3685TIP3   OH232689   3.454   1.167   8.791 -0.4842 -0.4488  0.1797
 3685TIP3    H132690   3.501   1.160   8.708 -2.4383 -1.1941 -0.9440
 3685TIP3    H232691   3.519   1.146   8.858  1.6346  1.9580 -0.9547
 3686TIP3   OH232692   5.596   0.252   0.613  0.0519  0.1431  0.4671
 3686TIP3    H132693   5.624   0.329   0.563  0.6422 -0.7148 -0.5713
 3686TIP3    H232694   5.503   0.242   0.590 -0.4794  1.4727  1.8867
 3687TIP3   OH232695   1.809   1.603   8.278  0.0226  0.3043  0.2830
 3687TIP3    H132696   1.847   1.565   8.199 -0.8837 -0.7947  0.3611
 3687TIP3    H232697   1.781   1.690   8.252 -0.0689  0.0302 -0.5557
 3688TIP3   OH232698   2.131   0.082   7.424 -0.4520  0.1169  0.2490
 3688TIP3    H132699   2.047   0.095   7.470  0.8949  2.4510  2.3046
 3688TIP3    H232700   2.174   0.167   7.430  3.0014 -1.5456  1.2017
 3689TIP3   OH232701   3.679   3.982   0.351  0.2799  0.1028  0.4437
 3689TIP3    H132702   3.685   4.077   0.351 -0.6246  0.1722  0.6691
 3689TIP3    H232703   3.614   3.962   0.419  1.3685 -0.7504  1.2650
 3690TIP3   OH232704   1.409   3.386   1.684  0.2542  0.4337  0.3588
 3690TIP3    H132705   1.387   3.455   1.621  0.8022  2.2630  2.0710
 3690TIP3    H232706   1.333   3.381   1.742  0.4103 -0.0801  0.5255
 3691TIP3   OH232707   6.529   5.744   1.545 -0.1501  0.0094 -0.5795
 3691TIP3    H132708   6.456   5.805   1.557  2.0519  2.7978 -0.4389
 3691TIP3    H232709   6.512   5.703   1.460 -2.2403 -0.0193 -0.2078
 3692TIP3   OH232710   6.764   2.836   1.384  0.2618 -0.0905 -0.8032
 3692TIP3    H132711   6.692   2.896   1.366  0.1599  0.3132  0.7857
 3692TIP3    H232712   6.721   2.756   1.414  0.4569  0.1495  0.1416
 3693TIP3   OH232713   2.289   6.582   2.259 -0.0325 -0.6018  0.1575
 3693TIP3    H132714   2.366   6.535   2.292 -0.8300 -2.2037 -0.1821
 3693TIP3    H232715   2.279   6.656   2.320  0.9039 -1.1936  1.0691
 3694TIP3   OH232716   1.749   6.761   0.949 -0.6790 -0.3580  0.4513
 3694TIP3    H132717   1.658   6.758   0.979 -1.4824 -2.0190 -1.7884
 3694TIP3    H232718   1.761   6.850   0.916 -0.9066  0.3857  2.3062
 3695TIP3   OH232719   6.571   4.184   8.803  0.1131  0.1281  0.5264
 3695TIP3    H132720   6.491   4.218   8.762  0.3638 -1.2624 -1.2204
 3695TIP3    H232721   6.541   4.117   8.864 -0.0465 -2.3591 -2.0827
 3696TIP3   OH232722   1.574   4.173   7.459  0.1784 -0.3834  0.4744
 3696TIP3    H132723   1.502   4.111   7.447  2.2556 -2.8682 -0.0638
 3696TIP3    H232724   1.584   4.216   7.374  0.1325 -0.9739  0.1661
 3697TIP3   OH232725   1.996   5.309   1.546 -1.0098 -0.0254 -0.0823
 3697TIP3    H132726   1.903   5.330   1.540 -1.3775 -1.4901  0.1758
 3697TIP3    H232727   2.017   5.315   1.639 -0.7752  0.5292 -0.1647
 3698TIP3   OH232728   4.176   5.436   1.371  0.3030 -0.1386  0.1310
 3698TIP3    H132729   4.092   5.392   1.379  0.2405  0.1924  1.6645
 3698TIP3    H232730   4.156   5.529   1.382  0.8839 -0.0671  0.6620
 3699TIP3   OH232731   3.908   3.245   1.483 -0.0845  0.1231 -0.2309
 3699TIP3    H132732   3.966   3.183   1.439  3.6460  1.7613  1.9113
 3699TIP3    H232733   3.850   3.191   1.536 -0.2493 -1.5833 -2.0243
 3700TIP3   OH232734   5.635   1.301   7.354  0.0104  0.4123 -0.1796
 3700TIP3    H132735   5.560   1.357   7.377 -0.2253 -0.3511  0.9503
 3700TIP3    H232736   5.597   1.215   7.339  0.7048 -0.1022  0.8958
 3701TIP3   OH232737   0.193   3.245   7.063  0.0811  0.2282  0.2625
 3701TIP3    H132738   0.256   3.316   7.056 -0.3904  0.5475 -1.0379
 3701TIP3    H232739   0.108   3.286   7.047 -0.4037 -0.3226  1.2901
 3702TIP3   OH232740   2.248   1.162   8.428 -0.3633 -0.0756 -0.1053
 3702TIP3    H132741   2.318   1.120   8.478  0.4964 -0.5591 -1.6815
 3702TIP3    H232742   2.180   1.180   8.494 -0.1180 -2.4757  0.9084
 3703TIP3   OH232743   0.358   3.778   0.834 -0.4138 -0.7893  0.1930
 3703TIP3    H132744   0.405   3.818   0.761 -1.0526 -0.2417  0.0740
 3703TIP3    H232745   0.404   3.810   0.912  1.0246 -2.3322  0.0262
 3704TIP3   OH232746   0.165   3.929   7.884 -0.1066 -0.3643 -0.0491
 3704TIP3    H132747   0.128   3.962   7.802  0.7203 -1.6502 -0.9688
 3704TIP3    H232748   0.205   4.006   7.925 -1.2190  0.4488 -0.4453
 3705TIP3   OH232749   3.139   1.414   2.020  0.1616 -0.3116  0.1661
 3705TIP3    H132750   3.122   1.383   2.109  0.5869  1.1708  0.8005
 3705TIP3    H232751   3.055   1.405   1.975 -0.5605  0.6392  1.2781
 3706TIP3   OH232752   0.081   4.018   7.637  0.0857 -0.0783 -0.7045
 3706TIP3    H132753   0.150   4.072   7.600  0.1005 -0.1689 -0.8080
 3706TIP3    H232754   0.007   4.030   7.578 -0.0043  0.0573 -0.5675
 3707TIP3   OH232755   1.362   1.213   8.336 -0.2133  0.1095  0.1984
 3707TIP3    H132756   1.328   1.145   8.394  0.5541  0.9819  1.7331
 3707TIP3    H232757   1.365   1.292   8.391 -0.7066  1.3011 -1.4185
 3708TIP3   OH232758   5.615   1.109   1.873  0.2010 -0.0140 -0.8678
 3708TIP3    H132759   5.609   1.203   1.888 -0.4952  0.0457 -1.4927
 3708TIP3    H232760   5.588   1.070   1.956 -0.7723  0.3318 -1.0141
 3709TIP3   OH232761   2.154   4.906   2.022  0.2598 -0.2872  0.1284
 3709TIP3    H132762   2.177   4.918   2.114 -2.5323 -0.7157  0.9582
 3709TIP3    H232763   2.097   4.980   2.001 -1.8284 -1.9296 -0.2414
 3710TIP3   OH232764   5.877   3.704   1.733 -0.3805 -0.0464  0.5662
 3710TIP3    H132765   5.827   3.640   1.783  0.2055  0.5593  1.9805
 3710TIP3    H232766   5.866   3.678   1.642 -1.3335 -1.2898  1.0174
 3711TIP3   OH232767   6.250   3.079   7.512 -0.1057  0.5735  0.7730
 3711TIP3    H132768   6.239   3.164   7.555 -3.1976  1.6105 -1.6240
 3711TIP3    H232769   6.298   3.099   7.431  0.5855 -0.2841  0.9614
 3712TIP3   OH232770   3.415   1.234   0.800  0.7462  0.0911  0.7084
 3712TIP3    H132771   3.457   1.154   0.834 -0.8154 -1.2196 -0.2919
 3712TIP3    H232772   3.440   1.236   0.708  0.3382  0.4711  0.6068
 3713TIP3   OH232773   2.321   2.579   8.187 -0.0709 -0.1013  0.2168
 3713TIP3    H132774   2.410   2.582   8.221  0.3970 -2.7473 -0.5880
 3713TIP3    H232775   2.306   2.668   8.154  1.7777  0.7475  1.4748
 3714TIP3   OH232776   5.500   1.900   7.250  0.2689 -0.5333  0.6917
 3714TIP3    H132777   5.593   1.921   7.244 -0.1036  0.7217 -1.9920
 3714TIP3    H232778   5.494   1.811   7.216  0.6517 -1.3830  2.6998
 3715TIP3   OH232779   1.969   1.077   0.662 -0.4426 -0.1077 -0.1395
 3715TIP3    H132780   1.880   1.103   0.686 -0.7246 -0.1616 -1.0889
 3715TIP3    H232781   2.021   1.157   0.673 -0.9997  0.4772 -1.4836
 3716TIP3   OH232782   5.940   0.289   6.912  0.6132 -0.0113  0.3172
 3716TIP3    H132783   5.950   0.197   6.936  1.0950  0.0964  0.5336
 3716TIP3    H232784   5.851   0.311   6.938  0.0340 -0.7694 -0.9215
 3717TIP3   OH232785   4.602   0.157   8.570  0.3418 -0.0283 -0.1332
 3717TIP3    H132786   4.666   0.197   8.629  1.3001  0.4434 -1.4625
 3717TIP3    H232787   4.526   0.214   8.575  1.2307  1.2817 -1.0187
 3718TIP3   OH232788   5.376   5.399   0.894  0.2579  0.3823  0.2336
 3718TIP3    H132789   5.386   5.304   0.902  1.2961  0.4868  0.3046
 3718TIP3    H232790   5.332   5.425   0.975  1.8344  0.2002  1.1886
 3719TIP3   OH232791   5.187   6.807   1.327  0.4257  0.4411 -0.0795
 3719TIP3    H132792   5.262   6.863   1.306  1.0140 -0.4658 -0.4348
 3719TIP3    H232793   5.225   6.728   1.365 -0.3871  0.2089  0.2818
 3720TIP3   OH232794   0.230   1.584   2.211 -0.4551  0.6039  0.1372
 3720TIP3    H132795   0.224   1.589   2.306 -0.6523 -1.5819  0.2688
 3720TIP3    H232796   0.324   1.586   2.192 -0.3387 -0.8064  0.5188
 3721TIP3   OH232797   0.393   5.750   1.486 -0.5359 -0.6919  0.0268
 3721TIP3    H132798   0.434   5.721   1.404 -0.9160 -0.8332 -0.1155
 3721TIP3    H232799   0.380   5.670   1.536 -0.4270 -0.6196  0.1717
 3722TIP3   OH232800   1.302   4.209   1.176  0.3472 -0.2972 -0.1442
 3722TIP3    H132801   1.224   4.265   1.182 -0.3535 -1.0513 -1.7467
 3722TIP3    H232802   1.294   4.148   1.250  0.0649  0.3988  0.4108
 3723TIP3   OH232803   4.736   6.697   7.020  0.2048 -0.7171  0.4697
 3723TIP3    H132804   4.664   6.634   7.013  0.4471 -0.8686 -1.1033
 3723TIP3    H232805   4.788   6.683   6.940  1.4055  0.0881  1.0771
 3724TIP3   OH232806   5.875   0.077   6.584  0.5861 -0.4450 -0.0825
 3724TIP3    H132807   5.844   0.008   6.642  2.5607 -0.4643  1.0380
 3724TIP3    H232808   5.946   0.036   6.534  1.0150  0.4395 -0.2231
 3725TIP3   OH232809   5.607   0.113   6.558  0.0888 -0.3265  0.0549
 3725TIP3    H132810   5.596   0.183   6.623  0.0709 -1.8828  1.8044
 3725TIP3    H232811   5.702   0.099   6.555 -0.0193 -1.4475  1.1207
 3726TIP3   OH232812   0.500   4.004   7.478 -0.0617  0.5598  0.5659
 3726TIP3    H132813   0.421   4.051   7.503  0.3640  0.9772  1.1488
 3726TIP3    H232814   0.540   3.978   7.561  0.3049  0.1733  0.2718
 3727TIP3   OH232815   5.992   3.990   3.035  0.5104  0.1381  0.0374
 3727TIP3    H132816   6.023   4.000   3.125  0.5021  1.0581 -0.0517
 3727TIP3    H232817   5.899   4.011   3.039 -0.2958 -2.9867  0.3706
 3728TIP3   OH232818   5.412   5.801   2.044 -0.1114  0.1571 -0.1060
 3728TIP3    H132819   5.329   5.842   2.018  0.8428  3.5366  1.6107
 3728TIP3    H232820   5.389   5.749   2.121 -0.6437  1.2587  0.5057
 3729TIP3   OH232821   0.025   1.589   7.851 -0.1011  0.0326 -0.0982
 3729TIP3    H132822   0.008   1.676   7.887 -0.2571  0.2675 -0.7363
 3729TIP3    H232823  -0.048   1.536   7.881 -1.3402  0.7310 -1.7706
 3730TIP3   OH232824   2.078   2.632   8.010  0.4256  0.0179 -0.0931
 3730TIP3    H132825   2.130   2.620   8.090  0.8574  0.9350 -0.2148
 3730TIP3    H232826   2.023   2.708   8.029  1.0390  0.6922 -0.8953
 3731TIP3   OH232827   2.038   6.263   0.050  0.3466  0.1312 -0.0254
 3731TIP3    H132828   2.122   6.240   0.010  1.3858  1.3362  1.3456
 3731TIP3    H232829   2.023   6.354   0.022 -2.2262 -1.0138 -2.9665
 3732TIP3   OH232830   3.804   1.167   8.259 -0.2206 -0.1858  0.2646
 3732TIP3    H132831   3.797   1.151   8.353 -1.1942 -0.2773  0.1941
 3732TIP3    H232832   3.874   1.232   8.251  0.7960 -1.1690  0.9257
 3733TIP3   OH232833   2.081   6.615   8.344  0.3942  0.1980 -0.4349
 3733TIP3    H132834   2.055   6.562   8.268 -0.5640  0.5955 -0.3965
 3733TIP3    H232835   2.097   6.702   8.307 -1.6060  0.8114  0.0029
 3734TIP3   OH232836   1.613   3.002   1.960 -0.3502 -0.1965 -0.2298
 3734TIP3    H132837   1.552   2.984   1.889  0.0677  0.4761 -0.7715
 3734TIP3    H232838   1.558   3.027   2.034 -0.8160 -1.4328 -0.1362
 3735TIP3   OH232839   6.510   4.878   0.715  0.7875  0.5893  0.5292
 3735TIP3    H132840   6.541   4.936   0.784 -0.0152  1.6113  0.0561
 3735TIP3    H232841   6.571   4.891   0.643  0.6283  0.8252  0.4362
 3736TIP3   OH232842   0.750   0.637   0.793  0.4558 -0.0206 -0.6376
 3736TIP3    H132843   0.713   0.549   0.786 -0.8175  0.5698 -1.5308
 3736TIP3    H232844   0.721   0.668   0.879 -1.3566  0.5119 -1.4050
 3737TIP3   OH232845   1.595   5.541   6.753  0.0578  0.5934 -0.3981
 3737TIP3    H132846   1.540   5.553   6.831  1.1760 -0.0220  0.5227
 3737TIP3    H232847   1.610   5.629   6.721  2.0715  1.1970  1.8931
 3738TIP3   OH232848   0.154   2.655   1.354 -0.1203  0.0309  0.5452
 3738TIP3    H132849   0.180   2.669   1.263 -0.6939 -0.2841  0.3269
 3738TIP3    H232850   0.093   2.727   1.373 -1.6658 -1.0911 -0.0068
 3739TIP3   OH232851   2.215   2.940   7.361  0.3984 -0.3663 -0.0039
 3739TIP3    H132852   2.297   2.952   7.410 -0.3422  0.1331  1.1609
 3739TIP3    H232853   2.189   2.851   7.381  0.8309 -0.6437 -0.6590
 3740TIP3   OH232854   3.642   3.665   1.063  0.2003 -0.5470  0.0438
 3740TIP3    H132855   3.563   3.610   1.057 -0.3995  0.1959  0.9017
 3740TIP3    H232856   3.622   3.741   1.008  0.2202 -0.2558  0.4308
 3741TIP3   OH232857   3.547   0.620   1.662  0.1176  0.2256 -0.2606
 3741TIP3    H132858   3.475   0.578   1.709  0.6542  0.2417  0.6065
 3741TIP3    H232859   3.567   0.697   1.715  1.1230 -0.0719 -0.1899
 3742TIP3   OH232860   4.726   3.263   8.827 -0.1731  0.0770  0.0205
 3742TIP3    H132861   4.738   3.244   8.920 -0.7555  1.5268  0.4192
 3742TIP3    H232862   4.654   3.205   8.801 -0.1647 -0.1744  0.5234
 3743TIP3   OH232863   4.816   5.636   6.643 -0.1239 -0.1213  0.0825
 3743TIP3    H132864   4.852   5.697   6.707  0.2425  0.7708 -0.9519
 3743TIP3    H232865   4.890   5.580   6.619 -0.0535  0.0948 -0.1977
 3744TIP3   OH232866   3.388   4.577   2.167 -0.3136 -0.2245 -0.3148
 3744TIP3    H132867   3.412   4.588   2.259 -0.5803  0.1056 -0.2830
 3744TIP3    H232868   3.295   4.598   2.163 -0.9209 -2.6246 -0.2333
 3745TIP3   OH232869   2.745   0.798   7.141 -0.4846 -0.3315  0.0785
 3745TIP3    H132870   2.804   0.764   7.074 -0.0837 -1.4299  0.9484
 3745TIP3    H232871   2.664   0.750   7.129 -0.1603 -1.0934  0.8452
 3746TIP3   OH232872   5.745   2.031   8.898 -0.0386  0.0505 -0.8119
 3746TIP3    H132873   5.663   1.986   8.920 -0.9448  2.0815  0.2011
 3746TIP3    H232874   5.745   2.034   8.802 -0.1422 -1.6815 -0.9027
 3747TIP3   OH232875   1.349   6.482   6.908  0.2510 -0.0250  0.1541
 3747TIP3    H132876   1.389   6.457   6.991  1.7832  1.1599 -0.1859
 3747TIP3    H232877   1.340   6.400   6.860  0.6542 -0.5437  0.9343
 3748TIP3   OH232878   3.599   0.995   2.310  0.6259 -0.2723 -0.3057
 3748TIP3    H132879   3.665   1.022   2.375  0.6387  0.2517 -0.5353
 3748TIP3    H232880   3.530   1.061   2.317  0.3344 -0.5634 -0.3940
 3749TIP3   OH232881   4.933   1.944   7.793 -0.0048  0.8375  0.1521
 3749TIP3    H132882   4.907   2.023   7.745  0.1769  1.4738  1.0709
 3749TIP3    H232883   5.003   1.906   7.740 -0.2154  1.1866 -0.3950
 3750TIP3   OH232884   2.877   3.753   0.808 -0.2327  0.0620  0.6001
 3750TIP3    H132885   2.854   3.797   0.890 -2.7169  1.0479 -0.5227
 3750TIP3    H232886   2.889   3.661   0.832  1.0099  0.6414  2.3484
 3751TIP3   OH232887   4.516   1.849   1.737 -0.3306  0.0654 -0.2913
 3751TIP3    H132888   4.536   1.777   1.676  3.0557  0.3132  0.3483
 3751TIP3    H232889   4.427   1.876   1.713 -1.4973 -3.7695 -1.0746
 3752TIP3   OH232890   5.853   6.768   2.854 -0.5009 -0.6596  0.3507
 3752TIP3    H132891   5.805   6.701   2.805 -1.3668 -0.8810  1.4587
 3752TIP3    H232892   5.941   6.768   2.816 -0.8544 -1.5412 -0.4956
 3753TIP3   OH232893   4.994   1.085   0.150 -0.2694  0.0096 -0.0912
 3753TIP3    H132894   5.083   1.107   0.122  0.4346 -0.5927  1.5440
 3753TIP3    H232895   4.938   1.115   0.078  1.3485 -0.8622 -1.7866
 3754TIP3   OH232896   2.049   3.136   8.307  0.5086 -0.7075 -0.1538
 3754TIP3    H132897   2.114   3.199   8.340 -0.1617  0.1235 -0.3822
 3754TIP3    H232898   2.027   3.168   8.220 -1.9540  0.4321  0.8087
 3755TIP3   OH232899   1.064   6.624   8.362 -0.1401 -0.3855  0.5473
 3755TIP3    H132900   1.141   6.679   8.352 -0.0566 -0.6459 -0.2754
 3755TIP3    H232901   1.036   6.639   8.453  0.4092  0.3076  0.6114
 3756TIP3   OH232902   5.196   4.293   0.290  0.4009 -0.2601 -0.0335
 3756TIP3    H132903   5.147   4.290   0.208 -0.3678 -0.3764  0.4153
 3756TIP3    H232904   5.128   4.295   0.358  1.0171  1.1010  0.5682
 3757TIP3   OH232905   5.756   5.855   1.789  0.7213 -0.1023  0.5939
 3757TIP3    H132906   5.700   5.793   1.743  0.4168  1.1330 -0.7547
 3757TIP3    H232907   5.842   5.845   1.748  0.6810  0.3296  0.3994
 3758TIP3   OH232908   5.825   4.567   6.596 -0.5507 -1.1985  0.2812
 3758TIP3    H132909   5.871   4.525   6.669 -2.1761  2.1449  3.5569
 3758TIP3    H232910   5.733   4.548   6.611 -0.9437 -0.3349 -0.8645
 3759TIP3   OH232911   6.417   1.316   1.909 -0.1551  0.1542 -0.0277
 3759TIP3    H132912   6.423   1.397   1.859 -1.5592  0.7951  0.8080
 3759TIP3    H232913   6.325   1.308   1.932 -0.4566 -2.7195 -1.7656
 3760TIP3   OH232914   4.157   2.913   8.079  0.1097 -0.2988  0.2031
 3760TIP3    H132915   4.098   2.982   8.110 -1.4701 -1.2761 -0.5031
 3760TIP3    H232916   4.206   2.953   8.007 -0.8482  0.0672 -0.2500
 3761TIP3   OH232917   6.811   4.772   8.423  0.2350 -0.4407  0.1792
 3761TIP3    H132918   6.862   4.852   8.433 -1.1471  0.3346  1.2782
 3761TIP3    H232919   6.874   4.702   8.439  1.5688  0.3675 -1.2473
 3762TIP3   OH232920   1.829   3.459   7.793 -0.1477 -0.0281  0.1811
 3762TIP3    H132921   1.891   3.393   7.761 -0.2355 -0.4020  0.7484
 3762TIP3    H232922   1.867   3.487   7.877 -0.8014 -0.3517  0.5908
 3763TIP3   OH232923   3.331   3.712   1.327  0.1801  0.3780  0.0722
 3763TIP3    H132924   3.383   3.765   1.267  0.2642 -0.6459 -0.7790
 3763TIP3    H232925   3.242   3.746   1.319 -0.0583 -0.5806 -1.6194
 3764TIP3   OH232926   0.431   4.126   0.608  0.5946  0.3741  0.6729
 3764TIP3    H132927   0.519   4.162   0.617  0.3975  0.6031  1.8025
 3764TIP3    H232928   0.378   4.175   0.670 -0.0743 -0.5963  0.8993
 3765TIP3   OH232929   1.211   3.103   1.545  0.1324 -0.0274  0.0077
 3765TIP3    H132930   1.132   3.135   1.589  0.4309  2.7885 -1.2328
 3765TIP3    H232931   1.178   3.059   1.467 -0.2780  1.3482 -0.6350
 3766TIP3   OH232932   0.940   5.113   8.186  0.0853 -0.0951  0.6636
 3766TIP3    H132933   0.990   5.195   8.188  0.9797 -0.6119  0.3259
 3766TIP3    H232934   0.953   5.075   8.273  2.5563 -1.5009 -0.1980
 3767TIP3   OH232935   0.892   6.429   1.211  0.0380 -0.4708 -0.5418
 3767TIP3    H132936   0.809   6.381   1.208 -0.4968  0.2000  1.9044
 3767TIP3    H232937   0.958   6.362   1.227 -0.7438 -0.5329  3.2633
 3768TIP3   OH232938   6.482   2.737   8.865  0.1394 -0.0220  0.1788
 3768TIP3    H132939   6.425   2.813   8.878  0.5863  0.4702 -0.6146
 3768TIP3    H232940   6.552   2.748   8.929 -0.7354 -0.7260  1.2833
 3769TIP3   OH232941   3.392   1.550   8.872  0.0126  0.0660  0.1488
 3769TIP3    H132942   3.312   1.591   8.905 -0.2675 -0.4907  0.1732
 3769TIP3    H232943   3.438   1.620   8.826  0.8104  1.1156  2.3904
 3770TIP3   OH232944   3.776   1.390   1.800  0.0433  0.4571  0.1845
 3770TIP3    H132945   3.718   1.401   1.875 -0.4456  2.6360 -0.4433
 3770TIP3    H232946   3.754   1.463   1.742  1.3391 -0.4052 -1.4533
 3771TIP3   OH232947   2.409   3.372   1.843 -0.1988 -0.6242 -0.3067
 3771TIP3    H132948   2.365   3.389   1.759  0.1337 -0.9413 -0.5524
 3771TIP3    H232949   2.475   3.441   1.849 -0.9953  0.1067  0.2658
 3772TIP3   OH232950   6.135   0.223   8.156 -0.1018 -0.3701 -0.2823
 3772TIP3    H132951   6.195   0.233   8.083 -0.5398  3.4197 -0.3172
 3772TIP3    H232952   6.054   0.191   8.117 -0.2967  1.5101 -1.5281
 3773TIP3   OH232953   4.228   1.476   0.682  0.5054  0.6980  0.2770
 3773TIP3    H132954   4.307   1.522   0.710  1.0191 -0.7401  1.2968
 3773TIP3    H232955   4.210   1.413   0.752 -0.7463  0.0440 -0.5894
 3774TIP3   OH232956   6.027   1.566   7.627  0.2610  0.6925  0.1730
 3774TIP3    H132957   5.939   1.529   7.619  1.0487 -0.9506 -1.6672
 3774TIP3    H232958   6.055   1.543   7.715 -1.1529  1.2988  0.8060
 3775TIP3   OH232959   1.904   4.972   1.349 -0.4899 -0.4876 -0.4403
 3775TIP3    H132960   1.829   5.026   1.324 -0.5135 -0.8265 -1.1325
 3775TIP3    H232961   1.978   5.033   1.354 -0.8239 -0.1360  0.3533
 3776TIP3   OH232962   5.972   0.488   0.440 -1.0654 -0.1512 -0.6996
 3776TIP3    H132963   5.988   0.446   0.356 -0.1404 -0.3189 -0.4573
 3776TIP3    H232964   6.031   0.563   0.442 -1.1759 -0.0709 -0.2578
 3777TIP3   OH232965   2.666   5.924   7.252 -0.0279 -0.2779  0.1969
 3777TIP3    H132966   2.690   5.889   7.167 -0.6526 -2.0681  0.7053
 3777TIP3    H232967   2.738   5.900   7.310  1.0133  2.0563 -0.0339
 3778TIP3   OH232968   1.802   2.262   7.486  0.4870 -0.9238  0.3326
 3778TIP3    H132969   1.755   2.260   7.569  1.7072  0.5168  1.0984
 3778TIP3    H232970   1.846   2.176   7.482  0.3245 -1.0533  1.1195
 3779TIP3   OH232971   5.670   6.555   8.659  0.3118 -0.4501 -0.1300
 3779TIP3    H132972   5.610   6.539   8.586 -0.7855  0.7309  0.4544
 3779TIP3    H232973   5.628   6.513   8.734  0.8203 -0.6398  0.0481
 3780TIP3   OH232974   1.709   4.421   8.081 -0.7345  0.0391  0.4342
 3780TIP3    H132975   1.617   4.396   8.090 -0.5267 -0.2729  1.9088
 3780TIP3    H232976   1.710   4.487   8.012 -1.9058 -0.7625 -0.3802
 3781TIP3   OH232977   0.960   2.807   1.251  0.0582 -0.1385  0.0102
 3781TIP3    H132978   1.003   2.728   1.220  0.3905 -0.4080  1.1124
 3781TIP3    H232979   0.874   2.778   1.282  0.5738 -0.2784  1.3912
 3782TIP3   OH232980   1.989   3.245   7.713  0.5361 -0.2068 -0.1514
 3782TIP3    H132981   2.004   3.209   7.800 -0.3616  0.4487  0.2908
 3782TIP3    H232982   1.970   3.168   7.658 -0.4802 -0.5016  0.5801
 3783TIP3   OH232983   6.544   1.732   8.721  0.3700 -0.1871 -0.3200
 3783TIP3    H132984   6.583   1.745   8.635 -1.9460  1.2869 -1.2299
 3783TIP3    H232985   6.450   1.732   8.706 -0.0950 -1.0323  2.0878
 3784TIP3   OH232986   1.478   3.696   7.516  0.6369 -0.1670 -0.0528
 3784TIP3    H132987   1.503   3.715   7.607  1.2179  0.5729 -0.3587
 3784TIP3    H232988   1.552   3.649   7.480  1.0480  0.8315 -0.5603
 3785TIP3   OH232989   5.485   0.889   7.674 -0.1043  0.3388  0.2473
 3785TIP3    H132990   5.519   0.833   7.604 -1.7016 -0.0375 -0.2578
 3785TIP3    H232991   5.563   0.932   7.710  0.9480 -0.8109 -0.5680
 3786TIP3   OH232992   5.108   4.824   0.962  0.0169 -0.7575  0.0861
 3786TIP3    H132993   5.027   4.843   0.916 -0.0648 -1.0399  0.1118
 3786TIP3    H232994   5.175   4.825   0.894  0.2399  1.0141  0.2840
 3787TIP3   OH232995   3.319   3.385   8.253 -0.3488  0.1654 -0.4876
 3787TIP3    H132996   3.327   3.333   8.173  1.8231 -3.3096  1.6925
 3787TIP3    H232997   3.402   3.433   8.258 -0.2435 -0.0438 -0.1334
 3788TIP3   OH232998   0.322   0.476   1.700  0.3996  0.2451  0.2491
 3788TIP3    H132999   0.357   0.387   1.696  2.1546  0.9034  0.0908
 3788TIP3    H233000   0.358   0.512   1.780  1.3202  1.4265 -0.6578
 3789TIP3   OH233001   2.900   4.156   7.196  0.1143  1.3810 -0.3040
 3789TIP3    H133002   2.919   4.217   7.125  1.6194  0.8967 -0.3594
 3789TIP3    H233003   2.953   4.079   7.176 -1.0092  0.4137  0.2656
 3790TIP3   OH233004   3.220   6.728   0.808 -0.4824 -0.3203 -0.0110
 3790TIP3    H133005   3.311   6.727   0.836 -0.3382 -2.6397 -0.4018
 3790TIP3    H233006   3.184   6.808   0.846  1.6733  0.6035  0.2176
 3791TIP3   OH233007   3.639   5.594   2.185  0.1769  0.0477 -0.0734
 3791TIP3    H133008   3.680   5.518   2.226  0.1218  0.4064  0.6585
 3791TIP3    H233009   3.601   5.560   2.104  0.6352 -0.5870 -0.0280
 3792TIP3   OH233010   4.347   4.027   6.919  0.3597 -0.1865  0.2760
 3792TIP3    H133011   4.425   3.971   6.924  0.9076  0.2120 -2.3672
 3792TIP3    H233012   4.382   4.113   6.895 -0.7896  0.4545  0.8219
 3793TIP3   OH233013   3.434   1.950   0.862 -0.3113 -0.1890 -0.4300
 3793TIP3    H133014   3.523   1.918   0.846 -0.6925 -2.3083  1.1863
 3793TIP3    H233015   3.427   2.030   0.811  1.8535 -1.0429 -2.2183
 3794TIP3   OH233016   3.265   3.131   1.143 -0.3620  0.3617  0.1629
 3794TIP3    H133017   3.291   3.200   1.081 -0.9565  0.6159  0.1877
 3794TIP3    H233018   3.347   3.106   1.186 -0.0582  0.7042 -0.1997
 3795TIP3   OH233019   1.399   6.406   8.319  0.2119 -0.3848 -0.0407
 3795TIP3    H133020   1.348   6.327   8.301 -2.7617  1.5643 -0.9610
 3795TIP3    H233021   1.365   6.471   8.258  1.9300  1.8767  1.2360
 3796TIP3   OH233022   5.410   6.682   7.432 -0.3039  0.3940 -0.2646
 3796TIP3    H133023   5.316   6.697   7.431 -0.2565  1.1051  1.6770
 3796TIP3    H233024   5.421   6.595   7.393 -2.0642 -0.9920  2.1148
 3797TIP3   OH233025   2.405   4.694   2.058 -0.1653 -0.2001 -0.6552
 3797TIP3    H133026   2.446   4.610   2.082  1.8455  1.2260  1.2886
 3797TIP3    H233027   2.320   4.691   2.102 -0.0706 -1.1699 -0.4956
 3798TIP3   OH233028   5.294   5.823   7.752  0.1146  0.4230  0.0351
 3798TIP3    H133029   5.300   5.909   7.710 -1.5493  0.1916 -0.7724
 3798TIP3    H233030   5.294   5.843   7.846  0.0357  1.2858 -0.1359
 3799TIP3   OH233031   2.775   3.126   2.637  0.4586  0.0254 -0.8678
 3799TIP3    H133032   2.701   3.174   2.601  0.3202 -0.2000 -0.8841
 3799TIP3    H233033   2.797   3.173   2.718  0.5968  0.3691 -1.1000
 3800TIP3   OH233034   2.818   3.182   7.993  0.5666  0.0085 -0.6224
 3800TIP3    H133035   2.909   3.201   7.971 -0.1810  0.3297 -3.9861
 3800TIP3    H233036   2.802   3.096   7.953 -1.0059  0.6775 -1.4957
 3801TIP3   OH233037   2.756   5.706   1.832 -0.0592 -0.1323 -0.4798
 3801TIP3    H133038   2.673   5.742   1.864  0.8722  1.7246  0.0142
 3801TIP3    H233039   2.823   5.757   1.879  1.3676 -2.0585 -0.3308
 3802TIP3   OH233040   1.919   5.042   1.774  0.0730 -0.1206  0.2577
 3802TIP3    H133041   1.905   5.137   1.774  1.8145  0.2566  2.7008
 3802TIP3    H233042   1.857   5.009   1.839  0.0170 -0.5378 -0.0054
 3803TIP3   OH233043   2.549   4.143   8.697  0.3041  0.2083 -0.1418
 3803TIP3    H133044   2.510   4.159   8.612  1.0326 -0.8388 -0.6950
 3803TIP3    H233045   2.519   4.056   8.722  1.5397 -0.2535 -0.1867
 3804TIP3   OH233046   4.602   1.195   1.481 -0.1977  0.3326  0.6561
 3804TIP3    H133047   4.607   1.261   1.412  1.4252 -1.0617 -0.6148
 3804TIP3    H233048   4.667   1.223   1.546  0.0508  0.2902  0.4225
 3805TIP3   OH233049   2.900   2.843   1.378  0.6461 -0.1075 -0.3482
 3805TIP3    H133050   2.994   2.831   1.394  0.6695  1.1938  0.6861
 3805TIP3    H233051   2.867   2.880   1.460 -0.6127  0.2436 -1.0010
 3806TIP3   OH233052   6.665   0.420   2.174  0.4379 -0.3599  0.1234
 3806TIP3    H133053   6.641   0.495   2.119 -2.6315 -2.0438 -1.0910
 3806TIP3    H233054   6.636   0.444   2.262 -0.6913 -0.1394 -0.2880
 3807TIP3   OH233055   6.075   5.266   0.269 -0.2816  0.4045 -0.1330
 3807TIP3    H133056   6.020   5.282   0.192  0.6592  1.1669 -0.6814
 3807TIP3    H233057   6.017   5.224   0.332 -0.9614 -0.7106 -1.4446
 3808TIP3   OH233058   4.473   4.758   7.497  0.5965  0.4485 -0.0853
 3808TIP3    H133059   4.440   4.790   7.580  1.7906 -0.2621  0.6873
 3808TIP3    H233060   4.557   4.718   7.518  0.0819 -1.3952 -1.3260
 3809TIP3   OH233061   0.228   1.778   2.893 -0.0764  0.7351  0.0950
 3809TIP3    H133062   0.261   1.777   2.983 -2.6699 -3.2893  1.2571
 3809TIP3    H233063   0.286   1.718   2.845  0.0039  1.2007 -0.4084
 3810TIP3   OH233064   1.463   1.866   1.005  0.2927 -0.1441 -0.8503
 3810TIP3    H133065   1.419   1.781   0.996  2.2671 -1.1354 -1.8210
 3810TIP3    H233066   1.470   1.879   1.100  0.8290 -1.5561 -0.6694
 3811TIP3   OH233067   2.775   4.984   1.782 -0.1835  0.7072  0.3385
 3811TIP3    H133068   2.693   4.941   1.805  0.1395 -0.8453 -1.1989
 3811TIP3    H233069   2.830   4.914   1.746  1.7940  1.7277  1.2473
 3812TIP3   OH233070   5.314   4.728   1.672  0.4626 -0.0598 -0.1302
 3812TIP3    H133071   5.404   4.697   1.662 -0.4298 -2.4058 -1.9095
 3812TIP3    H233072   5.269   4.656   1.716 -1.3733 -0.8788 -3.0403
 3813TIP3   OH233073   5.705   1.955   1.262 -0.2718 -0.1675 -0.2767
 3813TIP3    H133074   5.621   1.939   1.306  0.3970 -1.2143  0.6680
 3813TIP3    H233075   5.710   1.887   1.194  0.4981 -1.1271  0.7071
 3814TIP3   OH233076   6.087   1.505   7.990  0.2569 -0.4672  0.3211
 3814TIP3    H133077   6.020   1.574   7.990  0.3731 -0.3264  1.6242
 3814TIP3    H233078   6.057   1.443   8.057  1.1721 -0.6578  0.5572
 3815TIP3   OH233079   3.209   6.200   8.415  0.9235  0.1665 -0.5358
 3815TIP3    H133080   3.206   6.294   8.436 -0.0733 -0.1514  0.8473
 3815TIP3    H233081   3.271   6.163   8.478 -0.8337 -0.5313  0.8565
 3816TIP3   OH233082   2.763   2.428   0.941 -0.7812  0.1448  0.4327
 3816TIP3    H133083   2.818   2.432   0.863 -1.5382  0.5015 -0.0921
 3816TIP3    H233084   2.741   2.520   0.959 -0.1064  0.1294  1.4419
 3817TIP3   OH233085   5.878   4.476   7.371 -0.6902 -0.1251 -0.6159
 3817TIP3    H133086   5.858   4.450   7.281 -2.3458  1.6075 -0.8025
 3817TIP3    H233087   5.812   4.542   7.393  0.8895  0.9703  1.1785
 3818TIP3   OH233088   0.623   2.401   7.309  0.0040  0.0979 -0.1049
 3818TIP3    H133089   0.690   2.462   7.277 -0.6807  1.0138  0.1561
 3818TIP3    H233090   0.584   2.364   7.230  0.5704 -0.1698 -0.2624
 3819TIP3   OH233091   0.747   6.722   1.507 -0.2790 -0.4250 -0.3639
 3819TIP3    H133092   0.821   6.697   1.451 -0.2382 -0.8730 -0.1176
 3819TIP3    H233093   0.712   6.802   1.467 -0.4357 -0.8990 -1.1988
 3820TIP3   OH233094   4.704   2.877   0.270  0.2920  0.1641  0.1095
 3820TIP3    H133095   4.709   2.782   0.272 -1.1804  0.0615  0.1355
 3820TIP3    H233096   4.787   2.905   0.231  0.7301 -1.1199  0.0848
 3821TIP3   OH233097   6.813   0.052   8.837  0.0687 -0.4569 -0.2282
 3821TIP3    H133098   6.830   0.106   8.914 -0.9307  0.1603 -0.4296
 3821TIP3    H233099   6.724   0.018   8.851 -1.6954  2.5938 -2.7620
 3822TIP3   OH233100   3.784   6.625   0.619  0.5103  0.3798 -0.2578
 3822TIP3    H133101   3.797   6.716   0.591 -0.2359  0.2665 -1.0238
 3822TIP3    H233102   3.694   6.623   0.653  1.4067  0.5337  2.3280
 3823TIP3   OH233103   1.026   0.092   0.127 -0.1594  0.3045 -0.0568
 3823TIP3    H133104   1.078   0.157   0.079 -1.1247 -0.1713 -1.7940
 3823TIP3    H233105   1.038   0.011   0.079 -0.5583 -0.3857  0.9656
 3824TIP3   OH233106   0.211   6.430   1.932  0.3375 -0.1557  0.3121
 3824TIP3    H133107   0.176   6.460   2.016 -0.8529  0.4217 -0.3565
 3824TIP3    H233108   0.210   6.335   1.937 -0.7438 -0.1355  0.5592
 3825TIP3   OH233109   3.361   0.415   0.904  0.1325  0.5661  0.8126
 3825TIP3    H133110   3.388   0.495   0.949  1.6804  0.9392 -0.6453
 3825TIP3    H233111   3.372   0.436   0.811  0.3370 -1.2713  0.3914
 3826TIP3   OH233112   3.333   2.681   7.504  0.5675 -0.7861 -0.0390
 3826TIP3    H133113   3.352   2.761   7.456  0.0968  0.1757  1.3173
 3826TIP3    H233114   3.240   2.665   7.487 -0.0068  0.4222  1.7113
 3827TIP3   OH233115   0.541   1.964   2.926 -0.1552 -0.2194  0.4888
 3827TIP3    H133116   0.598   2.041   2.922 -1.4834  0.7605 -0.2241
 3827TIP3    H233117   0.594   1.893   2.892  0.4671  0.7959 -0.7537
 3828TIP3   OH233118   6.747   6.761   1.687 -0.5727 -0.1024 -0.3956
 3828TIP3    H133119   6.673   6.725   1.639 -0.6662  0.2908 -0.5501
 3828TIP3    H233120   6.817   6.696   1.677 -0.4493  0.1689 -1.4266
 3829TIP3   OH233121   6.195   1.445   7.179 -0.1685  0.0916  0.2349
 3829TIP3    H133122   6.180   1.397   7.261 -0.1422  0.6302  0.5648
 3829TIP3    H233123   6.110   1.482   7.157 -0.1004  0.2383  0.2132
 3830TIP3   OH233124   3.270   3.285   1.520  0.4132 -0.1714  0.1395
 3830TIP3    H133125   3.219   3.311   1.444 -0.6349 -2.4488 -0.0096
 3830TIP3    H233126   3.360   3.280   1.488  0.4020  1.4554 -0.2310
 3831TIP3   OH233127   4.900   4.069   8.702  0.1060 -0.1157 -0.0669
 3831TIP3    H133128   4.943   4.072   8.787 -1.6277 -0.3760  0.8547
 3831TIP3    H233129   4.877   4.160   8.684  1.1576  0.0510 -0.6497
 3832TIP3   OH233130   2.590   5.908   7.749  0.0134  0.1908  0.7697
 3832TIP3    H133131   2.669   5.945   7.709  1.1942 -2.1988  0.7520
 3832TIP3    H233132   2.537   5.985   7.772  0.7228  1.7997 -2.3872
 3833TIP3   OH233133   2.689   6.589   0.846 -0.3844 -0.4768 -0.3167
 3833TIP3    H133134   2.606   6.540   0.841 -0.9913  0.5874 -1.1742
 3833TIP3    H233135   2.662   6.681   0.850  0.7448 -0.0229 -1.8977
 3834TIP3   OH233136   6.201   0.428   2.329  0.0992  0.3397 -0.2372
 3834TIP3    H133137   6.141   0.362   2.295  2.0444 -1.5445 -0.2343
 3834TIP3    H233138   6.181   0.507   2.279 -0.4696 -0.9905 -2.2369
 3835TIP3   OH233139   4.161   0.348   8.215 -0.8183  0.4168  0.1912
 3835TIP3    H133140   4.186   0.437   8.238 -0.8636 -0.0351  2.1170
 3835TIP3    H233141   4.125   0.311   8.296 -0.3057 -1.5177 -0.4195
 3836TIP3   OH233142   2.083   5.527   8.686 -0.5688  0.5899 -0.4610
 3836TIP3    H133143   2.147   5.568   8.627  2.3283 -1.1878  1.1810
 3836TIP3    H233144   2.055   5.449   8.639 -1.8019  1.4725 -1.2682
 3837TIP3   OH233145   6.005   3.537   1.425  0.2168  0.1089 -0.1782
 3837TIP3    H133146   5.956   3.617   1.442  1.4855  1.4437 -2.2634
 3837TIP3    H233147   6.071   3.534   1.494 -1.8791 -1.0436  1.9092
 3838TIP3   OH233148   5.617   0.643   1.717 -0.0586  0.6055 -0.3228
 3838TIP3    H133149   5.700   0.683   1.692  0.2047  1.3095  1.5284
 3838TIP3    H233150   5.582   0.608   1.635  1.5969  1.1294 -1.3073
 3839TIP3   OH233151   4.916   3.663   2.205 -0.6458 -0.1384 -0.1203
 3839TIP3    H133152   4.947   3.741   2.159 -0.0760  0.0605  0.5948
 3839TIP3    H233153   4.979   3.649   2.275 -0.5957 -1.4002 -0.3909
 3840TIP3   OH233154   0.426   0.327   0.468 -0.4500  0.0929 -0.3422
 3840TIP3    H133155   0.392   0.416   0.453 -1.1886  0.1103  1.2124
 3840TIP3    H233156   0.347   0.274   0.479  0.0116 -0.3756  0.7391
 3841TIP3   OH233157   4.620   5.432   6.548  0.5597 -0.3615  0.2944
 3841TIP3    H133158   4.699   5.474   6.583  0.6331 -0.5424  0.3452
 3841TIP3    H233159   4.611   5.351   6.598 -0.1309  0.0582  0.8805
 3842TIP3   OH233160   1.697   3.343   2.131  0.7534 -0.3889 -1.0416
 3842TIP3    H133161   1.786   3.332   2.166  0.4085  0.9778  0.3856
 3842TIP3    H233162   1.645   3.276   2.175  0.5813  0.5025  0.1652
 3843TIP3   OH233163   0.170   1.441   0.043 -0.3007  0.2639  0.3078
 3843TIP3    H133164   0.097   1.382   0.062 -0.5181 -0.3256 -1.9917
 3843TIP3    H233165   0.163   1.511   0.108 -3.6035  0.7847 -0.4312
 3844TIP3   OH233166   1.582   0.659   0.224  0.1635 -0.1788  0.1655
 3844TIP3    H133167   1.511   0.701   0.175  1.0194  0.3111 -0.6780
 3844TIP3    H233168   1.652   0.724   0.225  0.4018 -0.4169  1.5252
 3845TIP3   OH233169   4.352   2.774   2.950 -0.5146 -0.1342  0.8353
 3845TIP3    H133170   4.370   2.801   3.040 -0.4406  1.6936  0.3099
 3845TIP3    H233171   4.351   2.855   2.900 -2.6145 -0.8879 -0.4816
 3846TIP3   OH233172   5.566   5.354   7.400  0.6462 -0.6323  0.3132
 3846TIP3    H133173   5.509   5.368   7.325  0.4645 -0.7238  0.4312
 3846TIP3    H233174   5.546   5.264   7.428 -0.1334 -0.2099  1.1748
 3847TIP3   OH233175   2.826   5.875   0.958  0.0415 -0.2466 -0.0509
 3847TIP3    H133176   2.906   5.925   0.974 -1.8031  2.1432  2.7981
 3847TIP3    H233177   2.757   5.925   1.001 -2.4407 -4.0510  0.9526
 3848TIP3   OH233178   0.477   6.454   0.664 -0.1411  0.1388  0.8360
 3848TIP3    H133179   0.460   6.530   0.608 -0.0229 -0.2725  0.2399
 3848TIP3    H233180   0.565   6.470   0.699 -0.5078  0.7619  1.5088
 3849TIP3   OH233181   2.358   6.818   8.495 -0.1441  0.4268  0.5656
 3849TIP3    H133182   2.322   6.812   8.407  1.7588 -1.9881 -0.1503
 3849TIP3    H233183   2.420   6.890   8.491  0.5590 -0.2091 -0.3597
 3850TIP3   OH233184   1.457   5.220   6.871  0.3542  0.0217  0.0487
 3850TIP3    H133185   1.481   5.305   6.834 -1.9941  0.3459 -0.8740
 3850TIP3    H233186   1.438   5.165   6.795  2.0976 -1.4592  0.6272
 3851TIP3   OH233187   4.413   4.531   7.200  0.4851 -0.0621  0.0061
 3851TIP3    H133188   4.454   4.613   7.175 -1.2224 -0.0013 -3.0484
 3851TIP3    H233189   4.452   4.466   7.142 -1.1615 -0.6065 -0.5362
 3852TIP3   OH233190   5.123   4.902   8.559  0.5051  0.2688 -0.2273
 3852TIP3    H133191   5.105   4.945   8.642 -1.2150 -1.2932  0.2751
 3852TIP3    H233192   5.134   4.809   8.581  0.6585 -0.0861 -1.6593
 3853TIP3   OH233193   3.356   1.286   0.370 -0.0770 -0.6511 -0.5926
 3853TIP3    H133194   3.402   1.291   0.454  0.0821  0.2426 -0.7210
 3853TIP3    H233195   3.306   1.367   0.365  1.1633  0.0692 -2.0587
 3854TIP3   OH233196   6.297   3.198   1.488  0.0088 -0.2050  0.2348
 3854TIP3    H133197   6.234   3.128   1.469  1.9924 -2.1608  0.4915
 3854TIP3    H233198   6.306   3.197   1.583  1.9170 -1.4281  0.0980
 3855TIP3   OH233199   2.589   4.193   1.256  0.0575  0.1174  0.1146
 3855TIP3    H133200   2.565   4.174   1.165  1.4730  0.0412 -0.2679
 3855TIP3    H233201   2.654   4.263   1.249 -0.9052  1.1630  1.1781
 3856TIP3   OH233202   5.668   1.152   0.393 -0.1583  0.0577 -0.5053
 3856TIP3    H133203   5.751   1.181   0.431  0.9007 -2.5488 -0.6074
 3856TIP3    H233204   5.602   1.180   0.456  1.0252  0.3304  0.6720
 3857TIP3   OH233205   2.546   3.349   0.372 -0.0724  0.4448  0.9157
 3857TIP3    H133206   2.613   3.284   0.392 -0.6961 -0.2242  0.9117
 3857TIP3    H233207   2.592   3.420   0.329  0.4068 -0.6710 -0.4726
 3858TIP3   OH233208   1.717   0.702   7.459  0.0979 -0.0877  0.2857
 3858TIP3    H133209   1.692   0.611   7.445  2.4703 -0.8544  0.5583
 3858TIP3    H233210   1.699   0.745   7.375 -2.3220 -0.4259  0.5636
 3859TIP3   OH233211   0.156   4.843   8.147 -0.4617  0.6599  0.3317
 3859TIP3    H133212   0.180   4.756   8.180  1.2349  1.1292  0.4061
 3859TIP3    H233213   0.165   4.835   8.052  1.6734  1.2485  0.4236
 3860TIP3   OH233214   0.348   0.692   1.367  0.6324 -0.4529 -0.0981
 3860TIP3    H133215   0.443   0.681   1.366  0.7349  0.2850  0.1759
 3860TIP3    H233216   0.336   0.781   1.400 -0.1596 -0.5935 -0.0021
 3861TIP3   OH233217   1.703   3.706   1.482  0.3814 -0.2811  0.2318
 3861TIP3    H133218   1.750   3.632   1.442 -1.1957 -1.5114  0.5584
 3861TIP3    H233219   1.753   3.727   1.561  0.8421 -1.0021  0.1382
 3862TIP3   OH233220   5.036   3.161   2.125  0.4299 -0.4184  0.4459
 3862TIP3    H133221   5.000   3.130   2.208 -0.6492 -0.2297  0.0683
 3862TIP3    H233222   5.027   3.256   2.128  0.3849 -0.4091  0.1161
 3863TIP3   OH233223   4.602   0.578   7.719 -0.3406 -0.4666 -0.1963
 3863TIP3    H133224   4.542   0.652   7.728 -0.7560 -0.9125  0.8403
 3863TIP3    H233225   4.650   0.575   7.802 -0.4916 -1.4890 -0.1267
 3864TIP3   OH233226   2.375   5.681   6.915 -0.1455  0.4321 -0.8110
 3864TIP3    H133227   2.296   5.638   6.881 -0.5274  1.0996 -0.7768
 3864TIP3    H233228   2.351   5.773   6.924  0.9651  0.8445 -1.8063
 3865TIP3   OH233229   5.456   6.550   8.404  0.2197  0.5703 -0.1829
 3865TIP3    H133230   5.427   6.464   8.374 -0.8457  0.9729 -0.3383
 3865TIP3    H233231   5.537   6.567   8.355  2.1940 -1.6146  1.9872
 3866TIP3   OH233232   6.673   6.129   1.537  0.1039  0.7058  0.2219
 3866TIP3    H133233   6.750   6.126   1.594 -0.0301 -0.1607  0.3797
 3866TIP3    H233234   6.697   6.074   1.462  0.2963  1.8805 -0.5988
 3867TIP3   OH233235   4.202   1.413   1.283 -0.1423  0.1408  0.6381
 3867TIP3    H133236   4.245   1.328   1.274 -1.2672 -0.4636  0.8523
 3867TIP3    H233237   4.152   1.407   1.365 -0.2284  1.0158  0.6671
 3868TIP3   OH233238   3.136   1.336   0.747  0.0440  0.5321 -0.0573
 3868TIP3    H133239   3.206   1.278   0.776  2.4426  2.5944 -1.3588
 3868TIP3    H233240   3.081   1.280   0.691  0.7797 -1.0665  0.7454
 3869TIP3   OH233241   3.894   5.694   8.151  0.1238 -0.3236  0.4412
 3869TIP3    H133242   3.947   5.623   8.187  1.8369  1.7611  2.4146
 3869TIP3    H233243   3.828   5.711   8.219  0.7113  0.9179  0.7301
 3870TIP3   OH233244   6.454   5.802   7.141  0.1758 -0.6712  0.3616
 3870TIP3    H133245   6.384   5.861   7.113  0.2725 -0.8429 -0.2550
 3870TIP3    H233246   6.408   5.728   7.180  0.0634 -0.0159  1.5056
 3871TIP3   OH233247   4.190   6.550   0.329 -0.5298  0.1347  0.2185
 3871TIP3    H133248   4.233   6.519   0.249 -0.6789 -0.2191  0.2729
 3871TIP3    H233249   4.206   6.645   0.329 -1.8173  0.3917 -1.0198
 3872TIP3   OH233250   4.751   4.251   1.761  0.0412 -0.2010 -0.4189
 3872TIP3    H133251   4.714   4.179   1.812 -0.4310 -1.6176 -2.6311
 3872TIP3    H233252   4.825   4.212   1.716  0.2813  0.9299 -1.0188
 3873TIP3   OH233253   2.549   3.401   6.893 -0.7932  0.4010 -0.1114
 3873TIP3    H133254   2.567   3.324   6.947 -0.4232  0.1979 -0.5175
 3873TIP3    H233255   2.467   3.436   6.928  0.1050  1.0602  1.4460
 3874TIP3   OH233256   5.268   4.887   1.454  0.1486 -0.5514  0.0913
 3874TIP3    H133257   5.314   4.961   1.493 -2.3779  0.8943  0.5374
 3874TIP3    H233258   5.271   4.819   1.521 -0.8981  0.5963  1.3681
 3875TIP3   OH233259   6.041   6.480   0.423 -0.2345  1.0707  0.4011
 3875TIP3    H133260   6.103   6.435   0.481  2.3904  2.2483 -1.3066
 3875TIP3    H233261   6.000   6.409   0.373  0.0988  0.2916  1.2034
 3876TIP3   OH233262   6.070   5.902   8.853  0.0224 -0.0624 -0.7737
 3876TIP3    H133263   6.065   5.855   8.770 -1.6738  2.5254 -2.2877
 3876TIP3    H233264   6.004   5.860   8.908  2.1191 -2.7251 -0.0537
 3877TIP3   OH233265   0.465   3.208   8.842 -0.0160 -0.0033  0.0814
 3877TIP3    H133266   0.512   3.285   8.811  0.4748 -0.1897  0.3339
 3877TIP3    H233267   0.534   3.151   8.878 -0.2849 -0.8720 -0.7462
 3878TIP3   OH233268   3.856   3.870   2.562  0.2686 -0.1895 -0.0539
 3878TIP3    H133269   3.815   3.933   2.622  0.5624  1.2483 -1.3058
 3878TIP3    H233270   3.784   3.814   2.533  0.3884 -2.1652  2.9789
 3879TIP3   OH233271   1.949   5.984   7.731 -0.0130 -0.3371  0.5019
 3879TIP3    H133272   1.923   5.902   7.773  1.4131 -1.2615 -0.2895
 3879TIP3    H233273   2.013   6.023   7.791  0.8689 -0.8870 -0.0443
 3880TIP3   OH233274   5.422   3.498   0.993 -0.1231 -0.0362 -0.3731
 3880TIP3    H133275   5.388   3.461   1.075  0.1885 -1.2122 -0.7479
 3880TIP3    H233276   5.502   3.447   0.976  0.5207  1.0695 -0.7397
 3881TIP3   OH233277   2.766   1.560   0.317 -0.3838  0.0000  0.4355
 3881TIP3    H133278   2.727   1.474   0.328 -2.5181  0.9546  0.7336
 3881TIP3    H233279   2.804   1.558   0.229 -0.3277 -1.2476  0.4643
 3882TIP3   OH233280   1.270   4.859   8.283  0.0488  0.1781 -0.4361
 3882TIP3    H133281   1.230   4.928   8.336 -1.3990 -0.8416 -0.1234
 3882TIP3    H233282   1.255   4.886   8.192  0.0102  0.5607 -0.3159
 3883TIP3   OH233283   1.318   6.062   1.928  0.6851 -0.0963  0.2416
 3883TIP3    H133284   1.332   6.073   2.022  2.5920  2.0622 -0.2206
 3883TIP3    H233285   1.374   5.988   1.904 -0.0685 -0.8770  0.8139
 3884TIP3   OH233286   6.517   3.276   8.892  0.4347 -0.0373  0.0149
 3884TIP3    H133287   6.448   3.247   8.952  0.7378  0.2127  0.4933
 3884TIP3    H233288   6.545   3.196   8.848 -0.5714 -0.0440 -0.6294
 3885TIP3   OH233289   0.971   1.291   0.679 -0.2182  0.2726 -0.1727
 3885TIP3    H133290   0.899   1.240   0.717  0.4636  0.6736  1.7747
 3885TIP3    H233291   0.988   1.360   0.744  0.4704  1.5305 -1.6296
 3886TIP3   OH233292   5.355   1.385   0.806 -0.4605 -0.3597 -0.1160
 3886TIP3    H133293   5.373   1.411   0.716 -0.1487  0.9468  0.2952
 3886TIP3    H233294   5.334   1.467   0.851  1.0166 -0.7439  1.3819
 3887TIP3   OH233295   3.815   3.281   8.331 -0.0619 -0.0956  0.6251
 3887TIP3    H133296   3.876   3.311   8.399 -0.8528 -2.0846  2.3170
 3887TIP3    H233297   3.736   3.257   8.379 -0.5172 -1.9286 -0.9344
 3888TIP3   OH233298   3.968   4.423   1.077 -0.1301  0.4395  0.0411
 3888TIP3    H133299   4.040   4.476   1.110 -1.3299  1.5834  0.9289
 3888TIP3    H233300   3.935   4.376   1.154  0.1332 -0.6924 -0.5068
 3889TIP3   OH233301   5.861   1.682   7.921 -0.0385  0.1798  0.0660
 3889TIP3    H133302   5.843   1.775   7.937 -3.7602 -0.6050  1.2886
 3889TIP3    H233303   5.775   1.642   7.912  1.4587 -2.9955 -1.8525
 3890TIP3   OH233304   0.062   3.235   8.845  0.2145  0.0914  0.6062
 3890TIP3    H133305   0.106   3.292   8.908 -0.6364  2.3185 -0.6907
 3890TIP3    H233306  -0.028   3.265   8.843 -0.1696 -1.0189 -0.4759
 3891TIP3   OH233307   1.948   3.785   8.863  0.7705 -0.2825 -0.0437
 3891TIP3    H133308   2.010   3.718   8.835  1.7608  0.1512  1.0625
 3891TIP3    H233309   1.988   3.868   8.837 -0.7545 -0.0678 -2.0145
 3892TIP3   OH233310   2.452   6.083   7.899  0.8702  0.0498  0.0546
 3892TIP3    H133311   2.432   6.176   7.891 -2.0005 -0.1790  2.5963
 3892TIP3    H233312   2.470   6.070   7.993  1.3140 -1.9227 -0.2582
 3893TIP3   OH233313   2.737   0.057   0.927 -0.4753 -0.4079  0.1086
 3893TIP3    H133314   2.740   0.092   0.838  0.2413  0.7757  0.5757
 3893TIP3    H233315   2.664   0.102   0.969 -1.5058 -1.7547 -0.1678
 3894TIP3   OH233316   0.232   6.587   7.457  0.4643 -0.3964  0.7654
 3894TIP3    H133317   0.292   6.594   7.383  0.2861  2.6226  0.8071
 3894TIP3    H233318   0.273   6.523   7.515  3.3863  1.1076  0.5328
 3895TIP3   OH233319   5.531   5.178   2.212  0.2989 -0.5264 -0.3675
 3895TIP3    H133320   5.489   5.250   2.165  0.4321  0.4154  0.9148
 3895TIP3    H233321   5.570   5.124   2.143  4.1769  3.0134 -1.3235
 3896TIP3   OH233322   5.930   6.548   1.751 -0.6313  0.3239 -0.3778
 3896TIP3    H133323   6.008   6.598   1.774 -0.2772 -0.0862 -0.6813
 3896TIP3    H233324   5.857   6.606   1.773 -0.2780  0.3506  0.7745
 3897TIP3   OH233325   0.142   6.095   1.050 -0.7883 -0.5456  0.0348
 3897TIP3    H133326   0.046   6.087   1.048 -0.7416 -1.1918  0.0832
 3897TIP3    H233327   0.173   6.026   0.991 -0.4564  2.3391 -3.4902
 3898TIP3   OH233328   5.267   4.577   8.566  0.6202 -0.3605 -0.3840
 3898TIP3    H133329   5.226   4.497   8.601 -0.3120  0.7378  1.1413
 3898TIP3    H233330   5.358   4.572   8.596  0.1746 -0.1122  1.0874
 3899TIP3   OH233331   0.344   2.856   7.208 -0.2631  0.5370  0.6584
 3899TIP3    H133332   0.429   2.838   7.167 -0.7961  3.4165 -2.0581
 3899TIP3    H233333   0.280   2.823   7.145 -1.1189  2.4279  0.4734
 3900TIP3   OH233334   6.436   6.337   0.112  0.7804  0.0891 -0.3122
 3900TIP3    H133335   6.442   6.398   0.186 -0.2109 -0.1637 -0.0075
 3900TIP3    H233336   6.459   6.251   0.150  1.2715  0.1200 -0.5332
 3901TIP3   OH233337   4.707   3.938   2.685  0.0003 -0.3204 -0.1140
 3901TIP3    H133338   4.614   3.914   2.681  0.1931 -1.2745  0.7403
 3901TIP3    H233339   4.745   3.875   2.746  1.2701 -0.1026 -0.6605
 3902TIP3   OH233340   0.706   0.911   0.432  0.2068 -0.6460  0.4700
 3902TIP3    H133341   0.640   0.897   0.500 -0.5136  0.0365 -0.0655
 3902TIP3    H233342   0.662   0.886   0.351  0.0127  1.3560 -0.0986
 3903TIP3   OH233343   3.515   3.324   2.167 -0.4707  0.0382  0.1854
 3903TIP3    H133344   3.550   3.404   2.206 -1.5043  0.7771 -0.3297
 3903TIP3    H233345   3.474   3.354   2.085  0.0819 -1.1910 -0.5706
 3904TIP3   OH233346   3.694   3.202   0.125 -0.1212 -0.2187  0.3860
 3904TIP3    H133347   3.694   3.205   0.220  0.1318 -1.0581  0.4284
 3904TIP3    H233348   3.781   3.233   0.100 -0.5911  1.1249  0.3616
 3905TIP3   OH233349   3.797   1.434   7.750  0.1097  0.3435 -0.7603
 3905TIP3    H133350   3.784   1.421   7.656 -0.9918  0.3376 -0.6253
 3905TIP3    H233351   3.857   1.364   7.776 -0.5832 -0.4396 -1.2311
 3906TIP3   OH233352   4.653   0.848   0.337 -0.8423  0.1879  0.1295
 3906TIP3    H133353   4.660   0.756   0.312 -0.6647  0.1778  0.2216
 3906TIP3    H233354   4.742   0.882   0.332 -0.8752  0.3024  0.3051
 3907TIP3   OH233355   5.202   0.543   1.028 -0.5170 -0.1779  0.3646
 3907TIP3    H133356   5.190   0.621   1.082 -2.3346  0.9977 -1.5970
 3907TIP3    H233357   5.141   0.479   1.065 -0.8906  0.2048  0.4130
 3908TIP3   OH233358   2.554   3.673   1.834 -0.0742 -0.3802 -0.2568
 3908TIP3    H133359   2.562   3.754   1.783  0.5161 -0.3327 -0.0961
 3908TIP3    H233360   2.522   3.702   1.919  0.0896 -0.3167 -0.2155
 3909TIP3   OH233361   0.950   6.288   7.375  0.1109 -0.1757  0.4155
 3909TIP3    H133362   0.898   6.212   7.400  1.8233 -0.4687  3.6528
 3909TIP3    H233363   1.028   6.252   7.333 -0.1870 -0.0318 -0.2689
 3910TIP3   OH233364   1.626   0.016   8.641  0.7210 -0.7422  0.4335
 3910TIP3    H133365   1.678  -0.060   8.667  0.2331 -0.1485  3.5215
 3910TIP3    H233366   1.577   0.039   8.720 -0.8645  1.4084 -1.0849
 3911TIP3   OH233367   4.681   2.704   8.722 -0.3035  0.3011  0.2891
 3911TIP3    H133368   4.668   2.719   8.628  0.3008 -1.9100 -0.2143
 3911TIP3    H233369   4.756   2.645   8.726  0.4554  1.3269  2.2691
 3912TIP3   OH233370   1.989   0.860   8.799  0.1328  0.5119 -0.3862
 3912TIP3    H133371   1.931   0.791   8.831  1.0499  0.5694  1.5691
 3912TIP3    H233372   2.024   0.900   8.879  0.6805  2.3448 -1.4798
 3913TIP3   OH233373   0.052   5.023   8.343  0.0713 -0.4809  0.0980
 3913TIP3    H133374   0.123   5.083   8.364  0.6810 -0.7502 -1.0663
 3913TIP3    H233375   0.087   4.969   8.271 -1.0579 -1.0904 -0.0192
 3914TIP3   OH233376   2.563   4.898   2.624  0.0923  0.0877 -0.1322
 3914TIP3    H133377   2.492   4.910   2.561  1.5452 -1.3231 -2.1746
 3914TIP3    H233378   2.628   4.846   2.577  1.0683 -1.4848  2.7064
 3915TIP3   OH233379   3.192   2.603   1.865 -0.3253 -0.6654  0.3919
 3915TIP3    H133380   3.287   2.596   1.858 -0.2066 -0.2079  1.3414
 3915TIP3    H233381   3.178   2.682   1.918 -1.2197 -0.9103  0.5392
 3916TIP3   OH233382   1.789   1.542   7.715 -0.0236  0.7410 -0.2736
 3916TIP3    H133383   1.830   1.629   7.709  0.7344  0.3669 -0.6206
 3916TIP3    H233384   1.703   1.554   7.674 -0.0898  1.4256  0.0503
 3917TIP3   OH233385   1.847   3.080   1.244  0.4504 -0.3985  0.5447
 3917TIP3    H133386   1.811   2.994   1.266  0.6496 -0.7390 -0.4003
 3917TIP3    H233387   1.942   3.067   1.242  0.4201 -0.8755 -2.2013
 3918TIP3   OH233388   3.817   6.793   1.624 -0.3469 -0.0969 -0.2300
 3918TIP3    H133389   3.870   6.850   1.569 -0.8460 -0.1237 -0.7468
 3918TIP3    H233390   3.762   6.852   1.675  0.5818 -0.0447  0.7396
 3919TIP3   OH233391   4.311   1.019   7.739  0.4891 -0.2084 -0.6582
 3919TIP3    H133392   4.358   0.987   7.661 -0.0660 -1.4860 -0.4903
 3919TIP3    H233393   4.272   0.941   7.777  0.6930  0.4082  0.8864
 3920TIP3   OH233394   3.633   6.595   7.616  0.5984  0.4161  0.2807
 3920TIP3    H133395   3.711   6.645   7.638  0.4751  1.0152 -0.6323
 3920TIP3    H233396   3.635   6.586   7.521 -0.1565 -0.0368  0.2982
 3921TIP3   OH233397   0.502   0.579   6.936 -0.8771 -0.6594  0.4362
 3921TIP3    H133398   0.523   0.647   6.872  0.5781  0.4927  2.0454
 3921TIP3    H233399   0.537   0.499   6.897  0.4471  0.0932 -0.0079
 3922TIP3   OH233400   5.932   1.309   0.403 -0.1627  0.4517 -0.7234
 3922TIP3    H133401   6.027   1.311   0.399 -0.1430  2.7686 -0.4409
 3922TIP3    H233402   5.904   1.325   0.313 -0.2846  0.7610 -0.6288
 3923TIP3   OH233403   6.602   2.440   1.684 -0.5795  0.4409  0.3431
 3923TIP3    H133404   6.602   2.412   1.775 -1.1904  1.6575  0.7443
 3923TIP3    H233405   6.673   2.505   1.679 -0.8475  0.7170  0.0662
 3924TIP3   OH233406   0.024   6.146   7.395 -0.2210 -0.1890 -0.2166
 3924TIP3    H133407   0.006   6.055   7.373  2.2151 -0.5651 -0.8499
 3924TIP3    H233408   0.112   6.163   7.362 -0.4939  2.3324  0.1244
 3925TIP3   OH233409   6.020   4.317   7.643 -0.1315 -0.6121  0.0864
 3925TIP3    H133410   5.993   4.324   7.551  0.1630  0.0082  0.0425
 3925TIP3    H233411   5.980   4.393   7.686 -2.2452 -2.1357  0.9890
 3926TIP3   OH233412   5.802   5.841   8.711  0.1748 -0.3503  0.3799
 3926TIP3    H133413   5.730   5.821   8.650 -0.2132 -0.6619  0.9344
 3926TIP3    H233414   5.855   5.906   8.665  0.3047 -1.1295 -0.6062
 3927TIP3   OH233415   2.668   3.077   1.240  0.1262  0.4282 -0.4287
 3927TIP3    H133416   2.599   3.140   1.260 -0.3062 -0.4435  1.0383
 3927TIP3    H233417   2.710   3.059   1.325  2.1855  0.9282 -1.2734
 3928TIP3   OH233418   2.588   1.125   1.901  0.2811  0.1974 -0.0506
 3928TIP3    H133419   2.540   1.176   1.966  1.5097  1.0715  0.1957
 3928TIP3    H233420   2.571   1.171   1.818  1.5013  1.1408  0.1913
 3929TIP3   OH233421   0.467   6.255   6.627  0.0657 -0.5192 -0.1198
 3929TIP3    H133422   0.536   6.268   6.691  1.1642  0.9675 -1.5488
 3929TIP3    H233423   0.421   6.339   6.623 -1.5353 -1.3134  0.4107
 3930TIP3   OH233424   6.229   2.079   8.139  0.2834  1.0165 -0.0639
 3930TIP3    H133425   6.290   2.146   8.108 -2.5780  3.6545 -0.5479
 3930TIP3    H233426   6.194   2.039   8.060  0.4441  0.4318  0.1568
 3931TIP3   OH233427   1.260   1.002   8.861 -0.2682 -0.5437 -0.2123
 3931TIP3    H133428   1.224   1.000   8.949 -0.1040 -0.3776 -0.1420
 3931TIP3    H233429   1.189   0.970   8.805 -0.4707 -0.3732 -0.0538
 3932TIP3   OH233430   6.774   2.777   0.392 -0.3705 -0.0307  0.2693
 3932TIP3    H133431   6.726   2.860   0.400  1.3010  1.0765 -0.4171
 3932TIP3    H233432   6.715   2.711   0.428 -2.6469  1.1162 -1.0617
 3933TIP3   OH233433   2.113   3.008   1.717  0.7590  0.9855  0.8735
 3933TIP3    H133434   2.026   3.018   1.757 -0.4648  0.3504 -1.4065
 3933TIP3    H233435   2.135   3.096   1.686  0.6960  1.0571  1.0299
 3934TIP3   OH233436   0.261   2.162   2.507 -0.1213 -0.0930 -0.5650
 3934TIP3    H133437   0.277   2.096   2.574 -1.7274 -0.6732 -0.7145
 3934TIP3    H233438   0.261   2.245   2.555  0.7322 -0.2919 -0.1947
 3935TIP3   OH233439   5.762   0.449   0.030  0.5578 -0.1450 -0.2275
 3935TIP3    H133440   5.708   0.440  -0.048  0.4264 -0.6817 -0.0813
 3935TIP3    H233441   5.852   0.443  -0.003  0.4968 -0.7632 -0.3003
 3936TIP3   OH233442   0.665   0.257   7.707  0.0797 -0.6310  0.0265
 3936TIP3    H133443   0.697   0.241   7.796  0.3548 -2.2139 -0.3371
 3936TIP3    H233444   0.648   0.170   7.671 -1.6634  0.0439 -0.9002
 3937TIP3   OH233445   0.529   4.641   7.271  0.6284  0.4696 -0.1481
 3937TIP3    H133446   0.476   4.651   7.192 -0.0028 -0.3746  0.1447
 3937TIP3    H233447   0.534   4.546   7.284  0.5976  0.5975  0.9010
 3938TIP3   OH233448   6.383   4.935   8.618 -0.6277  0.1196 -0.2563
 3938TIP3    H133449   6.392   4.997   8.546 -0.7727  1.7116  1.0349
 3938TIP3    H233450   6.467   4.888   8.620 -0.5770  0.1386 -1.3569
 3939TIP3   OH233451   1.082   5.513   8.637  0.0787 -0.4064  0.1593
 3939TIP3    H133452   1.083   5.489   8.544  0.3692  0.7895 -0.1654
 3939TIP3    H233453   1.142   5.587   8.643 -0.7187  0.1895  1.1151
 3940TIP3   OH233454   2.558   4.682   7.008  0.3728 -0.5227 -0.3318
 3940TIP3    H133455   2.598   4.630   6.938  1.3420  0.6157 -0.6538
 3940TIP3    H233456   2.487   4.729   6.965  0.3770 -0.5287 -0.3452
 3941TIP3   OH233457   5.459   0.007   1.950 -0.2071  0.2472  0.1324
 3941TIP3    H133458   5.480  -0.006   2.043 -0.9824  1.1843  0.4527
 3941TIP3    H233459   5.512   0.082   1.924  1.1382 -0.9211 -0.6020
 3942TIP3   OH233460   2.848   5.300   0.450 -0.2890 -0.4855  0.2634
 3942TIP3    H133461   2.940   5.322   0.440 -0.3145  0.3912  1.6622
 3942TIP3    H233462   2.828   5.319   0.542 -1.3808 -2.5257  0.5057
 3943TIP3   OH233463   2.201   3.524   0.514 -0.3862  0.6619 -0.0794
 3943TIP3    H133464   2.227   3.595   0.456 -0.1310 -0.0160 -0.8075
 3943TIP3    H233465   2.251   3.448   0.483 -0.4462  0.2276  0.8543
 3944TIP3   OH233466   0.027   0.367   1.127  0.1122 -0.2331 -0.0790
 3944TIP3    H133467   0.063   0.449   1.092 -0.5776  0.3262  0.5038
 3944TIP3    H233468   0.104   0.319   1.157  0.4961  0.3641 -0.0795
 3945TIP3   OH233469   0.300   4.175   1.137 -0.3952  0.0243 -0.0916
 3945TIP3    H133470   0.254   4.252   1.105 -0.8714 -0.5301 -0.7767
 3945TIP3    H233471   0.280   4.172   1.231 -1.3510  0.0739 -0.2799
 3946TIP3   OH233472   5.858   5.128   1.711  1.3335 -0.0594  0.3877
 3946TIP3    H133473   5.884   5.197   1.650 -0.8548 -0.1828 -0.7677
 3946TIP3    H233474   5.869   5.167   1.798 -0.7874  2.1474 -0.2478
 3947TIP3   OH233475   2.859   6.751   6.996  0.1433  0.2281 -0.1521
 3947TIP3    H133476   2.797   6.679   6.998  1.7715 -1.2712 -1.3172
 3947TIP3    H233477   2.888   6.757   6.905  1.4880  1.0689  0.2924
 3948TIP3   OH233478   5.549   1.057   8.576  0.1891  0.1418 -0.0238
 3948TIP3    H133479   5.506   1.142   8.589 -1.8839 -0.4895 -2.1799
 3948TIP3    H233480   5.638   1.079   8.549 -0.4495  1.6539 -1.0075
 3949TIP3   OH233481   0.749   3.424   0.812 -0.2448  0.0431  0.1740
 3949TIP3    H133482   0.776   3.333   0.822 -0.8882 -0.0169  1.5476
 3949TIP3    H233483   0.654   3.419   0.800 -0.0260  0.4063 -2.1343
 3950TIP3   OH233484   4.078   1.307   2.398 -0.3262  0.1023 -0.3964
 3950TIP3    H133485   4.081   1.290   2.492 -2.0503 -1.1445 -0.5185
 3950TIP3    H233486   4.034   1.230   2.361 -2.1150  1.7413 -1.9034
 3951TIP3   OH233487   3.521   6.133   0.388 -0.1464 -0.0391  0.2982
 3951TIP3    H133488   3.461   6.072   0.344 -0.2938 -0.0593  0.5275
 3951TIP3    H233489   3.562   6.081   0.456 -3.0797  0.9710  3.1216
 3952TIP3   OH233490   5.828   1.573   2.040  0.4054 -0.1033 -0.0233
 3952TIP3    H133491   5.884   1.526   2.102 -1.1447  1.5035  2.7646
 3952TIP3    H233492   5.795   1.648   2.089 -2.4549  0.2362 -2.2052
 3953TIP3   OH233493   1.237   5.403   8.829  0.7884 -0.6642  0.1632
 3953TIP3    H133494   1.174   5.440   8.768  0.1902 -0.9276  0.6033
 3953TIP3    H233495   1.231   5.459   8.907 -0.3851 -1.8662  0.9718
 3954TIP3   OH233496   5.320   4.337   7.024 -0.2179 -0.1052  0.1348
 3954TIP3    H133497   5.325   4.249   6.988 -0.6238 -0.9502  2.0296
 3954TIP3    H233498   5.407   4.352   7.062 -0.3269  0.0759  0.3158
 3955TIP3   OH233499   0.572   4.131   2.098  0.4502 -0.2447  0.2015
 3955TIP3    H133500   0.629   4.201   2.065  1.1335 -1.1833 -0.7185
 3955TIP3    H233501   0.507   4.119   2.029  0.3018 -0.4737  0.3813
 3956TIP3   OH233502   1.698   3.892   6.730  0.1980  0.6561  0.6619
 3956TIP3    H133503   1.650   3.975   6.737  0.2910  0.7753 -0.0009
 3956TIP3    H233504   1.630   3.826   6.718  0.2023  0.9616 -1.4645
 3957TIP3   OH233505   4.059   0.499   2.150 -0.4022 -0.5610 -0.0888
 3957TIP3    H133506   4.045   0.409   2.179  1.1155 -0.2918  1.6884
 3957TIP3    H233507   3.993   0.550   2.198 -0.9292 -0.6657 -0.7024
 3958TIP3   OH233508   4.885   4.111   7.562  0.1418  0.2278  0.1652
 3958TIP3    H133509   4.869   4.193   7.514 -1.3499  0.0033  0.2261
 3958TIP3    H233510   4.980   4.103   7.563  0.3103 -0.0683 -3.3521
 3959TIP3   OH233511   5.668   2.093   0.869 -0.3713 -0.2102 -0.3272
 3959TIP3    H133512   5.672   2.145   0.949 -1.1259 -1.6568  0.7020
 3959TIP3    H233513   5.591   2.126   0.823 -0.5412 -0.0614  0.0562
 3960TIP3   OH233514   5.316   3.981   2.676 -0.1490 -0.3344  0.7205
 3960TIP3    H133515   5.377   3.945   2.612  0.1142  1.1864  0.0890
 3960TIP3    H233516   5.359   3.966   2.761  1.1012  0.6759  0.2878
 3961TIP3   OH233517   0.461   4.299   8.270 -0.0143  0.1084  0.1854
 3961TIP3    H133518   0.478   4.291   8.176 -3.4474  0.5774 -0.6109
 3961TIP3    H233519   0.493   4.387   8.292  1.9320 -0.4491 -0.1670
 3962TIP3   OH233520   2.572   2.404   0.600  0.4321  0.1365 -0.4362
 3962TIP3    H133521   2.544   2.375   0.512 -0.6851 -0.0079 -0.0555
 3962TIP3    H233522   2.573   2.323   0.652 -1.3442  0.5160  0.2835
 3963TIP3   OH233523   4.117   5.274   7.651  0.0594 -0.3026  0.4694
 3963TIP3    H133524   4.140   5.212   7.582  0.6593  1.8280 -1.3216
 3963TIP3    H233525   4.024   5.292   7.637  0.0340 -0.3134  0.6162
 3964TIP3   OH233526   2.382   5.781   7.929  0.5285  0.3817  0.0341
 3964TIP3    H133527   2.430   5.806   8.008  2.2394  0.2345 -0.9250
 3964TIP3    H233528   2.440   5.805   7.857 -0.6336 -0.2860 -1.1602
 3965TIP3   OH233529   4.894   3.374   8.511 -0.2749 -0.1275  0.0190
 3965TIP3    H133530   4.799   3.376   8.525  0.0210  1.0528  2.1798
 3965TIP3    H233531   4.923   3.292   8.551 -0.4703 -1.0809 -1.6864
 3966TIP3   OH233532   5.155   0.461   1.431 -0.4468 -0.1568 -0.0587
 3966TIP3    H133533   5.216   0.477   1.502 -1.2701 -0.7676  0.8071
 3966TIP3    H233534   5.209   0.425   1.360  0.1933 -0.7673  0.7198
 3967TIP3   OH233535   6.056   5.533   2.473  0.5024  0.4223  0.5649
 3967TIP3    H133536   6.089   5.481   2.399 -0.5742 -1.4666  1.3259
 3967TIP3    H233537   6.132   5.583   2.502  1.2742  0.2511 -1.0105
 3968TIP3   OH233538   4.422   2.706   1.589  0.3384  0.0517 -0.5298
 3968TIP3    H133539   4.374   2.786   1.567  0.7236  0.3692 -0.2366
 3968TIP3    H233540   4.355   2.639   1.599 -0.0223  0.4408 -0.3375
 3969TIP3   OH233541   6.114   5.795   1.364 -0.0737  0.5840  0.0350
 3969TIP3    H133542   6.049   5.839   1.310  0.1183 -1.5749 -2.1280
 3969TIP3    H233543   6.190   5.784   1.306  0.7834 -0.3412  1.2683
 3970TIP3   OH233544   5.907   6.665   8.678 -0.1931  0.0170  0.3555
 3970TIP3    H133545   5.889   6.717   8.756  0.4907 -0.9492  1.1974
 3970TIP3    H233546   5.842   6.595   8.681  0.2216 -0.3726  0.4104
 3971TIP3   OH233547   2.881   0.861   2.828 -0.0988 -0.4218  0.3285
 3971TIP3    H133548   2.786   0.868   2.842 -0.1205  0.1292 -0.0764
 3971TIP3    H233549   2.901   0.769   2.846 -0.7668 -0.6170  0.0970
 3972TIP3   OH233550   1.260   6.414   0.029 -0.7713 -0.5192 -0.1177
 3972TIP3    H133551   1.196   6.345   0.046  0.8730 -2.0349  0.1790
 3972TIP3    H233552   1.342   6.380   0.064  0.1187  1.5897 -0.0003
 3973TIP3   OH233553   6.119   6.812   1.596 -0.5856  0.3294  0.4473
 3973TIP3    H133554   6.051   6.832   1.660 -2.6770 -0.4886 -1.3954
 3973TIP3    H233555   6.155   6.728   1.624  0.4017  1.2091  1.9575
 3974TIP3   OH233556   0.661   4.498   0.846  0.4658 -0.8180  0.4629
 3974TIP3    H133557   0.704   4.416   0.824  0.1019 -1.0468  0.5917
 3974TIP3    H233558   0.585   4.472   0.899  0.9102 -0.3293  1.3611
 3975TIP3   OH233559   1.670   1.007   2.521  0.8055 -0.0777 -0.1320
 3975TIP3    H133560   1.579   1.034   2.507  0.5550 -1.4164 -1.3636
 3975TIP3    H233561   1.663   0.918   2.556  1.6307 -0.3612 -0.6602
 3976TIP3   OH233562   5.351   4.571   7.717 -0.6745 -0.7338  0.2056
 3976TIP3    H133563   5.265   4.530   7.709 -1.2089  0.4038 -0.0319
 3976TIP3    H233564   5.337   4.662   7.693  0.7532 -0.6815 -0.5529
 3977TIP3   OH233565   1.423   0.181   0.226  0.0402 -0.0232 -0.5181
 3977TIP3    H133566   1.501   0.216   0.269 -0.1128  0.8344 -0.9211
 3977TIP3    H233567   1.366   0.257   0.215 -0.1781 -0.3431 -1.6813
 3978TIP3   OH233568   4.012   2.042   2.765  0.0553 -0.1444  0.2186
 3978TIP3    H133569   4.100   2.071   2.741  0.5667 -0.4269  1.6393
 3978TIP3    H233570   3.983   2.104   2.831 -2.2227  1.9599 -2.5122
 3979TIP3   OH233571   5.710   3.236   1.332  0.3271  0.4713  0.3738
 3979TIP3    H133572   5.614   3.229   1.333  0.3119  0.2092 -0.8839
 3979TIP3    H233573   5.738   3.154   1.291  1.1892 -0.1651  2.1583
 3980TIP3   OH233574   6.303   2.630   1.217  0.2730  0.0744  0.1589
 3980TIP3    H133575   6.213   2.613   1.244  0.6311 -2.1872  0.1255
 3980TIP3    H233576   6.349   2.547   1.232  2.1706  0.9300 -0.5672
 3981TIP3   OH233577   4.025   4.474   8.246 -0.0131  0.1381  0.4121
 3981TIP3    H133578   4.012   4.557   8.199  0.0811  1.5229  2.6725
 3981TIP3    H233579   4.119   4.472   8.265  0.6264 -2.1273 -2.3052
 3982TIP3   OH233580   4.775   2.195   7.250 -0.5766 -0.5436 -0.2533
 3982TIP3    H133581   4.862   2.233   7.241 -0.9332  0.7898  1.4202
 3982TIP3    H233582   4.750   2.170   7.161  1.6158 -1.2678 -0.7293
 3983TIP3   OH233583   4.123   2.363   1.111  0.5816 -0.2382 -0.2182
 3983TIP3    H133584   4.170   2.324   1.185  0.3374 -0.2657 -0.0749
 3983TIP3    H233585   4.039   2.317   1.109 -0.7796  1.9128  1.5302
 3984TIP3   OH233586   5.327   4.543   2.189 -0.9634  0.3679 -0.0277
 3984TIP3    H133587   5.345   4.457   2.227  0.6896  0.3181 -0.8603
 3984TIP3    H233588   5.238   4.563   2.218 -1.3963 -1.6217  0.1713
 3985TIP3   OH233589   4.307   5.225   1.823  0.0261 -0.5769 -0.0022
 3985TIP3    H133590   4.390   5.223   1.870  0.3248  0.6633 -0.4398
 3985TIP3    H233591   4.247   5.269   1.883  0.1616  0.1322 -0.3650
 3986TIP3   OH233592   4.090   4.285   1.709 -0.0646  0.4463 -0.4481
 3986TIP3    H133593   4.052   4.293   1.797  0.3439 -0.5647 -0.1703
 3986TIP3    H233594   4.020   4.247   1.656  0.0101  0.1446 -0.3304
 3987TIP3   OH233595   2.817   2.415   1.479  0.4067 -0.3044  0.0939
 3987TIP3    H133596   2.884   2.414   1.548 -0.6741 -1.7169  1.1826
 3987TIP3    H233597   2.864   2.441   1.400  1.9707 -0.0092  1.0759
 3988TIP3   OH233598   4.890   0.791   7.750 -0.2075 -0.1823  0.6137
 3988TIP3    H133599   4.942   0.823   7.676 -0.5464  1.8526  1.1972
 3988TIP3    H233600   4.916   0.700   7.759  0.3554 -0.3007 -1.5700
 3989TIP3   OH233601   6.500   6.631   7.423  0.0071 -0.1485 -0.1399
 3989TIP3    H133602   6.594   6.610   7.416 -0.0447 -0.2358 -0.5465
 3989TIP3    H233603   6.462   6.554   7.465  0.3981  0.5982  1.6809
 3990TIP3   OH233604   2.822   5.032   8.517  0.3703 -0.2976 -0.3822
 3990TIP3    H133605   2.737   5.061   8.550  1.2510  0.2482  1.4982
 3990TIP3    H233606   2.833   4.944   8.555 -0.2207 -1.2670 -2.3026
 3991TIP3   OH233607   3.138   3.272   8.502 -0.8469 -0.2129  0.7573
 3991TIP3    H133608   3.222   3.284   8.457 -0.7288 -0.0134  1.0294
 3991TIP3    H233609   3.096   3.200   8.455 -0.9343  0.3072  0.0120
 3992TIP3   OH233610   6.520   0.271   1.875 -0.2544 -0.1172 -0.3169
 3992TIP3    H133611   6.501   0.329   1.948  1.0912  0.5639 -0.4853
 3992TIP3    H233612   6.553   0.328   1.806 -0.7684 -0.8432 -1.1976
 3993TIP3   OH233613   1.791   0.156   8.239  0.1612 -0.1719 -0.2423
 3993TIP3    H133614   1.839   0.203   8.306  1.3179 -1.4295 -0.1295
 3993TIP3    H233615   1.849   0.157   8.163 -0.6990  0.3694 -0.9055
 3994TIP3   OH233616   5.435   4.148   2.035  0.3371  0.8591  0.6973
 3994TIP3    H133617   5.408   4.080   2.096 -2.8623  1.0597 -0.2986
 3994TIP3    H233618   5.462   4.221   2.090  2.0606 -0.5171  1.7752
 3995TIP3   OH233619   4.756   3.330   1.558 -0.0736  0.1242 -0.0592
 3995TIP3    H133620   4.695   3.287   1.618 -0.2947  0.9249  0.2909
 3995TIP3    H233621   4.781   3.261   1.496 -3.3437  0.3671 -1.8360
 3996TIP3   OH233622   5.436   0.979   1.662  0.0469  0.0729  0.4988
 3996TIP3    H133623   5.513   0.995   1.716  0.1583  1.1868  0.0467
 3996TIP3    H233624   5.443   1.043   1.591 -0.2271 -1.1726 -0.6958
 3997TIP3   OH233625   1.982   4.430   0.617  0.4006  0.2156 -0.0443
 3997TIP3    H133626   2.029   4.376   0.553 -1.0626 -0.7153 -0.3666
 3997TIP3    H233627   2.031   4.418   0.699  0.8141 -0.6015 -0.3990
 3998TIP3   OH233628   4.172   2.092   7.592  0.7882  0.4261  0.7303
 3998TIP3    H133629   4.188   2.014   7.538  1.2560  0.8396  0.2690
 3998TIP3    H233630   4.215   2.163   7.546 -0.6405  1.1974  0.5153
 3999TIP3   OH233631   6.337   0.945   0.902 -0.1252 -0.6540  0.6262
 3999TIP3    H133632   6.365   0.861   0.867  2.0124 -0.2783  1.3263
 3999TIP3    H233633   6.314   0.997   0.825  0.2826 -1.2699  0.0817
 4000TIP3   OH233634   4.248   0.246   2.139  0.0942  0.0984 -0.0888
 4000TIP3    H133635   4.180   0.304   2.104  0.0259 -0.5617 -1.0839
 4000TIP3    H233636   4.242   0.258   2.234 -2.1473 -0.7245 -0.0545
 4001TIP3   OH233637   6.230   2.480   7.541 -0.0881 -0.2326 -0.3063
 4001TIP3    H133638   6.232   2.403   7.598  2.0594  0.5068  0.7412
 4001TIP3    H233639   6.142   2.516   7.551 -0.8401 -2.0428 -0.1464
 4002TIP3   OH233640   2.935   2.456   1.766 -0.1246 -0.0378 -0.3308
 4002TIP3    H133641   2.873   2.383   1.773  0.5956 -0.5374  1.1011
 4002TIP3    H233642   2.943   2.491   1.854  1.6179  0.0309 -0.4719
 4003TIP3   OH233643   3.694   2.482   1.403 -0.6953  0.7356  0.2499
 4003TIP3    H133644   3.728   2.555   1.352  1.2654  0.4246  1.0439
 4003TIP3    H233645   3.750   2.477   1.480 -2.2652 -0.1390  1.4018
 4004TIP3   OH233646   6.409   0.310   2.442 -0.9447 -0.0900 -0.5714
 4004TIP3    H133647   6.465   0.387   2.449  0.2442 -0.9256 -0.6125
 4004TIP3    H233648   6.340   0.337   2.381  0.3492  0.4424 -1.8800
 4005TIP3   OH233649   5.452   5.855   2.771  0.6429  0.2121 -0.2264
 4005TIP3    H133650   5.484   5.765   2.769 -0.7818 -0.4003  1.5846
 4005TIP3    H233651   5.528   5.908   2.746  1.8645 -1.4074 -0.1362
 4006TIP3   OH233652   2.005   5.249   2.098 -0.0692  0.3113  0.3484
 4006TIP3    H133653   2.100   5.248   2.110 -0.1052  0.6528  0.6604
 4006TIP3    H233654   1.969   5.247   2.187 -0.3509  0.4562  0.2392
 4007TIP3   OH233655   3.239   0.687   2.535  0.3086 -0.2664 -0.2313
 4007TIP3    H133656   3.327   0.681   2.497  0.8275  1.0732  0.6664
 4007TIP3    H233657   3.184   0.635   2.476  1.7129 -1.2624 -0.7279
 4008TIP3   OH233658   6.249   5.395   1.340 -0.0270  0.0055  0.7255
 4008TIP3    H133659   6.328   5.373   1.389  1.0933  2.2034  0.0357
 4008TIP3    H233660   6.212   5.471   1.386 -0.3197  0.5675 -0.3875
 4009TIP3   OH233661   0.472   4.210   0.351 -0.5597 -0.1796 -0.1312
 4009TIP3    H133662   0.391   4.160   0.342 -1.0980  0.4208  1.0895
 4009TIP3    H233663   0.501   4.193   0.440  0.8044 -0.5609 -0.6236
 4010TIP3   OH233664   5.711   0.689   8.610 -0.6229 -0.2316  0.2237
 4010TIP3    H133665   5.666   0.725   8.687  1.1069 -0.2746  1.3147
 4010TIP3    H233666   5.687   0.597   8.609  0.2299 -0.4900  1.4303
 4011TIP3   OH233667   5.662   6.052   0.092  0.3811 -0.1713 -0.0757
 4011TIP3    H133668   5.578   6.031   0.132  0.4904  0.8331  0.7123
 4011TIP3    H233669   5.640   6.090   0.007  0.0332  0.1978  0.1773
 4012TIP3   OH233670   3.039   2.113   1.394  0.2417  0.1987  0.7150
 4012TIP3    H133671   3.075   2.026   1.411  0.3133  0.5929  2.8587
 4012TIP3    H233672   3.008   2.143   1.479 -0.4401  1.9940 -0.1168
 4013TIP3   OH233673   5.829   4.208   0.312  0.0202  0.3676  0.1908
 4013TIP3    H133674   5.770   4.154   0.258  0.2556 -0.4972  0.7820
 4013TIP3    H233675   5.821   4.296   0.274  1.2546 -0.4494 -2.2135
 4014TIP3   OH233676   0.765   2.118   7.624 -0.2935  0.2333  0.5795
 4014TIP3    H133677   0.707   2.194   7.621  0.0651  0.4863 -1.5206
 4014TIP3    H233678   0.743   2.067   7.546 -0.2602 -1.6594  1.7235
 4015TIP3   OH233679   3.615   1.201   0.167 -0.0786 -0.0098 -0.4033
 4015TIP3    H133680   3.591   1.137   0.233  1.0024 -3.0643 -2.7464
 4015TIP3    H233681   3.546   1.268   0.172 -1.8430 -1.8260  1.5215
 4016TIP3   OH233682   6.061   2.880   7.326 -0.4065  0.2451 -0.1069
 4016TIP3    H133683   6.014   2.799   7.305 -0.4632  0.2633 -0.0486
 4016TIP3    H233684   5.993   2.947   7.327 -0.2939  0.3751 -0.6157
 4017TIP3   OH233685   5.227   1.587   7.693 -0.1809  0.3145 -0.4937
 4017TIP3    H133686   5.264   1.609   7.778 -2.1235 -1.5779  0.9465
 4017TIP3    H233687   5.155   1.650   7.681  1.7245  2.3443 -2.1080
 4018TIP3   OH233688   3.835   0.875   2.196  0.1458 -0.3488 -0.6199
 4018TIP3    H133689   3.871   0.806   2.251 -1.3261 -0.3437  0.4261
 4018TIP3    H233690   3.741   0.875   2.216 -0.3695 -0.0128 -2.7828
 4019TIP3   OH233691   5.835   2.270   0.354 -0.3020 -0.0255  0.3131
 4019TIP3    H133692   5.819   2.241   0.444  3.4318 -0.6041  0.9526
 4019TIP3    H233693   5.850   2.364   0.361 -0.5985  0.0325  0.1841
 4020TIP3   OH233694   3.064   6.747   1.845  0.3464  0.2868  0.4761
 4020TIP3    H133695   3.033   6.781   1.929 -0.6934  0.8205 -0.1092
 4020TIP3    H233696   3.072   6.652   1.859  0.1234  0.3645  1.1589
 4021TIP3   OH233697   4.772   2.372   1.380  0.6477 -0.2609  0.4043
 4021TIP3    H133698   4.709   2.442   1.399  0.8899  1.3983 -3.8904
 4021TIP3    H233699   4.731   2.293   1.415 -0.5160  1.6351  3.8042
 4022TIP3   OH233700   5.450   0.472   7.251 -0.1651  0.1340  0.4268
 4022TIP3    H133701   5.538   0.507   7.264 -0.2174  0.2220  0.5480
 4022TIP3    H233702   5.452   0.432   7.164  0.5584 -1.5232  1.1478
 4023TIP3   OH233703   5.170   1.838   8.497 -0.4134  0.4923 -0.2363
 4023TIP3    H133704   5.134   1.836   8.408  0.2551  0.0276 -0.5087
 4023TIP3    H233705   5.115   1.899   8.545  0.5910  2.5510 -1.5799
 4024TIP3   OH233706   6.448   3.010   2.084  0.2084 -0.0271  0.1688
 4024TIP3    H133707   6.420   2.930   2.128  0.8582 -0.3627 -0.0153
 4024TIP3    H233708   6.368   3.046   2.047 -0.5297  0.7460  2.3580
 4025TIP3   OH233709   6.575   2.366   8.686  1.1617 -0.0951 -0.0616
 4025TIP3    H133710   6.559   2.271   8.688  1.5313 -0.1557  0.1078
 4025TIP3    H233711   6.572   2.388   8.593  0.6918 -0.2054 -0.0753
 4026TIP3   OH233712   3.372   2.915   1.773  0.4988  0.9819 -0.3841
 4026TIP3    H133713   3.397   3.001   1.808  1.2582  0.4907  0.2830
 4026TIP3    H233714   3.317   2.877   1.841 -0.2141  1.1121 -0.8735
 4027TIP3   OH233715   2.435   5.244   7.954 -0.6267  0.2942 -0.5775
 4027TIP3    H133716   2.510   5.187   7.941 -1.2388 -0.2723 -1.7769
 4027TIP3    H233717   2.407   5.267   7.866 -0.0719  2.9265 -0.1393
 4028TIP3   OH233718   3.795   6.525   1.183  0.4098 -0.0432  0.2674
 4028TIP3    H133719   3.778   6.555   1.272  0.3821  0.3338  0.1372
 4028TIP3    H233720   3.880   6.481   1.188  0.9088  0.9026  0.2697
 4029TIP3   OH233721   4.653   1.208   1.948 -0.3267  0.0737 -0.4612
 4029TIP3    H133722   4.616   1.127   1.982  1.2302 -0.8439 -0.8452
 4029TIP3    H233723   4.730   1.223   2.002  0.9360 -0.2120 -2.0984
 4030TIP3   OH233724   3.512   4.871   7.692 -0.3003  0.1749  0.6081
 4030TIP3    H133725   3.548   4.855   7.605  0.8303  1.0268  0.8939
 4030TIP3    H233726   3.521   4.787   7.738  2.8152  0.6826  1.1581
 4031TIP3   OH233727   2.768   0.576   1.562  0.5572 -0.0644 -0.0412
 4031TIP3    H133728   2.701   0.592   1.627 -0.0183 -0.6315 -0.4813
 4031TIP3    H233729   2.792   0.663   1.529  1.9135  0.3726  1.9282
 4032TIP3   OH233730   0.127   1.087   0.091 -0.2362  0.3487  0.2690
 4032TIP3    H133731   0.202   1.064   0.145 -0.2216  1.9314  0.9818
 4032TIP3    H233732   0.051   1.063   0.144 -0.2436 -0.4591 -0.0948
 4033TIP3   OH233733   6.727   4.136   8.081 -0.3549  0.8632 -0.2131
 4033TIP3    H133734   6.772   4.221   8.077 -1.2809  1.3471 -0.7313
 4033TIP3    H233735   6.723   4.106   7.990  0.0979  0.1822 -0.0170
 4034TIP3   OH233736   3.967   1.719   1.002  0.3514 -0.6045 -0.0773
 4034TIP3    H133737   4.062   1.725   1.000  0.4258 -1.3483  0.7059
 4034TIP3    H233738   3.949   1.628   1.024 -0.5722 -1.0366 -2.3943
 4035TIP3   OH233739   2.819   5.980   7.559  0.0369  0.1211 -0.1095
 4035TIP3    H133740   2.800   6.071   7.532  0.1694 -0.0378 -0.7711
 4035TIP3    H233741   2.893   5.988   7.618 -0.3953  0.5077  0.3905
 4036TIP3   OH233742   3.131   5.902   7.994  0.5346  0.1146  0.4241
 4036TIP3    H133743   3.224   5.911   7.971  0.1991 -0.6173 -1.4351
 4036TIP3    H233744   3.118   5.808   8.003  0.4202  0.3132  2.9475
 4037TIP3   OH233745   1.177   0.217   2.815 -0.9054  0.0888  0.3372
 4037TIP3    H133746   1.205   0.229   2.725  1.5007 -0.7362  0.9126
 4037TIP3    H233747   1.192   0.302   2.856  1.2246 -0.4099  0.7032
 4038TIP3   OH233748   2.171   3.983   1.801  0.3910 -0.3267 -0.4693
 4038TIP3    H133749   2.177   4.021   1.713 -0.9462 -0.9226 -0.8336
 4038TIP3    H233750   2.261   3.984   1.833  0.5351  2.4787 -0.7362
 4039TIP3   OH233751   1.512   5.815   1.137 -0.6628 -0.5643 -0.2284
 4039TIP3    H133752   1.469   5.740   1.096 -1.0500  0.8280 -2.5825
 4039TIP3    H233753   1.456   5.890   1.114  0.1300  0.5691  1.3560
 4040TIP3   OH233754   4.047   0.240   2.845 -0.0786 -0.3698  0.0095
 4040TIP3    H133755   4.032   0.265   2.936 -0.4652 -1.6946  0.3301
 4040TIP3    H233756   4.062   0.323   2.800 -1.4737  0.4692  0.9820
 4041TIP3   OH233757   5.532   4.895   1.257 -0.5319 -0.3492 -0.2283
 4041TIP3    H133758   5.528   4.815   1.205  0.6167 -1.2703  1.0019
 4041TIP3    H233759   5.478   4.876   1.334 -0.4023  0.1387 -0.0106
 4042TIP3   OH233760   3.949   4.520   3.042  0.0042  0.1511 -0.0064
 4042TIP3    H133761   3.962   4.578   3.117  2.8673 -0.5697  0.1660
 4042TIP3    H233762   3.974   4.571   2.966 -1.6558  0.4587 -0.3956
 4043TIP3   OH233763   5.523   4.177   8.071  0.3968  0.1308  0.6711
 4043TIP3    H133764   5.591   4.214   8.015 -0.6011  1.2594  0.1678
 4043TIP3    H233765   5.443   4.183   8.019 -0.2133 -0.5661  1.5008
 4044TIP3   OH233766   5.175   1.638   0.121 -0.1801  0.3704 -0.0053
 4044TIP3    H133767   5.202   1.608   0.208 -0.2409  0.2108 -0.0418
 4044TIP3    H233768   5.084   1.608   0.113  0.4180 -1.3544 -0.9126
 4045TIP3   OH233769   3.036   4.544   1.425  0.5268  0.1255  0.1456
 4045TIP3    H133770   2.975   4.517   1.494  0.5464 -3.1976 -0.9992
 4045TIP3    H233771   3.110   4.581   1.473  0.0311 -0.9913  1.8844
 4046TIP3   OH233772   3.357   6.644   2.064 -0.2667 -0.1844  0.2355
 4046TIP3    H133773   3.395   6.731   2.078 -1.7235  0.6789 -0.8831
 4046TIP3    H233774   3.345   6.609   2.153  0.9019  0.4686  0.6802
 4047TIP3   OH233775   4.387   5.264   1.568 -0.1989  0.3806 -0.5991
 4047TIP3    H133776   4.346   5.238   1.651  2.0159 -0.1331  0.4076
 4047TIP3    H233777   4.382   5.359   1.567 -0.3164  0.3855  0.0875
 4048TIP3   OH233778   0.019   2.109   0.728  0.1720  0.3917 -0.0728
 4048TIP3    H133779   0.097   2.079   0.774  1.0163  0.5575 -1.3435
 4048TIP3    H233780  -0.054   2.078   0.782  1.0653 -1.2452  0.2773
 4049TIP3   OH233781   2.313   2.921   8.485  0.5303 -0.6634 -0.5061
 4049TIP3    H133782   2.272   2.904   8.400  1.9289 -1.4806 -1.0693
 4049TIP3    H233783   2.407   2.922   8.466  0.9113 -1.5738  1.1381
 4050TIP3   OH233784   0.443   3.055   1.003  0.2768 -0.0381  0.1242
 4050TIP3    H133785   0.433   3.114   0.928  0.0126  0.1278  0.2854
 4050TIP3    H233786   0.443   3.113   1.079  4.0042  0.1670  0.1460
 4051TIP3   OH233787   2.714   2.481   2.316  0.0812  0.6152 -0.2461
 4051TIP3    H133788   2.631   2.528   2.312 -1.7386 -2.3902 -0.6991
 4051TIP3    H233789   2.756   2.499   2.232 -1.7574 -0.4973 -1.4748
 4052TIP3   OH233790   5.693   3.103   7.900 -0.2226  0.2684  0.0479
 4052TIP3    H133791   5.653   3.020   7.874  2.4502 -1.7291  1.6793
 4052TIP3    H233792   5.766   3.114   7.839  0.9603  0.0094  1.3636
 4053TIP3   OH233793   5.986   2.071   7.108  0.9934  0.0484  0.3494
 4053TIP3    H133794   6.056   2.101   7.167  2.1490 -0.9588 -0.4543
 4053TIP3    H233795   6.033   2.030   7.036 -0.3773  1.2586 -1.2996
 4054TIP3   OH233796   6.497   3.324   2.168 -0.1589 -0.2602  0.3106
 4054TIP3    H133797   6.493   3.333   2.072  0.1431  1.8925  0.4428
 4054TIP3    H233798   6.436   3.390   2.200 -2.1992 -2.6515  1.6355
 4055TIP3   OH233799   4.284   3.376   0.852  0.2726 -0.1938  0.2380
 4055TIP3    H133800   4.191   3.399   0.853  0.3734  0.2006  0.3852
 4055TIP3    H233801   4.287   3.288   0.892 -0.0658 -0.3262 -0.0234
 4056TIP3   OH233802   5.577   6.817   8.752 -0.1181  0.4356 -0.0251
 4056TIP3    H133803   5.610   6.857   8.832 -0.2200  0.3224  0.0753
 4056TIP3    H233804   5.655   6.787   8.706 -0.0979 -0.1431  0.3764
 4057TIP3   OH233805   6.699   2.185   2.762 -0.3691  0.1536  0.0217
 4057TIP3    H133806   6.648   2.241   2.820 -0.5355 -0.4080  0.4308
 4057TIP3    H233807   6.730   2.114   2.819 -0.2244 -0.2060 -0.5011
 4058TIP3   OH233808   5.874   4.538   7.801 -0.3540  0.3011 -0.2697
 4058TIP3    H133809   5.898   4.629   7.783 -0.2337  0.5527  1.0257
 4058TIP3    H233810   5.932   4.512   7.872 -1.1073 -0.4388  0.0941
 4059TIP3   OH233811   0.819   3.525   8.017  0.0411 -0.2576  0.3061
 4059TIP3    H133812   0.781   3.525   7.929  1.6157 -0.1663 -0.4062
 4059TIP3    H233813   0.794   3.441   8.054  0.6105 -0.9495 -0.8171
 4060TIP3   OH233814   4.826   3.209   1.826 -0.4899  0.3168 -0.2281
 4060TIP3    H133815   4.917   3.192   1.848  0.0386  1.7079 -1.2100
 4060TIP3    H233816   4.801   3.135   1.770 -0.4847 -0.8905  1.3126
 4061TIP3   OH233817   2.781   2.817   6.666  0.2569 -0.3441  0.5754
 4061TIP3    H133818   2.744   2.729   6.670 -0.5115  0.0120  2.5554
 4061TIP3    H233819   2.721   2.867   6.611  0.6522 -0.9955 -0.4870
 4062TIP3   OH233820   5.802   1.116   8.497  0.2890 -0.5321  0.3117
 4062TIP3    H133821   5.894   1.089   8.492 -0.1826 -2.0893 -0.9827
 4062TIP3    H233822   5.800   1.202   8.456  1.4600  0.4819  2.2426
 4063TIP3   OH233823   1.643   1.336   0.477  0.3513  1.0268 -0.3667
 4063TIP3    H133824   1.625   1.373   0.563  0.6245 -0.1333  0.2180
 4063TIP3    H233825   1.737   1.350   0.464  1.5155 -2.9928  1.7688
 4064TIP3   OH233826   6.605   4.586   0.546 -0.0921  0.5856 -0.6699
 4064TIP3    H133827   6.516   4.619   0.560  0.1466  0.7448  0.6722
 4064TIP3    H233828   6.646   4.651   0.489 -0.5965  0.9416 -0.6384
 4065TIP3   OH233829   2.890   4.397   2.300  0.1925  0.0878 -0.1397
 4065TIP3    H133830   2.907   4.476   2.352  2.2642 -0.9755  0.9070
 4065TIP3    H233831   2.860   4.332   2.364  0.2819 -0.4999 -0.6874
 4066TIP3   OH233832   2.925   4.823   0.523  0.0684  0.3140 -0.0630
 4066TIP3    H133833   2.936   4.791   0.433 -1.9245  0.4675 -0.4009
 4066TIP3    H233834   2.898   4.914   0.513  1.4179  0.8286  0.7689
 4067TIP3   OH233835   3.703   4.699   8.865 -0.4239  0.5279 -0.5587
 4067TIP3    H133836   3.727   4.778   8.817  0.2732  1.2238  0.8797
 4067TIP3    H233837   3.756   4.629   8.825 -0.5033  0.9050 -1.3508
 4068TIP3   OH233838   1.873   5.090   0.210 -0.2885  0.5280 -0.0920
 4068TIP3    H133839   1.826   5.166   0.177  0.3131  0.9642  0.0394
 4068TIP3    H233840   1.818   5.016   0.187 -2.3025  1.1703  2.1761
 4069TIP3   OH233841   5.539   4.564   8.684 -0.0682  0.3115 -0.4665
 4069TIP3    H133842   5.563   4.638   8.739  1.9558 -0.3800 -0.3311
 4069TIP3    H233843   5.622   4.534   8.648 -0.8784 -1.7306 -0.7285
 4070TIP3   OH233844   4.702   1.886   0.863 -0.3724  0.2435  0.2917
 4070TIP3    H133845   4.722   1.795   0.889 -0.8412  0.1338  0.2659
 4070TIP3    H233846   4.787   1.922   0.836 -0.5476 -0.9250 -2.0409
 4071TIP3   OH233847   5.369   1.624   2.466  0.0842 -0.4589  0.3393
 4071TIP3    H133848   5.442   1.594   2.519 -0.0927 -0.9306  0.3251
 4071TIP3    H233849   5.390   1.596   2.377 -1.0650 -2.4760  0.6441
 4072TIP3   OH233850   0.119   5.171   7.854  0.2023  0.1288 -0.0985
 4072TIP3    H133851   0.037   5.208   7.821  0.3844  0.1889 -0.4860
 4072TIP3    H233852   0.110   5.174   7.949  0.4925  1.8200 -0.1000
 4073TIP3   OH233853   1.131   4.528   8.057  0.3790 -0.1244 -0.2074
 4073TIP3    H133854   1.066   4.567   7.999  0.7727  0.9326  0.0316
 4073TIP3    H233855   1.110   4.562   8.144  0.2569 -1.0870  0.1462
 4074TIP3   OH233856   5.634   5.746   8.897  0.1074 -0.4962 -0.4069
 4074TIP3    H133857   5.576   5.821   8.906  0.8008  0.0327 -0.2166
 4074TIP3    H233858   5.712   5.781   8.854  0.7313 -0.9430  0.3175
 4075TIP3   OH233859   0.082   1.815   2.467 -0.1115  0.5294  0.4493
 4075TIP3    H133860   0.158   1.873   2.464  0.4315 -0.2010 -1.0130
 4075TIP3    H233861   0.117   1.732   2.497  0.1314 -0.3694 -2.0649
 4076TIP3   OH233862   3.335   4.049   7.118  0.6401 -0.1475  0.5656
 4076TIP3    H133863   3.404   4.017   7.177  0.3977 -0.6911  0.5622
 4076TIP3    H233864   3.353   4.004   7.035 -0.3600 -1.1516  0.8682
 4077TIP3   OH233865   0.587   6.739   8.365 -0.3248  0.5780  0.0885
 4077TIP3    H133866   0.561   6.661   8.316 -0.0879 -0.6679  1.8767
 4077TIP3    H233867   0.574   6.811   8.303 -2.9854 -0.5612 -0.8084
 4078TIP3   OH233868   2.146   4.881   7.826  0.0514  0.0274 -0.7037
 4078TIP3    H133869   2.173   4.932   7.902  0.5125 -0.1940 -0.7145
 4078TIP3    H233870   2.051   4.886   7.827  0.1087  1.7831 -1.3272
 4079TIP3   OH233871   5.994   5.031   0.696 -0.6163 -0.2399 -0.7835
 4079TIP3    H133872   5.938   5.066   0.765  0.3919 -0.7913  0.3461
 4079TIP3    H233873   5.941   4.963   0.654 -0.1559 -2.2166  1.6042
 4080TIP3   OH233874   5.336   6.094   2.313 -0.0343 -0.2644 -0.2383
 4080TIP3    H133875   5.269   6.079   2.246 -0.5516 -1.9236  0.5942
 4080TIP3    H233876   5.398   6.153   2.272 -0.5007 -0.9893 -2.0850
 4081TIP3   OH233877   6.701   6.591   1.971  0.1740  0.0384  0.0373
 4081TIP3    H133878   6.713   6.680   2.006  1.8563 -0.4686  0.8798
 4081TIP3    H233879   6.661   6.542   2.043 -0.5169  0.0388 -0.3396
 4082TIP3   OH233880   6.099   6.646   2.745 -0.0479  0.2424 -0.3790
 4082TIP3    H133881   6.040   6.574   2.767 -0.7037  1.3828  1.9382
 4082TIP3    H233882   6.067   6.679   2.661 -1.4346 -0.4497 -0.1537
 4083TIP3   OH233883   6.799   1.366   1.098  0.2319 -0.4087 -0.0535
 4083TIP3    H133884   6.755   1.447   1.123 -0.6531 -0.2166 -1.9949
 4083TIP3    H233885   6.892   1.385   1.106  0.0236  0.5076  0.3627
 4084TIP3   OH233886   0.329   0.156   0.090 -0.0527 -0.8158 -0.7436
 4084TIP3    H133887   0.306   0.184   0.001 -0.9346  1.2430  0.0682
 4084TIP3    H233888   0.424   0.163   0.093  0.1771 -2.6209 -2.0124
 4085TIP3   OH233889   3.039   0.091   0.911 -0.0895  0.3983 -0.1217
 4085TIP3    H133890   2.945   0.073   0.909 -0.1718  0.9129 -1.1286
 4085TIP3    H233891   3.050   0.153   0.983 -0.2045 -1.2397  1.4087
 4086TIP3   OH233892   2.805   3.649   7.087  0.1158  0.1886 -0.4769
 4086TIP3    H133893   2.826   3.659   7.180 -2.0654  1.7304 -0.0911
 4086TIP3    H233894   2.756   3.567   7.082 -2.9425  1.8339  0.4283
 4087TIP3   OH233895   2.900   4.329   0.922 -0.0712  0.0878  0.0015
 4087TIP3    H133896   2.962   4.261   0.896  1.7038  1.4275  0.5485
 4087TIP3    H233897   2.920   4.346   1.014  0.8389  2.6111 -0.5883
 4088TIP3   OH233898   1.912   1.524   0.037 -0.2832  0.3279 -0.0651
 4088TIP3    H133899   1.832   1.478   0.062  1.5022 -2.2266  1.5437
 4088TIP3    H233900   1.913   1.602   0.092 -0.7768 -0.6223  1.3631
 4089TIP3   OH233901   6.436   0.203   0.340  0.3724 -0.2695 -0.5574
 4089TIP3    H133902   6.380   0.240   0.273  1.8396 -0.4444 -1.9682
 4089TIP3    H233903   6.426   0.108   0.330 -1.3104 -0.3311  1.2133
 4090TIP3   OH233904   4.938   0.791   2.636  0.3396 -0.8438  0.6808
 4090TIP3    H133905   4.978   0.731   2.699 -0.5373 -1.0421  1.0748
 4090TIP3    H233906   4.865   0.741   2.599  0.0707 -0.2899  0.4468
 4091TIP3   OH233907   4.590   6.459   8.412  0.3884  0.4252  0.6002
 4091TIP3    H133908   4.525   6.421   8.472  0.6926  1.2274  1.4517
 4091TIP3    H233909   4.599   6.393   8.343 -2.2789  0.8076 -0.2502
 4092TIP3   OH233910   6.131   4.215   6.620  0.3796 -0.3755  0.5771
 4092TIP3    H133911   6.123   4.160   6.698 -0.6022 -1.3055 -0.1535
 4092TIP3    H233912   6.153   4.153   6.550  1.7475  0.5136  0.1876
 4093TIP3   OH233913   4.203   6.379   7.941 -0.0122 -0.0780 -0.0960
 4093TIP3    H133914   4.123   6.359   7.989 -0.2933  1.9162  0.3557
 4093TIP3    H233915   4.242   6.452   7.989  0.8950  0.4505 -1.5745
 4094TIP3   OH233916   1.458   2.472   7.581 -0.8631  0.5210 -0.1126
 4094TIP3    H133917   1.543   2.510   7.606 -0.1078 -1.0284 -0.2435
 4094TIP3    H233918   1.432   2.521   7.503  0.2360  0.5736 -0.4615
 4095TIP3   OH233919   3.002   2.617   7.008 -0.1764 -0.0734 -0.2048
 4095TIP3    H133920   3.080   2.561   7.002 -0.2167 -0.0718 -0.9277
 4095TIP3    H233921   2.932   2.563   6.971 -1.2769 -1.3148  3.2904
 4096TIP3   OH233922   6.453   1.657   2.437 -0.0565 -1.0043 -0.5653
 4096TIP3    H133923   6.522   1.599   2.403  1.1877  0.6402 -1.0058
 4096TIP3    H233924   6.373   1.625   2.396  0.6652 -2.0714 -1.2097
 4097TIP3   OH233925   4.673   3.531   2.403 -0.8690 -0.2354  0.1188
 4097TIP3    H133926   4.759   3.551   2.441 -0.4960 -1.7073  0.1047
 4097TIP3    H233927   4.632   3.617   2.391 -0.2531  0.3870  2.0892
 4098TIP3   OH233928   2.517   2.156   0.711  0.4417 -0.0068  0.3892
 4098TIP3    H133929   2.497   2.222   0.777  0.2603  1.6332 -1.2046
 4098TIP3    H233930   2.457   2.084   0.730 -0.7150  1.0975  1.0709
 4099TIP3   OH233931   1.846   1.696   1.965  0.0792  0.0452 -0.3281
 4099TIP3    H133932   1.830   1.644   2.044  1.3091 -0.6412 -0.4995
 4099TIP3    H233933   1.845   1.632   1.894  3.0002 -0.0631 -0.3966
 4100TIP3   OH233934   3.533   6.553   6.737  0.6324  0.0229 -0.4459
 4100TIP3    H133935   3.504   6.461   6.735 -1.2235  0.5784 -0.8596
 4100TIP3    H233936   3.463   6.599   6.784  0.8284  1.4669 -1.5180
 4101TIP3   OH233937   0.630   3.575   2.291 -0.0174  0.0008  0.3257
 4101TIP3    H133938   0.622   3.626   2.372  3.4626  0.7452  0.3493
 4101TIP3    H233939   0.685   3.501   2.316 -0.6892 -0.9645 -0.9398
 4102TIP3   OH233940   0.001   4.650   0.997 -0.2248 -0.1366 -0.1431
 4102TIP3    H133941   0.037   4.739   0.990 -0.2862 -0.1687 -0.9104
 4102TIP3    H233942   0.071   4.599   1.039 -1.0853  0.7836  2.6911
 4103TIP3   OH233943   5.590   6.810   2.193 -0.2994 -0.4601  0.3785
 4103TIP3    H133944   5.543   6.887   2.224  0.2595 -0.6682  1.8135
 4103TIP3    H233945   5.678   6.842   2.172 -0.6361 -0.3412 -0.9856
 4104TIP3   OH233946   4.637   0.105   7.091  0.4455 -0.3554  0.1661
 4104TIP3    H133947   4.675   0.019   7.074  0.7366 -0.4668  1.2953
 4104TIP3    H233948   4.705   0.167   7.063  0.1128 -0.4666 -0.9390
 4105TIP3   OH233949   3.382   1.450   1.351 -0.1581  0.1144  0.1137
 4105TIP3    H133950   3.346   1.504   1.281  0.4081  2.2400  1.3762
 4105TIP3    H233951   3.307   1.426   1.405 -0.3586 -0.1116 -0.2538
 4106TIP3   OH233952   0.387   5.893   7.459  0.6551 -0.4087  0.0182
 4106TIP3    H133953   0.341   5.813   7.431 -0.8192  0.0214  1.0583
 4106TIP3    H233954   0.339   5.964   7.417  0.2622  0.0636  1.2210
 4107TIP3   OH233955   3.186   5.385   2.648 -0.1110  0.5321 -0.2304
 4107TIP3    H133956   3.129   5.371   2.573 -0.9982 -1.3923  0.7402
 4107TIP3    H233957   3.135   5.441   2.706  0.4593  1.7762 -0.8889
 4108TIP3   OH233958   4.751   1.140   8.021  0.1793 -0.5073 -0.4276
 4108TIP3    H133959   4.676   1.127   7.964 -0.5954  1.1098  0.1748
 4108TIP3    H233960   4.781   1.228   8.001  0.1911 -0.0948  1.3042
 4109TIP3   OH233961   1.823   0.905   7.896  0.0575  0.4203  0.0834
 4109TIP3    H133962   1.776   0.964   7.955 -0.1159  1.9090 -1.4471
 4109TIP3    H233963   1.811   0.944   7.809 -0.1896 -1.9827 -1.0509
 4110TIP3   OH233964   4.526   6.135   2.653  0.1556 -0.4983 -0.3133
 4110TIP3    H133965   4.433   6.133   2.675  0.1678 -1.2818 -0.3048
 4110TIP3    H233966   4.567   6.180   2.727 -0.0520 -1.3607  0.3321
 4111TIP3   OH233967   4.099   0.498   7.445  0.1666 -0.4126  0.0371
 4111TIP3    H133968   4.034   0.553   7.402  1.7415  0.9365 -0.7109
 4111TIP3    H233969   4.085   0.411   7.406 -1.4281 -0.2632  0.2043
 4112TIP3   OH233970   4.723   6.578   0.586  0.1636  1.0692  0.1356
 4112TIP3    H133971   4.806   6.610   0.548  0.7451 -0.5207 -0.0071
 4112TIP3    H233972   4.732   6.483   0.586 -1.5514  0.8767  0.4287
 4113TIP3   OH233973   6.759   0.980   8.303 -0.1429  0.2836 -0.3543
 4113TIP3    H133974   6.810   0.973   8.222 -0.2786 -0.7758 -0.3548
 4113TIP3    H233975   6.729   1.071   8.304 -0.5370  0.1924 -1.7429
 4114TIP3   OH233976   4.830   3.553   1.725 -0.2885  0.1536 -0.1281
 4114TIP3    H133977   4.829   3.481   1.663  1.9228 -0.6411  0.6610
 4114TIP3    H233978   4.789   3.518   1.804 -0.0291  0.0272 -0.0457
 4115TIP3   OH233979   3.837   2.636   8.277 -0.2701  0.8330  0.1714
 4115TIP3    H133980   3.846   2.557   8.330 -0.5734  1.6253  1.4552
 4115TIP3    H233981   3.839   2.605   8.187  0.4866 -0.5347  0.6363
 4116TIP3   OH233982   4.688   0.572   0.300  0.1781 -0.1920 -0.2933
 4116TIP3    H133983   4.656   0.519   0.373  0.4042  1.3392  0.9697
 4116TIP3    H233984   4.782   0.559   0.299  0.3810  1.0530  0.7718
 4117TIP3   OH233985   5.961   5.451   0.676 -0.1023 -0.1272 -0.7520
 4117TIP3    H133986   5.963   5.475   0.583 -0.5136 -0.5807 -0.8842
 4117TIP3    H233987   6.018   5.375   0.683 -1.5800 -1.3200 -1.0180
 4118TIP3   OH233988   5.873   1.366   7.253 -0.4922 -0.0173  0.1460
 4118TIP3    H133989   5.939   1.354   7.322 -0.5402 -0.5516  0.1029
 4118TIP3    H233990   5.796   1.320   7.286  0.5044 -3.4424 -1.7527
 4119TIP3   OH233991   6.497   4.329   7.175 -0.5572 -0.1517  0.5109
 4119TIP3    H133992   6.507   4.289   7.089 -0.8536 -3.0007  1.6770
 4119TIP3    H233993   6.404   4.319   7.195 -0.6150  1.0726  0.9327
 4120TIP3   OH233994   5.440   2.188   0.739 -0.3333 -0.0910 -0.0959
 4120TIP3    H133995   5.381   2.125   0.781 -1.2757  0.7868 -0.0646
 4120TIP3    H233996   5.469   2.145   0.659 -0.7540 -0.6710  0.0593
 4121TIP3   OH233997   2.541   5.752   8.210  0.0933  0.0300 -0.2065
 4121TIP3    H133998   2.551   5.659   8.188 -2.4859 -0.1005 -1.1136
 4121TIP3    H233999   2.538   5.754   8.306 -1.2841 -1.0368 -0.1990
 4122TIP3   OH234000   1.603   0.459   7.415 -0.3385  0.2641 -0.7014
 4122TIP3    H134001   1.623   0.371   7.448  0.0862  0.8826  0.7876
 4122TIP3    H234002   1.536   0.445   7.349 -0.7067 -1.1341 -0.0742
 4123TIP3   OH234003   6.549   5.961   0.423 -0.3070  0.4926 -0.5622
 4123TIP3    H134004   6.626   6.017   0.409 -1.0826  2.2265  1.6024
 4123TIP3    H234005   6.479   6.002   0.372 -0.7658  1.2455  0.6609
 4124TIP3   OH234006   1.559   3.073   0.731  1.0329  0.0057  0.4825
 4124TIP3    H134007   1.509   2.997   0.701  0.8524 -0.4040  1.7417
 4124TIP3    H234008   1.547   3.139   0.663 -0.7858 -0.2858  0.4721
 4125TIP3   OH234009   2.151   0.934   0.816 -0.2280 -0.0870 -0.1890
 4125TIP3    H134010   2.095   0.947   0.740  0.9482  1.1454 -0.8883
 4125TIP3    H234011   2.238   0.919   0.779  0.2710  0.0103  0.9048
 4126TIP3   OH234012   5.070   4.991   8.827  0.1029 -0.2385 -0.4085
 4126TIP3    H134013   5.033   4.938   8.897  1.0188 -0.7953 -0.3243
 4126TIP3    H234014   5.148   5.032   8.867 -0.3664  0.8642 -0.5853
 4127TIP3   OH234015   2.096   4.638   1.869  0.6141  0.1002 -0.3006
 4127TIP3    H134016   2.149   4.709   1.905  2.3560 -1.4173  0.3447
 4127TIP3    H234017   2.110   4.565   1.930 -3.4017 -0.0675  0.7081
 4128TIP3   OH234018   0.595   4.478   1.571 -0.5088 -0.2281 -0.2083
 4128TIP3    H134019   0.669   4.487   1.511  0.0703 -0.2044  0.4960
 4128TIP3    H234020   0.614   4.540   1.641 -2.7728  2.2015 -1.5572
 4129TIP3   OH234021   5.466   5.086   8.697 -0.4392  0.1697 -0.0621
 4129TIP3    H134022   5.492   5.015   8.755  1.4291  1.5811  0.9331
 4129TIP3    H234023   5.439   5.043   8.616  0.5611 -1.6655  0.5392
 4130TIP3   OH234024   5.709   6.431   7.072 -1.0416  0.3549 -0.3959
 4130TIP3    H134025   5.643   6.464   7.012  0.1259  1.2134 -1.2655
 4130TIP3    H234026   5.781   6.493   7.065 -0.9902  0.7196  2.2060
 4131TIP3   OH234027   2.456   1.563   0.769 -0.0849  0.0812 -0.8603
 4131TIP3    H134028   2.503   1.481   0.787  0.8253  0.7793  0.0314
 4131TIP3    H234029   2.401   1.577   0.846  1.7111  1.6186  0.2363
 4132TIP3   OH234030   6.036   4.587   0.030  0.4169  0.4205 -0.6212
 4132TIP3    H134031   6.112   4.629   0.071 -0.6882  1.0365  0.8852
 4132TIP3    H234032   6.072   4.541  -0.046  2.4303 -0.0153  0.5243
 4133TIP3   OH234033   4.581   2.298   0.962  0.1539 -0.1678 -0.2392
 4133TIP3    H134034   4.586   2.329   0.872  1.3769  0.1595 -0.0737
 4133TIP3    H234035   4.537   2.213   0.956 -1.5041  0.6962 -0.9122
 4134TIP3   OH234036   4.737   1.646   1.883  0.2209  0.5581  0.4693
 4134TIP3    H134037   4.768   1.625   1.971  1.6164  0.0910 -0.1055
 4134TIP3    H234038   4.679   1.573   1.861  0.0207  0.5763  0.9196
 4135TIP3   OH234039   1.239   1.619   8.139 -0.6882 -0.7931  0.1866
 4135TIP3    H134040   1.192   1.683   8.194  0.0317  0.1930 -0.3124
 4135TIP3    H234041   1.255   1.545   8.197  1.5397  0.8877  1.8731
 4136TIP3   OH234042   1.319   2.185   2.076  0.0649  0.4630 -0.0667
 4136TIP3    H134043   1.259   2.143   2.138  0.3237  4.0569  2.9406
 4136TIP3    H234044   1.406   2.171   2.114  0.3452  1.6747 -0.2280
 4137TIP3   OH234045   2.394   2.763   1.996 -0.3383 -0.0795  0.0096
 4137TIP3    H134046   2.398   2.836   1.933  1.9632  2.0941  2.4431
 4137TIP3    H234047   2.317   2.782   2.050 -0.1262  0.1511  0.2276
 4138TIP3   OH234048   6.192   6.247   1.045 -0.4679  0.0627  0.3043
 4138TIP3    H134049   6.277   6.207   1.026 -1.3952 -2.4555  1.0838
 4138TIP3    H234050   6.197   6.334   1.004  2.1919 -0.2761 -0.2782
 4139TIP3   OH234051   4.591   2.056   7.635  0.1431  0.1726 -0.5954
 4139TIP3    H134052   4.662   2.000   7.607  0.1626  0.6077 -1.4718
 4139TIP3    H234053   4.541   2.074   7.555 -1.2593 -0.5415  0.0722
 4140TIP3   OH234054   1.397   2.231   2.713  0.5105 -0.2550  0.0087
 4140TIP3    H134055   1.385   2.143   2.750 -0.1845  0.2028  0.8948
 4140TIP3    H234056   1.308   2.267   2.707  0.7033  0.0698 -1.1790
 4141TIP3   OH234057   0.123   1.440   6.791  0.1076  0.1068  0.3088
 4141TIP3    H134058   0.086   1.437   6.879  0.8777  1.7658  0.7245
 4141TIP3    H234059   0.050   1.466   6.735 -0.6670 -2.0304  0.2338
 4142TIP3   OH234060   4.501   0.740   8.451  0.9571  0.1907 -0.5824
 4142TIP3    H134061   4.420   0.718   8.406  1.2012 -1.7478 -0.2023
 4142TIP3    H234062   4.551   0.792   8.388 -0.4755  1.2441 -0.8846
 4143TIP3   OH234063   2.680   1.815   0.384 -0.0523  1.0089  0.1739
 4143TIP3    H134064   2.729   1.741   0.348 -1.2873  0.0277  0.4649
 4143TIP3    H234065   2.609   1.775   0.433 -0.2669  2.3899  1.0296
 4144TIP3   OH234066   4.181   5.919   7.197 -0.0629 -0.3179  0.0761
 4144TIP3    H134067   4.268   5.952   7.178 -0.6153  0.1559 -1.8209
 4144TIP3    H234068   4.137   5.991   7.242 -0.0134  0.0923 -0.5212
 4145TIP3   OH234069   0.622   6.074   1.023 -0.2746 -0.4306 -0.1397
 4145TIP3    H134070   0.584   6.162   1.017 -0.3645 -0.4374  0.2632
 4145TIP3    H234071   0.624   6.055   1.117  5.5087  1.6617  0.5524
 4146TIP3   OH234072   0.629   5.609   1.320  0.0579 -0.3351  0.3780
 4146TIP3    H134073   0.719   5.635   1.301  0.1389  0.2766  1.5254
 4146TIP3    H234074   0.599   5.567   1.239  1.0437  0.3275 -0.3595
 4147TIP3   OH234075   1.911   4.096   7.236  0.3883  0.1988  0.4232
 4147TIP3    H134076   1.909   4.114   7.142 -0.2831  0.8051  0.5439
 4147TIP3    H234077   1.851   4.160   7.274 -0.7364 -1.1960  1.0808
 4148TIP3   OH234078   0.946   3.003   0.424 -0.1563 -0.3648 -0.6163
 4148TIP3    H134079   0.993   3.056   0.488  0.6276 -1.0518 -0.6060
 4148TIP3    H234080   0.989   2.918   0.428 -0.8355 -0.7435 -1.2514
 4149TIP3   OH234081   3.623   1.122   7.769  0.1367  0.0367 -0.0391
 4149TIP3    H134082   3.676   1.164   7.837  2.4402 -0.6796 -1.3149
 4149TIP3    H234083   3.568   1.060   7.817  0.9313  0.3094  1.2845
 4150TIP3   OH234084   1.689   2.827   7.736  0.1744  0.2380  0.4361
 4150TIP3    H134085   1.599   2.816   7.765  0.3629  1.5060  1.6477
 4150TIP3    H234086   1.699   2.766   7.663 -1.8279  0.4928 -0.1048
 4151TIP3   OH234087   2.116   3.964   8.312 -0.2441  0.1610 -0.3502
 4151TIP3    H134088   2.081   3.916   8.237  0.4534  1.2816 -1.4320
 4151TIP3    H234089   2.197   3.918   8.335  0.2005  0.5430 -1.1101
 4152TIP3   OH234090   3.937   6.420   8.550  0.5572 -0.0468  0.0528
 4152TIP3    H134091   3.927   6.402   8.643  0.3216 -1.1141 -0.1727
 4152TIP3    H234092   3.877   6.492   8.533 -2.1390 -2.1727  0.0108
 4153TIP3   OH234093   1.009   0.854   1.370 -0.4426 -0.0673  0.1778
 4153TIP3    H134094   1.082   0.803   1.406 -0.4949  0.4568  1.0684
 4153TIP3    H234095   1.045   0.895   1.292 -0.0089 -0.4207  0.1856
 4154TIP3   OH234096   2.518   4.001   7.355  0.4960 -0.5178 -0.0698
 4154TIP3    H134097   2.532   4.089   7.391  1.5731 -0.7142  0.0490
 4154TIP3    H234098   2.595   3.952   7.384  1.0743 -0.8812 -2.0610
 4155TIP3   OH234099   5.783   0.315   1.712  0.0798  0.2512  0.5847
 4155TIP3    H134100   5.870   0.275   1.713  1.2851  2.3390 -2.9379
 4155TIP3    H234101   5.798   0.407   1.734 -1.4586  0.4377  1.0099
 4156TIP3   OH234102   4.214   3.904   7.618 -0.2442 -0.5744 -0.5006
 4156TIP3    H134103   4.249   3.858   7.695  1.6685 -1.7555 -2.0140
 4156TIP3    H234104   4.148   3.964   7.655  1.9610  0.3656  2.2981
 4157TIP3   OH234105   1.471   2.559   7.947  0.2969 -0.1588 -0.1799
 4157TIP3    H134106   1.555   2.573   7.990  0.7238  0.6635 -1.2412
 4157TIP3    H234107   1.414   2.524   8.016  0.8409  1.5007  1.1929
 4158TIP3   OH234108   3.572   1.672   8.686 -0.4515  0.2872 -0.1371
 4158TIP3    H134109   3.562   1.679   8.591  3.4577  1.8899 -0.6457
 4158TIP3    H234110   3.662   1.641   8.697 -0.5931  0.7381  3.0591
 4159TIP3   OH234111   5.002   4.191   7.922 -0.6024 -0.3666  0.1547
 4159TIP3    H134112   4.982   4.121   7.859  0.8085  0.1738 -0.9557
 4159TIP3    H234113   4.923   4.198   7.976 -1.2285 -1.9868 -0.4820
 4160TIP3   OH234114   5.740   4.783   0.836  0.4193 -0.4389  0.2261
 4160TIP3    H134115   5.754   4.762   0.928  1.3206 -0.2690  0.1293
 4160TIP3    H234116   5.796   4.723   0.788  1.4989  0.8075 -0.1262
 4161TIP3   OH234117   5.105   4.616   2.335 -0.4093 -0.5646  0.1734
 4161TIP3    H134118   5.049   4.544   2.364 -0.5209 -0.0583  1.2656
 4161TIP3    H234119   5.050   4.694   2.344  0.0704 -0.2092  0.0682
 4162TIP3   OH234120   6.675   2.264   1.876 -0.3680 -0.5326 -0.2001
 4162TIP3    H134121   6.710   2.241   1.962 -0.5477  0.4527  0.1529
 4162TIP3    H234122   6.739   2.229   1.814 -0.0926 -1.0085  0.3432
 4163TIP3   OH234123   4.564   5.974   1.257  0.3785 -0.0655  0.0241
 4163TIP3    H134124   4.571   6.068   1.241 -0.5250 -0.0677 -0.5003
 4163TIP3    H234125   4.489   5.965   1.315  0.2175 -0.4862 -0.2437
 4164TIP3   OH234126   3.728   6.628   1.428  0.1534 -0.4465  0.3730
 4164TIP3    H134127   3.755   6.689   1.497  0.4365 -0.7150  0.5064
 4164TIP3    H234128   3.659   6.575   1.469 -0.2471 -0.0664  0.1843
 4165TIP3   OH234129   6.474   3.356   7.574  0.2262 -0.5404 -0.0293
 4165TIP3    H134130   6.556   3.405   7.576  0.8336 -1.5344  1.2141
 4165TIP3    H234131   6.486   3.291   7.504  0.1049 -0.0466 -0.5101
 4166TIP3   OH234132   2.668   4.746   0.396 -0.1604  0.1660 -0.4237
 4166TIP3    H134133   2.674   4.662   0.352 -1.4952  0.7947 -1.9179
 4166TIP3    H234134   2.629   4.726   0.481 -2.2603 -0.5599 -1.4852
 4167TIP3   OH234135   6.215   1.299   2.336  0.1792  0.4508  0.4805
 4167TIP3    H134136   6.222   1.227   2.398  0.5132  0.1472  0.0905
 4167TIP3    H234137   6.288   1.286   2.275 -0.8829  0.0379 -0.7215
 4168TIP3   OH234138   2.162   2.734   0.186  0.6105  0.3310 -0.1750
 4168TIP3    H134139   2.122   2.648   0.200 -1.8824  1.3990 -0.1717
 4168TIP3    H234140   2.227   2.742   0.256 -1.0204 -0.5138  1.5483
 4169TIP3   OH234141   5.009   6.577   1.280 -0.4407 -0.4391  0.4163
 4169TIP3    H134142   4.994   6.670   1.299 -3.0099 -0.4477 -1.1855
 4169TIP3    H234143   5.051   6.543   1.360  0.3799  2.0190  1.1096
 4170TIP3   OH234144   0.315   4.082   6.820 -0.2447 -0.4569 -0.1001
 4170TIP3    H134145   0.280   4.063   6.732  1.4078  0.6394 -1.0313
 4170TIP3    H234146   0.360   4.001   6.845 -1.1120 -0.9377 -0.0301
 4171TIP3   OH234147   2.057   3.994   7.649 -0.8482 -0.0575  0.0262
 4171TIP3    H134148   2.014   3.990   7.735 -0.9471 -0.9449 -0.0613
 4171TIP3    H234149   2.087   3.905   7.633  1.2273  0.5480  0.1813
 4172TIP3   OH234150   5.056   2.815   8.505 -0.3925 -0.4633  0.6444
 4172TIP3    H134151   4.993   2.866   8.557  2.2031  2.0575  1.6231
 4172TIP3    H234152   5.071   2.868   8.427  0.5785 -0.9484  0.4836
 4173TIP3   OH234153   6.772   1.819   1.090 -0.0247 -0.3615 -0.3480
 4173TIP3    H134154   6.847   1.858   1.135  0.1355  1.1165 -1.7913
 4173TIP3    H234155   6.701   1.881   1.104 -1.7110 -2.7342  2.7983
 4174TIP3   OH234156   2.850   3.592   8.670  0.2761  0.1671  0.5744
 4174TIP3    H134157   2.851   3.674   8.620 -0.1430  0.0961  0.4432
 4174TIP3    H234158   2.759   3.564   8.667  0.7901 -1.6194 -1.5712
 4175TIP3   OH234159   4.891   2.965   2.310 -0.6649  0.3005 -0.1185
 4175TIP3    H134160   4.976   2.924   2.299  0.9119  3.5053 -1.1032
 4175TIP3    H234161   4.892   2.998   2.400 -0.8570  0.3284 -0.1262
 4176TIP3   OH234162   4.332   0.226   1.863  0.0089  0.0394 -0.5414
 4176TIP3    H134163   4.287   0.307   1.837 -0.0106  0.0793 -0.3812
 4176TIP3    H234164   4.289   0.198   1.943  0.4954  0.2687 -0.1943
 4177TIP3   OH234165   3.177   4.404   1.695  0.2254  0.0782 -0.1731
 4177TIP3    H134166   3.083   4.423   1.703  0.0432 -0.5955 -0.5867
 4177TIP3    H234167   3.206   4.388   1.785 -0.2719 -0.6306 -0.1229
 4178TIP3   OH234168   0.569   5.589   8.123 -0.0440 -0.2559 -0.3162
 4178TIP3    H134169   0.592   5.613   8.034 -0.5737 -2.4067 -1.0798
 4178TIP3    H234170   0.537   5.499   8.117 -0.0563 -0.4816  2.0498
 4179TIP3   OH234171   2.366   6.524   1.415 -1.1113  0.2228 -0.4963
 4179TIP3    H134172   2.387   6.438   1.380  3.3742  0.6605  0.4742
 4179TIP3    H234173   2.395   6.585   1.347 -0.2076  0.9607  0.5198
 4180TIP3   OH234174   1.286   3.883   2.356  0.5784  0.1620  0.2072
 4180TIP3    H134175   1.278   3.915   2.446  0.4668  1.4415 -0.2442
 4180TIP3    H234176   1.204   3.837   2.340  0.1348  0.8802  0.3914
 4181TIP3   OH234177   0.845   3.797   1.271  0.6475  0.3712  0.1602
 4181TIP3    H134178   0.929   3.751   1.279  0.6532 -0.2608 -2.5354
 4181TIP3    H234179   0.784   3.730   1.239 -0.7732  0.9746  1.4893
 4182TIP3   OH234180   4.732   0.176   8.262  0.5691 -0.4401 -0.9356
 4182TIP3    H134181   4.640   0.199   8.248  1.1052  1.5066 -1.4991
 4182TIP3    H234182   4.731   0.122   8.342 -0.9220  0.5485 -0.2403
 4183TIP3   OH234183   0.022   3.126   7.548 -0.5793  0.4128 -0.2557
 4183TIP3    H134184  -0.026   3.050   7.581  1.0816 -0.5126  0.1962
 4183TIP3    H234185   0.013   3.120   7.453  2.0793 -2.2993 -0.5122
 4184TIP3   OH234186   2.531   3.455   1.436 -0.4927  0.7230 -0.1498
 4184TIP3    H134187   2.566   3.449   1.525 -1.0643  2.1378  0.2049
 4184TIP3    H234188   2.568   3.537   1.402 -1.4633  0.9591 -0.6608
 4185TIP3   OH234189   4.876   2.128   0.974 -0.0255  0.3569 -0.5789
 4185TIP3    H134190   4.913   2.214   0.949  1.5168  0.2646  1.2074
 4185TIP3    H234191   4.784   2.147   0.993 -0.0600  1.3308 -1.5488
 4186TIP3   OH234192   6.230   6.798   8.517 -0.7752  0.0858  0.2770
 4186TIP3    H134193   6.229   6.724   8.577 -0.1445 -1.2209 -1.2369
 4186TIP3    H234194   6.200   6.762   8.434  0.0446  1.4025 -0.6283
 4187TIP3   OH234195   4.166   4.012   7.107  0.0077  0.5170 -0.0125
 4187TIP3    H134196   4.199   3.943   7.164 -0.4326  0.4962  0.2186
 4187TIP3    H234197   4.235   4.025   7.042  0.3518  0.2832  0.3051
 4188TIP3   OH234198   2.843   2.417   8.580  0.0637 -0.6367 -0.2151
 4188TIP3    H134199   2.767   2.384   8.531  0.0839 -0.8620 -0.0971
 4188TIP3    H234200   2.909   2.348   8.571  0.0712 -0.6759  0.1188
 4189TIP3   OH234201   4.349   4.752   7.751  0.2145 -0.3740 -0.0720
 4189TIP3    H134202   4.254   4.749   7.760  0.2757  0.2774  0.8496
 4189TIP3    H234203   4.376   4.660   7.755 -0.5187 -0.7583 -2.3469
 4190TIP3   OH234204   2.517   2.965   0.540  0.1825  0.2796 -0.1121
 4190TIP3    H134205   2.449   2.904   0.570 -0.6072 -0.9726 -3.9681
 4190TIP3    H234206   2.598   2.932   0.578 -0.4132 -2.4598 -1.0386
 4191TIP3   OH234207   1.743   3.799   2.046 -1.2423 -0.6574 -0.2998
 4191TIP3    H134208   1.801   3.867   2.013 -3.3685  1.7396  0.6390
 4191TIP3    H234209   1.793   3.758   2.117 -0.0730  0.1872 -0.6035
 4192TIP3   OH234210   4.151   2.790   8.849  0.0047  0.1480 -0.3128
 4192TIP3    H134211   4.202   2.859   8.805 -0.2814  0.5230 -0.0554
 4192TIP3    H234212   4.118   2.736   8.777 -0.4605  0.7597 -0.5700
 4193TIP3   OH234213   0.250   0.032   7.590 -0.1508 -0.0190  0.7385
 4193TIP3    H134214   0.306  -0.043   7.572 -0.3315  0.0211 -0.0278
 4193TIP3    H234215   0.276   0.062   7.677  0.2840 -0.6462  0.8247
 4194TIP3   OH234216   1.550   0.047   0.596  0.1573  0.0258  0.1275
 4194TIP3    H134217   1.462   0.049   0.559  1.0348  0.0748 -2.1691
 4194TIP3    H234218   1.569  -0.045   0.611 -0.5429  0.0707  1.3815
 4195TIP3   OH234219   1.202   0.348   8.410  0.3752  0.2759  0.8150
 4195TIP3    H134220   1.257   0.393   8.475  0.8576  1.2466 -0.2232
 4195TIP3    H234221   1.250   0.358   8.328 -2.0879  2.6540 -0.4864
 4196TIP3   OH234222   3.074   3.924   0.414 -0.2026  0.4359  0.4868
 4196TIP3    H134223   3.155   3.972   0.432  1.0244  0.0285 -3.0033
 4196TIP3    H234224   3.064   3.930   0.319 -1.6297 -3.5484  0.1946
 4197TIP3   OH234225   6.749   1.629   2.735 -0.2817  0.5600 -0.3101
 4197TIP3    H134226   6.774   1.617   2.827 -1.1565 -0.2578 -0.1671
 4197TIP3    H234227   6.723   1.721   2.730  0.1191  0.7051  0.1751
 4198TIP3   OH234228   0.399   4.674   1.112 -0.0917 -0.0866  0.2642
 4198TIP3    H134229   0.361   4.653   1.027  1.1510 -1.5761  0.0489
 4198TIP3    H234230   0.404   4.591   1.158  0.8660  0.4266  1.1287
 4199TIP3   OH234231   3.794   4.762   1.694 -0.4530  0.2666 -0.0666
 4199TIP3    H134232   3.839   4.812   1.762 -1.2087  2.1039 -0.8543
 4199TIP3    H234233   3.751   4.828   1.640 -1.9219 -1.2802 -0.8832
 4200TIP3   OH234234   5.472   1.694   1.155 -0.4699 -0.3517  0.1696
 4200TIP3    H134235   5.553   1.696   1.105 -1.9397 -2.0695 -2.4870
 4200TIP3    H234236   5.459   1.785   1.183  1.6108  0.2082 -0.5458
 4201TIP3   OH234237   4.232   3.265   1.878  0.2929  0.0678 -0.6931
 4201TIP3    H134238   4.137   3.276   1.869  0.2711  0.5087  0.0117
 4201TIP3    H234239   4.262   3.347   1.919  0.6249 -1.0293  1.4082
 4202TIP3   OH234240   4.651   1.640   2.405 -0.4192 -0.5397 -0.2498
 4202TIP3    H134241   4.705   1.706   2.448 -2.4772  1.8044 -0.9687
 4202TIP3    H234242   4.695   1.557   2.422  2.6915  1.0608  0.1419
 4203TIP3   OH234243   5.446   6.140   0.610 -0.4806 -0.3230 -0.1035
 4203TIP3    H134244   5.406   6.074   0.666 -0.0666 -0.3453  0.1762
 4203TIP3    H234245   5.509   6.184   0.667  0.5917 -0.9352 -0.7877
 4204TIP3   OH234246   4.325   1.264   1.606  0.1183 -0.0520  0.4093
 4204TIP3    H134247   4.406   1.257   1.555  0.0492 -1.2188  0.4450
 4204TIP3    H234248   4.352   1.306   1.687  0.2990  1.4728 -0.3975
 4205TIP3   OH234249   2.042   4.393   8.404 -0.0559  0.1043 -0.1698
 4205TIP3    H134250   1.997   4.463   8.357 -1.1089  0.4773  1.3193
 4205TIP3    H234251   2.132   4.424   8.414 -0.1923  0.6644 -0.6625
 4206TIP3   OH234252   0.986   4.992   1.739  0.0721 -0.4010 -0.2703
 4206TIP3    H134253   0.937   5.047   1.799 -0.4698 -0.2049 -0.8811
 4206TIP3    H234254   0.986   5.041   1.656  0.7481 -0.6943 -0.4504
 4207TIP3   OH234255   4.863   1.584   7.290  0.1961  0.2947 -0.1725
 4207TIP3    H134256   4.901   1.617   7.371 -0.6898 -0.5791  0.6213
 4207TIP3    H234257   4.838   1.662   7.241  0.7239  0.8258  0.3913
 4208TIP3   OH234258   0.929   0.617   0.273 -0.3298  0.7916  0.3457
 4208TIP3    H134259   0.854   0.654   0.226 -1.4159 -1.6974 -0.0809
 4208TIP3    H234260   0.970   0.557   0.210  0.3362  0.0528  1.4422
 4209TIP3   OH234261   1.704   2.228   6.968  0.2204 -0.2025  0.6021
 4209TIP3    H134262   1.630   2.180   6.929 -0.4939  0.8902  0.5816
 4209TIP3    H234263   1.692   2.318   6.938  0.1108  0.5144  2.6662
 4210TIP3   OH234264   6.133   5.546   0.898 -0.3562  0.1296 -0.3203
 4210TIP3    H134265   6.189   5.499   0.837  0.0374  3.1804 -2.5851
 4210TIP3    H234266   6.180   5.545   0.981  0.3671 -1.9683 -0.7124
 4211TIP3   OH234267   2.733   4.938   0.737 -0.0099  0.1699 -0.2468
 4211TIP3    H134268   2.739   4.844   0.725  0.1631  0.0331  0.7990
 4211TIP3    H234269   2.750   4.975   0.650 -0.6783 -0.7748 -0.7974
 4212TIP3   OH234270   1.629   2.021   0.868 -0.1301 -0.0079 -0.4162
 4212TIP3    H134271   1.713   2.014   0.913  0.4109 -1.7228 -1.6034
 4212TIP3    H234272   1.572   1.961   0.915 -0.6614  0.9655  0.2294
 4213TIP3   OH234273   5.329   1.004   2.978  0.1781  0.7457 -0.6892
 4213TIP3    H134274   5.384   0.959   2.915  0.6004 -0.1863  0.3053
 4213TIP3    H234275   5.390   1.057   3.030  0.0179  0.5112 -0.2504
 4214TIP3   OH234276   6.679   2.351   1.195  0.2301 -0.1094 -0.1169
 4214TIP3    H134277   6.659   2.407   1.121  2.7114 -0.3606 -1.0870
 4214TIP3    H234278   6.749   2.293   1.164  0.0103 -1.5556  1.8360
 4215TIP3   OH234279   6.369   2.758   8.212 -0.4013  0.1103  0.5018
 4215TIP3    H134280   6.311   2.835   8.211 -1.1909 -0.4649  0.8202
 4215TIP3    H234281   6.457   2.795   8.204 -0.8454  0.9561 -0.8203
 4216TIP3   OH234282   1.872   6.520   0.969 -0.3658  0.4828  0.0411
 4216TIP3    H134283   1.805   6.588   0.973  0.2873  1.2003 -0.7145
 4216TIP3    H234284   1.900   6.519   0.878  0.1016 -0.3546  0.1785
 4217TIP3   OH234285   0.778   1.168   1.724  0.0340  0.4255  0.3556
 4217TIP3    H134286   0.838   1.093   1.729 -1.2496 -0.7560 -1.0146
 4217TIP3    H234287   0.819   1.235   1.778  1.8804 -0.8174  0.5876
 4218TIP3   OH234288   6.340   5.259   7.643  0.2525 -0.1187  0.0126
 4218TIP3    H134289   6.356   5.238   7.551 -0.1022  0.0768 -0.0926
 4218TIP3    H234290   6.383   5.344   7.656 -1.9936  1.1901 -0.6784
 4219TIP3   OH234291   4.594   1.015   7.829 -0.8773 -0.4413 -0.4117
 4219TIP3    H134292   4.500   1.033   7.831 -0.7011  0.9855  3.3214
 4219TIP3    H234293   4.601   0.926   7.864 -0.8472  0.3359  1.7374
 4220TIP3   OH234294   0.965   2.141   1.048 -0.4356 -0.4338 -0.1561
 4220TIP3    H134295   0.904   2.214   1.054 -4.0025 -3.1497  0.3531
 4220TIP3    H234296   0.948   2.102   0.962  0.3045 -1.5148  0.1575
 4221TIP3   OH234297   1.222   5.902   7.883 -0.0804 -0.0229 -0.0242
 4221TIP3    H134298   1.165   5.979   7.885  0.5214  0.6041 -2.6022
 4221TIP3    H234299   1.306   5.934   7.916 -0.4381 -0.1995  1.0815
 4222TIP3   OH234300   3.449   4.043   7.519 -0.6573  0.0546 -0.1561
 4222TIP3    H134301   3.491   3.959   7.502 -1.2650 -0.2067 -0.3827
 4222TIP3    H234302   3.507   4.107   7.477 -0.7521 -0.3512 -0.9303
 4223TIP3   OH234303   4.175   0.436   1.814 -0.3337 -0.0125 -0.3269
 4223TIP3    H134304   4.164   0.425   1.719 -0.3056  1.0262 -0.4638
 4223TIP3    H234305   4.092   0.408   1.851 -0.1000 -1.0902 -0.5994
 4224TIP3   OH234306   6.298   0.583   8.108 -0.1862  0.3765 -0.1204
 4224TIP3    H134307   6.363   0.526   8.069  0.2950  0.3070  0.7440
 4224TIP3    H234308   6.218   0.566   8.060 -0.2253 -1.5402  0.5523
 4225TIP3   OH234309   0.358   5.720   7.194  0.6227  0.1166  0.0926
 4225TIP3    H134310   0.413   5.665   7.140  1.2396 -0.7152  1.5074
 4225TIP3    H234311   0.288   5.662   7.225 -1.6707  1.3343 -2.3694
 4226TIP3   OH234312   0.785   6.075   7.387  0.2474  0.8061  0.2580
 4226TIP3    H134313   0.698   6.092   7.351 -1.2109  0.2092  3.1687
 4226TIP3    H234314   0.825   6.014   7.326 -2.8158 -1.7316  0.5264
 4227TIP3   OH234315   2.458   0.200   0.545 -0.0555  0.2846  0.1434
 4227TIP3    H134316   2.383   0.150   0.513  0.6014  0.3711 -1.6913
 4227TIP3    H234317   2.514   0.210   0.468  2.2087 -0.3980  1.5792
 4228TIP3   OH234318   5.685   5.252   0.239 -0.2095  0.2395  0.2761
 4228TIP3    H134319   5.716   5.266   0.149 -0.0042 -1.2354  0.0893
 4228TIP3    H234320   5.639   5.333   0.262 -2.7011 -0.3425 -2.1589
 4229TIP3   OH234321   3.195   2.302   7.703  0.3221  0.0658  0.3302
 4229TIP3    H134322   3.198   2.391   7.736 -0.1867  0.7753 -1.4338
 4229TIP3    H234323   3.219   2.309   7.611 -0.1440 -1.5586  0.0434
 4230TIP3   OH234324   2.084   0.985   7.284  0.0094 -0.4154 -0.7908
 4230TIP3    H134325   2.076   0.890   7.296  1.4968 -0.5364 -0.5929
 4230TIP3    H234326   2.079   1.020   7.373  1.3730 -0.4882 -0.6693
 4231TIP3   OH234327   4.932   0.957   8.252  0.4199  0.0135  0.1073
 4231TIP3    H134328   4.847   0.999   8.240 -0.1408 -0.8599  0.9134
 4231TIP3    H234329   4.969   0.951   8.164 -0.5689 -0.0444 -0.3119
 4232TIP3   OH234330   6.203   2.226   7.614  0.0059 -0.5087 -0.2285
 4232TIP3    H134331   6.274   2.227   7.679  1.4180 -0.3254 -1.7108
 4232TIP3    H234332   6.233   2.166   7.546 -0.4779  0.8525 -1.7061
 4233TIP3   OH234333   6.505   1.993   8.771 -0.3141 -0.4994  0.1910
 4233TIP3    H134334   6.530   1.908   8.733  1.0277 -0.3494  0.6912
 4233TIP3    H234335   6.587   2.030   8.803 -0.8169  1.1706 -0.3416
 4234TIP3   OH234336   6.164   1.127   0.235  0.0714 -0.0613 -0.4755
 4234TIP3    H134337   6.114   1.075   0.297 -0.4522  1.6682  0.6356
 4234TIP3    H234338   6.249   1.142   0.277 -0.5112  1.6528  0.1739
 4235TIP3   OH234339   4.555   4.732   0.382  0.2316 -0.3224 -0.1730
 4235TIP3    H134340   4.466   4.736   0.348  1.0702 -0.2265 -2.5816
 4235TIP3    H234341   4.583   4.824   0.385  0.7805 -0.4423 -1.0921
 4236TIP3   OH234342   2.311   1.356   8.216 -0.7054 -0.3259  0.1528
 4236TIP3    H134343   2.376   1.420   8.245 -0.9062  1.0646 -2.1750
 4236TIP3    H234344   2.303   1.295   8.289  1.9219  0.4284  1.1908
 4237TIP3   OH234345   5.334   2.646   0.654 -0.1181 -0.2020 -0.1311
 4237TIP3    H134346   5.330   2.692   0.737  2.5219  1.5461 -0.8586
 4237TIP3    H234347   5.407   2.585   0.664 -0.2729 -0.5319 -0.9176
 4238TIP3   OH234348   1.908   3.270   0.710  0.6964 -0.6679  0.1610
 4238TIP3    H134349   1.954   3.338   0.759 -0.7830 -0.9950  2.1284
 4238TIP3    H234350   1.818   3.275   0.742  0.2808 -2.7036 -0.5733
 4239TIP3   OH234351   2.574   4.677   7.870 -0.6449  0.4961 -0.0925
 4239TIP3    H134352   2.492   4.628   7.875 -0.0370 -1.0967 -3.3402
 4239TIP3    H234353   2.554   4.751   7.814 -0.2190  1.0050  0.4143
 4240TIP3   OH234354   0.275   3.411   8.007  0.1104  0.0750  0.5169
 4240TIP3    H134355   0.369   3.404   8.019 -0.0751 -0.7741  1.6057
 4240TIP3    H234356   0.264   3.421   7.912  1.1938 -1.8912  0.1187
 4241TIP3   OH234357   1.854   3.929   2.503 -0.0255 -0.0122 -0.5559
 4241TIP3    H134358   1.765   3.948   2.532  0.2000  0.7560 -0.3497
 4241TIP3    H234359   1.909   3.991   2.551  0.7414 -1.1498  0.0965
 4242TIP3   OH234360   4.326   1.323   7.647 -0.1916 -0.2239 -0.3798
 4242TIP3    H134361   4.248   1.378   7.650  0.0371  0.1153 -0.6326
 4242TIP3    H234362   4.299   1.241   7.689 -2.0025 -1.8407 -4.2128
 4243TIP3   OH234363   2.777   1.560   7.846  0.7569  0.3439  0.3226
 4243TIP3    H134364   2.745   1.650   7.836  0.0452 -0.0858 -1.9591
 4243TIP3    H234365   2.868   1.564   7.816 -0.1248 -0.1410 -2.7938
 4244TIP3   OH234366   5.882   4.434   2.148 -0.7568  0.8406 -0.4553
 4244TIP3    H134367   5.788   4.435   2.130 -0.9750 -0.7079  0.4159
 4244TIP3    H234368   5.903   4.524   2.174 -2.1120  1.0611 -0.0752
 4245TIP3   OH234369   2.837   3.503   8.015 -0.5918 -0.0272  0.3374
 4245TIP3    H134370   2.917   3.545   7.985 -1.6543  1.8115 -0.1205
 4245TIP3    H234371   2.832   3.422   7.965  0.7404  0.0463  0.0486
 4246TIP3   OH234372   4.785   4.398   0.433  0.2750  0.1626 -0.7243
 4246TIP3    H134373   4.818   4.488   0.438  0.7407 -0.0295 -0.0038
 4246TIP3    H234374   4.705   4.403   0.381 -0.4239  1.2101  0.4049
 4247TIP3   OH234375   0.690   4.319   8.825 -0.1552  0.1798  0.6454
 4247TIP3    H134376   0.716   4.226   8.829 -2.0603 -0.3702  1.1967
 4247TIP3    H234377   0.657   4.338   8.912 -0.4092  1.1933  0.3341
 4248TIP3   OH234378   5.239   2.076   0.263 -0.0562  0.1454 -0.3638
 4248TIP3    H134379   5.307   2.016   0.295  0.1340  0.8765  0.6509
 4248TIP3    H234380   5.192   2.026   0.196 -0.0342 -1.2198  0.6045
 4249TIP3   OH234381   5.583   6.740   0.580 -0.2446 -0.1959  0.0009
 4249TIP3    H134382   5.521   6.811   0.565  2.0358  1.4897 -2.3796
 4249TIP3    H234383   5.643   6.773   0.647  1.3719  0.6331 -1.7663
 4250TIP3   OH234384   1.232   0.083   7.415  0.6353  0.3916  0.7184
 4250TIP3    H134385   1.295   0.098   7.345  0.0571 -1.1479 -0.1901
 4250TIP3    H234386   1.231   0.165   7.465  2.9759  0.6032  0.4915
 4251TIP3   OH234387   1.109   0.424   2.347 -0.3884 -0.2206  0.2767
 4251TIP3    H134388   1.043   0.423   2.278 -1.0924 -0.3361  0.9483
 4251TIP3    H234389   1.191   0.402   2.302 -0.7853  0.0188 -0.5745
 4252TIP3   OH234390   0.777   2.885   1.850  0.2811 -0.0162 -0.3132
 4252TIP3    H134391   0.846   2.932   1.899  1.2530 -1.8502  0.1784
 4252TIP3    H234392   0.760   2.807   1.903 -3.3776  1.0893  0.4225
 4253TIP3   OH234393   2.908   4.153   0.676  0.0168  0.1098  0.1554
 4253TIP3    H134394   2.864   4.238   0.669 -2.1246 -1.0121 -1.4881
 4253TIP3    H234395   2.991   4.165   0.630 -0.9320  0.9615 -1.4366
 4254TIP3   OH234396   3.466   2.551   0.899  0.0452  0.2164 -0.5030
 4254TIP3    H134397   3.450   2.467   0.855 -0.6947  0.8472 -1.4658
 4254TIP3    H234398   3.385   2.569   0.946 -0.6709  1.4816 -2.1502
 4255TIP3   OH234399   4.325   1.152   8.453  0.1233  0.0360 -0.0904
 4255TIP3    H134400   4.331   1.057   8.453  0.6156 -0.0520  3.5129
 4255TIP3    H234401   4.243   1.171   8.408  0.2371 -2.0241 -1.2666
 4256TIP3   OH234402   3.108   2.143   1.106 -0.1768  0.0078  0.1070
 4256TIP3    H134403   3.067   2.159   1.191 -1.5560  1.3953 -0.7553
 4256TIP3    H234404   3.047   2.084   1.061 -1.1153  1.7651 -1.0398
 4257TIP3   OH234405   5.876   1.185   0.991  0.5196 -0.5284  0.5769
 4257TIP3    H134406   5.935   1.122   0.950  1.5301  0.4567  0.4463
 4257TIP3    H234407   5.921   1.210   1.072  0.7883  0.9605  0.0029
 4258TIP3   OH234408   4.604   2.174   0.636 -0.0724  1.0170 -0.1571
 4258TIP3    H134409   4.568   2.086   0.630  0.1501  0.6941  2.3573
 4258TIP3    H234410   4.697   2.164   0.614 -0.6867  1.2733 -3.2473
 4259TIP3   OH234411   2.754   5.044   0.500 -0.1597  0.1102 -0.0213
 4259TIP3    H134412   2.672   5.027   0.453 -0.1068 -1.1583  0.2999
 4259TIP3    H234413   2.786   5.127   0.464 -1.6059  0.6594 -0.1176
 4260TIP3   OH234414   3.046   0.560   0.589 -0.0053 -0.5142  0.7795
 4260TIP3    H134415   2.959   0.561   0.550  1.0678 -1.2758 -1.9175
 4260TIP3    H234416   3.056   0.471   0.623  0.0179 -0.7138  0.2634
 4261TIP3   OH234417   0.830   1.469   1.173 -0.4784 -0.1340 -0.4542
 4261TIP3    H134418   0.783   1.408   1.231 -0.6822  0.6010  0.1753
 4261TIP3    H234419   0.907   1.495   1.225 -1.9633  2.5021  0.5877
 4262TIP3   OH234420   4.894   1.184   1.330 -0.4240 -0.2598 -0.6801
 4262TIP3    H134421   4.817   1.232   1.299  0.0349 -0.0468 -1.5094
 4262TIP3    H234422   4.916   1.226   1.414 -0.3381  0.6652 -1.1459
 4263TIP3   OH234423   6.610   1.713   1.789 -0.7957  0.1193  0.6464
 4263TIP3    H134424   6.597   1.646   1.856  2.3844  0.3609  1.6810
 4263TIP3    H234425   6.682   1.680   1.736 -1.7637  0.9828 -1.2979
 4264TIP3   OH234426   0.942   0.407   8.122  0.2025 -0.2080  0.2808
 4264TIP3    H134427   0.900   0.402   8.208  0.2588  0.4017  0.3475
 4264TIP3    H234428   1.008   0.476   8.132 -0.3254  0.4203 -0.4838
 4265TIP3   OH234429   4.996   3.729   8.251  0.1217 -0.0967 -0.1977
 4265TIP3    H134430   5.009   3.792   8.322 -0.9818  1.0422 -0.9661
 4265TIP3    H234431   4.912   3.754   8.212  0.2572 -1.2908 -1.3136
 4266TIP3   OH234432   5.948   6.516   8.265 -0.2998 -0.2243 -0.3026
 4266TIP3    H134433   5.970   6.463   8.342  1.6550  0.9057  0.0131
 4266TIP3    H234434   5.854   6.530   8.271 -0.6353 -2.4635  0.3450
 4267TIP3   OH234435   1.683   1.679   7.032 -0.2177  0.0837  0.7310
 4267TIP3    H134436   1.766   1.726   7.022 -0.5165  0.1866 -1.8427
 4267TIP3    H234437   1.693   1.601   6.978 -1.4312 -0.4186  1.2084
 4268TIP3   OH234438   6.161   1.576   0.428  0.6319 -0.1305 -0.0786
 4268TIP3    H134439   6.199   1.541   0.347  0.2176 -0.0855 -0.2969
 4268TIP3    H234440   6.075   1.610   0.401 -1.2332 -3.4821  1.0104
 4269TIP3   OH234441   1.292   0.423   0.245  0.2756  0.5962 -0.0272
 4269TIP3    H134442   1.211   0.398   0.290 -0.8878  3.7298 -0.1815
 4269TIP3    H234443   1.290   0.518   0.242  2.9635  0.7034 -1.9777
 4270TIP3   OH234444   3.662   1.582   1.322  0.6841  0.1921 -1.3349
 4270TIP3    H134445   3.663   1.671   1.286  1.2907 -0.0722 -1.9841
 4270TIP3    H234446   3.569   1.558   1.324  0.6504 -0.0264 -3.3446
 4271TIP3   OH234447   2.599   4.655   7.343 -0.1405 -0.5968  0.8340
 4271TIP3    H134448   2.643   4.588   7.291  0.9140 -0.6366  1.7476
 4271TIP3    H234449   2.559   4.607   7.416  0.6984 -0.2483  1.5445
 4272TIP3   OH234450   6.354   5.582   7.471  0.2605 -0.2029 -0.2363
 4272TIP3    H134451   6.359   5.673   7.501  1.7512  0.3397 -1.9431
 4272TIP3    H234452   6.336   5.589   7.377  0.0559 -1.6917 -0.3358
 4273TIP3   OH234453   1.738   3.914   7.507  0.2411 -0.3889 -0.4788
 4273TIP3    H134454   1.825   3.951   7.521  0.4067 -1.5701  2.2510
 4273TIP3    H234455   1.680   3.990   7.502  1.1002  0.3697  0.5556
 4274TIP3   OH234456   2.447   5.680   1.519 -0.1149 -0.4924 -0.4348
 4274TIP3    H134457   2.542   5.680   1.524 -0.1564 -0.8766  0.5579
 4274TIP3    H234458   2.425   5.591   1.491 -0.1734 -0.2825 -1.0756
 4275TIP3   OH234459   3.098   4.621   0.950  0.1263  0.7219 -0.3217
 4275TIP3    H134460   3.003   4.626   0.939 -0.0740 -0.9146  0.4292
 4275TIP3    H234461   3.117   4.684   1.020 -0.2112  2.0296 -1.3838
 4276TIP3   OH234462   5.326   4.006   0.638 -0.0796  0.2572 -0.1264
 4276TIP3    H134463   5.407   4.048   0.669 -0.5649 -0.0542  1.7134
 4276TIP3    H234464   5.283   3.976   0.718 -2.0374  0.4232 -1.0546
 4277TIP3   OH234465   3.525   5.285   1.108 -0.5564  0.1842 -0.2000
 4277TIP3    H134466   3.583   5.309   1.181  1.0499 -3.8645  0.1033
 4277TIP3    H234467   3.583   5.285   1.032 -1.3169  0.5401 -0.7864
 4278TIP3   OH234468   6.052   4.499   7.987 -0.5142 -0.7359 -0.5167
 4278TIP3    H134469   6.095   4.413   7.986  1.0545 -0.0296 -2.8022
 4278TIP3    H234470   6.059   4.528   8.078 -0.2218 -2.6022  0.1057
 4279TIP3   OH234471   3.425   4.997   8.878  0.3673 -1.0304 -0.5581
 4279TIP3    H134472   3.478   4.924   8.909  1.3056 -0.9485 -1.8587
 4279TIP3    H234473   3.341   4.957   8.853  0.0773 -1.2898  0.7811
 4280TIP3   OH234474   2.391   1.802   8.557  0.1523  0.1453  0.0826
 4280TIP3    H134475   2.375   1.710   8.573 -0.0878 -0.0575 -1.2001
 4280TIP3    H234476   2.442   1.832   8.632  1.3073 -1.3338 -0.0776
 4281TIP3   OH234477   4.117   1.380   7.013  0.1840 -0.0499  0.5989
 4281TIP3    H134478   4.155   1.319   6.950 -0.2675 -0.8970  1.1178
 4281TIP3    H234479   4.077   1.323   7.079  3.0049  0.7002  3.1811
 4282TIP3   OH234480   5.880   3.082   7.281  0.2221  0.4803 -0.3006
 4282TIP3    H134481   5.883   3.177   7.270  0.4921  0.4642 -0.3570
 4282TIP3    H234482   5.840   3.069   7.367 -0.2394  0.6359 -0.4897
 4283TIP3   OH234483   2.513   4.420   8.381  0.3411  0.5402 -0.4135
 4283TIP3    H134484   2.457   4.472   8.324 -0.1247 -0.3600 -0.8142
 4283TIP3    H234485   2.588   4.397   8.325 -0.9442 -1.8383 -1.3412
 4284TIP3   OH234486   5.968   4.846   0.292  0.1596  0.3896 -0.1905
 4284TIP3    H134487   5.964   4.941   0.309  1.0499  1.1109 -3.4031
 4284TIP3    H234488   5.877   4.819   0.285 -0.2289  2.0655 -3.6808
 4285TIP3   OH234489   3.130   5.662   1.614  0.1544 -0.6892 -0.6594
 4285TIP3    H134490   3.045   5.628   1.586  0.6824 -2.6211 -0.0374
 4285TIP3    H234491   3.194   5.600   1.578  1.0559 -1.4056  1.9486
 4286TIP3   OH234492   3.424   6.211   1.740  0.2838 -0.0346 -0.6145
 4286TIP3    H134493   3.450   6.243   1.653  1.6929 -0.5099 -0.3868
 4286TIP3    H234494   3.505   6.205   1.789 -0.4556 -0.1222  0.6426
 4287TIP3   OH234495   0.345   1.001   8.625  0.4085  0.4333  0.4188
 4287TIP3    H134496   0.340   1.086   8.669  1.2593  1.6610 -1.7204
 4287TIP3    H234497   0.315   1.017   8.536  3.2834 -0.8226 -0.9010
 4288TIP3   OH234498   2.601   6.114   2.010  0.6028  0.5304  0.1998
 4288TIP3    H134499   2.589   6.156   1.925  1.6358  1.4325  0.4773
 4288TIP3    H234500   2.552   6.169   2.071 -0.5080 -0.3660  0.1374
 4289TIP3   OH234501   0.105   4.502   0.751  0.3425  0.0324 -0.3781
 4289TIP3    H134502   0.178   4.553   0.784  0.9332 -1.8946  1.4904
 4289TIP3    H234503   0.027   4.541   0.791  0.3946  1.4509 -1.5748
 4290TIP3   OH234504   6.139   3.682   2.326 -0.1077  0.0241  0.1942
 4290TIP3    H134505   6.079   3.660   2.398 -0.9510  0.4368 -0.3776
 4290TIP3    H234506   6.140   3.777   2.323  0.5667  0.0225  0.1798
 4291TIP3   OH234507   6.126   4.824   1.663  0.4087 -0.0679 -0.5646
 4291TIP3    H134508   6.152   4.740   1.626 -0.3915 -0.2928 -0.6365
 4291TIP3    H234509   6.054   4.803   1.723  0.1382  0.5663 -0.6505
 4292TIP3   OH234510   5.677   6.321   1.909  0.2852 -0.0996  0.3653
 4292TIP3    H134511   5.737   6.295   1.838  1.2877 -0.0170  1.1560
 4292TIP3    H234512   5.639   6.239   1.939 -0.6639 -0.0772 -0.6843
 4293TIP3   OH234513   6.338   3.666   1.866 -0.0529  0.0745 -0.3695
 4293TIP3    H134514   6.364   3.756   1.846 -1.0873  0.1628 -1.3692
 4293TIP3    H234515   6.265   3.675   1.928 -1.3205 -0.0033 -1.8097
 4294TIP3   OH234516   0.468   0.447   7.151  0.0336  0.2029 -0.0644
 4294TIP3    H134517   0.479   0.510   7.081 -1.0379  0.8250  0.2996
 4294TIP3    H234518   0.553   0.403   7.158  0.3783  0.6565 -1.2263
 4295TIP3   OH234519   0.840   1.315   1.935 -0.0889  0.2282 -0.1340
 4295TIP3    H134520   0.771   1.381   1.930 -1.1040 -0.8059  0.1402
 4295TIP3    H234521   0.911   1.359   1.982 -1.1274  0.8162  0.9232
 4296TIP3   OH234522   0.634   5.850   8.712  0.0495 -0.5227  0.0323
 4296TIP3    H134523   0.721   5.885   8.729  1.1706 -2.1176 -2.0059
 4296TIP3    H234524   0.642   5.805   8.628 -2.3396 -2.0277  0.5159
 4297TIP3   OH234525   4.455   5.614   8.054 -0.0718 -0.0255 -0.0872
 4297TIP3    H134526   4.485   5.527   8.081  1.0371  0.1089 -0.8374
 4297TIP3    H234527   4.386   5.597   7.990 -0.8320 -0.3336  0.7810
 4298TIP3   OH234528   6.050   6.539   8.005 -0.6301  0.2927  0.3605
 4298TIP3    H134529   6.092   6.466   7.958  0.2649  0.1524  1.3347
 4298TIP3    H234530   6.038   6.506   8.094 -0.9717  1.0560  0.6005
 4299TIP3   OH234531   0.186   4.568   8.518 -0.6195  0.0366  0.2419
 4299TIP3    H134532   0.134   4.493   8.489  2.3819 -2.8118  1.5077
 4299TIP3    H234533   0.184   4.563   8.613  1.3585  0.1867  0.3342
 4300TIP3   OH234534   0.052   6.442   8.706  0.2404 -0.3939 -0.1506
 4300TIP3    H134535  -0.019   6.430   8.643  0.5761 -0.5935 -0.4971
 4300TIP3    H234536   0.009   6.476   8.784 -0.2038 -0.2803 -0.4372
 4301TIP3   OH234537   1.551   3.278   2.555 -0.5673  0.8842  0.1474
 4301TIP3    H134538   1.618   3.220   2.518 -0.5305  0.1646  1.2868
 4301TIP3    H234539   1.562   3.360   2.508  1.0324  0.7386  0.2044
 4302TIP3   OH234540   2.343   6.485   1.707  0.0954 -0.2883  0.4707
 4302TIP3    H134541   2.357   6.495   1.613 -1.6162  1.1682  0.3179
 4302TIP3    H234542   2.311   6.396   1.718  0.5644 -0.5605 -0.2697
 4303TIP3   OH234543   0.350   2.603   2.023  0.1734  0.0193  0.2072
 4303TIP3    H134544   0.386   2.688   2.048 -0.6732  0.6316 -0.5717
 4303TIP3    H234545   0.294   2.578   2.096  0.2321  0.2612  0.3352
 4304TIP3   OH234546   1.343   1.496   8.427 -0.0089  0.7480  0.6865
 4304TIP3    H134547   1.370   1.574   8.474  1.1164 -0.2352  1.7606
 4304TIP3    H234548   1.408   1.485   8.357  0.7106 -0.0042  1.4482
 4305TIP3   OH234549   3.929   4.897   1.901 -0.1271 -0.2836 -0.1574
 4305TIP3    H134550   3.877   4.961   1.950  1.1102  1.5629 -1.1349
 4305TIP3    H234551   4.006   4.946   1.872 -0.5499 -1.3633 -3.4961
 4306TIP3   OH234552   3.747   0.113   8.300 -0.2292 -0.0682  0.1432
 4306TIP3    H134553   3.824   0.094   8.245  0.5237 -0.1717  1.2053
 4306TIP3    H234554   3.782   0.166   8.372 -1.1367 -0.2322  0.7109
 4307TIP3   OH234555   0.891   5.300   8.741 -0.5049 -0.6800 -0.2820
 4307TIP3    H134556   0.966   5.348   8.706  0.6413 -0.7061  1.9831
 4307TIP3    H234557   0.929   5.225   8.786 -2.1795 -3.2874 -2.8221
 4308TIP3   OH234558   6.500   3.891   0.391  0.3287  0.0286 -0.2278
 4308TIP3    H134559   6.553   3.828   0.440  0.0022 -0.6628 -0.7420
 4308TIP3    H234560   6.472   3.955   0.456  0.3608 -0.5686  0.3804
 4309TIP3   OH234561   1.118   0.641   8.185  0.0555  0.2142  0.5461
 4309TIP3    H134562   1.198   0.675   8.146  0.1416  0.4366  0.9188
 4309TIP3    H234563   1.103   0.696   8.262  0.0872 -0.4548  1.0357
 4310TIP3   OH234564   3.942   3.154   7.181 -0.1885  0.4039  0.5349
 4310TIP3    H134565   4.024   3.204   7.190 -0.8197  1.6358 -0.3448
 4310TIP3    H234566   3.968   3.064   7.199  1.2061  0.8805  1.0923
 4311TIP3   OH234567   5.741   1.621   8.784  0.4663 -0.0372 -0.2917
 4311TIP3    H134568   5.691   1.555   8.833 -1.0986 -0.1630 -1.9452
 4311TIP3    H234569   5.691   1.702   8.796  0.4827  0.0872 -1.0325
 4312TIP3   OH234570   0.024   1.545   0.685 -0.0767 -0.3192 -0.8598
 4312TIP3    H134571  -0.032   1.621   0.672 -0.2897 -0.3292 -0.0444
 4312TIP3    H234572   0.100   1.562   0.629  0.1829  0.8038 -0.1899
 4313TIP3   OH234573   0.068   1.690   1.619  0.2646 -0.0812 -0.8638
 4313TIP3    H134574   0.105   1.697   1.707 -0.0338 -1.0444 -0.6474
 4313TIP3    H234575   0.031   1.776   1.601 -0.7155 -0.1995  0.4479
 4314TIP3   OH234576   3.344   1.998   1.593 -0.3317 -0.5869 -0.1859
 4314TIP3    H134577   3.321   2.074   1.539  1.0003 -0.5469 -0.7386
 4314TIP3    H234578   3.357   2.035   1.680  0.5228 -0.1256 -0.4949
 4315TIP3   OH234579   5.351   3.059   2.121  0.1943  0.0873  0.0290
 4315TIP3    H134580   5.395   3.119   2.061  2.0959  1.3045  2.4776
 4315TIP3    H234581   5.258   3.076   2.108  0.6041  1.3731 -1.4846
 4316TIP3   OH234582   0.097   5.443   2.456  0.0353 -0.1815 -0.3055
 4316TIP3    H134583   0.144   5.520   2.486  0.3682  0.7672 -2.9691
 4316TIP3    H234584   0.137   5.370   2.503  1.2699  1.0247  0.5896
 4317TIP3   OH234585   0.132   5.501   1.929  0.3268 -0.0652 -0.3378
 4317TIP3    H134586   0.086   5.483   2.011  2.1497 -1.7282  0.3949
 4317TIP3    H234587   0.206   5.556   1.955  2.2141 -2.4319 -0.3962
 4318TIP3   OH234588   1.222   6.642   7.531  0.2024  0.1152 -0.4936
 4318TIP3    H134589   1.129   6.619   7.524  0.1925  0.1793 -0.5726
 4318TIP3    H234590   1.226   6.734   7.503  0.3627 -0.0390 -0.9806
 4319TIP3   OH234591   5.969   2.486   8.820 -0.3106 -0.0137  0.7398
 4319TIP3    H134592   5.912   2.562   8.834 -2.8026 -1.8136  0.9371
 4319TIP3    H234593   5.941   2.422   8.886  0.0525 -1.9892 -0.9258
 4320TIP3   OH234594   6.004   1.531   1.666  0.3023 -0.2406  0.4388
 4320TIP3    H134595   5.941   1.594   1.700  1.2359  1.5654 -0.9918
 4320TIP3    H234596   6.088   1.560   1.701  0.7891 -0.5279 -0.4645
 4321TIP3   OH234597   5.406   5.187   8.278  0.5785  0.0433  0.3482
 4321TIP3    H134598   5.349   5.120   8.315  1.0256 -1.3221 -1.3048
 4321TIP3    H234599   5.364   5.270   8.300  0.2463 -0.7219  2.8427
 4322TIP3   OH234600   4.334   6.629   8.329  0.2816  0.6061 -0.0559
 4322TIP3    H134601   4.251   6.676   8.322  0.6866  1.2244 -0.9125
 4322TIP3    H234602   4.396   6.696   8.359  0.9840  0.8006 -1.8208
 4323TIP3   OH234603   4.646   0.407   7.505  0.2463 -0.2750  0.8492
 4323TIP3    H134604   4.700   0.464   7.450  1.8765 -1.5818  1.0263
 4323TIP3    H234605   4.619   0.463   7.578 -0.8312  1.1069 -0.5464
 4324TIP3   OH234606   1.830   4.256   1.380 -0.4216  0.8880 -0.0557
 4324TIP3    H134607   1.876   4.269   1.463 -0.3183 -0.4329  0.1245
 4324TIP3    H234608   1.741   4.234   1.406 -0.0024 -1.2300 -0.1567
 4325TIP3   OH234609   2.072   0.443   1.835 -0.1240  0.4262 -0.1625
 4325TIP3    H134610   2.076   0.482   1.923  0.9299 -1.3088  0.6249
 4325TIP3    H234611   2.159   0.460   1.797  0.2768 -0.8572  0.1103
 4326TIP3   OH234612   0.729   4.218   7.417 -0.2036 -0.3969 -0.5307
 4326TIP3    H134613   0.652   4.180   7.458  0.2325 -0.5552  0.1587
 4326TIP3    H234614   0.799   4.155   7.433  0.1261 -0.1421 -0.9280
 4327TIP3   OH234615   0.641   4.591   6.909  0.4724 -0.0976  0.5560
 4327TIP3    H134616   0.613   4.624   6.824  2.2620 -2.2078 -0.9355
 4327TIP3    H234617   0.578   4.522   6.930  1.9183 -1.8401 -0.6892
 4328TIP3   OH234618   3.203   4.282   7.002 -0.1456 -0.0869 -0.3087
 4328TIP3    H134619   3.136   4.246   6.944 -2.1798  0.4894  1.5533
 4328TIP3    H234620   3.248   4.205   7.037 -3.0066 -0.9064  1.9598
 4329TIP3   OH234621   6.242   5.231   8.284 -0.3997 -0.7391  0.3322
 4329TIP3    H134622   6.199   5.204   8.203  1.8082 -1.8666 -0.5566
 4329TIP3    H234623   6.279   5.317   8.264  0.8855 -1.3850 -0.2237
 4330TIP3   OH234624   5.743   4.828   2.056  0.4526  0.2772 -0.9258
 4330TIP3    H134625   5.748   4.879   2.137  1.3914 -1.3628  0.1250
 4330TIP3    H234626   5.682   4.876   2.001  0.4188  1.8965  0.4288
 4331TIP3   OH234627   1.121   3.209   2.145 -0.5882 -0.1326  0.3105
 4331TIP3    H134628   1.206   3.229   2.184 -0.4806 -2.1189  1.2098
 4331TIP3    H234629   1.059   3.262   2.196  0.0818  1.5837 -0.5683
 4332TIP3   OH234630   5.260   0.966   7.541 -0.3291  0.5478 -0.5567
 4332TIP3    H134631   5.229   1.048   7.580 -0.2019  0.1449  0.4145
 4332TIP3    H234632   5.348   0.955   7.578 -0.0987  0.2957 -1.1786
 4333TIP3   OH234633   4.489   1.940   0.478 -0.5749  0.3419  0.0451
 4333TIP3    H134634   4.416   1.975   0.529 -1.4344  0.2658 -1.1026
 4333TIP3    H234635   4.480   1.845   0.486 -0.0414  0.3337  0.6537
 4334TIP3   OH234636   1.984   6.700   7.987 -0.4327 -0.5072  0.1584
 4334TIP3    H134637   2.030   6.710   7.904 -1.4078  0.5168 -0.2793
 4334TIP3    H234638   2.008   6.777   8.037 -1.6670  0.0687 -0.0933
 4335TIP3   OH234639   1.082   3.285   1.837 -0.6915  0.2324  0.0450
 4335TIP3    H134640   1.055   3.361   1.890  0.8108 -0.1774  1.4753
 4335TIP3    H234641   1.097   3.322   1.750  0.6754  1.7564  0.8664
 4336TIP3   OH234642   2.048   3.825   0.680  0.2952  0.0107 -0.7253
 4336TIP3    H134643   2.044   3.889   0.752  0.2554  0.9392 -1.5327
 4336TIP3    H234644   2.128   3.775   0.697  0.1454  0.0263  0.1092
 4337TIP3   OH234645   3.382   5.846   1.560  0.4488  0.1914  0.1038
 4337TIP3    H134646   3.354   5.884   1.477  1.1698  0.1053 -0.1852
 4337TIP3    H234647   3.314   5.782   1.581 -0.3144  0.9877  0.1490
 4338TIP3   OH234648   1.363   1.954   0.057 -0.0331 -0.1685  0.2496
 4338TIP3    H134649   1.357   1.983  -0.034 -1.0374 -1.8541 -0.2650
 4338TIP3    H234650   1.443   1.902   0.060 -1.5067 -2.6105 -0.4831
 4339TIP3   OH234651   3.594   5.567   6.890  0.1103 -0.4189 -0.1716
 4339TIP3    H134652   3.682   5.598   6.908 -0.4645 -0.0278  2.3633
 4339TIP3    H234653   3.598   5.533   6.800  2.1114  2.0619 -1.1639
 4340TIP3   OH234654   5.307   2.725   8.681  0.1251 -0.0523  0.1226
 4340TIP3    H134655   5.394   2.727   8.720  0.4148  1.2602 -0.5615
 4340TIP3    H234656   5.249   2.758   8.750  0.2139 -0.5404  0.4364
 4341TIP3   OH234657   2.523   1.554   1.796 -0.4877 -0.1803  0.3413
 4341TIP3    H134658   2.444   1.500   1.800  0.0823 -1.0795 -0.2684
 4341TIP3    H234659   2.586   1.501   1.749 -0.2183  1.4196 -1.2008
 4342TIP3   OH234660   3.944   2.331   0.050  0.0231  0.0449 -0.3143
 4342TIP3    H134661   4.028   2.290   0.073 -0.1230 -0.3217 -0.4399
 4342TIP3    H234662   3.924   2.297  -0.037 -0.4598 -0.1825 -0.1159
 4343TIP3   OH234663   4.080   0.920   7.034 -0.5138 -0.4669  0.0075
 4343TIP3    H134664   4.171   0.914   7.065 -0.9015 -1.3803  1.0504
 4343TIP3    H234665   4.048   1.003   7.069 -0.2335 -0.3903  0.0824
 4344TIP3   OH234666   0.843   1.182   2.240  0.8182 -0.6237  0.1468
 4344TIP3    H134667   0.929   1.197   2.200  0.4327  0.6015 -0.2388
 4344TIP3    H234668   0.863   1.164   2.332  1.4941 -0.4136  0.0466
 4345TIP3   OH234669   0.540   4.603   8.302  0.0021  0.1529 -0.9608
 4345TIP3    H134670   0.590   4.685   8.310 -0.9054  0.7097 -0.8870
 4345TIP3    H234671   0.509   4.603   8.212 -0.2514  0.0382 -0.8733
 4346TIP3   OH234672   5.210   3.640   2.318  0.2732 -0.0754  0.3903
 4346TIP3    H134673   5.228   3.547   2.334  1.0844  0.1548  0.8932
 4346TIP3    H234674   5.168   3.670   2.398  0.4786  0.1163  0.4237
 4347TIP3   OH234675   3.097   4.115   2.473 -0.4795  0.1221 -0.3090
 4347TIP3    H134676   3.111   4.146   2.563 -1.5588  0.0085 -0.0955
 4347TIP3    H234677   3.005   4.131   2.455 -0.3528 -0.1536 -1.2921
 4348TIP3   OH234678   6.435   1.495   1.657  0.5877  0.3077  0.1915
 4348TIP3    H134679   6.385   1.513   1.577 -0.4679 -1.3344  0.4198
 4348TIP3    H234680   6.410   1.565   1.717 -1.7534 -0.5852  0.3811
 4349TIP3   OH234681   4.782   5.859   1.139  0.8047  0.3285  0.2202
 4349TIP3    H134682   4.855   5.919   1.119  1.1628  0.4192  1.7205
 4349TIP3    H234683   4.711   5.915   1.168  1.4618  0.0246  2.5921
 4350TIP3   OH234684   4.949   0.150   8.103  0.6448  0.4103 -0.0641
 4350TIP3    H134685   4.958   0.059   8.131  0.7346  0.9608  1.8298
 4350TIP3    H234686   4.863   0.176   8.135  1.2986  1.4569  0.9179
 4351TIP3   OH234687   5.774   0.070   0.743  0.2094  0.0637  0.3566
 4351TIP3    H134688   5.863   0.089   0.713 -0.5155 -0.2877 -2.2355
 4351TIP3    H234689   5.724   0.149   0.721 -0.5585 -0.5869 -0.3041
 4352TIP3   OH234690   6.247   5.248   1.655 -0.2016 -0.0262 -0.0314
 4352TIP3    H134691   6.308   5.307   1.611 -0.7284  1.1282  0.7387
 4352TIP3    H234692   6.164   5.295   1.655 -0.4893 -0.4933  1.1506
 4353TIP3   OH234693   3.825   6.316   2.025 -0.1601  0.3267  0.3107
 4353TIP3    H134694   3.861   6.369   1.954  0.7360 -1.7539 -0.8586
 4353TIP3    H234695   3.857   6.357   2.105  1.8268  0.6460 -0.6052
 4354TIP3   OH234696   2.897   4.293   7.770  0.2885 -0.1726  0.1211
 4354TIP3    H134697   2.895   4.235   7.694  0.4374 -1.2924  0.9425
 4354TIP3    H234698   2.913   4.380   7.734 -2.0668 -0.2533 -1.3501
 4355TIP3   OH234699   4.907   4.342   7.326  0.7250 -0.0518  0.1194
 4355TIP3    H134700   4.903   4.434   7.300  0.1170 -0.3848 -1.0665
 4355TIP3    H234701   4.850   4.297   7.263  0.1075 -1.0906  1.3874
 4356TIP3   OH234702   3.945   4.500   8.836 -0.7966 -0.1077 -0.1250
 4356TIP3    H134703   3.973   4.473   8.924  1.2702 -1.0784 -1.0187
 4356TIP3    H234704   3.921   4.418   8.792  1.0297 -0.0199 -1.3778
 4357TIP3   OH234705   1.845   1.014   7.094 -0.1328 -0.4786  0.3880
 4357TIP3    H134706   1.894   1.030   7.175  1.2738 -0.4582 -0.4448
 4357TIP3    H234707   1.776   0.953   7.120 -0.0905  0.0030  1.7335
 4358TIP3   OH234708   6.535   4.026   7.206 -0.0264 -0.6233  0.3703
 4358TIP3    H134709   6.473   4.096   7.229  0.6678 -0.4485  1.8827
 4358TIP3    H234710   6.562   4.045   7.117 -0.4589  0.5920  0.4842
 4359TIP3   OH234711   4.732   0.145   0.116 -0.3431  0.5334 -0.3505
 4359TIP3    H134712   4.727   0.210   0.187 -2.6324  0.6337 -0.5255
 4359TIP3    H234713   4.703   0.193   0.038  0.3303 -0.0779 -0.9883
 4360TIP3   OH234714   2.863   6.426   2.747  0.5753  0.1236  0.0118
 4360TIP3    H134715   2.843   6.333   2.757  1.4556 -0.0852 -0.0978
 4360TIP3    H234716   2.904   6.432   2.661  0.0114  0.7095 -0.2275
 4361TIP3   OH234717   1.526   3.150   2.213 -0.2507  0.2855 -0.4792
 4361TIP3    H134718   1.569   3.105   2.286  0.5862  1.1679 -0.4010
 4361TIP3    H234719   1.463   3.208   2.256 -0.2003  0.3454 -0.4852
 4362TIP3   OH234720   4.106   3.180   7.493 -0.5990 -0.6033  0.0709
 4362TIP3    H134721   4.113   3.234   7.415  0.7761 -1.1218 -0.1839
 4362TIP3    H234722   4.039   3.115   7.471 -0.0840 -0.8714 -0.7635
 4363TIP3   OH234723   5.998   0.958   2.795 -0.3091 -0.3137 -0.2967
 4363TIP3    H134724   5.905   0.965   2.818  0.1595  0.4059  1.5456
 4363TIP3    H234725   6.027   1.049   2.786  0.0605 -0.5471 -1.7015
 4364TIP3   OH234726   3.222   0.048   7.926  0.4240  0.1487  0.0427
 4364TIP3    H134727   3.167   0.018   7.999  1.0696 -0.7333  0.1732
 4364TIP3    H234728   3.181   0.130   7.898 -0.3760  0.0185  0.7889
 4365TIP3   OH234729   6.762   6.105   7.753 -0.0728  0.4157 -0.3549
 4365TIP3    H134730   6.847   6.130   7.717  0.3233 -0.9482 -0.3985
 4365TIP3    H234731   6.775   6.106   7.848 -0.3957  1.4830 -0.3051
 4366TIP3   OH234732   1.184   4.938   8.043  0.1496  0.1156  0.1340
 4366TIP3    H134733   1.216   5.018   8.003  1.4395 -1.5297 -2.4288
 4366TIP3    H234734   1.095   4.927   8.008  1.1779 -1.1797 -2.3008
 4367TIP3   OH234735   1.109   5.753   8.249 -0.4237 -0.3692 -0.2209
 4367TIP3    H134736   1.055   5.816   8.202 -0.0736 -0.6839 -1.0798
 4367TIP3    H234737   1.194   5.797   8.259 -0.6879 -0.0559  0.7040
 4368TIP3   OH234738   4.170   5.308   6.983  0.2207 -0.4400  0.3093
 4368TIP3    H134739   4.152   5.220   7.018 -1.5205  0.1354  1.0044
 4368TIP3    H234740   4.096   5.325   6.925  1.9266 -0.4692 -2.0136
 4369TIP3   OH234741   4.383   2.853   1.253 -0.2929  0.2655 -0.7450
 4369TIP3    H134742   4.433   2.782   1.211 -0.3145 -0.8999  1.0944
 4369TIP3    H234743   4.309   2.809   1.294 -0.8275  1.4978 -0.3392
 4370TIP3   OH234744   0.701   2.020   2.193 -0.0626  0.2424 -0.1617
 4370TIP3    H134745   0.625   2.054   2.240 -0.1604  1.0398 -0.8660
 4370TIP3    H234746   0.664   1.961   2.127  0.0249 -0.3324  0.2973
 4371TIP3   OH234747   1.110   5.240   0.814 -0.4202  0.2311  0.5614
 4371TIP3    H134748   1.138   5.150   0.830 -1.5617 -0.1584  0.4677
 4371TIP3    H234749   1.066   5.238   0.729 -0.8430  0.7790  0.7547
 4372TIP3   OH234750   5.198   4.804   8.033 -0.3335 -0.1516  0.0491
 4372TIP3    H134751   5.176   4.836   8.121 -0.3751 -2.0236  0.7652
 4372TIP3    H234752   5.293   4.795   8.035 -0.4001 -0.8929  0.1743
 4373TIP3   OH234753   0.529   3.752   1.310  0.3929  0.0819  0.1054
 4373TIP3    H134754   0.549   3.787   1.224 -0.6381  1.7351  0.4978
 4373TIP3    H234755   0.607   3.702   1.335  0.3865 -1.1696 -2.1096
 4374TIP3   OH234756   6.671   5.708   6.695 -0.3730 -0.7923 -0.2514
 4374TIP3    H134757   6.640   5.755   6.772  0.7469 -1.4672  0.6341
 4374TIP3    H234758   6.614   5.739   6.624 -1.5402 -0.2904  0.8585
 4375TIP3   OH234759   0.053   1.244   1.339  0.2125  0.1371  0.0048
 4375TIP3    H134760   0.019   1.260   1.251  0.4792 -0.2004 -0.1630
 4375TIP3    H234761  -0.018   1.201   1.386 -0.5789  1.9176  0.5123
 4376TIP3   OH234762   1.760   1.210   0.818 -0.0920 -0.1355 -0.4881
 4376TIP3    H134763   1.754   1.301   0.787  0.4575 -0.2469 -0.9493
 4376TIP3    H234764   1.773   1.218   0.912 -0.7401  0.2414 -0.4182
 4377TIP3   OH234765   3.857   5.609   1.182  0.2747  0.3090  0.0127
 4377TIP3    H134766   3.827   5.699   1.170 -0.0097  0.3093  0.6895
 4377TIP3    H234767   3.939   5.605   1.132 -0.7488  0.3389 -1.7545
 4378TIP3   OH234768   3.261   4.022   8.826 -0.2543 -1.3430 -0.0807
 4378TIP3    H134769   3.247   3.949   8.766  0.3562 -1.2150 -0.3877
 4378TIP3    H234770   3.204   4.091   8.793  0.6346 -1.0089 -0.9960
 4379TIP3   OH234771   4.172   4.885   7.355 -0.3274 -0.2854  0.1701
 4379TIP3    H134772   4.244   4.936   7.318  0.2485 -0.8707  0.4765
 4379TIP3    H234773   4.202   4.795   7.353 -1.9975 -0.8674 -1.9236
 4380TIP3   OH234774   3.958   1.068   1.534 -0.0038  0.0905 -0.2830
 4380TIP3    H134775   3.966   1.154   1.494 -0.5826 -0.3728 -1.4210
 4380TIP3    H234776   3.894   1.080   1.604  0.7222  0.8145  0.2798
 4381TIP3   OH234777   4.959   0.563   7.873  0.0511  0.3308 -0.1014
 4381TIP3    H134778   5.005   0.487   7.838  1.5503  1.1257  0.0496
 4381TIP3    H234779   4.959   0.549   7.968  0.6283  0.6492 -0.0450
 4382TIP3   OH234780   3.868   2.377   8.384  0.6706  0.0739  0.4774
 4382TIP3    H134781   3.959   2.353   8.399  0.6412 -1.1364 -0.9733
 4382TIP3    H234782   3.841   2.322   8.311 -1.3938  0.0386  1.2117
 4383TIP3   OH234783   6.119   1.122   8.866  0.4506 -0.4851  0.4045
 4383TIP3    H134784   6.163   1.195   8.822 -1.7335  0.7761  0.1335
 4383TIP3    H234785   6.138   1.134   8.958 -1.3085  1.5933  0.5812
 4384TIP3   OH234786   3.336   0.600   1.909  0.4954 -0.2352 -0.5698
 4384TIP3    H134787   3.251   0.612   1.950  0.4533 -0.6058 -0.5418
 4384TIP3    H234788   3.396   0.654   1.960  0.5557 -1.1421  0.3526
 4385TIP3   OH234789   5.910   3.864   0.708 -0.3931 -0.8473 -0.8685
 4385TIP3    H134790   5.999   3.898   0.718 -1.4704  1.6713  1.3597
 4385TIP3    H234791   5.874   3.909   0.632 -0.3829 -0.3684 -0.5908
 4386TIP3   OH234792   1.157   5.125   8.659  0.1550  0.3935 -0.5856
 4386TIP3    H134793   1.220   5.194   8.679 -0.3132  0.9573 -1.0382
 4386TIP3    H234794   1.101   5.121   8.737  0.8549 -0.2523 -0.0918
 4387TIP3   OH234795   2.642   5.784   8.879 -0.1297 -0.5254  0.4128
 4387TIP3    H134796   2.728   5.756   8.847 -1.0709 -2.3289 -0.7029
 4387TIP3    H234797   2.617   5.717   8.943 -0.7707 -0.0964  0.6188
 4388TIP3   OH234798   0.869   2.313   1.962  0.5606 -0.3055 -0.4040
 4388TIP3    H134799   0.864   2.356   2.047  1.3866 -0.6689 -0.1527
 4388TIP3    H234800   0.944   2.354   1.919 -0.0669  0.1270 -1.1145
 4389TIP3   OH234801   4.979   2.855   8.098  0.2341 -0.1413  0.2769
 4389TIP3    H134802   5.033   2.867   8.176 -0.0238  1.3967  0.2636
 4389TIP3    H234803   5.015   2.917   8.035 -0.1675 -0.6842 -0.4996
 4390TIP3   OH234804   0.427   6.769   2.061 -0.0446 -0.1851  0.2062
 4390TIP3    H134805   0.431   6.760   2.156  1.0298  0.3180  0.2205
 4390TIP3    H234806   0.511   6.733   2.030 -0.8346 -1.3909 -0.6477
 4391TIP3   OH234807   1.716   5.852   8.800 -0.5043  0.0186 -0.0518
 4391TIP3    H134808   1.754   5.764   8.790 -2.0652 -0.5066 -1.9776
 4391TIP3    H234809   1.792   5.910   8.803  0.5527 -1.3282  0.8460
 4392TIP3   OH234810   5.995   5.581   1.954  0.0120 -0.1722 -0.2638
 4392TIP3    H134811   6.025   5.577   1.863 -0.4452 -1.0510 -0.3846
 4392TIP3    H234812   6.068   5.547   2.005 -0.2832 -1.1027 -0.4453
 4393TIP3   OH234813   3.052   3.789   8.586  0.3403 -0.0607 -0.0187
 4393TIP3    H134814   3.092   3.719   8.535  2.2358  0.1634  1.0745
 4393TIP3    H234815   3.098   3.787   8.671 -1.6072  0.5908  1.1205
 4394TIP3   OH234816   6.309   1.912   8.349  0.3510 -0.0482  0.0504
 4394TIP3    H134817   6.276   1.966   8.277  0.6203 -0.1397 -0.1439
 4394TIP3    H234818   6.303   1.968   8.427  0.2301  0.1138 -0.0774
 4395TIP3   OH234819   4.894   1.586   1.682  0.1060 -0.5995  0.2900
 4395TIP3    H134820   4.929   1.673   1.666  1.3482 -1.1131  0.1347
 4395TIP3    H234821   4.855   1.592   1.770  1.1654 -0.1759  0.7465
 4396TIP3   OH234822   2.674   1.026   8.846  0.0680  0.9001  0.0813
 4396TIP3    H134823   2.762   0.995   8.824 -0.2204  0.7583 -0.9651
 4396TIP3    H234824   2.655   0.987   8.931  0.8842  0.6498  0.1548
 4397TIP3   OH234825   3.566   6.597   0.073  0.1272 -0.2725 -0.2810
 4397TIP3    H134826   3.655   6.632   0.077  0.6402 -1.4735 -0.6485
 4397TIP3    H234827   3.553   6.578  -0.020  0.0561 -1.4726 -0.0388
 4398TIP3   OH234828   5.923   4.684   2.233 -0.2852  0.1955 -0.2068
 4398TIP3    H134829   5.999   4.740   2.246  0.7792 -1.0445 -0.8486
 4398TIP3    H234830   5.859   4.741   2.189  1.2924  0.5501 -2.1626
 4399TIP3   OH234831   6.170   4.835   6.997 -0.5973  0.4544 -0.1172
 4399TIP3    H134832   6.128   4.903   6.945  0.0494  0.8664 -0.1098
 4399TIP3    H234833   6.117   4.756   6.981 -0.0447  0.4010 -1.9141
 4400TIP3   OH234834   3.962   6.377   8.832  0.1232 -0.5656 -0.1721
 4400TIP3    H134835   3.971   6.342   8.921  0.9532  1.0308  0.4128
 4400TIP3    H234836   3.992   6.468   8.839 -1.8619  0.2613 -1.6299
 4401TIP3   OH234837   6.487   5.348   8.662  0.7164 -0.3049 -0.0600
 4401TIP3    H134838   6.514   5.313   8.747  0.3371 -0.8829 -0.1679
 4401TIP3    H234839   6.509   5.278   8.599  0.6924 -0.0194 -0.3909
 4402TIP3   OH234840   1.805   4.901   0.514 -0.0631 -0.4887 -0.6060
 4402TIP3    H134841   1.737   4.871   0.574 -0.9465 -0.9725 -1.8112
 4402TIP3    H234842   1.869   4.830   0.514  0.3145 -0.1646  0.3024
 4403TIP3   OH234843   0.607   2.825   0.970 -0.0567  0.0287  0.1944
 4403TIP3    H134844   0.701   2.816   0.954 -0.2817 -0.7201 -0.8452
 4403TIP3    H234845   0.600   2.897   1.033  1.2478 -0.3559  0.8223
 4404TIP3   OH234846   3.348   2.200   0.820 -0.1031  0.2015  0.2132
 4404TIP3    H134847   3.380   2.237   0.738  0.1516 -3.3462 -1.4551
 4404TIP3    H234848   3.276   2.259   0.846  1.5079  2.9240 -1.0198
 4405TIP3   OH234849   4.385   4.080   0.926 -0.4855 -0.7710 -0.0119
 4405TIP3    H134850   4.400   4.162   0.879 -0.2903  0.4597  2.0447
 4405TIP3    H234851   4.384   4.012   0.858 -2.9149  1.1285 -2.0574
 4406TIP3   OH234852   4.634   6.498   2.503 -0.1270  0.0529  0.1605
 4406TIP3    H134853   4.543   6.490   2.531  0.3519 -1.5847  1.3883
 4406TIP3    H234854   4.634   6.573   2.443 -2.3563 -0.2324 -0.2824
 4407TIP3   OH234855   0.118   2.382   0.121  0.2599  0.1701  0.2338
 4407TIP3    H134856   0.033   2.409   0.088  0.1381  1.7090  1.7161
 4407TIP3    H234857   0.159   2.336   0.047 -1.0751  1.0750 -1.1103
 4408TIP3   OH234858   0.601   4.641   2.070  0.5644 -0.4165  0.5362
 4408TIP3    H134859   0.651   4.650   1.989 -0.2011  0.7852  0.1759
 4408TIP3    H234860   0.512   4.668   2.047  0.0409 -1.2339  1.4935
 4409TIP3   OH234861   0.466   2.636   7.888 -0.0988  0.1214  0.0001
 4409TIP3    H134862   0.403   2.662   7.954 -0.7657  1.7964 -1.2432
 4409TIP3    H234863   0.457   2.701   7.818  2.3455 -0.1212 -0.6400
 4410TIP3   OH234864   3.668   6.371   7.765 -0.0643 -0.0352  0.1357
 4410TIP3    H134865   3.646   6.449   7.714 -0.7691  0.3820  1.0570
 4410TIP3    H234866   3.584   6.337   7.794  0.1860 -1.4690 -0.6939
 4411TIP3   OH234867   5.022   4.231   0.072 -0.3735  0.1510 -0.5992
 4411TIP3    H134868   5.021   4.136   0.077  1.1854  0.1737  1.0626
 4411TIP3    H234869   4.933   4.257   0.097  0.3099 -0.8002  3.6062
 4412TIP3   OH234870   4.061   5.939   8.135 -0.1305  0.0746 -0.3267
 4412TIP3    H134871   4.003   5.864   8.149  0.9219 -0.3779  2.1215
 4412TIP3    H234872   4.149   5.902   8.131  0.3468  1.0931  0.2842
 4413TIP3   OH234873   1.077   1.370   2.245  0.7943  0.3823  0.4622
 4413TIP3    H134874   1.062   1.295   2.188 -0.9623 -0.0748  1.4669
 4413TIP3    H234875   1.168   1.360   2.275  0.4318 -1.6732  1.0263
 4414TIP3   OH234876   5.303   2.446   8.101  0.2414 -0.0310  0.6331
 4414TIP3    H134877   5.389   2.477   8.073 -0.3851 -0.2325 -1.7322
 4414TIP3    H234878   5.265   2.407   8.022 -2.2794  0.6399  1.4312
 4415TIP3   OH234879   1.238   5.101   6.960  0.6930  0.0644 -0.6296
 4415TIP3    H134880   1.175   5.163   6.994  0.8223 -0.9343  1.5780
 4415TIP3    H234881   1.318   5.152   6.946 -0.3129  1.2060 -2.8796
 4416TIP3   OH234882   0.143   0.478   2.061 -0.3023 -0.3961  1.2565
 4416TIP3    H134883   0.106   0.390   2.052  0.5290 -0.5664 -1.0439
 4416TIP3    H234884   0.072   0.536   2.033 -0.3502 -0.4340  1.2983
 4417TIP3   OH234885   0.425   2.040   7.569 -0.6271 -0.6452 -0.1078
 4417TIP3    H134886   0.373   2.083   7.500 -0.1990  0.3762  0.1836
 4417TIP3    H234887   0.511   2.029   7.530 -0.5276 -0.5464  0.0831
 4418TIP3   OH234888   4.711   6.424   0.292 -0.4153 -0.1373 -0.1756
 4418TIP3    H134889   4.644   6.491   0.306 -0.0944  0.4272 -1.2068
 4418TIP3    H234890   4.689   6.355   0.355  1.2073  2.3327  3.4704
 4419TIP3   OH234891   1.111   4.523   1.291  0.0022  0.3528 -0.0467
 4419TIP3    H134892   1.071   4.460   1.232  0.9059 -0.9984  0.7174
 4419TIP3    H234893   1.203   4.525   1.266  0.3546 -0.0856  1.1557
 4420TIP3   OH234894   6.618   0.336   0.957 -0.3514  0.2126  0.5407
 4420TIP3    H134895   6.698   0.331   1.009 -0.9663  0.5766  1.5510
 4420TIP3    H234896   6.604   0.430   0.944  0.4594  0.1094 -1.3713
 4421TIP3   OH234897   6.474   4.060   0.582 -0.2846  0.1285 -0.1259
 4421TIP3    H134898   6.439   4.146   0.607  0.1378  0.2687 -0.0118
 4421TIP3    H234899   6.565   4.077   0.559 -0.0495 -0.3816  0.4137
 4422TIP3   OH234900   2.187   4.364   1.427 -0.7371  0.2471  0.0536
 4422TIP3    H134901   2.277   4.332   1.423 -0.3230  1.3695 -0.0467
 4422TIP3    H234902   2.151   4.325   1.506 -0.2073 -0.3019  0.0323
 4423TIP3   OH234903   0.055   2.486   3.273 -0.1741 -0.0505 -0.6730
 4423TIP3    H134904   0.113   2.512   3.345 -0.6037 -4.5407  1.6691
 4423TIP3    H234905   0.105   2.504   3.194  1.9020  1.7403  0.9303
 4424TIP3   OH234906   1.701   1.848   8.222  0.1119 -0.4870  0.5344
 4424TIP3    H134907   1.678   1.852   8.315  0.0290  0.0086  0.4926
 4424TIP3    H234908   1.619   1.868   8.176  0.0136 -1.2796  0.3396
 4425TIP3   OH234909   6.395   5.414   2.195 -0.2403 -0.2208  0.1933
 4425TIP3    H134910   6.455   5.475   2.237  0.3834  0.4267 -1.5625
 4425TIP3    H234911   6.447   5.335   2.181  0.1790  0.2582 -1.1120
 4426TIP3   OH234912   2.468   3.823   2.865  0.4463  0.4321 -0.6721
 4426TIP3    H134913   2.512   3.871   2.936  0.4804  1.1921 -1.1899
 4426TIP3    H234914   2.376   3.849   2.873 -0.1286 -1.8250  0.9510
 4427TIP3   OH234915   6.154   6.416   2.495  0.3136  0.0424  0.0285
 4427TIP3    H134916   6.104   6.374   2.425 -0.7523  0.4557  0.5264
 4427TIP3    H234917   6.092   6.478   2.535  1.4796  1.2134  0.0886
 4428TIP3   OH234918   4.290   3.779   7.213  0.2512  0.5771 -0.7687
 4428TIP3    H134919   4.231   3.713   7.250  0.3870  0.5134 -0.6645
 4428TIP3    H234920   4.375   3.736   7.210  0.2686  0.6303 -1.0245
 4429TIP3   OH234921   1.468   1.526   1.520  0.2584 -0.7033 -0.1967
 4429TIP3    H134922   1.404   1.499   1.455 -0.1618  1.4133 -0.7287
 4429TIP3    H234923   1.476   1.620   1.509  0.4855 -0.3110  2.5440
 4430TIP3   OH234924   4.197   3.960   1.755 -0.4155  0.7934 -0.0672
 4430TIP3    H134925   4.260   3.918   1.697 -2.4532 -1.1645 -0.9976
 4430TIP3    H234926   4.167   4.037   1.707  1.5771  2.0517  0.6148
 4431TIP3   OH234927   3.565   1.066   0.941 -0.6022  0.3865  0.3923
 4431TIP3    H134928   3.610   1.072   1.025  1.7311  0.0220 -0.7319
 4431TIP3    H234929   3.524   0.980   0.941  1.5997 -0.7235  0.2012
 4432TIP3   OH234930   1.168   5.372   0.371  0.7064 -0.0422 -0.3168
 4432TIP3    H134931   1.235   5.368   0.439 -0.1487 -2.1506  0.5107
 4432TIP3    H234932   1.209   5.331   0.295  0.4928 -1.0637  0.0982
 4433TIP3   OH234933   3.266   0.180   1.468  0.0298  0.2581 -0.2059
 4433TIP3    H134934   3.292   0.097   1.508 -0.1479  0.0307 -0.5574
 4433TIP3    H234935   3.233   0.232   1.541 -0.3391 -0.1742 -0.0602
 4434TIP3   OH234936   6.420   2.288   1.537  0.2516  0.3904 -0.5678
 4434TIP3    H134937   6.463   2.338   1.605 -1.0328 -0.7187  1.1381
 4434TIP3    H234938   6.326   2.297   1.556 -0.1505  0.0833 -2.2144
 4435TIP3   OH234939   0.250   3.252   8.653  0.2723  0.0900 -0.0122
 4435TIP3    H134940   0.343   3.231   8.666  0.0693 -1.1650 -0.4868
 4435TIP3    H234941   0.208   3.222   8.734  0.0364 -1.0102 -0.5313
 4436TIP3   OH234942   4.157   0.734   6.839 -0.3332 -0.8752 -0.2402
 4436TIP3    H134943   4.109   0.753   6.920  1.0827  0.6567  0.2955
 4436TIP3    H234944   4.145   0.813   6.786 -1.1907 -1.8400 -1.5325
 4437TIP3   OH234945   4.198   4.808   1.554 -0.4869 -0.3426 -0.1316
 4437TIP3    H134946   4.177   4.717   1.571 -0.0273 -0.2670  0.9009
 4437TIP3    H234947   4.193   4.851   1.639 -0.4280  0.5472 -0.5573
 4438TIP3   OH234948   2.616   0.965   2.814  0.0186  0.7989  0.3628
 4438TIP3    H134949   2.566   0.963   2.732 -1.4378 -1.0594  1.2228
 4438TIP3    H234950   2.562   0.916   2.876  2.8093 -1.1227  1.4457
 4439TIP3   OH234951   4.903   0.097   7.257 -0.3297  0.2577  0.1357
 4439TIP3    H134952   4.826   0.117   7.310  0.8464  0.4975  1.8508
 4439TIP3    H234953   4.890   0.147   7.176 -1.9899  0.2127  0.3343
 4440TIP3   OH234954   4.093   1.242   1.963  0.2695  0.2711 -0.6352
 4440TIP3    H134955   4.093   1.151   1.933  1.4812 -0.2885  0.9144
 4440TIP3    H234956   4.026   1.245   2.032 -1.0559  1.0487 -1.8795
 4441TIP3   OH234957   6.335   2.718   1.835  0.5226  0.2679  0.3684
 4441TIP3    H134958   6.375   2.738   1.751 -0.5189  2.1954  0.2590
 4441TIP3    H234959   6.308   2.627   1.829  0.8135  0.2692 -1.2385
 4442TIP3   OH234960   2.695   3.921   0.686  0.0803  0.4098  0.0781
 4442TIP3    H134961   2.759   3.851   0.701  1.0509  0.9027 -1.5031
 4442TIP3    H234962   2.747   3.995   0.655 -1.4033 -0.3117 -5.1527
 4443TIP3   OH234963   4.367   4.421   0.137 -0.7536 -0.0751  0.2989
 4443TIP3    H134964   4.436   4.387   0.195  0.3611  1.6602  0.0678
 4443TIP3    H234965   4.367   4.361   0.063  0.2643 -0.3288  0.4805
 4444TIP3   OH234966   6.721   3.739   0.553 -0.7392  0.5097 -0.0213
 4444TIP3    H134967   6.810   3.715   0.579 -1.0717 -0.5623  0.1832
 4444TIP3    H234968   6.697   3.808   0.614  1.1105  3.2235 -2.1236
 4445TIP3   OH234969   3.006   1.815   0.505 -0.6205 -0.1454  0.3698
 4445TIP3    H134970   3.047   1.898   0.531  1.9038 -1.0968 -0.2431
 4445TIP3    H234971   3.039   1.751   0.568 -0.1875 -1.1823 -0.8713
 4446TIP3   OH234972   1.846   5.263   7.947 -0.2567  0.2900  0.1061
 4446TIP3    H134973   1.771   5.206   7.932 -0.0661 -0.3947  1.5515
 4446TIP3    H234974   1.917   5.223   7.896 -0.3538 -0.2676  0.3981
 4447TIP3   OH234975   0.684   1.614   8.305 -0.0616 -0.6695 -0.2755
 4447TIP3    H134976   0.690   1.694   8.253  1.7524  1.0520  2.3253
 4447TIP3    H234977   0.717   1.545   8.248  1.0201  0.9495 -1.6954
 4448TIP3   OH234978   0.630   2.309   8.087  0.1087 -0.0436 -0.3044
 4448TIP3    H134979   0.552   2.303   8.033  0.2794  3.3748 -1.1702
 4448TIP3    H234980   0.699   2.266   8.036 -0.6380 -0.7761 -0.7125
 4449TIP3   OH234981   5.064   4.891   2.426  0.2370  0.1360  0.4347
 4449TIP3    H134982   5.145   4.881   2.377  0.5116  1.0557  0.6745
 4449TIP3    H234983   5.087   4.948   2.500 -0.0600 -1.5339  1.8801
 4450TIP3   OH234984   6.602   5.991   8.430  0.3150 -0.2852 -0.3474
 4450TIP3    H134985   6.634   6.072   8.392 -0.0124 -0.2196 -0.4879
 4450TIP3    H234986   6.642   5.922   8.377 -0.0874 -0.1963 -0.7734
 4451TIP3   OH234987   1.270   5.740   7.374 -0.1990 -0.1134  0.5439
 4451TIP3    H134988   1.357   5.719   7.410  1.2439  1.8079 -1.5511
 4451TIP3    H234989   1.278   5.725   7.280 -2.3212 -0.3323  0.3481
 4452TIP3   OH234990   2.852   4.158   8.227 -0.5129  0.4277 -0.8643
 4452TIP3    H134991   2.838   4.253   8.232 -0.7942  0.4664 -2.1228
 4452TIP3    H234992   2.828   4.135   8.137  0.5600 -0.6788 -0.8900
 4453TIP3   OH234993   4.820   6.022   0.901  0.3042  0.3124 -0.1419
 4453TIP3    H134994   4.851   6.112   0.909 -0.1169  0.4390  0.0906
 4453TIP3    H234995   4.894   5.975   0.863  0.2444  0.9240 -1.0489
 4454TIP3   OH234996   1.670   5.033   8.698 -0.0891 -0.0475 -0.3200
 4454TIP3    H134997   1.744   5.093   8.711  0.1345 -0.2550 -0.6396
 4454TIP3    H234998   1.709   4.946   8.703 -0.3048 -0.1562 -0.5571
 4455TIP3   OH234999   0.238   5.489   1.153 -0.6685  0.2313  0.1461
 4455TIP3    H135000   0.267   5.576   1.128 -1.4216  0.1858 -0.9308
 4455TIP3    H235001   0.206   5.449   1.072  2.0135 -1.9995  0.0257
 4456TIP3   OH235002   5.388   5.088   1.604  0.5825  0.4033 -0.5231
 4456TIP3    H135003   5.468   5.036   1.605 -0.4444 -1.2162  0.5086
 4456TIP3    H235004   5.417   5.177   1.622  2.1007 -0.2210  0.2272
 4457TIP3   OH235005   2.654   4.357   8.151  0.0332  0.0774 -0.0519
 4457TIP3    H135006   2.566   4.339   8.116  0.2341 -1.4746  0.1748
 4457TIP3    H235007   2.694   4.415   8.086 -0.2075 -1.3753 -1.5762
 4458TIP3   OH235008   0.226   0.828   7.386  0.0824 -0.3127 -0.4323
 4458TIP3    H135009   0.141   0.787   7.372 -0.5090  0.7579 -0.0556
 4458TIP3    H235010   0.289   0.756   7.380 -0.8613 -1.1425 -0.5238
 4459TIP3   OH235011   5.735   6.298   8.845 -0.4534  0.2174  0.2008
 4459TIP3    H135012   5.754   6.256   8.929 -1.5457  0.8901  0.7921
 4459TIP3    H235013   5.794   6.373   8.842  0.0735 -0.1902  0.0372
 4460TIP3   OH235014   5.783   0.232   0.186  0.5408 -0.1794 -0.0647
 4460TIP3    H135015   5.690   0.211   0.179  0.3359  0.0214  1.6677
 4460TIP3    H235016   5.789   0.323   0.157 -0.5152  1.1655  3.4579
 4461TIP3   OH235017   1.400   4.033   8.152 -0.4883  0.1752  0.2288
 4461TIP3    H135018   1.478   3.978   8.157  0.1535  1.1473  1.4105
 4461TIP3    H235019   1.330   3.973   8.126  0.2113 -1.1793  1.3434
 4462TIP3   OH235020   4.037   0.554   7.131  0.5601  0.2586  0.0849
 4462TIP3    H135021   4.028   0.537   7.037  2.3193  0.0478 -0.0809
 4462TIP3    H235022   4.047   0.467   7.170  0.9791  0.3994  0.3033
 4463TIP3   OH235023   2.424   4.164   8.435  0.1818 -0.2911 -0.6875
 4463TIP3    H135024   2.474   4.242   8.411 -0.0131  0.3630  0.8749
 4463TIP3    H235025   2.429   4.107   8.358  1.4774  0.6755 -1.3591
 4464TIP3   OH235026   4.026   2.588   0.645 -0.0251 -0.3357  0.2361
 4464TIP3    H135027   4.020   2.683   0.646 -1.5159 -0.3990  1.1728
 4464TIP3    H235028   4.013   2.562   0.737  0.8759 -1.4133  0.0793
 4465TIP3   OH235029   6.619   2.055   7.351  0.1161  0.2943 -0.0997
 4465TIP3    H135030   6.591   1.976   7.397 -0.9133  1.0106  0.5318
 4465TIP3    H235031   6.658   2.110   7.419  0.7926  0.3570 -0.5304
 4466TIP3   OH235032   1.303   5.868   0.021 -0.6499  0.1103 -0.1099
 4466TIP3    H135033   1.292   5.825   0.105 -1.9313  1.3690  0.4082
 4466TIP3    H235034   1.302   5.797  -0.043 -1.4770 -0.7268  0.8057
 4467TIP3   OH235035   3.471   2.653   1.529 -0.0978  0.6037 -0.1288
 4467TIP3    H135036   3.430   2.694   1.606  0.0397  2.5895 -1.0501
 4467TIP3    H235037   3.564   2.671   1.539 -0.1645  1.6189 -1.1460
 4468TIP3   OH235038   4.868   2.578   2.446  0.0535  0.2068 -0.4214
 4468TIP3    H135039   4.938   2.561   2.508  2.1073  0.2587 -2.5740
 4468TIP3    H235040   4.912   2.581   2.361 -2.5307  0.6071 -1.8431
 4469TIP3   OH235041   5.769   1.937   7.863 -0.1270  0.0917  0.0890
 4469TIP3    H135042   5.683   1.913   7.897 -1.2850  2.8769 -0.5916
 4469TIP3    H235043   5.766   1.914   7.770  0.0402 -0.2028  0.1544
 4470TIP3   OH235044   1.049   3.126   8.047  0.6630  0.0438 -0.1401
 4470TIP3    H135045   1.042   3.031   8.037  1.0131 -0.0462  0.4753
 4470TIP3    H235046   1.029   3.142   8.139 -2.2067  0.8400 -0.8079
 4471TIP3   OH235047   5.137   5.135   0.203 -0.1420  0.4110  0.0117
 4471TIP3    H135048   5.088   5.216   0.216  2.0067  1.9365 -0.9685
 4471TIP3    H235049   5.220   5.149   0.248  0.1061 -1.4528  0.2212
 4472TIP3   OH235050   6.624   2.550   7.733  0.0119  0.1407  0.0393
 4472TIP3    H135051   6.565   2.624   7.745 -0.3366 -0.3722  1.9087
 4472TIP3    H235052   6.598   2.488   7.801  1.2311 -1.0825 -0.5595
 4473TIP3   OH235053   1.536   3.507   2.365  0.1593  0.0821  0.2611
 4473TIP3    H135054   1.606   3.552   2.412  0.7509 -0.6066  0.0487
 4473TIP3    H235055   1.525   3.557   2.284  0.2261  0.3349  0.4055
 4474TIP3   OH235056   5.241   5.990   7.943  0.0455 -0.7565  0.0600
 4474TIP3    H135057   5.299   5.965   8.015  1.2572  0.7709 -0.3285
 4474TIP3    H235058   5.158   6.012   7.986 -0.2513 -2.8379  0.6367
 4475TIP3   OH235059   0.737   6.537   0.726  0.5078 -0.8167  0.2970
 4475TIP3    H135060   0.821   6.526   0.770 -0.6019 -2.9625  2.0557
 4475TIP3    H235061   0.756   6.597   0.654  3.1773  0.0746  1.5868
 4476TIP3   OH235062   6.298   3.806   1.351 -0.0197 -0.0858 -0.2351
 4476TIP3    H135063   6.276   3.766   1.266 -0.6261 -0.6323  0.1714
 4476TIP3    H235064   6.228   3.777   1.410  0.6362 -0.0707  0.5609
 4477TIP3   OH235065   1.288   6.802   0.442 -0.7364 -0.2028 -0.2698
 4477TIP3    H135066   1.223   6.754   0.391 -1.9742 -0.7979  1.7615
 4477TIP3    H235067   1.285   6.891   0.408 -0.4451 -0.8699 -2.1802
 4478TIP3   OH235068   6.239   5.862   0.846 -0.1256  0.1544  0.0718
 4478TIP3    H135069   6.280   5.821   0.770  2.4904  1.3072  0.7253
 4478TIP3    H235070   6.147   5.838   0.840  0.5815 -2.5798 -1.6007
 4479TIP3   OH235071   0.441   3.574   8.583 -0.2334  0.0759 -0.0738
 4479TIP3    H135072   0.406   3.599   8.669  2.0783  0.4181  0.8326
 4479TIP3    H235073   0.480   3.488   8.597  0.2786  0.1865 -0.7714
 4480TIP3   OH235074   3.989   2.616   8.704  0.3966 -0.5631  0.2363
 4480TIP3    H135075   3.982   2.662   8.620 -0.2801  0.1859  0.6862
 4480TIP3    H235076   3.904   2.632   8.746  1.1851  0.1535  1.6074
 4481TIP3   OH235077   0.097   5.306   7.532  0.0015 -0.1932 -0.4993
 4481TIP3    H135078   0.118   5.326   7.440 -1.2177  0.4218 -0.6668
 4481TIP3    H235079   0.004   5.285   7.531  0.2264 -1.3408  0.4372
 4482TIP3   OH235080   3.038   3.459   8.249  0.2333 -0.0176  0.8911
 4482TIP3    H135081   2.964   3.409   8.283 -0.4860 -1.6983 -2.5927
 4482TIP3    H235082   3.113   3.401   8.259 -0.6092 -2.2154 -3.1913
 4483TIP3   OH235083   3.034   4.601   8.883  0.4690  0.0869 -0.0708
 4483TIP3    H135084   3.039   4.687   8.843  1.1260  0.1341  0.0950
 4483TIP3    H235085   3.041   4.540   8.810  2.5425  0.1620 -0.0035
 4484TIP3   OH235086   6.258   1.730   8.674 -0.2010 -0.2784 -0.6656
 4484TIP3    H135087   6.264   1.736   8.769  0.1272 -0.2565 -0.6868
 4484TIP3    H235088   6.185   1.671   8.658 -0.8965  0.4950 -0.4084
 4485TIP3   OH235089   0.002   4.398   8.005  0.2900 -0.3050 -0.1146
 4485TIP3    H135090   0.011   4.477   7.952 -0.1854  1.2929  2.0468
 4485TIP3    H235091   0.072   4.341   7.974  2.6425  2.1646  0.2211
 4486TIP3   OH235092   3.041   3.475   7.824  0.1148  0.9199 -0.0635
 4486TIP3    H135093   3.123   3.506   7.784  0.6595 -0.9227 -0.4857
 4486TIP3    H235094   3.064   3.389   7.859 -1.4501  0.7372  0.5543
 4487TIP3   OH235095   0.381   4.667   0.285 -0.2359  0.5656 -0.2017
 4487TIP3    H135096   0.309   4.670   0.349  0.1500  0.0100  0.2669
 4487TIP3    H235097   0.453   4.627   0.332  0.0190  0.0287 -1.0333
 4488TIP3   OH235098   2.186   3.464   7.746 -0.7353 -0.2529 -0.7464
 4488TIP3    H135099   2.135   3.384   7.733 -2.0114 -0.0986  2.4652
 4488TIP3    H235100   2.238   3.448   7.824 -0.9510  2.0187 -0.0565
 4489TIP3   OH235101   6.067   6.250   2.857  0.5717 -0.1175  0.2276
 4489TIP3    H135102   6.095   6.265   2.767  0.1930 -0.7375 -0.0015
 4489TIP3    H235103   6.006   6.322   2.875  0.1885 -0.3217 -0.2215
 4490TIP3   OH235104   1.525   5.121   1.400  0.3999  0.0489  0.1886
 4490TIP3    H135105   1.507   5.215   1.402 -1.0332 -0.2048  1.7194
 4490TIP3    H235106   1.446   5.081   1.437  1.4843 -1.6728  0.7567
 4491TIP3   OH235107   3.607   3.701   0.356 -0.2399  0.2626 -0.6028
 4491TIP3    H135108   3.611   3.683   0.450 -1.5808  0.4944 -0.4780
 4491TIP3    H235109   3.659   3.780   0.344 -0.2476  0.3628 -0.0070
 4492TIP3   OH235110   6.171   2.892   1.497 -0.4424 -0.0850 -0.3007
 4492TIP3    H135111   6.091   2.898   1.549  0.0990  0.1737  0.5205
 4492TIP3    H235112   6.213   2.811   1.527 -0.0709  0.1227 -0.2541
 4493TIP3   OH235113   6.388   0.572   7.676 -0.4657  0.1137 -0.3153
 4493TIP3    H135114   6.431   0.546   7.757 -1.1810  0.7558  0.2958
 4493TIP3    H235115   6.458   0.611   7.623  0.6969 -3.1580 -1.4011
 4494TIP3   OH235116   4.759   5.044   2.648  0.1975  0.1531  0.7081
 4494TIP3    H135117   4.826   5.064   2.713 -1.5397  2.2983  1.9797
 4494TIP3    H235118   4.676   5.064   2.692 -1.1589 -0.0848 -1.5757
 4495TIP3   OH235119   6.326   1.757   0.065 -0.2341 -0.0848  0.2658
 4495TIP3    H135120   6.377   1.689   0.021  0.6565  0.4781  0.4062
 4495TIP3    H235121   6.347   1.746   0.158 -2.2180 -1.3685  0.6486
 4496TIP3   OH235122   1.693   6.505   7.261  0.2181 -0.2695  0.0994
 4496TIP3    H135123   1.692   6.548   7.347 -0.8719 -0.4744  0.2052
 4496TIP3    H235124   1.705   6.577   7.199  0.4530 -0.0509  0.3940
 4497TIP3   OH235125   0.990   0.830   7.828  0.0041 -0.3093  0.1608
 4497TIP3    H135126   0.923   0.877   7.779  0.9907  1.1878  0.2134
 4497TIP3    H235127   1.054   0.802   7.762  0.1341 -0.3501  0.3022
 4498TIP3   OH235128   2.691   4.868   8.069  0.0134  0.2330 -0.4117
 4498TIP3    H135129   2.717   4.936   8.006  1.1251 -0.2433 -0.4745
 4498TIP3    H235130   2.672   4.791   8.014  1.1086 -0.2206 -0.1671
 4499TIP3   OH235131   2.594   3.071   0.015  0.2137 -0.4127 -0.0605
 4499TIP3    H135132   2.580   3.079  -0.079 -1.3021 -2.0088 -0.0395
 4499TIP3    H235133   2.522   3.121   0.054 -0.0927 -1.0372  0.1987
 4500TIP3   OH235134   5.813   0.658   7.746  0.5150  0.4340 -0.7739
 4500TIP3    H135135   5.809   0.591   7.677  1.3774  1.6352 -2.0318
 4500TIP3    H235136   5.722   0.668   7.774  0.2494 -0.6137 -1.1969
 4501TIP3   OH235137   2.295   1.766   8.236  0.0393  0.4241 -0.3666
 4501TIP3    H135138   2.323   1.708   8.308 -1.1851  0.3459  0.0636
 4501TIP3    H235139   2.375   1.813   8.212  0.2158  1.5101  2.0373
 4502TIP3   OH235140   5.785   6.046   8.544 -0.8325 -0.1698  0.8002
 4502TIP3    H135141   5.711   6.008   8.496 -1.7772 -0.3597  2.3559
 4502TIP3    H235142   5.750   6.125   8.584  0.1304  0.3607  0.6281
 4503TIP3   OH235143   4.202   0.577   1.299  0.1550  0.0919  0.1496
 4503TIP3    H135144   4.271   0.579   1.366  0.0993  0.8809  0.1831
 4503TIP3    H235145   4.172   0.667   1.293  1.4902  0.4559 -2.3199
 4504TIP3   OH235146   5.759   1.926   7.173 -0.4725 -0.0160 -0.4883
 4504TIP3    H135147   5.835   1.981   7.156 -1.1124  1.3544  0.9177
 4504TIP3    H235148   5.761   1.861   7.102  1.8196  0.1455 -0.6482
 4505TIP3   OH235149   6.109   2.230   1.457 -0.3779  0.8844  0.1523
 4505TIP3    H135150   6.136   2.148   1.499 -1.0138 -0.1263 -1.3375
 4505TIP3    H235151   6.017   2.215   1.434  0.5208  0.4116 -3.7268
 4506TIP3   OH235152   0.222   6.001   8.618  0.1230  0.3848  0.0883
 4506TIP3    H135153   0.286   6.023   8.551 -1.4140  0.5539 -1.3731
 4506TIP3    H235154   0.205   5.907   8.606 -0.9524  0.6435 -0.4867
 4507TIP3   OH235155   5.660   0.391   8.349 -0.4638 -0.5163 -0.8703
 4507TIP3    H135156   5.744   0.437   8.338 -0.6015  0.0712  0.3198
 4507TIP3    H235157   5.678   0.301   8.322  0.8561 -0.6614  0.3323
 4508TIP3   OH235158   4.307   6.353   0.090  0.2474  0.9149  0.5616
 4508TIP3    H135159   4.332   6.278   0.145  0.7764  0.4113 -0.3302
 4508TIP3    H235160   4.333   6.327   0.001 -0.1460  1.9031  0.1410
 4509TIP3   OH235161   4.066   6.185   1.867  0.2474 -1.3096  0.2973
 4509TIP3    H135162   4.027   6.148   1.788 -0.6779  0.0688  0.0904
 4509TIP3    H235163   4.030   6.131   1.938 -3.2195  0.6794  0.2604
 4510TIP3   OH235164   2.644   3.496   0.700  0.6616  0.4948 -0.1464
 4510TIP3    H135165   2.728   3.483   0.656  0.6183  0.8830 -0.3461
 4510TIP3    H235166   2.601   3.410   0.696  0.9004  0.3845 -0.3558
 4511TIP3   OH235167   1.382   3.485   0.423  0.8756 -0.7879  0.0734
 4511TIP3    H135168   1.333   3.474   0.504 -0.2572  0.3721 -0.4068
 4511TIP3    H235169   1.467   3.444   0.440  0.7442 -0.3863  1.9091
 4512TIP3   OH235170   1.361   2.072   0.835  0.3516  0.0348 -0.3497
 4512TIP3    H135171   1.357   2.011   0.908  0.0131 -1.1097 -1.2960
 4512TIP3    H235172   1.454   2.090   0.823  0.4289 -0.0174  0.1442
 4513TIP3   OH235173   2.517   1.776   7.658 -0.0270 -0.5936  0.4826
 4513TIP3    H135174   2.570   1.832   7.715 -0.2202  1.4200 -1.1957
 4513TIP3    H235175   2.581   1.722   7.612  0.4982  0.7472 -0.4156
 4514TIP3   OH235176   1.565   3.625   2.124  0.0776 -0.1607  0.1872
 4514TIP3    H135177   1.612   3.709   2.123 -0.1370 -0.0401  0.2504
 4514TIP3    H235178   1.622   3.566   2.074 -0.6862  0.5159 -1.5509
 4515TIP3   OH235179   1.639   0.103   1.962 -0.7828 -0.1059  0.1963
 4515TIP3    H135180   1.591   0.178   1.927  0.4664  2.0490  2.7346
 4515TIP3    H235181   1.613   0.099   2.054  0.2660 -1.9251  0.4588
 4516TIP3   OH235182   6.116   4.176   0.240  0.0754  0.0197  0.0879
 4516TIP3    H135183   6.026   4.169   0.273 -0.8709 -0.7157 -2.4616
 4516TIP3    H235184   6.160   4.098   0.273 -0.7164 -0.4781 -0.0206
 4517TIP3   OH235185   3.069   0.060   8.193 -0.4744  0.0608  0.0420
 4517TIP3    H135186   3.162   0.074   8.208 -0.7000  1.1586  0.5604
 4517TIP3    H235187   3.058  -0.035   8.196  0.6457 -0.0952 -0.2017
 4518TIP3   OH235188   1.373   4.561   7.043 -0.0004  0.2319  0.1444
 4518TIP3    H135189   1.332   4.627   6.988 -0.5748  0.2916  0.6368
 4518TIP3    H235190   1.322   4.561   7.124  1.3997  0.8195  1.0683
 4519TIP3   OH235191   4.209   1.055   1.737 -0.4090 -0.1099  0.0668
 4519TIP3    H135192   4.154   0.999   1.683 -0.2065 -0.4532  0.2090
 4519TIP3    H235193   4.239   1.124   1.678 -0.1694 -0.4944 -0.2685
 4520TIP3   OH235194   0.376   5.753   0.871  0.1767 -0.1879 -0.0134
 4520TIP3    H135195   0.469   5.750   0.891  0.0325  0.3981  0.7987
 4520TIP3    H235196   0.372   5.788   0.782  0.7905 -1.8619 -0.7344
 4521TIP3   OH235197   5.663   3.017   8.149  0.1944 -0.3192  0.5582
 4521TIP3    H135198   5.571   2.999   8.169  0.2774 -0.2320  1.0366
 4521TIP3    H235199   5.667   3.023   8.053  0.3217 -3.8129  0.2223
 4522TIP3   OH235200   4.697   5.524   7.683 -0.6722 -0.2835  0.3095
 4522TIP3    H135201   4.663   5.460   7.747 -2.6795 -1.4763 -1.7706
 4522TIP3    H235202   4.634   5.596   7.687  0.7974  0.9953  1.6263
 4523TIP3   OH235203   2.789   1.277   7.259  0.4579 -0.0845 -0.2614
 4523TIP3    H135204   2.806   1.337   7.187  0.7235 -0.9698 -0.9482
 4523TIP3    H235205   2.694   1.281   7.271  0.6371  2.1167  1.1796
 4524TIP3   OH235206   1.357   4.988   7.676  0.0946  0.0203  0.5126
 4524TIP3    H135207   1.275   4.939   7.668 -0.2589  0.5919  0.6090
 4524TIP3    H235208   1.356   5.022   7.766 -0.2898  1.3180  0.0308
 4525TIP3   OH235209   5.201   5.893   8.615 -0.0508  0.5117  0.0588
 4525TIP3    H135210   5.258   5.970   8.614 -1.0411  1.2586 -0.1231
 4525TIP3    H235211   5.241   5.834   8.679  2.5111 -0.2312 -2.0629
 4526TIP3   OH235212   1.601   4.857   8.387 -0.3980  0.1184  0.2643
 4526TIP3    H135213   1.555   4.790   8.336 -1.0655 -0.2113  1.2589
 4526TIP3    H235214   1.543   4.873   8.462  0.0448  1.3692  0.3603
 4527TIP3   OH235215   1.118   3.405   1.565 -0.1270 -0.5247 -0.1957
 4527TIP3    H135216   1.032   3.438   1.541  0.2638  0.7796  0.1411
 4527TIP3    H235217   1.166   3.400   1.483  0.1656  0.8471 -0.1326
 4528TIP3   OH235218   2.218   6.529   7.474 -0.3900 -0.4009  0.1770
 4528TIP3    H135219   2.252   6.616   7.455  1.2211 -1.2434 -0.9894
 4528TIP3    H235220   2.286   6.487   7.525 -0.4390 -1.5062 -0.6259
 4529TIP3   OH235221   0.558   3.405   1.719 -0.0748  0.5785 -0.1020
 4529TIP3    H135222   0.567   3.325   1.667  1.9866 -1.3673  2.9212
 4529TIP3    H235223   0.608   3.471   1.671  1.9062 -1.1599 -0.5734
 4530TIP3   OH235224   0.863   0.330   0.928 -0.3359  0.2423 -0.2608
 4530TIP3    H135225   0.880   0.244   0.965  0.4068  0.9434  1.0747
 4530TIP3    H235226   0.944   0.352   0.882 -0.3500  0.4356 -0.1915
 4531TIP3   OH235227   0.705   2.266   6.867 -0.1587  0.3188 -0.1263
 4531TIP3    H135228   0.668   2.341   6.821  0.5824  1.0468  0.4351
 4531TIP3    H235229   0.787   2.298   6.904 -0.2212 -0.5341  0.8184
 4532TIP3   OH235230   3.246   1.118   7.852 -0.0017  0.0151 -0.4541
 4532TIP3    H135231   3.322   1.080   7.895 -0.3618 -1.9530 -1.4538
 4532TIP3    H235232   3.171   1.080   7.898 -0.3663 -0.5551 -1.4857
 4533TIP3   OH235233   1.977   2.225   7.249 -0.2323 -0.9345  0.3111
 4533TIP3    H135234   1.940   2.167   7.183 -0.4634  1.3538 -1.7401
 4533TIP3    H235235   1.904   2.241   7.310 -0.1744 -2.6757  0.8650
 4534TIP3   OH235236   6.813   0.810   1.671 -0.1690  0.0604 -0.8444
 4534TIP3    H135237   6.868   0.876   1.713 -2.1272  1.2595 -0.0897
 4534TIP3    H235238   6.829   0.823   1.577  0.7767  0.4144 -0.6496
 4535TIP3   OH235239   6.225   2.614   1.545  0.1869  0.1145 -0.4709
 4535TIP3    H135240   6.167   2.604   1.621  0.2509  1.9338 -0.1402
 4535TIP3    H235241   6.186   2.558   1.478 -0.7089 -0.3976  0.4392
 4536TIP3   OH235242   5.604   4.895   7.891 -0.5202 -0.0797 -0.0240
 4536TIP3    H135243   5.588   4.808   7.856 -0.9130  0.4263 -1.1520
 4536TIP3    H235244   5.608   4.952   7.814 -1.3150  1.0581  0.7314
 4537TIP3   OH235245   0.931   2.527   7.535  0.0421 -0.0485  0.6535
 4537TIP3    H135246   0.887   2.507   7.452  0.8980  1.2945 -0.1606
 4537TIP3    H235247   0.985   2.450   7.553  0.0355 -0.2489 -0.1656
 4538TIP3   OH235248   3.974   1.968   7.256  0.0119  0.6235 -0.3937
 4538TIP3    H135249   3.903   1.905   7.268  0.3735  0.3641  0.4539
 4538TIP3    H235250   4.006   1.950   7.168  0.9054 -1.2361  0.2545
 4539TIP3   OH235251   2.277   3.291   8.391  0.6687 -0.3479 -0.0652
 4539TIP3    H135252   2.324   3.210   8.370 -0.6451 -0.6779 -1.9545
 4539TIP3    H235253   2.311   3.355   8.330 -0.0726 -0.1330 -0.2629
 4540TIP3   OH235254   5.994   5.350   6.823 -0.2193  0.2616  0.0695
 4540TIP3    H135255   5.936   5.395   6.762 -0.3375 -0.7189 -0.5674
 4540TIP3    H235256   6.076   5.338   6.774 -0.5927 -1.2840 -0.2396
 4541TIP3   OH235257   3.296   2.216   1.420  0.1387 -0.6793 -0.1817
 4541TIP3    H135258   3.314   2.296   1.371 -1.2041  2.0456  3.3987
 4541TIP3    H235259   3.201   2.206   1.416  0.0433 -0.6487  1.4299
 4542TIP3   OH235260   0.819   0.731   1.198  0.3747  1.2882 -1.0454
 4542TIP3    H135261   0.853   0.642   1.211 -0.7181  0.2071 -4.5519
 4542TIP3    H235262   0.874   0.786   1.254  2.3303 -1.3581 -0.1764
 4543TIP3   OH235263   0.588   3.765   1.671  0.4087  0.0832 -0.3374
 4543TIP3    H135264   0.667   3.713   1.667  0.5221  0.2659 -0.4909
 4543TIP3    H235265   0.522   3.713   1.625  0.0990 -0.6556  0.8988
 4544TIP3   OH235266   6.798   4.110   1.264 -0.3938  0.1047  0.0338
 4544TIP3    H135267   6.810   4.123   1.358  1.5280  1.4745 -0.3402
 4544TIP3    H235268   6.835   4.024   1.246  0.3668  0.3518  0.3727
 4545TIP3   OH235269   5.661   6.565   8.251  0.5700 -0.3351  0.2899
 4545TIP3    H135270   5.662   6.490   8.192  1.8094  0.0591 -0.2371
 4545TIP3    H235271   5.661   6.641   8.192  1.9931  0.0632  0.7656
 4546TIP3   OH235272   5.081   1.133   2.058  0.5254 -0.9153 -0.6477
 4546TIP3    H135273   5.102   1.043   2.035  2.7034 -0.9220  1.0423
 4546TIP3    H235274   5.113   1.143   2.148  1.5432  1.8826 -1.2208
 4547TIP3   OH235275   1.096   3.295   8.840 -0.1251 -0.1334  0.1100
 4547TIP3    H135276   1.040   3.368   8.814 -1.2594 -1.6597 -2.0110
 4547TIP3    H235277   1.063   3.269   8.926  0.7676  2.2078  1.2567
 4548TIP3   OH235278   5.870   6.127   1.804  0.1948 -0.3096 -0.0001
 4548TIP3    H135279   5.910   6.086   1.728  0.1477  0.9519 -0.7396
 4548TIP3    H235280   5.902   6.076   1.879  0.6764 -1.2321 -0.8188
 4549TIP3   OH235281   5.462   3.657   1.280  0.5776  0.5437 -0.0792
 4549TIP3    H135282   5.485   3.681   1.190 -0.1409 -0.7117 -0.6193
 4549TIP3    H235283   5.367   3.657   1.281  0.5792 -0.1143  0.4978
 4550TIP3   OH235284   3.487   1.657   8.391 -0.2397  0.0404  0.2995
 4550TIP3    H135285   3.465   1.627   8.303  2.2474  0.0478 -0.3994
 4550TIP3    H235286   3.488   1.577   8.444  0.1258 -0.2309 -0.1127
 4551TIP3   OH235287   0.552   2.150   1.311  0.1266  0.5730 -0.1853
 4551TIP3    H135288   0.541   2.179   1.401 -2.2262 -2.3648  0.6419
 4551TIP3    H235289   0.645   2.129   1.303  0.0476 -1.1733  2.3678
 4552TIP3   OH235290   2.413   0.329   1.963 -0.0517  0.0640 -0.1408
 4552TIP3    H135291   2.497   0.305   2.002  0.0958 -1.3894 -1.2806
 4552TIP3    H235292   2.392   0.414   2.003  2.5560  1.0846 -0.7224
 4553TIP3   OH235293   1.398   4.492   8.005 -0.0227  0.2379 -0.0636
 4553TIP3    H135294   1.417   4.520   7.916 -0.4783  0.8884  0.0336
 4553TIP3    H235295   1.303   4.500   8.012 -0.0684 -0.5140  0.2490
 4554TIP3   OH235296   1.292   1.262   6.455  0.3351 -0.5755  0.2857
 4554TIP3    H135297   1.260   1.303   6.535  0.3579  0.1745 -0.0800
 4554TIP3    H235298   1.387   1.259   6.466  0.3965  0.1584  0.0008
 4555TIP3   OH235299   5.912   5.315   2.254 -0.0747 -0.5471  0.0113
 4555TIP3    H135300   5.875   5.313   2.342  0.5936 -1.2028  0.2932
 4555TIP3    H235301   6.005   5.333   2.269  0.0942 -0.9631 -0.5458
 4556TIP3   OH235302   5.107   3.056   7.990  0.6391  0.1528  0.0719
 4556TIP3    H135303   5.128   3.142   8.026 -3.2318  0.7881  1.3573
 4556TIP3    H235304   5.113   3.067   7.895 -3.4415  3.2738 -0.1202
 4557TIP3   OH235305   1.079   4.730   2.504  0.5112  0.1347  0.4383
 4557TIP3    H135306   1.026   4.799   2.544 -0.6112 -0.7328  0.4897
 4557TIP3    H235307   1.158   4.775   2.474 -0.0554  1.3784  0.7492
 4558TIP3   OH235308   6.594   3.963   7.510  0.3243  0.1428 -0.8377
 4558TIP3    H135309   6.529   3.992   7.447  0.8747 -0.2464 -1.5963
 4558TIP3    H235310   6.594   3.867   7.502  0.6991  0.1175 -0.5572
 4559TIP3   OH235311   4.066   1.436   7.589  0.3291  0.3856 -0.2314
 4559TIP3    H135312   4.083   1.384   7.511  1.9755  0.4639  0.0289
 4559TIP3    H235313   4.043   1.372   7.656  3.3294 -0.2312  0.3595
 4560TIP3   OH235314   5.543   2.104   0.479 -0.7786  0.4194  0.7958
 4560TIP3    H135315   5.487   2.030   0.458 -0.6673  0.5548  0.0163
 4560TIP3    H235316   5.629   2.065   0.494 -0.7006  0.4025  0.3010
 4561TIP3   OH235317   4.862   1.523   2.107 -0.3864  0.1401  0.3805
 4561TIP3    H135318   4.880   1.443   2.057  0.1159  0.4894 -0.0105
 4561TIP3    H235319   4.940   1.534   2.161  0.3490  1.3231 -0.8541
 4562TIP3   OH235320   6.145   1.297   0.643 -0.2713 -0.2317 -0.1058
 4562TIP3    H135321   6.223   1.344   0.671 -0.2499 -1.2439  1.6931
 4562TIP3    H235322   6.178   1.218   0.601 -0.3193 -0.1110 -0.3692
 4563TIP3   OH235323   1.240   1.639   7.419  0.3058 -0.1130 -0.5638
 4563TIP3    H135324   1.153   1.680   7.420  0.3272  0.1240  2.7092
 4563TIP3    H235325   1.266   1.641   7.327 -3.1423 -0.2452 -1.6879
 4564TIP3   OH235326   2.037   4.207   8.192  0.0817  0.2912 -0.3398
 4564TIP3    H135327   2.050   4.129   8.247  0.9876 -0.3101 -1.3643
 4564TIP3    H235328   2.036   4.280   8.254 -0.0862 -0.4693  0.5825
 4565TIP3   OH235329   1.771   6.165   2.478 -0.1932  0.4464 -0.4781
 4565TIP3    H135330   1.703   6.154   2.412 -1.6947  1.0749  0.9195
 4565TIP3    H235331   1.746   6.107   2.549  1.6001 -0.5002 -0.5461
 4566TIP3   OH235332   6.475   1.683   7.194  0.3847 -0.3853 -0.5371
 4566TIP3    H135333   6.488   1.589   7.206  0.1745 -0.1327  2.3860
 4566TIP3    H235334   6.556   1.713   7.153  2.1069 -1.3599  1.8963
 4567TIP3   OH235335   2.827   0.884   0.540  0.0834  0.4602 -0.1080
 4567TIP3    H135336   2.782   0.852   0.462 -0.6456  0.0451  0.4686
 4567TIP3    H235337   2.810   0.817   0.606  2.3737 -0.2093 -0.1253
 4568TIP3   OH235338   4.232   0.140   7.276  0.0976 -0.0329  0.0548
 4568TIP3    H135339   4.169   0.211   7.266 -0.0622 -0.3724 -1.7682
 4568TIP3    H235340   4.191   0.079   7.337 -0.0715  1.0812  1.0733
 4569TIP3   OH235341   4.285   4.448   7.927  0.8223 -0.0867  0.4059
 4569TIP3    H135342   4.339   4.437   7.848  0.1224  0.3780 -0.1609
 4569TIP3    H235343   4.195   4.445   7.894  0.5044 -0.6539  1.3043
 4570TIP3   OH235344   2.564   1.850   8.112 -0.0209 -0.3776 -0.4364
 4570TIP3    H135345   2.556   1.861   8.018  2.2558 -0.7124 -0.7295
 4570TIP3    H235346   2.640   1.792   8.123 -0.8878 -1.2228  1.5678
 4571TIP3   OH235347   3.619   4.173   1.188  0.8103  0.2240  0.1769
 4571TIP3    H135348   3.591   4.232   1.119  1.7520 -0.6562 -0.9982
 4571TIP3    H235349   3.707   4.202   1.211  2.2297 -1.9482 -1.9889
 4572TIP3   OH235350   3.849   1.366   0.287  0.1548  0.0350 -0.5110
 4572TIP3    H135351   3.907   1.321   0.226 -0.3386 -0.3449 -0.6959
 4572TIP3    H235352   3.765   1.322   0.279  0.0441  0.0786  0.3329
 4573TIP3   OH235353   2.890   0.535   7.964  0.3423 -0.3028 -0.1276
 4573TIP3    H135354   2.842   0.455   7.944 -0.6890  0.2345  0.1232
 4573TIP3    H235355   2.886   0.586   7.883 -1.3790  0.6505  0.5097
 4574TIP3   OH235356   1.770   3.852   0.316  0.2096  0.8498 -0.4433
 4574TIP3    H135357   1.781   3.848   0.221  0.2277 -1.7952 -0.4201
 4574TIP3    H235358   1.856   3.877   0.349  1.0476 -0.9738 -1.0655
 4575TIP3   OH235359   6.757   0.447   0.673 -0.8025  0.2150 -0.1748
 4575TIP3    H135360   6.698   0.518   0.697 -0.2749  0.9302 -0.9561
 4575TIP3    H235361   6.713   0.402   0.601  0.5125  2.0888 -2.2763
 4576TIP3   OH235362   0.780   5.708   1.646 -0.1155 -0.0832 -0.0941
 4576TIP3    H135363   0.795   5.626   1.599 -2.3783 -0.2719 -0.6212
 4576TIP3    H235364   0.740   5.681   1.729 -4.0627  0.4313 -1.5996
 4577TIP3   OH235365   0.779   0.285   8.786  0.3254 -0.5693  0.2122
 4577TIP3    H135366   0.866   0.285   8.744  0.8449  0.1336  1.2531
 4577TIP3    H235367   0.719   0.261   8.715  1.5787 -3.3641 -0.0224
 4578TIP3   OH235368   3.092   5.881   0.831  0.0350  0.1868 -0.6957
 4578TIP3    H135369   3.168   5.872   0.773 -0.4915  1.3361 -1.5989
 4578TIP3    H235370   3.128   5.921   0.911  0.3325  1.1254 -1.2781
 4579TIP3   OH235371   0.056   2.420   7.759 -0.2670  0.1762 -0.5379
 4579TIP3    H135372  -0.019   2.472   7.732 -0.1271  0.5811 -0.1463
 4579TIP3    H235373   0.019   2.338   7.792 -0.6965  1.2165  1.7054
 4580TIP3   OH235374   0.360   1.169   0.746 -0.1416 -0.2568 -0.1189
 4580TIP3    H135375   0.422   1.146   0.816  0.5850 -2.1826 -1.3322
 4580TIP3    H235376   0.287   1.211   0.792  0.5555 -0.9826  1.7391
 4581TIP3   OH235377   2.679   1.148   1.400  0.6416 -0.7283 -0.0877
 4581TIP3    H135378   2.717   1.227   1.359 -1.9094  2.4374  3.0415
 4581TIP3    H235379   2.605   1.126   1.344  0.7232 -0.2467 -0.3930
 4582TIP3   OH235380   0.053   4.153   7.387  0.1146  0.0670 -0.1449
 4582TIP3    H135381   0.148   4.144   7.395  0.2457  0.8309 -0.6832
 4582TIP3    H235382   0.041   4.228   7.328 -0.8314  0.6459  0.7485
 4583TIP3   OH235383   3.133   3.485   0.804  0.0738 -0.2603 -0.2824
 4583TIP3    H135384   3.102   3.565   0.847 -0.5187 -0.7260  0.1614
 4583TIP3    H235385   3.060   3.423   0.813  0.4597 -0.7938 -0.7832
 4584TIP3   OH235386   1.472   0.139   7.255 -0.1702  0.3805  0.1099
 4584TIP3    H135387   1.511   0.178   7.333  0.0110  0.1265  0.1470
 4584TIP3    H235388   1.543   0.138   7.191  0.4648 -1.7724  0.7406
 4585TIP3   OH235389   6.661   1.597   1.171 -0.5087 -0.5489  0.0622
 4585TIP3    H135390   6.685   1.676   1.123  0.0121 -0.4516  0.4795
 4585TIP3    H235391   6.724   1.592   1.243 -1.2574 -0.7180  0.7146
 4586TIP3   OH235392   2.586   4.769   1.853  0.0455  0.1864 -0.7136
 4586TIP3    H135393   2.517   4.757   1.788 -0.4650 -4.2920  0.2984
 4586TIP3    H235394   2.541   4.760   1.937  1.3013  1.4819  0.1472
 4587TIP3   OH235395   4.477   0.490   1.838 -0.0307  0.1777 -0.2598
 4587TIP3    H135396   4.395   0.467   1.793  0.4450 -1.7076 -0.2709
 4587TIP3    H235397   4.473   0.585   1.848 -2.1266  0.1649 -0.4351
 4588TIP3   OH235398   1.939   1.633   1.311  0.4179  0.1915  0.7926
 4588TIP3    H135399   1.878   1.559   1.309  0.8629 -0.1817  0.9452
 4588TIP3    H235400   1.927   1.671   1.398 -0.2039  0.6419  0.5241
 4589TIP3   OH235401   6.172   3.363   2.273 -0.6173 -0.3544 -0.1780
 4589TIP3    H135402   6.237   3.336   2.208 -0.2486  1.0891 -0.4283
 4589TIP3    H235403   6.193   3.454   2.293 -2.1249 -0.0661  0.2631
 4590TIP3   OH235404   5.962   3.243   2.358 -0.2179  0.1385 -1.4307
 4590TIP3    H135405   6.032   3.281   2.305  0.1937 -1.3172 -1.9717
 4590TIP3    H235406   5.988   3.262   2.448  1.8389 -1.8525 -1.5052
 4591TIP3   OH235407   1.719   1.467   1.440  0.3518 -0.2952  0.0990
 4591TIP3    H135408   1.708   1.381   1.400  0.4320 -2.0986  3.6063
 4591TIP3    H235409   1.633   1.488   1.476  0.2976  1.2313 -0.8401
 4592TIP3   OH235410   1.882   1.936   2.144  0.0858  0.0091 -0.1412
 4592TIP3    H135411   1.888   1.856   2.092 -0.9318  0.6354 -1.2485
 4592TIP3    H235412   1.809   1.921   2.204  0.5861 -0.2903  0.4170
 4593TIP3   OH235413   6.661   2.795   0.146 -0.0724 -0.1527 -0.0889
 4593TIP3    H135414   6.687   2.757   0.230 -2.1147  0.7398  1.0375
 4593TIP3    H235415   6.691   2.885   0.150  0.2469 -0.2418 -0.5164
 4594TIP3   OH235416   2.933   4.399   2.027 -0.6661 -0.0174  0.0869
 4594TIP3    H135417   2.934   4.406   2.123  0.7445  0.2756  0.0672
 4594TIP3    H235418   2.892   4.480   1.997  0.1700  0.5411  0.4108
 4595TIP3   OH235419   2.709   5.857   6.997  0.2513 -0.1629 -0.3278
 4595TIP3    H135420   2.644   5.878   6.930  0.8271  2.8336 -0.0851
 4595TIP3    H235421   2.792   5.856   6.950  0.4898  0.4843  0.0633
 4596TIP3   OH235422   2.271   3.059   0.783 -0.2441 -0.0086  0.5647
 4596TIP3    H135423   2.363   3.035   0.799 -0.6707 -0.1735  3.4250
 4596TIP3    H235424   2.239   2.992   0.724  0.8079 -1.5923  1.6974
 4597TIP3   OH235425   4.679   1.458   6.679  0.2963  0.4250 -0.1957
 4597TIP3    H135426   4.756   1.494   6.637 -0.2755  1.7611 -0.1394
 4597TIP3    H235427   4.686   1.486   6.770  0.7578 -1.1757  0.3030
 4598TIP3   OH235428   6.082   0.703   8.384  0.0602 -0.0619 -0.3657
 4598TIP3    H135429   6.154   0.640   8.385  1.3394  1.3047  0.9066
 4598TIP3    H235430   6.109   0.769   8.321 -0.6759 -0.1525 -0.7854
 4599TIP3   OH235431   2.895   2.441   1.202 -0.1774  0.1212 -1.0107
 4599TIP3    H135432   2.871   2.468   1.113  0.4090 -0.9610 -1.5137
 4599TIP3    H235433   2.861   2.352   1.210 -1.5610  0.7259  0.4105
 4600TIP3   OH235434   1.510   5.680   0.766  0.0136 -0.1807  0.6526
 4600TIP3    H135435   1.540   5.594   0.736 -2.5487 -1.0709  0.3864
 4600TIP3    H235436   1.490   5.667   0.859 -0.4418  0.0993  0.5945
 4601TIP3   OH235437   3.065   3.755   1.381  0.1205  0.4973 -0.1374
 4601TIP3    H135438   3.034   3.767   1.471 -0.8043  1.5926 -0.5746
 4601TIP3    H235439   2.994   3.707   1.338  0.0817  0.9061 -0.5381
 4602TIP3   OH235440   3.709   2.842   0.493 -0.2386 -0.6808  0.0665
 4602TIP3    H135441   3.746   2.877   0.411  0.2933 -0.8092  0.2459
 4602TIP3    H235442   3.623   2.809   0.468 -0.8699  0.9950 -0.0573
 4603TIP3   OH235443   3.829   5.573   7.190  0.2931  0.4619 -0.2833
 4603TIP3    H135444   3.922   5.579   7.210  0.1105 -1.2645  1.3611
 4603TIP3    H235445   3.825   5.558   7.096  1.7226 -0.1196 -0.2639
 4604TIP3   OH235446   4.658   2.149   8.454 -0.5698  0.4160  0.0733
 4604TIP3    H135447   4.656   2.067   8.503  5.2534 -1.0002 -1.3385
 4604TIP3    H235448   4.656   2.123   8.362 -3.8230  2.4751 -0.6102
 4605TIP3   OH235449   5.865   5.911   6.913  0.6361  0.4032  0.1735
 4605TIP3    H135450   5.869   5.817   6.898  2.0513 -0.0286  2.6959
 4605TIP3    H235451   5.777   5.926   6.947  0.4679 -0.0298 -0.0582
 4606TIP3   OH235452   3.371   6.454   7.005  0.2170 -0.1580  0.7971
 4606TIP3    H135453   3.459   6.492   7.011  0.1970 -0.3109  3.5995
 4606TIP3    H235454   3.326   6.508   6.941  1.2931  2.3230  1.9644
 4607TIP3   OH235455   1.699   2.420   1.668  1.0044 -0.0784 -0.3229
 4607TIP3    H135456   1.685   2.499   1.615 -1.8411 -1.4465 -1.9039
 4607TIP3    H235457   1.745   2.451   1.746 -1.7898  3.5892  0.1867
 4608TIP3   OH235458   0.906   6.462   2.329 -0.7564  0.4448 -0.0521
 4608TIP3    H135459   0.933   6.538   2.380 -0.0537  0.5211 -0.5244
 4608TIP3    H235460   0.812   6.455   2.345 -1.2681  2.6269 -1.5385
 4609TIP3   OH235461   6.767   0.978   0.748 -0.1832 -0.1390 -0.5746
 4609TIP3    H135462   6.722   0.896   0.729 -0.4395 -0.6647  2.0116
 4609TIP3    H235463   6.859   0.960   0.730 -0.4407 -0.4352 -1.6562
 4610TIP3   OH235464   4.290   3.444   0.230  0.0764  0.6437 -0.1201
 4610TIP3    H135465   4.205   3.410   0.257 -0.8493  1.3321 -1.9658
 4610TIP3    H235466   4.300   3.526   0.279 -0.3312  0.5732  0.0802
 4611TIP3   OH235467   6.170   6.700   0.337 -0.5305  0.3638  0.1151
 4611TIP3    H135468   6.121   6.777   0.364 -2.5827 -0.4435 -1.1346
 4611TIP3    H235469   6.111   6.626   0.354  0.3479 -0.6768 -1.1720
 4612TIP3   OH235470   2.140   1.945   0.054 -0.2551  0.2501  0.9022
 4612TIP3    H135471   2.145   1.925  -0.040 -0.7136  0.5123  0.8183
 4612TIP3    H235472   2.196   1.879   0.095  0.9034  0.8597  0.3484
 4613TIP3   OH235473   5.561   1.754   0.250 -0.1198 -0.8386 -0.4681
 4613TIP3    H135474   5.648   1.779   0.280 -1.8490  1.5899  3.2196
 4613TIP3    H235475   5.537   1.823   0.188 -0.7525  0.7869  1.4703
 4614TIP3   OH235476   4.508   6.596   8.683  0.0698  0.2036  0.5573
 4614TIP3    H135477   4.468   6.510   8.664  0.9324 -0.1419  0.2496
 4614TIP3    H235478   4.539   6.589   8.773  0.8567 -0.1075  0.2737
 4615TIP3   OH235479   4.619   0.535   8.618 -0.1557  0.2553  0.3737
 4615TIP3    H135480   4.563   0.589   8.562  0.6074 -0.4239 -1.1037
 4615TIP3    H235481   4.693   0.512   8.563 -0.0228 -1.5610  1.2368
 4616TIP3   OH235482   1.976   3.976   2.006  0.2255 -0.7086  0.6969
 4616TIP3    H135483   2.015   3.981   2.093 -1.1429 -0.7125  1.3475
 4616TIP3    H235484   2.049   3.990   1.946  0.8958  1.3446  1.8692
 4617TIP3   OH235485   1.285   2.730   1.138 -0.1718  0.3617  0.2067
 4617TIP3    H135486   1.357   2.673   1.113  1.0325  2.1987 -0.7362
 4617TIP3    H235487   1.236   2.744   1.058  1.2325  2.8594 -0.3335
 4618TIP3   OH235488   1.493   1.948   1.283  0.0945 -0.4005  0.4775
 4618TIP3    H135489   1.429   2.003   1.327 -1.1809 -0.3986 -1.2847
 4618TIP3    H235490   1.573   2.001   1.280 -0.0966 -0.0081  1.7975
 4619TIP3   OH235491   2.353   3.975   0.618 -0.2826  0.4138  0.3862
 4619TIP3    H135492   2.384   4.019   0.697  0.8619 -1.0445  0.8127
 4619TIP3    H235493   2.432   3.962   0.565 -0.8197  0.2078 -0.3858
 4620TIP3   OH235494   5.033   0.599   2.841 -0.3070 -0.4274  0.9096
 4620TIP3    H135495   5.106   0.538   2.843 -1.6052 -2.3486 -2.4069
 4620TIP3    H235496   4.958   0.547   2.872 -1.0765  0.1063 -0.0208
 4621TIP3   OH235497   3.798   3.293   1.082  0.0300 -0.3521 -0.2986
 4621TIP3    H135498   3.737   3.220   1.068  1.8457 -1.5405 -2.7351
 4621TIP3    H235499   3.844   3.302   0.999  1.6871  1.9150  0.7661
 4622TIP3   OH235500   1.090   3.954   8.839  0.8894 -0.5236 -0.1865
 4622TIP3    H135501   1.001   3.926   8.819  0.8272 -1.3450  1.0981
 4622TIP3    H235502   1.135   3.957   8.754 -0.1341 -0.9060 -0.7494
 4623TIP3   OH235503   6.232   3.324   0.867 -0.2288  0.0682  0.0538
 4623TIP3    H135504   6.182   3.245   0.850 -0.2846  0.2329 -0.5444
 4623TIP3    H235505   6.272   3.309   0.953 -2.6648  0.6402  1.3619
 4624TIP3   OH235506   5.394   6.305   1.238 -0.2730  0.1857  0.0467
 4624TIP3    H135507   5.340   6.240   1.282  0.4392 -0.8692 -0.5950
 4624TIP3    H235508   5.345   6.329   1.160 -0.6691  0.6525  0.4306
 4625TIP3   OH235509   3.602   1.065   1.544  0.1197  0.3777  0.0704
 4625TIP3    H135510   3.602   1.144   1.490 -0.5318 -0.5084 -1.2775
 4625TIP3    H235511   3.632   1.095   1.630  0.2446  2.0124 -0.5050
 4626TIP3   OH235512   0.818   0.081   0.286  0.0983 -0.6857  0.3640
 4626TIP3    H135513   0.779   0.168   0.289 -0.4097 -0.9278  2.9451
 4626TIP3    H235514   0.883   0.087   0.216 -0.5033  1.5076 -0.0943
 4627TIP3   OH235515   6.613   1.818   0.260 -0.0238  0.5704  0.1251
 4627TIP3    H135516   6.538   1.781   0.305  0.2331 -0.0014  0.0865
 4627TIP3    H235517   6.616   1.772   0.176  0.3012  0.6758  0.0774
 4628TIP3   OH235518   3.628   4.551   1.648 -0.6700 -0.6204  0.2726
 4628TIP3    H135519   3.677   4.633   1.652 -2.1861  0.2638  1.4421
 4628TIP3    H235520   3.695   4.485   1.627  0.6452  0.8183 -0.2992
 4629TIP3   OH235521   3.454   4.841   0.536 -0.2496 -0.0845 -0.5088
 4629TIP3    H135522   3.473   4.832   0.443  2.6666  0.5511 -0.0609
 4629TIP3    H235523   3.531   4.805   0.580 -1.2680  0.2156  1.6597
 4630TIP3   OH235524   1.130   5.062   7.255 -0.2255  0.1115  0.5499
 4630TIP3    H135525   1.114   4.968   7.263 -0.9628  0.2617  0.9878
 4630TIP3    H235526   1.225   5.070   7.247  0.0479 -0.5443  2.5257
 4631TIP3   OH235527   5.369   2.953   8.113  0.0411 -0.4057  0.0608
 4631TIP3    H135528   5.348   3.043   8.087  3.2951  0.2993 -0.5449
 4631TIP3    H235529   5.363   2.902   8.033  1.1729 -0.0730 -0.2507
 4632TIP3   OH235530   0.305   4.904   7.291  0.2997 -0.0600  0.0089
 4632TIP3    H135531   0.314   4.832   7.228  1.2848 -0.3241  0.4389
 4632TIP3    H235532   0.296   4.982   7.237 -3.5525 -0.6807 -0.5732
 4633TIP3   OH235533   6.078   6.084   0.673  0.0224 -0.6377  0.7326
 4633TIP3    H135534   6.111   6.026   0.604  0.0681  0.4285 -0.1653
 4633TIP3    H235535   5.991   6.110   0.643  0.8689  1.5049  0.0065
 4634TIP3   OH235536   2.119   1.829   7.289  0.3295 -0.5538 -0.2416
 4634TIP3    H135537   2.120   1.749   7.342  0.5146 -1.4026 -1.4925
 4634TIP3    H235538   2.058   1.810   7.218  0.7479  0.2449 -0.8252
 4635TIP3   OH235539   3.069   0.282   1.130 -0.1864 -0.0733 -0.9000
 4635TIP3    H135540   3.153   0.323   1.148  0.1869 -0.7757 -1.0340
 4635TIP3    H235541   3.060   0.214   1.196 -0.4934 -0.2340 -1.1018
 4636TIP3   OH235542   3.744   0.155   1.804  0.0854  0.3611 -0.5197
 4636TIP3    H135543   3.826   0.202   1.794 -0.5811  1.3998 -1.3294
 4636TIP3    H235544   3.751   0.112   1.889  0.3164  2.8317  0.8218
 4637TIP3   OH235545   1.634   5.967   1.328 -0.3788 -0.5660 -0.5559
 4637TIP3    H135546   1.544   5.988   1.351 -0.7057 -1.4652 -0.9748
 4637TIP3    H235547   1.627   5.901   1.259  0.5705  0.8061 -2.0492
 4638TIP3   OH235548   2.979   0.978   7.017 -0.5249 -0.7412 -0.1491
 4638TIP3    H135549   2.978   1.068   6.986  1.4812 -1.1044 -1.4574
 4638TIP3    H235550   2.915   0.932   6.963  0.2827 -0.6039 -1.2451
 4639TIP3   OH235551   5.456   2.078   7.784 -0.0884  0.2951  0.5313
 4639TIP3    H135552   5.471   2.000   7.837  0.4459  0.6211  0.8630
 4639TIP3    H235553   5.365   2.070   7.757 -0.3413  0.0630  1.4000
 4640TIP3   OH235554   0.634   4.912   7.263 -0.1915  0.2125 -0.6982
 4640TIP3    H135555   0.572   4.846   7.293  1.0736 -1.1528 -0.9712
 4640TIP3    H235556   0.581   4.990   7.246 -1.4500 -0.0787  1.5814
 4641TIP3   OH235557   2.471   4.278   2.911 -0.8382 -0.4273 -0.4271
 4641TIP3    H135558   2.507   4.190   2.926  0.0370  0.1245  0.8614
 4641TIP3    H235559   2.547   4.336   2.910 -1.5116  0.5152  0.4041
 4642TIP3   OH235560   0.055   0.351   8.756 -0.8335  0.0235 -0.2115
 4642TIP3    H135561   0.023   0.441   8.746 -0.6856  0.7767  4.2343
 4642TIP3    H235562  -0.012   0.307   8.809  0.1582 -1.8517 -0.4310
 4643TIP3   OH235563   6.239   4.448   0.423 -0.3862  0.4311 -0.6739
 4643TIP3    H135564   6.272   4.414   0.340 -1.1736  0.1942 -0.9025
 4643TIP3    H235565   6.175   4.514   0.398 -1.1557 -0.1379 -0.2833
 4644TIP3   OH235566   6.799   4.947   1.483  0.2809  0.3847  0.2107
 4644TIP3    H135567   6.870   4.925   1.423  0.2240 -0.5191  0.4625
 4644TIP3    H235568   6.819   5.036   1.512  1.1833  0.2245  0.1118
 4645TIP3   OH235569   1.142   0.833   1.134 -0.5255  0.0519 -0.3421
 4645TIP3    H135570   1.077   0.862   1.071  0.7934  0.8149 -1.4088
 4645TIP3    H235571   1.224   0.831   1.085  0.7647  1.7375  1.5688
 4646TIP3   OH235572   1.898   1.370   7.982  0.8574 -0.0061 -0.0327
 4646TIP3    H135573   1.805   1.363   7.961  0.9992 -0.3905 -0.5221
 4646TIP3    H235574   1.927   1.449   7.935  0.8726 -0.1140 -0.2032
 4647TIP3   OH235575   0.241   0.573   6.716  0.2023  0.1465  0.0487
 4647TIP3    H135576   0.318   0.522   6.692  1.4201  1.2564  1.4709
 4647TIP3    H235577   0.167   0.517   6.691  1.3392 -0.0997 -3.3367
 4648TIP3   OH235578   1.206   2.609   1.864 -0.5527 -0.0920  0.0978
 4648TIP3    H135579   1.179   2.676   1.802 -1.4029  0.2634  0.8249
 4648TIP3    H235580   1.281   2.566   1.823 -0.2391  1.0406 -0.5454
 4649TIP3   OH235581   6.539   4.110   2.310  0.0197 -0.3329 -0.0986
 4649TIP3    H135582   6.544   4.186   2.252  0.5024 -0.2386  0.0650
 4649TIP3    H235583   6.467   4.130   2.370 -1.5015 -1.0791 -1.5762
 4650TIP3   OH235584   6.639   5.967   1.002  0.1783  0.0219  0.2163
 4650TIP3    H135585   6.557   6.003   0.968  1.4462 -0.3092 -3.6731
 4650TIP3    H235586   6.636   5.874   0.979  0.8580 -0.4495  1.8705
 4651TIP3   OH235587   2.928   4.472   8.412 -1.3158 -0.7295 -0.3403
 4651TIP3    H135588   2.948   4.386   8.450 -1.8217 -1.6421 -2.0634
 4651TIP3    H235589   2.946   4.462   8.319 -1.1642  1.1267 -0.5459
 4652TIP3   OH235590   5.877   4.150   7.977 -0.4806 -0.4804  0.1065
 4652TIP3    H135591   5.816   4.165   8.050 -1.4629  0.9420 -0.9477
 4652TIP3    H235592   5.943   4.218   7.987 -0.6531 -0.2406 -0.3568
 4653TIP3   OH235593   4.794   0.045   1.770  0.2127  0.6201  0.1321
 4653TIP3    H135594   4.849   0.076   1.698 -3.1690  0.5038 -2.7943
 4653TIP3    H235595   4.731   0.115   1.784 -0.3104 -0.1270  1.8068
 4654TIP3   OH235596   5.301   1.144   2.668  0.0862 -0.4775  0.0899
 4654TIP3    H135597   5.361   1.105   2.730 -0.2440  0.6881  1.1820
 4654TIP3    H235598   5.356   1.179   2.598  0.4415 -1.9983 -0.4323
 4655TIP3   OH235599   2.985   3.080   2.074  0.2212  0.1340  0.3192
 4655TIP3    H135600   2.956   3.011   2.134 -2.1974  0.1668 -0.6718
 4655TIP3    H235601   3.004   3.155   2.130  3.5286 -1.3783  1.4953
 4656TIP3   OH235602   0.687   5.247   7.104 -0.3096  0.7864  0.1663
 4656TIP3    H135603   0.779   5.264   7.086  0.0917 -0.9200  0.3527
 4656TIP3    H235604   0.640   5.320   7.066  1.0572  1.1723 -0.8338
 4657TIP3   OH235605   4.640   6.691   7.514  0.4208  0.7323 -0.9636
 4657TIP3    H135606   4.690   6.764   7.477 -0.3503  1.8254  0.1039
 4657TIP3    H235607   4.573   6.672   7.448  0.8686  0.7041 -1.4208
 4658TIP3   OH235608   2.623   6.649   0.199 -0.3603  0.4670 -0.5441
 4658TIP3    H135609   2.668   6.577   0.244 -0.6756  0.2141 -0.6298
 4658TIP3    H235610   2.694   6.703   0.163 -0.1276 -0.5012 -1.5822
 4659TIP3   OH235611   4.408   5.611   7.537  0.1058 -0.4159  0.1629
 4659TIP3    H135612   4.378   5.689   7.582  2.8192  1.3508 -0.8579
 4659TIP3    H235613   4.408   5.634   7.444  0.5498 -1.7758 -0.2116
 4660TIP3   OH235614   5.275   3.657   1.891 -0.5294  0.2032  0.0832
 4660TIP3    H135615   5.295   3.680   1.982  0.1030 -2.9534  0.8694
 4660TIP3    H235616   5.330   3.715   1.839  0.8370  0.5324  1.8126
 4661TIP3   OH235617   2.412   2.213   1.354  0.5787 -0.0442  0.3285
 4661TIP3    H135618   2.325   2.241   1.383 -0.9387 -1.1557 -2.7535
 4661TIP3    H235619   2.454   2.294   1.323 -0.2975  0.1728 -0.3283
 4662TIP3   OH235620   6.784   2.140   2.123 -0.3562 -0.4334 -0.1858
 4662TIP3    H135621   6.816   2.050   2.113  0.0694 -0.4361  1.0464
 4662TIP3    H235622   6.822   2.170   2.205  1.3039  1.6508 -1.5774
 4663TIP3   OH235623   3.404   6.068   7.153 -0.3611  0.6513  0.0468
 4663TIP3    H135624   3.466   6.070   7.080 -2.7019 -2.6092 -2.2852
 4663TIP3    H235625   3.336   6.131   7.129 -0.5954  0.3508 -0.0888
 4664TIP3   OH235626   2.805   2.948   0.906  0.3232 -0.4277  0.4833
 4664TIP3    H135627   2.868   2.923   0.974 -0.5209 -0.2027  1.3724
 4664TIP3    H235628   2.795   3.042   0.917 -0.4699 -0.5204  0.6324
 4665TIP3   OH235629   2.570   0.549   1.766 -0.7099  0.8632  0.1103
 4665TIP3    H135630   2.487   0.547   1.717 -0.3751 -0.1219 -0.4331
 4665TIP3    H235631   2.567   0.471   1.821 -0.2053  0.8997  0.1946
 4666TIP3   OH235632   2.842   2.072   7.420  0.2340 -0.1530 -0.0475
 4666TIP3    H135633   2.936   2.063   7.405  0.5091  0.6128  1.0323
 4666TIP3    H235634   2.836   2.118   7.504 -1.1312 -2.0833  0.9942
 4667TIP3   OH235635   6.087   0.473   8.897 -0.1507 -0.6699  0.1039
 4667TIP3    H135636   6.061   0.449   8.808 -0.2817  0.3787 -0.1566
 4667TIP3    H235637   6.132   0.557   8.886 -1.5128  0.2413  1.2083
 4668TIP3   OH235638   3.704   0.579   2.701 -0.0638 -0.0834  0.3079
 4668TIP3    H135639   3.789   0.588   2.744  0.6030 -2.1042 -0.4671
 4668TIP3    H235640   3.655   0.517   2.755 -1.9924  2.6806  1.9792
 4669TIP3   OH235641   0.783   1.132   8.123 -0.4447  0.1054 -0.9205
 4669TIP3    H135642   0.741   1.100   8.043 -2.7618  0.8237 -0.0842
 4669TIP3    H235643   0.754   1.071   8.191  2.8846 -1.5298 -0.8038
 4670TIP3   OH235644   2.757   2.844   0.635  0.1709 -0.1092  0.0856
 4670TIP3    H135645   2.817   2.872   0.704  0.4447 -1.0390  0.2357
 4670TIP3    H235646   2.806   2.857   0.554  1.3316 -2.5553  0.2971
 4671TIP3   OH235647   4.432   0.856   7.554  0.0763  0.1034 -1.0636
 4671TIP3    H135648   4.376   0.858   7.477 -2.1403  1.0771  0.4695
 4671TIP3    H235649   4.507   0.910   7.531 -0.6477  0.5468 -2.4632
 4672TIP3   OH235650   3.454   2.911   7.412  0.9948  0.0108  0.2120
 4672TIP3    H135651   3.445   3.005   7.401  0.3503 -0.2715 -2.3645
 4672TIP3    H235652   3.548   2.895   7.415  1.1120  0.6951  0.2344
 4673TIP3   OH235653   4.552   5.763   0.603 -0.2637  0.6311  0.1309
 4673TIP3    H135654   4.574   5.686   0.550  1.7817  1.4239 -0.2888
 4673TIP3    H235655   4.484   5.808   0.553  0.6784  0.6532 -1.1859
 4674TIP3   OH235656   3.984   4.092   0.955 -0.1640  0.2709  0.0137
 4674TIP3    H135657   4.039   4.029   1.001 -1.6492 -0.9493  0.1705
 4674TIP3    H235658   3.981   4.060   0.865 -0.6543  0.3068  0.0145
 4675TIP3   OH235659   4.942   6.355   8.716  0.3286 -0.2564  0.1799
 4675TIP3    H135660   5.004   6.317   8.778  0.0140 -0.7613  0.1938
 4675TIP3    H235661   4.980   6.339   8.630  0.3584 -0.3114  0.2034
 4676TIP3   OH235662   2.091   2.449   7.111  0.5998  0.8350  0.4074
 4676TIP3    H135663   2.058   2.371   7.156  0.9480  0.4963  0.0787
 4676TIP3    H235664   2.177   2.423   7.079  0.4354  1.1403 -0.2884
 4677TIP3   OH235665   5.407   4.524   0.573 -0.0746  1.1781 -0.6323
 4677TIP3    H135666   5.439   4.514   0.663 -1.2787  2.4445 -0.0319
 4677TIP3    H235667   5.312   4.532   0.582 -0.2924  0.5570 -2.0959
 4678TIP3   OH235668   5.672   1.434   1.240 -0.1770 -0.2874  0.0818
 4678TIP3    H135669   5.587   1.428   1.284 -1.3897 -2.4396 -2.2893
 4678TIP3    H235670   5.736   1.436   1.312 -2.1205 -0.7191  1.9300
 4679TIP3   OH235671   5.798   0.852   1.363  0.3159 -0.1212 -0.5621
 4679TIP3    H135672   5.772   0.803   1.285 -1.6371  1.9634 -1.3541
 4679TIP3    H235673   5.870   0.907   1.333 -0.5247  0.7803 -0.9844
 4680TIP3   OH235674   1.083   3.291   7.596  0.1837  0.1701  0.1682
 4680TIP3    H135675   1.022   3.315   7.666 -0.5951  1.7429 -0.9728
 4680TIP3    H235676   1.169   3.316   7.630 -0.1467  0.6714  0.6616
 4681TIP3   OH235677   1.401   2.901   8.775 -0.3114  0.8095 -0.1520
 4681TIP3    H135678   1.371   2.810   8.768 -1.3631  1.2684 -3.1841
 4681TIP3    H235679   1.320   2.952   8.782  0.2178  1.5943  0.4375
 4682TIP3   OH235680   4.400   1.919   8.688 -0.0572 -0.4605  0.1510
 4682TIP3    H135681   4.384   1.967   8.607  0.6434  1.3461  1.0353
 4682TIP3    H235682   4.348   1.964   8.754  2.1164  0.3985  1.4021
 4683TIP3   OH235683   1.579   6.125   2.283  0.2906 -0.5489 -0.3666
 4683TIP3    H135684   1.492   6.100   2.252  0.5227 -2.6973  0.5515
 4683TIP3    H235685   1.597   6.209   2.239 -1.4853 -0.9301 -1.9582
 4684TIP3   OH235686   3.234   1.532   1.731 -0.6836  0.0815  0.1436
 4684TIP3    H135687   3.203   1.510   1.818  1.6883 -0.1948  0.9907
 4684TIP3    H235688   3.217   1.626   1.722  0.5630  0.5102  1.6550
 4685TIP3   OH235689   4.774   5.436   1.801  0.3396  0.3451  0.1312
 4685TIP3    H135690   4.690   5.464   1.838 -0.4482 -0.2199 -1.1521
 4685TIP3    H235691   4.771   5.340   1.806  0.1542  0.2437 -1.4529
 4686TIP3   OH235692   2.469   1.525   8.340  0.1168  0.3591  0.6837
 4686TIP3    H135693   2.540   1.545   8.278 -0.2857  0.6659  0.3170
 4686TIP3    H235694   2.500   1.561   8.423  1.4563 -1.6076  1.0961
 4687TIP3   OH235695   1.349   4.786   1.786 -0.2192  0.0304  0.5851
 4687TIP3    H135696   1.444   4.797   1.786  0.0091 -1.5944  1.0038
 4687TIP3    H235697   1.329   4.753   1.699 -0.3759  0.1879  0.5616
 4688TIP3   OH235698   2.745   6.210   7.423 -0.5887 -0.0101 -0.2631
 4688TIP3    H135699   2.676   6.276   7.429 -0.7347 -0.3123  2.3592
 4688TIP3    H235700   2.764   6.204   7.329 -2.8131  1.4142 -0.8786
 4689TIP3   OH235701   3.987   1.598   0.606 -0.0728 -0.1530  0.0769
 4689TIP3    H135702   4.080   1.579   0.618  0.3300  1.0624 -0.8498
 4689TIP3    H235703   3.969   1.670   0.666 -0.1565  0.2556 -0.4250
 4690TIP3   OH235704   2.323   1.336   7.745  0.0043  0.4186  0.1752
 4690TIP3    H135705   2.358   1.365   7.661 -0.9839 -0.0138 -0.3967
 4690TIP3    H235706   2.229   1.346   7.737 -0.2017 -0.8423  0.7564
 4691TIP3   OH235707   1.429   1.494   7.759 -0.1633 -0.6170  0.0327
 4691TIP3    H135708   1.389   1.579   7.775  0.0083 -0.3463 -0.9322
 4691TIP3    H235709   1.400   1.470   7.671 -0.5144 -1.7342  0.4361
 4692TIP3   OH235710   5.803   1.450   1.490 -0.4733 -0.2738 -0.2136
 4692TIP3    H135711   5.881   1.494   1.524 -0.5429  1.0193 -1.6370
 4692TIP3    H235712   5.746   1.441   1.566 -0.6377  2.5648  0.0890
 4693TIP3   OH235713   2.368   4.350   0.969 -0.6315  0.3031 -0.6935
 4693TIP3    H135714   2.336   4.425   1.018 -0.6123  0.2896 -0.6608
 4693TIP3    H235715   2.451   4.380   0.931  1.1067 -0.7287  1.9973
 4694TIP3   OH235716   6.475   3.624   1.543 -0.0965  0.1119 -0.3540
 4694TIP3    H135717   6.447   3.715   1.537  2.4446  1.0455  0.2683
 4694TIP3    H235718   6.563   3.629   1.582  1.1337 -2.4094 -2.4720
 4695TIP3   OH235719   0.161   4.665   2.047 -0.2236  0.0850  0.3277
 4695TIP3    H135720   0.219   4.590   2.060 -0.4310  0.0188  0.8815
 4695TIP3    H235721   0.082   4.628   2.008 -0.3128  0.0209  0.5697
 4696TIP3   OH235722   0.660   6.704   1.066 -0.1574  0.3341  0.1681
 4696TIP3    H135723   0.571   6.734   1.047 -1.2140 -0.5131  3.1427
 4696TIP3    H235724   0.667   6.620   1.019 -0.3321  1.1125 -1.2986
 4697TIP3   OH235725   0.327   3.329   0.918  0.2043 -0.1206 -0.2499
 4697TIP3    H135726   0.288   3.412   0.947  0.3696 -0.0601 -0.1993
 4697TIP3    H235727   0.396   3.355   0.857  2.7393  0.0337  2.4300
 4698TIP3   OH235728   6.032   0.545   7.959 -0.2125 -0.1574  0.3523
 4698TIP3    H135729   5.964   0.497   8.006 -0.9331 -1.2275 -1.6683
 4698TIP3    H235730   6.046   0.494   7.879  0.8365  1.6659 -0.6806
 4699TIP3   OH235731   1.760   2.385   0.790 -0.2777 -0.6473  0.1677
 4699TIP3    H135732   1.787   2.322   0.857  0.4502 -0.4687  0.0478
 4699TIP3    H235733   1.675   2.352   0.759  1.1733 -2.9990 -1.6306
 4700TIP3   OH235734   1.905   5.854   0.916  0.2238 -0.1754 -0.4662
 4700TIP3    H135735   1.960   5.861   0.993  1.0931 -1.0907 -0.9758
 4700TIP3    H235736   1.852   5.934   0.916  1.7994  0.9032 -0.1664
 4701TIP3   OH235737   2.372   2.704   0.348  0.5801  0.4015 -0.3854
 4701TIP3    H135738   2.352   2.612   0.332 -0.4570  0.9101 -2.2932
 4701TIP3    H235739   2.439   2.726   0.283  1.2774  0.8634  0.4639
 4702TIP3   OH235740   3.485   0.374   0.014 -0.4927  0.4640  0.4331
 4702TIP3    H135741   3.556   0.310   0.003 -1.0330 -0.2015  0.7376
 4702TIP3    H235742   3.516   0.452  -0.031  0.0639 -0.1037 -0.1900
 4703TIP3   OH235743   1.051   4.562   0.661  0.4231 -0.2234 -0.1873
 4703TIP3    H135744   1.123   4.546   0.601  0.3447 -0.3338 -0.2539
 4703TIP3    H235745   0.972   4.542   0.610  0.3707 -0.7007  0.0650
 4704TIP3   OH235746   3.204   4.898   8.472 -0.4503 -0.2381  0.2107
 4704TIP3    H135747   3.263   4.833   8.510 -1.8951 -1.0157  1.1779
 4704TIP3    H235748   3.223   4.978   8.520 -0.1272 -0.4542  0.4485
 4705TIP3   OH235749   0.005   1.976   1.538 -0.0181  0.0338  0.0850
 4705TIP3    H135750   0.032   2.029   1.613  2.0002  0.4472 -0.8786
 4705TIP3    H235751  -0.069   2.023   1.501 -0.1079  0.5998  0.9635
 4706TIP3   OH235752   6.749   0.841   1.304  0.2637  0.2925  0.2500
 4706TIP3    H135753   6.660   0.873   1.290  0.7395  0.8648 -1.8208
 4706TIP3    H235754   6.741   0.746   1.302 -0.1420  0.3219 -1.5614
 4707TIP3   OH235755   1.648   6.607   0.634 -0.0977 -0.2963  0.4314
 4707TIP3    H135756   1.734   6.624   0.672 -0.6760 -1.0568  2.2185
 4707TIP3    H235757   1.666   6.569   0.548  1.3161  0.4390  0.3727
 4708TIP3   OH235758   1.860   1.171   8.325 -0.0674 -0.3702 -0.3764
 4708TIP3    H135759   1.779   1.209   8.358 -1.9477 -1.4151 -3.3178
 4708TIP3    H235760   1.869   1.207   8.237  3.8290  1.1935  0.4891
 4709TIP3   OH235761   5.869   6.102   2.658 -0.0032  0.3003 -0.0769
 4709TIP3    H135762   5.962   6.125   2.663  0.0991 -0.3359  1.4372
 4709TIP3    H235763   5.834   6.125   2.744 -1.7176  2.3291 -1.2098
 4710TIP3   OH235764   4.515   4.836   1.785  0.0411 -0.2666 -0.3378
 4710TIP3    H135765   4.608   4.858   1.792  0.6355 -2.6561  0.1888
 4710TIP3    H235766   4.500   4.774   1.857 -1.7069 -0.7139 -1.0451
 4711TIP3   OH235767   2.545   3.432   7.219 -0.5670 -0.0169 -0.1643
 4711TIP3    H135768   2.582   3.366   7.161  0.3360 -1.5291  1.9879
 4711TIP3    H235769   2.480   3.477   7.166 -0.0261 -1.5167 -2.2222
 4712TIP3   OH235770   2.191   5.058   1.693 -0.0698 -0.1760  0.1540
 4712TIP3    H135771   2.187   4.979   1.639  1.5641 -0.8622  0.9835
 4712TIP3    H235772   2.112   5.055   1.746 -0.0568 -1.2347  0.1350
 4713TIP3   OH235773   1.633   6.010   8.232  0.1033 -0.3255  0.3351
 4713TIP3    H135774   1.661   6.041   8.146 -1.6902  0.5731  0.0243
 4713TIP3    H235775   1.601   5.921   8.217 -1.7727  0.4132 -0.3118
 4714TIP3   OH235776   6.244   3.182   1.784 -0.1188  0.0182 -0.2609
 4714TIP3    H135777   6.206   3.099   1.812  0.4128  0.1221  0.8059
 4714TIP3    H235778   6.188   3.249   1.823 -1.0962  0.1906 -1.8786
 4715TIP3   OH235779   5.390   0.183   2.265  0.3752 -0.1279  0.4130
 4715TIP3    H135780   5.365   0.234   2.342 -0.3867  0.5179 -0.2373
 4715TIP3    H235781   5.309   0.139   2.238  0.3840  0.4278 -0.5752
 4716TIP3   OH235782   0.810   0.967   7.671 -0.1222 -0.0222 -0.2454
 4716TIP3    H135783   0.849   1.048   7.637 -0.8612 -0.4039 -2.1591
 4716TIP3    H235784   0.746   0.996   7.735  1.1186  0.7709  0.6644
 4717TIP3   OH235785   1.313   5.668   8.708 -0.1984  0.1222 -0.3128
 4717TIP3    H135786   1.350   5.587   8.674 -0.1922 -0.7823  1.7169
 4717TIP3    H235787   1.358   5.737   8.659 -0.8674 -1.0495 -2.7429
 4718TIP3   OH235788   1.664   2.759   0.220 -0.0122 -0.2152 -0.0117
 4718TIP3    H135789   1.681   2.833   0.163 -1.4180  2.1485  2.4128
 4718TIP3    H235790   1.621   2.695   0.164  1.0520  0.8278 -2.1424
 4719TIP3   OH235791   0.214   3.579   0.987 -0.4195  0.3937 -0.3556
 4719TIP3    H135792   0.236   3.659   0.940  0.2537  0.1773 -0.4270
 4719TIP3    H235793   0.124   3.560   0.961 -0.0801  0.3095 -1.5293
 4720TIP3   OH235794   4.107   5.341   7.920 -0.5352  0.2975  0.0478
 4720TIP3    H135795   4.114   5.326   7.826 -1.3693  1.4593 -0.2232
 4720TIP3    H235796   4.157   5.270   7.960 -1.3845 -1.0686 -1.2177
 4721TIP3   OH235797   4.326   4.532   8.193  0.2897  0.1238  0.7156
 4721TIP3    H135798   4.385   4.471   8.237 -1.3891 -0.9273  1.6267
 4721TIP3    H235799   4.304   4.490   8.110 -1.1273 -0.7302  1.4868
 4722TIP3   OH235800   3.831   5.106   8.089  0.0323  0.5731 -0.4386
 4722TIP3    H135801   3.907   5.155   8.057 -0.7971  1.7797 -0.6026
 4722TIP3    H235802   3.854   5.014   8.073  2.0227  0.7966  0.7625
 4723TIP3   OH235803   0.471   2.314   2.187 -0.3636 -0.3913 -0.3219
 4723TIP3    H135804   0.452   2.295   2.095 -0.7942 -0.1780 -0.2798
 4723TIP3    H235805   0.393   2.361   2.218 -0.8176 -1.6609  0.5223
 4724TIP3   OH235806   1.492   5.869   1.813  0.1658 -0.5118 -0.2108
 4724TIP3    H135807   1.502   5.774   1.824 -1.5586 -0.7060 -0.0666
 4724TIP3    H235808   1.522   5.887   1.724  1.5557 -1.0084  0.1368
 4725TIP3   OH235809   1.059   1.126   2.096 -0.0911 -0.2580  0.0358
 4725TIP3    H135810   1.080   1.117   2.003 -1.3340 -1.4795 -0.1472
 4725TIP3    H235811   1.038   1.038   2.125 -0.8172  0.2771  1.2056
 4726TIP3   OH235812   5.100   3.001   1.216  0.4859  0.5885 -0.6825
 4726TIP3    H135813   5.134   2.918   1.249  0.7024  0.2367 -1.7573
 4726TIP3    H235814   5.061   2.979   1.132  1.2871  1.7107 -1.3792
 4727TIP3   OH235815   6.024   3.822   3.370 -0.3014  0.3008  0.6922
 4727TIP3    H135816   6.030   3.769   3.290  2.0720  0.9216  0.3966
 4727TIP3    H235817   6.085   3.894   3.357 -0.2929  0.7639  2.8348
 4728TIP3   OH235818   6.546   3.798   7.025 -0.3071 -0.3010 -0.3086
 4728TIP3    H135819   6.605   3.724   7.006 -0.5633 -1.0911  1.7736
 4728TIP3    H235820   6.597   3.875   7.002  1.3642 -0.9908  0.8804
 4729TIP3   OH235821   6.180   0.746   0.215  0.0591 -0.0299 -0.3533
 4729TIP3    H135822   6.147   0.740   0.125  1.2708  0.8183 -0.8922
 4729TIP3    H235823   6.159   0.835   0.243 -0.1040 -0.2149  0.1262
 4730TIP3   OH235824   5.923   6.550   7.647  0.0541 -0.0453 -0.1839
 4730TIP3    H135825   6.013   6.557   7.677  0.2410 -1.2810 -0.4045
 4730TIP3    H235826   5.926   6.484   7.577 -1.1338 -0.6619  0.3153
 4731TIP3   OH235827   0.472   4.419   8.689  0.6175  0.1913 -0.0053
 4731TIP3    H135828   0.484   4.412   8.594  1.3941 -0.3401  0.1271
 4731TIP3    H235829   0.557   4.398   8.726  0.5567  1.2545  0.7890
 4732TIP3   OH235830   5.735   1.770   1.065 -0.0196  0.3167 -0.1279
 4732TIP3    H135831   5.800   1.831   1.033  2.2301 -1.1823  1.3064
 4732TIP3    H235832   5.737   1.697   1.002 -0.0270  0.0924  0.1288
 4733TIP3   OH235833   0.590   5.281   0.746  0.0195 -0.1443 -0.4722
 4733TIP3    H135834   0.545   5.276   0.831 -0.2265 -0.9529 -0.6382
 4733TIP3    H235835   0.604   5.189   0.722 -1.4737  0.0329 -2.1332
 4734TIP3   OH235836   4.665   2.824   8.149  0.6502 -0.6898  0.2047
 4734TIP3    H135837   4.614   2.830   8.068 -1.9558 -1.4823  1.6601
 4734TIP3    H235838   4.743   2.877   8.132 -0.0876 -0.3087 -2.5708
 4735TIP3   OH235839   3.769   5.817   7.747 -0.1048  0.0818  0.4362
 4735TIP3    H135840   3.694   5.768   7.713 -1.3459  1.4562  1.0795
 4735TIP3    H235841   3.730   5.889   7.797  1.6105 -0.6063  3.0099
 4736TIP3   OH235842   5.230   5.673   1.448  0.1453 -0.5458  0.2418
 4736TIP3    H135843   5.247   5.705   1.536  1.5745 -0.8932  0.1139
 4736TIP3    H235844   5.186   5.746   1.404  1.6454  0.5726  0.5139
 4737TIP3   OH235845   4.730   4.517   2.424  0.4564  0.2548  0.1129
 4737TIP3    H135846   4.769   4.506   2.510 -1.6341  1.7084  1.3575
 4737TIP3    H235847   4.662   4.450   2.419  0.4405  0.2964 -0.3438
 4738TIP3   OH235848   5.319   5.745   0.914  0.4465 -0.2282  0.6442
 4738TIP3    H135849   5.231   5.753   0.949  0.6756  2.1798  0.8377
 4738TIP3    H235850   5.377   5.754   0.990  0.8879  2.3508  0.0762
 4739TIP3   OH235851   1.583   4.257   0.309 -0.4484  0.5515 -0.5146
 4739TIP3    H135852   1.533   4.191   0.358  0.6315 -0.2771 -0.5019
 4739TIP3    H235853   1.547   4.253   0.221 -0.0430 -0.4324 -0.6422
 4740TIP3   OH235854   6.651   0.869   7.265 -0.2826 -0.1942 -0.4659
 4740TIP3    H135855   6.716   0.834   7.204  0.0080 -3.1898  1.3840
 4740TIP3    H235856   6.700   0.881   7.347 -1.0142  2.2650 -0.3067
 4741TIP3   OH235857   4.564   1.094   2.464 -0.1144 -0.3586 -0.0899
 4741TIP3    H135858   4.646   1.050   2.488 -0.0997 -0.2818 -0.0008
 4741TIP3    H235859   4.510   1.087   2.543 -0.3414 -0.7599 -0.2778
 4742TIP3   OH235860   0.041   0.751   7.095 -0.3667 -0.3175  0.1218
 4742TIP3    H135861   0.005   0.709   7.017  0.5341  1.2577 -1.2034
 4742TIP3    H235862   0.130   0.775   7.071 -0.7766  2.1954  0.7945
 4743TIP3   OH235863   4.736   2.495   6.952  0.3001  0.3524  0.6986
 4743TIP3    H135864   4.733   2.591   6.953  1.8363  0.6433 -3.6340
 4743TIP3    H235865   4.657   2.469   6.904  0.2273 -0.5663  1.2794
 4744TIP3   OH235866   2.548   2.954   8.105  0.5982  0.0387 -0.4731
 4744TIP3    H135867   2.603   3.014   8.054 -0.7319 -0.4206 -2.5724
 4744TIP3    H235868   2.593   2.870   8.098  1.4852  0.3660  0.9035
 4745TIP3   OH235869   3.010   5.283   8.519 -0.3291  0.0813 -0.5914
 4745TIP3    H135870   3.046   5.282   8.430 -0.5864  1.1519 -0.7238
 4745TIP3    H235871   2.926   5.238   8.511 -0.4996  0.4567 -0.9676
 4746TIP3   OH235872   0.666   0.173   8.552  0.0174 -0.4514  0.3356
 4746TIP3    H135873   0.608   0.103   8.580 -1.3767  0.0568 -1.1678
 4746TIP3    H235874   0.729   0.131   8.493  0.6047 -0.8231  1.2077
 4747TIP3   OH235875   6.516   1.814   7.487  0.5659  0.4343  0.0984
 4747TIP3    H135876   6.512   1.752   7.415 -1.1190  0.0021  0.5119
 4747TIP3    H235877   6.441   1.791   7.543  1.7446  0.8162  1.9386
 4748TIP3   OH235878   1.044   1.061   8.223  1.1573  0.6929  0.1660
 4748TIP3    H135879   1.089   1.080   8.141 -1.0352  0.5115 -1.1626
 4748TIP3    H235880   0.955   1.095   8.210  0.1289 -1.2511  1.6397
 4749TIP3   OH235881   4.383   0.271   8.858  0.4083 -0.3119  0.0397
 4749TIP3    H135882   4.442   0.332   8.901 -0.6728  0.7078  0.1100
 4749TIP3    H235883   4.361   0.313   8.774  0.8525 -1.3151 -0.5983
 4750TIP3   OH235884   0.255   0.547   1.150  0.3692 -0.2444  0.4226
 4750TIP3    H135885   0.343   0.534   1.116  0.4829 -2.6532  1.4823
 4750TIP3    H235886   0.264   0.614   1.217  1.6461 -1.3224  1.3631
 4751TIP3   OH235887   5.213   1.645   6.951  0.2264 -0.3124 -0.0515
 4751TIP3    H135888   5.254   1.625   6.867 -0.0042 -3.7243  0.5132
 4751TIP3    H235889   5.287   1.659   7.011  0.4870 -1.6079 -0.0555
 4752TIP3   OH235890   6.169   3.861   1.627  0.5628 -0.2775  0.1893
 4752TIP3    H135891   6.229   3.910   1.683 -1.1643 -2.6166  4.6839
 4752TIP3    H235892   6.083   3.898   1.647 -0.2088 -1.6730 -0.4177
 4753TIP3   OH235893   6.003   2.802   1.044 -0.2143 -0.0659 -0.1117
 4753TIP3    H135894   6.032   2.852   1.121 -2.4409  2.0917 -0.5572
 4753TIP3    H235895   5.938   2.741   1.079 -1.5653  1.2280 -0.2692
 4754TIP3   OH235896   1.183   1.995   7.784 -0.0880 -0.6930  0.1959
 4754TIP3    H135897   1.213   2.084   7.803  0.9915 -0.8159 -0.8467
 4754TIP3    H235898   1.224   1.941   7.852 -0.3863 -0.4591  0.5642
 4755TIP3   OH235899   0.407   1.211   1.261  0.6983  0.2299 -0.3040
 4755TIP3    H135900   0.440   1.243   1.345 -0.2190 -0.8949  0.5224
 4755TIP3    H235901   0.343   1.276   1.234  0.5154  0.2675  0.2091
 4756TIP3   OH235902   0.612   2.522   1.399  0.5402 -0.5522  0.1173
 4756TIP3    H135903   0.527   2.482   1.382  0.3387 -0.0540 -0.0622
 4756TIP3    H235904   0.597   2.616   1.390  0.7128 -0.3380  1.7918
 4757TIP3   OH235905   2.394   5.740   1.183  0.0421  0.3928  0.0384
 4757TIP3    H135906   2.434   5.657   1.208  1.0271  0.5561 -0.9359
 4757TIP3    H235907   2.307   5.715   1.150  0.0749 -0.1727  0.3616
 4758TIP3   OH235908   4.392   5.164   8.401 -0.1967  0.6942 -0.7395
 4758TIP3    H135909   4.349   5.118   8.473  0.8016  0.6872 -0.1385
 4758TIP3    H235910   4.428   5.243   8.441  0.7078  0.4963 -1.1452
 4759TIP3   OH235911   3.043   3.401   2.764  0.7666 -0.1174 -0.2499
 4759TIP3    H135912   3.026   3.328   2.824  0.2387  0.7676  0.7248
 4759TIP3    H235913   2.956   3.438   2.747  1.0262  0.2763 -0.7426
 4760TIP3   OH235914   2.691   4.435   7.205 -0.4051  0.1083  0.5140
 4760TIP3    H135915   2.686   4.354   7.256 -0.6409 -0.3538 -0.2299
 4760TIP3    H235916   2.747   4.413   7.131  0.2523  0.8855  0.7554
 4761TIP3   OH235917   2.035   4.640   1.574 -0.3339  0.1589  0.5710
 4761TIP3    H135918   2.042   4.545   1.570 -1.2000  0.0845  0.5258
 4761TIP3    H235919   2.074   4.664   1.658 -0.4878 -0.2760  0.7686
 4762TIP3   OH235920   2.037   2.406   2.179 -0.3659  0.3090  0.1950
 4762TIP3    H135921   2.084   2.445   2.106 -1.5827  2.9869  0.7011
 4762TIP3    H235922   2.070   2.453   2.256  0.1596 -1.7379  1.3087
 4763TIP3   OH235923   6.401   4.469   8.436 -0.4742  0.0280 -0.2478
 4763TIP3    H135924   6.392   4.497   8.344 -0.4456  0.1618 -0.2098
 4763TIP3    H235925   6.311   4.454   8.465 -0.5199  0.5201 -0.1308
 4764TIP3   OH235926   3.678   4.802   7.937 -0.1952  0.0996 -0.1226
 4764TIP3    H135927   3.757   4.772   7.982 -1.5194 -1.2086  1.4655
 4764TIP3    H235928   3.664   4.738   7.867 -2.9453 -3.3392  3.1802
 4765TIP3   OH235929   4.602   6.678   0.897 -0.1757 -0.6596 -0.2447
 4765TIP3    H135930   4.696   6.662   0.909 -0.2202 -0.7935 -0.0800
 4765TIP3    H235931   4.569   6.598   0.856 -0.2640 -0.7080 -0.0776
 4766TIP3   OH235932   0.561   1.785   2.103 -0.2769  0.1435 -0.4518
 4766TIP3    H135933   0.494   1.716   2.109  0.3107 -0.3931  0.1246
 4766TIP3    H235934   0.631   1.745   2.052  0.7324 -0.2569  1.1935
 4767TIP3   OH235935   1.527   3.473   1.156 -0.6727 -0.0615 -0.1103
 4767TIP3    H135936   1.524   3.527   1.235  2.2730 -0.5337  0.4395
 4767TIP3    H235937   1.544   3.384   1.188  0.4358 -0.2854 -1.2460
 4768TIP3   OH235938   2.796   0.840   6.866  0.4964 -0.1348  0.3115
 4768TIP3    H135939   2.834   0.784   6.798  0.5324  0.5715 -0.2541
 4768TIP3    H235940   2.704   0.850   6.841  0.5464  0.2566  0.2726
 4769TIP3   OH235941   2.933   4.999   1.300 -0.3515  0.3626 -0.0944
 4769TIP3    H135942   2.907   4.909   1.320  0.6719  0.3553  1.3130
 4769TIP3    H235943   3.005   4.990   1.238 -0.5711  0.2321 -0.3310
 4770TIP3   OH235944   6.588   0.057   7.866 -0.3734 -0.1965  0.0299
 4770TIP3    H135945   6.676   0.025   7.845 -1.0301 -0.7983 -2.1319
 4770TIP3    H235946   6.539   0.048   7.784 -1.8902  2.1304  0.5801
 4771TIP3   OH235947   1.504   4.822   1.377  0.2107  0.2796 -0.6173
 4771TIP3    H135948   1.439   4.842   1.445 -0.8090 -1.2368 -1.0986
 4771TIP3    H235949   1.582   4.873   1.403  0.3908 -1.3540  2.5655
 4772TIP3   OH235950   2.872   3.310   1.226  0.3588  0.6569 -0.1401
 4772TIP3    H135951   2.779   3.289   1.234  0.4267 -0.2319 -1.4111
 4772TIP3    H235952   2.916   3.244   1.279  0.2722  1.0461  0.4199
 4773TIP3   OH235953   5.625   6.453   2.269 -0.5579  0.0110  0.3143
 4773TIP3    H135954   5.623   6.506   2.190 -0.2921 -1.4437 -0.7124
 4773TIP3    H235955   5.717   6.451   2.295 -0.6237  0.3681  0.5715
 4774TIP3   OH235956   6.802   5.045   7.363 -0.4810 -0.1007 -0.5980
 4774TIP3    H135957   6.754   5.100   7.424 -1.5557 -1.3031 -0.3281
 4774TIP3    H235958   6.865   4.998   7.418 -1.7094 -1.4707 -0.3199
 4775TIP3   OH235959   0.877   1.396   0.924 -0.1297 -0.1668 -0.0687
 4775TIP3    H135960   0.851   1.440   1.005 -0.4575 -1.0450  0.3124
 4775TIP3    H235961   0.912   1.312   0.953  1.0913  0.0892 -0.7402
 4776TIP3   OH235962   1.704   4.295   7.222  0.5996  0.8111 -0.0429
 4776TIP3    H135963   1.700   4.370   7.162  2.1916 -1.1085 -2.7934
 4776TIP3    H235964   1.634   4.237   7.192  1.5943 -0.3000 -0.3094
 4777TIP3   OH235965   6.265   3.471   0.488 -0.0829  0.7311 -0.6188
 4777TIP3    H135966   6.247   3.550   0.538  1.3375  2.1425 -2.2154
 4777TIP3    H235967   6.356   3.480   0.460 -0.3586 -0.7042 -2.1403
 4778TIP3   OH235968   3.850   1.253   2.135  0.2384 -0.2949  0.3741
 4778TIP3    H135969   3.792   1.274   2.062  0.6839  3.3346  0.8575
 4778TIP3    H235970   3.797   1.265   2.213  0.7436 -0.2976  0.7260
 4779TIP3   OH235971   6.493   4.103   2.999 -0.5548 -0.2858  0.0028
 4779TIP3    H135972   6.565   4.154   2.960 -1.1361 -0.6391 -1.5940
 4779TIP3    H235973   6.419   4.118   2.941 -1.6563 -0.3527  1.3374
 4780TIP3   OH235974   5.807   3.870   0.961  0.2441  0.1826  0.6032
 4780TIP3    H135975   5.848   3.869   0.874  0.1879  0.5348  0.5678
 4780TIP3    H235976   5.861   3.812   1.014  1.8036  1.9156  1.0087
 4781TIP3   OH235977   0.398   6.352   6.955 -0.2487 -0.3758  0.7864
 4781TIP3    H135978   0.411   6.424   6.892 -0.9356 -0.7368  0.2134
 4781TIP3    H235979   0.482   6.342   6.998  0.1380  0.1180  0.1621
 4782TIP3   OH235980   5.557   6.640   0.269  0.4782  0.0485 -0.6257
 4782TIP3    H135981   5.507   6.705   0.319  2.1486  0.7982  0.1262
 4782TIP3    H235982   5.583   6.574   0.333 -0.3438 -0.8561 -1.2007
 4783TIP3   OH235983   6.620   5.567   7.295 -0.2195 -0.3951 -0.1759
 4783TIP3    H135984   6.626   5.617   7.377 -0.1499 -0.6195 -0.0432
 4783TIP3    H235985   6.527   5.572   7.271 -0.6753 -2.1007  1.0450
 4784TIP3   OH235986   0.351   2.018   6.654  0.5471 -0.5214 -0.0873
 4784TIP3    H135987   0.439   1.986   6.674  0.0155 -2.5572 -0.7879
 4784TIP3    H235988   0.320   1.961   6.583 -0.5375  1.5334 -1.3833
 4785TIP3   OH235989   0.530   5.496   7.642  0.5010 -0.3534  0.1000
 4785TIP3    H135990   0.487   5.580   7.660  2.5369  1.1709 -1.6409
 4785TIP3    H235991   0.458   5.435   7.627 -1.0490  1.0512  1.4690
 4786TIP3   OH235992   5.611   3.956   1.933 -0.4726 -0.9281  0.2674
 4786TIP3    H135993   5.553   4.032   1.921 -0.9215 -1.3855 -0.5792
 4786TIP3    H235994   5.649   3.968   2.020  0.5283  0.9979 -0.3551
 4787TIP3   OH235995   1.042   6.370   8.462  0.2518  0.7597  0.4018
 4787TIP3    H135996   1.090   6.400   8.538 -0.7645  1.5948  0.7375
 4787TIP3    H235997   1.029   6.449   8.409 -0.5875  0.5277  0.2441
 4788TIP3   OH235998   6.704   4.125   8.559 -0.8727 -0.2420  0.5225
 4788TIP3    H135999   6.742   4.199   8.511 -0.1973 -0.5731  0.5304
 4788TIP3    H236000   6.693   4.158   8.649  0.8423 -0.5994  0.8975
 4789TIP3   OH236001   2.644   5.248   2.643  0.0883 -0.0950 -0.2125
 4789TIP3    H136002   2.690   5.177   2.598 -1.6641 -0.8763 -0.8715
 4789TIP3    H236003   2.606   5.207   2.720 -1.1640  0.0328 -0.7416
 4790TIP3   OH236004   3.707   3.147   1.709 -0.1437  0.8186  0.1783
 4790TIP3    H136005   3.768   3.118   1.776  0.0954  0.3177 -0.2461
 4790TIP3    H236006   3.667   3.066   1.676 -1.0276  1.1383  0.4453
 4791TIP3   OH236007   3.137   6.227   7.505  0.0892 -0.1924  0.4233
 4791TIP3    H136008   3.068   6.285   7.535 -0.3771 -1.2259  1.4019
 4791TIP3    H236009   3.093   6.165   7.447 -0.0670 -1.5987  1.9934
 4792TIP3   OH236010   3.626   0.036   0.838  0.0117 -0.3496  0.7237
 4792TIP3    H136011   3.567   0.038   0.763 -2.6673 -1.5192  2.6704
 4792TIP3    H236012   3.616   0.121   0.880  1.6688  0.3858 -0.2426
 4793TIP3   OH236013   0.988   0.316   1.865  0.2524 -0.0788  0.0530
 4793TIP3    H136014   1.017   0.328   1.775 -0.5730  1.0155 -0.0894
 4793TIP3    H236015   0.898   0.283   1.857 -0.2433  1.1229  0.4538
 4794TIP3   OH236016   1.666   3.137   0.988 -0.6661 -0.4105 -0.4913
 4794TIP3    H136017   1.620   3.084   0.922  3.2292 -3.4557 -1.1832
 4794TIP3    H236018   1.702   3.073   1.049 -0.6237  2.0377  2.2549
 4795TIP3   OH236019   2.075   1.574   7.443 -0.1900 -0.8937 -0.6298
 4795TIP3    H136020   2.033   1.493   7.414  0.4040 -1.0089 -1.1963
 4795TIP3    H236021   2.166   1.565   7.415 -0.1294 -0.0041 -0.7379
 4796TIP3   OH236022   5.715   0.426   8.673  0.6398  0.7010 -0.3870
 4796TIP3    H136023   5.681   0.342   8.645 -0.1677  0.6571  0.6350
 4796TIP3    H236024   5.807   0.426   8.647  0.8422 -0.8041  0.2498
 4797TIP3   OH236025   6.757   0.197   1.583 -0.0875 -0.0962 -0.1282
 4797TIP3    H136026   6.765   0.108   1.619 -0.0128  0.0809  0.2961
 4797TIP3    H236027   6.703   0.186   1.504 -1.8247 -0.2379  1.0379
 4798TIP3   OH236028   6.323   4.872   1.919 -0.2258  0.4296  0.2165
 4798TIP3    H136029   6.236   4.898   1.890  0.3476 -0.5167 -2.6907
 4798TIP3    H236030   6.368   4.955   1.938 -1.4889  0.9514  1.0572
 4799TIP3   OH236031   5.917   3.722   1.154 -0.3727  0.0899 -0.1369
 4799TIP3    H136032   5.884   3.780   1.222 -0.1043 -0.7997  0.7646
 4799TIP3    H236033   5.861   3.645   1.159  0.3013 -0.4139 -0.2405
 4800TIP3   OH236034   1.500   4.021   2.528 -0.0381  0.2807 -0.5729
 4800TIP3    H136035   1.546   4.084   2.584  0.5542 -1.5598  1.1497
 4800TIP3    H236036   1.426   3.992   2.581  0.4354 -1.3836 -0.7607
 4801TIP3   OH236037   4.566   1.465   7.735 -0.1556 -0.3082 -0.1987
 4801TIP3    H136038   4.478   1.449   7.769  0.1036 -0.4514  0.4278
 4801TIP3    H236039   4.578   1.560   7.741  0.5119 -0.4796  1.7437
 4802TIP3   OH236040   0.464   5.029   8.753  0.5351 -0.5288 -1.0151
 4802TIP3    H136041   0.436   4.980   8.676 -2.5206 -0.9029  0.1700
 4802TIP3    H236042   0.434   4.976   8.827 -0.9325  2.0038  0.3465
 4803TIP3   OH236043   6.465   1.545   8.202 -0.0990 -0.2767  0.3340
 4803TIP3    H136044   6.481   1.587   8.287  0.6747  1.6501 -0.6882
 4803TIP3    H236045   6.446   1.618   8.143  0.6529 -1.4403 -1.4175
 4804TIP3   OH236046   5.686   1.050   7.800  0.0097  0.1878 -0.3461
 4804TIP3    H136047   5.730   1.115   7.746 -0.2631  0.2211 -0.5299
 4804TIP3    H236048   5.712   1.072   7.890 -0.8338  1.1443 -0.3164
 4805TIP3   OH236049   6.437   0.245   7.223 -0.3006  0.0411 -0.1923
 4805TIP3    H136050   6.460   0.313   7.287  0.8139  0.2089 -0.7542
 4805TIP3    H236051   6.491   0.171   7.248  1.7666  0.7900 -2.1956
 4806TIP3   OH236052   0.410   3.345   2.860  0.2070  0.4607 -0.3926
 4806TIP3    H136053   0.350   3.419   2.850 -1.3387 -0.7117 -0.2702
 4806TIP3    H236054   0.472   3.354   2.788  0.1543  1.9523 -0.2785
 4807TIP3   OH236055   6.523   3.194   7.360  0.0800  1.0527  0.0094
 4807TIP3    H136056   6.611   3.224   7.334  0.2157 -0.0332 -0.8756
 4807TIP3    H236057   6.464   3.235   7.297  0.2436 -0.2957 -1.0633
 4808TIP3   OH236058   1.638   5.990   0.394  0.2262 -0.0397  0.0687
 4808TIP3    H136059   1.711   5.992   0.332  0.2305  1.2188  0.0714
 4808TIP3    H236060   1.566   6.032   0.348  0.3978  1.4545  1.0764
 4809TIP3   OH236061   4.160   1.859   7.422  0.3395 -0.7470 -0.2176
 4809TIP3    H136062   4.155   1.764   7.407  0.9924 -1.0822  1.4840
 4809TIP3    H236063   4.094   1.896   7.363  0.4297 -2.2048 -1.2864
 4810TIP3   OH236064   0.042   2.466   8.474 -0.2392  0.2999 -0.6736
 4810TIP3    H136065   0.016   2.554   8.448 -1.2698 -0.0390 -0.8681
 4810TIP3    H236066   0.066   2.474   8.566 -1.2721  0.6192 -0.4103
 4811TIP3   OH236067   2.719   3.810   8.901 -0.5531 -0.3310 -0.1774
 4811TIP3    H136068   2.633   3.799   8.942 -1.0557  0.2077 -1.0465
 4811TIP3    H236069   2.762   3.726   8.912 -1.4934 -0.8538 -0.3860
 4812TIP3   OH236070   2.021   1.336   0.254 -0.1224  0.2605  0.5713
 4812TIP3    H136071   1.991   1.372   0.171 -0.1326 -0.7247  0.1333
 4812TIP3    H236072   1.982   1.393   0.320 -1.2096  0.2728 -0.0528
 4813TIP3   OH236073   0.332   6.630   7.196 -0.4287  0.1347 -0.3401
 4813TIP3    H136074   0.267   6.597   7.134 -0.8707 -0.3314  0.3486
 4813TIP3    H236075   0.414   6.589   7.169 -1.0572 -2.0287  0.8006
 4814TIP3   OH236076   4.448   6.440   7.730 -0.4219 -0.6624 -0.0287
 4814TIP3    H136077   4.541   6.429   7.711 -1.0151 -5.0657 -1.5534
 4814TIP3    H236078   4.434   6.392   7.811 -1.5956 -1.4193 -0.6588
 4815TIP3   OH236079   4.361   6.740   2.437 -0.1734 -0.2014 -0.5125
 4815TIP3    H136080   4.424   6.683   2.393  0.4349 -0.1704  0.2898
 4815TIP3    H236081   4.392   6.744   2.527 -1.8256 -0.8877  0.1246
 4816TIP3   OH236082   5.293   2.170   2.533 -0.5144  0.0242  0.1546
 4816TIP3    H136083   5.243   2.201   2.608  0.7187  0.1792  0.9439
 4816TIP3    H236084   5.294   2.075   2.543 -0.1601  0.0588  0.4703
 4817TIP3   OH236085   0.401   6.747   0.249 -0.2547  0.0165 -0.5219
 4817TIP3    H136086   0.372   6.827   0.206  1.0291  1.3101  0.9366
 4817TIP3    H236087   0.366   6.754   0.338  0.2063 -0.8539 -0.2612
 4818TIP3   OH236088   0.906   2.825   1.592  0.2703  0.3944  0.1982
 4818TIP3    H136089   0.883   2.832   1.684  0.8130 -0.3032  0.3951
 4818TIP3    H236090   0.845   2.883   1.547 -1.4807 -0.9685  0.7357
 4819TIP3   OH236091   5.431   1.656   7.131  0.4167  0.4307 -0.1780
 4819TIP3    H136092   5.518   1.617   7.136 -0.0101 -0.5939 -0.5783
 4819TIP3    H236093   5.375   1.598   7.182  0.4598  2.7083  2.7721
 4820TIP3   OH236094   5.194   5.902   2.824 -0.8072  0.3421  0.5450
 4820TIP3    H136095   5.282   5.884   2.790 -1.5043  1.1504 -1.9449
 4820TIP3    H236096   5.195   5.995   2.846 -1.3066  0.6366 -0.5761
 4821TIP3   OH236097   6.797   2.998   0.643  0.3545 -0.2270 -0.3356
 4821TIP3    H136098   6.832   3.068   0.697  0.2552  1.2777 -2.1185
 4821TIP3    H236099   6.789   3.037   0.556 -1.5260 -1.8682 -0.9671
 4822TIP3   OH236100   4.817   1.213   0.012 -0.5741 -0.0701  0.1945
 4822TIP3    H136101   4.755   1.173  -0.049 -0.5729  1.1448 -0.6327
 4822TIP3    H236102   4.779   1.298   0.033  0.6868  0.5992 -0.1464
 4823TIP3   OH236103   5.857   2.240   5.257  0.3633 -0.2732  0.5911
 4823TIP3    H136104   5.867   2.190   5.176 -0.5457  1.1660 -0.4661
 4823TIP3    H236105   5.793   2.191   5.308 -1.1525  0.2003 -0.7885
 4824TIP3   OH236106   3.104   1.989   8.714 -0.5332 -0.1388 -0.1633
 4824TIP3    H136107   3.199   1.983   8.703 -0.3126 -0.2489  1.5691
 4824TIP3    H236108   3.072   1.902   8.693 -0.3140 -0.0005 -1.1380
 4825TIP3   OH236109   1.202   5.633   1.452 -0.9130  0.3493  0.1533
 4825TIP3    H136110   1.187   5.691   1.377 -1.4305  0.7495  0.5626
 4825TIP3    H236111   1.168   5.681   1.527  1.4463  0.8391  0.9964
 4826TIP3   OH236112   4.213   5.194   8.166 -0.9596  0.3471  0.7086
 4826TIP3    H136113   4.223   5.104   8.134  0.1381  0.6555  0.1574
 4826TIP3    H236114   4.198   5.184   8.260 -2.0886 -0.4636  0.4642
 4827TIP3   OH236115   4.559   5.568   1.930  0.1592 -0.0876 -0.0590
 4827TIP3    H136116   4.601   5.647   1.962 -0.1124 -0.0998  0.3481
 4827TIP3    H236117   4.532   5.522   2.010 -1.4186  0.3537 -0.2941
 4828TIP3   OH236118   2.738   1.838   7.860  0.0244 -0.0258 -0.2887
 4828TIP3    H136119   2.717   1.925   7.825 -0.2773  0.1284  0.2762
 4828TIP3    H236120   2.832   1.842   7.876  0.0150  0.1962 -0.2754
 4829TIP3   OH236121   6.168   0.154   8.711  0.7493  0.0037  0.5727
 4829TIP3    H136122   6.105   0.223   8.690 -1.0618 -1.3490  1.3625
 4829TIP3    H236123   6.200   0.124   8.625  2.0320  2.1336  0.2109
 4830TIP3   OH236124   3.072   3.167   0.577  0.2071  0.4157  0.6278
 4830TIP3    H136125   3.061   3.183   0.483  0.7743 -1.3323  0.2365
 4830TIP3    H236126   2.995   3.208   0.617  0.7502  2.6271 -0.3883
 4831TIP3   OH236127   4.125   3.319   7.746  0.1895  0.3304 -0.7111
 4831TIP3    H136128   4.049   3.263   7.763  0.8975 -0.4635 -0.0598
 4831TIP3    H236129   4.157   3.291   7.660 -0.4948  0.9565 -1.1753
 4832TIP3   OH236130   1.446   5.225   8.704 -0.5407 -0.0508  0.3195
 4832TIP3    H136131   1.521   5.191   8.753  0.3669 -1.0343 -1.6095
 4832TIP3    H236132   1.418   5.302   8.753  0.1084 -1.1018  2.4793
 4833TIP3   OH236133   2.936   1.035   7.299 -0.6298 -0.4301  0.2476
 4833TIP3    H136134   2.885   1.115   7.290  1.9020  1.3540  0.6972
 4833TIP3    H236135   2.959   1.012   7.209  2.0805  1.8488  0.2268
 4834TIP3   OH236136   1.640   0.895   7.218 -0.0293 -0.4698 -0.1341
 4834TIP3    H136137   1.561   0.880   7.167 -0.2070 -1.3809  0.3871
 4834TIP3    H236138   1.614   0.956   7.286 -0.2523 -0.6692 -0.0402
 4835TIP3   OH236139   4.997   6.188   8.257 -0.1666  0.1133 -0.1349
 4835TIP3    H136140   5.014   6.101   8.221 -1.4430 -0.6138  0.9567
 4835TIP3    H236141   4.961   6.238   8.183  0.6680 -0.2190 -0.7948
 4836TIP3   OH236142   2.749   2.275   1.802 -0.0191 -0.0283  0.1031
 4836TIP3    H136143   2.683   2.300   1.736  0.0133  0.9858  0.4324
 4836TIP3    H236144   2.699   2.227   1.868 -0.1043 -0.8026 -0.5056
 4837TIP3   OH236145   4.985   2.051   8.584 -0.1199  0.1514  0.5529
 4837TIP3    H136146   5.020   2.105   8.654  0.8661 -0.0480  0.2357
 4837TIP3    H236147   4.900   2.021   8.617  0.6575 -0.5866  2.0113
 4838TIP3   OH236148   3.971   3.096   8.175 -0.8956  0.5263  0.6343
 4838TIP3    H136149   3.988   3.063   8.263  1.0745 -1.6704 -0.4735
 4838TIP3    H236150   3.913   3.171   8.189  0.2217  0.9642  3.8733
 4839TIP3   OH236151   2.817   4.966   1.003 -0.5035 -0.4404 -0.5116
 4839TIP3    H136152   2.784   4.942   0.916  0.1777 -3.5109 -0.0419
 4839TIP3    H236153   2.821   4.883   1.050  0.5799  0.9358  1.9763
 4840TIP3   OH236154   3.437   0.280   7.402 -0.6029 -0.4302 -0.1161
 4840TIP3    H136155   3.460   0.372   7.383 -0.4837 -0.7814 -1.8896
 4840TIP3    H236156   3.344   0.274   7.383 -0.4036 -0.8864 -1.0244
 4841TIP3   OH236157   3.343   3.897   8.573  0.4673 -0.0073 -0.2353
 4841TIP3    H136158   3.327   3.808   8.604  0.7662 -0.3583 -1.0645
 4841TIP3    H236159   3.413   3.930   8.629 -0.9982  0.4579  1.4236
 4842TIP3   OH236160   6.053   2.977   1.265 -0.2511 -0.2730 -0.3435
 4842TIP3    H136161   6.099   2.971   1.349 -4.1941  1.1778  2.1647
 4842TIP3    H236162   6.045   3.071   1.249 -0.2344 -0.5243 -2.0244
 4843TIP3   OH236163   2.817   2.606   8.318 -0.0153  0.4321  0.0713
 4843TIP3    H136164   2.880   2.579   8.252  0.2219 -0.6948  0.7188
 4843TIP3    H236165   2.846   2.693   8.346  1.7175 -0.3527  0.8710
 4844TIP3   OH236166   3.063   2.451   0.022  0.8199  0.0547  0.2245
 4844TIP3    H136167   2.969   2.447   0.005  0.6711  1.1487  0.6558
 4844TIP3    H236168   3.084   2.367   0.064  0.4316 -1.0066 -1.6188
 4845TIP3   OH236169   6.506   4.689   2.007 -0.4532 -0.1986  0.0550
 4845TIP3    H136170   6.459   4.645   2.078 -0.9981 -0.2297 -0.3155
 4845TIP3    H236171   6.446   4.758   1.979  0.9710  1.8032  1.6158
 4846TIP3   OH236172   4.515   1.157   8.149  0.0645 -0.0033  0.5641
 4846TIP3    H136173   4.610   1.156   8.148  0.0984  0.6838  1.5597
 4846TIP3    H236174   4.492   1.225   8.213 -1.0796 -0.7998  1.0518
 4847TIP3   OH236175   0.380   6.380   8.432 -0.0233 -0.1801  0.1225
 4847TIP3    H136176   0.319   6.310   8.409 -3.0809  2.2796  0.1565
 4847TIP3    H236177   0.397   6.368   8.525 -2.0861  0.1436  0.5935
 4848TIP3   OH236178   4.342   3.148   7.219 -0.7194  0.2311  0.1252
 4848TIP3    H136179   4.282   3.219   7.240 -0.0993  0.8848 -0.2509
 4848TIP3    H236180   4.299   3.069   7.253  0.5371  1.2178  4.7972
 4849TIP3   OH236181   1.222   2.879   0.610 -0.4273  0.3767 -0.0113
 4849TIP3    H136182   1.240   2.841   0.696  0.6687  1.8149  0.4368
 4849TIP3    H236183   1.164   2.816   0.568 -0.3299 -0.7622  1.4621
 4850TIP3   OH236184   6.264   0.971   1.339 -0.3524 -0.5631  0.2816
 4850TIP3    H136185   6.222   0.905   1.394 -1.6549 -0.2172 -0.2524
 4850TIP3    H236186   6.353   0.940   1.327 -0.5895 -1.5804  1.0651
 4851TIP3   OH236187   0.654   2.116   0.102 -0.0628  0.9687  0.3322
 4851TIP3    H136188   0.715   2.048   0.131 -2.6808 -2.3893 -1.3016
 4851TIP3    H236189   0.572   2.097   0.149 -1.4957  1.5831 -1.7756
 4852TIP3   OH236190   3.545   4.664   1.035 -0.2452  0.5923 -0.5552
 4852TIP3    H136191   3.486   4.653   0.960  0.7635  0.6726 -1.3779
 4852TIP3    H236192   3.556   4.759   1.044 -1.3651  0.6482  0.5192
 4853TIP3   OH236193   6.189   5.185   8.613  0.1433  0.6525  0.2609
 4853TIP3    H136194   6.252   5.178   8.684  1.9092 -0.5734 -1.3440
 4853TIP3    H236195   6.239   5.220   8.539 -1.1836  0.1318 -0.9354
 4854TIP3   OH236196   6.012   6.552   2.168 -0.2711 -0.2532  0.1073
 4854TIP3    H136197   6.003   6.477   2.110 -0.4750 -0.8542  0.8949
 4854TIP3    H236198   6.002   6.516   2.256  3.4910  0.0308  0.8181
 4855TIP3   OH236199   2.598   5.435   1.983  0.6856  0.1916 -0.3905
 4855TIP3    H136200   2.512   5.422   1.942  1.3912  2.0983 -2.7980
 4855TIP3    H236201   2.588   5.517   2.032  0.5226 -0.8597  1.4268
 4856TIP3   OH236202   2.640   0.999   7.900  0.0441 -0.5249  0.1168
 4856TIP3    H136203   2.556   1.044   7.909  1.4547  2.7624 -1.3245
 4856TIP3    H236204   2.675   0.997   7.989 -0.7408 -0.1822  0.4445
 4857TIP3   OH236205   4.934   3.104   7.420  0.2904 -0.4118 -0.2940
 4857TIP3    H136206   4.864   3.164   7.446 -0.3654 -0.5517 -1.6680
 4857TIP3    H236207   4.893   3.043   7.359  1.9288  0.4634 -2.3939
 4858TIP3   OH236208   2.899   3.583   0.028 -0.0356 -0.4489  0.0461
 4858TIP3    H136209   2.859   3.502   0.060 -0.5388 -0.3939 -0.4314
 4858TIP3    H236210   2.888   3.579  -0.067  0.0939  0.0980  0.0059
 4859TIP3   OH236211   1.954   6.619   7.447 -0.0138  0.5544 -0.2475
 4859TIP3    H136212   2.048   6.638   7.439  0.0218  1.3557  1.5826
 4859TIP3    H236213   1.943   6.534   7.405  1.8000 -0.2006  0.7048
 4860TIP3   OH236214   3.798   5.693   0.397  0.1341  0.3197 -0.7698
 4860TIP3    H136215   3.854   5.761   0.437  1.0593 -1.2849  0.8107
 4860TIP3    H236216   3.811   5.704   0.303 -0.3331  2.7934 -0.6105
 4861TIP3   OH236217   6.582   1.923   7.998  0.3432  0.0369  0.2353
 4861TIP3    H136218   6.670   1.902   8.028  0.7561 -0.9901 -1.5816
 4861TIP3    H236219   6.567   1.865   7.923 -2.3289 -0.6321  1.1852
 4862TIP3   OH236220   3.209   2.912   0.954 -0.2713 -0.3029 -0.1633
 4862TIP3    H136221   3.222   3.004   0.978 -1.0087 -0.4616  0.9175
 4862TIP3    H236222   3.188   2.914   0.861  4.2890  0.2123 -1.4399
 4863TIP3   OH236223   3.167   5.130   0.758  0.2406  0.0102 -0.3851
 4863TIP3    H136224   3.080   5.169   0.746 -1.0763 -2.4191  0.6111
 4863TIP3    H236225   3.203   5.176   0.834 -0.8509  0.0205  0.1535
 4864TIP3   OH236226   5.927   5.357   0.064  0.4037  0.3144  0.5689
 4864TIP3    H136227   5.962   5.427   0.010 -1.9627  2.3725  1.4953
 4864TIP3    H236228   5.844   5.334   0.022  0.6972 -1.2995  0.8128
 4865TIP3   OH236229   0.333   0.114   7.843 -0.5441  0.2229 -0.0955
 4865TIP3    H136230   0.374   0.037   7.883 -2.8882 -0.2728  1.6114
 4865TIP3    H236231   0.378   0.188   7.883  1.0088 -0.2121 -0.9415
 4866TIP3   OH236232   0.912   4.043   7.461  0.3439  0.3216 -0.2431
 4866TIP3    H136233   0.976   3.990   7.412  0.2962  1.6659 -1.8311
 4866TIP3    H236234   0.935   4.029   7.553  2.1981 -0.1285 -0.7336
 4867TIP3   OH236235   5.752   0.413   1.311  0.1953 -0.1074  0.0082
 4867TIP3    H136236   5.723   0.373   1.229 -0.8619  0.6687 -0.0197
 4867TIP3    H236237   5.779   0.501   1.286 -0.3790  0.2211  0.5241
 4868TIP3   OH236238   0.006   0.000   7.747 -0.0378  0.9124  0.1632
 4868TIP3    H136239   0.014  -0.095   7.736 -0.0160  0.8376  0.8253
 4868TIP3    H236240   0.094   0.029   7.773 -0.1775  1.0448  0.4859
 4869TIP3   OH236241   6.586   2.069   2.411  0.4681  0.0342  0.5747
 4869TIP3    H136242   6.672   2.111   2.420  0.9582 -0.8395  0.1493
 4869TIP3    H236243   6.591   2.023   2.327 -0.9120  1.0762 -0.1092
 4870TIP3   OH236244   4.905   6.098   8.491  0.3027 -0.8649  0.1309
 4870TIP3    H136245   4.986   6.127   8.534  0.1488 -1.1446  0.6099
 4870TIP3    H236246   4.909   6.140   8.404  1.1209 -1.1394  0.0218
 4871TIP3   OH236247   6.104   2.470   1.341 -0.1766 -0.2756 -0.3639
 4871TIP3    H136248   6.108   2.385   1.385 -1.0381  0.2146  0.7142
 4871TIP3    H236249   6.080   2.449   1.251 -0.1955 -1.1920 -0.1571
 4872TIP3   OH236250   5.200   1.792   7.882 -0.1632 -0.1572  0.3882
 4872TIP3    H136251   5.204   1.847   7.804  2.1369  0.5780  0.9394
 4872TIP3    H236252   5.112   1.806   7.917 -0.8051  0.4544 -1.3764
 4873TIP3   OH236253   5.355   6.517   1.818  0.3368 -0.4501  0.5822
 4873TIP3    H136254   5.332   6.608   1.837 -0.0258 -0.4160  0.0042
 4873TIP3    H236255   5.376   6.517   1.725  1.3620 -0.7587  0.8035
 4874TIP3   OH236256   0.562   0.437   8.241  0.0326  0.3552 -0.3194
 4874TIP3    H136257   0.542   0.449   8.334  0.6552 -0.7333 -0.0341
 4874TIP3    H236258   0.529   0.350   8.221 -0.2018  0.6279 -1.1593
 4875TIP3   OH236259   6.467   0.013   8.404  0.3087 -0.2728 -0.2392
 4875TIP3    H136260   6.386  -0.012   8.447  0.3243  0.1924  0.0669
 4875TIP3    H236261   6.444   0.019   8.311 -0.2587  0.8637 -0.0327
 4876TIP3   OH236262   6.770   1.434   7.384 -0.1074  0.2355  0.3167
 4876TIP3    H136263   6.748   1.501   7.320 -2.1523  2.0676  2.7337
 4876TIP3    H236264   6.785   1.483   7.465  0.1667 -2.1020  1.7547
 4877TIP3   OH236265   2.046   4.574   6.630 -0.2061  0.0185 -0.1034
 4877TIP3    H136266   1.987   4.641   6.663 -0.0717 -0.4653  1.1630
 4877TIP3    H236267   2.000   4.491   6.645 -1.0808 -0.1794 -3.0798
 4878TIP3   OH236268   3.981   1.545   2.834 -0.2432  0.5289 -0.1761
 4878TIP3    H136269   3.963   1.609   2.903  0.4937  0.6336 -0.0732
 4878TIP3    H236270   3.930   1.468   2.859 -0.5955  0.8400  0.0676
 4879TIP3   OH236271   3.214   5.870   1.350 -0.3398  0.0271 -0.0046
 4879TIP3    H136272   3.120   5.861   1.365 -0.8378 -0.1976 -2.7661
 4879TIP3    H236273   3.226   5.962   1.324 -0.0987 -0.3242 -1.2219
 4880TIP3   OH236274   0.101   4.313   0.479  0.5872 -0.3377  0.4772
 4880TIP3    H136275   0.142   4.275   0.401 -0.2343 -0.9178  0.3149
 4880TIP3    H236276   0.163   4.296   0.549  1.7361  0.9343 -0.1845
 4881TIP3   OH236277   5.396   6.411   0.496 -0.3531  0.2760 -0.0324
 4881TIP3    H136278   5.410   6.316   0.489 -0.8254  0.1533  0.6059
 4881TIP3    H236279   5.309   6.425   0.458 -0.2657  0.4686 -0.1675
 4882TIP3   OH236280   4.834   3.681   7.866 -0.8018  0.4307 -0.1513
 4882TIP3    H136281   4.836   3.712   7.956 -0.4959 -2.0005  0.7496
 4882TIP3    H236282   4.742   3.664   7.849 -0.7842  0.2102 -0.0327
 4883TIP3   OH236283   0.522   2.142   0.497  0.0706  0.2609 -0.0755
 4883TIP3    H136284   0.485   2.119   0.412  0.6786 -0.8970 -0.0476
 4883TIP3    H236285   0.616   2.131   0.485  0.1154 -0.5416  0.9179
 4884TIP3   OH236286   3.539   0.305   7.653  0.3577  0.5767  0.1944
 4884TIP3    H136287   3.552   0.214   7.677 -1.8528  0.0175 -0.4105
 4884TIP3    H236288   3.472   0.302   7.584  1.2941  2.5630 -0.9064
 4885TIP3   OH236289   4.172   3.275   8.328  0.3890  0.5839  0.2750
 4885TIP3    H136290   4.146   3.343   8.266  0.7800  1.9682  1.5716
 4885TIP3    H236291   4.107   3.279   8.398  0.8860  0.1976  0.7764
 4886TIP3   OH236292   5.847   2.289   0.067  0.3170  0.2836  0.1621
 4886TIP3    H136293   5.856   2.291   0.163  1.4483 -0.7721  0.1067
 4886TIP3    H236294   5.839   2.196   0.046  3.8154  0.1116 -1.0062
 4887TIP3   OH236295   2.062   1.958   8.310  0.6060  0.7796 -0.4436
 4887TIP3    H136296   2.120   1.983   8.382 -0.0110  0.0466  0.3320
 4887TIP3    H236297   2.105   1.882   8.270 -0.3121 -0.4877  0.8461
 4888TIP3   OH236298   2.834   3.236   8.296 -0.3408 -0.0459 -0.1309
 4888TIP3    H136299   2.748   3.203   8.323 -0.6732  0.5075 -0.5084
 4888TIP3    H236300   2.837   3.219   8.202  0.0946 -0.3516 -0.0636
 4889TIP3   OH236301   2.976   6.813   2.104  0.2055 -0.2189 -0.1151
 4889TIP3    H136302   2.952   6.889   2.156 -0.8081 -0.6011 -0.0012
 4889TIP3    H236303   3.040   6.766   2.158  1.1633  0.7621 -0.3724
 4890TIP3   OH236304   1.549   1.664   7.276  0.6028  0.1537  0.1375
 4890TIP3    H136305   1.470   1.678   7.225  0.5748 -1.0841 -0.1820
 4890TIP3    H236306   1.614   1.635   7.212  0.9652 -0.0534  0.5907
 4891TIP3   OH236307   0.015   1.565   1.379  0.1806  0.0324 -0.1322
 4891TIP3    H136308  -0.011   1.481   1.418 -1.4846  0.0684 -1.1128
 4891TIP3    H236309   0.034   1.621   1.454 -2.6878  0.0129  0.7341
 4892TIP3   OH236310   5.273   1.276   1.307 -0.2304 -0.0381 -0.2748
 4892TIP3    H136311   5.179   1.295   1.300 -0.2645 -0.3451 -0.7515
 4892TIP3    H236312   5.280   1.184   1.282  0.1034 -0.2419  0.5633
 4893TIP3   OH236313   5.588   5.032   1.933  0.0967 -0.1784 -0.5020
 4893TIP3    H136314   5.515   4.995   1.884  0.3419 -2.2683  0.5661
 4893TIP3    H236315   5.581   5.126   1.920 -3.2837 -0.2168  0.1922
 4894TIP3   OH236316   1.295   6.607   0.909  0.6317 -0.6619  0.2085
 4894TIP3    H136317   1.262   6.525   0.945  1.7262 -1.9903 -1.6157
 4894TIP3    H236318   1.288   6.596   0.815  0.4766  1.5169 -0.0674
 4895TIP3   OH236319   5.084   5.824   1.283  0.5301  0.4347  0.3888
 4895TIP3    H136320   5.081   5.820   1.187 -0.8141 -1.1339  0.4484
 4895TIP3    H236321   5.000   5.787   1.311  0.7883  1.1125  2.1870
 4896TIP3   OH236322   2.122   6.516   0.719  0.1910  1.2106  1.0671
 4896TIP3    H136323   2.194   6.574   0.695 -0.0168  0.4495 -1.6688
 4896TIP3    H236324   2.160   6.428   0.718 -0.2558  0.9961  1.9003
 4897TIP3   OH236325   3.335   3.747   1.021 -0.0791 -0.1099 -0.2577
 4897TIP3    H136326   3.245   3.779   1.021 -0.0540 -0.0431 -0.1038
 4897TIP3    H236327   3.331   3.664   1.068 -0.1393 -0.3245 -0.6335
 4898TIP3   OH236328   2.118   5.132   1.385  0.3815  0.0785  0.0769
 4898TIP3    H136329   2.064   5.178   1.449 -2.1593 -0.4653 -1.5526
 4898TIP3    H236330   2.167   5.068   1.437 -1.5928 -0.3549  1.5190
 4899TIP3   OH236331   2.672   3.784   7.949 -0.4592 -0.1667 -0.1342
 4899TIP3    H136332   2.694   3.756   8.038 -0.6727  1.3859  0.4454
 4899TIP3    H236333   2.755   3.808   7.910 -0.5146  0.5371  0.1670
 4900TIP3   OH236334   2.452   4.800   7.658 -0.2453  0.2004 -0.8296
 4900TIP3    H136335   2.419   4.857   7.589 -0.4129  0.6205 -0.4111
 4900TIP3    H236336   2.381   4.738   7.675  0.2884 -0.7658 -1.9462
 4901TIP3   OH236337   3.895   2.976   1.015 -0.4627  0.1907 -0.4180
 4901TIP3    H136338   3.865   2.910   1.079  0.8346 -0.5827 -0.5646
 4901TIP3    H236339   3.828   2.975   0.947 -0.6775 -0.7059 -0.2159
 4902TIP3   OH236340   2.415   4.916   8.136  0.1398  0.3478  0.1235
 4902TIP3    H136341   2.489   4.873   8.094 -0.6359 -1.2473  0.3290
 4902TIP3    H236342   2.340   4.860   8.117 -0.5417  0.4762  2.1992
 4903TIP3   OH236343   1.676   2.345   1.148 -0.0225  0.1006  0.5875
 4903TIP3    H136344   1.665   2.267   1.204 -0.5077 -1.3705 -1.4453
 4903TIP3    H236345   1.768   2.369   1.160  0.1746 -0.8667  1.1514
 4904TIP3   OH236346   4.604   2.252   0.128 -0.2681 -0.2069  0.2488
 4904TIP3    H136347   4.568   2.305   0.200  0.7514  2.0977 -0.8357
 4904TIP3    H236348   4.530   2.238   0.069 -0.2366  1.4574 -0.2311
 4905TIP3   OH236349   3.554   1.107   8.560  0.0159  0.2695  0.3587
 4905TIP3    H136350   3.627   1.145   8.512  0.3632  1.3143  1.6469
 4905TIP3    H236351   3.589   1.027   8.599 -0.3084 -0.6599 -1.1880
 4906TIP3   OH236352   5.812   5.627   6.875  0.5756  0.3171 -0.3549
 4906TIP3    H136353   5.809   5.565   6.802  0.1349  0.4306 -0.4367
 4906TIP3    H236354   5.724   5.623   6.913  0.3075  1.4318 -0.8133
 4907TIP3   OH236355   1.114   4.415   0.161  0.6752  0.1333 -0.1197
 4907TIP3    H136356   1.110   4.344   0.096 -0.7810  1.0896 -1.1569
 4907TIP3    H236357   1.075   4.377   0.240  1.6753 -0.7815 -0.0374
 4908TIP3   OH236358   5.043   3.546   8.635 -0.2148  0.1589  0.1809
 4908TIP3    H136359   4.980   3.522   8.568  0.6936  0.8747 -0.9629
 4908TIP3    H236360   5.117   3.487   8.621  1.0024  1.8735 -1.0697
 4909TIP3   OH236361   0.156   0.654   8.113  0.7351  0.4094 -0.4572
 4909TIP3    H136362   0.089   0.586   8.119  0.0386  1.0998 -0.1643
 4909TIP3    H236363   0.209   0.629   8.037 -0.4285  0.3373 -1.2825
 4910TIP3   OH236364   2.578   6.384   7.306  0.5880  0.4237  0.3817
 4910TIP3    H136365   2.554   6.477   7.311 -0.3565  0.1497  1.2578
 4910TIP3    H236366   2.665   6.384   7.265  0.9875  1.7516  1.1720
 4911TIP3   OH236367   3.485   1.494   7.453 -0.3794 -0.5847  0.2470
 4911TIP3    H136368   3.581   1.502   7.451 -0.5251  1.9686  0.0297
 4911TIP3    H236369   3.464   1.495   7.547 -0.1965 -1.1022  0.2952
 4912TIP3   OH236370   5.161   1.931   1.419 -0.2233  0.6314 -0.2613
 4912TIP3    H136371   5.124   1.928   1.330 -3.3857  2.0280  0.8424
 4912TIP3    H236372   5.096   1.885   1.473  0.3478  1.9430  1.6541
 4913TIP3   OH236373   2.650   5.418   8.343 -0.1086  0.5345 -1.0762
 4913TIP3    H136374   2.684   5.381   8.261 -0.8065 -0.7252 -0.8285
 4913TIP3    H236375   2.560   5.386   8.349 -0.5741  1.8709 -0.5533
 4914TIP3   OH236376   3.111   5.626   7.389 -0.0675  0.4763 -0.0069
 4914TIP3    H136377   3.181   5.575   7.431  1.0830  1.4789 -0.6349
 4914TIP3    H236378   3.157   5.683   7.327 -1.5644  0.3493 -1.2877
 4915TIP3   OH236379   1.805   2.653   0.731 -0.0052  0.2944  0.2108
 4915TIP3    H136380   1.796   2.558   0.742 -0.4057  0.3098  0.0660
 4915TIP3    H236381   1.809   2.665   0.636  1.7218  0.2935  0.2622
 4916TIP3   OH236382   5.567   4.764   6.634  0.2608  0.1040  0.0582
 4916TIP3    H136383   5.568   4.681   6.588 -0.6562  0.5659 -0.8439
 4916TIP3    H236384   5.658   4.793   6.635  0.3052  0.0683 -1.4609
 4917TIP3   OH236385   5.200   1.534   7.264 -0.0136 -0.1977  0.1189
 4917TIP3    H136386   5.147   1.567   7.192 -2.5960 -1.2994  1.3913
 4917TIP3    H236387   5.184   1.439   7.265  2.3473 -0.6676  0.3414
 4918TIP3   OH236388   1.895   6.679   0.387 -0.0744  0.1863 -0.6356
 4918TIP3    H136389   1.961   6.641   0.329 -1.1708  0.3789 -2.0540
 4918TIP3    H236390   1.848   6.604   0.423 -0.8562  0.1152 -1.7760
 4919TIP3   OH236391   6.023   4.984   2.000 -0.0032 -0.1552  0.4106
 4919TIP3    H136392   5.944   5.007   1.951  1.1884 -1.7523 -2.5109
 4919TIP3    H236393   6.087   5.050   1.973 -0.4219  1.7578  3.5461
 4920TIP3   OH236394   4.019   2.849   0.720  0.2507  0.1336  0.0651
 4920TIP3    H136395   4.081   2.911   0.681  0.5134 -0.5508 -0.6467
 4920TIP3    H236396   3.980   2.896   0.793  1.5065  0.6300  0.4350
 4921TIP3   OH236397   0.002   5.589   8.060 -0.1187  0.0114  0.0555
 4921TIP3    H136398   0.008   5.542   8.143 -0.4485 -1.2449 -0.6166
 4921TIP3    H236399  -0.091   5.610   8.050 -0.3958 -1.4638 -0.8369
 4922TIP3   OH236400   3.455   4.154   1.796 -0.4924 -0.4403  0.4157
 4922TIP3    H136401   3.369   4.140   1.757 -0.4944  0.2763  0.1403
 4922TIP3    H236402   3.485   4.067   1.821 -0.3145 -1.0117 -1.6089
 4923TIP3   OH236403   3.424   5.909   7.849  0.2979 -0.3296 -0.4965
 4923TIP3    H136404   3.360   5.957   7.795  0.7669 -0.2437 -0.9833
 4923TIP3    H236405   3.506   5.955   7.835  0.3628 -0.1177  0.5551
 4924TIP3   OH236406   6.216   2.458   1.838  0.2223  0.2662  0.4134
 4924TIP3    H136407   6.122   2.443   1.838  0.3331 -0.4264  0.5787
 4924TIP3    H236408   6.255   2.371   1.842  0.8627  0.5931  2.3526
 4925TIP3   OH236409   4.526   0.479   8.279  0.0827  0.2626  0.9886
 4925TIP3    H136410   4.439   0.510   8.257  0.4128 -0.0290 -0.8958
 4925TIP3    H236411   4.511   0.407   8.341 -1.4592 -2.9360 -2.6546
 4926TIP3   OH236412   1.606   4.518   0.988 -0.5030 -0.0717  0.1447
 4926TIP3    H136413   1.652   4.522   1.072 -0.5127 -0.7865  0.1872
 4926TIP3    H236414   1.603   4.425   0.966 -1.2297  0.0335 -0.2449
 4927TIP3   OH236415   0.607   2.575   8.159 -0.3020 -0.2245 -0.7173
 4927TIP3    H136416   0.629   2.484   8.138 -0.5901 -0.2316 -0.9904
 4927TIP3    H236417   0.607   2.620   8.075  0.5839  0.1936 -0.5020
 4928TIP3   OH236418   6.324   5.136   7.887  0.4547 -0.4789  0.0639
 4928TIP3    H136419   6.386   5.179   7.946  1.7709 -3.0823  0.7348
 4928TIP3    H236420   6.318   5.194   7.811  0.8931  1.5856  1.5088
 4929TIP3   OH236421   6.460   3.137   2.355 -0.0291  0.6072 -0.3683
 4929TIP3    H136422   6.385   3.124   2.297  2.1563 -1.6401 -2.9570
 4929TIP3    H236423   6.520   3.192   2.304  1.7035 -0.9040 -0.0460
 4930TIP3   OH236424   4.882   6.566   2.372  0.3079  0.2610  0.1149
 4930TIP3    H136425   4.959   6.545   2.426 -0.1516  0.2116  0.7603
 4930TIP3    H236426   4.809   6.524   2.417  0.0264 -0.4799 -1.0001
 4931TIP3   OH236427   5.980   5.388   8.610 -0.7996  0.2923  0.0508
 4931TIP3    H136428   6.034   5.309   8.614 -1.2201 -0.0296 -0.4775
 4931TIP3    H236429   5.971   5.406   8.516 -2.3095 -0.1551  0.0782
 4932TIP3   OH236430   5.968   2.567   7.575 -0.7809 -0.2423 -0.1800
 4932TIP3    H136431   5.962   2.605   7.487 -1.7252  0.0251 -0.0131
 4932TIP3    H236432   5.878   2.564   7.606 -0.3878  0.4559  1.1167
 4933TIP3   OH236433   3.025   6.490   1.892  0.1372 -0.9479 -0.3802
 4933TIP3    H136434   3.059   6.403   1.875 -0.2724 -1.3943  1.0151
 4933TIP3    H236435   2.939   6.475   1.931  0.3228  0.0588  0.4547
 4934TIP3   OH236436   2.698   2.840   2.845 -0.1198  0.5359 -0.5273
 4934TIP3    H136437   2.771   2.893   2.880  0.9123 -1.8434  1.1652
 4934TIP3    H236438   2.741   2.767   2.801 -1.5025 -0.3431 -0.4607
 4935TIP3   OH236439   5.127   5.179   1.760  0.1986 -0.0802 -0.3523
 4935TIP3    H136440   5.111   5.233   1.837 -0.4947 -2.2753  1.1195
 4935TIP3    H236441   5.203   5.219   1.718  0.7317  1.0382  1.5685
 4936TIP3   OH236442   1.527   0.104   7.824 -0.0357 -0.1645  0.1615
 4936TIP3    H136443   1.608   0.057   7.803  0.4309 -0.3938  2.2500
 4936TIP3    H236444   1.470   0.038   7.864 -0.5326  0.3842  0.3847
 4937TIP3   OH236445   4.954   1.014   7.884 -0.0086 -0.1408  0.3427
 4937TIP3    H136446   4.910   0.950   7.828 -0.6307 -1.2130  1.9862
 4937TIP3    H236447   4.892   1.032   7.954  0.7032  1.2435  0.6570
 4938TIP3   OH236448   1.088   2.154   6.843 -0.5515 -0.4611 -0.0107
 4938TIP3    H136449   1.099   2.195   6.929  0.0891 -0.1280 -0.2451
 4938TIP3    H236450   1.039   2.219   6.792  0.8093  0.2312 -0.5072
 4939TIP3   OH236451   6.344   4.914   7.696 -0.4875  0.3473  0.1875
 4939TIP3    H136452   6.438   4.910   7.680 -0.1787 -1.0742  1.9744
 4939TIP3    H236453   6.334   4.988   7.756 -0.4645  0.3245  0.2194
 4940TIP3   OH236454   1.402   6.099   1.436 -0.3791 -0.5305  0.1105
 4940TIP3    H136455   1.357   6.079   1.518  0.6579 -0.6410  0.6705
 4940TIP3    H236456   1.335   6.142   1.383 -0.8033  0.4691  1.3902
 4941TIP3   OH236457   3.005   1.924   7.858  0.5555 -0.0434  0.0502
 4941TIP3    H136458   3.090   1.936   7.900  0.3140 -0.1542  0.5726
 4941TIP3    H236459   3.025   1.925   7.764  1.2614 -0.9985  0.1689
 4942TIP3   OH236460   1.706   0.416   8.600 -0.4348 -0.1723  0.2146
 4942TIP3    H136461   1.643   0.462   8.655  0.7840  1.5540  0.2343
 4942TIP3    H236462   1.763   0.485   8.565 -0.1763 -1.3946 -1.9161
 4943TIP3   OH236463   3.969   4.966   1.498  0.3043 -0.0846  0.5049
 4943TIP3    H136464   3.915   4.923   1.430  0.7398  1.5644 -0.9485
 4943TIP3    H236465   4.051   4.918   1.497  1.1854  1.3193 -1.8646
 4944TIP3   OH236466   6.494   2.037   2.113 -0.0960 -0.5176 -0.6573
 4944TIP3    H136467   6.437   2.113   2.102 -0.8724 -1.0456 -0.3275
 4944TIP3    H236468   6.582   2.075   2.118 -0.5044  0.4023 -0.0828
 4945TIP3   OH236469   5.608   0.245   1.486 -0.5843 -0.4627  0.3877
 4945TIP3    H136470   5.637   0.287   1.405 -0.2917  1.2332  1.3300
 4945TIP3    H236471   5.678   0.264   1.548 -0.8015 -1.7559  1.0561
 4946TIP3   OH236472   6.206   5.172   1.918 -0.3106 -0.0435 -0.2984
 4946TIP3    H136473   6.196   5.194   1.825  0.8866  1.6484 -0.0673
 4946TIP3    H236474   6.255   5.245   1.955 -0.8678 -0.6279  1.7162
 4947TIP3   OH236475   2.774   3.859   1.957  0.0174  0.0581 -0.2884
 4947TIP3    H136476   2.814   3.935   1.999  0.5045 -0.9279  1.0771
 4947TIP3    H236477   2.690   3.848   2.002  0.5750 -1.0502  0.5254
 4948TIP3   OH236478   0.065   2.741   2.050  0.2238 -0.3201  0.0847
 4948TIP3    H136479   0.157   2.770   2.044  0.0543  0.2439  0.1142
 4948TIP3    H236480   0.017   2.821   2.069 -0.6131 -0.0675 -2.6183
 4949TIP3   OH236481   5.067   1.594   1.338 -0.2643  0.5751  0.2722
 4949TIP3    H136482   5.024   1.651   1.401 -1.4678 -0.2440  0.2229
 4949TIP3    H236483   5.068   1.508   1.381  0.8219  0.4597  0.0368
 4950TIP3   OH236484   3.712   2.632   1.803  0.1703 -0.2889 -0.1694
 4950TIP3    H136485   3.764   2.664   1.876  0.5819 -1.0776 -0.1019
 4950TIP3    H236486   3.773   2.578   1.752 -0.0238  0.4815 -1.2649
 4951TIP3   OH236487   3.407   4.336   0.785 -0.2344 -0.8538 -0.3634
 4951TIP3    H136488   3.343   4.392   0.741  1.1506  0.4164 -0.8521
 4951TIP3    H236489   3.481   4.332   0.725  0.9126 -0.7258  0.9821
 4952TIP3   OH236490   5.798   1.724   6.991 -0.4753 -0.0740 -0.0799
 4952TIP3    H136491   5.832   1.752   6.906  0.9083  1.6443  0.9471
 4952TIP3    H236492   5.875   1.693   7.038 -1.2350 -1.0745  0.5284
 4953TIP3   OH236493   0.982   3.527   1.220  0.2129 -0.1091  0.2457
 4953TIP3    H136494   1.048   3.468   1.258  2.1586  1.9497  0.2430
 4953TIP3    H236495   1.013   3.542   1.130 -0.2328  0.9304  0.2621
 4954TIP3   OH236496   1.432   0.636   0.471  0.1928  0.8069 -1.1463
 4954TIP3    H136497   1.498   0.625   0.402 -0.6610 -0.1263 -1.8361
 4954TIP3    H236498   1.351   0.653   0.424 -0.1847  1.3698 -0.3169
 4955TIP3   OH236499   2.535   3.218   7.649  0.5931  0.5089 -0.4008
 4955TIP3    H136500   2.533   3.284   7.581 -0.1856  1.6363  0.6686
 4955TIP3    H236501   2.448   3.222   7.690  0.5903 -1.0499 -0.1873
 4956TIP3   OH236502   3.234   3.493   0.543  0.7821  0.0095 -0.2842
 4956TIP3    H136503   3.175   3.451   0.607  2.2789 -1.7693  0.0006
 4956TIP3    H236504   3.233   3.585   0.567  0.6285 -0.4865  1.7867
 4957TIP3   OH236505   2.341   4.671   0.812  0.1073  0.1360  0.5863
 4957TIP3    H136506   2.292   4.600   0.769 -0.9722  1.2491 -0.1086
 4957TIP3    H236507   2.307   4.673   0.901 -0.3624  0.2082  0.4100
 4958TIP3   OH236508   0.712   4.232   7.771  0.3419 -0.0289  0.6011
 4958TIP3    H136509   0.791   4.274   7.803 -0.5432  1.4702  0.8827
 4958TIP3    H236510   0.664   4.301   7.725 -1.1284 -0.7145  1.0374
 4959TIP3   OH236511   0.632   2.842   3.046  0.4213 -0.5491 -0.0138
 4959TIP3    H136512   0.547   2.807   3.073  0.8729 -0.6905  1.3083
 4959TIP3    H236513   0.693   2.769   3.059  0.6104 -0.7660 -1.8991
 4960TIP3   OH236514   1.669   5.850   1.585  0.0306 -0.2516 -0.3690
 4960TIP3    H136515   1.717   5.889   1.511  2.4808 -1.4912  0.4432
 4960TIP3    H236516   1.636   5.767   1.552 -1.1913  0.3815 -0.7878
 4961TIP3   OH236517   2.170   6.644   7.774 -0.0363 -0.1606 -0.1519
 4961TIP3    H136518   2.179   6.738   7.759 -0.0978 -0.0488  0.4800
 4961TIP3    H236519   2.195   6.604   7.691 -0.0800  0.4160 -0.4508
 4962TIP3   OH236520   5.800   3.441   2.034 -0.2943  0.2440 -0.4263
 4962TIP3    H136521   5.875   3.498   2.050 -1.3089  1.3310  0.6704
 4962TIP3    H236522   5.724   3.499   2.042 -1.2585 -0.8395 -1.4427
 4963TIP3   OH236523   4.767   5.266   7.823  0.3448 -0.6718  0.0016
 4963TIP3    H136524   4.718   5.250   7.903  0.3359  2.0405  0.6253
 4963TIP3    H236525   4.713   5.227   7.754 -0.7339 -1.1307  1.0622
 4964TIP3   OH236526   1.672   4.668   7.958 -0.0010 -0.6955 -0.3771
 4964TIP3    H136527   1.669   4.734   8.028 -0.3423  0.1980 -1.2160
 4964TIP3    H236528   1.596   4.687   7.903  0.9433 -0.5809 -1.6968
 4965TIP3   OH236529   2.911   6.768   7.256 -0.4148  0.2948 -0.0722
 4965TIP3    H136530   2.923   6.844   7.312 -0.7273  0.4226 -0.1771
 4965TIP3    H236531   2.921   6.801   7.167 -1.1206  0.3301 -0.1451
 4966TIP3   OH236532   4.084   6.025   8.420  0.2693 -0.6222  0.3238
 4966TIP3    H136533   4.067   6.115   8.393 -0.1349 -1.0581 -0.9989
 4966TIP3    H236534   4.173   6.007   8.390  1.8484  0.4387  3.8502
 4967TIP3   OH236535   3.436   3.004   0.718  0.2043  0.0521 -0.1760
 4967TIP3    H136536   3.344   2.990   0.737  0.4991 -1.0947  0.4887
 4967TIP3    H236537   3.464   2.925   0.673  0.9458  0.2353 -0.0550
 4968TIP3   OH236538   4.212   0.766   1.551  0.3146 -0.8939 -0.0767
 4968TIP3    H136539   4.304   0.793   1.560 -0.2543  0.9066  0.8469
 4968TIP3    H236540   4.212   0.673   1.575  1.8202 -0.8232  0.3252
 4969TIP3   OH236541   2.867   1.317   7.863  0.0290 -0.1267  0.2241
 4969TIP3    H136542   2.831   1.405   7.876  1.0861  0.0130  2.9350
 4969TIP3    H236543   2.812   1.260   7.917  0.1779 -0.9149 -0.4318
 4970TIP3   OH236544   4.864   5.038   8.001  0.4469 -0.5951 -0.1579
 4970TIP3    H136545   4.791   4.978   7.986  0.5706 -0.3895 -1.7355
 4970TIP3    H236546   4.832   5.098   8.069 -0.4124 -1.2128 -0.0006
 4971TIP3   OH236547   5.967   4.046   1.718 -0.1991 -0.5456 -0.2979
 4971TIP3    H136548   5.999   4.032   1.807  0.7142 -0.9513 -0.6758
 4971TIP3    H236549   5.914   4.126   1.724  1.1890  0.3818  0.3083
 4972TIP3   OH236550   6.225   6.252   0.486 -0.0729 -0.0126 -0.0419
 4972TIP3    H136551   6.180   6.172   0.515 -0.1782 -0.9782 -2.5471
 4972TIP3    H236552   6.241   6.302   0.566 -0.8366 -2.1161  1.5099
 4973TIP3   OH236553   2.717   3.120   6.598 -0.4155  0.5576  0.6479
 4973TIP3    H136554   2.647   3.058   6.619 -0.6790  0.9769  1.0399
 4973TIP3    H236555   2.674   3.206   6.597  0.2184  0.9054  1.6268
 4974TIP3   OH236556   3.945   1.635   8.391  0.3237 -0.5689 -0.0120
 4974TIP3    H136557   3.928   1.563   8.451 -1.3602  0.1035  0.3617
 4974TIP3    H236558   3.961   1.710   8.447  3.1940 -0.7776 -0.3618
 4975TIP3   OH236559   3.928   4.258   8.712 -0.4924  0.4656 -0.0236
 4975TIP3    H136560   3.897   4.254   8.622 -1.3702 -3.0415  0.3213
 4975TIP3    H236561   4.021   4.238   8.707 -0.6853 -0.4339 -0.1162
 4976TIP3   OH236562   1.766   4.198   0.509  0.4156  0.1223 -0.8117
 4976TIP3    H136563   1.721   4.251   0.444 -1.9584 -0.4938  0.2233
 4976TIP3    H236564   1.768   4.253   0.587 -0.6369 -0.6615 -0.1970
 4977TIP3   OH236565   6.722   1.072   2.889 -0.4018  0.1451  0.0431
 4977TIP3    H136566   6.787   1.016   2.932 -1.5491 -0.8903  0.4886
 4977TIP3    H236567   6.769   1.111   2.815  0.8741 -0.1259  0.6837
 4978TIP3   OH236568   1.042   0.567   1.621 -0.4489  0.3233 -0.1591
 4978TIP3    H136569   1.076   0.479   1.607  0.5057  0.5334  0.7076
 4978TIP3    H236570   1.056   0.612   1.538 -0.1493 -0.0932 -0.3358
 4979TIP3   OH236571   5.604   6.223   2.440 -0.2215 -0.0738 -0.5441
 4979TIP3    H136572   5.570   6.307   2.409  1.9215  0.6734 -1.0918
 4979TIP3    H236573   5.667   6.247   2.509  0.6108 -1.1854 -0.8875
 4980TIP3   OH236574   1.414   3.796   0.948 -0.9645  0.4283 -0.0574
 4980TIP3    H136575   1.404   3.883   0.910  0.5346  0.4078 -0.5956
 4980TIP3    H236576   1.487   3.757   0.900  0.5440  0.1046  2.3118
 4981TIP3   OH236577   0.358   3.626   8.855 -0.1927 -0.7725  0.6312
 4981TIP3    H136578   0.412   3.628   8.933 -1.5743  1.1205  1.6231
 4981TIP3    H236579   0.300   3.550   8.868  2.1523 -2.8945 -0.5052
 4982TIP3   OH236580   4.096   6.199   8.154  0.0178 -0.6154  0.3308
 4982TIP3    H136581   4.077   6.105   8.155 -1.9919 -0.2545  1.6015
 4982TIP3    H236582   4.010   6.240   8.166  0.5610  1.4683 -2.0917
 4983TIP3   OH236583   3.209   1.703   2.144 -0.4891 -0.6541 -0.7653
 4983TIP3    H136584   3.169   1.733   2.063  0.6223  3.1838 -0.1129
 4983TIP3    H236585   3.141   1.718   2.211 -0.0755  0.0572 -0.4912
 4984TIP3   OH236586   6.367   6.204   7.148 -0.0588 -0.4643 -0.1252
 4984TIP3    H136587   6.392   6.159   7.068 -1.0190 -0.4408 -0.4522
 4984TIP3    H236588   6.401   6.292   7.138 -0.5303 -0.3418 -0.7029
 4985TIP3   OH236589   4.419   6.633   7.332  0.0927  0.9529  0.1210
 4985TIP3    H136590   4.361   6.619   7.258 -0.3183  0.7640  0.4756
 4985TIP3    H236591   4.416   6.728   7.348  1.2014  1.1864 -0.9177
 4986TIP3   OH236592   5.789   2.664   2.198 -0.5122  0.1777  0.4311
 4986TIP3    H136593   5.739   2.589   2.230  0.5350  0.2976  2.5772
 4986TIP3    H236594   5.840   2.630   2.125 -1.3110 -0.7506  0.2837
 4987TIP3   OH236595   6.454   1.351   8.841  0.5792  0.4995  0.0018
 4987TIP3    H136596   6.523   1.388   8.787  1.5743 -1.2661 -0.0250
 4987TIP3    H236597   6.490   1.352   8.930  1.2732 -1.6178 -0.1817
 4988TIP3   OH236598   4.042   4.351   0.554 -0.1158 -0.2150  0.2968
 4988TIP3    H136599   4.083   4.268   0.528  2.0019  1.1256 -0.9118
 4988TIP3    H236600   4.077   4.370   0.641 -0.5924 -0.5632  0.5689
 4989TIP3   OH236601   6.570   0.669   2.092 -0.0909 -0.3366 -0.0106
 4989TIP3    H136602   6.630   0.741   2.111 -0.5413 -0.2914  1.3090
 4989TIP3    H236603   6.500   0.677   2.158 -1.1923 -0.7945 -1.0747
 4990TIP3   OH236604   2.543   0.543   2.527  0.3667 -0.5941 -0.5014
 4990TIP3    H136605   2.620   0.600   2.527 -1.1600  1.6715  1.1397
 4990TIP3    H236606   2.547   0.498   2.612 -0.7093  0.5261  0.1817
 4991TIP3   OH236607   4.654   0.959   7.377 -0.1769  0.2768 -0.1204
 4991TIP3    H136608   4.616   0.990   7.295 -1.6795 -0.9778  0.0521
 4991TIP3    H236609   4.708   0.884   7.352  2.3410  2.0832 -0.3698
 4992TIP3   OH236610   4.707   4.271   8.711  0.0687  0.7502 -0.0217
 4992TIP3    H136611   4.765   4.320   8.770 -0.7431  0.8411  0.7208
 4992TIP3    H236612   4.635   4.241   8.767  0.3356 -0.9639 -0.5281
 4993TIP3   OH236613   5.369   1.623   7.981 -0.4063  0.7013 -0.0197
 4993TIP3    H136614   5.292   1.674   7.954 -1.7482 -1.0586  0.3247
 4993TIP3    H236615   5.334   1.558   8.042  1.2830 -0.4910 -0.2768
 4994TIP3   OH236616   1.742   1.194   1.665 -0.6411  0.0660  0.7558
 4994TIP3    H136617   1.788   1.117   1.698 -0.9587 -0.0370  0.9661
 4994TIP3    H236618   1.658   1.193   1.710 -0.3281  1.0141  1.3976
 4995TIP3   OH236619   4.405   0.549   1.476  0.2262 -0.5786 -0.4523
 4995TIP3    H136620   4.445   0.636   1.477  0.5595 -0.6925 -1.9671
 4995TIP3    H236621   4.474   0.490   1.507 -0.3168 -0.2190  1.5776
 4996TIP3   OH236622   1.724   3.520   7.469  0.3477 -0.3021 -0.2844
 4996TIP3    H136623   1.810   3.488   7.497  1.5623 -0.1185 -3.4859
 4996TIP3    H236624   1.706   3.473   7.388 -0.9661  2.1700 -1.5119
 4997TIP3   OH236625   1.848   0.629   8.871  0.4351  0.1367 -1.0474
 4997TIP3    H136626   1.754   0.615   8.862 -0.5292  3.2880  1.9172
 4997TIP3    H236627   1.883   0.543   8.897 -1.7861 -0.8162 -0.9979
 4998TIP3   OH236628   6.302   1.685   7.605 -0.0269  0.4370  0.2160
 4998TIP3    H136629   6.276   1.593   7.610  1.1622  0.1607  2.8147
 4998TIP3    H236630   6.233   1.732   7.651 -2.2724  1.4026 -3.6712
 4999TIP3   OH236631   1.315   3.251   8.630 -0.6216  0.3738  0.5076
 4999TIP3    H136632   1.350   3.321   8.683 -1.4179  0.9534  0.2916
 4999TIP3    H236633   1.225   3.239   8.661 -0.2049 -1.2475  1.2305
 5000TIP3   OH236634   5.437   0.475   1.859 -0.2853 -1.0143  0.4185
 5000TIP3    H136635   5.517   0.523   1.838 -1.7723  1.5523  0.2233
 5000TIP3    H236636   5.389   0.533   1.918 -2.8628 -1.6057 -0.9607
 5001TIP3   OH236637   6.132   4.451   8.448 -0.0726 -1.0358 -0.4418
 5001TIP3    H136638   6.041   4.424   8.446 -0.3855 -0.0334 -0.7131
 5001TIP3    H236639   6.129   4.546   8.460  1.0118 -1.3125  2.8953
 5002TIP3   OH236640   1.165   1.659   7.720 -0.4698 -0.6681 -0.0721
 5002TIP3    H136641   1.118   1.715   7.659 -2.6848 -0.8873  1.3297
 5002TIP3    H236642   1.198   1.719   7.787  0.5853 -0.6234 -0.6024
 5003TIP3   OH236643   2.429   6.485   1.978  0.0737  0.2927  0.7835
 5003TIP3    H136644   2.435   6.466   1.884  1.0902 -0.0430  0.9025
 5003TIP3    H236645   2.444   6.401   2.020  1.9386  0.8372  1.2790
 5004TIP3   OH236646   0.338   6.445   7.722 -0.4285  0.1436  0.3568
 5004TIP3    H136647   0.324   6.402   7.807  0.3277  0.8407  0.8505
 5004TIP3    H236648   0.422   6.490   7.732 -1.0866  1.5454 -0.2127
 5005TIP3   OH236649   2.697   1.594   8.136  0.0003  0.5612 -0.4573
 5005TIP3    H136650   2.790   1.612   8.127  0.4473 -0.4059  1.6716
 5005TIP3    H236651   2.687   1.503   8.109 -0.0781  0.2917  0.4191
 5006TIP3   OH236652   6.402   6.115   7.428  0.1904 -0.1316 -0.8434
 5006TIP3    H136653   6.411   6.127   7.334  1.0247  0.3743 -0.7103
 5006TIP3    H236654   6.480   6.066   7.454 -0.8143 -1.6915 -0.6411
 5007TIP3   OH236655   5.313   4.067   6.958  0.1566  0.5072  0.9667
 5007TIP3    H136656   5.258   4.024   7.023  1.7071 -0.4672  1.7091
 5007TIP3    H236657   5.372   3.998   6.927  0.5463  1.3547 -0.2633
 5008TIP3   OH236658   5.571   5.743   7.487 -0.1309 -0.0699  0.1109
 5008TIP3    H136659   5.662   5.735   7.459  0.1143 -4.4725  1.3742
 5008TIP3    H236660   5.522   5.693   7.422 -1.4455  0.7642  0.4211
 5009TIP3   OH236661   1.300   6.091   0.278 -0.5804  0.0695  0.1403
 5009TIP3    H136662   1.206   6.085   0.259 -0.7309  1.6515  0.2183
 5009TIP3    H236663   1.311   6.179   0.313  1.0023  0.0307 -0.2056
 5010TIP3   OH236664   1.280   6.435   8.574 -0.2927  0.3806  0.2380
 5010TIP3    H136665   1.327   6.456   8.493  1.7142  0.9750  1.4699
 5010TIP3    H236666   1.325   6.357   8.608 -0.5454  0.6327  1.1748
 5011TIP3   OH236667   1.769   2.664   0.460  0.8598 -0.7774 -0.0764
 5011TIP3    H136668   1.723   2.683   0.378  1.0102 -0.7321 -0.1507
 5011TIP3    H236669   1.853   2.627   0.432  0.3489 -2.0974  0.0602
 5012TIP3   OH236670   6.668   0.179   1.272 -0.6656 -0.1329  0.2747
 5012TIP3    H136671   6.693   0.110   1.210 -0.1279 -0.9508  1.3697
 5012TIP3    H236672   6.725   0.252   1.249 -0.5759 -0.3668 -0.2946
 5013TIP3   OH236673   0.115   5.309   8.659 -0.2269 -0.3535  0.0027
 5013TIP3    H136674   0.181   5.327   8.726 -1.1702 -0.5809  1.0242
 5013TIP3    H236675   0.082   5.222   8.680 -1.4402  0.0907  0.0446
 5014TIP3   OH236676   1.952   1.153   6.299 -0.1881 -0.1497 -0.3159
 5014TIP3    H136677   1.955   1.198   6.214 -1.1918 -1.1755 -0.9308
 5014TIP3    H236678   1.882   1.197   6.347  0.4387  0.4887  0.0340
 5015TIP3   OH236679   5.916   3.572   7.752  0.2712  0.2203  0.2837
 5015TIP3    H136680   5.829   3.542   7.727 -0.2158 -0.3152  2.4047
 5015TIP3    H236681   5.900   3.634   7.823  1.4540  3.0903 -1.7434
 5016TIP3   OH236682   6.321   4.143   8.415 -0.4333  0.2866  0.4556
 5016TIP3    H136683   6.374   4.100   8.482 -0.1645  1.5361  1.0810
 5016TIP3    H236684   6.307   4.231   8.449 -1.8725  0.3722 -0.2900
 5017TIP3   OH236685   3.262   5.880   6.896 -0.0750  0.6982 -0.1529
 5017TIP3    H136686   3.228   5.963   6.930  0.3131  0.8174 -0.0545
 5017TIP3    H236687   3.188   5.819   6.905 -0.1640  0.8727  0.3652
 5018TIP3   OH236688   4.015   0.670   8.878  0.0254 -0.5954 -0.4472
 5018TIP3    H136689   3.974   0.741   8.929 -0.0390 -0.6074 -0.4827
 5018TIP3    H236690   3.943   0.631   8.829 -0.1540 -1.4473  0.4666
 5019TIP3   OH236691   4.635   4.415   1.999  0.5247 -0.4267  0.4029
 5019TIP3    H136692   4.644   4.376   1.912  0.0018  1.4055 -0.5084
 5019TIP3    H236693   4.572   4.358   2.044 -0.7491 -0.2891 -1.1173
 5020TIP3   OH236694   4.211   3.752   8.029 -0.1357  0.2309 -0.1120
 5020TIP3    H136695   4.197   3.803   8.109  0.1068  0.2516 -0.0825
 5020TIP3    H236696   4.146   3.786   7.967 -1.3294 -0.8117  0.5425
 5021TIP3   OH236697   6.126   0.424   7.079 -0.0683 -0.6363 -0.0309
 5021TIP3    H136698   6.045   0.406   7.031  0.5341  0.8344 -1.7196
 5021TIP3    H236699   6.099   0.486   7.147 -0.5967 -1.2652  0.3488
 5022TIP3   OH236700   6.018   5.075   1.149 -0.5129 -0.3731 -0.0358
 5022TIP3    H136701   5.947   5.023   1.187 -0.1706 -1.9759 -1.4631
 5022TIP3    H236702   6.098   5.026   1.171 -0.1986 -0.5965 -1.5767
 5023TIP3   OH236703   1.274   5.053   1.185 -0.3382 -0.4032 -0.0314
 5023TIP3    H136704   1.315   4.988   1.127 -0.9999 -0.4744 -0.4329
 5023TIP3    H236705   1.219   5.001   1.243  2.2259 -0.6116  2.4082
 5024TIP3   OH236706   5.642   3.688   2.318  0.3422 -0.3644  0.3501
 5024TIP3    H136707   5.580   3.618   2.297  1.6074 -1.0324 -1.3872
 5024TIP3    H236708   5.714   3.644   2.363  1.1328 -0.2084 -0.7290
 5025TIP3   OH236709   0.391   4.319   1.670  0.0335  0.3562 -0.3063
 5025TIP3    H136710   0.460   4.373   1.631  0.8326  0.8714  1.7229
 5025TIP3    H236711   0.364   4.367   1.748 -1.2029 -0.8491  0.0437
 5026TIP3   OH236712   5.931   1.919   0.663 -0.2332  0.4096  0.1885
 5026TIP3    H136713   5.997   1.885   0.724  0.0838  2.4179  1.0614
 5026TIP3    H236714   5.852   1.871   0.685 -0.2923  1.4795  2.7277
 5027TIP3   OH236715   0.399   3.963   1.452  0.1231 -0.5051 -0.0477
 5027TIP3    H136716   0.435   3.923   1.373  0.6277 -0.4087  0.1315
 5027TIP3    H236717   0.475   3.992   1.501 -0.2385  0.8829 -0.2805
 5028TIP3   OH236718   5.303   6.583   1.424 -0.6597  0.3187 -0.0013
 5028TIP3    H136719   5.394   6.568   1.452 -0.5508  0.0270 -0.5025
 5028TIP3    H236720   5.254   6.509   1.460 -0.3791 -0.4963 -1.2299
 5029TIP3   OH236721   1.143   0.152   0.681 -0.0964 -0.5453  0.0354
 5029TIP3    H136722   1.217   0.172   0.624  1.5148 -0.6015  1.9916
 5029TIP3    H236723   1.087   0.095   0.628  1.5304 -0.9533 -1.3360
 5030TIP3   OH236724   5.580   4.390   0.900 -0.0361  0.2341  0.3862
 5030TIP3    H136725   5.668   4.429   0.906 -0.7939  2.1907 -0.2000
 5030TIP3    H236726   5.593   4.297   0.918  1.9062  0.7540  1.9703
 5031TIP3   OH236727   1.788   5.337   6.866 -0.1870 -0.2897  0.4894
 5031TIP3    H136728   1.717   5.371   6.811  1.2198  1.3458 -0.3988
 5031TIP3    H236729   1.808   5.410   6.926  0.8705 -0.6607  0.6037
 5032TIP3   OH236730   2.984   5.467   1.952  0.5482 -0.2718  0.0483
 5032TIP3    H136731   2.931   5.414   1.892 -0.5491 -0.9596  1.5500
 5032TIP3    H236732   2.931   5.546   1.967  0.7347 -0.1845  0.2471
 5033TIP3   OH236733   5.284   0.313   1.234  0.0847 -0.4235 -0.6648
 5033TIP3    H136734   5.317   0.227   1.209  0.7141  0.3233 -2.6145
 5033TIP3    H236735   5.197   0.317   1.192 -0.4066 -0.4984  0.3231
 5034TIP3   OH236736   5.056   5.391   7.164 -0.3021 -0.2396 -0.7023
 5034TIP3    H136737   5.115   5.371   7.091  1.3029 -0.8070  0.6678
 5034TIP3    H236738   5.053   5.487   7.167  1.3744 -0.1562 -0.2578
 5035TIP3   OH236739   3.426   1.423   8.534  0.1594 -0.0857 -0.3232
 5035TIP3    H136740   3.436   1.415   8.629 -0.7743 -0.0625 -0.2063
 5035TIP3    H236741   3.340   1.464   8.523  1.2971  2.2533 -1.1197
 5036TIP3   OH236742   5.984   1.542   0.898  0.2062  0.2244  0.5435
 5036TIP3    H136743   6.036   1.618   0.921 -0.6373  1.1991 -0.6425
 5036TIP3    H236744   6.043   1.468   0.908  1.6301  1.2294 -0.1735
 5037TIP3   OH236745   0.245   6.175   7.609  0.0820  0.0706 -0.2199
 5037TIP3    H136746   0.292   6.258   7.617 -1.5051  0.9354  0.6312
 5037TIP3    H236747   0.278   6.137   7.528  0.2063  1.9674 -1.1214
 5038TIP3   OH236748   5.370   5.471   1.315 -0.0277  0.5498 -0.1986
 5038TIP3    H136749   5.422   5.418   1.375 -0.0010  1.3266  0.4923
 5038TIP3    H236750   5.344   5.547   1.368 -0.6044  0.8995 -0.9699
 5039TIP3   OH236751   0.825   4.624   7.908  0.4639  0.3708  0.2853
 5039TIP3    H136752   0.748   4.670   7.941  1.0535  1.0522  0.7260
 5039TIP3    H236753   0.840   4.661   7.821 -0.1328 -0.2920 -0.1188
 5040TIP3   OH236754   4.413   2.083   2.223  0.4453 -0.3497  0.0960
 5040TIP3    H136755   4.458   2.001   2.243 -0.0361 -0.1866  2.1506
 5040TIP3    H236756   4.427   2.097   2.130  0.1751 -2.9973 -0.4149
 5041TIP3   OH236757   0.651   2.999   2.132  0.4957  0.2433  0.0432
 5041TIP3    H136758   0.737   2.979   2.097  0.3411 -1.3210  0.5082
 5041TIP3    H236759   0.668   3.037   2.218  0.7110 -2.9724  1.5437
 5042TIP3   OH236760   4.825   2.843   1.051  0.7471 -0.4829  0.1776
 5042TIP3    H136761   4.782   2.915   1.005  1.1177 -0.9883 -0.9975
 5042TIP3    H236762   4.901   2.821   0.996  1.5065 -0.7711  1.3030
 5043TIP3   OH236763   4.680   5.047   0.674 -0.0574 -0.6945 -0.1022
 5043TIP3    H136764   4.609   4.985   0.657  0.6568 -1.3227 -0.9019
 5043TIP3    H236765   4.755   5.011   0.627 -0.3060  2.2223 -3.1543
 5044TIP3   OH236766   1.331   3.609   7.727 -0.3619  0.0662  0.2552
 5044TIP3    H136767   1.244   3.648   7.723 -1.9055 -3.0105  0.5622
 5044TIP3    H236768   1.364   3.613   7.638 -0.5931  1.6646  0.2204
 5045TIP3   OH236769   5.372   6.113   8.654 -0.5618  0.0511 -0.1089
 5045TIP3    H136770   5.360   6.201   8.688 -0.5572  0.4226 -1.0273
 5045TIP3    H236771   5.411   6.064   8.726  2.5882  1.6304 -0.5932
 5046TIP3   OH236772   2.005   5.397   8.411  0.3402 -0.6002 -0.3521
 5046TIP3    H136773   2.078   5.340   8.435  0.6694  0.7761  2.3159
 5046TIP3    H236774   2.019   5.418   8.319  2.2422 -1.8567 -0.4012
 5047TIP3   OH236775   1.410   6.266   7.585  0.3748 -0.0491  0.2535
 5047TIP3    H136776   1.396   6.352   7.626 -1.9794 -1.1531  1.9963
 5047TIP3    H236777   1.322   6.231   7.572  1.2310 -1.6683 -1.7062
 5048TIP3   OH236778   1.018   1.568   2.414  0.2439 -0.3113 -0.1145
 5048TIP3    H136779   1.041   1.489   2.364 -2.1956 -0.4296 -1.1960
 5048TIP3    H236780   0.957   1.538   2.481 -0.9573  0.6491 -0.7264
 5049TIP3   OH236781   3.328   4.901   6.635  0.1832 -0.0647 -0.1905
 5049TIP3    H136782   3.279   4.867   6.710  0.4401  1.2872  0.6147
 5049TIP3    H236783   3.416   4.865   6.646  0.0653 -0.3639 -0.1967
 5050TIP3   OH236784   3.150   0.310   7.890  0.5796 -0.3698  0.3601
 5050TIP3    H136785   3.176   0.364   7.964  2.6231 -1.0366  0.1778
 5050TIP3    H236786   3.143   0.370   7.816 -0.5277  0.1397  0.8513
 5051TIP3   OH236787   1.341   6.156   8.247  0.4678  0.1705 -0.0544
 5051TIP3    H136788   1.309   6.065   8.250  0.1887  0.2509 -0.5039
 5051TIP3    H236789   1.436   6.148   8.249  0.4373 -0.0986  0.6979
 5052TIP3   OH236790   0.658   4.628   2.347 -0.4353  0.0430  0.4338
 5052TIP3    H136791   0.566   4.651   2.359 -0.9718 -1.4177 -0.5647
 5052TIP3    H236792   0.673   4.636   2.252  0.3885 -0.0319  0.5474
 5053TIP3   OH236793   4.076   4.111   8.121  0.3488 -0.2228  0.0438
 5053TIP3    H136794   4.062   4.199   8.157 -0.3505 -1.5753  3.4662
 5053TIP3    H236795   3.988   4.074   8.112  0.6040 -0.4679 -1.8468
 5054TIP3   OH236796   5.929   2.089   7.641 -0.0182  0.0544 -0.1035
 5054TIP3    H136797   5.957   2.030   7.571 -0.2702 -1.2107  0.8402
 5054TIP3    H236798   6.005   2.098   7.697 -0.2937 -0.2036  0.3146
 5055TIP3   OH236799   5.740   2.906   0.497  0.1850  0.3997 -0.2796
 5055TIP3    H136800   5.651   2.933   0.475 -0.1670 -1.6301 -1.6838
 5055TIP3    H236801   5.785   2.987   0.519 -3.2675  1.2379  5.9563
 5056TIP3   OH236802   4.928   2.742   1.430 -0.1588 -0.6639 -0.6121
 5056TIP3    H136803   4.975   2.693   1.362  1.9603  0.4821 -0.0420
 5056TIP3    H236804   4.991   2.807   1.461 -2.0024  0.6628  0.5345
 5057TIP3   OH236805   1.866   0.464   0.580  0.6402  0.2173  0.1977
 5057TIP3    H136806   1.854   0.556   0.606 -1.6768  0.3336 -1.0146
 5057TIP3    H236807   1.862   0.465   0.485 -0.8034 -1.2543  0.1973
 5058TIP3   OH236808   4.150   0.932   1.990 -0.0787  0.0906 -0.4938
 5058TIP3    H136809   4.209   0.926   1.915 -0.3870  0.6494 -0.7824
 5058TIP3    H236810   4.168   0.852   2.041  0.6703  0.0831 -0.7617
 5059TIP3   OH236811   1.061   5.381   1.330  0.7881  0.3084  0.1324
 5059TIP3    H136812   1.067   5.324   1.253 -0.1328  0.3194  0.0437
 5059TIP3    H236813   1.116   5.457   1.308  1.1892 -0.0644 -0.1712
 5060TIP3   OH236814   5.093   2.004   2.216 -0.7646 -0.0392  0.4639
 5060TIP3    H136815   5.162   2.066   2.240 -0.6353  0.1075 -0.2492
 5060TIP3    H236816   5.093   1.939   2.287  1.7400 -1.3788 -0.6169
 5061TIP3   OH236817   6.266   4.784   6.629 -0.2076 -0.9054  0.3202
 5061TIP3    H136818   6.361   4.786   6.636 -0.1410 -2.1829  0.0463
 5061TIP3    H236819   6.238   4.874   6.645  1.0196 -0.5917  0.7590
 5062TIP3   OH236820   2.600   2.685   1.548 -0.2519 -0.2306  0.2630
 5062TIP3    H136821   2.632   2.707   1.461 -0.7468  0.0030  0.1350
 5062TIP3    H236822   2.578   2.591   1.543 -0.3541 -0.1988  0.1122
 5063TIP3   OH236823   0.293   5.025   1.112 -0.3211  0.2820  0.6550
 5063TIP3    H136824   0.345   5.102   1.135 -0.8215  0.3652  1.5506
 5063TIP3    H236825   0.303   4.966   1.186 -0.5611 -0.1962  0.3162
 5064TIP3   OH236826   5.324   2.292   6.951  0.6209  0.6238 -0.2036
 5064TIP3    H136827   5.311   2.224   7.016  0.3996 -0.5150 -1.3954
 5064TIP3    H236828   5.258   2.275   6.884  0.7226  1.8623 -0.6613
 5065TIP3   OH236829   0.235   1.383   0.355 -0.1327 -0.4932  0.3214
 5065TIP3    H136830   0.258   1.330   0.278 -0.4467  0.3151 -0.3456
 5065TIP3    H236831   0.304   1.364   0.418  1.0713  0.0704 -0.7683
 5066TIP3   OH236832   1.416   3.927   7.383  0.0285  0.1304  0.0655
 5066TIP3    H136833   1.439   3.918   7.290 -0.3903 -0.5365  0.0191
 5066TIP3    H236834   1.447   3.845   7.422 -2.5573 -1.0006 -0.0703
 5067TIP3   OH236835   1.545   0.242   0.830  0.0115  0.0552 -0.2856
 5067TIP3    H136836   1.607   0.206   0.894  0.3966  3.1979  1.3020
 5067TIP3    H236837   1.563   0.194   0.749  2.3315 -1.2774  0.9258
 5068TIP3   OH236838   2.836   3.505   0.942 -0.0800 -0.4525 -0.6163
 5068TIP3    H136839   2.755   3.484   0.895  0.0793 -0.3428 -0.9433
 5068TIP3    H236840   2.807   3.531   1.030 -0.5310  1.1333 -1.2005
 5069TIP3   OH236841   3.419   3.323   0.752  0.2588 -0.0666  0.2908
 5069TIP3    H136842   3.383   3.319   0.663  0.4088 -0.4963  0.2496
 5069TIP3    H236843   3.375   3.253   0.799  1.3894 -0.9300  0.1094
 5070TIP3   OH236844   5.748   3.867   6.635  0.1478  0.1157  0.6257
 5070TIP3    H136845   5.835   3.855   6.674  0.4766  0.2901 -0.0252
 5070TIP3    H236846   5.757   3.948   6.584 -0.7425  0.7736  1.4846
 5071TIP3   OH236847   5.949   6.273   0.923  0.0583 -0.7027 -0.2874
 5071TIP3    H136848   5.959   6.231   0.838  0.7565  0.5163 -0.8424
 5071TIP3    H236849   6.031   6.254   0.969  1.0022  1.1085 -1.0760
 5072TIP3   OH236850   2.966   6.712   0.237 -0.5608 -1.2161  0.0568
 5072TIP3    H136851   2.993   6.667   0.157  1.1763 -1.8557  0.9521
 5072TIP3    H236852   2.981   6.805   0.219 -3.5704 -0.9052 -1.5791
 5073TIP3   OH236853   5.669   2.537   1.725 -0.3325  0.3944 -0.4660
 5073TIP3    H136854   5.719   2.607   1.767  0.1344  0.9300 -1.8506
 5073TIP3    H236855   5.624   2.493   1.797 -0.2875  1.8314  0.4844
 5074TIP3   OH236856   2.817   3.398   2.035  0.8517  0.4240 -0.2646
 5074TIP3    H136857   2.871   3.343   2.091  0.3261  2.0839  2.0003
 5074TIP3    H236858   2.734   3.407   2.083 -1.5966 -1.9395 -3.5065
 5075TIP3   OH236859   5.141   5.797   8.345  0.2063  0.0345 -0.1244
 5075TIP3    H136860   5.119   5.846   8.424  0.9988 -0.4830  0.4359
 5075TIP3    H236861   5.078   5.725   8.344  0.0022  0.2095 -0.1354
 5076TIP3   OH236862   4.727   1.796   0.339 -0.0291  0.0520 -0.2002
 5076TIP3    H136863   4.755   1.730   0.401 -1.2181 -1.9929 -1.7242
 5076TIP3    H236864   4.638   1.818   0.366  0.5807  1.5847  0.6861
 5077TIP3   OH236865   5.316   6.807   8.129 -0.6355 -0.4614  0.1102
 5077TIP3    H136866   5.327   6.830   8.037 -0.9688 -0.6478  0.0207
 5077TIP3    H236867   5.236   6.754   8.131  0.3871 -2.0698  0.2247
 5078TIP3   OH236868   2.535   3.221   7.994  0.1864 -0.9402  0.8290
 5078TIP3    H136869   2.512   3.314   7.989  0.4787 -0.9308 -0.7223
 5078TIP3    H236870   2.631   3.220   7.994  0.2218 -1.1891  2.7334
 5079TIP3   OH236871   5.140   4.196   1.764  0.0190 -0.2924 -0.4956
 5079TIP3    H136872   5.188   4.118   1.737  0.4434  0.1478 -1.0259
 5079TIP3    H236873   5.058   4.191   1.714 -0.0228 -0.4706 -0.4133
 5080TIP3   OH236874   1.482   5.515   2.047 -0.1062 -0.3951  0.0049
 5080TIP3    H136875   1.483   5.605   2.081 -1.4705 -0.0347 -0.8474
 5080TIP3    H236876   1.568   5.480   2.070 -0.5852  0.1192  3.0404
 5081TIP3   OH236877   5.217   6.762   1.873  0.1112  0.1544 -0.1218
 5081TIP3    H136878   5.205   6.781   1.780 -0.9664 -2.6005 -0.6453
 5081TIP3    H236879   5.303   6.797   1.894  0.3545  0.8942 -2.1465
 5082TIP3   OH236880   4.524   5.487   0.696  0.2619  0.3955 -0.0911
 5082TIP3    H136881   4.598   5.439   0.734 -0.8518 -1.8164 -0.5390
 5082TIP3    H236882   4.544   5.493   0.603 -0.5224 -1.0789 -0.3793
 5083TIP3   OH236883   5.355   4.618   2.529  0.7330  0.1335  0.2215
 5083TIP3    H136884   5.289   4.582   2.589  1.6835 -0.6198  0.8377
 5083TIP3    H236885   5.319   4.601   2.441 -0.4294  0.7847  0.5551
 5084TIP3   OH236886   1.807   4.679   1.864 -0.2660  0.3671 -0.0679
 5084TIP3    H136887   1.809   4.703   1.957  1.0427  0.0265  0.0149
 5084TIP3    H236888   1.899   4.668   1.841 -0.6421 -0.7792 -1.0942
 5085TIP3   OH236889   4.522   5.195   2.035  0.4465  0.3764  0.0662
 5085TIP3    H136890   4.536   5.126   2.099 -1.1530 -1.2106 -1.1798
 5085TIP3    H236891   4.478   5.265   2.083 -0.5873 -0.7222  0.7548
 5086TIP3   OH236892   3.761   1.403   0.619 -0.5707 -0.0960  0.1933
 5086TIP3    H136893   3.805   1.332   0.666  0.2658 -1.2419 -2.1890
 5086TIP3    H236894   3.829   1.471   0.611 -1.0643  0.6120  1.5563
 5087TIP3   OH236895   0.721   4.492   0.589  0.3061  0.4742 -0.4667
 5087TIP3    H136896   0.692   4.519   0.676 -1.0314 -2.3749  0.0688
 5087TIP3    H236897   0.640   4.474   0.541  1.0629 -0.2942 -1.4906
 5088TIP3   OH236898   1.713   1.479   0.795  0.5453 -0.2669  0.1930
 5088TIP3    H136899   1.618   1.474   0.786  0.7268 -0.6280 -1.8408
 5088TIP3    H236900   1.736   1.567   0.767  0.9973 -0.9346 -1.6679
 5089TIP3   OH236901   6.265   0.234   7.927  0.7834  0.4206  0.2226
 5089TIP3    H136902   6.207   0.275   7.863 -0.4994 -0.9043  0.4860
 5089TIP3    H236903   6.315   0.170   7.876 -0.2310 -0.6272  0.5060
 5090TIP3   OH236904   3.997   1.884   8.506 -0.3294  0.5900  0.5609
 5090TIP3    H136905   4.055   1.893   8.581  1.2656  3.3594 -0.8303
 5090TIP3    H236906   3.911   1.911   8.538 -0.2623 -0.6532  1.9091
 5091TIP3   OH236907   2.336   5.311   7.667 -0.7532 -0.0403  0.1041
 5091TIP3    H136908   2.301   5.288   7.581  1.8104  0.8323 -1.2923
 5091TIP3    H236909   2.354   5.405   7.662 -0.1178 -0.0626  1.4202
 5092TIP3   OH236910   6.298   0.438   1.653  0.1293 -0.3236  0.3659
 5092TIP3    H136911   6.261   0.526   1.659  0.5780  0.0803 -1.7594
 5092TIP3    H236912   6.278   0.397   1.737 -2.3134  0.9506  0.4887
 5093TIP3   OH236913   2.513   0.701   0.101  0.4906 -0.3243  0.0664
 5093TIP3    H136914   2.486   0.700   0.010 -1.1017 -0.1568  0.4976
 5093TIP3    H236915   2.490   0.788   0.132  1.3839 -0.2443  0.5329
 5094TIP3   OH236916   5.280   0.173   7.615  0.7462  0.3153 -0.1664
 5094TIP3    H136917   5.315   0.248   7.567  2.1192 -1.0519 -1.4558
 5094TIP3    H236918   5.195   0.156   7.574  0.9644  0.4567 -0.6868
 5095TIP3   OH236919   4.809   4.709   2.210  0.0541  0.1352 -0.5007
 5095TIP3    H136920   4.793   4.791   2.258  1.4179 -0.6899  1.4743
 5095TIP3    H236921   4.784   4.640   2.272 -1.3179 -0.9954 -2.2190
 5096TIP3   OH236922   3.807   5.093   7.698 -0.1576  0.3055 -0.3827
 5096TIP3    H136923   3.804   5.170   7.642 -0.0981  0.9018  0.4296
 5096TIP3    H236924   3.724   5.095   7.746  0.8995  1.2898  1.5022
 5097TIP3   OH236925   4.613   3.790   1.539  0.6709 -0.1698 -0.3600
 5097TIP3    H136926   4.667   3.786   1.461  0.9298  0.7468 -0.2334
 5097TIP3    H236927   4.671   3.823   1.608  0.3624 -0.6581  0.1497
 5098TIP3   OH236928   1.112   2.243   8.080  0.6162 -0.6002  0.1134
 5098TIP3    H136929   1.205   2.226   8.071  0.8208  0.6730 -0.3036
 5098TIP3    H236930   1.088   2.289   8.000  0.1124  1.0594  1.1767
 5099TIP3   OH236931   6.435   0.017   8.118  0.3192  0.1345  0.7368
 5099TIP3    H136932   6.483   0.053   8.043 -1.2223  1.6422  0.3877
 5099TIP3    H236933   6.370  -0.042   8.078 -0.5107  0.9479  0.8377
 5100TIP3   OH236934   5.611   4.205   8.664  0.5076 -0.2469  0.8911
 5100TIP3    H136935   5.656   4.249   8.592  1.2020 -0.1364  1.3871
 5100TIP3    H236936   5.596   4.275   8.728 -0.2429 -0.3125  0.8038
 5101TIP3   OH236937   1.069   2.890   2.227 -0.3510  0.1534  0.3121
 5101TIP3    H136938   1.149   2.932   2.258 -0.9292  0.6378  1.1882
 5101TIP3    H236939   1.099   2.808   2.187  0.6651  0.7736 -0.2480
 5102TIP3   OH236940   1.898   2.867   7.957  0.0663  0.2336  0.1526
 5102TIP3    H136941   1.940   2.952   7.972  0.8528 -0.0523 -0.3616
 5102TIP3    H236942   1.857   2.874   7.871  3.1148 -0.9971 -1.5630
 5103TIP3   OH236943   3.719   3.451   8.133 -0.3467 -0.1875 -0.2766
 5103TIP3    H136944   3.679   3.514   8.193 -1.0819 -0.6906 -0.2134
 5103TIP3    H236945   3.752   3.381   8.190 -0.5064 -0.3742 -0.4093
 5104TIP3   OH236946   5.941   3.448   8.397  0.1479 -0.2179 -0.6496
 5104TIP3    H136947   6.025   3.402   8.404  0.4770  0.0803 -2.3329
 5104TIP3    H236948   5.876   3.378   8.392  0.4240 -0.4640 -0.8060
 5105TIP3   OH236949   4.381   1.406   8.236  0.1012  0.7384  0.2424
 5105TIP3    H136950   4.371   1.418   8.141 -0.4611 -1.5973 -0.0381
 5105TIP3    H236951   4.294   1.380   8.267  0.5140  0.4777  1.2290
 5106TIP3   OH236952   6.512   5.690   0.951  0.5751 -0.1033  0.1971
 5106TIP3    H136953   6.471   5.693   0.865 -1.0806 -0.1381  0.9554
 5106TIP3    H236954   6.443   5.717   1.012  1.2265 -1.5940  1.6843
 5107TIP3   OH236955   1.556   0.041   8.899 -0.4750  0.1992  0.3015
 5107TIP3    H136956   1.470   0.073   8.927 -0.9230  0.2285 -1.0346
 5107TIP3    H236957   1.571  -0.037   8.951 -2.3003 -1.0357 -0.8987
 5108TIP3   OH236958   1.686   1.378   1.129  0.4376  0.6334  0.0296
 5108TIP3    H136959   1.653   1.468   1.133  0.5611  0.6646  0.2840
 5108TIP3    H236960   1.774   1.386   1.092  0.8767  0.7217  1.0643
 5109TIP3   OH236961   0.288   4.208   7.517  0.1333 -0.8300 -0.3679
 5109TIP3    H136962   0.325   4.226   7.431  0.7245  0.9878  0.2288
 5109TIP3    H236963   0.298   4.290   7.566  0.3641 -1.9773  1.6325
 5110TIP3   OH236964   2.238   4.344   8.711 -0.1288 -0.8491  0.4388
 5110TIP3    H136965   2.242   4.393   8.629  0.4181 -2.5507 -0.6007
 5110TIP3    H236966   2.207   4.257   8.686 -1.5362 -0.9354  2.2985
 5111TIP3   OH236967   0.957   0.351   8.543 -0.0036  0.8419 -0.3434
 5111TIP3    H136968   0.900   0.308   8.479  0.2645 -2.6914  1.5416
 5111TIP3    H236969   1.040   0.364   8.496 -0.6125  0.8390 -1.4644
 5112TIP3   OH236970   1.738   0.182   1.215 -0.5234  0.6643  0.1063
 5112TIP3    H136971   1.702   0.100   1.250  0.2464  0.1482 -0.2948
 5112TIP3    H236972   1.788   0.156   1.138  1.7652  1.1953  1.3426
 5113TIP3   OH236973   5.373   6.510   0.795  0.0706 -0.6373  0.1863
 5113TIP3    H136974   5.444   6.567   0.824 -0.1562  1.0863 -2.3443
 5113TIP3    H236975   5.418   6.433   0.760  0.4095 -1.8023  2.9396
 5114TIP3   OH236976   3.532   5.863   6.906 -0.0380 -0.5671  0.1415
 5114TIP3    H136977   3.437   5.857   6.914 -0.3478  0.8439 -1.6918
 5114TIP3    H236978   3.562   5.773   6.905 -1.6613 -1.1635 -1.8398
 5115TIP3   OH236979   3.489   2.743   2.047  0.5878  0.1175  0.2517
 5115TIP3    H136980   3.469   2.650   2.039  0.5576 -0.1011  2.3165
 5115TIP3    H236981   3.418   2.778   2.101  1.1130  1.1449  0.2977
 5116TIP3   OH236982   0.439   4.944   0.878  0.3904  0.1696  0.2490
 5116TIP3    H136983   0.516   4.890   0.895 -1.1595 -2.6524 -1.0015
 5116TIP3    H236984   0.406   4.967   0.965  1.0240 -1.0805  0.8524
 5117TIP3   OH236985   0.528   1.707   0.970 -0.0324  0.5382 -0.4566
 5117TIP3    H136986   0.498   1.621   0.996 -0.6882  0.9937  0.3349
 5117TIP3    H236987   0.617   1.693   0.938  0.0224 -0.3615  0.0770
 5118TIP3   OH236988   1.849   1.958   8.576 -0.5796 -0.3658  0.2143
 5118TIP3    H136989   1.781   1.907   8.531 -1.1542  0.0266  0.6286
 5118TIP3    H236990   1.862   2.035   8.520  0.4194 -1.0323 -0.5064
 5119TIP3   OH236991   2.608   5.974   1.405 -0.4931  0.2703 -0.1587
 5119TIP3    H136992   2.536   6.023   1.367 -1.0277  0.9287  1.5861
 5119TIP3    H236993   2.602   5.887   1.366 -2.1251  0.3685 -0.1701
 5120TIP3   OH236994   5.790   3.095   2.582  0.4331  0.1263 -0.6748
 5120TIP3    H136995   5.815   3.111   2.491  1.6766 -1.6526 -0.6998
 5120TIP3    H236996   5.771   3.001   2.585 -1.8546  0.5512  0.4311
 5121TIP3   OH236997   0.457   2.297   7.105  0.2196  1.0104 -0.0577
 5121TIP3    H136998   0.469   2.285   7.011  0.3479 -0.4564  0.1176
 5121TIP3    H236999   0.375   2.345   7.113 -0.0807  0.6526 -0.8990
 5122TIP3   OH237000   0.681   0.913   7.969  0.1303  0.4718  0.5019
 5122TIP3    H137001   0.744   0.852   8.007 -1.3703  0.0143  2.4053
 5122TIP3    H237002   0.644   0.864   7.895 -0.0358 -0.3978  1.1358
 5123TIP3   OH237003   6.272   2.036   8.618 -0.2767  0.1090 -0.1867
 5123TIP3    H137004   6.244   1.947   8.642  0.1935  0.2969  1.1097
 5123TIP3    H237005   6.346   2.054   8.675 -0.8065  1.6155  0.0769
 5124TIP3   OH237006   4.647   2.131   1.491  0.2431 -0.2352 -0.2990
 5124TIP3    H137007   4.553   2.133   1.508 -0.2413 -0.8752 -2.5757
 5124TIP3    H237008   4.685   2.091   1.569 -1.2963  0.3753  0.8264
 5125TIP3   OH237009   1.907   0.453   0.857 -0.5490 -0.0415  0.1826
 5125TIP3    H137010   1.939   0.542   0.871 -1.0209  0.1564  0.0510
 5125TIP3    H237011   1.910   0.441   0.762 -0.5904 -0.1219  0.1908
 5126TIP3   OH237012   5.805   3.475   3.154  0.7167  0.5067 -0.9833
 5126TIP3    H137013   5.763   3.559   3.137 -2.6386 -0.2284  2.3030
 5126TIP3    H237014   5.864   3.492   3.227  1.0072  0.2417 -1.1552
 5127TIP3   OH237015   6.812   5.764   7.771 -0.4344  0.1570 -0.0619
 5127TIP3    H137016   6.833   5.691   7.829  1.0622 -1.1531 -2.0967
 5127TIP3    H237017   6.886   5.825   7.782  1.2928 -1.3495 -2.3957
 5128TIP3   OH237018   1.499   6.308   0.107 -0.0857  0.2303  0.2721
 5128TIP3    H137019   1.478   6.215   0.111  1.7829 -0.1884  1.7345
 5128TIP3    H237020   1.571   6.313   0.044 -0.7526  0.8377 -0.4605
 5129TIP3   OH237021   4.969   5.291   0.532 -0.3383  0.2572 -0.2518
 5129TIP3    H137022   4.942   5.296   0.440 -1.4031  1.6049  0.0967
 5129TIP3    H237023   4.951   5.200   0.557 -1.8934  0.3668 -0.8491
 5130TIP3   OH237024   2.781   2.503   0.231 -0.5183  0.1221 -0.3523
 5130TIP3    H137025   2.720   2.432   0.210 -0.3318 -0.5267  1.1895
 5130TIP3    H237026   2.727   2.568   0.275 -0.3597  0.1721 -0.2318
 5131TIP3   OH237027   3.126   2.803   0.422  0.4174 -1.1040 -0.9821
 5131TIP3    H137028   3.061   2.757   0.369  0.6281  0.5038 -2.7686
 5131TIP3    H237029   3.195   2.826   0.361 -0.1276  2.3586 -0.5079
 5132TIP3   OH237030   4.208   4.540   1.615  0.3083 -0.0715  0.2905
 5132TIP3    H137031   4.304   4.536   1.609  0.4882  2.0210  1.1941
 5132TIP3    H237032   4.182   4.448   1.622  2.2603 -0.6803  0.4119
 5133TIP3   OH237033   0.897   0.806   0.624  0.5076 -0.1131 -0.1766
 5133TIP3    H137034   0.840   0.847   0.559  0.6772  0.9169  0.2955
 5133TIP3    H237035   0.839   0.751   0.677 -0.5175  2.4827  1.5994
 5134TIP3   OH237036   0.568   5.646   1.825 -0.0207  0.1964  0.2813
 5134TIP3    H137037   0.542   5.594   1.749 -1.8500  0.3904  0.7245
 5134TIP3    H237038   0.529   5.732   1.810  0.9192  0.7194  0.7217
 5135TIP3   OH237039   5.799   3.934   8.487  0.4298  0.1931  0.9595
 5135TIP3    H137040   5.739   3.915   8.414  2.4273 -0.3447 -0.6371
 5135TIP3    H237041   5.886   3.930   8.448  1.4820  2.7211  2.7955
 5136TIP3   OH237042   3.319   4.069   0.428  0.0969  0.0785  0.2697
 5136TIP3    H137043   3.401   4.036   0.465 -0.3477 -0.6891  0.5970
 5136TIP3    H237044   3.339   4.160   0.405  1.1787 -0.2332 -0.1123
 5137TIP3   OH237045   4.971   5.465   7.609  0.0973  0.0827 -0.1325
 5137TIP3    H137046   5.010   5.547   7.581 -0.1516  0.4045  0.4412
 5137TIP3    H237047   4.888   5.490   7.649 -0.3584 -0.5202 -0.6643
 5138TIP3   OH237048   2.438   5.046   1.409 -0.5420 -0.0465 -0.8898
 5138TIP3    H137049   2.463   5.094   1.331  0.6676  0.5414 -0.1793
 5138TIP3    H237050   2.482   5.092   1.481 -1.9715 -0.2916  0.1982
 5139TIP3   OH237051   2.060   3.287   2.504 -0.4786  0.1271 -1.1499
 5139TIP3    H137052   2.012   3.215   2.461 -1.5842  1.0130 -1.4630
 5139TIP3    H237053   2.027   3.366   2.461 -0.8103  0.9681  0.5888
 5140TIP3   OH237054   4.592   0.096   1.135  0.0539  0.2820 -0.1356
 5140TIP3    H137055   4.638   0.031   1.082 -1.4617 -0.7955 -0.2280
 5140TIP3    H237056   4.499   0.074   1.124 -0.5871  2.9185 -0.7126
 5141TIP3   OH237057   1.387   2.253   2.411 -1.1359 -0.2721 -0.0563
 5141TIP3    H137058   1.470   2.216   2.384 -0.9253  0.7900 -0.9203
 5141TIP3    H237059   1.385   2.241   2.506 -0.6260 -1.5361 -0.1935
 5142TIP3   OH237060   4.678   0.473   8.032 -0.9445 -0.3955  0.0901
 5142TIP3    H137061   4.768   0.490   8.062 -0.8553 -1.2054  0.3146
 5142TIP3    H237062   4.625   0.477   8.111 -1.0442 -0.3131  0.0190
 5143TIP3   OH237063   3.158   5.504   2.228 -0.0670  0.0242  0.3978
 5143TIP3    H137064   3.102   5.578   2.254 -1.8177 -0.5906 -1.3536
 5143TIP3    H237065   3.222   5.542   2.168 -1.1843  0.1136 -0.7828
 5144TIP3   OH237066   2.941   2.858   8.702  0.1947  0.0090 -0.2500
 5144TIP3    H137067   2.989   2.878   8.621 -0.7623  1.8513 -0.4212
 5144TIP3    H237068   3.009   2.842   8.767  1.2151  3.4734 -0.2501
 5145TIP3   OH237069   5.720   3.226   8.340  0.1568 -0.0159  0.2738
 5145TIP3    H137070   5.715   3.183   8.255 -1.7128 -0.2590  0.4571
 5145TIP3    H237071   5.648   3.290   8.338  1.2246  1.2594  1.0024
 5146TIP3   OH237072   4.084   5.554   7.613 -0.0708 -0.2328 -0.3844
 5146TIP3    H137073   4.137   5.508   7.678 -1.1941  1.8441  2.1688
 5146TIP3    H237074   3.995   5.520   7.626 -0.6497  1.5406  0.5646
 5147TIP3   OH237075   2.989   1.125   8.895  0.4766 -0.3103  0.2949
 5147TIP3    H137076   3.077   1.158   8.881  0.5112 -0.5954 -0.1955
 5147TIP3    H237077   3.001   1.034   8.922  0.3995  0.1592  2.0143
 5148TIP3   OH237078   6.213   6.505   7.654  0.1043  0.4563  0.2997
 5148TIP3    H137079   6.262   6.445   7.598 -2.1694 -0.3490 -0.9496
 5148TIP3    H237080   6.199   6.457   7.736 -0.2475 -0.0700 -0.0645
 5149TIP3   OH237081   6.239   2.751   7.589 -0.1013 -0.5734  0.3242
 5149TIP3    H137082   6.268   2.666   7.556 -0.6148 -0.2188 -1.1004
 5149TIP3    H237083   6.193   2.730   7.671 -1.7149 -1.9064 -0.8477
 5150TIP3   OH237084   6.612   0.927   8.699  0.5901  0.4223 -0.6623
 5150TIP3    H137085   6.541   0.872   8.663  0.1441  1.3134 -1.1678
 5150TIP3    H237086   6.691   0.896   8.655  0.7792 -1.4995  0.8793
 5151TIP3   OH237087   1.236   5.956   8.574 -0.0854 -0.1000 -0.0551
 5151TIP3    H137088   1.210   6.039   8.613 -0.1107 -0.5076  0.8049
 5151TIP3    H237089   1.330   5.950   8.590  0.2381  0.4980 -1.5289
 5152TIP3   OH237090   0.538   5.394   2.124 -0.7458 -0.4135  0.1462
 5152TIP3    H137091   0.625   5.426   2.150 -0.2885 -2.1382  0.8364
 5152TIP3    H237092   0.482   5.413   2.199 -0.4988 -1.1165  0.5143
 5153TIP3   OH237093   4.653   2.720   2.297 -0.6184  0.4438 -0.1138
 5153TIP3    H137094   4.604   2.757   2.370 -1.5223 -0.3537 -0.3024
 5153TIP3    H237095   4.733   2.685   2.338 -1.7287 -1.2104  0.7539
 5154TIP3   OH237096   0.102   3.210   0.717 -0.0553 -0.0809 -0.1546
 5154TIP3    H137097   0.065   3.291   0.682 -0.6134 -0.8294 -1.3586
 5154TIP3    H237098   0.181   3.195   0.664  0.1755 -0.2012  0.2201
 5155TIP3   OH237099   1.584   2.434   0.388  0.1738 -0.5969  0.5371
 5155TIP3    H137100   1.656   2.472   0.439  0.6280  0.4394 -0.8327
 5155TIP3    H237101   1.508   2.439   0.446  1.1583 -1.7002  2.0085
 5156TIP3   OH237102   5.845   3.739   1.460 -0.3025  0.4962 -0.3218
 5156TIP3    H137103   5.851   3.833   1.445  0.8857  0.4217 -0.4290
 5156TIP3    H237104   5.753   3.718   1.447 -1.3755  2.2122  3.2016
 5157TIP3   OH237105   2.562   0.443   0.644 -0.2585  0.4266 -0.2150
 5157TIP3    H137106   2.487   0.430   0.702  1.5855 -1.3904  1.9693
 5157TIP3    H237107   2.553   0.376   0.576  0.4475 -1.3527  1.3464
 5158TIP3   OH237108   3.268   5.566   0.899  0.5785 -0.5050 -0.1168
 5158TIP3    H137109   3.238   5.633   0.961 -0.0240 -1.6438  0.8819
 5158TIP3    H237110   3.346   5.603   0.859 -0.5826  1.4154 -0.7418
 5159TIP3   OH237111   6.210   1.142   8.069  0.2239  0.1054  0.5308
 5159TIP3    H137112   6.137   1.194   8.102 -0.1622  1.2452 -1.9076
 5159TIP3    H237113   6.288   1.189   8.098 -0.1093  2.7830 -2.3958
 5160TIP3   OH237114   4.460   4.133   8.343  0.4101  0.0228  0.4264
 5160TIP3    H137115   4.551   4.124   8.368  0.4508  0.1988  0.3480
 5160TIP3    H237116   4.428   4.206   8.397  0.6037  0.6638 -0.3088
 5161TIP3   OH237117   6.162   4.230   2.249 -0.3093  0.2714 -0.4624
 5161TIP3    H137118   6.135   4.265   2.164 -0.0851 -0.8597 -1.0278
 5161TIP3    H237119   6.250   4.264   2.262 -0.3955  0.5600 -0.6206
 5162TIP3   OH237120   2.414   1.376   8.807  0.0388 -0.8183  0.2641
 5162TIP3    H137121   2.487   1.366   8.746 -0.4407 -1.0972 -0.2752
 5162TIP3    H237122   2.349   1.427   8.758  0.1328  0.0101  0.9710
 5163TIP3   OH237123   4.978   0.043   2.316  0.0734 -0.3725  0.1750
 5163TIP3    H137124   5.062   0.019   2.277  0.0823  0.6937 -0.5147
 5163TIP3    H237125   4.946  -0.038   2.356  2.7062 -0.2416  2.9259
 5164TIP3   OH237126   5.118   3.677   2.576  0.1698 -0.2424  0.0954
 5164TIP3    H137127   5.087   3.767   2.569 -2.4251 -1.0811 -0.1714
 5164TIP3    H237128   5.153   3.670   2.665  2.9699  1.6762 -0.7098
 5165TIP3   OH237129   6.343   5.549   1.106  0.2263 -0.1756 -0.2616
 5165TIP3    H137130   6.415   5.524   1.049 -1.0379 -1.0587 -1.5560
 5165TIP3    H237131   6.307   5.466   1.138 -0.7715  0.1927 -0.3704
 5166TIP3   OH237132   2.774   5.362   7.312 -0.2614 -0.0394 -0.0191
 5166TIP3    H137133   2.712   5.410   7.367  0.5898  1.0003  0.0527
 5166TIP3    H237134   2.822   5.307   7.373 -0.6528 -0.3635  0.0062
 5167TIP3   OH237135   1.798   5.999   0.622  0.7591  0.0075 -0.3268
 5167TIP3    H137136   1.864   5.929   0.626  0.1804 -0.5167  0.3358
 5167TIP3    H237137   1.745   5.978   0.545  1.5241  0.5922 -1.0342
 5168TIP3   OH237138   1.229   4.816   6.962  0.0329  0.3336  0.2131
 5168TIP3    H137139   1.250   4.909   6.949  1.7188 -0.0307  0.1046
 5168TIP3    H237140   1.233   4.778   6.874 -1.2916  0.2655  0.1707
 5169TIP3   OH237141   5.602   6.717   7.822 -0.0898  0.4018 -0.0504
 5169TIP3    H137142   5.538   6.646   7.825  0.9071 -0.4880  0.8221
 5169TIP3    H237143   5.587   6.760   7.738 -1.4762 -0.1022 -0.0838
 5170TIP3   OH237144   0.450   0.823   2.093 -0.1703 -0.3374  0.3503
 5170TIP3    H137145   0.403   0.837   2.175  1.2941 -0.7832  1.3135
 5170TIP3    H237146   0.502   0.744   2.108  0.3662 -0.2490 -0.8940
 5171TIP3   OH237147   1.693   5.490   7.977  0.0669  0.2100 -0.0884
 5171TIP3    H137148   1.729   5.439   7.904  1.3429 -1.2211  1.4618
 5171TIP3    H237149   1.720   5.442   8.055 -1.2487  1.6966  1.3538
 5172TIP3   OH237150   1.417   1.967   8.688  0.6874  0.0886 -0.4514
 5172TIP3    H137151   1.414   1.916   8.607 -0.3441  0.0073 -0.3841
 5172TIP3    H237152   1.503   2.008   8.688 -0.0959  1.9603 -2.7608
 5173TIP3   OH237153   3.825   1.654   2.178 -0.0669 -0.5801  0.1577
 5173TIP3    H137154   3.771   1.577   2.199 -0.0550 -0.6518 -0.0743
 5173TIP3    H237155   3.792   1.684   2.094 -0.5648  0.1193  0.5967
 5174TIP3   OH237156   0.708   6.746   0.502  0.2064  0.3447  0.1011
 5174TIP3    H137157   0.725   6.829   0.459 -0.3480  0.1835 -0.4329
 5174TIP3    H237158   0.702   6.682   0.431 -0.0772 -0.0292  0.4529
 5175TIP3   OH237159   3.546   5.765   0.068  0.3145  0.4381 -0.1862
 5175TIP3    H137160   3.510   5.681   0.096  0.3360 -0.4021 -2.4526
 5175TIP3    H237161   3.638   5.746   0.049  0.6906  1.3403  0.6877
 5176TIP3   OH237162   5.092   6.470   1.545  0.3515 -0.0204  0.4409
 5176TIP3    H137163   5.043   6.546   1.576  0.6531  0.4711 -0.2756
 5176TIP3    H237164   5.055   6.396   1.594 -1.6902  0.2089 -0.6695
 5177TIP3   OH237165   5.309   4.044   0.966 -0.7419 -0.8584 -0.5503
 5177TIP3    H137166   5.283   4.128   1.003 -1.6461 -0.1446 -2.6224
 5177TIP3    H237167   5.404   4.046   0.965 -0.7361 -0.2432  0.2163
 5178TIP3   OH237168   6.534   3.531   0.490  0.0482 -0.2966  0.5393
 5178TIP3    H137169   6.534   3.505   0.582  0.9599 -0.0739  0.6050
 5178TIP3    H237170   6.601   3.599   0.484  0.0694 -0.3876 -0.3155
 5179TIP3   OH237171   1.345   2.147   8.004 -0.7010  0.4059  0.5582
 5179TIP3    H137172   1.425   2.159   8.055  0.4262 -2.2921 -0.4317
 5179TIP3    H237173   1.361   2.195   7.923 -0.6842  0.9822  0.8903
 5180TIP3   OH237174   2.861   0.278   8.127  0.4378  0.2215 -0.2649
 5180TIP3    H137175   2.936   0.231   8.164  0.1444 -1.4777 -1.7049
 5180TIP3    H237176   2.861   0.254   8.035 -2.0451 -0.0170 -0.2509
 5181TIP3   OH237177   6.221   3.312   7.676 -0.2253 -0.6670  0.5083
 5181TIP3    H137178   6.183   3.350   7.754  0.5952 -0.8670  1.0230
 5181TIP3    H237179   6.316   3.315   7.692  0.0430  0.5969 -1.0778
 5182TIP3   OH237180   0.498   4.819   0.598  0.1142 -0.4229  0.5650
 5182TIP3    H137181   0.486   4.905   0.638 -0.3365 -0.0724 -0.2996
 5182TIP3    H237182   0.561   4.833   0.527 -0.9662 -0.4969 -0.4600
 5183TIP3   OH237183   1.593   1.620   1.158  0.3839 -0.0674  0.1622
 5183TIP3    H137184   1.572   1.680   1.230 -0.4510  0.1233 -0.2324
 5183TIP3    H237185   1.637   1.675   1.093  1.8387 -0.3930  0.8319
 5184TIP3   OH237186   3.594   5.628   7.616 -0.4650  0.7727  0.2868
 5184TIP3    H137187   3.682   5.591   7.601 -0.0799  1.5874  0.4895
 5184TIP3    H237188   3.539   5.552   7.635 -0.0429  0.1366 -0.9387
 5185TIP3   OH237189   2.315   3.484   1.620 -0.6548  0.3408 -0.5250
 5185TIP3    H137190   2.321   3.580   1.616 -0.7502  0.3703 -0.0529
 5185TIP3    H237191   2.370   3.453   1.548 -1.5252  0.7756 -1.4006
 5186TIP3   OH237192   2.678   6.004   8.377  0.1077 -0.5481 -0.4625
 5186TIP3    H137193   2.700   5.967   8.292 -2.1211 -1.1419 -0.8707
 5186TIP3    H237194   2.634   6.087   8.357 -2.4142 -1.6866 -0.1516
 5187TIP3   OH237195   4.781   0.703   8.799  0.2078  0.1029 -0.9416
 5187TIP3    H137196   4.834   0.634   8.839 -0.5461  1.0412  1.8960
 5187TIP3    H237197   4.706   0.656   8.760 -0.2628 -0.7404  0.8684
 5188TIP3   OH237198   3.967   6.026   0.091 -0.1071  1.0380  0.4322
 5188TIP3    H137199   3.889   6.078   0.075  0.6281  1.6699 -1.3942
 5188TIP3    H237200   4.016   6.029   0.008  0.7185 -1.2808  0.7468
 5189TIP3   OH237201   2.482   1.255   2.380 -0.3589  0.2403 -0.1460
 5189TIP3    H137202   2.407   1.249   2.439 -0.7746  0.5034 -0.6343
 5189TIP3    H237203   2.519   1.342   2.395  0.8940 -0.5012  1.3070
 5190TIP3   OH237204   3.749   0.435   1.643 -0.2658 -0.0837  0.4179
 5190TIP3    H137205   3.711   0.522   1.640  0.2885  0.1519 -1.6243
 5190TIP3    H237206   3.675   0.375   1.635 -0.4196  0.3771 -5.2927
 5191TIP3   OH237207   4.939   1.516   0.072 -0.2072 -0.5038 -0.2938
 5191TIP3    H137208   4.853   1.499   0.110 -0.0304 -1.1611 -0.1835
 5191TIP3    H237209   4.975   1.429   0.054  0.5574 -0.2396 -0.0676
 5192TIP3   OH237210   1.697   0.385   6.621 -0.1183 -0.2774  0.0596
 5192TIP3    H137211   1.614   0.350   6.586  0.1724 -0.5937 -0.3276
 5192TIP3    H237212   1.762   0.362   6.555 -0.1506  2.4421 -1.0446
 5193TIP3   OH237213   1.588   4.727   1.656 -0.1276 -0.3121  0.0213
 5193TIP3    H137214   1.673   4.731   1.700 -0.0941 -0.2111 -0.0502
 5193TIP3    H237215   1.610   4.725   1.563 -0.2235  0.8909 -0.0441
 5194TIP3   OH237216   5.022   1.984   0.418 -0.5766 -0.1097 -0.0194
 5194TIP3    H137217   4.966   1.946   0.350 -1.6145 -0.8086  1.1904
 5194TIP3    H237218   5.110   1.984   0.379 -1.2936  0.4461 -1.7252
 5195TIP3   OH237219   5.117   2.803   0.025  0.9243  0.0042  0.2861
 5195TIP3    H137220   5.036   2.849   0.046  0.6108  0.8822 -2.4848
 5195TIP3    H237221   5.186   2.867   0.043  1.0889 -0.7148  2.5615
 5196TIP3   OH237222   5.806   2.542   8.032  0.3941 -0.3154  0.0404
 5196TIP3    H137223   5.842   2.507   8.114  0.0105 -0.7029  0.0431
 5196TIP3    H237224   5.859   2.502   7.964  1.7544  1.2011  0.1385
 5197TIP3   OH237225   5.229   6.049   7.172  0.0500 -0.0154  0.2239
 5197TIP3    H137226   5.166   5.989   7.133  0.1496 -0.4036  0.6484
 5197TIP3    H237227   5.234   6.122   7.111 -0.2481 -0.3322 -0.1855
 5198TIP3   OH237228   2.400   0.321   1.610 -0.9840 -0.5639 -0.3235
 5198TIP3    H137229   2.334   0.355   1.549  0.9870  1.8692 -1.2504
 5198TIP3    H237230   2.466   0.281   1.554 -1.1427 -2.0828  0.5313
 5199TIP3   OH237231   1.269   2.503   8.532 -0.3040  0.1520 -0.0382
 5199TIP3    H137232   1.235   2.508   8.443 -1.2582 -1.2613  0.2161
 5199TIP3    H237233   1.289   2.410   8.545 -1.1458  0.1606  1.5619
 5200TIP3   OH237234   3.754   3.715   3.163  0.0872  0.3833 -0.3364
 5200TIP3    H137235   3.763   3.660   3.085 -1.2727 -2.6888  1.4729
 5200TIP3    H237236   3.755   3.804   3.130  3.0431 -0.6005 -3.4598
 5201TIP3   OH237237   6.622   1.209   7.776 -0.0101 -0.0720 -0.3615
 5201TIP3    H137238   6.714   1.191   7.761  0.0078 -0.4342  0.1503
 5201TIP3    H237239   6.585   1.125   7.804 -0.9652 -0.4791 -2.6482
 5202TIP3   OH237240   0.839   6.155   6.986 -0.3856  0.1860 -0.3404
 5202TIP3    H137241   0.933   6.153   7.005 -0.1294 -0.9150 -1.5310
 5202TIP3    H237242   0.820   6.066   6.955 -1.7982  0.4431 -0.2580
 5203TIP3   OH237243   3.516   3.289   1.387  0.2283 -0.3431 -0.4438
 5203TIP3    H137244   3.566   3.248   1.457 -1.9067 -1.2853  0.5998
 5203TIP3    H237245   3.526   3.383   1.402  1.5214 -0.4938 -0.1972
 5204TIP3   OH237246   3.005   2.221   8.580  0.5169  0.4739  0.3074
 5204TIP3    H137247   3.033   2.165   8.652  2.2827  1.9955  0.9001
 5204TIP3    H237248   3.037   2.176   8.502 -2.4286 -1.7865  0.2391
 5205TIP3   OH237249   3.934   0.289   1.951  0.3654 -0.1928  0.2150
 5205TIP3    H137250   3.871   0.357   1.929  2.7104  1.5297 -1.7712
 5205TIP3    H237251   3.930   0.281   2.047 -2.3766  0.2074  0.1937
 5206TIP3   OH237252   0.701   6.314   6.794  0.0443 -0.3310  0.4084
 5206TIP3    H137253   0.767   6.272   6.850 -0.5177 -0.8960  0.6668
 5206TIP3    H237254   0.703   6.406   6.819  2.2826  0.1329 -1.1205
 5207TIP3   OH237255   3.504   5.639   7.298  0.3210 -0.5062  0.4672
 5207TIP3    H137256   3.577   5.595   7.343  0.5061  0.3224  0.9861
 5207TIP3    H237257   3.479   5.577   7.229  1.2897 -0.9558  0.4959
 5208TIP3   OH237258   4.686   4.056   7.982 -0.1192  0.1514  0.3719
 5208TIP3    H137259   4.743   4.074   8.056 -0.1785 -1.9651  1.0018
 5208TIP3    H237260   4.601   4.093   8.006  0.0180 -0.0145  1.1191
 5209TIP3   OH237261   0.746   5.351   7.733 -0.7425  0.1790  0.4636
 5209TIP3    H137262   0.666   5.401   7.717 -0.5883  0.0300 -0.9014
 5209TIP3    H237263   0.788   5.395   7.806 -1.6707  0.7420  0.6729
 5210TIP3   OH237264   5.439   1.479   1.385 -0.4753  0.1036  0.2185
 5210TIP3    H137265   5.441   1.545   1.316  1.1224 -0.5750 -0.4340
 5210TIP3    H237266   5.369   1.419   1.359 -1.6409  1.2486  0.5911
 5211TIP3   OH237267   5.978   3.016   7.598 -0.4682 -0.7084  0.1842
 5211TIP3    H137268   5.936   2.944   7.550 -1.1141  1.6839 -3.1951
 5211TIP3    H237269   6.065   3.023   7.559 -0.9220  1.1600 -0.5800
 5212TIP3   OH237270   0.570   2.516   0.953  0.0909 -0.2739 -0.8062
 5212TIP3    H137271   0.544   2.505   0.862  0.2253 -0.7883 -0.7860
 5212TIP3    H237272   0.623   2.596   0.954 -0.1354 -0.1204 -1.1276
 5213TIP3   OH237273   3.919   1.409   8.204 -0.0033 -0.0350 -0.3677
 5213TIP3    H137274   3.907   1.488   8.257  3.1561  1.0378 -1.0002
 5213TIP3    H237275   3.881   1.432   8.119 -2.5127 -0.7094  0.4906
 5214TIP3   OH237276   5.363   6.361   8.761  0.3924 -0.1586 -0.3563
 5214TIP3    H137277   5.274   6.395   8.767 -0.5283 -2.5268  0.5290
 5214TIP3    H237278   5.413   6.415   8.822 -0.6320  0.5958 -0.1459
 5215TIP3   OH237279   3.723   5.105   2.734  0.6643  0.6277  0.1367
 5215TIP3    H137280   3.679   5.168   2.790  2.4643  1.9234  0.1903
 5215TIP3    H237281   3.787   5.062   2.792  1.0371  0.4058 -0.4273
 5216TIP3   OH237282   1.279   4.623   2.915 -0.0461 -0.5046  0.1041
 5216TIP3    H137283   1.268   4.688   2.984 -0.8729 -0.2926 -0.2117
 5216TIP3    H237284   1.200   4.631   2.861  0.1203 -1.3491 -0.2913
 5217TIP3   OH237285   1.288   3.456   0.684 -0.6005  0.5940 -0.2405
 5217TIP3    H137286   1.203   3.496   0.705 -1.1941  0.4214 -2.1736
 5217TIP3    H237287   1.322   3.428   0.769 -2.2165  1.1634  0.6461
 5218TIP3   OH237288   4.657   0.061   2.664 -0.6370  0.0681  0.4789
 5218TIP3    H137289   4.708   0.033   2.739  0.2275 -0.2008 -0.1892
 5218TIP3    H237290   4.579   0.006   2.666 -1.0859  0.7097  1.6953
 5219TIP3   OH237291   5.358   3.124   1.333  0.6991  0.5322 -0.5426
 5219TIP3    H137292   5.324   3.075   1.258 -0.4366 -0.4021  0.5476
 5219TIP3    H237293   5.348   3.216   1.308 -3.2852  0.3679 -0.0860
 5220TIP3   OH237294   2.964   3.299   0.062 -0.0660  0.5544  0.7073
 5220TIP3    H137295   2.958   3.204   0.061  1.8586  0.4001  0.2885
 5220TIP3    H237296   3.010   3.321  -0.019 -3.2464  2.1124 -0.8382
 5221TIP3   OH237297   2.955   4.910   2.041  0.5398 -0.7240  0.1883
 5221TIP3    H137298   2.990   4.987   1.995  0.6856 -0.8276  0.1228
 5221TIP3    H237299   2.879   4.943   2.089  0.1954 -0.6701 -0.3729
 5222TIP3   OH237300   1.872   6.121   1.307 -0.0037 -0.0239  0.6412
 5222TIP3    H137301   1.853   6.192   1.245 -0.5300 -1.3159 -0.7509
 5222TIP3    H237302   1.791   6.070   1.310  0.0001  0.0444  2.4852
 5223TIP3   OH237303   4.841   3.763   1.410 -0.1990  0.1247  0.1176
 5223TIP3    H137304   4.820   3.669   1.412 -0.1641  0.1307  1.1758
 5223TIP3    H237305   4.923   3.768   1.360 -0.7801 -0.2747 -0.9194
 5224TIP3   OH237306   2.879   3.462   0.547 -0.6164  0.2745 -0.0581
 5224TIP3    H137307   2.906   3.413   0.470 -3.7683 -0.4311 -0.8792
 5224TIP3    H237308   2.911   3.551   0.531  1.2127 -0.4761 -0.7817
 5225TIP3   OH237309   5.879   3.584   0.129 -0.2860 -0.2876 -0.4057
 5225TIP3    H137310   5.790   3.561   0.155 -0.3620 -1.5538 -1.6446
 5225TIP3    H237311   5.871   3.670   0.087 -1.0179 -0.5873 -0.8951
 5226TIP3   OH237312   0.914   5.210   6.531 -0.2033 -0.4451  0.5221
 5226TIP3    H137313   0.968   5.143   6.573  0.7700 -0.1535 -0.2259
 5226TIP3    H237314   0.967   5.290   6.536 -0.8971  0.0305  0.4564
 5227TIP3   OH237315   2.523   3.702   6.775 -0.0405  0.2906  0.3879
 5227TIP3    H137316   2.607   3.681   6.733 -0.8523 -0.4352 -0.9239
 5227TIP3    H237317   2.457   3.676   6.711 -1.2856  0.6796  1.4807
 5228TIP3   OH237318   2.446   5.081   0.478  0.0496 -0.0461 -0.0515
 5228TIP3    H137319   2.452   5.033   0.561  0.5668 -2.7476 -1.5326
 5228TIP3    H237320   2.357   5.115   0.476 -1.2416 -3.1416  0.0605
 5229TIP3   OH237321   4.116   1.828   8.728  0.0225 -0.1329  0.2803
 5229TIP3    H137322   4.180   1.860   8.791  0.2301 -1.2690  0.6730
 5229TIP3    H237323   4.032   1.835   8.773 -0.0516  0.7024  0.0242
 5230TIP3   OH237324   2.271   4.709   6.928 -0.7414  0.6736  0.1466
 5230TIP3    H137325   2.178   4.689   6.939 -0.6426  1.3718  3.2214
 5230TIP3    H237326   2.279   4.801   6.953  0.7222  0.7517 -0.5058
 5231TIP3   OH237327   3.678   4.124   0.760 -0.2843 -0.5554  0.3104
 5231TIP3    H137328   3.647   4.087   0.677 -0.7043  0.0839  0.1695
 5231TIP3    H237329   3.602   4.172   0.794 -0.8656 -2.6740  2.2272
 5232TIP3   OH237330   6.472   2.391   0.746 -0.0601 -0.5465  0.5362
 5232TIP3    H137331   6.407   2.341   0.794 -2.1981  0.6750 -0.9349
 5232TIP3    H237332   6.466   2.479   0.781  1.3703 -0.5571  0.8834
 5233TIP3   OH237333   0.389   4.769   8.569  0.4804  0.1436 -0.1058
 5233TIP3    H137334   0.383   4.817   8.486 -0.4625  1.4096  0.6582
 5233TIP3    H237335   0.354   4.683   8.549 -2.2079  1.2178 -0.4972
 5234TIP3   OH237336   6.406   6.378   7.488 -0.7227 -0.1680  0.0139
 5234TIP3    H137337   6.386   6.292   7.453 -0.1207 -0.6099  0.7194
 5234TIP3    H237338   6.470   6.361   7.557 -1.2371  0.7526  0.7376
 5235TIP3   OH237339   3.915   6.532   6.968 -0.1535  0.0092 -0.0178
 5235TIP3    H137340   3.933   6.449   7.011  1.1164  0.2172 -0.1145
 5235TIP3    H237341   3.864   6.509   6.891 -1.1713 -0.5132  0.7867
 5236TIP3   OH237342   0.478   3.513   0.767 -0.1593 -0.1359  0.3995
 5236TIP3    H137343   0.441   3.596   0.799  0.8942  0.9846 -1.1839
 5236TIP3    H237344   0.458   3.512   0.674  2.5584 -0.1115 -0.2649
 5237TIP3   OH237345   0.515   4.955   1.841 -0.4851  0.4850  0.0041
 5237TIP3    H137346   0.475   5.018   1.901 -0.7438  1.9096 -1.6119
 5237TIP3    H237347   0.541   5.007   1.765  0.2440 -1.1945 -0.9443
 5238TIP3   OH237348   0.728   2.090   8.709  0.2241  0.2632 -0.0704
 5238TIP3    H137349   0.728   2.001   8.744  0.1097  1.0557  2.1231
 5238TIP3    H237350   0.793   2.089   8.639  0.0724 -1.5786 -0.2207
 5239TIP3   OH237351   6.468   0.381   8.637  0.0829  0.0136 -0.4722
 5239TIP3    H137352   6.407   0.416   8.702  0.3917  0.0630 -0.2074
 5239TIP3    H237353   6.530   0.453   8.621  0.4849 -0.2653 -0.2177
 5240TIP3   OH237354   6.559   5.661   8.074 -0.3152  0.4198  0.6059
 5240TIP3    H137355   6.499   5.601   8.117 -2.6981  2.7124  0.7247
 5240TIP3    H237356   6.505   5.705   8.007  2.1606  0.0573 -1.7949
 5241TIP3   OH237357   1.089   1.386   1.512  0.0401 -0.0136 -0.4634
 5241TIP3    H137358   1.064   1.440   1.587 -0.8268  0.2562 -0.9378
 5241TIP3    H237359   1.048   1.429   1.437 -0.3461 -1.1246 -0.8994
 5242TIP3   OH237360   1.370   3.990   6.914  0.3464  0.7992  0.2081
 5242TIP3    H137361   1.325   3.921   6.866 -0.0521  1.0595  0.2065
 5242TIP3    H237362   1.401   4.050   6.846 -0.2560  1.1908  0.2716
 5243TIP3   OH237363   0.449   1.332   0.533 -0.0679  0.1377 -0.6899
 5243TIP3    H137364   0.530   1.301   0.492 -1.2170 -0.8664 -2.3369
 5243TIP3    H237365   0.437   1.273   0.608  1.9259  1.8423  1.1223
 5244TIP3   OH237366   4.500   5.069   2.732 -0.2278  0.2224 -0.5161
 5244TIP3    H137367   4.483   5.123   2.654  0.3623  0.2064 -0.6608
 5244TIP3    H237368   4.421   5.016   2.741 -0.5693  0.6822 -0.7254
 5245TIP3   OH237369   4.907   1.074   7.092 -0.2933 -0.5008  0.6530
 5245TIP3    H137370   4.858   1.038   7.018  0.8762  2.8381 -1.9743
 5245TIP3    H237371   4.841   1.121   7.143 -0.3677  3.3475 -2.4673
 5246TIP3   OH237372   1.325   5.056   1.836 -0.6663 -0.0071 -0.2501
 5246TIP3    H137373   1.365   5.031   1.920  0.1101  0.4938 -0.4680
 5246TIP3    H237374   1.283   4.976   1.806  1.1697 -0.9034 -0.5778
 5247TIP3   OH237375   2.469   2.930   1.156  0.0056 -0.1915  0.3358
 5247TIP3    H137376   2.476   2.853   1.212 -0.9488 -0.0055  0.7329
 5247TIP3    H237377   2.548   2.981   1.173 -1.4933  1.3001  3.7509
 5248TIP3   OH237378   6.491   2.918   7.417 -0.2458  0.6282  0.6654
 5248TIP3    H137379   6.521   3.008   7.402  0.1615  0.3418 -0.3791
 5248TIP3    H237380   6.525   2.869   7.342 -0.7837 -0.3242  1.0232
 5249TIP3   OH237381   1.308   4.400   1.586  0.7881  0.1836  0.1136
 5249TIP3    H137382   1.334   4.312   1.613  0.1879  0.4577  1.7135
 5249TIP3    H237383   1.382   4.432   1.535  1.9790 -0.4448  1.3563
 5250TIP3   OH237384   1.346   3.310   7.657 -0.2352  0.1128 -0.3210
 5250TIP3    H137385   1.408   3.364   7.707  0.1338 -0.8855  0.3308
 5250TIP3    H237386   1.401   3.261   7.597 -0.3404 -0.9980  0.4626
 5251TIP3   OH237387   4.478   4.429   1.539 -0.3913  0.2124 -0.1791
 5251TIP3    H137388   4.502   4.499   1.600  0.1118  1.0842 -1.3398
 5251TIP3    H237389   4.481   4.349   1.591 -0.5367  1.0022  1.0717
 5252TIP3   OH237390   3.548   0.544   8.708  0.0206  0.3724 -0.1830
 5252TIP3    H137391   3.638   0.521   8.682  0.2756  2.7369 -1.7386
 5252TIP3    H237392   3.513   0.590   8.632 -2.0514  0.7015  0.9214
 5253TIP3   OH237393   5.558   5.805   7.843 -0.5070 -0.0138 -0.6954
 5253TIP3    H137394   5.468   5.812   7.813 -0.6652 -0.6278 -0.3780
 5253TIP3    H237395   5.583   5.715   7.823  0.3441  0.4021 -1.6133
 5254TIP3   OH237396   4.147   5.499   8.545  0.2213  0.3531  0.6278
 5254TIP3    H137397   4.096   5.446   8.484 -1.0122  0.4713  1.5200
 5254TIP3    H237398   4.160   5.442   8.621 -1.0348  1.2488  1.5553
 5255TIP3   OH237399   5.270   0.823   8.376 -0.4793  0.5772  0.1821
 5255TIP3    H137400   5.301   0.773   8.300  0.9483  0.4170  0.8469
 5255TIP3    H237401   5.174   0.821   8.367 -0.5087 -2.2594  0.1430
 5256TIP3   OH237402   3.215   4.017   8.353 -0.3144 -0.1896 -0.1846
 5256TIP3    H137403   3.138   3.967   8.324 -0.3048 -0.1750 -0.2360
 5256TIP3    H237404   3.258   3.959   8.417 -0.1350 -0.3780 -0.4742
 5257TIP3   OH237405   0.219   0.924   0.456  0.3066 -0.0607  0.2872
 5257TIP3    H137406   0.298   0.929   0.402  0.1453  0.1899  0.0738
 5257TIP3    H237407   0.249   0.938   0.546  0.4153  0.7084  0.1364
 5258TIP3   OH237408   5.948   0.950   2.022  0.1524 -0.7413 -0.1338
 5258TIP3    H137409   5.877   1.001   2.062  2.0427  1.4386  0.6441
 5258TIP3    H237410   5.941   0.970   1.928  1.0127  1.2737  0.1838
 5259TIP3   OH237411   5.826   1.277   0.683 -0.5211 -0.3710  0.8071
 5259TIP3    H137412   5.873   1.337   0.624 -0.6579 -0.3503  0.7167
 5259TIP3    H237413   5.894   1.241   0.740 -0.2365 -1.0966  0.0390
 5260TIP3   OH237414   3.752   5.957   1.349  0.0668 -0.0740 -0.1996
 5260TIP3    H137415   3.841   5.922   1.354  0.5665  1.2524  1.5781
 5260TIP3    H237416   3.719   5.947   1.438 -0.0628  3.0366  0.1924
 5261TIP3   OH237417   6.585   1.747   7.756 -0.2013  0.3075 -0.5788
 5261TIP3    H137418   6.556   1.694   7.682  1.6397  0.0460 -1.1523
 5261TIP3    H237419   6.649   1.808   7.719 -0.3512  1.1856  0.5449
 5262TIP3   OH237420   2.939   0.433   0.216 -0.0083 -0.4741 -0.0683
 5262TIP3    H137421   2.850   0.404   0.236 -0.0772 -0.5598 -0.4874
 5262TIP3    H237422   2.993   0.395   0.285 -0.2999 -0.4031  0.2013
 5263TIP3   OH237423   3.808   4.974   8.806 -0.2524  0.5618 -0.3041
 5263TIP3    H137424   3.832   5.066   8.804  1.5798  0.1613  0.6579
 5263TIP3    H237425   3.756   4.964   8.886  0.3228  0.6010  0.0777
 5264TIP3   OH237426   2.001   3.519   2.370 -0.1272 -0.4419 -1.0354
 5264TIP3    H137427   1.941   3.592   2.357 -1.5626 -1.1494  1.1388
 5264TIP3    H237428   2.081   3.559   2.402 -0.9002  0.2095  0.1367
 5265TIP3   OH237429   1.217   0.283   2.565  0.3007 -0.7181 -0.0711
 5265TIP3    H137430   1.206   0.339   2.488 -0.4014  0.2683  0.7129
 5265TIP3    H237431   1.235   0.196   2.529 -1.1202 -0.5150 -1.3743
 5266TIP3   OH237432   0.002   0.404   6.737 -0.0312  0.1017  0.0670
 5266TIP3    H137433  -0.042   0.320   6.727 -1.9014  1.0980 -0.4515
 5266TIP3    H237434  -0.063   0.461   6.777  1.7348  0.9039  1.9578
 5267TIP3   OH237435   6.335   6.426   8.442  0.7429  0.5203 -0.4800
 5267TIP3    H137436   6.339   6.409   8.536 -1.3018 -1.6524 -0.7008
 5267TIP3    H237437   6.271   6.497   8.434  0.4390  0.2728 -0.2658
 5268TIP3   OH237438   4.079   4.934   8.359  0.3181  0.0161  0.0047
 5268TIP3    H137439   4.151   4.944   8.297  0.3451 -2.4415 -0.4610
 5268TIP3    H237440   4.009   4.892   8.308 -0.0324 -1.1140  1.3739
 5269TIP3   OH237441   1.501   1.152   0.892 -0.1933  0.3333  0.3005
 5269TIP3    H137442   1.478   1.086   0.826  0.8506  0.3757 -0.1159
 5269TIP3    H237443   1.592   1.175   0.873 -0.0465  0.7450  1.4237
 5270TIP3   OH237444   3.771   2.771   2.071 -0.6484  0.2259 -0.1744
 5270TIP3    H137445   3.810   2.855   2.094  1.7345 -0.6553 -0.6072
 5270TIP3    H237446   3.677   2.787   2.068 -0.2358  2.9880 -0.8015
 5271TIP3   OH237447   3.277   6.658   8.632  0.3784  0.2156 -0.1380
 5271TIP3    H137448   3.286   6.731   8.693  2.1042 -0.1027  0.0347
 5271TIP3    H237449   3.210   6.686   8.570 -1.0898  0.7435  1.6128
 5272TIP3   OH237450   2.697   1.475   1.047 -0.0028 -0.1235  0.0742
 5272TIP3    H137451   2.751   1.540   1.002  0.3846  0.2897  1.1124
 5272TIP3    H237452   2.639   1.442   0.978 -0.4310  1.5407 -0.4358
 5273TIP3   OH237453   2.261   4.527   8.485 -0.0087  0.4540 -0.1103
 5273TIP3    H137454   2.356   4.532   8.496  0.1186  1.1487 -1.3357
 5273TIP3    H237455   2.236   4.612   8.449 -1.1743  0.4424  0.6054
 5274TIP3   OH237456   2.900   1.886   0.008 -0.1089  0.5673 -0.1301
 5274TIP3    H137457   2.946   1.948  -0.049 -0.1853 -0.1594 -1.0074
 5274TIP3    H237458   2.954   1.879   0.086 -0.0660  1.6856 -0.0420
 5275TIP3   OH237459   6.140   0.513   1.949 -0.4986 -0.6059  0.4731
 5275TIP3    H137460   6.119   0.430   1.907 -1.2446  1.5476 -4.1280
 5275TIP3    H237461   6.055   0.552   1.968 -0.1768 -0.4081  1.5563
 5276TIP3   OH237462   5.436   4.649   1.159  0.3675  0.1913  0.1882
 5276TIP3    H137463   5.406   4.652   1.068  0.8213  1.0711  0.0550
 5276TIP3    H237464   5.422   4.558   1.186  1.0212 -0.3057 -1.0397
 5277TIP3   OH237465   3.211   2.397   0.975 -0.6500  0.4664 -0.2501
 5277TIP3    H137466   3.230   2.473   1.029 -0.7849 -0.1400  0.6747
 5277TIP3    H237467   3.147   2.346   1.026 -1.7011  0.4755 -1.5185
 5278TIP3   OH237468   3.167   2.605   0.745 -0.0740  0.1464 -0.1640
 5278TIP3    H137469   3.171   2.574   0.836 -1.4006 -0.1186 -0.1843
 5278TIP3    H237470   3.110   2.542   0.701 -0.7021  1.1585 -0.8220
 5279TIP3   OH237471   2.360   4.541   7.536  0.4080  0.0960  0.0240
 5279TIP3    H137472   2.277   4.577   7.567 -1.2339 -2.2506 -1.2942
 5279TIP3    H237473   2.381   4.473   7.600 -0.7126 -1.8164 -1.5425
 5280TIP3   OH237474   5.868   6.464   2.401  0.2032  0.4264  0.2166
 5280TIP3    H137475   5.826   6.416   2.472  1.2418 -1.0889 -0.1433
 5280TIP3    H237476   5.910   6.539   2.444  1.5336 -0.9193  1.3753
 5281TIP3   OH237477   0.906   4.597   1.020  0.2460  0.1202  0.3575
 5281TIP3    H137478   0.919   4.506   0.992  0.1605  0.4674 -0.8603
 5281TIP3    H237479   0.816   4.617   0.998  0.5850  0.8458 -0.4223
 5282TIP3   OH237480   2.817   2.558   0.664 -0.2959 -0.0374  0.2318
 5282TIP3    H137481   2.783   2.645   0.643  1.8440  0.5859 -1.0068
 5282TIP3    H237482   2.744   2.498   0.647 -1.5044  1.4068  0.1492
 5283TIP3   OH237483   3.511   1.712   7.275  0.3601 -0.7029  0.3222
 5283TIP3    H137484   3.606   1.706   7.289  0.5613  0.6964 -0.2565
 5283TIP3    H237485   3.476   1.631   7.312  1.6190 -0.5339  1.9925
 5284TIP3   OH237486   0.156   5.882   1.803  0.4020  0.0573 -0.0715
 5284TIP3    H137487   0.102   5.813   1.841 -0.2080  0.1108 -0.8075
 5284TIP3    H237488   0.115   5.900   1.718 -0.1790  2.1383  0.5703
 5285TIP3   OH237489   2.526   3.202   8.654 -0.3205  0.6133 -0.4970
 5285TIP3    H137490   2.572   3.170   8.576  0.5866 -0.3863  0.4025
 5285TIP3    H237491   2.443   3.156   8.653 -0.6384  1.1799 -1.2603
 5286TIP3   OH237492   2.207   4.235   7.950  0.5308 -0.2866  0.8027
 5286TIP3    H137493   2.178   4.291   7.879  0.7200 -0.3685  0.6607
 5286TIP3    H237494   2.131   4.230   8.009 -0.5501 -2.2557 -0.6348
 5287TIP3   OH237495   6.241   0.304   0.929  0.0028 -0.0819  0.1610
 5287TIP3    H137496   6.261   0.378   0.872  2.6217  0.0620  1.1451
 5287TIP3    H237497   6.156   0.325   0.967  0.6748  2.4558  0.4269
 5288TIP3   OH237498   5.543   1.177   8.127 -0.1688  0.5994 -0.0129
 5288TIP3    H137499   5.491   1.198   8.049 -0.2120  0.8315  0.0789
 5288TIP3    H237500   5.487   1.200   8.201 -0.2270  0.1397  0.0931
 5289TIP3   OH237501   6.811   5.592   1.438  0.2940 -0.6322  0.5288
 5289TIP3    H137502   6.846   5.638   1.362 -0.3498 -0.4347  0.3379
 5289TIP3    H237503   6.740   5.539   1.402  0.1486 -0.7277  0.9559
 5290TIP3   OH237504   0.375   6.450   0.283  0.2446  0.5857  0.5886
 5290TIP3    H137505   0.377   6.421   0.192  3.7134 -1.1166  1.0647
 5290TIP3    H237506   0.381   6.546   0.277  2.3116  0.4349 -1.0451
 5291TIP3   OH237507   4.860   2.139   0.584 -0.3282 -0.7945  0.1898
 5291TIP3    H137508   4.912   2.071   0.541  1.4574  0.0706  0.8713
 5291TIP3    H237509   4.866   2.215   0.526 -1.0020 -0.7218  0.2005
 5292TIP3   OH237510   5.215   4.587   6.693  0.1367 -0.3288  0.2057
 5292TIP3    H137511   5.142   4.646   6.674  0.5547 -0.2113 -1.1075
 5292TIP3    H237512   5.177   4.499   6.687 -0.1937 -0.2376  0.8791
 5293TIP3   OH237513   3.838   1.173   8.526  0.1042 -0.4026 -0.3623
 5293TIP3    H137514   3.838   1.269   8.526  0.3220 -0.3987  0.4164
 5293TIP3    H237515   3.916   1.149   8.576  0.2771 -0.9959 -0.8976
 5294TIP3   OH237516   3.223   2.342   2.025  0.5822  0.2009 -0.3498
 5294TIP3    H137517   3.210   2.337   2.120  0.1580  0.7975 -0.3738
 5294TIP3    H237518   3.213   2.434   2.004  1.6934  0.2283 -0.8379
 5295TIP3   OH237519   4.388   1.332   0.114 -0.1060  0.4553 -0.1061
 5295TIP3    H137520   4.379   1.275   0.038 -1.6975  0.9208 -0.3030
 5295TIP3    H237521   4.421   1.274   0.184 -1.0057 -0.5495 -0.4886
 5296TIP3   OH237522   3.105   2.612   1.319 -0.3824  0.5297  0.4590
 5296TIP3    H137523   3.045   2.541   1.296  0.9968 -0.4268 -0.3368
 5296TIP3    H237524   3.093   2.624   1.413 -3.0455  1.5729  0.0862
 5297TIP3   OH237525   6.132   4.272   1.971 -0.1669 -0.5755  0.0732
 5297TIP3    H137526   6.159   4.362   1.989  0.2777 -0.9353  1.3706
 5297TIP3    H237527   6.173   4.250   1.887 -0.4115  0.4734 -0.3270
 5298TIP3   OH237528   4.996   4.689   2.006 -0.4822  0.0394 -0.4799
 5298TIP3    H137529   4.933   4.694   2.078 -0.5526  1.6402 -0.6194
 5298TIP3    H237530   4.985   4.601   1.970 -0.7885 -0.6197  1.1454
 5299TIP3   OH237531   0.242   2.440   6.730 -0.3682  0.0762  0.0996
 5299TIP3    H137532   0.165   2.467   6.779 -1.0626 -0.3897 -0.7030
 5299TIP3    H237533   0.256   2.509   6.665 -1.6737 -1.0122 -1.4325
 5300TIP3   OH237534   0.965   6.550   7.507  0.2532  0.4954  0.1091
 5300TIP3    H137535   0.947   6.630   7.458  2.3725  0.4331 -0.8634
 5300TIP3    H237536   0.935   6.480   7.450  1.5415  0.4829 -0.5946
 5301TIP3   OH237537   5.032   6.200   1.456  0.2240  0.0070  0.0048
 5301TIP3    H137538   5.030   6.295   1.452  1.1260 -0.0123 -1.3134
 5301TIP3    H237539   5.065   6.181   1.544  0.3729  0.9208  0.1583
 5302TIP3   OH237540   1.429   1.769   0.305 -0.6171  0.1083 -0.3476
 5302TIP3    H137541   1.421   1.839   0.241  0.0802  1.6235  1.1618
 5302TIP3    H237542   1.466   1.810   0.382  1.5710 -2.2717  0.0198
 5303TIP3   OH237543   2.676   6.503   1.247  0.1300  0.9166 -0.2808
 5303TIP3    H137544   2.629   6.434   1.293  1.3266  0.4170  0.2337
 5303TIP3    H237545   2.692   6.570   1.314  1.3580  0.4505 -0.0801
 5304TIP3   OH237546   0.351   6.000   2.481 -0.2306 -0.6957  0.4675
 5304TIP3    H137547   0.399   5.969   2.559  0.1834  0.1949  0.5732
 5304TIP3    H237548   0.320   6.087   2.505  0.6471 -0.0404 -0.6561
 5305TIP3   OH237549   4.218   0.838   7.352  0.0320  0.2634 -0.3260
 5305TIP3    H137550   4.139   0.786   7.336  0.9394 -0.9575 -0.9294
 5305TIP3    H237551   4.257   0.848   7.265  0.4419  1.0454 -0.0558
 5306TIP3   OH237552   3.581   5.624   1.213  0.0602  0.6087 -0.1015
 5306TIP3    H137553   3.562   5.561   1.282  0.2365  0.8608  0.1796
 5306TIP3    H237554   3.673   5.612   1.193 -0.1490  0.0623 -0.7815
 5307TIP3   OH237555   3.370   1.982   8.727 -0.0041  0.2137  0.4807
 5307TIP3    H137556   3.414   2.064   8.751  0.7040 -0.4141  1.3738
 5307TIP3    H237557   3.436   1.914   8.739 -0.9492 -0.6405  0.9937
 5308TIP3   OH237558   1.105   6.139   0.537  0.3111  0.1403  0.6381
 5308TIP3    H137559   1.170   6.202   0.503  1.0618  0.3309  2.3371
 5308TIP3    H237560   1.041   6.131   0.466  1.6121  0.7778 -0.6720
 5309TIP3   OH237561   2.009   3.983   2.275  0.2794  0.1408  0.1822
 5309TIP3    H137562   2.103   3.971   2.285  0.3595 -0.4064 -1.0976
 5309TIP3    H237563   1.972   3.950   2.357  1.2685  1.7409  1.3287
 5310TIP3   OH237564   1.067   3.587   0.002  0.2768  0.0399 -0.0881
 5310TIP3    H137565   1.093   3.546   0.084  0.8703  0.0659 -0.2554
 5310TIP3    H237566   1.084   3.680   0.014  0.8615 -0.0178 -0.4149
 5311TIP3   OH237567   3.471   1.610   8.121  0.8294 -0.1327  0.3435
 5311TIP3    H137568   3.499   1.534   8.070  0.0544  0.0793 -0.4344
 5311TIP3    H237569   3.548   1.666   8.125  1.4135 -0.9601  0.9395
 5312TIP3   OH237570   2.811   1.635   8.412  0.2249 -0.9874  0.1982
 5312TIP3    H137571   2.843   1.720   8.445  2.7733 -2.4111  1.7049
 5312TIP3    H237572   2.799   1.649   8.318  1.2697  0.8546  0.2829
 5313TIP3   OH237573   2.172   6.053   1.028 -0.0410 -0.6945  0.0770
 5313TIP3    H137574   2.086   6.094   1.018  0.5700  0.4990 -0.3620
 5313TIP3    H237575   2.192   6.018   0.941 -0.0086 -0.8548  0.1475
 5314TIP3   OH237576   0.264   2.309   8.820 -0.1918  0.1037 -0.0133
 5314TIP3    H137577   0.325   2.242   8.791 -0.4949 -0.4329  0.5638
 5314TIP3    H237578   0.302   2.391   8.788  0.1316 -0.3420 -0.7991
 5315TIP3   OH237579   0.043   2.202   1.064  0.0011  0.7209  0.1199
 5315TIP3    H137580   0.101   2.150   1.008  0.4401 -0.2104  1.3888
 5315TIP3    H237581   0.086   2.202   1.149 -0.3748  2.5735  0.3542
 5316TIP3   OH237582   2.362   0.631   1.002 -0.1943 -0.0796 -0.1979
 5316TIP3    H137583   2.320   0.604   1.084  0.1866  0.8530  0.3307
 5316TIP3    H237584   2.332   0.568   0.937 -0.4124 -0.9127  0.6854
 5317TIP3   OH237585   5.860   4.461   0.204  0.4934 -0.6345  0.2319
 5317TIP3    H137586   5.899   4.483   0.289  0.2210  2.6372 -0.3639
 5317TIP3    H237587   5.927   4.487   0.141 -0.3905 -0.4118 -0.6252
 5318TIP3   OH237588   4.968   5.669   0.585 -0.0890 -0.9854 -0.5299
 5318TIP3    H137589   4.965   5.663   0.490  0.5009 -1.0186 -0.5550
 5318TIP3    H237590   4.975   5.579   0.615  2.7745 -0.8988 -0.6224
 5319TIP3   OH237591   3.184   2.904   1.433  0.1581  0.0348  0.6352
 5319TIP3    H137592   3.258   2.961   1.414 -0.1142  0.6398  1.3342
 5319TIP3    H237593   3.216   2.844   1.500 -0.1910  0.8068  1.5261
 5320TIP3   OH237594   1.325   0.259   0.513  0.1279 -0.2132 -0.1408
 5320TIP3    H137595   1.298   0.349   0.532 -1.5473 -0.7144  0.0357
 5320TIP3    H237596   1.403   0.268   0.459  0.1055  1.3412  0.0415
 5321TIP3   OH237597   1.863   4.612   8.600 -0.4312 -0.7342 -0.5067
 5321TIP3    H137598   1.857   4.625   8.506 -1.9881 -0.0465 -0.3388
 5321TIP3    H237599   1.820   4.528   8.616 -1.5001 -0.1553 -0.2685
 5322TIP3   OH237600   4.766   0.637   6.794 -0.3129 -0.4845  0.3790
 5322TIP3    H137601   4.679   0.655   6.759  0.4492 -0.2108 -1.4689
 5322TIP3    H237602   4.753   0.563   6.854 -1.6051 -1.2983 -0.8578
 5323TIP3   OH237603   3.882   1.680   3.079  0.2817 -0.2847 -0.3445
 5323TIP3    H137604   3.818   1.730   3.128  1.1847  0.6374 -0.0693
 5323TIP3    H237605   3.843   1.593   3.070 -0.7042  0.0682  0.3764
 5324TIP3   OH237606   1.053   6.376   7.996 -0.8323 -0.3195 -0.5978
 5324TIP3    H137607   1.105   6.423   8.061  0.0369  0.7643 -2.0256
 5324TIP3    H237608   1.028   6.442   7.933 -0.0501 -1.6340 -2.3691
 5325TIP3   OH237609   5.105   0.526   8.637 -0.0284  0.1223 -0.1486
 5325TIP3    H137610   5.118   0.574   8.554  0.6934 -0.4887 -0.4033
 5325TIP3    H237611   5.190   0.532   8.681  0.2106 -1.2621 -0.3731
 5326TIP3   OH237612   3.973   0.945   0.768  0.2085  0.2598  0.5452
 5326TIP3    H137613   4.051   0.987   0.804 -1.0823  1.4455  2.0835
 5326TIP3    H237614   4.000   0.855   0.749  2.1872  0.8995  0.1256
 5327TIP3   OH237615   5.637   5.633   1.262 -0.3097 -0.2313 -0.0385
 5327TIP3    H137616   5.599   5.559   1.310 -0.0543  0.8798  2.0134
 5327TIP3    H237617   5.731   5.615   1.262 -0.4546 -1.2727 -2.0862
 5328TIP3   OH237618   5.070   1.594   8.723  0.3153 -0.0361  0.1058
 5328TIP3    H137619   5.018   1.575   8.801  0.7858  0.9062  0.6688
 5328TIP3    H237620   5.005   1.613   8.655 -0.0922 -0.1317  0.4639
 5329TIP3   OH237621   4.476   5.701   1.500 -0.2100  0.2535 -0.0460
 5329TIP3    H137622   4.439   5.782   1.535  1.1053  0.7700  0.2273
 5329TIP3    H237623   4.447   5.633   1.560  0.0671  0.7834  0.7031
 5330TIP3   OH237624   4.151   6.818   1.686  0.3682  0.1046  0.3488
 5330TIP3    H137625   4.101   6.815   1.768  1.3955  1.4640  1.0541
 5330TIP3    H237626   4.093   6.863   1.624  0.9516  2.4905  1.4074
 5331TIP3   OH237627   4.824   1.883   7.262  0.1393 -0.5264  0.0976
 5331TIP3    H137628   4.758   1.866   7.195 -0.7793 -1.4134  1.1826
 5331TIP3    H237629   4.883   1.947   7.222 -2.4924  1.9085 -0.2346
 5332TIP3   OH237630   3.483   0.382   0.293  0.7752 -0.5057  0.0713
 5332TIP3    H137631   3.481   0.477   0.306  2.4305 -0.4011 -0.2781
 5332TIP3    H237632   3.512   0.371   0.203  0.7035 -1.3449  0.1492
 5333TIP3   OH237633   1.020   5.840   7.413  0.0253 -0.2768 -0.1925
 5333TIP3    H137634   0.999   5.868   7.324 -1.6106 -1.9212 -0.3768
 5333TIP3    H237635   1.107   5.801   7.406  0.1685  0.1563 -0.9342
 5334TIP3   OH237636   1.591   3.669   1.774  0.2138 -0.6826  0.2551
 5334TIP3    H137637   1.681   3.689   1.800 -0.4582  0.3040  2.0058
 5334TIP3    H237638   1.581   3.576   1.794 -0.2001 -0.0495  3.7733
 5335TIP3   OH237639   4.396   0.364   1.141 -0.3295 -0.1074 -0.0150
 5335TIP3    H137640   4.476   0.316   1.123  0.5641  1.6963 -1.2042
 5335TIP3    H237641   4.415   0.415   1.220 -0.5690 -0.2128  0.1129
 5336TIP3   OH237642   1.209   1.955   0.474 -0.0876  0.2984  0.0312
 5336TIP3    H137643   1.188   1.882   0.532  0.1819 -0.8104 -1.2104
 5336TIP3    H237644   1.141   1.952   0.406  0.8870  0.1061 -0.9704
 5337TIP3   OH237645   6.307   0.571   0.781 -0.3051  0.1727  0.2749
 5337TIP3    H137646   6.360   0.628   0.725 -0.2781 -0.5275 -0.4427
 5337TIP3    H237647   6.219   0.577   0.743 -0.9190  1.7961  1.8199
 5338TIP3   OH237648   1.677   1.052   8.073  0.4612  0.5874  0.3710
 5338TIP3    H137649   1.656   0.966   8.108 -0.7091  1.0596  0.8617
 5338TIP3    H237650   1.593   1.087   8.043  0.8092  1.8294  0.7898
 5339TIP3   OH237651   6.499   4.727   0.292 -0.3638 -0.4455 -0.5153
 5339TIP3    H137652   6.453   4.702   0.212  0.3830 -1.1952 -0.7281
 5339TIP3    H237653   6.437   4.782   0.340 -0.7488  0.1518 -1.6862
 5340TIP3   OH237654   5.127   1.278   7.259  0.5141  0.4447  0.0723
 5340TIP3    H137655   5.112   1.312   7.170  0.4160 -0.1421 -0.1419
 5340TIP3    H237656   5.039   1.260   7.293  0.5947 -1.7960 -0.7053
 5341TIP3   OH237657   4.399   1.614   8.619  0.0497  0.0306  0.7124
 5341TIP3    H137658   4.379   1.686   8.678 -0.5009  1.0716 -0.7030
 5341TIP3    H237659   4.399   1.653   8.531  3.0275 -0.9927  0.1220
 5342TIP3   OH237660   4.453   2.021   7.864 -0.4082 -0.2112  0.5976
 5342TIP3    H137661   4.446   1.929   7.838 -0.2858  0.0547 -0.4064
 5342TIP3    H237662   4.510   2.060   7.798  0.4344  0.3539  1.6364
 5343TIP3   OH237663   3.442   2.675   7.801  0.3623  0.5003 -0.3636
 5343TIP3    H137664   3.529   2.712   7.814  1.7997 -2.3104 -1.0845
 5343TIP3    H237665   3.427   2.682   7.706 -0.3190  1.1605 -0.2164
 5344TIP3   OH237666   2.670   1.306   0.436  0.6106 -0.7251 -0.8430
 5344TIP3    H137667   2.699   1.264   0.517  1.6530  0.0981 -0.7632
 5344TIP3    H237668   2.592   1.257   0.410 -0.4040 -0.3085  1.2283
 5345TIP3   OH237669   2.795   3.620   7.623 -0.5481  0.1725  0.0010
 5345TIP3    H137670   2.791   3.582   7.711 -1.1199 -1.4024 -0.6756
 5345TIP3    H237671   2.732   3.569   7.572 -0.3239  1.1541 -1.2983
 5346TIP3   OH237672   3.693   1.070   1.189  1.3075 -0.0116  0.2709
 5346TIP3    H137673   3.620   1.105   1.240  0.2573  0.1877 -1.2981
 5346TIP3    H237674   3.706   0.982   1.224  0.8268  0.2291  1.0856
 5347TIP3   OH237675   3.323   3.136   0.468  0.0129 -0.3441 -0.0601
 5347TIP3    H137676   3.239   3.168   0.500  1.1308  2.2409  0.5890
 5347TIP3    H237677   3.352   3.074   0.535  0.3733  1.7715  1.8592
 5348TIP3   OH237678   3.630   3.704   0.614 -0.3842 -0.2996 -0.0010
 5348TIP3    H137679   3.716   3.696   0.654 -0.1683 -0.0939 -0.4159
 5348TIP3    H237680   3.571   3.657   0.673  0.0715 -0.7416  0.1026
 5349TIP3   OH237681   4.361   5.003   1.402 -0.5838  0.3841 -0.5896
 5349TIP3    H137682   4.312   4.941   1.455  1.4228 -1.3897 -0.6715
 5349TIP3    H237683   4.365   5.083   1.455 -1.1933 -0.3491  0.5779
 5350TIP3   OH237684   3.515   4.428   1.379 -0.5650  0.0927  0.2026
 5350TIP3    H137685   3.535   4.376   1.301 -0.6411 -0.3699  0.4848
 5350TIP3    H237686   3.535   4.369   1.452  0.1669  0.7569  0.5480
 5351TIP3   OH237687   3.317   5.154   7.897 -0.0546  0.1598 -0.2883
 5351TIP3    H137688   3.318   5.249   7.904  0.8950  0.1526 -0.1377
 5351TIP3    H237689   3.403   5.127   7.931  0.6271 -0.5862 -2.4771
 5352TIP3   OH237690   1.867   0.688   2.563  0.0519  0.0100  0.0751
 5352TIP3    H137691   1.775   0.709   2.545  0.2392 -0.1888 -1.1441
 5352TIP3    H237692   1.916   0.761   2.525  0.5059 -0.8963 -1.1325
 5353TIP3   OH237693   1.431   0.423   7.216 -0.2721  0.5120 -0.4611
 5353TIP3    H137694   1.426   0.486   7.144  0.8623 -0.6526 -1.6186
 5353TIP3    H237695   1.366   0.356   7.193  1.9501 -1.2855 -1.9340
 5354TIP3   OH237696   3.692   3.142   0.436  0.1412 -0.5186  0.1392
 5354TIP3    H137697   3.691   3.173   0.526 -0.5043  0.4206 -0.1821
 5354TIP3    H237698   3.600   3.131   0.413  0.2527  0.2606 -0.7336
 5355TIP3   OH237699   2.206   4.041   1.523  0.3071 -0.5916 -0.0298
 5355TIP3    H137700   2.295   4.073   1.510  0.3944 -0.8161  0.0070
 5355TIP3    H237701   2.168   4.037   1.435  0.1758 -0.0508 -0.0029
 5356TIP3   OH237702   4.530   4.056   1.899  0.1776  0.4515  0.1917
 5356TIP3    H137703   4.462   4.075   1.835  0.6138  1.3942 -0.0026
 5356TIP3    H237704   4.505   4.107   1.976  0.1755  0.0711  0.4482
 5357TIP3   OH237705   3.172   3.613   0.093 -0.0025  0.3012 -0.2162
 5357TIP3    H137706   3.076   3.619   0.093 -0.0131  0.4488  1.2558
 5357TIP3    H237707   3.190   3.519   0.083 -0.2148  0.4535 -2.7979
 5358TIP3   OH237708   5.121   2.459   8.599 -0.3883  0.1068  0.3288
 5358TIP3    H137709   5.159   2.420   8.678 -0.7777 -1.6304 -0.2884
 5358TIP3    H237710   5.037   2.494   8.628 -0.6462 -0.7484  0.6446
 5359TIP3   OH237711   0.013   1.348   2.289  0.0041  0.0289  0.2776
 5359TIP3    H137712  -0.032   1.432   2.297 -2.0138 -1.0797  1.2021
 5359TIP3    H237713   0.015   1.313   2.378  1.2300 -0.7324 -0.0184
 5360TIP3   OH237714   0.231   0.635   0.687 -0.1279 -0.0320  0.2529
 5360TIP3    H137715   0.170   0.708   0.675 -0.5025 -0.6666 -2.4028
 5360TIP3    H237716   0.280   0.657   0.766 -1.2903  2.3241  0.4013
 5361TIP3   OH237717   6.413   1.548   1.313  0.7816 -0.3822  0.2181
 5361TIP3    H137718   6.407   1.453   1.315  0.8610 -0.3785  0.7009
 5361TIP3    H237719   6.499   1.566   1.275  0.7840 -0.5012  0.1656
 5362TIP3   OH237720   6.181   4.787   8.804  0.3212  0.0905  0.4124
 5362TIP3    H137721   6.175   4.865   8.860  1.1154  0.2223  0.3274
 5362TIP3    H237722   6.271   4.758   8.814  0.0284 -0.8377  0.4541
 5363TIP3   OH237723   3.320   6.755   1.580  0.1760  0.1095 -0.0927
 5363TIP3    H137724   3.336   6.791   1.668 -1.3340 -1.0756  0.7004
 5363TIP3    H237725   3.381   6.682   1.573 -1.9476 -1.9542  1.3953
 5364TIP3   OH237726   0.729   2.987   1.479  0.3597  0.3698  0.0725
 5364TIP3    H137727   0.747   3.037   1.399  1.7100  0.8098  0.6227
 5364TIP3    H237728   0.669   3.043   1.529  0.9238  0.9023  0.1600
 5365TIP3   OH237729   1.809   5.397   8.601 -0.2075  0.2622  0.3773
 5365TIP3    H137730   1.843   5.323   8.650 -0.6716 -0.2904 -0.1162
 5365TIP3    H237731   1.872   5.411   8.530  0.7346  1.3839  1.3802
 5366TIP3   OH237732   1.491   1.638   8.606  0.4763 -0.5281  0.6344
 5366TIP3    H137733   1.436   1.684   8.670 -0.5052 -0.6483 -0.0923
 5366TIP3    H237734   1.567   1.609   8.656 -0.7005 -1.4406  1.9864
 5367TIP3   OH237735   1.635   4.075   1.481  0.2556  0.1050  0.1535
 5367TIP3    H137736   1.717   4.032   1.506 -1.5293 -3.5407  0.2594
 5367TIP3    H237737   1.618   4.045   1.392 -0.4787  1.6853 -0.2692
 5368TIP3   OH237738   6.428   4.338   2.220  0.3251  0.4515  0.4629
 5368TIP3    H137739   6.461   4.346   2.131 -2.2781  1.0930 -0.5511
 5368TIP3    H237740   6.456   4.419   2.264 -0.2811  1.2099 -0.5054
 5369TIP3   OH237741   1.795   1.629   2.225 -0.0449  0.0964 -0.0337
 5369TIP3    H137742   1.857   1.604   2.294 -0.6743  1.2690  0.9960
 5369TIP3    H237743   1.757   1.711   2.256 -1.7978 -0.3678 -0.8493
 5370TIP3   OH237744   0.299   4.284   0.814  0.0392  0.4726  0.4711
 5370TIP3    H137745   0.323   4.320   0.899  0.1799  1.6273 -0.0441
 5370TIP3    H237746   0.231   4.342   0.781  0.2079  0.2241 -0.3456
 5371TIP3   OH237747   3.049   5.480   7.155  0.4716  0.2160 -0.2821
 5371TIP3    H137748   3.000   5.399   7.165  1.7248 -0.6209 -0.6061
 5371TIP3    H237749   3.040   5.525   7.239 -0.2325 -0.2589 -0.0975
 5372TIP3   OH237750   5.118   4.097   2.255  0.6072 -0.7047  0.2050
 5372TIP3    H137751   5.148   4.165   2.194 -0.5464 -0.8633 -0.5687
 5372TIP3    H237752   5.022   4.101   2.250  0.4338 -0.1735  2.6317
 5373TIP3   OH237753   3.563   6.424   0.427  0.1307  0.0826  0.3275
 5373TIP3    H137754   3.570   6.458   0.516 -0.6995 -0.4455  0.6055
 5373TIP3    H237755   3.541   6.331   0.438  1.0127 -0.2339 -0.4263
 5374TIP3   OH237756   6.753   5.492   1.018  0.2718 -0.5198  0.4532
 5374TIP3    H137757   6.828   5.546   0.994 -1.0666  1.0697 -0.4532
 5374TIP3    H237758   6.684   5.519   0.957 -1.3404 -1.1848  1.8861
 5375TIP3   OH237759   5.611   3.659   1.974  0.2328 -0.1396  0.4526
 5375TIP3    H137760   5.622   3.751   1.953  2.1138 -0.6931 -1.3436
 5375TIP3    H237761   5.575   3.658   2.063 -0.4028  2.2992  0.2746
 5376TIP3   OH237762   5.280   6.200   0.984 -0.0821  0.0031  0.2584
 5376TIP3    H137763   5.212   6.255   1.024 -1.2034  0.3028 -1.9470
 5376TIP3    H237764   5.242   6.171   0.901  1.8328 -1.2799 -0.2292
 5377TIP3   OH237765   5.025   1.452   0.903  0.2851  0.0088  0.5489
 5377TIP3    H137766   5.003   1.532   0.855  1.0666  1.2908  2.2068
 5377TIP3    H237767   5.120   1.457   0.915  0.3637 -1.2509  0.5621
 5378TIP3   OH237768   5.218   5.443   1.106 -0.3614  0.6180  0.6098
 5378TIP3    H137769   5.273   5.440   1.184 -4.0249 -1.2654  3.4775
 5378TIP3    H237770   5.175   5.529   1.111  0.0212  0.8354  0.1715
 5379TIP3   OH237771   3.776   3.437   8.715  0.3351  0.2825 -0.0412
 5379TIP3    H137772   3.689   3.419   8.750  0.8516  0.2982  1.3403
 5379TIP3    H237773   3.795   3.527   8.744  0.4690  0.5943 -1.0681
 5380TIP3   OH237774   6.594   4.533   7.329  0.2497  0.0062 -0.5157
 5380TIP3    H137775   6.589   4.481   7.409  0.7276  0.3671 -0.2409
 5380TIP3    H237776   6.560   4.476   7.261  2.5491 -1.4290 -0.5886
 5381TIP3   OH237777   5.195   5.370   8.286 -0.0614  0.6287  0.4691
 5381TIP3    H137778   5.109   5.404   8.309 -0.0778 -0.1312  1.6128
 5381TIP3    H237779   5.193   5.362   8.191 -1.5962 -0.2511  0.5380
 5382TIP3   OH237780   4.478   2.903   7.145  0.1708  0.4681  0.3145
 5382TIP3    H137781   4.428   2.855   7.211 -2.1199 -0.4430 -1.9299
 5382TIP3    H237782   4.432   2.987   7.136 -1.4792 -0.5716 -2.1293
 5383TIP3   OH237783   5.460   0.347   8.108  0.0805  0.7210  0.2748
 5383TIP3    H137784   5.491   0.322   8.195 -1.1056 -0.1211  0.4884
 5383TIP3    H237785   5.533   0.328   8.050  0.7614  0.9424  1.0308
 5384TIP3   OH237786   0.448   3.832   0.597  0.1535  0.1291 -0.1542
 5384TIP3    H137787   0.460   3.923   0.568  1.3700 -0.6581 -2.3341
 5384TIP3    H237788   0.403   3.789   0.524 -0.2494 -1.0715  0.7704
 5385TIP3   OH237789   2.660   1.068   0.787 -0.0903  0.2950  0.0015
 5385TIP3    H137790   2.614   1.030   0.712  0.6387  0.0261 -0.3122
 5385TIP3    H237791   2.694   0.992   0.834  2.4850  0.5361 -1.3158
 5386TIP3   OH237792   0.914   5.733   1.311 -0.2908  0.0094  0.4920
 5386TIP3    H137793   0.996   5.732   1.262 -0.9068 -1.0965 -0.5683
 5386TIP3    H237794   0.882   5.823   1.303 -0.0097  0.0279 -0.5038
 5387TIP3   OH237795   2.686   0.696   0.750 -0.2824 -0.0568 -0.1285
 5387TIP3    H137796   2.715   0.732   0.834  0.1835  2.6674 -1.3583
 5387TIP3    H237797   2.665   0.604   0.769  1.6225 -0.0486  2.5229
 5388TIP3   OH237798   2.135   4.456   2.076  0.8867  0.0371 -0.4053
 5388TIP3    H137799   2.168   4.379   2.121 -1.6537 -1.1218 -0.3644
 5388TIP3    H237800   2.132   4.524   2.144 -1.6717 -1.3271  0.9977
 5389TIP3   OH237801   2.563   6.031   8.749  0.6017  0.2725 -0.4168
 5389TIP3    H137802   2.578   5.944   8.786 -0.6586  0.2291  0.0525
 5389TIP3    H237803   2.517   6.014   8.667 -1.0465  0.5146  0.4168
 5390TIP3   OH237804   3.119   5.649   6.935 -0.2471  0.3848  0.0318
 5390TIP3    H137805   3.076   5.605   7.008  0.4688  0.0492  0.2642
 5390TIP3    H237806   3.048   5.691   6.887 -0.9398 -0.7953 -0.0375
 5391TIP3   OH237807   1.507   4.342   7.679  0.3774  0.2637  0.1983
 5391TIP3    H137808   1.416   4.315   7.690  0.3551  1.0012  2.2153
 5391TIP3    H237809   1.536   4.295   7.601 -2.2292  1.4182 -1.6034
 5392TIP3   OH237810   5.918   3.686   2.824  0.2533 -0.0030 -0.2028
 5392TIP3    H137811   5.982   3.620   2.797  1.7920  0.4876  1.9731
 5392TIP3    H237812   5.913   3.678   2.919 -1.9509  0.9071 -0.1668
 5393TIP3   OH237813   0.304   5.032   6.969 -0.1523 -0.2216 -0.1718
 5393TIP3    H137814   0.314   4.949   6.923  0.3725 -1.1877  1.5970
 5393TIP3    H237815   0.221   5.068   6.936 -1.5387 -2.5005  0.5921
 5394TIP3   OH237816   2.079   1.853   1.171 -0.5243 -0.5816  0.5994
 5394TIP3    H137817   2.056   1.775   1.221 -1.0694 -0.5333  0.4353
 5394TIP3    H237818   2.167   1.876   1.201  0.7848 -2.7938 -1.2260
 5395TIP3   OH237819   0.504   4.994   7.901  0.1280 -0.3235 -0.1374
 5395TIP3    H137820   0.500   5.001   7.806 -0.5244  0.8506 -0.0505
 5395TIP3    H237821   0.463   5.075   7.933  1.3899 -0.1453  1.1463
 5396TIP3   OH237822   5.193   3.877   0.437  0.1607 -0.1634  0.3218
 5396TIP3    H137823   5.237   3.931   0.503 -0.7021  2.8522 -1.3623
 5396TIP3    H237824   5.224   3.913   0.353 -1.0230 -1.8707 -0.9066
 5397TIP3   OH237825   1.744   6.064   7.994  0.4710 -0.1688 -0.4856
 5397TIP3    H137826   1.827   6.110   8.003  0.6227 -0.2124 -1.5499
 5397TIP3    H237827   1.703   6.103   7.917 -1.1901  0.8900  0.8745
 5398TIP3   OH237828   4.833   1.308   7.278 -0.3747  0.4712 -0.2234
 5398TIP3    H137829   4.832   1.403   7.288 -0.1837  0.3651  0.9416
 5398TIP3    H237830   4.845   1.274   7.367  2.6264 -0.5513 -0.8938
 5399TIP3   OH237831   0.725   0.527   7.671  0.3136 -0.3905  0.0137
 5399TIP3    H137832   0.721   0.434   7.693 -1.3952 -0.0845  1.1781
 5399TIP3    H237833   0.782   0.565   7.739 -0.0960 -0.3781  0.3529
 5400TIP3   OH237834   6.744   4.085   2.062 -0.2036  0.0891  0.1875
 5400TIP3    H137835   6.798   4.040   1.997 -2.6113 -1.6573 -0.7699
 5400TIP3    H237836   6.793   4.077   2.144  0.9700 -1.4941 -0.6098
 5401TIP3   OH237837   1.373   0.357   1.432  0.2580  0.3708  0.1067
 5401TIP3    H137838   1.282   0.384   1.417  1.0608  3.1744 -0.4878
 5401TIP3    H237839   1.414   0.367   1.346  1.3682  0.3072  0.6176
 5402TIP3   OH237840   1.088   4.855   7.585 -0.4522  0.5585 -0.8466
 5402TIP3    H137841   1.119   4.770   7.616  0.2136  1.0417 -0.1218
 5402TIP3    H237842   1.046   4.837   7.501 -0.1019 -0.4471 -0.8173
 5403TIP3   OH237843   6.518   0.658   1.824 -0.2644 -0.0719 -0.5859
 5403TIP3    H137844   6.537   0.683   1.914 -1.9740 -0.0278 -0.2036
 5403TIP3    H237845   6.588   0.598   1.800  1.5564  1.7243 -0.0682
 5404TIP3   OH237846   6.747   4.615   2.253 -0.0777  0.0594 -0.3401
 5404TIP3    H137847   6.743   4.670   2.174 -2.5311  2.5420  1.3043
 5404TIP3    H237848   6.813   4.657   2.308 -1.1450  0.7446  0.4570
 5405TIP3   OH237849   6.465   1.701   8.430  0.0129  0.0038  0.3251
 5405TIP3    H137850   6.407   1.777   8.421  2.0713  1.8577  1.5997
 5405TIP3    H237851   6.550   1.733   8.398  0.8864 -1.8747  0.6731
 5406TIP3   OH237852   0.876   2.496   1.576  0.4560 -0.3679  0.3138
 5406TIP3    H137853   0.823   2.483   1.497  0.4230  0.6852  0.1467
 5406TIP3    H237854   0.880   2.591   1.586  3.0020 -0.3630 -0.1520
 5407TIP3   OH237855   3.319   0.876   2.237 -0.0683 -0.5104 -0.1749
 5407TIP3    H137856   3.305   0.941   2.168  0.8806  0.1763  0.2455
 5407TIP3    H237857   3.380   0.919   2.297  0.5979 -1.8215  0.1023
 5408TIP3   OH237858   6.777   3.040   0.146  0.2686 -0.2154 -0.3432
 5408TIP3    H137859   6.774   3.075   0.057 -0.3412 -0.6917 -0.5104
 5408TIP3    H237860   6.851   2.978   0.144  0.2833 -0.1947 -0.5049
 5409TIP3   OH237861   4.132   2.468   1.744  0.1491 -0.5496 -0.3597
 5409TIP3    H137862   4.140   2.405   1.815  0.5799  0.1678  0.2453
 5409TIP3    H237863   4.179   2.545   1.775 -1.2646  0.4631 -0.6111
 5410TIP3   OH237864   3.862   3.698   0.802 -0.3912  0.6301  1.0031
 5410TIP3    H137865   3.829   3.699   0.891  0.1381  2.3561  1.2241
 5410TIP3    H237866   3.910   3.780   0.793 -1.7950  1.3132 -1.3741
 5411TIP3   OH237867   4.838   4.985   8.623  0.1967  0.1338 -0.4832
 5411TIP3    H137868   4.815   5.065   8.577  0.6068  0.7230  0.3247
 5411TIP3    H237869   4.929   4.969   8.600  0.6784  0.9188  0.7990
 5412TIP3   OH237870   6.300   2.951   8.900  0.0755 -0.3069  0.1856
 5412TIP3    H137871   6.319   3.022   8.962  0.0491 -2.9449  3.5031
 5412TIP3    H237872   6.212   2.922   8.923  0.3266 -1.8089 -0.6387
 5413TIP3   OH237873   3.442   4.149   2.240 -0.1136 -0.7312  0.2234
 5413TIP3    H137874   3.355   4.190   2.240  1.1945  2.3158 -0.9340
 5413TIP3    H237875   3.466   4.145   2.333 -1.0805 -0.7573  0.4897
 5414TIP3   OH237876   1.789   4.749   2.150 -0.6781  0.1871 -0.0174
 5414TIP3    H137877   1.714   4.692   2.167 -0.3221  0.2482  1.9991
 5414TIP3    H237878   1.862   4.708   2.197  0.3236  0.6633 -1.1096
 5415TIP3   OH237879   0.829   0.039   8.067  0.1310 -0.2630  0.1943
 5415TIP3    H137880   0.811  -0.039   8.120  2.0333 -0.5856  0.4350
 5415TIP3    H237881   0.924   0.041   8.060  0.1345  2.1028  0.2706
 5416TIP3   OH237882   5.316   0.730   1.613 -0.8326 -0.6523  0.5476
 5416TIP3    H137883   5.381   0.674   1.570 -0.1724 -0.5455  1.4024
 5416TIP3    H237884   5.361   0.813   1.627 -1.3582 -0.3717  0.5834
 5417TIP3   OH237885   0.856   4.391   8.424  0.5977  0.3739 -0.0026
 5417TIP3    H137886   0.791   4.327   8.396  1.1756 -1.3204  2.2365
 5417TIP3    H237887   0.810   4.447   8.486  0.9971 -0.2750  0.9073
 5418TIP3   OH237888   0.021   2.129   6.959  0.0760  0.2127 -0.5089
 5418TIP3    H137889   0.094   2.169   6.913  0.8277 -1.1938 -0.6079
 5418TIP3    H237890   0.051   2.120   7.050 -0.2632  0.2839 -0.3840
 5419TIP3   OH237891   5.689   2.672   0.747 -0.4926  0.8201 -0.5625
 5419TIP3    H137892   5.640   2.595   0.776 -0.3629  1.0507  0.2804
 5419TIP3    H237893   5.777   2.640   0.729  0.0299  1.0545  1.3968
 5420TIP3   OH237894   1.633   3.008   8.345 -0.1724  0.3920 -0.5477
 5420TIP3    H137895   1.604   3.029   8.256 -1.3653  3.0273  0.3661
 5420TIP3    H237896   1.558   3.030   8.400  0.7721 -0.5564  1.1909
 5421TIP3   OH237897   1.392   3.501   0.927 -0.2359  0.2283  0.2743
 5421TIP3    H137898   1.455   3.468   0.991  0.2807 -0.7227 -0.6961
 5421TIP3    H237899   1.440   3.569   0.880  0.0807 -0.4580 -0.4273
 5422TIP3   OH237900   6.151   4.651   8.200  0.1109  0.2142 -0.0070
 5422TIP3    H137901   6.185   4.653   8.289  1.4076  3.4305 -0.4367
 5422TIP3    H237902   6.220   4.611   8.149 -0.5609 -1.4693  0.3443
 5423TIP3   OH237903   2.970   3.104   6.700  0.5000  0.1356 -0.3988
 5423TIP3    H137904   2.880   3.101   6.668  0.4674  0.7092 -0.3754
 5423TIP3    H237905   2.990   3.197   6.707 -0.1774  0.1532  3.2179
 5424TIP3   OH237906   3.226   4.549   7.122  0.0560  0.5726  0.7062
 5424TIP3    H137907   3.220   4.454   7.120  0.7833  0.4825  2.0201
 5424TIP3    H237908   3.135   4.579   7.124 -0.1736 -0.0819  0.3300
 5425TIP3   OH237909   0.622   6.293   0.021 -0.0357  0.2798  0.6730
 5425TIP3    H137910   0.578   6.242   0.089 -1.3221  0.6805  0.1718
 5425TIP3    H237911   0.578   6.378   0.022  0.1249  0.3923 -0.4513
 5426TIP3   OH237912   2.006   1.761   0.306 -0.2003 -0.0695 -0.0629
 5426TIP3    H137913   2.095   1.748   0.275 -0.5012 -0.8603 -0.6243
 5426TIP3    H237914   1.962   1.807   0.234 -0.6428 -1.0539 -0.4441
 5427TIP3   OH237915   0.885   2.786   8.874  0.1355 -0.0200 -0.5061
 5427TIP3    H137916   0.932   2.706   8.849  0.6458 -0.4289  1.6019
 5427TIP3    H237917   0.859   2.772   8.965 -0.8078  1.7468 -0.4498
 5428TIP3   OH237918   3.506   6.517   1.564  0.3890 -0.5738 -0.1775
 5428TIP3    H137919   3.501   6.529   1.659  0.9661 -1.0527 -0.0839
 5428TIP3    H237920   3.506   6.422   1.552 -3.2742 -0.6533 -0.8426
 5429TIP3   OH237921   5.145   4.462   7.405 -0.0697  0.5756  0.0254
 5429TIP3    H137922   5.058   4.435   7.378 -0.8670  2.9758  0.0111
 5429TIP3    H237923   5.154   4.426   7.494  0.2619 -2.3314 -1.0579
 5430TIP3   OH237924   2.619   3.383   6.617  0.0456 -0.2420 -0.4145
 5430TIP3    H137925   2.679   3.457   6.619 -0.1452 -0.0898  0.7135
 5430TIP3    H237926   2.592   3.372   6.708 -0.3168 -1.3841 -0.6374
 5431TIP3   OH237927   0.865   2.170   8.473 -0.0593 -0.0775 -0.4236
 5431TIP3    H137928   0.904   2.125   8.398 -0.0130  0.4459 -0.7142
 5431TIP3    H237929   0.802   2.231   8.435  0.8639  1.0982 -0.1207
 5432TIP3   OH237930   0.228   6.694   8.884  0.4940 -0.5759  0.0322
 5432TIP3    H137931   0.218   6.759   8.953 -2.9762 -2.8185  1.9293
 5432TIP3    H237932   0.146   6.697   8.836  0.5300 -2.9539 -0.3056
 5433TIP3   OH237933   5.836   0.636   1.143 -0.3780  0.2980  0.3057
 5433TIP3    H137934   5.922   0.674   1.126 -1.3184  2.6651  0.5729
 5433TIP3    H237935   5.788   0.645   1.060 -1.6205  2.6373  1.1908
 5434TIP3   OH237936   0.112   6.510   0.389  0.5657  0.0486  0.4094
 5434TIP3    H137937   0.199   6.493   0.426  0.6286 -0.5906 -0.0233
 5434TIP3    H237938   0.055   6.519   0.465  1.2341  1.8262  0.7466
 5435TIP3   OH237939   4.981   6.123   1.176  0.2307  0.2694  0.1137
 5435TIP3    H137940   5.028   6.105   1.257 -0.0173 -0.6834  0.0601
 5435TIP3    H237941   5.014   6.208   1.148  1.5256 -0.1139  0.3662
 5436TIP3   OH237942   0.305   3.557   2.233 -0.2965 -0.1609 -0.0327
 5436TIP3    H137943   0.399   3.536   2.234 -0.1891  0.3039 -0.2813
 5436TIP3    H237944   0.285   3.580   2.324  0.1914  1.3046 -0.2744
 5437TIP3   OH237945   6.414   1.250   8.215 -0.1170 -0.1466  0.3259
 5437TIP3    H137946   6.369   1.215   8.292 -0.0439 -0.0360  0.4219
 5437TIP3    H237947   6.406   1.345   8.225  1.3301 -0.0719  1.0907
 5438TIP3   OH237948   6.181   1.543   2.477 -0.3501 -0.1286  0.3743
 5438TIP3    H137949   6.213   1.460   2.441 -1.9053  0.0281 -1.5499
 5438TIP3    H237950   6.175   1.527   2.572 -2.7032 -3.0764 -0.1133
 5439TIP3   OH237951   1.135   2.257   0.773 -0.0223 -0.5386  0.0909
 5439TIP3    H137952   1.075   2.183   0.770 -0.0463 -0.4881 -0.9052
 5439TIP3    H237953   1.220   2.219   0.793  0.4055 -1.1574 -2.5598
 5440TIP3   OH237954   2.908   1.928   0.945 -0.4281  0.3962  0.1805
 5440TIP3    H137955   2.862   1.925   1.029 -0.4973 -1.0088  0.1189
 5440TIP3    H237956   2.848   1.972   0.886 -0.8796  0.3290  0.5796
 5441TIP3   OH237957   2.300   2.303   7.302  0.1814  0.4522 -0.2227
 5441TIP3    H137958   2.282   2.210   7.291 -0.6415  0.7826 -1.9601
 5441TIP3    H237959   2.264   2.325   7.388  0.9959 -0.9494  0.5049
 5442TIP3   OH237960   3.575   0.545   8.090  1.3128 -0.0371  0.0739
 5442TIP3    H137961   3.581   0.450   8.080  3.0107 -0.0991  1.2310
 5442TIP3    H237962   3.491   0.568   8.052  0.9397 -1.9873 -0.3781
 5443TIP3   OH237963   6.703   5.638   0.742 -0.5551 -0.7533 -0.3533
 5443TIP3    H137964   6.700   5.729   0.714 -0.4867 -0.5128  0.3981
 5443TIP3    H237965   6.611   5.612   0.749 -0.7588 -2.0971 -4.6912
 5444TIP3   OH237966   1.539   3.754   8.363  0.2338  0.0965  0.6123
 5444TIP3    H137967   1.624   3.795   8.376  0.2620 -0.4977  2.6859
 5444TIP3    H237968   1.544   3.673   8.413 -1.1237 -0.5860 -0.3026
 5445TIP3   OH237969   0.243   3.144   7.324 -0.1755  0.6495  0.1646
 5445TIP3    H137970   0.226   3.158   7.231  0.2858  1.2417  0.1661
 5445TIP3    H237971   0.214   3.054   7.340 -1.3599  0.9257 -0.2888
 5446TIP3   OH237972   5.888   4.077   0.548  0.6029 -0.4412 -0.7290
 5446TIP3    H137973   5.898   4.158   0.598  1.3760 -1.0728  0.1737
 5446TIP3    H237974   5.851   4.105   0.464 -1.0490  0.6257  0.2842
 5447TIP3   OH237975   5.059   4.179   0.663  0.2294  0.1252  0.2529
 5447TIP3    H137976   5.137   4.161   0.611 -0.1037  0.1864 -0.2831
 5447TIP3    H237977   5.057   4.111   0.729 -0.2460 -0.9814 -0.8604
 5448TIP3   OH237978   0.028   4.856   7.693  0.0819 -0.3301 -0.0837
 5448TIP3    H137979   0.107   4.882   7.647  0.7009  0.8570  1.5186
 5448TIP3    H237980  -0.037   4.921   7.668  0.7129  0.9496  1.4292
 5449TIP3   OH237981   5.710   3.020   1.672 -0.3061  0.4442 -0.6148
 5449TIP3    H137982   5.721   3.110   1.703 -1.0411  0.9638 -1.8122
 5449TIP3    H237983   5.659   2.977   1.741  2.4782  0.0696  1.4055
 5450TIP3   OH237984   6.674   4.616   8.882  0.2458  0.6404 -0.7877
 5450TIP3    H137985   6.707   4.533   8.848 -1.2199 -0.0196 -0.7013
 5450TIP3    H237986   6.631   4.657   8.808 -0.8009  0.3536 -0.3546
 5451TIP3   OH237987   5.647   6.727   6.383  0.4342  0.5333  0.4015
 5451TIP3    H137988   5.680   6.668   6.450 -0.1486 -0.5823 -0.2774
 5451TIP3    H237989   5.600   6.795   6.431 -1.5468 -1.2190  1.0852
 5452TIP3   OH237990   5.156   2.958   2.435  0.4584  0.0469  0.1810
 5452TIP3    H137991   5.184   2.933   2.524 -0.9199 -0.2398  0.5644
 5452TIP3    H237992   5.178   2.882   2.381  1.1748  0.1662  0.2978
 5453TIP3   OH237993   1.574   4.126   6.722  0.4129  0.0621  0.1334
 5453TIP3    H137994   1.504   4.174   6.677 -0.2853 -0.9867  0.0782
 5453TIP3    H237995   1.624   4.194   6.767  0.0002  0.9377 -0.6970
 5454TIP3   OH237996   4.558   0.251   1.480  0.3819  0.0606 -0.2310
 5454TIP3    H137997   4.483   0.197   1.455  0.4533  0.5495 -1.5845
 5454TIP3    H237998   4.583   0.219   1.566 -0.3965 -1.1744 -0.4415
 5455TIP3   OH237999   5.531   2.286   0.146 -0.0960  0.3115  0.1538
 5455TIP3    H138000   5.527   2.275   0.051 -1.1629  1.2416  0.0622
 5455TIP3    H238001   5.620   2.319   0.162  0.5978 -1.2522 -0.3323
 5456TIP3   OH238002   3.096   1.855   0.214 -0.0744  0.6017 -0.2076
 5456TIP3    H138003   3.147   1.932   0.239  0.7234 -0.5293  1.8811
 5456TIP3    H238004   3.035   1.842   0.287 -0.5738 -0.4402 -0.7883
 5457TIP3   OH238005   2.357   4.536   6.718  0.2968  0.1202 -0.0598
 5457TIP3    H138006   2.318   4.537   6.631  0.3666 -0.0343 -0.0942
 5457TIP3    H238007   2.305   4.598   6.769 -0.7814 -0.9858  0.2332
 5458TIP3   OH238008   6.415   2.519   7.077 -0.7205  0.2874  0.3109
 5458TIP3    H138009   6.374   2.580   7.016  1.7907 -0.1248 -2.0283
 5458TIP3    H238010   6.397   2.433   7.040  0.4187 -0.0023  0.3924
 5459TIP3   OH238011   1.328   1.457   1.261 -1.1219 -0.6857  0.2837
 5459TIP3    H138012   1.421   1.478   1.256 -1.3754  0.4377  0.0195
 5459TIP3    H238013   1.312   1.401   1.185 -0.1933 -2.9435  1.6422
 5460TIP3   OH238014   1.495   2.971   1.287 -0.5197  0.2268  0.4917
 5460TIP3    H138015   1.488   3.054   1.240 -0.3152 -0.8512 -1.5786
 5460TIP3    H238016   1.520   2.995   1.376 -0.5837  2.3690 -0.0180
 5461TIP3   OH238017   5.408   2.018   1.730 -0.0484  0.5351  0.2027
 5461TIP3    H138018   5.370   1.950   1.786 -1.6296  1.8456  0.8144
 5461TIP3    H238019   5.339   2.084   1.723  0.6374  1.1092 -2.1245
 5462TIP3   OH238020   2.520   2.651   0.796  0.5740  0.0304 -0.2459
 5462TIP3    H138021   2.457   2.612   0.857  0.8994 -0.6508 -0.3342
 5462TIP3    H238022   2.465   2.698   0.733  0.0746 -1.2826 -0.8335
 5463TIP3   OH238023   3.789   2.872   2.759 -0.7285 -0.4242 -0.3941
 5463TIP3    H138024   3.877   2.910   2.764 -0.4517 -0.9654 -1.1444
 5463TIP3    H238025   3.756   2.878   2.849 -0.1040  0.1915 -0.1927
 5464TIP3   OH238026   4.225   0.699   2.103 -0.7200  0.3327 -0.5852
 5464TIP3    H138027   4.165   0.625   2.105  0.3360 -0.5667 -0.9166
 5464TIP3    H238028   4.289   0.681   2.172 -1.8639  2.2376  1.0968
 5465TIP3   OH238029   0.882   4.842   7.383 -0.0253 -0.8600 -0.2426
 5465TIP3    H138030   0.792   4.844   7.353  0.0523 -0.4421 -0.4555
 5465TIP3    H238031   0.921   4.922   7.347  0.3378 -0.8690  0.1229
 5466TIP3   OH238032   6.345   1.817   2.100 -0.0138  0.1244 -0.2006
 5466TIP3    H138033   6.393   1.900   2.107 -0.1763  0.1565  0.6119
 5466TIP3    H238034   6.253   1.843   2.110 -0.0564 -0.1689  0.1727
 5467TIP3   OH238035   3.458   5.017   1.241  0.1268 -0.3479 -0.3478
 5467TIP3    H138036   3.397   4.988   1.309 -2.1151  0.7712 -1.7545
 5467TIP3    H238037   3.433   5.108   1.224 -0.2037 -0.9040 -3.4266
 5468TIP3   OH238038   4.034   5.471   0.066 -0.7156 -0.0017  0.0364
 5468TIP3    H138039   4.071   5.395   0.109 -0.2735 -0.4937 -1.1860
 5468TIP3    H238040   3.939   5.459   0.073 -0.6537 -0.0802  0.8280
 5469TIP3   OH238041   5.393   3.717   2.988 -0.0665  0.2415  0.6181
 5469TIP3    H138042   5.418   3.793   2.936 -0.9170 -0.3543 -0.7346
 5469TIP3    H238043   5.475   3.672   3.006  0.2209  0.2679 -0.5590
 5470TIP3   OH238044   2.626   0.838   8.407 -0.2430  0.6184 -0.5296
 5470TIP3    H138045   2.573   0.906   8.449  1.3217  2.2310 -1.0277
 5470TIP3    H238046   2.702   0.827   8.465 -0.1105 -0.1709 -0.8388
 5471TIP3   OH238047   4.937   0.124   1.321 -0.3002 -0.1605  0.2269
 5471TIP3    H138048   5.019   0.077   1.336  0.5453  1.2235  0.1447
 5471TIP3    H238049   4.871   0.074   1.369  0.6004 -1.2528  0.3654
 5472TIP3   OH238050   2.487   3.921   1.672  0.2137  0.6378 -0.1903
 5472TIP3    H138051   2.416   3.858   1.663  1.0233 -0.5578  1.2512
 5472TIP3    H238052   2.513   3.942   1.582  0.4692 -1.7531 -0.7441
 5473TIP3   OH238053   3.178   4.252   2.249  0.0017 -0.2846 -0.5138
 5473TIP3    H138054   3.159   4.226   2.340 -0.6324  1.7411 -0.0211
 5473TIP3    H238055   3.164   4.346   2.248  1.0251 -0.1155 -2.4962
 5474TIP3   OH238056   4.781   1.578   0.492 -0.4905  0.0578 -0.0662
 5474TIP3    H138057   4.798   1.503   0.434  0.3838 -0.8680  1.3207
 5474TIP3    H238058   4.714   1.546   0.553 -1.1889  0.9169 -0.3696
 5475TIP3   OH238059   1.292   6.312   0.476 -0.0954 -0.5206 -0.1595
 5475TIP3    H138060   1.376   6.319   0.523 -0.0436 -1.5305 -0.0783
 5475TIP3    H238061   1.260   6.402   0.471 -0.3076 -0.4020  2.2120
 5476TIP3   OH238062   2.792   4.356   1.343  0.2378 -0.5821 -0.1370
 5476TIP3    H138063   2.865   4.353   1.282  0.9112  1.7452  0.4563
 5476TIP3    H238064   2.799   4.275   1.393  1.7791 -0.8859 -0.7871
 5477TIP3   OH238065   3.161   5.466   0.506  0.0549 -0.3827  0.5682
 5477TIP3    H138066   3.143   5.497   0.595  2.4496  0.9251  0.6709
 5477TIP3    H238067   3.146   5.542   0.450 -1.0688 -1.0984 -0.1375
 5478TIP3   OH238068   2.198   5.604   1.034  0.1750  1.0883 -0.0309
 5478TIP3    H138069   2.121   5.557   1.066  0.2447  1.2672  0.4067
 5478TIP3    H238070   2.220   5.560   0.951 -0.6424  1.3053 -0.3717
 5479TIP3   OH238071   6.631   3.550   1.216  0.5184  0.4066  0.2783
 5479TIP3    H138072   6.709   3.498   1.237 -0.1965 -0.6202  0.4683
 5479TIP3    H238073   6.559   3.505   1.261 -0.7326 -0.6221 -2.5074
 5480TIP3   OH238074   5.226   3.146   1.683 -0.2162 -0.9821 -0.0273
 5480TIP3    H138075   5.187   3.100   1.756  0.0200  0.4724  1.0573
 5480TIP3    H238076   5.184   3.232   1.682  0.7610 -0.4783 -0.7209
 5481TIP3   OH238077   6.693   6.256   0.833 -0.8049 -0.1636 -0.2742
 5481TIP3    H138078   6.625   6.297   0.781  0.7143  0.4839 -1.8448
 5481TIP3    H238079   6.763   6.237   0.771  1.0417  0.5167  1.4917
 5482TIP3   OH238080   4.743   4.201   0.135 -0.3941 -0.6376 -0.1767
 5482TIP3    H138081   4.722   4.107   0.135  0.3169 -0.8003 -0.6076
 5482TIP3    H238082   4.679   4.239   0.196 -0.3842 -1.4656  0.3740
 5483TIP3   OH238083   5.745   4.389   8.162 -0.1406  0.3567  0.0726
 5483TIP3    H138084   5.655   4.420   8.160  0.2878  1.6205 -1.1603
 5483TIP3    H238085   5.749   4.332   8.239 -2.0409  0.0532 -0.0124
 5484TIP3   OH238086   2.828   3.699   0.291 -0.0614  0.7828 -0.8848
 5484TIP3    H138087   2.883   3.698   0.213  1.4839 -0.0892  0.1690
 5484TIP3    H238088   2.889   3.703   0.364 -1.0977 -3.1693  0.4813
 5485TIP3   OH238089   2.244   2.627   1.207 -0.2085 -0.6895  0.0077
 5485TIP3    H138090   2.180   2.690   1.174 -0.0357 -0.7602 -0.4878
 5485TIP3    H238091   2.224   2.618   1.300  1.3716  2.0635  0.7322
 5486TIP3   OH238092   5.416   0.640   0.592 -0.8392  0.1757 -0.1735
 5486TIP3    H138093   5.427   0.733   0.610 -1.7115  0.1133  0.7536
 5486TIP3    H238094   5.398   0.601   0.677  1.2152 -1.1302 -0.2548
 5487TIP3   OH238095   6.044   0.552   6.760  0.2157  0.3396 -0.4313
 5487TIP3    H138096   6.026   0.492   6.688 -1.1452 -0.1413  0.2805
 5487TIP3    H238097   6.038   0.498   6.839  1.2477  0.9499  0.0912
 5488TIP3   OH238098   2.706   5.174   8.785 -0.1606 -0.1129 -0.3498
 5488TIP3    H138099   2.736   5.258   8.822  2.3988 -0.3047 -1.7503
 5488TIP3    H238100   2.616   5.191   8.759 -0.2968  1.6466  1.0043
 5489TIP3   OH238101   4.981   0.347   2.070 -0.3653 -0.3870  0.4675
 5489TIP3    H138102   4.995   0.371   2.162 -2.2592 -0.0838  0.7128
 5489TIP3    H238103   4.932   0.265   2.074 -1.7829  0.3884 -0.2113
 5490TIP3   OH238104   4.685   2.764   1.809 -0.3809 -0.2116 -0.7713
 5490TIP3    H138105   4.713   2.719   1.889  3.4888  2.4521 -0.3118
 5490TIP3    H238106   4.708   2.703   1.739 -0.1397 -1.0460  0.0078
 5491TIP3   OH238107   5.188   0.442   7.803  0.3489 -0.3544 -0.5123
 5491TIP3    H138108   5.205   0.490   7.884 -0.2951  0.6870 -0.9763
 5491TIP3    H238109   5.193   0.350   7.828  0.6833 -0.0475  0.5959
 5492TIP3   OH238110   3.462   5.119   7.614 -0.3068  0.4107  0.1576
 5492TIP3    H138111   3.391   5.086   7.558 -0.9752  1.4213  0.3749
 5492TIP3    H238112   3.489   5.043   7.666 -2.1435  0.2874  1.0113
 5493TIP3   OH238113   4.952   6.393   7.420 -0.4531 -0.3432 -0.0809
 5493TIP3    H138114   4.899   6.402   7.499  1.6455  1.0225  1.2638
 5493TIP3    H238115   4.912   6.452   7.356 -0.8124  0.3024  0.7370
 5494TIP3   OH238116   3.138   1.722   1.215  0.1370  0.0143  0.1490
 5494TIP3    H138117   3.105   1.771   1.140  0.2629 -0.5045 -0.2585
 5494TIP3    H238118   3.229   1.702   1.193  0.5877  1.0047  1.0421
 5495TIP3   OH238119   6.821   1.086   2.204 -0.3404  0.1568 -0.3096
 5495TIP3    H138120   6.811   1.181   2.213  0.6812  0.3137 -0.6529
 5495TIP3    H238121   6.769   1.064   2.127 -2.8461 -0.0161  1.3286
 5496TIP3   OH238122   4.176   1.534   2.073  0.1857 -0.1871 -0.0232
 5496TIP3    H138123   4.103   1.534   2.011  0.9556 -0.3317 -0.9674
 5496TIP3    H238124   4.220   1.618   2.057  0.0447  0.0401  0.7632
 5497TIP3   OH238125   6.476   1.858   0.910 -0.2361  0.4422 -0.6099
 5497TIP3    H138126   6.546   1.916   0.940 -0.5237  0.5571 -0.1622
 5497TIP3    H238127   6.446   1.897   0.828  2.1100 -1.0921 -2.3715
 5498TIP3   OH238128   3.787   4.033   8.047  0.0579 -0.3482 -0.0885
 5498TIP3    H138129   3.800   4.124   8.074 -0.2847 -0.3482  0.0879
 5498TIP3    H238130   3.776   4.038   7.952 -0.8474 -0.0933  0.0174
 5499TIP3   OH238131   5.782   4.956   7.421  0.2613 -0.0395 -0.2917
 5499TIP3    H138132   5.857   4.940   7.479  1.1770  1.6906 -0.9282
 5499TIP3    H238133   5.818   4.948   7.333 -0.5114 -0.0027 -0.6201
 5500TIP3   OH238134   4.586   5.168   7.170  0.1644 -0.4156 -0.4316
 5500TIP3    H138135   4.665   5.131   7.131  0.0565 -1.3249  0.1788
 5500TIP3    H238136   4.536   5.092   7.200 -0.9402  0.1410 -0.7871
 5501TIP3   OH238137   4.742   1.213   0.673 -0.0477 -0.4796 -0.2645
 5501TIP3    H138138   4.682   1.287   0.688  0.8463  0.0402  0.9756
 5501TIP3    H238139   4.710   1.144   0.730  0.8706  0.0367  0.9481
 5502TIP3   OH238140   4.013   1.068   2.254  0.1187  0.2274 -0.5738
 5502TIP3    H138141   3.928   1.026   2.240 -0.0677  1.0477 -1.9787
 5502TIP3    H238142   4.042   1.096   2.168 -0.3800  4.2062  0.3771
 5503TIP3   OH238143   1.102   4.711   8.487 -0.1710 -0.1633  0.1290
 5503TIP3    H138144   1.065   4.665   8.411  0.1382 -0.0156 -0.1096
 5503TIP3    H238145   1.164   4.773   8.450  0.6183 -0.6871  0.5572
 5504TIP3   OH238146   0.150   1.754   8.516  0.1869  0.6180 -0.0234
 5504TIP3    H138147   0.123   1.754   8.608  1.1015 -1.5096  0.3159
 5504TIP3    H238148   0.069   1.771   8.467 -1.0549 -1.6071  1.0924
 5505TIP3   OH238149   1.370   0.487   2.179 -0.1190 -0.2491 -0.1729
 5505TIP3    H138150   1.417   0.533   2.249  1.4855 -2.4061  0.2826
 5505TIP3    H238151   1.321   0.555   2.134 -0.0088  1.4552  2.1036
 5506TIP3   OH238152   3.437   1.779   1.200 -0.7217 -0.5490 -0.5268
 5506TIP3    H138153   3.518   1.780   1.149  0.0730 -0.5006  0.6979
 5506TIP3    H238154   3.405   1.869   1.196 -0.9771 -0.6741 -1.4102
 5507TIP3   OH238155   0.413   0.740   8.659 -0.3858 -0.1627  1.0606
 5507TIP3    H138156   0.335   0.685   8.651 -0.3491 -0.2295  1.1525
 5507TIP3    H238157   0.386   0.825   8.626 -0.0316 -0.6031 -0.4150
 5508TIP3   OH238158   5.385   3.980   8.650 -0.4065  0.2223 -0.4880
 5508TIP3    H138159   5.479   3.995   8.640 -0.8446  2.2765 -2.3643
 5508TIP3    H238160   5.376   3.884   8.653  1.6603 -0.0453 -1.2305
 5509TIP3   OH238161   5.605   1.877   2.469  0.5320  0.1239  0.1426
 5509TIP3    H138162   5.637   1.963   2.499  2.4084 -0.7802  0.8669
 5509TIP3    H238163   5.597   1.826   2.550 -2.8524  0.2381  0.0297
 5510TIP3   OH238164   3.736   6.639   7.987  0.2313  0.3184  0.5931
 5510TIP3    H138165   3.671   6.572   7.967  1.6693 -0.4537 -2.0165
 5510TIP3    H238166   3.802   6.630   7.918  1.6973  2.8792  1.5024
 5511TIP3   OH238167   3.362   4.223   7.712 -0.2722 -0.2675 -0.2482
 5511TIP3    H138168   3.337   4.135   7.740  0.2030 -0.5716 -0.7653
 5511TIP3    H238169   3.411   4.210   7.631  0.1724  0.4413 -0.1051
 5512TIP3   OH238170   1.506   3.808   7.102  0.3789  0.2433  0.1593
 5512TIP3    H138171   1.461   3.857   7.032 -1.2406  2.1755  2.4011
 5512TIP3    H238172   1.461   3.724   7.105 -1.6879  1.2907  0.8188
 5513TIP3   OH238173   6.798   4.723   6.820  0.4920 -0.8835 -0.2125
 5513TIP3    H138174   6.852   4.675   6.882  0.0012  0.6620  1.5125
 5513TIP3    H238175   6.821   4.815   6.835 -0.8398 -0.3672 -1.1599
 5514TIP3   OH238176   5.041   5.503   1.750  0.5985  0.6177 -0.5314
 5514TIP3    H138177   5.071   5.462   1.669  0.9031 -1.7956  0.7064
 5514TIP3    H238178   4.953   5.468   1.762  0.4068  1.2776 -0.0309
 5515TIP3   OH238179   2.374   1.109   7.898  0.0264  0.4497 -0.0488
 5515TIP3    H138180   2.341   1.115   7.988 -0.5522  0.0835 -0.2320
 5515TIP3    H238181   2.337   1.186   7.854  0.9057  1.0281  0.2097
 5516TIP3   OH238182   5.947   0.032   1.842 -0.2563 -0.7858 -0.0478
 5516TIP3    H138183   5.947   0.019   1.936 -2.5702  0.5469  0.2096
 5516TIP3    H238184   5.859   0.007   1.814  0.2316 -0.7157 -1.8095
 5517TIP3   OH238185   0.731   1.975   0.945  0.3540  0.0512  0.6263
 5517TIP3    H138186   0.681   2.053   0.923  2.2857  1.7917  2.0285
 5517TIP3    H238187   0.768   1.946   0.861 -2.2646 -0.8487 -0.3089
 5518TIP3   OH238188   1.502   5.510   2.451 -0.3331  0.0317 -0.6039
 5518TIP3    H138189   1.593   5.494   2.478 -0.6315 -0.8321 -0.1048
 5518TIP3    H238190   1.498   5.605   2.439  0.6722  0.0685 -0.7525
 5519TIP3   OH238191   3.506   1.579   2.348 -0.1494 -0.0322 -0.3452
 5519TIP3    H138192   3.462   1.659   2.378  0.6638  0.8694 -1.4885
 5519TIP3    H238193   3.566   1.557   2.419  1.4867  1.8620 -1.0654
 5520TIP3   OH238194   0.598   0.012   7.575 -0.3222 -0.2297  0.4718
 5520TIP3    H138195   0.570  -0.076   7.603 -0.7359  0.4429  2.3105
 5520TIP3    H238196   0.553   0.026   7.492 -0.6615 -1.5546  0.4084
 5521TIP3   OH238197   3.507   6.511   8.697 -0.7765 -0.2797  0.2114
 5521TIP3    H138198   3.423   6.557   8.693 -0.1343  0.9573  0.4562
 5521TIP3    H238199   3.501   6.444   8.629 -1.6154  0.3789 -0.3881
 5522TIP3   OH238200   0.729   3.699   7.601 -0.2279 -0.5057  0.0392
 5522TIP3    H138201   0.699   3.782   7.638  0.4245 -0.4866  0.5569
 5522TIP3    H238202   0.811   3.721   7.556 -0.0476 -0.8654  0.1851
 5523TIP3   OH238203   3.398   6.137   7.430 -0.0982  0.0742  0.4045
 5523TIP3    H138204   3.305   6.160   7.434  0.2836  1.5347  2.2920
 5523TIP3    H238205   3.420   6.139   7.336 -1.7472  0.5983  0.0050
 5524TIP3   OH238206   1.253   0.703   2.019  0.1365  0.5525  0.5012
 5524TIP3    H138207   1.165   0.694   1.983  0.8885 -2.3847 -0.9278
 5524TIP3    H238208   1.307   0.727   1.944  0.8782  0.0929  0.8754
 5525TIP3   OH238209   5.608   4.933   1.650  0.0703  0.1866  0.3261
 5525TIP3    H138210   5.682   4.967   1.700  0.5006  0.6761 -0.6086
 5525TIP3    H238211   5.642   4.854   1.607 -0.4303 -0.4927  1.1482
 5526TIP3   OH238212   1.426   6.157   7.958 -0.7604 -0.6544  0.0536
 5526TIP3    H138213   1.460   6.068   7.973  2.0398  0.2284 -0.4897
 5526TIP3    H238214   1.387   6.181   8.042 -2.1151 -2.5730  0.0463
 5527TIP3   OH238215   4.606   6.664   2.293 -0.7613  0.4815 -0.1542
 5527TIP3    H138216   4.554   6.618   2.227 -0.9010  1.9040 -1.0743
 5527TIP3    H238217   4.696   6.660   2.261 -0.5820 -0.2976  0.4430
 5528TIP3   OH238218   1.564   4.837   0.649 -0.0513 -0.1338  0.6357
 5528TIP3    H138219   1.494   4.890   0.611  0.6572 -0.7552 -1.6875
 5528TIP3    H238220   1.519   4.780   0.711 -1.0286  2.0841  2.1263
 5529TIP3   OH238221   3.460   2.546   1.822  0.2920 -0.4314  0.1630
 5529TIP3    H138222   3.452   2.491   1.744 -0.0902 -0.5442  0.2772
 5529TIP3    H238223   3.553   2.568   1.828  0.7479 -2.3974  1.0432
 5530TIP3   OH238224   2.149   4.478   0.318  0.3343  0.4387 -0.2840
 5530TIP3    H138225   2.138   4.388   0.287  1.7926  0.6589 -1.6034
 5530TIP3    H238226   2.121   4.532   0.244 -0.8160  1.1040  0.6012
 5531TIP3   OH238227   6.676   5.187   7.560  0.1706 -0.2108 -0.1289
 5531TIP3    H138228   6.630   5.270   7.572  0.4773 -0.0636  0.0279
 5531TIP3    H238229   6.642   5.130   7.630  1.2012  0.3215  0.8267
 5532TIP3   OH238230   5.063   2.190   8.815 -0.0188  0.6780 -0.0293
 5532TIP3    H138231   5.010   2.174   8.894  0.8535 -1.1028  0.2447
 5532TIP3    H238232   5.116   2.266   8.837 -2.5481  2.7083 -0.4083
 5533TIP3   OH238233   2.800   0.829   0.954 -0.1702  0.5675  0.2795
 5533TIP3    H138234   2.879   0.884   0.957  2.9967 -3.4300 -0.4885
 5533TIP3    H238235   2.786   0.802   1.044 -0.8096  1.3625  0.4324
 5534TIP3   OH238236   4.106   5.088   2.018 -0.2610 -0.8960 -0.2200
 5534TIP3    H138237   4.134   5.144   2.091  0.3323 -1.6181  0.1269
 5534TIP3    H238238   4.182   5.032   2.001  0.3181  0.5063 -2.6658
 5535TIP3   OH238239   2.816   2.906   7.899  0.3152 -0.3577 -0.1319
 5535TIP3    H138240   2.869   2.866   7.829 -0.9043 -0.8156 -0.8340
 5535TIP3    H238241   2.754   2.837   7.923 -0.3381  0.3578  0.2564
 5536TIP3   OH238242   1.757   1.835   7.698 -0.4632  0.0416 -0.2229
 5536TIP3    H138243   1.844   1.842   7.659 -0.5374 -0.4028 -0.4708
 5536TIP3    H238244   1.766   1.880   7.782 -0.2787  0.9155 -0.6942
 5537TIP3   OH238245   6.189   5.317   2.372  0.1174  0.2336 -0.9827
 5537TIP3    H138246   6.264   5.363   2.334  1.6053 -2.0821 -1.0395
 5537TIP3    H238247   6.225   5.233   2.401 -1.5075  0.6962  3.0065
 5538TIP3   OH238248   5.289   2.330   7.453 -0.3243  0.0470  0.0647
 5538TIP3    H138249   5.339   2.365   7.379  0.0641 -3.1954 -1.4051
 5538TIP3    H238250   5.322   2.377   7.529  0.5309  2.2944 -1.5809
 5539TIP3   OH238251   3.880   6.235   8.359 -0.1760  0.3342 -0.2429
 5539TIP3    H138252   3.840   6.152   8.385  1.8260 -0.7207 -0.3562
 5539TIP3    H238253   3.884   6.286   8.439  1.7565 -1.1003  0.6555
 5540TIP3   OH238254   0.344   1.935   2.044 -0.0465  0.0591  0.0633
 5540TIP3    H138255   0.372   1.971   1.960  0.7812  1.3006  0.8377
 5540TIP3    H238256   0.402   1.860   2.058  0.6892  0.6349  0.1249
 5541TIP3   OH238257   0.435   2.027   0.707  0.2849 -0.8345  0.0326
 5541TIP3    H138258   0.448   2.075   0.626  0.8978 -1.2989 -0.1521
 5541TIP3    H238259   0.489   2.073   0.771 -0.8964  0.0754  0.4104
 5542TIP3   OH238260   5.267   6.513   2.206  0.1103 -0.5552  0.3405
 5542TIP3    H138261   5.288   6.435   2.155  0.2536 -0.8491  0.8530
 5542TIP3    H238262   5.270   6.485   2.297  1.2745  0.3037  0.5972
 5543TIP3   OH238263   0.266   4.503   7.642  0.2079 -0.1051 -0.1738
 5543TIP3    H138264   0.181   4.506   7.685 -0.8983  0.1521 -2.2766
 5543TIP3    H238265   0.275   4.588   7.600  1.3052 -0.3017 -0.3821
 5544TIP3   OH238266   5.923   5.599   1.271  0.6094 -0.2281 -0.5981
 5544TIP3    H138267   5.962   5.542   1.205  0.6659  0.6636 -1.3580
 5544TIP3    H238268   5.962   5.570   1.354  1.2645 -0.7410 -1.0741
 5545TIP3   OH238269   1.005   0.336   7.447  0.3980 -0.0963  0.2343
 5545TIP3    H138270   1.041   0.297   7.526  1.1818  1.0777  0.4778
 5545TIP3    H238271   1.058   0.414   7.432 -0.3440  0.2158 -0.9223
 5546TIP3   OH238272   0.319   3.748   0.339 -0.1305  0.1251 -0.1670
 5546TIP3    H138273   0.323   3.818   0.274 -0.1323  1.1728  0.9297
 5546TIP3    H238274   0.358   3.672   0.295 -0.3617  0.7250 -1.4661
 5547TIP3   OH238275   0.429   2.456   1.664  0.3118 -0.4662  0.1428
 5547TIP3    H138276   0.400   2.406   1.589 -1.1240  3.2586 -2.0580
 5547TIP3    H238277   0.523   2.470   1.649  0.5502 -1.6829  0.3717
 5548TIP3   OH238278   0.532   0.419   8.551  0.0267 -0.0583  0.0239
 5548TIP3    H138279   0.601   0.481   8.574  0.1776  0.3716 -1.5196
 5548TIP3    H238280   0.573   0.333   8.563  1.1633  0.1878 -1.6965
 5549TIP3   OH238281   4.410   6.141   0.248 -0.2305  0.1747 -0.1857
 5549TIP3    H138282   4.363   6.058   0.251 -2.3496  1.2949 -0.2700
 5549TIP3    H238283   4.410   6.172   0.339  1.3464 -0.2728  0.0069
 5550TIP3   OH238284   6.636   5.345   1.966  0.1385 -0.7683 -0.0575
 5550TIP3    H138285   6.699   5.397   1.917  0.0623  0.8488  1.4537
 5550TIP3    H238286   6.679   5.326   2.049 -0.9852 -0.4310  0.6281
 5551TIP3   OH238287   5.328   4.098   8.898  0.0409 -1.0700  0.6713
 5551TIP3    H138288   5.263   4.161   8.866  0.1271 -0.6641  1.2770
 5551TIP3    H238289   5.357   4.052   8.819  2.9407  2.3791 -0.5660
 5552TIP3   OH238290   4.235   5.010   0.847 -0.2965 -0.0737 -0.4093
 5552TIP3    H138291   4.155   5.025   0.797 -1.1225 -0.7019  0.6750
 5552TIP3    H238292   4.306   5.018   0.783 -1.3010 -0.6044 -1.6213
 5553TIP3   OH238293   5.419   5.637   7.248  0.6752 -0.3903 -0.2305
 5553TIP3    H138294   5.361   5.712   7.230  1.6628  0.1080 -1.4975
 5553TIP3    H238295   5.400   5.575   7.178  1.7125 -0.1725 -0.7277
 5554TIP3   OH238296   2.323   3.667   7.982 -0.3647 -0.0846  0.5495
 5554TIP3    H138297   2.245   3.721   7.995 -0.4852 -0.0374 -0.3065
 5554TIP3    H238298   2.302   3.584   8.024 -1.1305 -0.2816 -0.1818
 5555TIP3   OH238299   1.811   2.016   1.747  0.1892  0.5761 -0.0452
 5555TIP3    H138300   1.797   1.921   1.742  3.1935 -0.0610  1.5370
 5555TIP3    H238301   1.758   2.044   1.821 -1.0954  0.2897 -0.8133
 5556TIP3   OH238302   3.026   3.723   6.683  0.0307  0.4396  0.0797
 5556TIP3    H138303   3.050   3.697   6.771 -2.2629  0.6528  0.8393
 5556TIP3    H238304   3.051   3.815   6.677  1.6446  0.0201 -0.1006
 5557TIP3   OH238305   3.037   6.480   2.547  0.2718  0.0832 -0.0246
 5557TIP3    H138306   3.062   6.573   2.549 -0.5697  0.3975 -1.8905
 5557TIP3    H238307   3.087   6.443   2.474 -2.5506  0.1404 -2.1484
 5558TIP3   OH238308   4.862   3.412   7.981 -0.1278  0.6119 -0.1235
 5558TIP3    H138309   4.916   3.424   8.060  2.3514 -0.3159 -1.5675
 5558TIP3    H238310   4.831   3.501   7.960 -0.0225  1.0187  1.3289
 5559TIP3   OH238311   3.844   1.927   1.257 -0.0796  0.2678  0.9518
 5559TIP3    H138312   3.813   2.017   1.268  0.5997  0.4997  0.9835
 5559TIP3    H238313   3.779   1.887   1.200  0.0314  0.9969  0.2949
 5560TIP3   OH238314   5.983   1.900   8.865  0.4554 -0.7434  0.6262
 5560TIP3    H138315   6.050   1.962   8.894 -0.2911  0.2221  0.3377
 5560TIP3    H238316   5.902   1.935   8.900 -0.0733 -1.1701 -0.1560
 5561TIP3   OH238317   1.842   2.469   2.484  0.2568  0.1582 -0.2720
 5561TIP3    H138318   1.936   2.484   2.476  0.5379 -1.5577 -0.4991
 5561TIP3    H238319   1.825   2.392   2.429 -0.7932 -1.2291  1.8748
 5562TIP3   OH238320   3.168   5.412   7.634 -0.3983  0.1913  0.0191
 5562TIP3    H138321   3.185   5.498   7.673  1.1941  0.4788 -1.2186
 5562TIP3    H238322   3.218   5.412   7.552 -0.7420 -1.7511 -0.2394
 5563TIP3   OH238323   2.117   2.129   2.114 -0.0160 -0.4099  0.1899
 5563TIP3    H138324   2.030   2.123   2.074 -0.7458  1.8286  1.2833
 5563TIP3    H238325   2.117   2.215   2.157  3.4630  0.5750 -1.4642
 5564TIP3   OH238326   5.037   1.324   8.279 -0.4927 -0.3662 -0.1223
 5564TIP3    H138327   4.945   1.350   8.278 -0.0513  1.3036 -0.9980
 5564TIP3    H238328   5.047   1.274   8.361 -1.2745  2.9262  2.1863
 5565TIP3   OH238329   0.224   1.252   2.029 -0.1445  0.0256  0.3566
 5565TIP3    H138330   0.314   1.229   2.054  0.0191  1.1693  0.8559
 5565TIP3    H238331   0.169   1.196   2.084  0.2435 -0.5392  0.1859
 5566TIP3   OH238332   0.537   0.373   7.432 -0.6332  0.0065 -0.2721
 5566TIP3    H138333   0.596   0.344   7.501 -1.5748 -0.1255  0.4882
 5566TIP3    H238334   0.565   0.324   7.355  0.8105  0.5832 -0.1669
 5567TIP3   OH238335   3.239   4.205   7.331 -0.0519  0.0105  0.1918
 5567TIP3    H138336   3.280   4.149   7.266  0.1600 -1.2667  1.3711
 5567TIP3    H238337   3.312   4.257   7.367 -0.1085  0.4435 -0.3051
 5568TIP3   OH238338   2.557   6.282   0.463  0.3357  0.2363 -0.1044
 5568TIP3    H138339   2.483   6.286   0.402  0.1968  0.1435  0.0563
 5568TIP3    H238340   2.589   6.193   0.456  1.3777  0.6715 -1.2745
 5569TIP3   OH238341   6.427   4.768   7.055 -0.2595  0.3789  0.0295
 5569TIP3    H138342   6.343   4.805   7.027  0.2355  1.4908 -0.0586
 5569TIP3    H238343   6.422   4.767   7.151 -0.6939 -0.3601  0.0047
 5570TIP3   OH238344   4.879   3.211   1.326 -0.0094  0.7849  0.1041
 5570TIP3    H138345   4.895   3.116   1.320  0.9844  0.8368  1.3688
 5570TIP3    H238346   4.832   3.233   1.246 -1.1035 -0.9407  0.2283
 5571TIP3   OH238347   0.996   1.756   0.888  0.0418 -0.3617  0.4311
 5571TIP3    H138348   0.956   1.807   0.958  1.6856  0.9997  0.4409
 5571TIP3    H238349   0.922   1.715   0.843 -1.1707  0.1874  1.8344
 5572TIP3   OH238350   2.266   6.047   8.310 -0.0270  0.1006  0.3191
 5572TIP3    H138351   2.206   5.976   8.289  0.1550 -0.1891  0.7483
 5572TIP3    H238352   2.210   6.123   8.327 -0.2375 -0.0171  0.1470
 5573TIP3   OH238353   3.558   3.621   1.417  0.5841  0.1760  0.4238
 5573TIP3    H138354   3.475   3.659   1.387  0.2741 -0.8614 -0.0557
 5573TIP3    H238355   3.623   3.687   1.396  0.8887 -1.3829 -5.1329
 5574TIP3   OH238356   0.589   0.994   1.534 -0.4759 -0.2496 -0.2513
 5574TIP3    H138357   0.653   1.032   1.594 -1.1456  0.3064  0.1245
 5574TIP3    H238358   0.575   0.905   1.567 -0.6214 -0.0436  0.2539
 5575TIP3   OH238359   0.764   1.648   0.793 -0.0827  0.3156 -0.2083
 5575TIP3    H138360   0.712   1.628   0.716 -1.2682 -1.0066  0.8825
 5575TIP3    H238361   0.804   1.565   0.818 -0.2020  0.5776  0.9405
 5576TIP3   OH238362   5.294   5.401   0.183  0.2809 -0.0168  0.5231
 5576TIP3    H138363   5.345   5.442   0.253  1.6428  1.2977 -1.1087
 5576TIP3    H238364   5.341   5.320   0.163  0.4444  0.0854  0.4936
 5577TIP3   OH238365   5.137   0.366   1.814 -0.1516 -0.0238 -0.1913
 5577TIP3    H138366   5.126   0.364   1.909 -0.9565  0.5088 -0.2651
 5577TIP3    H238367   5.207   0.429   1.799 -1.7342  1.8428 -0.0663
 5578TIP3   OH238368   2.753   6.216   7.922  0.3216 -0.1557  0.4522
 5578TIP3    H138369   2.753   6.167   8.004 -0.6409 -0.9456  0.0099
 5578TIP3    H238370   2.824   6.176   7.871  2.6511  1.9827  1.7635
 5579TIP3   OH238371   4.067   2.295   1.982  0.4872  0.0302 -0.0375
 5579TIP3    H138372   4.152   2.300   2.026  0.0476 -0.3968  0.8812
 5579TIP3    H238373   4.006   2.339   2.041  0.0284  0.1867 -0.6148
 5580TIP3   OH238374   0.319   5.194   1.629  0.2233  0.0160  0.5152
 5580TIP3    H138375   0.280   5.276   1.599  1.0805  0.7768  1.3911
 5580TIP3    H238376   0.245   5.144   1.665 -0.4070  0.1218 -0.6014
 5581TIP3   OH238377   1.853   0.191   8.632  0.4387 -0.2668  0.3589
 5581TIP3    H138378   1.799   0.265   8.604  0.3274 -0.0479  1.1308
 5581TIP3    H238379   1.795   0.115   8.625  0.4417 -0.2298 -0.0891
 5582TIP3   OH238380   5.482   6.409   1.583  0.0364 -0.2405 -0.6764
 5582TIP3    H138381   5.534   6.381   1.508  1.2080  0.6929 -0.2311
 5582TIP3    H238382   5.543   6.409   1.657 -1.4690 -3.0219  0.7911
 5583TIP3   OH238383   4.065   4.469   7.779 -0.0768  0.5326 -0.8087
 5583TIP3    H138384   3.976   4.436   7.782  0.1750 -0.1165  0.3384
 5583TIP3    H238385   4.109   4.413   7.714 -0.6130  1.2070 -1.7809
 5584TIP3   OH238386   5.090   2.654   1.216 -0.2328  0.4700 -0.0004
 5584TIP3    H138387   5.051   2.655   1.129 -2.9230  1.5520  1.0945
 5584TIP3    H238388   5.141   2.573   1.219 -0.9974 -0.1682 -2.1651
 5585TIP3   OH238389   5.083   2.793   7.542  0.0138  0.0484  0.0409
 5585TIP3    H138390   5.116   2.811   7.454  1.6403 -0.3137  0.5312
 5585TIP3    H238391   5.109   2.703   7.560 -0.8223 -0.0792  0.6766
 5586TIP3   OH238392   0.991   3.792   0.803 -0.0190 -0.0797  0.1195
 5586TIP3    H138393   1.020   3.702   0.817 -2.6083 -1.3327 -1.6176
 5586TIP3    H238394   0.907   3.797   0.849 -0.2009  1.2682 -0.3234
 5587TIP3   OH238395   3.071   0.961   0.635  0.8188  0.1389  0.6327
 5587TIP3    H138396   3.114   0.997   0.557 -1.7826  4.5857  0.9164
 5587TIP3    H238397   2.986   0.930   0.603  0.6550 -0.1920  1.3742
 5588TIP3   OH238398   1.692   1.736   0.749  0.3069  0.1432  0.1331
 5588TIP3    H138399   1.699   1.772   0.838 -0.7085  0.3289  0.1462
 5588TIP3    H238400   1.624   1.788   0.707 -0.2530 -0.8811 -0.2812
 5589TIP3   OH238401   3.284   3.755   1.631 -0.2872 -0.4063  1.0209
 5589TIP3    H138402   3.218   3.686   1.618 -0.5876  0.2885 -1.6921
 5589TIP3    H238403   3.303   3.787   1.543  1.8919  1.1212  1.9631
 5590TIP3   OH238404   6.063   1.789   1.229 -0.2957 -0.0970 -0.0422
 5590TIP3    H138405   5.988   1.758   1.178 -1.2043  1.3947  0.3261
 5590TIP3    H238406   6.139   1.747   1.188 -1.2159 -0.7122 -1.1733
 5591TIP3   OH238407   1.246   3.625   8.562  0.3125  0.3186  0.6778
 5591TIP3    H138408   1.338   3.651   8.561  0.6239 -0.7107 -0.1950
 5591TIP3    H238409   1.228   3.602   8.471 -0.3996 -0.8736  1.1075
 5592TIP3   OH238410   2.309   0.590   1.698 -0.3772 -0.5997  0.2786
 5592TIP3    H138411   2.273   0.535   1.629 -1.1613 -0.1869  0.3467
 5592TIP3    H238412   2.338   0.669   1.652  0.8716 -1.0954  0.1601
 5593TIP3   OH238413   3.050   3.414   8.737  0.1571 -0.0860 -0.0552
 5593TIP3    H138414   2.996   3.490   8.714 -0.4686 -0.4225  0.2763
 5593TIP3    H238415   3.077   3.377   8.653 -3.1810 -2.0762 -0.4348
 5594TIP3   OH238416   4.110   2.014   7.851  0.5165 -0.2702 -0.2536
 5594TIP3    H138417   4.198   1.979   7.864  0.8826  0.5294 -0.5157
 5594TIP3    H238418   4.110   2.045   7.760  0.2473  0.5113  0.0046
 5595TIP3   OH238419   3.601   4.393   0.602 -0.5297  0.1004  0.4693
 5595TIP3    H138420   3.666   4.328   0.573 -0.9926 -0.9791  1.7302
 5595TIP3    H238421   3.645   4.477   0.590  0.6164 -0.5240  0.0709
 5596TIP3   OH238422   5.982   2.460   7.841 -0.0950  0.0837  0.0245
 5596TIP3    H138423   5.972   2.365   7.828  0.8592  0.1368 -1.3301
 5596TIP3    H238424   5.964   2.498   7.755  2.2353  0.8825 -0.1798
 5597TIP3   OH238425   1.991   0.268   7.635  0.3069 -0.3235  0.5326
 5597TIP3    H138426   2.011   0.347   7.584 -1.4453 -1.2370 -1.7757
 5597TIP3    H238427   1.925   0.296   7.698 -0.1240  0.1255 -0.1029
 5598TIP3   OH238428   3.124   5.031   2.944 -0.3367  0.3318 -0.3334
 5598TIP3    H138429   3.060   5.081   2.893 -0.9645 -0.6745 -0.5475
 5598TIP3    H238430   3.086   5.025   3.031  0.6886  1.9590  0.2833
 5599TIP3   OH238431   0.407   6.808   0.945  0.4276  0.7033 -0.0888
 5599TIP3    H138432   0.396   6.899   0.973 -0.0030  0.6786 -0.1681
 5599TIP3    H238433   0.444   6.813   0.857 -1.0076  0.8351 -0.7092
 5600TIP3   OH238434   4.088   3.638   0.588 -0.2356  0.0928  0.5314
 5600TIP3    H138435   4.082   3.546   0.565  1.7597  0.0988 -0.2450
 5600TIP3    H238436   4.029   3.649   0.663 -1.4038 -1.5217 -0.1193
 5601TIP3   OH238437   4.921   0.910   0.587 -0.0150  0.4623 -0.4437
 5601TIP3    H138438   4.997   0.904   0.644 -0.7280  0.6312  0.5373
 5601TIP3    H238439   4.932   0.994   0.542 -0.1380  0.9698  0.4598
 5602TIP3   OH238440   6.054   2.061   1.186 -0.1949 -0.5408  0.4792
 5602TIP3    H138441   6.066   2.032   1.277 -0.6774 -2.0328  0.1051
 5602TIP3    H238442   6.057   1.980   1.135 -1.9201  0.0428 -0.6243
 5603TIP3   OH238443   5.870   4.819   0.021 -0.6337  0.3023 -0.3618
 5603TIP3    H138444   5.927   4.747  -0.009 -2.3972 -0.6235 -1.6769
 5603TIP3    H238445   5.917   4.856   0.095  2.7689  1.0414 -2.6300
 5604TIP3   OH238446   3.588   6.301   8.468 -0.1479  0.8688  0.0454
 5604TIP3    H138447   3.670   6.255   8.451  0.0090  1.1932 -0.0733
 5604TIP3    H238448   3.526   6.231   8.490  0.7166  0.7558  2.4926
 5605TIP3   OH238449   1.192   0.283   7.169 -0.0624  0.5578  0.2133
 5605TIP3    H138450   1.119   0.292   7.108  0.9044  0.0687 -1.0502
 5605TIP3    H238451   1.159   0.320   7.251 -1.9329 -0.1733 -0.1439
 5606TIP3   OH238452   5.288   0.571   2.057  0.0590  0.2750 -0.3507
 5606TIP3    H138453   5.238   0.651   2.040 -0.1211 -0.0520 -1.4546
 5606TIP3    H238454   5.227   0.514   2.104 -0.3716  0.1644 -1.0298
 5607TIP3   OH238455   1.486   0.994   1.141 -0.2750  0.2182 -0.5693
 5607TIP3    H138456   1.499   1.065   1.077 -0.3331  0.1840 -0.6194
 5607TIP3    H238457   1.448   0.922   1.090 -1.1472  0.4929 -0.3314
 5608TIP3   OH238458   0.926   6.661   8.596 -0.2022 -0.0572 -0.0025
 5608TIP3    H138459   0.841   6.658   8.641 -0.0888 -0.8438  0.1743
 5608TIP3    H238460   0.991   6.658   8.667 -0.0227 -1.4307 -0.2015
 5609TIP3   OH238461   1.746   5.551   1.794 -0.8674  0.1634  0.4025
 5609TIP3    H138462   1.822   5.592   1.754 -0.0454 -0.4804  1.2647
 5609TIP3    H238463   1.769   5.458   1.800 -1.1327  0.1796  1.9598
 5610TIP3   OH238464   1.481   1.477   6.632  0.3004 -0.2422 -0.1808
 5610TIP3    H138465   1.385   1.476   6.630  0.2697  0.2117 -3.0679
 5610TIP3    H238466   1.503   1.427   6.711 -2.3039 -1.0680  0.1396
 5611TIP3   OH238467   2.315   0.784   8.752  0.1304  0.2100 -0.5194
 5611TIP3    H138468   2.231   0.770   8.796  0.0971  0.9638 -0.3311
 5611TIP3    H238469   2.356   0.698   8.751 -0.7096 -0.1956 -0.7436
 5612TIP3   OH238470   1.768   0.455   1.111  0.1726 -0.0788  0.0170
 5612TIP3    H138471   1.786   0.378   1.166 -2.0553 -1.4659 -1.0541
 5612TIP3    H238472   1.815   0.438   1.030 -0.2187 -0.2533 -0.1738
 5613TIP3   OH238473   3.585   3.776   8.807 -0.7810 -0.1949 -0.3417
 5613TIP3    H138474   3.522   3.748   8.874 -0.7924  0.4802 -0.0640
 5613TIP3    H238475   3.649   3.829   8.854 -0.5096 -0.1258 -0.7810
 5614TIP3   OH238476   3.420   1.239   2.346 -0.3400 -0.2310 -0.1263
 5614TIP3    H138477   3.410   1.283   2.262 -0.2145  0.3296  0.1463
 5614TIP3    H238478   3.503   1.272   2.380 -0.4532 -0.3574  0.2764
 5615TIP3   OH238479   5.273   2.815   1.353  0.0729 -0.1602  0.4484
 5615TIP3    H138480   5.237   2.726   1.351 -0.5646  0.0884  0.4331
 5615TIP3    H238481   5.368   2.803   1.349  0.0464 -0.8860  1.5336
 5616TIP3   OH238482   5.263   2.480   2.444 -0.1048  0.3298 -0.5869
 5616TIP3    H138483   5.321   2.419   2.489  1.4336  0.3900 -2.3349
 5616TIP3    H238484   5.178   2.466   2.484  0.5541 -1.7252  0.2492
 5617TIP3   OH238485   2.849   1.483   8.745 -0.8924  0.3133  0.1826
 5617TIP3    H138486   2.808   1.401   8.716  0.7787 -0.5537  0.1626
 5617TIP3    H238487   2.873   1.466   8.836  2.4808 -0.5332 -0.7481
 5618TIP3   OH238488   6.001   4.387   1.244 -0.9285 -0.7344 -0.5813
 5618TIP3    H138489   6.077   4.332   1.263  0.2742  1.0886  0.2864
 5618TIP3    H238490   5.974   4.421   1.330 -1.7133 -0.1125 -1.0556
 5619TIP3   OH238491   4.473   4.870   0.967  0.6531 -0.1477 -0.2204
 5619TIP3    H138492   4.551   4.815   0.957  0.2648 -0.6766 -0.4361
 5619TIP3    H238493   4.442   4.883   0.877  0.3178 -0.2063 -0.1144
 5620TIP3   OH238494   2.188   6.167   2.119  0.4331 -0.2773  0.0755
 5620TIP3    H138495   2.117   6.224   2.089  1.1591  0.8485  0.4266
 5620TIP3    H238496   2.241   6.223   2.176  0.1370 -1.8344  1.9613
 5621TIP3   OH238497   2.912   4.583   0.632  0.6157 -0.0208  0.0778
 5621TIP3    H138498   2.862   4.519   0.581  0.1404 -0.9183  1.6116
 5621TIP3    H238499   2.894   4.667   0.589 -1.5226 -0.4353  0.0324
 5622TIP3   OH238500   3.198   6.356   8.739  0.1169 -0.0040 -0.3095
 5622TIP3    H138501   3.218   6.432   8.684  1.4216  0.2610  0.4996
 5622TIP3    H238502   3.228   6.381   8.826  0.2899 -1.3391  0.0296
 5623TIP3   OH238503   0.661   5.689   7.857 -0.0056 -0.5617  0.0715
 5623TIP3    H138504   0.637   5.755   7.793  1.4367 -0.4785 -0.4192
 5623TIP3    H238505   0.754   5.705   7.875  0.0373 -1.6238  0.9377
 5624TIP3   OH238506   4.199   4.356   7.566 -0.3592  0.0778 -0.3496
 5624TIP3    H138507   4.279   4.304   7.575  0.5433  1.5704  0.4836
 5624TIP3    H238508   4.227   4.437   7.524 -1.8651 -0.3197 -2.2956
 5625TIP3   OH238509   1.398   1.404   6.072  0.4271  0.0321  0.2291
 5625TIP3    H138510   1.378   1.310   6.074  0.7426 -0.0329  0.2724
 5625TIP3    H238511   1.341   1.442   6.139  0.0304 -0.0751 -0.0385
 5626TIP3   OH238512   4.732   1.614   1.203 -0.0008 -0.5969 -0.3254
 5626TIP3    H138513   4.750   1.581   1.291 -0.5928  0.2387  0.1185
 5626TIP3    H238514   4.709   1.706   1.216 -0.3398 -0.5284 -1.3279
 5627TIP3   OH238515   5.399   6.278   8.399 -0.0037  0.8735 -0.0671
 5627TIP3    H138516   5.322   6.252   8.350  1.0409 -0.7965 -0.9146
 5627TIP3    H238517   5.413   6.207   8.462  1.5349  0.4854 -0.7855
 5628TIP3   OH238518   3.147   3.643   2.695 -0.3116  0.4413  0.2182
 5628TIP3    H138519   3.123   3.552   2.710  0.5403  0.2774  0.6653
 5628TIP3    H238520   3.067   3.692   2.714 -1.3530 -0.3194 -1.8919
 5629TIP3   OH238521   4.720   4.577   0.186  0.0353  0.0366  0.4962
 5629TIP3    H138522   4.815   4.581   0.197  0.3416 -0.0554 -1.7641
 5629TIP3    H238523   4.685   4.622   0.264  2.0093  2.4371  0.1305
 5630TIP3   OH238524   2.806   2.560   6.835 -0.0879  0.3717  0.1677
 5630TIP3    H138525   2.728   2.609   6.860 -0.4448  0.4175 -0.9562
 5630TIP3    H238526   2.778   2.507   6.760  0.6746 -0.4550  0.4502
 5631TIP3   OH238527   3.608   0.067   7.751 -0.2417  0.1673 -0.1820
 5631TIP3    H138528   3.696   0.028   7.756  0.6460  2.0204 -0.4858
 5631TIP3    H238529   3.581   0.074   7.842 -0.1201 -0.4750 -0.0857
 5632TIP3   OH238530   5.560   3.165   0.714 -0.1236  0.1426 -0.0104
 5632TIP3    H138531   5.552   3.150   0.809  1.1465  1.2193  0.2950
 5632TIP3    H238532   5.625   3.101   0.685 -2.2204 -1.8233 -0.6472
 5633TIP3   OH238533   5.960   4.712   1.855 -0.0602 -0.2501  0.1161
 5633TIP3    H138534   5.931   4.761   1.932 -0.8232  0.2771 -0.4777
 5633TIP3    H238535   5.905   4.635   1.853  1.0393 -1.0902  0.9651
 5634TIP3   OH238536   0.334   2.425   1.375 -0.6341  0.0844  0.2818
 5634TIP3    H138537   0.371   2.415   1.287  1.6615  1.0212  1.0546
 5634TIP3    H238538   0.267   2.492   1.365  0.2784  0.9058 -0.6220
 5635TIP3   OH238539   4.782   5.908   8.820  0.5426  0.1382  0.2606
 5635TIP3    H138540   4.755   5.967   8.750  0.5438  0.7138  0.7316
 5635TIP3    H238541   4.732   5.937   8.896  0.1985 -0.7753  0.3921
 5636TIP3   OH238542   3.503   6.698   1.003  0.1899  0.3023 -0.5152
 5636TIP3    H138543   3.571   6.728   0.942  1.8720 -1.9346  0.1158
 5636TIP3    H238544   3.500   6.603   0.991 -2.9125  0.3124 -0.5064
 5637TIP3   OH238545   4.296   1.871   6.785  0.4304  0.8133  0.4017
 5637TIP3    H138546   4.349   1.794   6.763  0.6454  1.6702 -2.3393
 5637TIP3    H238547   4.357   1.929   6.831  0.9236  0.3579  0.3386
 5638TIP3   OH238548   3.588   3.219   8.533  0.3490  0.5996 -0.4106
 5638TIP3    H138549   3.499   3.220   8.568  0.2918 -1.6034 -0.4056
 5638TIP3    H238550   3.640   3.174   8.599  1.1034  0.2165 -1.2468
 5639TIP3   OH238551   0.242   5.675   2.609 -0.4992  0.2361  0.6024
 5639TIP3    H138552   0.177   5.744   2.599  0.1729  0.7385 -0.4689
 5639TIP3    H238553   0.276   5.687   2.698 -1.4452  0.3200  0.9711
 5640TIP3   OH238554   3.778   5.025   2.095 -0.0836  0.1358  0.4724
 5640TIP3    H138555   3.838   5.089   2.133  1.4308 -0.0710 -1.4228
 5640TIP3    H238556   3.712   5.011   2.163  0.3156  2.6388  1.4786
 5641TIP3   OH238557   4.610   1.342   1.232 -0.0416  0.1138 -0.0101
 5641TIP3    H138558   4.652   1.427   1.236  0.0402  0.1775 -1.6198
 5641TIP3    H238559   4.580   1.334   1.141 -3.0355 -0.1516  0.8751
 5642TIP3   OH238560   5.996   0.634   7.220 -0.2404  0.0994 -0.4016
 5642TIP3    H138561   6.039   0.719   7.224  1.3357 -0.7065  1.3603
 5642TIP3    H238562   5.956   0.623   7.306  0.2933 -1.2600 -0.2995
 5643TIP3   OH238563   1.019   6.118   7.869  0.3953  0.4923  0.5204
 5643TIP3    H138564   0.996   6.092   7.780 -0.2889  1.2859  0.4610
 5643TIP3    H238565   1.043   6.211   7.861  1.2611  0.3226  1.0052
 5644TIP3   OH238566   4.698   3.105   0.832 -0.5490 -0.1138  0.4018
 5644TIP3    H138567   4.649   3.164   0.776  1.2077  0.4409 -0.6274
 5644TIP3    H238568   4.649   3.023   0.831 -0.2890 -0.3152 -2.4582
 5645TIP3   OH238569   6.233   3.980   8.049  0.1341 -0.5646  0.6072
 5645TIP3    H138570   6.216   3.907   8.109  0.0516 -0.9279  0.1495
 5645TIP3    H238571   6.212   3.945   7.962 -1.1970  0.4209  0.5116
 5646TIP3   OH238572   4.293   2.953   2.091  0.6879  0.1769  0.0025
 5646TIP3    H138573   4.246   2.961   2.008 -0.0479  0.6339  0.4548
 5646TIP3    H238574   4.328   2.864   2.090 -0.3042 -0.2187 -0.2909
 5647TIP3   OH238575   4.489   0.067   7.341  0.1910  1.0199  0.3858
 5647TIP3    H138576   4.552   0.090   7.273 -0.6647  0.4232 -0.6534
 5647TIP3    H238577   4.408   0.109   7.314 -0.6132 -0.6289  0.0625
 5648TIP3   OH238578   6.010   4.930   2.942 -0.4558 -0.6755 -0.5162
 5648TIP3    H138579   6.039   4.845   2.909  0.7795 -0.7121  0.5592
 5648TIP3    H238580   6.079   4.991   2.914 -1.3207 -0.0125 -1.2640
 5649TIP3   OH238581   3.247   3.613   8.057  0.4190  0.4725 -0.2932
 5649TIP3    H138582   3.340   3.633   8.056  0.5328 -0.0418 -0.2925
 5649TIP3    H238583   3.240   3.532   8.107  0.0982 -0.0698 -1.1743
 5650TIP3   OH238584   3.632   4.832   8.582 -0.0338 -0.1761 -0.1305
 5650TIP3    H138585   3.669   4.919   8.594 -0.1805 -0.1778  0.3511
 5650TIP3    H238586   3.656   4.807   8.493 -1.9971  1.3331 -1.1465
 5651TIP3   OH238587   4.888   4.690   3.230  0.5284 -0.2067 -0.1519
 5651TIP3    H138588   4.930   4.738   3.301  1.3363 -1.0540 -0.0418
 5651TIP3    H238589   4.913   4.599   3.244 -0.6079 -0.6108 -0.6172
 5652TIP3   OH238590   1.013   5.808   8.507 -0.1117  0.4673 -0.0118
 5652TIP3    H138591   1.003   5.769   8.420 -0.3735 -0.7604  0.5449
 5652TIP3    H238592   1.102   5.843   8.508 -0.1752  0.6700 -0.8382
 5653TIP3   OH238593   1.665   6.561   8.146  0.1799  0.0099 -0.1198
 5653TIP3    H138594   1.599   6.530   8.084  0.3314  0.2107 -0.3835
 5653TIP3    H238595   1.650   6.655   8.152  0.6768  0.1173 -0.4689
 5654TIP3   OH238596   3.938   0.796   1.473  0.0140 -0.3441 -0.1368
 5654TIP3    H138597   4.019   0.766   1.514 -0.2418 -0.5965  0.1869
 5654TIP3    H238598   3.931   0.888   1.498 -1.0526 -0.9245  1.8939
 5655TIP3   OH238599   0.997   2.043   1.982 -0.3034 -0.2087 -0.2940
 5655TIP3    H138600   0.989   2.131   1.946  0.6453 -0.3849 -0.9868
 5655TIP3    H238601   1.040   2.056   2.067 -0.1648  0.0053 -0.3952
 5656TIP3   OH238602   4.103   3.711   2.796 -0.2224 -0.4990  0.1362
 5656TIP3    H138603   4.041   3.681   2.863 -2.1506  0.4101 -1.1649
 5656TIP3    H238604   4.184   3.726   2.845 -1.2273 -0.9271  2.0630
 5657TIP3   OH238605   3.246   1.295   0.002 -0.6453  0.3389  0.3146
 5657TIP3    H138606   3.306   1.230  -0.035 -1.6601  0.1090 -0.9597
 5657TIP3    H238607   3.288   1.379  -0.017  0.0534  0.1347  0.8712
 5658TIP3   OH238608   4.718   3.804   8.480  0.1466  0.1590  0.0595
 5658TIP3    H138609   4.710   3.714   8.449  0.1536  0.0477  0.3724
 5658TIP3    H238610   4.650   3.852   8.433  2.1607  0.6775 -2.5148
 5659TIP3   OH238611   6.532   6.626   6.865 -0.7634  0.7001 -0.4581
 5659TIP3    H138612   6.627   6.630   6.873 -0.7026 -2.3547  2.8131
 5659TIP3    H238613   6.514   6.538   6.832 -2.4902  1.3751 -1.4827
 5660TIP3   OH238614   2.122   4.086   1.287  0.1228 -0.5312 -0.1997
 5660TIP3    H138615   2.196   4.077   1.227  1.9638 -1.1149  2.0070
 5660TIP3    H238616   2.097   4.178   1.282 -0.0598 -0.6523 -2.1133
 5661TIP3   OH238617   0.035   5.071   8.731  0.1999 -0.2881 -0.3038
 5661TIP3    H138618  -0.024   5.095   8.803  4.2070  1.1659  2.9097
 5661TIP3    H238619   0.074   4.988   8.759 -1.4008 -2.1942 -3.2465
 5662TIP3   OH238620   6.820   3.131   8.535 -0.0286  0.1373  0.4228
 5662TIP3    H138621   6.879   3.174   8.596 -0.2246 -1.5752  1.8891
 5662TIP3    H238622   6.860   3.145   8.449  0.4927  2.2043  0.9397
 5663TIP3   OH238623   6.549   2.826   1.671 -0.1340 -0.0035  0.0240
 5663TIP3    H138624   6.569   2.901   1.728  1.7295  0.1089 -0.7049
 5663TIP3    H238625   6.615   2.761   1.693  0.9460  0.2178 -2.2805
 5664TIP3   OH238626   3.228   2.374   2.320 -0.2133 -0.2560  0.3481
 5664TIP3    H138627   3.141   2.414   2.319 -0.3220 -0.1713  3.4907
 5664TIP3    H238628   3.270   2.409   2.399  2.0540 -1.6223 -0.1481
 5665TIP3   OH238629   2.276   6.359   8.414  0.3091  0.3096 -0.4065
 5665TIP3    H138630   2.276   6.410   8.333 -0.1074  0.0161 -0.5952
 5665TIP3    H238631   2.328   6.411   8.475  0.7864  0.4477 -0.9145
 5666TIP3   OH238632   3.472   5.461   1.918  0.3691 -0.2258  0.0855
 5666TIP3    H138633   3.535   5.429   1.853  0.9862 -0.8730  0.9906
 5666TIP3    H238634   3.469   5.556   1.904 -0.0918 -0.4266 -1.3905
 5667TIP3   OH238635   5.449   1.924   0.823 -0.5497 -0.7086  0.1671
 5667TIP3    H138636   5.436   1.915   0.917 -0.5034 -0.5281  0.1895
 5667TIP3    H238637   5.363   1.907   0.785 -0.7310 -0.0683  0.2830
 5668TIP3   OH238638   1.610   6.331   2.091  0.2678  0.5826  0.1856
 5668TIP3    H138639   1.568   6.296   2.012  2.1125  1.1899 -1.1370
 5668TIP3    H238640   1.571   6.418   2.103 -0.5753  0.1765  0.4077
 5669TIP3   OH238641   2.754   5.415   6.978 -0.3970 -0.5186 -0.0098
 5669TIP3    H138642   2.798   5.463   7.048 -0.1298  0.1446 -0.6198
 5669TIP3    H238643   2.736   5.329   7.015 -1.0255  0.0934  1.1607
 5670TIP3   OH238644   1.806   4.663   0.267 -0.3337  0.8413  0.3031
 5670TIP3    H138645   1.796   4.572   0.238  2.8451  0.0537  1.2872
 5670TIP3    H238646   1.717   4.697   0.269 -1.5143 -1.7478 -1.6181
 5671TIP3   OH238647   1.070   1.520   1.753  0.2100 -0.0929 -0.2142
 5671TIP3    H138648   1.048   1.505   1.845 -0.1804  0.5199 -0.1979
 5671TIP3    H238649   1.119   1.602   1.753  1.2734 -0.7154 -0.4247
 5672TIP3   OH238650   0.912   1.102   7.232 -0.4199  0.3626  0.1327
 5672TIP3    H138651   0.952   1.184   7.203  1.8625 -1.2476 -1.6972
 5672TIP3    H238652   0.857   1.075   7.158 -1.5910  0.4482  0.9394
 5673TIP3   OH238653   3.268   2.085   2.180 -0.1369 -0.5704 -0.3640
 5673TIP3    H138654   3.330   2.128   2.120  0.7423 -0.1484  0.8036
 5673TIP3    H238655   3.322   2.061   2.256 -1.7126  1.3070  1.4369
 5674TIP3   OH238656   4.711   1.250   7.661  0.0951 -0.2435  0.0974
 5674TIP3    H138657   4.677   1.172   7.705  0.5850  0.1053  1.1339
 5674TIP3    H238658   4.655   1.321   7.692  0.0399 -0.0882 -0.3577
 5675TIP3   OH238659   1.056   2.927   7.058  0.1275 -0.8123 -0.1839
 5675TIP3    H138660   1.092   2.993   7.118 -0.7455  0.3571 -0.8910
 5675TIP3    H238661   0.973   2.901   7.097  0.3156 -1.2599 -0.0754
 5676TIP3   OH238662   3.224   0.804   8.564 -0.1065 -0.3044 -0.3281
 5676TIP3    H138663   3.147   0.754   8.590 -0.4089  0.4319  0.2605
 5676TIP3    H238664   3.262   0.833   8.647  1.4404 -1.5656 -0.5713
 5677TIP3   OH238665   0.474   5.511   0.244  0.1913  0.5138 -0.1810
 5677TIP3    H138666   0.420   5.541   0.171 -3.2741 -3.0122  0.6219
 5677TIP3    H238667   0.438   5.554   0.321  0.5902  0.4987  0.0183
 5678TIP3   OH238668   1.592   2.195   8.709  0.6631 -0.1723 -0.1583
 5678TIP3    H138669   1.579   2.288   8.728 -1.2199 -0.2010 -0.9987
 5678TIP3    H238670   1.641   2.195   8.626  2.3118  0.0156  0.7781
 5679TIP3   OH238671   4.653   6.294   0.529  0.0095 -0.4221 -0.1046
 5679TIP3    H138672   4.559   6.277   0.526 -0.0405 -0.8898  2.2199
 5679TIP3    H238673   4.690   6.215   0.569  1.2568  0.2229  0.0457
 5680TIP3   OH238674   0.886   3.358   7.767  0.1317 -0.0946 -0.2233
 5680TIP3    H138675   0.922   3.402   7.845 -0.7624 -0.3986  0.3798
 5680TIP3    H238676   0.848   3.277   7.801 -0.8216  0.0564 -0.8750
 5681TIP3   OH238677   5.113   3.818   8.016 -0.4069 -0.4231 -0.1981
 5681TIP3    H138678   5.074   3.794   8.100 -2.8367  1.9734 -0.5251
 5681TIP3    H238679   5.200   3.853   8.040 -0.6548 -0.7033  1.2027
 5682TIP3   OH238680   1.692   6.369   8.806 -0.0523 -0.6725  0.0355
 5682TIP3    H138681   1.780   6.399   8.827  0.1008 -1.9050  1.3218
 5682TIP3    H238682   1.641   6.450   8.796  1.0736  0.0425 -0.1065
 5683TIP3   OH238683   2.099   5.547   6.924  0.2321  0.0839 -0.0474
 5683TIP3    H138684   2.082   5.517   6.835  0.5084  2.2547 -0.9002
 5683TIP3    H238685   2.013   5.549   6.965 -0.0071 -0.1434 -0.5266
 5684TIP3   OH238686   0.142   2.910   8.454 -0.0327 -0.3221 -0.0477
 5684TIP3    H138687   0.097   2.980   8.501  0.0052 -0.8653  0.8102
 5684TIP3    H238688   0.086   2.833   8.463  0.4430 -0.6821 -0.0622
 5685TIP3   OH238689   3.819   2.871   8.018 -0.6954 -0.5195 -0.2007
 5685TIP3    H138690   3.844   2.804   8.081 -2.6818 -0.7890  0.3675
 5685TIP3    H238691   3.880   2.943   8.033 -0.2904 -1.1133  1.0957
 5686TIP3   OH238692   4.406   6.440   2.793  0.0096 -0.1024  0.0198
 5686TIP3    H138693   4.419   6.418   2.700  1.4722 -1.4627  0.4990
 5686TIP3    H238694   4.363   6.363   2.830 -0.9896  0.6213  0.3989
 5687TIP3   OH238695   6.152   1.331   0.963  0.2935  0.0385  0.1782
 5687TIP3    H138696   6.167   1.304   0.872  0.0182 -2.3466  0.7671
 5687TIP3    H238697   6.238   1.356   0.995  0.7755 -1.0990 -0.1716
 5688TIP3   OH238698   6.387   6.367   1.541 -0.0007 -0.0545 -0.0034
 5688TIP3    H138699   6.475   6.354   1.576 -0.2345 -2.2291 -0.0902
 5688TIP3    H238700   6.400   6.404   1.455  0.8533 -0.4596 -0.0568
 5689TIP3   OH238701   2.281   1.769   0.214 -0.5155  0.1979  0.3339
 5689TIP3    H138702   2.344   1.749   0.282 -0.0881 -0.3236 -0.2025
 5689TIP3    H238703   2.284   1.694   0.155 -0.0897  1.1093 -0.8436
 5690TIP3   OH238704   1.894   5.053   7.599 -0.4058 -0.1335 -0.6082
 5690TIP3    H138705   1.899   5.036   7.505  1.3376  0.9092 -0.7520
 5690TIP3    H238706   1.848   5.137   7.606 -0.9544 -0.4366 -0.4771
 5691TIP3   OH238707   6.696   5.368   1.262  0.5483 -0.3881  0.0166
 5691TIP3    H138708   6.701   5.380   1.167  2.2571 -2.6865 -0.2636
 5691TIP3    H238709   6.741   5.285   1.278 -1.7493 -1.2775  2.5976
 5692TIP3   OH238710   4.333   4.161   2.575  0.2028  0.4873 -0.1969
 5692TIP3    H138711   4.277   4.121   2.642  0.6979 -0.1904 -0.1784
 5692TIP3    H238712   4.337   4.095   2.505  0.2208  0.9186 -0.6047
 5693TIP3   OH238713   6.592   0.671   7.496 -0.0342 -0.2901  0.4459
 5693TIP3    H138714   6.679   0.657   7.534 -1.1490 -3.5462  2.2840
 5693TIP3    H238715   6.596   0.628   7.411  0.6248  1.2923 -0.3673
 5694TIP3   OH238716   3.190   5.654   1.897 -0.4405 -0.3051 -0.1104
 5694TIP3    H138717   3.176   5.693   1.810 -0.5101 -0.0160  0.0299
 5694TIP3    H238718   3.112   5.602   1.912 -1.5944  1.5820  0.8202
 5695TIP3   OH238719   0.093   5.591   0.180  0.3475 -0.0804  0.3288
 5695TIP3    H138720   0.009   5.631   0.156  0.5957 -0.3840 -1.1227
 5695TIP3    H238721   0.155   5.625   0.116  0.9014 -1.4971  0.0841
 5696TIP3   OH238722   5.933   3.719   8.289  0.6306 -0.2772 -1.0080
 5696TIP3    H138723   5.912   3.634   8.327  0.8330 -1.1345 -2.7150
 5696TIP3    H238724   5.909   3.711   8.197  0.1640  1.7037 -1.1135
 5697TIP3   OH238725   1.784   3.581   6.710 -0.0233 -0.1023 -0.1453
 5697TIP3    H138726   1.849   3.647   6.683  0.4660  0.0242  1.2422
 5697TIP3    H238727   1.782   3.518   6.638  0.4768  0.7306 -0.9098
 5698TIP3   OH238728   0.080   4.411   1.317 -0.4389 -0.6793  0.1251
 5698TIP3    H138729   0.031   4.462   1.382 -0.1042  0.8132 -0.7420
 5698TIP3    H238730   0.110   4.334   1.365  1.0691  1.0606  2.1755
 5699TIP3   OH238731   4.738   5.329   0.752  0.1679 -0.2059 -0.5120
 5699TIP3    H138732   4.823   5.333   0.707  0.9868  0.1819  1.0042
 5699TIP3    H238733   4.718   5.235   0.755 -0.1571 -0.2220 -2.0700
 5700TIP3   OH238734   6.483   5.309   1.444 -0.2500 -0.4127  0.2313
 5700TIP3    H138735   6.541   5.340   1.374 -1.7559 -0.6569 -1.1763
 5700TIP3    H238736   6.541   5.297   1.519  1.5516 -0.7094 -1.1339
 5701TIP3   OH238737   6.086   3.707   3.102  0.0950 -0.1728 -0.2059
 5701TIP3    H138738   6.102   3.624   3.059 -1.5541  0.5604 -2.4152
 5701TIP3    H238739   6.165   3.759   3.086 -0.5702  0.1727 -2.7249
 5702TIP3   OH238740   0.490   5.199   6.729  0.4084 -0.4579  0.1275
 5702TIP3    H138741   0.505   5.105   6.742 -0.6619 -0.4053  2.0194
 5702TIP3    H238742   0.432   5.203   6.654 -0.3164 -1.3922  0.6072
 5703TIP3   OH238743   3.240   4.457   7.646 -0.1369 -0.2974  0.3801
 5703TIP3    H138744   3.260   4.482   7.556 -0.6838 -1.3250 -0.0425
 5703TIP3    H238745   3.278   4.369   7.655 -0.4797 -0.3846  0.9979
 5704TIP3   OH238746   6.038   3.334   7.902  0.1916 -0.5645  0.3063
 5704TIP3    H138747   6.026   3.429   7.892  1.4826 -0.1007  2.4147
 5704TIP3    H238748   5.980   3.295   7.837 -2.5474  1.6250  1.2510
 5705TIP3   OH238749   2.771   1.896   1.407  0.4801  0.4609 -0.0085
 5705TIP3    H138750   2.848   1.923   1.456  0.0761  1.7689 -0.0416
 5705TIP3    H238751   2.708   1.868   1.474  1.1579 -1.1516 -0.0153
 5706TIP3   OH238752   1.203   3.266   8.361 -0.1116 -0.1714 -0.0023
 5706TIP3    H138753   1.242   3.267   8.449  0.0210  0.7173 -0.0641
 5706TIP3    H238754   1.230   3.349   8.322  0.1476 -0.7248 -1.0333
 5707TIP3   OH238755   3.651   2.843   1.406  0.1109  0.0692  0.5127
 5707TIP3    H138756   3.643   2.863   1.500 -0.9742  0.1540  0.4095
 5707TIP3    H238757   3.743   2.815   1.396  0.3603  0.4677  1.5154
 5708TIP3   OH238758   5.066   3.484   7.802  0.3169 -0.3678  0.2911
 5708TIP3    H138759   5.019   3.434   7.868 -0.2434 -2.1070 -1.3341
 5708TIP3    H238760   5.021   3.568   7.799 -1.1474 -1.1032  0.5143
 5709TIP3   OH238761   3.788   5.377   2.227  0.2133 -0.3082 -0.1052
 5709TIP3    H138762   3.867   5.403   2.275  0.3703 -1.4309  0.2589
 5709TIP3    H238763   3.767   5.291   2.261 -0.3559 -0.6215 -1.2311
 5710TIP3   OH238764   4.543   5.368   8.464  0.9669 -0.4106 -0.1945
 5710TIP3    H138765   4.569   5.447   8.416 -0.4819 -1.0045 -2.0845
 5710TIP3    H238766   4.565   5.387   8.555  2.0803  1.5469 -0.8193
 5711TIP3   OH238767   1.505   4.249   0.044 -0.1646 -0.1379  0.5523
 5711TIP3    H138768   1.423   4.248  -0.006 -1.2667 -0.3292  2.2642
 5711TIP3    H238769   1.569   4.209  -0.015 -1.8161 -2.1139 -0.0400
 5712TIP3   OH238770   6.216   3.983   0.742 -0.1584  0.2974  0.2003
 5712TIP3    H138771   6.235   4.005   0.833 -1.2474  0.1298  0.4829
 5712TIP3    H238772   6.267   4.046   0.691  2.7352 -1.3862  0.8269
 5713TIP3   OH238773   2.450   0.972   0.179 -0.0384  0.1020  0.2100
 5713TIP3    H138774   2.363   0.952   0.214  0.4584 -0.1864  1.3398
 5713TIP3    H238775   2.457   1.067   0.182 -1.1181  0.2890 -1.9404
 5714TIP3   OH238776   4.286   2.253   8.232  0.2636 -0.4920  0.2488
 5714TIP3    H138777   4.361   2.310   8.246  0.1740 -0.6286  1.4009
 5714TIP3    H238778   4.283   2.240   8.137  0.4343  1.1997 -0.0197
 5715TIP3   OH238779   6.531   0.475   1.496  0.7650  0.2488  0.3748
 5715TIP3    H138780   6.480   0.469   1.577 -0.0891 -1.4116 -0.2341
 5715TIP3    H238781   6.476   0.433   1.430  3.0505 -1.9992 -0.2650
 5716TIP3   OH238782   3.113   5.310   6.606  0.4167 -0.4059 -0.0819
 5716TIP3    H138783   3.207   5.292   6.616  0.3308 -1.3783 -0.8781
 5716TIP3    H238784   3.087   5.258   6.530 -0.6471  0.3225 -0.2277
 5717TIP3   OH238785   2.117   0.916   1.461 -0.1256 -0.2790  0.2848
 5717TIP3    H138786   2.115   0.865   1.542 -1.7831 -0.0307  0.4263
 5717TIP3    H238787   2.057   0.989   1.477  1.4944  1.2398 -0.2474
 5718TIP3   OH238788   6.084   0.818   8.888  0.2213 -0.7176 -0.1595
 5718TIP3    H138789   6.135   0.891   8.853  1.7203 -0.5437  2.1479
 5718TIP3    H238790   6.035   0.785   8.813 -0.0293  2.2155 -1.4604
 5719TIP3   OH238791   0.619   4.391   7.252 -0.0768 -0.7414  0.3589
 5719TIP3    H138792   0.677   4.351   7.317  0.8397 -0.6579 -0.3846
 5719TIP3    H238793   0.652   4.360   7.168 -0.8261 -0.3079 -0.1042
 5720TIP3   OH238794   0.069   5.477   6.836 -0.2553 -0.0434  0.1318
 5720TIP3    H138795   0.138   5.525   6.883 -0.0905 -0.9042  0.7946
 5720TIP3    H238796   0.089   5.385   6.851 -0.8745 -0.3230 -0.6779
 5721TIP3   OH238797   2.163   4.106   8.585  0.3422  0.3845 -0.1947
 5721TIP3    H138798   2.168   4.018   8.547 -1.2431  0.2320 -0.1133
 5721TIP3    H238799   2.216   4.160   8.526  1.5772 -0.6608 -0.0769
 5722TIP3   OH238800   6.510   6.330   7.752 -0.4070  0.0758  0.1531
 5722TIP3    H138801   6.530   6.398   7.816  1.2004 -1.8048  1.7685
 5722TIP3    H238802   6.596   6.303   7.718 -1.2150  2.1045 -4.1603
 5723TIP3   OH238803   0.457   6.191   0.491  0.0481  0.4755  0.3465
 5723TIP3    H138804   0.451   6.120   0.554 -2.3357  0.3320  0.0666
 5723TIP3    H238805   0.436   6.270   0.541 -0.6172  0.5138  0.0309
 5724TIP3   OH238806   3.458   1.021   7.990  0.0781 -0.6657  0.2110
 5724TIP3    H138807   3.532   0.975   8.031 -0.3750 -0.5540  1.1730
 5724TIP3    H238808   3.431   1.086   8.054  0.6041  0.8839 -1.0687
 5725TIP3   OH238809   5.153   5.536   1.996  0.4193 -0.3229 -0.1240
 5725TIP3    H138810   5.113   5.618   2.027 -1.0470 -0.7245 -0.8801
 5725TIP3    H238811   5.098   5.509   1.922  2.0422 -0.9811 -1.1365
 5726TIP3   OH238812   0.165   6.420   1.049  0.0302  0.1216  0.0015
 5726TIP3    H138813   0.133   6.331   1.064 -0.2173  0.0789 -0.7029
 5726TIP3    H238814   0.086   6.474   1.053  0.4035  0.5832  2.2473
 5727TIP3   OH238815   4.256   5.714   8.234  0.6572  0.2513  0.4064
 5727TIP3    H138816   4.312   5.692   8.160 -2.1542  0.3261 -1.9260
 5727TIP3    H238817   4.184   5.651   8.230  0.2765  0.3914  2.9936
 5728TIP3   OH238818   4.472   5.924   1.717  0.3085  0.9548 -0.2460
 5728TIP3    H138819   4.538   5.963   1.774  0.9555 -0.1733 -0.1853
 5728TIP3    H238820   4.431   5.856   1.772  0.8100 -0.0137 -1.0457
 5729TIP3   OH238821   4.890   1.399   1.121 -0.4176 -0.0942 -0.6486
 5729TIP3    H138822   4.933   1.400   1.036  1.2805 -1.0129  0.1350
 5729TIP3    H238823   4.870   1.491   1.139  0.3930  0.2530 -1.4620
 5730TIP3   OH238824   2.643   3.588   8.160 -0.1806  0.4265  0.0237
 5730TIP3    H138825   2.708   3.547   8.103 -0.0722 -1.0318  1.1487
 5730TIP3    H238826   2.695   3.643   8.219 -0.0671  0.0756  0.2510
 5731TIP3   OH238827   2.207   2.046   7.416 -1.0062  0.2090  0.0723
 5731TIP3    H138828   2.122   2.089   7.409  0.2127  2.6151 -1.6441
 5731TIP3    H238829   2.197   1.964   7.368 -2.2413  0.6986 -0.5440
 5732TIP3   OH238830   6.737   0.142   6.605 -0.2150  0.0440 -0.0897
 5732TIP3    H138831   6.700   0.186   6.529 -0.6567 -1.3678 -0.7356
 5732TIP3    H238832   6.670   0.150   6.673 -0.7075 -0.4409 -0.5092
 5733TIP3   OH238833   5.000   4.284   1.344  0.2434 -0.0858  0.0532
 5733TIP3    H138834   5.083   4.236   1.340 -0.2570 -0.9226 -2.3697
 5733TIP3    H238835   4.934   4.215   1.350 -0.3434  0.5242  0.7766
 5734TIP3   OH238836   2.918   2.232   7.649 -0.2957  0.5154  0.2760
 5734TIP3    H138837   3.004   2.225   7.690  0.1528  0.7815 -0.5893
 5734TIP3    H238838   2.935   2.278   7.567 -0.9523 -1.0578 -0.7930
 5735TIP3   OH238839   3.503   5.719   8.088 -0.1890 -0.3257  0.5076
 5735TIP3    H138840   3.583   5.668   8.078 -0.6952 -1.3658  1.4972
 5735TIP3    H238841   3.491   5.762   8.003  0.1119 -2.0824 -0.4778
 5736TIP3   OH238842   0.582   6.563   7.724 -0.1150 -0.4857  0.1512
 5736TIP3    H138843   0.630   6.502   7.668  2.8220  1.5580  0.2280
 5736TIP3    H238844   0.632   6.566   7.806 -0.3646  1.6558  0.2987
 5737TIP3   OH238845   4.647   1.031   8.779  0.1045 -0.1293 -0.1401
 5737TIP3    H138846   4.610   0.945   8.798  1.4279 -0.3234  1.8713
 5737TIP3    H238847   4.741   1.015   8.769  0.4920  1.1580  1.1171
 5738TIP3   OH238848   3.194   3.933   2.289  0.2686  0.4224 -0.0933
 5738TIP3    H138849   3.219   3.966   2.203  0.1061  0.4258 -0.1392
 5738TIP3    H238850   3.144   4.005   2.328  1.9720  1.1977  0.7715
 5739TIP3   OH238851   5.235   3.136   0.258  0.6313  0.1872 -0.4745
 5739TIP3    H138852   5.327   3.155   0.278  0.8815 -0.3790 -1.0402
 5739TIP3    H238853   5.238   3.093   0.172 -0.3680  2.3125 -1.6772
 5740TIP3   OH238854   4.277   2.105   1.696 -0.0257 -0.3558  0.5728
 5740TIP3    H138855   4.223   2.029   1.674 -0.0996 -0.1011 -0.1388
 5740TIP3    H238856   4.289   2.151   1.614 -1.1265  1.1506  1.2074
 5741TIP3   OH238857   4.622   6.024   0.093  0.2327 -0.1238 -0.0522
 5741TIP3    H138858   4.565   6.051   0.164 -0.7707 -0.0818 -0.8519
 5741TIP3    H238859   4.595   6.078   0.019  2.3699  1.0361 -0.0610
 5742TIP3   OH238860   0.015   3.375   1.514  0.6344 -0.0134  0.0303
 5742TIP3    H138861  -0.046   3.303   1.497  1.0095 -1.0793  2.6864
 5742TIP3    H238862   0.086   3.361   1.453  0.0190 -1.0544 -0.4757
 5743TIP3   OH238863   3.206   1.340   1.511  0.2583 -0.0053 -0.5367
 5743TIP3    H138864   3.185   1.386   1.593  0.4022 -0.4320 -0.2587
 5743TIP3    H238865   3.126   1.291   1.490  0.0593  0.4693 -0.9034
 5744TIP3   OH238866   4.091   3.877   1.071  0.3645 -0.1899 -0.5563
 5744TIP3    H138867   4.178   3.846   1.046  1.0118  0.2303  1.0666
 5744TIP3    H238868   4.040   3.797   1.084  0.5713 -0.4454 -1.2661
 5745TIP3   OH238869   2.506   1.310   2.098 -0.3742  0.1221 -0.0719
 5745TIP3    H138870   2.471   1.396   2.075  0.0496  0.1718 -0.5615
 5745TIP3    H238871   2.472   1.292   2.185 -1.4947  0.2344 -0.4687
 5746TIP3   OH238872   0.173   0.581   7.711 -0.2042  0.2654  0.2690
 5746TIP3    H138873   0.126   0.602   7.630 -1.1787  2.7088  1.3700
 5746TIP3    H238874   0.262   0.560   7.682 -0.0570  2.6991 -1.3767
 5747TIP3   OH238875   6.225   2.068   6.946  0.3043  0.3962  0.3562
 5747TIP3    H138876   6.266   1.981   6.940  1.4552  1.0434 -2.3052
 5747TIP3    H238877   6.286   2.127   6.901 -0.0190  2.8123  2.7998
 5748TIP3   OH238878   3.289   2.471   0.423  0.1258  0.1567 -0.4649
 5748TIP3    H138879   3.341   2.421   0.486  1.0953  4.2076  2.3685
 5748TIP3    H238880   3.198   2.454   0.449  0.4668  0.5841  1.0945
 5749TIP3   OH238881   2.711   1.358   2.825 -0.8940  0.3346 -0.6505
 5749TIP3    H138882   2.684   1.273   2.857 -3.5361  0.7111 -1.6846
 5749TIP3    H238883   2.640   1.387   2.767  0.5277  2.6470 -1.4020
 5750TIP3   OH238884   0.726   0.790   1.872 -0.4041 -0.4535  0.4513
 5750TIP3    H138885   0.670   0.822   1.943  0.1845  1.7312  0.0212
 5750TIP3    H238886   0.790   0.860   1.859 -0.2751 -0.9384 -1.9963
 5751TIP3   OH238887   0.576   6.643   8.629 -0.5949 -0.7206 -0.5903
 5751TIP3    H138888   0.606   6.553   8.640  1.1059 -0.0623  0.6327
 5751TIP3    H238889   0.592   6.664   8.538  2.9197 -0.3992 -0.0101
 5752TIP3   OH238890   4.151   6.794   8.223 -0.0541 -0.1718 -0.7787
 5752TIP3    H138891   4.060   6.798   8.192  0.5123  3.6402 -2.5832
 5752TIP3    H238892   4.203   6.801   8.143  1.7650  0.0035  0.3671
 5753TIP3   OH238893   3.816   1.995   0.705 -0.6338 -0.3040  0.0326
 5753TIP3    H138894   3.819   1.970   0.797 -0.7055 -0.5831 -0.0405
 5753TIP3    H238895   3.882   1.941   0.663 -0.8638 -0.4505 -0.1447
 5754TIP3   OH238896   0.977   5.735   0.241  0.1135 -0.3649 -0.3302
 5754TIP3    H138897   0.928   5.711   0.319  0.1539  0.5183 -0.0212
 5754TIP3    H238898   0.913   5.733   0.170 -0.3899  0.7749  0.0722
 5755TIP3   OH238899   1.109   0.112   8.670  0.2309  0.0958 -0.4657
 5755TIP3    H138900   1.139   0.169   8.741 -1.3281 -0.4057  0.6405
 5755TIP3    H238901   1.067   0.171   8.608 -0.9086  0.2390  0.4205
 5756TIP3   OH238902   5.515   0.678   2.177  0.2657 -0.2702  0.1785
 5756TIP3    H138903   5.453   0.608   2.156  1.4804 -0.9508 -1.4437
 5756TIP3    H238904   5.496   0.747   2.114 -0.0246  0.2890  0.8701
 5757TIP3   OH238905   5.499   2.088   6.865  0.2927  0.8484 -0.2130
 5757TIP3    H138906   5.437   2.159   6.877 -0.8069 -0.2823  1.1891
 5757TIP3    H238907   5.459   2.032   6.798 -1.1825 -0.7962  1.9008
 5758TIP3   OH238908   2.106   3.002   1.307 -0.1702  0.1541 -0.0138
 5758TIP3    H138909   2.072   2.923   1.351  1.1140 -1.2812 -1.4996
 5758TIP3    H238910   2.190   3.019   1.350  0.7932 -0.8848 -1.4013
 5759TIP3   OH238911   5.616   5.365   8.288 -0.5038  0.5037  0.2207
 5759TIP3    H138912   5.580   5.282   8.321  4.4242 -2.3374 -0.5318
 5759TIP3    H238913   5.595   5.364   8.195 -0.7130  0.2628  0.2681
 5760TIP3   OH238914   4.001   3.525   1.660 -0.2496 -0.5741 -0.1168
 5760TIP3    H138915   4.074   3.480   1.619 -0.4411 -2.1413  1.1958
 5760TIP3    H238916   3.948   3.456   1.700 -0.1366  0.8040  2.6550
 5761TIP3   OH238917   6.444   0.151   8.838 -0.1242 -0.1861  0.5456
 5761TIP3    H138918   6.433   0.195   8.754  0.7177 -2.5718 -0.9349
 5761TIP3    H238919   6.356   0.141   8.872 -0.4212  1.4743  0.3248
 5762TIP3   OH238920   3.804   6.221   1.457  0.1008  0.0996  0.8218
 5762TIP3    H138921   3.881   6.275   1.444 -2.4275  3.2601 -3.7220
 5762TIP3    H238922   3.810   6.153   1.390 -1.1111  0.5319  0.2445
 5763TIP3   OH238923   5.507   5.159   2.490 -0.3077 -0.2380 -0.0966
 5763TIP3    H138924   5.532   5.159   2.398 -0.2657 -0.9075 -0.0910
 5763TIP3    H238925   5.489   5.251   2.510  0.5656  0.0417 -0.5279
 5764TIP3   OH238926   6.569   2.682   7.259 -0.4577  0.2582  0.4988
 5764TIP3    H138927   6.635   2.728   7.207 -2.4508  2.4155 -0.3287
 5764TIP3    H238928   6.520   2.629   7.196 -0.7112  0.1675  0.7665
 5765TIP3   OH238929   2.751   3.053   2.325  0.0968 -0.1290  0.4102
 5765TIP3    H138930   2.708   3.137   2.343  1.3683  0.5851  0.2097
 5765TIP3    H238931   2.788   3.026   2.408  0.2406 -0.1764  0.3313
 5766TIP3   OH238932   3.771   3.913   2.980  0.1330  0.0161  0.3206
 5766TIP3    H138933   3.716   3.990   2.968 -1.8688 -1.3018  0.5255
 5766TIP3    H238934   3.727   3.844   2.930  1.8320 -1.0276  0.1752
 5767TIP3   OH238935   0.064   4.348   8.391  0.1558 -0.2267 -0.2226
 5767TIP3    H138936   0.105   4.281   8.336  0.4463 -2.0960  2.0808
 5767TIP3    H238937  -0.029   4.343   8.370  0.2915 -0.7242 -0.7265
 5768TIP3   OH238938   6.339   5.928   1.594  0.2337 -0.0917  0.1157
 5768TIP3    H138939   6.304   5.950   1.680 -1.7375  0.7254 -0.8273
 5768TIP3    H238940   6.330   6.008   1.543  0.2734 -0.8807 -1.1786
 5769TIP3   OH238941   4.057   0.969   6.750  0.0120  0.3822 -0.1788
 5769TIP3    H138942   3.965   0.962   6.774 -0.4810 -1.9241 -2.3034
 5769TIP3    H238943   4.096   1.025   6.817 -2.7691  0.8478  1.1638
 5770TIP3   OH238944   5.814   1.096   8.051  0.2756  0.0092  0.1803
 5770TIP3    H138945   5.770   1.084   8.135 -1.6728 -0.3268 -0.8108
 5770TIP3    H238946   5.853   1.011   8.031 -2.3896 -1.0896 -0.8538
 5771TIP3   OH238947   2.754   3.621   6.630  0.4090 -0.2506  0.5333
 5771TIP3    H138948   2.847   3.630   6.652  1.1343  0.1705 -2.2566
 5771TIP3    H238949   2.731   3.704   6.588 -0.2556 -1.4665 -1.7126
 5772TIP3   OH238950   1.745   5.230   1.865 -0.1615  0.0689 -0.1438
 5772TIP3    H138951   1.714   5.155   1.915  0.5250  0.2860  0.6130
 5772TIP3    H238952   1.690   5.229   1.786 -0.4710 -0.9510  0.0600
 5773TIP3   OH238953   0.766   1.919   1.246 -0.2703  0.3925  0.2349
 5773TIP3    H138954   0.853   1.956   1.257  0.8434 -1.6606 -0.9849
 5773TIP3    H238955   0.742   1.943   1.156 -0.8735  0.7324  0.4816
 5774TIP3   OH238956   2.492   3.935   8.100 -0.3556 -0.3871 -0.0832
 5774TIP3    H138957   2.559   3.915   8.166 -0.3844 -1.8517 -0.4523
 5774TIP3    H238958   2.489   3.856   8.045 -0.3081  0.7807 -1.8640
 5775TIP3   OH238959   1.052   5.352   8.122  0.1989 -0.4857  0.7052
 5775TIP3    H138960   1.011   5.347   8.035  0.9724 -1.4051  0.3801
 5775TIP3    H238961   1.128   5.409   8.110  0.2614 -0.5502  0.7907
 5776TIP3   OH238962   2.828   3.188   1.489 -0.2322 -0.5002 -0.0390
 5776TIP3    H138963   2.826   3.096   1.517 -0.4740 -0.5771 -0.3109
 5776TIP3    H238964   2.920   3.205   1.471 -0.3398 -1.0728 -1.2525
 5777TIP3   OH238965   5.330   4.841   0.769  0.2617  0.6721 -0.1101
 5777TIP3    H138966   5.410   4.893   0.783  0.1544  0.8217 -0.0553
 5777TIP3    H238967   5.350   4.756   0.808  1.2544 -0.0765 -2.0915
 5778TIP3   OH238968   2.340   3.088   8.211  0.2343 -0.6475 -0.7063
 5778TIP3    H138969   2.266   3.119   8.159  0.7953 -0.1942 -1.2505
 5778TIP3    H238970   2.408   3.068   8.146  1.5603  1.5314 -0.0855
 5779TIP3   OH238971   1.710   4.456   1.717 -0.3183 -0.6503 -0.8743
 5779TIP3    H138972   1.643   4.490   1.658 -0.1822 -0.1887 -0.7686
 5779TIP3    H238973   1.733   4.531   1.773  0.2255 -0.8259 -0.8593
 5780TIP3   OH238974   5.715   3.209   1.934 -0.7758  0.7054 -0.2292
 5780TIP3    H138975   5.778   3.166   1.877 -1.5786  1.0120 -1.3745
 5780TIP3    H238976   5.760   3.289   1.963 -1.6465  2.5314 -3.4834
 5781TIP3   OH238977   3.996   3.608   0.072 -0.2923 -0.2487 -0.0258
 5781TIP3    H138978   4.018   3.522   0.109  1.1921  0.8984  2.0014
 5781TIP3    H238979   4.030   3.671   0.137 -0.4516  1.8898 -1.8901
 5782TIP3   OH238980   4.649   2.996   2.183 -0.3262  0.3906 -0.0502
 5782TIP3    H138981   4.641   2.911   2.227 -0.3757 -0.2605 -1.2740
 5782TIP3    H238982   4.736   3.028   2.209 -0.3974  0.0851  0.6011
 5783TIP3   OH238983   0.479   5.165   1.264 -0.2677 -0.1586 -0.2701
 5783TIP3    H138984   0.542   5.214   1.317 -0.5607 -0.2491  0.1683
 5783TIP3    H238985   0.511   5.075   1.264 -0.8230 -0.3683  0.6302
 5784TIP3   OH238986   4.466   4.914   8.853  0.4738 -0.4412  0.0113
 5784TIP3    H138987   4.526   4.976   8.893  0.7209  0.0025 -1.0195
 5784TIP3    H238988   4.476   4.834   8.905  1.1841 -0.0559  0.4855
 5785TIP3   OH238989   2.476   2.361   6.868  0.6290 -0.0800  0.3613
 5785TIP3    H138990   2.444   2.420   6.936 -2.4432 -0.8301 -0.2872
 5785TIP3    H238991   2.512   2.286   6.916  0.5389  0.3780  1.1644
 5786TIP3   OH238992   6.373   4.780   7.342  0.2214  0.2483  0.6864
 5786TIP3    H138993   6.413   4.794   7.428 -0.0100  0.3234  0.7830
 5786TIP3    H238994   6.375   4.685   7.330  0.9515  0.2854  0.4361
 5787TIP3   OH238995   0.566   2.802   8.680  0.2201  0.2943  0.4119
 5787TIP3    H138996   0.531   2.784   8.592  0.9413 -0.5863  0.2920
 5787TIP3    H238997   0.618   2.724   8.701  1.5321  1.2634  0.8742
 5788TIP3   OH238998   3.802   1.163   0.719  0.2394 -0.3251 -0.1928
 5788TIP3    H138999   3.729   1.159   0.782 -1.6283  0.8662 -2.1506
 5788TIP3    H239000   3.857   1.087   0.742 -1.6190 -1.3160  1.3434
 5789TIP3   OH239001   1.025   1.654   0.289 -0.4439 -0.0689 -0.0429
 5789TIP3    H139002   1.110   1.610   0.295 -0.9536 -1.0914 -0.1190
 5789TIP3    H239003   0.984   1.637   0.374 -0.3440  0.9520  0.2326
 5790TIP3   OH239004   0.722   1.961   7.403  0.0438 -0.0271 -0.4763
 5790TIP3    H139005   0.761   2.012   7.332 -1.1802  0.5816 -0.7449
 5790TIP3    H239006   0.720   1.871   7.370  0.9586 -0.0228 -0.5562
 5791TIP3   OH239007   5.404   5.154   0.327 -0.0554 -0.1615  0.1653
 5791TIP3    H139008   5.465   5.088   0.294  1.2538  0.1980  1.7489
 5791TIP3    H239009   5.411   5.147   0.423 -0.2455  1.9389  0.3652
 5792TIP3   OH239010   6.535   0.796   7.936 -0.5547  0.0202  0.0681
 5792TIP3    H139011   6.621   0.818   7.901  0.0327 -0.7903  0.9419
 5792TIP3    H239012   6.513   0.869   7.994 -0.3986  0.1773 -0.0727
 5793TIP3   OH239013   4.147   4.522   8.580 -0.0162 -0.0269 -0.1008
 5793TIP3    H139014   4.170   4.535   8.672 -0.8445  1.9461 -0.1286
 5793TIP3    H239015   4.051   4.524   8.579 -0.0476 -0.8606 -0.9277
 5794TIP3   OH239016   2.813   0.536   8.224 -0.1019  0.2665  0.4031
 5794TIP3    H139017   2.841   0.445   8.233 -0.1898  0.3149  1.3005
 5794TIP3    H239018   2.851   0.565   8.142  1.9916  0.1522  1.2588
 5795TIP3   OH239019   3.671   5.369   1.336 -0.2050 -0.2448  0.1888
 5795TIP3    H139020   3.648   5.369   1.428  0.5786 -0.6162  0.3949
 5795TIP3    H239021   3.766   5.357   1.335 -0.1654  0.0602 -0.6551
 5796TIP3   OH239022   1.738   4.968   1.967  0.2953  0.0818  0.1057
 5796TIP3    H139023   1.770   4.890   2.013 -0.5310  0.2215  0.9479
 5796TIP3    H239024   1.675   5.007   2.027 -0.0410  0.8562 -0.7277
 5797TIP3   OH239025   1.897   0.738   0.651  0.1851  0.3854 -0.3793
 5797TIP3    H139026   1.843   0.816   0.667  0.5919  0.9298 -1.5733
 5797TIP3    H239027   1.946   0.726   0.732 -0.9057  0.5304  0.3294
 5798TIP3   OH239028   0.917   2.083   8.191 -0.0640  0.2688  0.0725
 5798TIP3    H139029   0.987   2.145   8.208 -1.4416  1.3072  2.4321
 5798TIP3    H239030   0.874   2.115   8.111  0.6923  0.9612 -0.0600
 5799TIP3   OH239031   3.819   0.806   0.122  0.6777  0.1418  0.3203
 5799TIP3    H139032   3.768   0.867   0.176  2.0780  0.6846  1.0721
 5799TIP3    H239033   3.811   0.841   0.034  0.2116  0.5346  0.5106
 5800TIP3   OH239034   3.473   4.754   0.081  0.2426 -0.2641  0.2032
 5800TIP3    H139035   3.444   4.673   0.122 -0.2941  0.1301  0.6240
 5800TIP3    H239036   3.550   4.730   0.030 -0.3125 -1.1727 -0.2341
 5801TIP3   OH239037   5.500   3.214   0.326 -0.2326  0.1361  0.8911
 5801TIP3    H139038   5.556   3.196   0.251 -1.6824  2.0004 -0.7586
 5801TIP3    H239039   5.510   3.138   0.383  1.8396 -0.7944 -0.6041
 5802TIP3   OH239040   1.752   6.810   1.623 -0.0293  0.0896 -0.5636
 5802TIP3    H139041   1.809   6.806   1.700  0.8149  1.4974 -1.0723
 5802TIP3    H239042   1.690   6.880   1.644  1.4357  1.8866 -1.8992
 5803TIP3   OH239043   1.142   6.121   0.820 -0.2298  0.4541 -0.1895
 5803TIP3    H139044   1.187   6.039   0.800  0.1451  0.1681  1.7214
 5803TIP3    H239045   1.111   6.152   0.734 -1.3588 -2.2198 -0.8424
 5804TIP3   OH239046   5.043   6.256   1.750  0.1643 -0.3081 -0.4059
 5804TIP3    H139047   5.006   6.171   1.776  0.0912  0.0460  0.7419
 5804TIP3    H239048   5.107   6.275   1.819 -0.9918  1.3124  0.2680
 5805TIP3   OH239049   5.849   5.971   7.226  0.1923  0.2863  0.3397
 5805TIP3    H139050   5.849   6.009   7.314 -0.5288 -0.7567  0.8206
 5805TIP3    H239051   5.766   6.000   7.188  0.9042  1.4835 -0.3653
 5806TIP3   OH239052   3.299   2.547   0.143  0.3294  1.1521 -0.6557
 5806TIP3    H139053   3.290   2.520   0.234  0.8395 -4.7886 -1.9421
 5806TIP3    H239054   3.213   2.530   0.104  1.0743 -0.1133 -1.8786
 5807TIP3   OH239055   5.863   3.858   0.026 -0.5587 -0.5847  0.0285
 5807TIP3    H139056   5.803   3.881  -0.045 -0.0361  1.3305  0.1644
 5807TIP3    H239057   5.948   3.851  -0.015 -0.3644 -0.1257  0.3388
 5808TIP3   OH239058   6.079   5.638   0.114  0.2503 -0.1336 -0.2042
 5808TIP3    H139059   5.998   5.686   0.129  0.5536  0.4405 -0.3619
 5808TIP3    H239060   6.065   5.590   0.033 -0.2179 -0.6779  0.1898
 5809TIP3   OH239061   1.171   4.492   7.223 -0.0814 -0.5196 -0.2581
 5809TIP3    H139062   1.132   4.446   7.149 -0.6009 -0.4107 -0.0584
 5809TIP3    H239063   1.096   4.525   7.272  0.1814 -1.8556  1.1333
 5810TIP3   OH239064   5.511   0.037   7.608  0.3575 -0.1438  0.4472
 5810TIP3    H139065   5.495  -0.046   7.565  1.4928  0.9536 -2.3674
 5810TIP3    H239066   5.427   0.084   7.602  0.3185 -0.2650 -0.0313
 5811TIP3   OH239067   2.015   1.316   7.376 -0.7779 -0.4549  0.4176
 5811TIP3    H139068   2.071   1.315   7.298 -0.2595 -0.6595  0.7948
 5811TIP3    H239069   2.053   1.251   7.435 -0.3958  0.6146  1.3809
 5812TIP3   OH239070   4.063   3.624   8.276 -0.4836  0.2652  0.4736
 5812TIP3    H139071   4.076   3.718   8.260  2.2181 -0.2919 -1.2211
 5812TIP3    H239072   4.073   3.583   8.190 -1.2937 -1.6271  1.2347
 5813TIP3   OH239073   3.567   1.440   6.954  0.0518  0.1616 -0.1192
 5813TIP3    H139074   3.536   1.486   6.876  1.0297 -0.8384 -1.1285
 5813TIP3    H239075   3.559   1.347   6.931 -0.6330 -0.1759  1.3768
 5814TIP3   OH239076   5.804   5.111   8.028 -0.3044  0.5876 -0.4723
 5814TIP3    H139077   5.843   5.151   7.950 -0.9043  1.1771 -0.4789
 5814TIP3    H239078   5.739   5.174   8.058 -2.3036 -0.9427 -1.3028
 5815TIP3   OH239079   5.307   0.244   2.769 -0.3492 -0.7353  0.0680
 5815TIP3    H139080   5.348   0.282   2.846 -0.2728  1.9057 -1.1611
 5815TIP3    H239081   5.213   0.259   2.781 -0.3104 -0.0078 -0.4882
 5816TIP3   OH239082   3.543   0.057   7.331 -0.1501  0.0943 -0.4989
 5816TIP3    H139083   3.638   0.065   7.343 -0.1934 -1.0338  0.8720
 5816TIP3    H239084   3.507   0.136   7.371  0.0484 -1.1133  2.2604
 5817TIP3   OH239085   1.675   4.336   8.377 -0.3871  0.0847  0.4416
 5817TIP3    H139086   1.701   4.334   8.285  0.9732  0.9559  0.7826
 5817TIP3    H239087   1.579   4.337   8.375 -0.3729  0.5966 -0.9677
 5818TIP3   OH239088   6.761   3.347   8.296 -0.1501 -0.0565 -0.5567
 5818TIP3    H139089   6.759   3.371   8.204  2.0513  2.5746 -0.0481
 5818TIP3    H239090   6.817   3.270   8.300  0.9110  0.6405 -1.3380
 5819TIP3   OH239091   2.574   6.243   1.763  0.2362 -0.0744  0.2819
 5819TIP3    H139092   2.613   6.185   1.697  0.7283  0.3951  0.1539
 5819TIP3    H239093   2.610   6.329   1.743  0.9105 -0.0292  1.5640
 5820TIP3   OH239094   3.969   4.167   0.190  0.0710  0.0567 -0.5465
 5820TIP3    H139095   3.995   4.106   0.121 -0.2858 -0.2918 -0.3785
 5820TIP3    H239096   4.001   4.127   0.271 -1.1421 -0.4826 -0.3152
 5821TIP3   OH239097   4.644   6.316   8.183  0.2177 -0.1435 -0.2655
 5821TIP3    H139098   4.676   6.229   8.207 -1.6939 -0.4288  1.4891
 5821TIP3    H239099   4.579   6.299   8.115  0.9124  0.0859 -1.0055
 5822TIP3   OH239100   4.297   2.902   8.315  0.9550 -0.3917  0.0435
 5822TIP3    H139101   4.258   2.902   8.228 -1.1840 -0.4184  0.9563
 5822TIP3    H239102   4.301   2.809   8.339  1.2924 -0.3648  0.0979
 5823TIP3   OH239103   0.399   3.827   2.612  0.2587  0.0196  0.3704
 5823TIP3    H139104   0.483   3.793   2.641 -0.2627 -2.5547 -0.8490
 5823TIP3    H239105   0.350   3.750   2.583 -1.3936  1.7353 -1.7784
 5824TIP3   OH239106   2.653   5.777   6.448  0.4135 -0.2999 -0.0701
 5824TIP3    H139107   2.672   5.820   6.365 -0.3193  2.3845  1.0764
 5824TIP3    H239108   2.721   5.809   6.508 -0.2945 -0.5435  0.8830
 5825TIP3   OH239109   1.875   3.694   8.573 -0.9703  0.0842 -0.0939
 5825TIP3    H139110   1.835   3.770   8.613  0.0630  3.3300 -4.4888
 5825TIP3    H239111   1.802   3.642   8.540 -1.6953  0.7972  0.3729
 5826TIP3   OH239112   3.682   1.780   8.103 -0.3250  0.3115 -0.1229
 5826TIP3    H139113   3.727   1.796   8.020 -0.9813  0.2651 -0.4944
 5826TIP3    H239114   3.752   1.768   8.166  0.1889  0.7724 -0.5886
 5827TIP3   OH239115   5.360   3.582   7.752  0.5582 -0.0899  0.5078
 5827TIP3    H139116   5.389   3.659   7.703 -0.6118  0.4476  0.6439
 5827TIP3    H239117   5.269   3.569   7.726  0.4280 -0.8067  1.2712
 5828TIP3   OH239118   0.983   0.459   2.098 -0.1965  0.4247  0.3614
 5828TIP3    H139119   1.005   0.552   2.087  1.4770  0.2134  1.5156
 5828TIP3    H239120   0.991   0.421   2.011  0.1004  1.1663  0.0588
 5829TIP3   OH239121   4.325   3.003   1.809 -0.3113  0.1288 -0.5397
 5829TIP3    H139122   4.293   3.090   1.831 -2.3353 -0.5572 -0.5001
 5829TIP3    H239123   4.412   2.998   1.847 -0.3507  1.9488 -0.1377
 5830TIP3   OH239124   3.202   4.999   7.493  0.1748 -0.0410  0.1991
 5830TIP3    H139125   3.175   5.071   7.436  2.3608  0.7374  0.0259
 5830TIP3    H239126   3.243   4.936   7.434  2.0958  0.5868  0.7519
 5831TIP3   OH239127   2.207   1.100   8.124 -0.0050 -0.3287 -0.3502
 5831TIP3    H139128   2.254   1.030   8.169 -0.3937  0.1982  0.9373
 5831TIP3    H239129   2.237   1.181   8.166 -0.0426  0.2427 -1.3727
 5832TIP3   OH239130   4.956   2.314   0.790 -0.0625  0.3692  0.6211
 5832TIP3    H139131   4.929   2.243   0.731  1.9084 -0.3556  0.4963
 5832TIP3    H239132   5.039   2.344   0.753 -1.3768  3.6089 -0.0042
 5833TIP3   OH239133   1.086   0.360   0.408 -0.1448  0.2936 -0.3732
 5833TIP3    H139134   1.010   0.302   0.416  0.7651 -0.8381  0.3541
 5833TIP3    H239135   1.063   0.438   0.459 -1.2271  0.4235 -1.0397
 5834TIP3   OH239136   3.393   3.411   1.933 -0.4550 -0.4698 -0.3599
 5834TIP3    H139137   3.398   3.477   1.864  2.5528 -1.5577 -1.3504
 5834TIP3    H239138   3.302   3.382   1.931 -0.6262 -0.1514 -3.6447
 5835TIP3   OH239139   0.368   4.270   7.265  0.1073  0.4398  0.1557
 5835TIP3    H139140   0.310   4.337   7.231 -0.2190  1.6261  2.7865
 5835TIP3    H239141   0.456   4.307   7.256 -0.0937  1.4484  1.8901
 5836TIP3   OH239142   1.127   1.341   8.203 -0.4190 -0.3327  0.2798
 5836TIP3    H139143   1.187   1.278   8.243 -2.3933 -3.6944 -1.6234
 5836TIP3    H239144   1.049   1.339   8.258 -0.5287  0.4160  0.1556
 5837TIP3   OH239145   4.744   5.672   0.769 -0.0342  0.1955 -0.1277
 5837TIP3    H139146   4.811   5.711   0.713  0.0260 -0.2599 -0.3791
 5837TIP3    H239147   4.662   5.685   0.722 -0.0718  0.3990 -0.0078
 5838TIP3   OH239148   5.634   5.103   1.086  0.6386  0.5296  0.2753
 5838TIP3    H139149   5.561   5.158   1.115 -0.6779 -0.5804 -0.7989
 5838TIP3    H239150   5.615   5.017   1.123  0.5086 -0.1754 -1.3683
 5839TIP3   OH239151   6.820   4.000   8.348 -0.1630 -0.2228  0.2008
 5839TIP3    H139152   6.885   4.066   8.326  0.2132 -1.0413 -1.1912
 5839TIP3    H239153   6.770   4.040   8.420  1.3233  0.7419  0.7511
 5840TIP3   OH239154   1.990   5.053   8.249 -0.1032 -0.0158  0.5153
 5840TIP3    H139155   2.014   5.053   8.342  1.2981  2.9957  0.2518
 5840TIP3    H239156   2.035   5.128   8.212 -1.7600 -0.2828 -2.3506
 5841TIP3   OH239157   6.405   0.966   1.901  0.0810 -0.2350  0.4847
 5841TIP3    H139158   6.352   0.931   1.973  0.9615 -2.4170  0.1570
 5841TIP3    H239159   6.371   1.054   1.887 -2.4676 -1.0032  1.2513
 5842TIP3   OH239160   0.878   4.615   8.851  0.5006 -1.0042  0.2146
 5842TIP3    H139161   0.847   4.592   8.939 -0.1412  1.3588  0.6961
 5842TIP3    H239162   0.799   4.614   8.797  0.5150 -0.3852  0.1712
 5843TIP3   OH239163   2.411   2.134   8.679  0.5197  0.2275  0.4045
 5843TIP3    H139164   2.343   2.079   8.641  0.5072 -0.2189  1.0730
 5843TIP3    H239165   2.485   2.075   8.693 -0.2258 -0.1800  3.1986
 5844TIP3   OH239166   3.317   0.340   2.531 -0.1050 -0.1595  0.4297
 5844TIP3    H139167   3.237   0.392   2.522 -0.1571 -0.3318 -0.1096
 5844TIP3    H239168   3.286   0.255   2.564 -0.1258 -0.1755  0.3686
 5845TIP3   OH239169   0.034   5.350   7.194  0.1009 -0.0114  0.1554
 5845TIP3    H139170  -0.058   5.347   7.168 -0.0866 -0.3620  0.8317
 5845TIP3    H239171   0.064   5.260   7.186  0.1579 -0.0478  0.7035
 5846TIP3   OH239172   1.084   4.691   0.203 -0.2524  0.1171  0.3411
 5846TIP3    H139173   1.079   4.596   0.212 -0.5535  0.0052 -0.8146
 5846TIP3    H239174   1.146   4.704   0.132 -0.7287  0.7581  0.0386
 5847TIP3   OH239175   4.608   5.656   0.998 -0.1153 -0.0113  0.3272
 5847TIP3    H139176   4.660   5.631   1.075  0.2865 -1.5163 -0.3934
 5847TIP3    H239177   4.671   5.695   0.938 -0.0549 -0.6058 -0.0040
 5848TIP3   OH239178   0.853   4.552   6.522  0.1167 -0.0212  0.3151
 5848TIP3    H139179   0.826   4.502   6.599  0.1184 -1.2614 -0.4716
 5848TIP3    H239180   0.774   4.556   6.467  0.1825  0.6436  0.2573
 5849TIP3   OH239181   3.046   5.362   7.909  0.1385  0.2123  0.4370
 5849TIP3    H139182   3.101   5.366   7.831 -1.3212  0.9000 -0.5888
 5849TIP3    H239183   3.031   5.454   7.932  0.0743  0.0172  1.1949
 5850TIP3   OH239184   6.088   0.752   1.178  0.7797 -0.1234 -0.0326
 5850TIP3    H139185   6.113   0.803   1.255  0.4773  1.5204 -0.9735
 5850TIP3    H239186   6.171   0.731   1.135  0.8347  1.5038 -0.7933
 5851TIP3   OH239187   2.645   0.482   0.933  0.4961  0.0236 -0.0908
 5851TIP3    H139188   2.622   0.395   0.965  0.7219  0.1368  0.3960
 5851TIP3    H239189   2.582   0.541   0.976 -1.8522 -0.1894 -2.9321
 5852TIP3   OH239190   3.508   5.238   2.583  0.2138  0.0369 -0.1495
 5852TIP3    H139191   3.476   5.301   2.647 -0.1669  0.6200 -0.9000
 5852TIP3    H239192   3.557   5.174   2.634 -0.7533  0.0520  0.8281
 5853TIP3   OH239193   2.152   0.337   2.363 -0.0366  0.1262 -0.2118
 5853TIP3    H139194   2.070   0.290   2.350 -0.5818  1.0988 -0.3193
 5853TIP3    H239195   2.139   0.388   2.443 -0.0880  1.4019 -0.9981
 5854TIP3   OH239196   4.398   1.757   8.362  0.4391 -0.0826 -0.4030
 5854TIP3    H139197   4.359   1.745   8.275 -0.2547 -0.5261 -0.0412
 5854TIP3    H239198   4.362   1.841   8.393 -0.3299 -0.5385 -0.0290
 5855TIP3   OH239199   5.838   3.292   2.783 -0.0311  0.2015 -0.0410
 5855TIP3    H139200   5.903   3.362   2.776 -0.9167  1.0069 -0.5603
 5855TIP3    H239201   5.835   3.253   2.695 -0.9884  0.8792 -0.3305
 5856TIP3   OH239202   0.144   4.861   0.943 -0.7875 -0.0036 -0.4533
 5856TIP3    H139203   0.104   4.939   0.906 -1.4391 -0.2015 -0.1698
 5856TIP3    H239204   0.205   4.895   1.009  0.6208  0.3678 -1.8728
 5857TIP3   OH239205   2.211   5.563   0.003 -0.1371  0.1154  0.3565
 5857TIP3    H139206   2.151   5.523  -0.060 -1.9344  1.9537  0.7842
 5857TIP3    H239207   2.255   5.489   0.044 -0.6191 -1.2205 -1.4177
 5858TIP3   OH239208   5.828   0.211   2.902 -0.2261  0.4074  0.1907
 5858TIP3    H139209   5.802   0.119   2.896 -0.8243  0.6593 -1.7490
 5858TIP3    H239210   5.921   0.210   2.880  0.3178  0.0742  2.2670
 5859TIP3   OH239211   1.300   1.352   1.676 -0.6228 -0.4138  0.1955
 5859TIP3    H139212   1.373   1.411   1.658 -2.0329  2.0721  1.9853
 5859TIP3    H239213   1.222   1.402   1.652 -1.8644 -1.7853  1.1844
 5860TIP3   OH239214   6.119   2.739   0.313  0.2381  0.0171 -0.4898
 5860TIP3    H139215   6.197   2.684   0.305 -1.0513 -1.9456 -0.1475
 5860TIP3    H239216   6.135   2.793   0.390  0.7718 -1.2246  0.2909
 5861TIP3   OH239217   2.733   4.780   2.234 -0.7321  0.0261 -0.2304
 5861TIP3    H139218   2.726   4.762   2.328 -0.9226 -0.4797 -0.3386
 5861TIP3    H239219   2.765   4.870   2.229  2.6218 -0.9772  0.3966
 5862TIP3   OH239220   0.062   3.705   2.135  0.6311  0.4228  0.2387
 5862TIP3    H139221   0.060   3.749   2.220  1.3699 -0.4315  0.7095
 5862TIP3    H239222   0.145   3.658   2.133  2.1270  2.8590 -2.2270
 5863TIP3   OH239223   2.438   4.312   0.056  0.2361 -0.2371  0.0842
 5863TIP3    H139224   2.503   4.280   0.118 -0.9398  0.3737  1.7121
 5863TIP3    H239225   2.385   4.235   0.036  0.6110 -0.4335 -0.1691
 5864TIP3   OH239226   2.977   3.725   0.536  0.4232 -0.1537  0.1155
 5864TIP3    H139227   3.009   3.806   0.496 -2.0881  0.2991 -1.1589
 5864TIP3    H239228   2.963   3.747   0.628 -0.3987  0.9501 -0.2555
 5865TIP3   OH239229   4.616   4.564   6.931 -0.1840 -0.5774  0.4485
 5865TIP3    H139230   4.712   4.570   6.928 -0.2218  0.0510  0.4675
 5865TIP3    H239231   4.599   4.472   6.951  0.3941 -1.0075 -0.9135
 5866TIP3   OH239232   6.764   6.481   2.497 -0.8369 -0.3919 -0.0711
 5866TIP3    H139233   6.708   6.521   2.563  0.3103  1.6822 -0.2766
 5866TIP3    H239234   6.845   6.459   2.543 -0.3216  0.3603 -0.5928
 5867TIP3   OH239235   4.481   2.421   8.288  0.7796 -0.5795 -0.1185
 5867TIP3    H139236   4.440   2.507   8.279 -1.0422 -1.4021 -0.0243
 5867TIP3    H239237   4.560   2.437   8.340  0.7324  1.0999 -0.5244
 5868TIP3   OH239238   5.149   5.460   2.429 -0.2594 -0.3036  0.0120
 5868TIP3    H139239   5.213   5.490   2.494 -0.1902  0.5247 -0.4374
 5868TIP3    H239240   5.082   5.529   2.427 -0.5908 -0.6304 -0.3431
 5869TIP3   OH239241   3.759   1.477   7.150 -0.2536  0.4197  0.3102
 5869TIP3    H139242   3.691   1.491   7.084 -0.6964  1.7578  1.0239
 5869TIP3    H239243   3.751   1.385   7.174 -0.2251 -0.0523 -1.3285
 5870TIP3   OH239244   2.815   0.067   0.458  0.0647 -0.2328 -0.0426
 5870TIP3    H139245   2.771   0.128   0.399 -0.0177 -0.8745 -0.6513
 5870TIP3    H239246   2.902   0.104   0.470 -0.1215  0.2279 -0.0642
 5871TIP3   OH239247   5.990   4.787   7.708 -0.0816 -0.1219  0.4469
 5871TIP3    H139248   6.076   4.751   7.728  0.1291 -0.3770 -0.7908
 5871TIP3    H239249   6.007   4.853   7.640 -0.4773  2.2771  2.5433
 5872TIP3   OH239250   0.969   2.999   1.983 -0.2504  0.0291 -0.5990
 5872TIP3    H139251   1.034   3.068   1.969  0.4893 -0.6526 -0.5754
 5872TIP3    H239252   0.987   2.966   2.071  0.9432 -1.7758 -1.4728
 5873TIP3   OH239253   4.646   1.802   1.473  0.0517 -0.5939 -0.0114
 5873TIP3    H139254   4.588   1.735   1.510  0.3188 -0.0725  1.4092
 5873TIP3    H239255   4.586   1.865   1.432 -0.2567 -1.1243 -0.3910
 5874TIP3   OH239256   1.153   4.785   7.230 -0.6997  0.1132  0.4195
 5874TIP3    H139257   1.163   4.814   7.139 -2.0397 -0.2128  0.1532
 5874TIP3    H239258   1.108   4.701   7.224 -1.9358  0.6812  1.4301
 5875TIP3   OH239259   1.580   5.681   0.108  0.0979  0.2843  0.6500
 5875TIP3    H139260   1.648   5.654   0.047  0.7048 -0.6481  1.7173
 5875TIP3    H239261   1.500   5.644   0.073  0.7337 -1.9866  1.4481
 5876TIP3   OH239262   4.786   2.607   1.627 -0.1983 -0.4608 -0.9622
 5876TIP3    H139263   4.840   2.659   1.567 -0.5824 -1.6881 -2.4059
 5876TIP3    H239264   4.702   2.598   1.583 -0.3173 -1.8350 -0.4996
 5877TIP3   OH239265   4.547   2.703   0.724 -0.3747  0.5259 -0.7631
 5877TIP3    H139266   4.455   2.700   0.699 -0.7689 -0.1325  0.6732
 5877TIP3    H239267   4.570   2.612   0.744 -0.7625  1.1281  3.3202
 5878TIP3   OH239268   4.297   5.548   7.020  0.0796  0.4687  0.1696
 5878TIP3    H139269   4.296   5.453   7.010 -0.2432  0.0382  3.2709
 5878TIP3    H239270   4.205   5.574   7.018  0.0571  0.4687  0.7867
 5879TIP3   OH239271   0.818   0.172   7.326 -0.0579 -0.0293  0.6557
 5879TIP3    H139272   0.775   0.230   7.263  0.3889  0.3327  0.6769
 5879TIP3    H239273   0.889   0.225   7.363  1.2839 -1.0234 -0.3653
 5880TIP3   OH239274   3.196   3.085   0.110 -0.5227  0.5122 -0.1895
 5880TIP3    H139275   3.111   3.081   0.066 -0.7297 -0.1654  0.2657
 5880TIP3    H239276   3.236   3.165   0.076 -0.2144 -0.5349 -2.4829
 5881TIP3   OH239277   3.972   5.831   6.986  0.5212 -0.5506 -0.3222
 5881TIP3    H139278   4.021   5.786   7.055 -0.9791  1.3913  2.2087
 5881TIP3    H239279   4.011   5.800   6.905  3.3834 -1.9097  1.3978
 5882TIP3   OH239280   1.933   0.419   8.295  0.0909  0.4556  0.2834
 5882TIP3    H139281   2.008   0.436   8.239 -0.6454 -0.7264 -1.1351
 5882TIP3    H239282   1.938   0.486   8.364  0.8967  2.1310 -1.3257
 5883TIP3   OH239283   2.255   5.923   0.346 -0.5030  0.2936  0.2623
 5883TIP3    H139284   2.199   5.873   0.287 -1.0938  0.4174  0.7164
 5883TIP3    H239285   2.302   5.857   0.397  0.5123  0.1646 -0.7786
 5884TIP3   OH239286   1.914   4.035   1.648 -0.7912 -0.0341  0.0412
 5884TIP3    H139287   1.928   4.121   1.686  0.1909 -0.1253 -0.0929
 5884TIP3    H239288   1.998   4.011   1.610 -0.7255 -1.5181  1.0222
 5885TIP3   OH239289   3.458   5.532   8.472  0.1439  0.4023  0.1805
 5885TIP3    H139290   3.395   5.480   8.522  2.8672 -1.7579  1.6359
 5885TIP3    H239291   3.473   5.610   8.525  0.5185 -0.2761  1.0915
 5886TIP3   OH239292   6.272   6.707   7.952 -0.0301  0.3084  0.2948
 5886TIP3    H139293   6.293   6.742   7.866 -0.2846 -0.3559 -0.0463
 5886TIP3    H239294   6.180   6.681   7.945 -0.9791  2.9584  1.6773
 5887TIP3   OH239295   2.837   4.081   2.177 -0.3273  0.0175  0.1068
 5887TIP3    H139296   2.916   4.117   2.138  0.7693 -0.7919  1.4924
 5887TIP3    H239297   2.840   4.111   2.268 -2.3853  1.1902 -0.1473
 5888TIP3   OH239298   4.139   3.479   8.742 -0.4320  0.0389 -0.2349
 5888TIP3    H139299   4.074   3.503   8.809  0.5796 -0.6822  1.0601
 5888TIP3    H239300   4.180   3.562   8.718  1.6739  0.0551  2.7668
 5889TIP3   OH239301   5.591   1.931   1.967  0.2832 -0.1268  0.3566
 5889TIP3    H139302   5.519   1.921   2.029  0.3814  0.4309  0.5662
 5889TIP3    H239303   5.566   1.876   1.893 -0.1661 -0.2514  0.5938
 5890TIP3   OH239304   1.274   1.658   0.996  0.3438  0.0506  0.2161
 5890TIP3    H139305   1.181   1.678   0.997  0.2705 -0.0341 -1.5113
 5890TIP3    H239306   1.287   1.598   1.069 -1.1024 -0.5356  0.0260
 5891TIP3   OH239307   3.270   0.588   2.206 -0.4570 -0.1038 -0.0685
 5891TIP3    H139308   3.269   0.682   2.220 -0.8353 -0.3439  1.7929
 5891TIP3    H239309   3.192   0.571   2.154 -0.0936  0.6535 -0.8854
 5892TIP3   OH239310   6.788   3.249   7.310 -0.1311  0.7407  0.4796
 5892TIP3    H139311   6.884   3.249   7.305 -0.1735 -0.3818 -1.0706
 5892TIP3    H239312   6.763   3.337   7.282  0.4290  0.8839  0.4110
 5893TIP3   OH239313   5.411   0.979   2.222 -0.5509  0.0601  0.4880
 5893TIP3    H139314   5.343   0.949   2.163 -0.4992 -0.0203  0.4691
 5893TIP3    H239315   5.393   1.072   2.234 -0.3104  0.1737  0.0010
 5894TIP3   OH239316   3.560   3.448   8.370 -0.5349  0.2881  0.3414
 5894TIP3    H139317   3.560   3.495   8.454  0.2180 -0.5892  0.8467
 5894TIP3    H239318   3.591   3.360   8.392  1.4573  0.5625 -1.1350
 5895TIP3   OH239319   5.682   5.593   7.728  0.1645 -0.3983  0.1817
 5895TIP3    H139320   5.707   5.523   7.788 -0.3792 -1.6486 -1.0208
 5895TIP3    H239321   5.635   5.550   7.657 -0.5495  1.2290 -0.3989
 5896TIP3   OH239322   3.710   2.479   1.025  0.5587 -0.1958 -0.3311
 5896TIP3    H139323   3.619   2.503   1.009 -0.0454  0.5962  3.3888
 5896TIP3    H239324   3.708   2.385   1.046 -0.1638  0.4445  3.1882
 5897TIP3   OH239325   0.109   6.251   8.404  0.1645  0.1908 -0.2540
 5897TIP3    H139326   0.170   6.207   8.345 -0.2249  0.1011 -0.5988
 5897TIP3    H239327   0.107   6.342   8.372 -0.3124  0.0623 -0.6077
 5898TIP3   OH239328   3.053   6.738   1.569 -0.1837 -0.2735  0.1247
 5898TIP3    H139329   3.148   6.731   1.578 -0.2351 -1.4734 -0.2118
 5898TIP3    H239330   3.020   6.734   1.659  0.2384  3.7697  0.6574
 5899TIP3   OH239331   0.658   0.486   1.872 -0.1238 -0.1570 -0.4180
 5899TIP3    H139332   0.687   0.558   1.816  1.4692 -0.4465 -0.0103
 5899TIP3    H239333   0.575   0.518   1.910  0.4311  1.3760 -0.4148
 5900TIP3   OH239334   0.884   5.104   0.233  0.1599 -0.4990 -0.4546
 5900TIP3    H139335   0.848   5.192   0.221 -1.9941 -1.4361 -1.3947
 5900TIP3    H239336   0.832   5.067   0.305 -0.6241 -1.7709 -1.6122
 5901TIP3   OH239337   4.154   1.274   8.240 -0.1956  0.6315 -0.1951
 5901TIP3    H139338   4.070   1.307   8.208  0.0931  0.1318 -1.5333
 5901TIP3    H239339   4.173   1.198   8.184 -0.1834 -1.0023  1.9040
 5902TIP3   OH239340   0.967   3.163   0.148 -0.5833  0.2351  0.0097
 5902TIP3    H139341   0.913   3.127   0.218 -0.3393  0.5704  0.3763
 5902TIP3    H239342   1.056   3.158   0.181 -0.4609  0.3439 -0.3002
 5903TIP3   OH239343   4.915   4.080   1.645  0.0986 -0.0395 -1.0135
 5903TIP3    H139344   4.892   3.994   1.682 -1.1137  1.1080  1.0903
 5903TIP3    H239345   4.904   4.068   1.550  0.8666 -2.4314 -0.8766
 5904TIP3   OH239346   4.206   0.968   8.750  0.4590 -0.1332  0.3601
 5904TIP3    H139347   4.174   0.970   8.840 -0.6415 -2.8734  0.1431
 5904TIP3    H239348   4.280   0.907   8.753 -0.8645 -1.9095 -0.8491
 5905TIP3   OH239349   6.122   3.052   0.811  0.2226 -0.7156  0.2664
 5905TIP3    H139350   6.185   3.015   0.873  1.1242  0.0982 -0.1556
 5905TIP3    H239351   6.058   2.982   0.799  1.2526 -1.7120  0.3964
 5906TIP3   OH239352   2.261   3.566   1.053  0.1868  0.4598  0.2706
 5906TIP3    H139353   2.231   3.477   1.039 -3.0126  1.2144  1.4376
 5906TIP3    H239354   2.248   3.609   0.969 -1.2376  0.5026  0.4766
 5907TIP3   OH239355   5.855   2.757   0.177  0.3201  0.0229 -0.1319
 5907TIP3    H139356   5.785   2.803   0.222  0.6602  0.9470 -0.5290
 5907TIP3    H239357   5.920   2.739   0.245 -0.3071 -0.8695  0.2423
 5908TIP3   OH239358   3.060   6.446   7.177 -1.3338 -0.0414  0.3016
 5908TIP3    H139359   3.081   6.533   7.143  1.1264 -0.3514  0.8383
 5908TIP3    H239360   2.966   6.450   7.195 -1.2746  2.5708  0.4883
 5909TIP3   OH239361   0.912   2.368   7.011  0.0539  0.1035  0.0329
 5909TIP3    H139362   0.878   2.456   7.027  2.0641  0.5442  2.4502
 5909TIP3    H239363   0.982   2.357   7.075 -1.4315 -4.0561  1.2798
 5910TIP3   OH239364   3.915   1.702   7.529  1.1048  0.6234  0.6205
 5910TIP3    H139365   3.932   1.665   7.442  1.4023  1.9434  0.0906
 5910TIP3    H239366   3.981   1.662   7.585 -0.6721 -2.2173  0.8602
 5911TIP3   OH239367   0.943   3.212   0.717  0.4101  0.0830 -0.6167
 5911TIP3    H139368   1.023   3.215   0.664 -0.3948  1.2070 -1.8246
 5911TIP3    H239369   0.935   3.120   0.744  3.0696  0.2487  1.0938
 5912TIP3   OH239370   6.812   6.133   8.626  0.6849  0.3501 -0.2160
 5912TIP3    H139371   6.797   6.181   8.544  1.4071 -1.7321 -1.6617
 5912TIP3    H239372   6.903   6.102   8.619  0.7219  0.0403  1.3358
 5913TIP3   OH239373   0.486   2.470   0.436  0.6208  0.3523 -0.6438
 5913TIP3    H139374   0.501   2.419   0.357  0.2932  0.8535 -1.0358
 5913TIP3    H239375   0.572   2.473   0.479  0.3340 -1.7994  0.1838
 5914TIP3   OH239376   6.162   2.708   8.493 -0.7446  0.1662 -0.2373
 5914TIP3    H139377   6.129   2.702   8.404  2.1994  1.4885 -1.5426
 5914TIP3    H239378   6.177   2.617   8.520 -2.3894 -0.2771 -0.7378
 5915TIP3   OH239379   5.695   6.370   7.383  0.0313 -0.2152  0.3037
 5915TIP3    H139380   5.779   6.326   7.395 -0.3397 -0.9675  0.1727
 5915TIP3    H239381   5.686   6.381   7.289 -1.3045 -2.7551  0.0428
 5916TIP3   OH239382   1.359   2.547   1.566  0.1041 -0.0076  0.3527
 5916TIP3    H139383   1.366   2.513   1.477 -0.9795  1.7348 -0.4635
 5916TIP3    H239384   1.271   2.521   1.595 -0.6027  1.6580 -0.1532
 5917TIP3   OH239385   1.577   3.229   0.469  0.5452  0.0780 -0.0134
 5917TIP3    H139386   1.638   3.300   0.448  0.0967  0.1490 -1.1854
 5917TIP3    H239387   1.542   3.202   0.384  0.3688 -1.2482  0.4513
 5918TIP3   OH239388   3.665   0.470   2.189 -0.0460 -0.5707  0.5951
 5918TIP3    H139389   3.642   0.563   2.187 -0.7323 -0.7488 -0.7142
 5918TIP3    H239390   3.707   0.454   2.105  0.3577 -1.3800  0.9454
 5919TIP3   OH239391   3.095   2.623   2.168  0.1026  0.3843 -0.6938
 5919TIP3    H139392   3.026   2.672   2.125 -1.6805 -0.9304  0.5261
 5919TIP3    H239393   3.053   2.586   2.246  2.6439  0.9957  1.0857
 5920TIP3   OH239394   3.406   0.186   2.822 -0.2014 -0.4186 -0.1217
 5920TIP3    H139395   3.371   0.111   2.870 -0.1700 -0.0179  0.5291
 5920TIP3    H239396   3.368   0.177   2.734 -0.3424 -1.0925 -0.0013
 5921TIP3   OH239397   1.316   2.130   1.370  0.1990 -0.1930 -0.3139
 5921TIP3    H139398   1.397   2.169   1.402 -0.6879  1.7415 -0.3050
 5921TIP3    H239399   1.274   2.200   1.319 -0.9107 -1.5270 -1.3081
 5922TIP3   OH239400   2.726   1.031   2.370  0.6379 -0.0608 -0.0517
 5922TIP3    H139401   2.655   1.094   2.377  1.3579  0.6786  0.8316
 5922TIP3    H239402   2.746   1.007   2.460  0.4206 -1.5208 -0.3636
 5923TIP3   OH239403   5.622   3.053   0.103  0.6182  0.0948 -0.1737
 5923TIP3    H139404   5.601   3.037   0.011  0.5117 -1.7314  0.1305
 5923TIP3    H239405   5.608   2.968   0.145  3.0182  0.2709  1.0928
 5924TIP3   OH239406   6.154   1.920   0.495  0.5220  0.3342  0.4187
 5924TIP3    H139407   6.118   1.956   0.414  1.6495 -2.6322 -1.5780
 5924TIP3    H239408   6.078   1.902   0.550 -0.8594 -2.0266 -2.0204
 5925TIP3   OH239409   5.182   4.456   1.763  0.3208  0.5673 -0.2137
 5925TIP3    H139410   5.254   4.418   1.712  0.3906  0.6274 -0.1595
 5925TIP3    H239411   5.187   4.412   1.848 -0.3905 -0.2415 -0.5725
 5926TIP3   OH239412   6.389   2.695   7.869 -0.6620 -0.2185 -0.5492
 5926TIP3    H139413   6.384   2.785   7.836  0.1105  0.6681  1.5698
 5926TIP3    H239414   6.299   2.670   7.885 -0.8556  0.3736 -0.6776
 5927TIP3   OH239415   1.948   1.438   8.687  0.3620 -0.4917  0.2489
 5927TIP3    H139416   1.939   1.464   8.779 -0.8564  0.6519 -0.1690
 5927TIP3    H239417   1.867   1.466   8.646  0.8374 -1.1090 -1.1644
 5928TIP3   OH239418   2.381   0.860   1.893  0.3700  0.4562  0.4849
 5928TIP3    H139419   2.372   0.852   1.798  0.3502 -1.6353  0.6245
 5928TIP3    H239420   2.313   0.924   1.918  0.8632  1.5893 -0.9561
 5929TIP3   OH239421   6.796   1.170   8.779 -0.1379  0.6671  0.0935
 5929TIP3    H139422   6.853   1.157   8.855 -0.2043  0.9074  0.1869
 5929TIP3    H239423   6.730   1.102   8.785  0.0986  0.4302  0.0253
 5930TIP3   OH239424   5.116   3.042   7.672 -0.4101  0.3931  0.0603
 5930TIP3    H139425   5.074   2.957   7.656 -0.7609 -0.0262  2.7565
 5930TIP3    H239426   5.057   3.106   7.632 -1.1753 -0.4985 -0.2792
 5931TIP3   OH239427   2.898   5.229   7.545  0.1296  0.2553 -0.1614
 5931TIP3    H139428   2.907   5.150   7.492  2.4118  2.0748 -2.7347
 5931TIP3    H239429   2.987   5.260   7.557 -0.6780  2.2475  1.1694
 5932TIP3   OH239430   1.688   2.015   7.922 -0.0292 -0.2431 -0.4386
 5932TIP3    H139431   1.593   2.007   7.929  0.0099 -2.0495 -1.3718
 5932TIP3    H239432   1.720   2.008   8.012 -0.7983  1.2071 -0.0230
 5933TIP3   OH239433   4.227   5.037   0.198 -0.3722  0.2133 -0.2247
 5933TIP3    H139434   4.205   4.945   0.183 -0.6208  0.4333 -1.3229
 5933TIP3    H239435   4.181   5.060   0.278 -0.0139 -0.7190  0.2614
 5934TIP3   OH239436   1.567   0.985   8.530 -0.1408 -0.4682 -0.4350
 5934TIP3    H139437   1.650   1.017   8.566 -0.5656 -0.2804  0.3956
 5934TIP3    H239438   1.565   0.892   8.556 -1.0352 -0.0397  1.2086
 5935TIP3   OH239439   3.266   0.993   8.779 -0.6017  0.4211  0.3729
 5935TIP3    H139440   3.341   1.049   8.800  0.7909 -1.3682  0.3798
 5935TIP3    H239441   3.235   0.962   8.864 -2.0934  1.9855  0.4601
 5936TIP3   OH239442   3.001   0.018   1.247 -0.1304  0.1555  0.4861
 5936TIP3    H139443   3.022   0.034   1.339 -0.6368 -0.9490  0.8054
 5936TIP3    H239444   2.905   0.012   1.244 -0.2291  1.6925 -0.3786
 5937TIP3   OH239445   4.234   4.113   2.256 -0.0364  0.4796 -0.2170
 5937TIP3    H139446   4.297   4.055   2.300 -0.0984  0.4358 -0.1856
 5937TIP3    H239447   4.202   4.061   2.183 -0.5991  0.2156  0.2027
 5938TIP3   OH239448   0.608   4.149   1.520 -0.0836 -0.0824  0.3148
 5938TIP3    H139449   0.689   4.100   1.532  0.1519  0.0158 -0.8353
 5938TIP3    H239450   0.583   4.176   1.609  1.2369  0.0419  0.6603
 5939TIP3   OH239451   3.180   2.805   8.551 -0.0131 -0.1989 -0.3497
 5939TIP3    H139452   3.255   2.848   8.510 -1.1949  1.1065 -1.1935
 5939TIP3    H239453   3.207   2.713   8.558  1.2894  0.0524 -1.5337
 5940TIP3   OH239454   2.514   2.309   0.939 -0.0040  0.2254  0.1302
 5940TIP3    H139455   2.452   2.370   0.899 -0.2991 -0.5261 -0.5699
 5940TIP3    H239456   2.596   2.358   0.943  0.1461  0.2023 -1.7591
 5941TIP3   OH239457   6.509   1.032   8.089 -0.4668 -0.2137 -0.2952
 5941TIP3    H139458   6.453   1.100   8.127  0.2131 -0.4997  1.2709
 5941TIP3    H239459   6.598   1.067   8.097 -0.1876 -0.9097 -0.2946
 5942TIP3   OH239460   5.795   1.387   8.389 -0.5331 -0.3691 -0.1710
 5942TIP3    H139461   5.711   1.414   8.426  0.3862  2.5412  0.1090
 5942TIP3    H239462   5.810   1.448   8.317  1.4373 -0.6022 -0.0190
 5943TIP3   OH239463   6.080   1.508   8.403  0.5010 -0.6165 -0.2481
 5943TIP3    H139464   6.048   1.546   8.321  2.1258  1.6557  0.0856
 5943TIP3    H239465   6.001   1.480   8.449 -1.0035  3.0395 -0.2691
 5944TIP3   OH239466   0.183   2.026   7.684 -0.2322 -0.0187  0.2767
 5944TIP3    H139467   0.274   2.033   7.655 -0.6879 -0.1941 -1.3074
 5944TIP3    H239468   0.141   2.105   7.651 -0.2148  1.2170  2.9733
 5945TIP3   OH239469   1.217   3.118   1.071 -0.2091 -0.0223 -0.2168
 5945TIP3    H139470   1.239   3.026   1.054  0.1356  0.1811 -0.9031
 5945TIP3    H239471   1.137   3.114   1.123 -1.2333 -0.6833 -1.7692
 5946TIP3   OH239472   6.266   4.509   7.335  0.7336 -0.7108 -0.6740
 5946TIP3    H139473   6.244   4.431   7.284  0.4728 -1.2135  0.1851
 5946TIP3    H239474   6.319   4.475   7.408 -0.6359 -0.3037  0.5489
 5947TIP3   OH239475   0.368   1.039   0.218  0.7358 -0.2558  0.9920
 5947TIP3    H139476   0.384   0.966   0.158  0.6336  1.8831 -1.8214
 5947TIP3    H239477   0.421   1.110   0.184 -2.0950  2.1616  1.2391
 5948TIP3   OH239478   1.814   1.848   7.303 -0.3925  0.2568 -0.3357
 5948TIP3    H139479   1.802   1.897   7.221  1.3443 -0.6443 -1.1705
 5948TIP3    H239480   1.838   1.760   7.275  0.4197 -0.0199  1.1528
 5949TIP3   OH239481   1.388   6.699   6.655 -0.5547  0.1299 -0.0974
 5949TIP3    H139482   1.302   6.679   6.693  0.2914 -0.9276  1.3946
 5949TIP3    H239483   1.430   6.756   6.720 -0.0001  0.3602 -0.6489
 5950TIP3   OH239484   1.722   3.053   8.747  0.2495 -0.4013 -0.1991
 5950TIP3    H139485   1.681   3.071   8.662  0.1928 -0.7943 -0.2554
 5950TIP3    H239486   1.754   3.139   8.776 -0.8187 -0.0459 -0.0315
 5951TIP3   OH239487   0.392   0.006   8.574 -0.6936  0.2333 -0.0151
 5951TIP3    H139488   0.450  -0.046   8.630  1.1382  1.2777 -0.8423
 5951TIP3    H239489   0.361   0.077   8.631  0.9097  1.1126 -0.1668
 5952TIP3   OH239490   5.057   3.353   7.574 -0.0838  0.0997 -0.6091
 5952TIP3    H139491   4.964   3.335   7.578  0.5718 -4.9298 -1.1647
 5952TIP3    H239492   5.076   3.404   7.653 -2.9138 -1.1501  1.0031
 5953TIP3   OH239493   2.703   2.144   6.646  0.0142 -0.0925  0.5451
 5953TIP3    H139494   2.711   2.230   6.604 -0.0622 -0.9148 -1.2639
 5953TIP3    H239495   2.676   2.164   6.735  2.6431  1.8787  1.0386
 5954TIP3   OH239496   4.936   4.382   8.436 -0.0108  0.3905  0.3563
 5954TIP3    H139497   4.994   4.359   8.363 -1.0318 -1.1559 -0.0269
 5954TIP3    H239498   4.848   4.373   8.400 -0.5120  1.1657  1.3565
 5955TIP3   OH239499   5.694   1.568   7.166  0.4735 -0.0511 -0.0286
 5955TIP3    H139500   5.749   1.492   7.184 -0.1971 -0.4907  0.2026
 5955TIP3    H239501   5.738   1.613   7.094  1.5629  0.0573  0.6811
 5956TIP3   OH239502   5.986   4.641   7.005  0.3519 -0.5086  0.2647
 5956TIP3    H139503   5.906   4.654   6.955  0.2332  2.1339  0.9928
 5956TIP3    H239504   5.957   4.602   7.087 -0.1881  0.2362  0.4369
 5957TIP3   OH239505   1.826   4.371   0.231  0.0735  0.2649  0.1124
 5957TIP3    H139506   1.754   4.309   0.242 -0.1115  0.6335  1.0865
 5957TIP3    H239507   1.900   4.330   0.274  0.0492  0.5508  0.4307
 5958TIP3   OH239508   1.144   4.474   2.588 -0.6429  0.0567 -0.1604
 5958TIP3    H139509   1.104   4.561   2.585 -1.3724 -0.2807 -0.4757
 5958TIP3    H239510   1.071   4.415   2.603 -0.2819 -0.5950 -0.9078
 5959TIP3   OH239511   2.953   4.897   0.144  0.6594 -0.2668 -0.2481
 5959TIP3    H139512   2.888   4.963   0.120  0.7891 -0.2250 -0.4855
 5959TIP3    H239513   2.903   4.817   0.156  0.1352  0.3398  2.3590
 5960TIP3   OH239514   4.912   4.354   1.027  0.1793  0.1204 -0.3906
 5960TIP3    H139515   4.835   4.360   1.083 -0.3529 -1.2663 -0.9393
 5960TIP3    H239516   4.877   4.339   0.939  1.0767 -0.6907 -0.6225
 5961TIP3   OH239517   4.429   2.054   0.232  0.1477 -0.1479  0.6933
 5961TIP3    H139518   4.514   2.085   0.200  0.6599 -2.1427 -0.0576
 5961TIP3    H239519   4.447   2.019   0.319 -0.1528  0.4733  1.0085
 5962TIP3   OH239520   1.617   6.107   8.486  0.1477 -0.0538 -0.1441
 5962TIP3    H139521   1.697   6.153   8.510 -0.3114  1.1932 -0.9105
 5962TIP3    H239522   1.631   6.080   8.396 -0.3885  0.3852 -0.3603
 5963TIP3   OH239523   0.700   2.554   8.654 -0.2457 -0.2116  0.8246
 5963TIP3    H139524   0.732   2.466   8.676  0.0652 -0.2952  0.0865
 5963TIP3    H239525   0.776   2.599   8.617 -0.5945  0.1092  0.4850
 5964TIP3   OH239526   5.441   1.313   8.690  0.0749  0.3279  0.5512
 5964TIP3    H139527   5.370   1.344   8.746  0.6148  1.6253  0.5610
 5964TIP3    H239528   5.517   1.306   8.748  0.3586  0.5744  0.2178
 5965TIP3   OH239529   4.939   4.916   0.183 -0.0041 -0.5565 -0.5974
 5965TIP3    H139530   5.009   4.976   0.210 -1.4460  0.4811  1.0801
 5965TIP3    H239531   4.969   4.830   0.211 -0.3644  0.1721  2.3882
 5966TIP3   OH239532   5.865   3.542   8.651 -0.0453  0.0339  0.4067
 5966TIP3    H139533   5.943   3.555   8.704  1.2246 -1.6841 -0.8886
 5966TIP3    H239534   5.899   3.509   8.567 -2.0870  0.5899 -0.7012
 5967TIP3   OH239535   2.997   2.226   0.768 -0.0735  0.0007  0.6441
 5967TIP3    H139536   2.915   2.181   0.788 -0.9400  1.2372 -0.0209
 5967TIP3    H239537   3.045   2.164   0.712  0.5708 -1.7475  2.9465
 5968TIP3   OH239538   5.623   3.088   7.578  0.0705  0.5558  0.4855
 5968TIP3    H139539   5.535   3.052   7.577  0.7817 -1.2793  0.3739
 5968TIP3    H239540   5.621   3.159   7.514 -1.1510  0.1084  0.0041
 5969TIP3   OH239541   3.792   4.065   8.517 -0.2492 -0.1210 -1.1010
 5969TIP3    H139542   3.709   4.067   8.565  0.3703  1.0878 -0.0347
 5969TIP3    H239543   3.798   4.150   8.475  1.6700  0.9414  1.0638
 5970TIP3   OH239544   4.226   0.866   1.310  0.0050  0.1314 -0.2443
 5970TIP3    H139545   4.187   0.831   1.391  0.8949 -0.3694 -0.0230
 5970TIP3    H239546   4.226   0.961   1.323  1.2118  0.0152  0.8686
 5971TIP3   OH239547   0.973   0.132   2.120  0.0416  0.4578  0.1509
 5971TIP3    H139548   1.045   0.080   2.083  0.4906 -0.5682  2.3281
 5971TIP3    H239549   1.006   0.222   2.118  1.3826  0.0182  1.0092
 5972TIP3   OH239550   5.523   1.862   7.968 -0.2830 -0.3102  0.4277
 5972TIP3    H139551   5.492   1.776   7.939  1.6595 -1.2128  0.8297
 5972TIP3    H239552   5.508   1.861   8.063 -0.1058 -0.2949  0.4567
 5973TIP3   OH239553   2.958   2.813   1.072  0.2715 -0.4345 -0.1356
 5973TIP3    H139554   2.977   2.797   1.165  1.0172 -1.9551 -0.5300
 5973TIP3    H239555   3.042   2.838   1.034  0.0695 -0.3333 -0.5211
 5974TIP3   OH239556   5.506   2.441   0.709 -0.0551 -0.1450 -0.0254
 5974TIP3    H139557   5.529   2.416   0.620  0.3316 -1.7651  0.4940
 5974TIP3    H239558   5.454   2.367   0.742  0.7919 -0.1031  1.4700
 5975TIP3   OH239559   3.978   3.048   2.824  0.5214 -0.6484  0.4588
 5975TIP3    H139560   4.018   3.110   2.763 -0.9382 -1.0341 -0.9423
 5975TIP3    H239561   3.936   3.103   2.890 -1.4184 -0.0633 -1.1859
 5976TIP3   OH239562   2.833   5.332   1.730 -0.3652  0.2087  0.7234
 5976TIP3    H139563   2.787   5.408   1.694  0.4559  1.2565  1.7814
 5976TIP3    H239564   2.772   5.259   1.719 -1.5234  1.1848  0.4430
 5977TIP3   OH239565   1.379   2.925   1.765  0.7734 -0.6198 -0.5085
 5977TIP3    H139566   1.294   2.894   1.734  0.4571  0.8245 -1.1596
 5977TIP3    H239567   1.361   3.014   1.797  1.8115 -0.7475  0.4771
 5978TIP3   OH239568   5.070   5.782   2.100 -0.8527 -0.5921  0.7015
 5978TIP3    H139569   5.122   5.752   2.175  0.4090 -0.2673 -0.0011
 5978TIP3    H239570   5.028   5.862   2.130 -0.9746 -0.8754  1.3022
 5979TIP3   OH239571   2.964   6.403   1.626  0.2396 -0.6721  0.3258
 5979TIP3    H139572   3.025   6.396   1.553 -1.5631  2.6333 -1.7294
 5979TIP3    H239573   3.013   6.450   1.694  0.5134  0.6509 -0.7392
 5980TIP3   OH239574   4.584   0.768   1.024 -0.4094  0.3533 -0.6713
 5980TIP3    H139575   4.522   0.816   0.970 -2.2250 -0.2757  0.7299
 5980TIP3    H239576   4.625   0.834   1.079  0.0861  0.7639 -1.5255
 5981TIP3   OH239577   0.899   1.923   7.835 -0.1563 -0.0269 -0.2589
 5981TIP3    H139578   0.992   1.913   7.815 -0.4301 -0.7797 -1.2880
 5981TIP3    H239579   0.856   1.857   7.780 -1.2309 -0.2595  0.8162
 5982TIP3   OH239580   3.840   4.327   8.112 -0.3941  0.7202  1.0062
 5982TIP3    H139581   3.883   4.363   8.189 -2.5182 -0.3682  2.8139
 5982TIP3    H239582   3.750   4.361   8.116 -1.3448 -1.5318  0.6328
 5983TIP3   OH239583   1.828   5.626   2.553 -0.0038  0.1665 -0.2231
 5983TIP3    H139584   1.895   5.599   2.490 -0.9785  1.7216 -2.0720
 5983TIP3    H239585   1.871   5.691   2.608  0.6513 -0.6322  0.2211
 5984TIP3   OH239586   5.763   6.590   6.615  0.1024 -0.5099  0.3344
 5984TIP3    H139587   5.779   6.630   6.701  0.1787 -0.0311  0.0982
 5984TIP3    H239588   5.673   6.558   6.620  0.5967 -1.8364  1.1256
 5985TIP3   OH239589   5.624   3.564   0.186 -0.2082 -0.2096 -0.3003
 5985TIP3    H139590   5.612   3.591   0.277 -1.6870 -0.6967 -0.3277
 5985TIP3    H239591   5.538   3.576   0.146  0.5372  0.4559 -1.7686
 5986TIP3   OH239592   3.738   4.094   1.768 -0.0440 -0.4783 -0.7322
 5986TIP3    H139593   3.665   4.151   1.791 -0.0786 -0.9927  0.4890
 5986TIP3    H239594   3.785   4.142   1.699 -0.0198  1.0672  0.3059
 5987TIP3   OH239595   5.596   4.800   8.802 -0.5880 -0.7798  0.2432
 5987TIP3    H139596   5.538   4.800   8.878 -1.2382 -1.7875 -0.2417
 5987TIP3    H239597   5.684   4.791   8.839 -0.3669  3.2854  1.1926
 5988TIP3   OH239598   4.371   4.340   8.512 -0.5598 -0.0269  0.1584
 5988TIP3    H139599   4.436   4.401   8.546 -0.1830 -0.0543 -0.5058
 5988TIP3    H239600   4.295   4.394   8.493 -0.0846  0.3050 -0.8143
 5989TIP3   OH239601   4.737   6.577   8.138  0.1597  0.1032 -0.8517
 5989TIP3    H139602   4.683   6.498   8.129  0.3494 -0.1330 -0.0156
 5989TIP3    H239603   4.674   6.649   8.138 -0.0327 -0.0590 -1.3749
 5990TIP3   OH239604   2.453   6.452   0.869  0.5858  0.0446 -0.0826
 5990TIP3    H139605   2.423   6.408   0.790  1.0763 -1.5874  0.5963
 5990TIP3    H239606   2.454   6.384   0.936  2.8385  0.7063  0.6611
 5991TIP3   OH239607   5.899   5.850   0.168  0.2168  0.6271 -0.3815
 5991TIP3    H139608   5.910   5.871   0.261  0.3588 -0.7471 -0.0736
 5991TIP3    H239609   5.821   5.900   0.141 -0.2691  0.4495  0.6661
 5992TIP3   OH239610   1.813   4.824   8.204  0.0452 -1.4255  0.4069
 5992TIP3    H139611   1.739   4.843   8.261 -0.0397  1.5716 -0.5336
 5992TIP3    H239612   1.881   4.886   8.231  0.0999 -0.0802 -2.4249
 5993TIP3   OH239613   2.695   0.136   0.691 -0.3536  0.1059  0.7324
 5993TIP3    H139614   2.600   0.144   0.695 -0.7732 -2.4151 -1.6240
 5993TIP3    H239615   2.715   0.131   0.598  1.8372 -1.3774  1.2007
 5994TIP3   OH239616   2.540   1.320   0.843  0.0953  0.4341  0.6867
 5994TIP3    H139617   2.586   1.245   0.805  0.4832  1.2648 -0.5062
 5994TIP3    H239618   2.468   1.281   0.893  0.9886 -0.7872  1.0677
 5995TIP3   OH239619   5.927   2.897   8.137  0.0367 -0.2545  0.5127
 5995TIP3    H139620   5.838   2.926   8.156 -0.0743 -1.8311  2.8482
 5995TIP3    H239621   5.933   2.899   8.041 -1.9109  1.4862  0.3597
 5996TIP3   OH239622   2.379   6.002   1.256 -0.1590  0.2838 -0.3437
 5996TIP3    H139623   2.396   5.913   1.225 -0.4511  0.8023 -2.0963
 5996TIP3    H239624   2.284   6.011   1.253 -0.2545  0.1986  1.2766
 5997TIP3   OH239625   0.060   3.147   0.995 -0.1148  0.0721 -0.3701
 5997TIP3    H139626   0.097   3.186   0.916  0.0096  0.0355 -0.3307
 5997TIP3    H239627   0.100   3.060   1.000  0.3907  0.3213  0.0921
 5998TIP3   OH239628   5.491   3.166   2.361 -0.2472 -0.0180 -0.2171
 5998TIP3    H139629   5.563   3.224   2.337  0.9692 -1.0255  0.8311
 5998TIP3    H239630   5.446   3.148   2.279  0.9987  0.2571 -0.9815
 5999TIP3   OH239631   5.625   2.546   8.486 -0.7954  0.6264  0.5297
 5999TIP3    H139632   5.553   2.512   8.433 -0.9990  0.8861  0.6309
 5999TIP3    H239633   5.650   2.473   8.543  0.5893 -0.2093 -1.1018
 6000TIP3   OH239634   2.949   6.286   8.808  0.1007 -0.4013  0.2642
 6000TIP3    H139635   3.043   6.275   8.798  0.0595 -1.8374  1.1397
 6000TIP3    H239636   2.935   6.381   8.808  1.2962 -0.1752 -1.7715
 6001TIP3   OH239637   2.394   2.983   0.289  0.2876  0.5069  0.1268
 6001TIP3    H139638   2.429   2.923   0.223 -1.6467 -0.2555 -0.2888
 6001TIP3    H239639   2.432   2.952   0.372 -0.5926 -1.3001 -0.0897
 6002TIP3   OH239640   6.623   4.794   7.499  0.3416  0.3409 -0.0963
 6002TIP3    H139641   6.643   4.865   7.438  0.5438  1.4725  1.2440
 6002TIP3    H239642   6.668   4.718   7.462 -1.2841  0.4317 -2.4799
 6003TIP3   OH239643   6.008   1.451   2.210  0.0878  0.1196 -0.3066
 6003TIP3    H139644   5.984   1.494   2.292  1.5990  0.7829 -0.1858
 6003TIP3    H239645   6.069   1.382   2.236  2.5552  1.8779 -1.0016
 6004TIP3   OH239646   6.699   4.509   1.602 -0.1300 -0.1869 -0.1105
 6004TIP3    H139647   6.747   4.540   1.679 -1.4501 -0.4440  0.8532
 6004TIP3    H239648   6.672   4.589   1.556  1.5187 -0.0452 -0.8882
 6005TIP3   OH239649   6.360   1.771   8.069 -0.6013  0.3981  0.4054
 6005TIP3    H139650   6.291   1.783   8.004 -0.7130  1.0010  0.6263
 6005TIP3    H239651   6.414   1.850   8.063  0.7447 -0.5384 -0.5377
 6006TIP3   OH239652   2.691   2.325   7.752  0.4981  0.3251  0.2131
 6006TIP3    H139653   2.775   2.306   7.710  0.2793 -2.4676  0.8840
 6006TIP3    H239654   2.629   2.328   7.679  0.7964 -0.1630 -0.0716
 6007TIP3   OH239655   6.013   5.809   2.591 -0.0276 -0.3650  0.6253
 6007TIP3    H139656   5.928   5.832   2.553 -1.1865  0.5940  3.4796
 6007TIP3    H239657   6.033   5.724   2.554 -2.7075 -1.0423  0.4831
 6008TIP3   OH239658   4.495   4.236   2.166 -0.1660  0.2502  0.2493
 6008TIP3    H139659   4.528   4.262   2.252  0.1705  2.1220 -0.4076
 6008TIP3    H239660   4.408   4.200   2.184 -0.2556  0.9710  1.3431
 6009TIP3   OH239661   0.279   2.723   1.741  0.1927 -0.2326  0.6443
 6009TIP3    H139662   0.369   2.756   1.735  0.4883 -0.8281  1.5808
 6009TIP3    H239663   0.287   2.630   1.721 -0.2444 -0.2532  0.5722
 6010TIP3   OH239664   0.961   4.566   7.363 -0.3784 -1.1127  0.4195
 6010TIP3    H139665   0.930   4.657   7.365 -0.8026 -1.2603  0.7062
 6010TIP3    H239666   0.898   4.521   7.307 -0.7042 -1.4202  1.0244
 6011TIP3   OH239667   2.068   2.655   0.906 -0.2291  0.2480 -0.6443
 6011TIP3    H139668   1.977   2.681   0.892 -0.3258 -0.1912 -0.8719
 6011TIP3    H239669   2.106   2.725   0.959 -1.7631 -1.3813  2.9352
 6012TIP3   OH239670   0.324   5.618   8.877 -0.0633  0.3219 -0.2671
 6012TIP3    H139671   0.382   5.583   8.810 -0.8179 -0.2643 -0.6337
 6012TIP3    H239672   0.343   5.712   8.879  0.8798  0.1484 -0.3801
 6013TIP3   OH239673   3.162   5.143   1.162 -0.5871  0.3227  0.3803
 6013TIP3    H139674   3.123   5.219   1.204  0.1431  0.8075  0.2038
 6013TIP3    H239675   3.199   5.176   1.081 -1.4357 -0.4882 -0.3586
 6014TIP3   OH239676   5.997   0.401   8.624 -0.4519 -0.2936  0.4262
 6014TIP3    H139677   5.997   0.343   8.548 -0.5137  0.1457  0.0927
 6014TIP3    H239678   6.026   0.485   8.591 -1.6995  0.2439  0.6246
 6015TIP3   OH239679   0.819   1.075   0.083 -0.2637 -0.1585  0.4897
 6015TIP3    H139680   0.877   1.146   0.108 -0.2422 -0.3258  0.9253
 6015TIP3    H239681   0.733   1.115   0.077 -0.3324 -0.1793  1.1885
 6016TIP3   OH239682   4.531   6.113   0.819 -0.6662  0.3099 -0.6220
 6016TIP3    H139683   4.510   6.039   0.876  0.5022 -1.5477 -2.4766
 6016TIP3    H239684   4.446   6.139   0.782 -1.2779  0.8536  1.0937
 6017TIP3   OH239685   0.192   3.426   0.095 -0.0394  0.1532 -0.3551
 6017TIP3    H139686   0.230   3.370   0.163  2.7965  3.6334  1.3128
 6017TIP3    H239687   0.110   3.458   0.132 -0.2701 -0.6623 -0.1417
 6018TIP3   OH239688   2.045   0.021   0.932  0.3965 -0.2049  0.4962
 6018TIP3    H139689   1.999  -0.058   0.962  2.4214 -2.1341 -1.0507
 6018TIP3    H239690   2.017   0.032   0.842 -1.0455  1.8798  1.1334
 6019TIP3   OH239691   6.740   0.920   7.809  0.3022 -0.0546  0.2912
 6019TIP3    H139692   6.745   0.910   7.714 -0.5883  1.4534  0.0613
 6019TIP3    H239693   6.830   0.942   7.835  0.6017 -0.7032 -0.1409
 6020TIP3   OH239694   1.798   0.826   0.283  0.0502  0.7937  0.0731
 6020TIP3    H139695   1.886   0.791   0.271  0.1742  1.7860 -2.7972
 6020TIP3    H239696   1.811   0.916   0.313  0.2305  1.8082 -2.7618
 6021TIP3   OH239697   5.829   6.764   1.272 -0.1149  0.1284 -0.3867
 6021TIP3    H139698   5.832   6.758   1.176 -1.8291  1.0621 -0.5345
 6021TIP3    H239699   5.912   6.803   1.296  0.4486 -0.3509 -1.4687
 6022TIP3   OH239700   0.443   0.949   1.851  0.0567  0.7547  0.5722
 6022TIP3    H139701   0.469   0.878   1.792  0.6049  1.0944  0.3909
 6022TIP3    H239702   0.462   0.916   1.938  1.1823  1.0058  0.4424
 6023TIP3   OH239703   6.567   3.078   1.791 -0.4544 -0.0157 -0.5456
 6023TIP3    H139704   6.597   3.147   1.850 -0.7289 -0.6474  0.3383
 6023TIP3    H239705   6.478   3.104   1.766 -0.6518 -0.1787 -0.0107
 6024TIP3   OH239706   4.921   0.137   0.558  0.4946 -0.0266  0.5050
 6024TIP3    H139707   4.838   0.148   0.511  0.0642  0.0740  1.2584
 6024TIP3    H239708   4.956   0.053   0.526  0.3366  0.1547 -0.1579
 6025TIP3   OH239709   1.250   2.067   3.097  0.2249  0.3504  0.2359
 6025TIP3    H139710   1.274   2.076   3.005  0.2841 -0.1084  0.2026
 6025TIP3    H239711   1.331   2.079   3.145  0.8606 -2.4984  0.0607
 6026TIP3   OH239712   2.482   3.179   2.128  0.5862 -0.3936  0.5030
 6026TIP3    H139713   2.543   3.168   2.055 -1.2403  0.0085 -1.1853
 6026TIP3    H239714   2.513   3.257   2.173  1.9493 -0.8377  0.3701
 6027TIP3   OH239715   2.303   3.766   0.435 -0.3983 -0.6602  0.4025
 6027TIP3    H139716   2.399   3.763   0.430 -0.3110  1.8642 -0.8628
 6027TIP3    H239717   2.285   3.834   0.499 -1.3844 -1.3086  0.8371
 6028TIP3   OH239718   5.771   0.678   2.274 -0.4239  0.3937  0.1679
 6028TIP3    H139719   5.773   0.606   2.338 -0.4017  0.1419 -0.1153
 6028TIP3    H239720   5.690   0.664   2.225 -0.5084  0.6662  0.2259
 6029TIP3   OH239721   4.121   1.829   1.695 -0.2704  0.1396  0.5751
 6029TIP3    H139722   4.027   1.847   1.695 -0.6580 -1.5997  1.5633
 6029TIP3    H239723   4.129   1.744   1.651  0.8778  0.3907  0.2727
 6030TIP3   OH239724   2.018   0.925   1.219 -0.3798 -0.2879  0.0960
 6030TIP3    H139725   1.923   0.920   1.226 -0.2813 -3.1436  0.8932
 6030TIP3    H239726   2.049   0.913   1.309  0.7640  1.4823 -0.0232
 6031TIP3   OH239727   3.871   3.007   2.136 -0.4047 -0.7909  0.4521
 6031TIP3    H139728   3.805   3.051   2.083 -1.3541 -1.6387  0.8990
 6031TIP3    H239729   3.901   3.074   2.198 -0.2927 -0.1921 -0.2369
 6032TIP3   OH239730   5.567   1.834   8.748 -0.0127 -0.1657 -0.1315
 6032TIP3    H139731   5.473   1.836   8.763  0.1680  0.8749  0.9530
 6032TIP3    H239732   5.577   1.854   8.655 -0.9323 -2.4210 -0.7893
 6033TIP3   OH239733   2.024   2.893   7.184 -0.6209 -0.0230  0.4386
 6033TIP3    H139734   2.100   2.920   7.236 -1.4757 -0.4803  2.0123
 6033TIP3    H239735   1.995   2.973   7.140  0.2855  0.3299  0.4754
 6034TIP3   OH239736   0.995   1.472   7.903  0.2479  0.3114 -0.7417
 6034TIP3    H139737   0.953   1.502   7.822 -1.4238  0.1528  0.0384
 6034TIP3    H239738   1.084   1.509   7.898  0.5024 -0.4350 -3.0471
 6035TIP3   OH239739   4.290   6.276   8.337 -0.2832  0.0896  0.2893
 6035TIP3    H139740   4.306   6.368   8.357 -1.7131  0.4401 -0.0394
 6035TIP3    H239741   4.210   6.277   8.284 -0.3638 -1.3448  0.3494
 6036TIP3   OH239742   5.064   1.056   2.593 -0.4618 -0.3454  0.2723
 6036TIP3    H139743   5.013   0.992   2.641 -0.4318 -0.9187 -0.4453
 6036TIP3    H239744   5.142   1.070   2.647 -0.5609 -0.7594  0.5228
 6037TIP3   OH239745   2.467   1.986   7.472 -0.3792  0.1332 -0.4247
 6037TIP3    H139746   2.381   2.020   7.445 -0.8017 -2.1923 -2.4138
 6037TIP3    H239747   2.449   1.936   7.551 -0.6935  0.4225 -0.3100
 6038TIP3   OH239748   1.447   5.424   7.538  0.4814  0.1564 -0.3210
 6038TIP3    H139749   1.461   5.340   7.494  1.6387  0.9780 -1.5887
 6038TIP3    H239750   1.471   5.407   7.629  1.7666 -0.6226 -0.7790
 6039TIP3   OH239751   0.989   4.976   7.853 -0.4592  0.1563  0.0230
 6039TIP3    H139752   1.035   5.051   7.817  1.0242 -0.1841  1.1212
 6039TIP3    H239753   0.973   4.918   7.778  0.6858  0.4028 -0.4189
 6040TIP3   OH239754   3.766   6.169   8.886 -0.4866  0.1468  0.2712
 6040TIP3    H139755   3.821   6.239   8.854 -0.6537 -0.2071 -0.8179
 6040TIP3    H239756   3.693   6.213   8.930 -0.1886  0.6346  0.2706
 6041TIP3   OH239757   0.313   0.809   7.054  0.0557 -0.2330  0.4761
 6041TIP3    H139758   0.343   0.719   7.045 -0.9449 -0.4629 -1.0022
 6041TIP3    H239759   0.392   0.862   7.042  0.3837 -0.8847 -0.3514
 6042TIP3   OH239760   2.709   6.057   0.473 -0.1542 -0.0828 -0.2417
 6042TIP3    H139761   2.749   6.014   0.548 -1.5253 -0.2551  0.4079
 6042TIP3    H239762   2.759   6.025   0.398 -0.3221 -1.7998  0.3475
 6043TIP3   OH239763   2.508   5.126   8.585  0.6316  0.3286 -0.1367
 6043TIP3    H139764   2.421   5.089   8.604  2.0210 -2.5704  1.0990
 6043TIP3    H239765   2.497   5.169   8.500 -1.8425 -0.4918 -0.3145
 6044TIP3   OH239766   3.253   1.558   0.862 -0.2901 -0.0650 -0.3010
 6044TIP3    H139767   3.211   1.644   0.864 -0.5888 -0.1987 -0.7477
 6044TIP3    H239768   3.184   1.497   0.836 -0.0570 -0.4285 -0.0805
 6045TIP3   OH239769   1.727   4.486   7.733  0.4881  0.0099 -0.9327
 6045TIP3    H139770   1.645   4.440   7.715 -0.2380  0.8626  0.0545
 6045TIP3    H239771   1.701   4.577   7.747  1.1457 -0.1713  2.2747
 6046TIP3   OH239772   0.332   2.487   7.388 -0.1559  0.1025  0.5505
 6046TIP3    H139773   0.303   2.496   7.297 -0.1977 -0.2489  0.5266
 6046TIP3    H239774   0.330   2.576   7.423  1.2504  0.4529 -0.2048
 6047TIP3   OH239775   6.451   2.157   7.698 -0.0503  0.1405 -0.3759
 6047TIP3    H139776   6.501   2.075   7.698 -1.0152 -0.4954 -1.8346
 6047TIP3    H239777   6.501   2.216   7.642  0.6886  0.6109  0.7424
 6048TIP3   OH239778   1.400   5.899   6.739  0.0389  0.5247  0.4453
 6048TIP3    H139779   1.479   5.864   6.699  0.4944  1.7915  0.2100
 6048TIP3    H239780   1.344   5.822   6.752  0.6470 -0.1809 -0.8670
 6049TIP3   OH239781   6.601   5.236   0.345  0.1029 -0.1005 -0.2045
 6049TIP3    H139782   6.548   5.176   0.292  0.4259 -0.2299 -0.3812
 6049TIP3    H239783   6.581   5.322   0.310 -1.0291 -0.0035  0.6106
 6050TIP3   OH239784   3.463   2.425   8.700 -0.5136 -0.3491 -0.1834
 6050TIP3    H139785   3.533   2.380   8.653 -0.2985  1.0471 -1.2687
 6050TIP3    H239786   3.506   2.466   8.774 -0.6605 -1.6185  0.6389
 6051TIP3   OH239787   3.084   6.067   6.537  0.5232  0.0950  0.0241
 6051TIP3    H139788   2.993   6.092   6.528  0.3836 -0.6020 -0.5393
 6051TIP3    H239789   3.083   5.971   6.542  1.3321 -0.0106 -1.4353
 6052TIP3   OH239790   4.574   4.231   2.440  0.2728  0.2301  0.4933
 6052TIP3    H139791   4.603   4.156   2.491  1.0511 -0.1272 -0.4590
 6052TIP3    H239792   4.501   4.267   2.491 -1.9888 -2.7600 -0.3439
 6053TIP3   OH239793   5.142   5.970   0.317 -0.1671 -0.3262  0.6373
 6053TIP3    H139794   5.126   5.906   0.386  0.4487 -1.4919 -0.2523
 6053TIP3    H239795   5.056   6.008   0.299 -0.0661  1.3570  3.2582
 6054TIP3   OH239796   1.762   6.773   7.524  0.0999 -0.2650 -0.2246
 6054TIP3    H139797   1.784   6.789   7.616  0.5596  2.0739 -0.6765
 6054TIP3    H239798   1.828   6.710   7.495  1.1469  0.4139  0.5741
 6055TIP3   OH239799   1.359   1.854   8.439 -0.1225  0.1458 -0.5514
 6055TIP3    H139800   1.287   1.792   8.440  0.4966 -0.5946 -0.6327
 6055TIP3    H239801   1.321   1.935   8.403 -1.4594  0.5116  1.5311
 6056TIP3   OH239802   5.461   1.938   2.216 -0.9752  0.0368 -0.0140
 6056TIP3    H139803   5.536   1.895   2.256 -0.0721  1.3576 -0.2294
 6056TIP3    H239804   5.389   1.925   2.279 -0.5653 -1.1934  0.2108
 6057TIP3   OH239805   5.738   1.353   7.986  0.4795 -0.4031 -0.5620
 6057TIP3    H139806   5.790   1.275   7.965  0.7829 -0.2502 -0.3844
 6057TIP3    H239807   5.653   1.319   8.012  0.2885 -0.6304 -1.4564
 6058TIP3   OH239808   5.455   1.902   1.411 -0.3591  0.0601  0.4097
 6058TIP3    H139809   5.483   1.875   1.499 -1.7503  1.2146  1.2525
 6058TIP3    H239810   5.360   1.904   1.416 -0.5560 -1.3672 -1.6262
 6059TIP3   OH239811   3.033   5.759   8.888  0.1223  0.3257 -0.9210
 6059TIP3    H139812   3.030   5.830   8.824  0.2871  0.6548 -0.5646
 6059TIP3    H239813   3.029   5.803   8.973 -1.3879 -0.1749 -0.7043
 6060TIP3   OH239814   0.532   2.448   0.708  0.2377 -0.1508  0.1082
 6060TIP3    H139815   0.465   2.404   0.654  0.5343 -1.9590  1.1268
 6060TIP3    H239816   0.614   2.404   0.685  0.2133 -1.7818  2.7600
 6061TIP3   OH239817   0.858   1.444   2.604 -0.6296  0.5217 -0.6471
 6061TIP3    H139818   0.768   1.473   2.618 -1.1955 -1.5314  0.3890
 6061TIP3    H239819   0.897   1.441   2.691 -0.5609 -1.5047 -0.6916
 6062TIP3   OH239820   6.041   5.585   7.888 -0.0080  0.4899  0.0793
 6062TIP3    H139821   6.129   5.571   7.854 -0.3148 -0.3471 -0.3939
 6062TIP3    H239822   6.044   5.673   7.927  0.9360  0.6021 -0.2211
 6063TIP3   OH239823   5.363   5.667   1.750 -0.1004  0.1445  0.5668
 6063TIP3    H139824   5.323   5.732   1.808  0.1798 -0.1000  1.0382
 6063TIP3    H239825   5.344   5.583   1.792 -1.6165 -0.1975 -0.7194
 6064TIP3   OH239826   1.956   0.553   7.500  0.0615  0.0718 -0.1391
 6064TIP3    H139827   1.876   0.606   7.502 -0.7236 -1.0559 -0.6266
 6064TIP3    H239828   2.008   0.589   7.429 -0.0381  0.7720  0.1384
 6065TIP3   OH239829   1.019   4.876   1.138  0.3622  0.1874 -0.8853
 6065TIP3    H139830   0.944   4.817   1.143 -0.0344  0.7674  1.2212
 6065TIP3    H239831   0.983   4.958   1.103  0.0082  0.4269  0.0128
 6066TIP3   OH239832   1.871   1.814   6.875 -0.5544 -0.0107  0.1102
 6066TIP3    H139833   1.856   1.891   6.821  2.2077  1.0616  0.7061
 6066TIP3    H239834   1.852   1.740   6.817 -1.8833  1.0618 -0.9054
 6067TIP3   OH239835   1.311   2.107   1.665  0.4793  0.2932 -0.1315
 6067TIP3    H139836   1.350   2.136   1.582 -0.1418  1.8589  0.0834
 6067TIP3    H239837   1.339   2.174   1.728 -0.7356  0.2422  0.4788
 6068TIP3   OH239838   2.574   2.390   1.594  0.2778 -0.1277  0.3270
 6068TIP3    H139839   2.503   2.408   1.532  0.5091 -2.2192 -0.6502
 6068TIP3    H239840   2.651   2.375   1.538  0.4258 -2.3745  1.0200
 6069TIP3   OH239841   6.509   3.889   2.097 -0.8435 -0.5564  0.0072
 6069TIP3    H139842   6.513   3.898   2.002 -2.0833 -1.7511 -0.1867
 6069TIP3    H239843   6.490   3.978   2.128  2.0401  0.3861 -0.6142
 6070TIP3   OH239844   3.872   5.550   6.913 -0.2570  0.5043 -0.5585
 6070TIP3    H139845   3.939   5.596   6.863  0.4911 -0.9938 -0.9868
 6070TIP3    H239846   3.892   5.458   6.901  2.0482 -0.1330  5.1158
 6071TIP3   OH239847   4.157   2.221   8.695 -0.1615 -0.5874 -0.3550
 6071TIP3    H139848   4.068   2.205   8.726 -0.5124  0.0400 -1.0187
 6071TIP3    H239849   4.146   2.263   8.610  0.7268  0.8164  0.1781
 6072TIP3   OH239850   3.892   3.223   2.286  0.0985  0.5028  0.0644
 6072TIP3    H139851   3.919   3.215   2.377  0.2151 -0.3236 -0.0411
 6072TIP3    H239852   3.915   3.314   2.263  0.4592  0.5851  0.7245
 6073TIP3   OH239853   2.465   1.266   0.177 -0.8718  0.4237 -0.0170
 6073TIP3    H139854   2.545   1.314   0.159 -2.8152  3.4363 -1.5291
 6073TIP3    H239855   2.430   1.243   0.091 -2.4140  0.6968  0.4970
 6074TIP3   OH239856   6.234   5.492   8.691 -0.0751  0.3004  0.3302
 6074TIP3    H139857   6.163   5.433   8.665 -1.6708  2.5881 -0.9205
 6074TIP3    H239858   6.314   5.449   8.661 -1.2173 -0.9754 -1.0114
 6075TIP3   OH239859   2.251   1.172   8.889  0.1867  0.4345 -0.3907
 6075TIP3    H139860   2.268   1.257   8.849 -0.0414  1.0340  0.7344
 6075TIP3    H239861   2.314   1.112   8.848 -0.2948  0.9142 -1.9003
 6076TIP3   OH239862   0.167   4.431   1.056  0.0256  0.5778  0.1726
 6076TIP3    H139863   0.093   4.379   1.023 -0.2062 -0.5275  2.2015
 6076TIP3    H239864   0.139   4.457   1.144  1.3097  1.7779  0.2522
 6077TIP3   OH239865   3.197   1.545   8.493 -0.1060  0.0124 -0.0483
 6077TIP3    H139866   3.178   1.595   8.415 -0.4190  1.0798  0.6915
 6077TIP3    H239867   3.118   1.494   8.510 -0.8335  1.3401  0.7109
 6078TIP3   OH239868   5.357   6.697   8.616 -0.3092 -0.1683 -0.1673
 6078TIP3    H139869   5.372   6.643   8.538  0.8081 -2.3824  1.4718
 6078TIP3    H239870   5.445   6.715   8.649 -0.7888  0.3407  0.8399
 6079TIP3   OH239871   2.941   1.801   1.940 -0.1894  0.0814 -0.5082
 6079TIP3    H139872   2.890   1.838   1.869  0.5180  0.8495 -0.6469
 6079TIP3    H239873   2.879   1.792   2.012 -0.8891 -0.6214 -1.1837
 6080TIP3   OH239874   4.414   1.909   1.377  0.0129  0.0871 -0.1501
 6080TIP3    H139875   4.354   1.835   1.369  0.0681 -0.1179  1.2027
 6080TIP3    H239876   4.357   1.983   1.398 -0.0687  0.5093 -1.7075
 6081TIP3   OH239877   4.050   5.500   8.211  0.0100 -0.5686  0.2182
 6081TIP3    H139878   4.026   5.441   8.283  0.8241 -0.4567  0.5916
 6081TIP3    H239879   4.076   5.441   8.140 -2.8183 -0.7708 -0.8048
 6082TIP3   OH239880   5.005   1.903   0.912  0.5590  0.3585 -0.5234
 6082TIP3    H139881   5.034   1.892   1.003  1.8390 -0.4425 -0.9904
 6082TIP3    H239882   4.954   1.984   0.912 -0.8830 -0.5081  1.2180
 6083TIP3   OH239883   1.506   5.709   0.380 -0.4473  0.4862 -0.3659
 6083TIP3    H139884   1.509   5.802   0.405  0.1024  0.3906 -0.0751
 6083TIP3    H239885   1.535   5.708   0.289  3.9849  0.1648  0.8237
 6084TIP3   OH239886   3.658   0.244   2.561 -0.1186  0.2709  0.3455
 6084TIP3    H139887   3.607   0.226   2.482 -0.9048  1.9364  0.4202
 6084TIP3    H239888   3.729   0.180   2.560 -1.0573 -0.7986 -0.8307
 6085TIP3   OH239889   0.021   1.776   0.440  0.6449  0.4814 -0.3429
 6085TIP3    H139890  -0.065   1.801   0.406 -0.2968  1.2837  2.4128
 6085TIP3    H239891   0.039   1.839   0.509  2.7695 -0.6171  0.1891
 6086TIP3   OH239892   2.732   6.562   7.645 -0.0583 -0.5124 -0.5582
 6086TIP3    H139893   2.769   6.588   7.729 -1.0663 -3.3752  0.8990
 6086TIP3    H239894   2.695   6.643   7.609 -0.8758  0.5582  2.4475
 6087TIP3   OH239895   2.869   1.182   0.997 -0.0873 -0.0797 -0.2617
 6087TIP3    H139896   2.792   1.150   0.950 -0.1412  0.9423 -0.9105
 6087TIP3    H239897   2.885   1.269   0.960  1.7142 -0.4746 -0.5126
 6088TIP3   OH239898   2.844   3.913   1.039  0.5100 -0.3219 -0.0677
 6088TIP3    H139899   2.896   3.962   1.103  0.1429 -1.4435  1.1229
 6088TIP3    H239900   2.778   3.976   1.008 -0.1289 -0.0986  1.6454
 6089TIP3   OH239901   1.906   2.706   2.304 -0.2210  0.7052 -0.2133
 6089TIP3    H139902   1.857   2.722   2.385 -0.4506  1.7669 -0.5486
 6089TIP3    H239903   1.975   2.645   2.330 -0.1945  1.1573  0.8204
 6090TIP3   OH239904   1.217   5.805   7.099  0.1868  0.5716  0.2954
 6090TIP3    H139905   1.185   5.807   7.009  0.9239  1.3170  0.0472
 6090TIP3    H239906   1.310   5.826   7.093  0.2519  0.6005  1.2305
 6091TIP3   OH239907   3.471   0.527   7.309 -0.8692 -0.0438  0.3272
 6091TIP3    H139908   3.465   0.574   7.392 -1.6431 -0.6931  0.6552
 6091TIP3    H239909   3.537   0.575   7.258 -1.0364  0.8809  0.9695
 6092TIP3   OH239910   0.584   3.952   2.308  0.3110 -0.0047  0.1147
 6092TIP3    H139911   0.499   3.923   2.274  0.8578 -0.5415 -0.8557
 6092TIP3    H239912   0.605   4.030   2.257 -0.3865  1.2066  1.5819
 6093TIP3   OH239913   0.555   5.866   7.672 -0.0749  0.2373  0.2055
 6093TIP3    H139914   0.531   5.922   7.599  0.7931  1.2920  0.6880
 6093TIP3    H239915   0.474   5.821   7.696 -0.5076  0.3551 -0.9803
 6094TIP3   OH239916   1.776   0.407   1.403 -0.6136  0.0067  0.1061
 6094TIP3    H139917   1.840   0.425   1.472 -2.2279  1.1823  1.3798
 6094TIP3    H239918   1.767   0.312   1.402  2.2115 -0.3458 -1.1702
 6095TIP3   OH239919   4.018   6.815   8.825 -0.3740  0.2298 -0.1586
 6095TIP3    H139920   4.093   6.873   8.831  0.7938 -1.2234 -0.2865
 6095TIP3    H239921   4.054   6.727   8.836 -1.9775 -0.5404 -0.7278
 6096TIP3   OH239922   6.213   1.328   8.733  0.0830 -0.3376  0.0299
 6096TIP3    H139923   6.237   1.343   8.641 -0.6498  0.6309 -0.0218
 6096TIP3    H239924   6.296   1.324   8.779  0.4280  1.2194 -0.3945
 6097TIP3   OH239925   6.574   2.390   2.636  0.4707 -0.2048 -0.1089
 6097TIP3    H139926   6.482   2.363   2.641  0.3366  0.2544  0.0019
 6097TIP3    H239927   6.624   2.309   2.646  0.1167 -0.2301  2.1614
 6098TIP3   OH239928   6.711   6.193   0.321  0.6845  0.2092  0.1726
 6098TIP3    H139929   6.778   6.208   0.255  1.5258  1.6440  1.2921
 6098TIP3    H239930   6.758   6.193   0.404 -0.3566 -1.4668  0.8315
 6099TIP3   OH239931   5.088   1.334   7.633 -0.5981 -0.6285  0.6263
 6099TIP3    H139932   5.135   1.415   7.648 -0.7913 -0.5268  0.6919
 6099TIP3    H239933   5.090   1.289   7.718  1.5367 -1.7861  0.0211
 6100TIP3   OH239934   3.281   4.607   8.325  0.1645  0.2274 -0.6922
 6100TIP3    H139935   3.331   4.611   8.407  0.3982 -0.0642 -0.8171
 6100TIP3    H239936   3.325   4.539   8.274 -0.3904 -0.0606 -0.7912
 6101TIP3   OH239937   0.974   6.596   0.991 -0.3166 -0.7326  0.4737
 6101TIP3    H139938   1.061   6.557   0.990  0.0410  0.0285  0.6892
 6101TIP3    H239939   0.923   6.540   1.050 -0.1140 -1.4547 -0.0265
 6102TIP3   OH239940   2.743   5.297   8.071 -0.3977  0.2560 -0.1117
 6102TIP3    H139941   2.729   5.281   7.977  2.0175 -1.1120 -0.3293
 6102TIP3    H239942   2.799   5.375   8.074 -0.4460  0.2798  0.1781
 6103TIP3   OH239943   2.538   0.210   1.392 -0.1262  0.1763  0.2857
 6103TIP3    H139944   2.578   0.270   1.329  0.7765  0.7315  1.3516
 6103TIP3    H239945   2.465   0.170   1.345  0.5235  0.5877 -1.0918
 6104TIP3   OH239946   2.804   0.692   8.821  0.5526  0.1763 -0.5186
 6104TIP3    H139947   2.716   0.659   8.805  0.8119 -0.3141 -0.9488
 6104TIP3    H239948   2.850   0.680   8.738  1.2862 -0.3954 -0.0446
 6105TIP3   OH239949   5.254   2.140   8.030  0.3055  0.2070 -0.0778
 6105TIP3    H139950   5.337   2.185   8.046  0.4432  0.1233 -0.5575
 6105TIP3    H239951   5.242   2.144   7.936 -0.3252  0.3671  0.0056
 6106TIP3   OH239952   3.222   4.574   0.386  0.2002 -0.1434  0.2545
 6106TIP3    H139953   3.222   4.642   0.453 -0.5358 -0.3657  0.4866
 6106TIP3    H239954   3.130   4.565   0.360  0.3064 -0.9620  0.1367
 6107TIP3   OH239955   0.987   1.811   7.342  0.2591  0.1767  0.2894
 6107TIP3    H139956   1.015   1.832   7.253  3.0408 -0.5978  0.8998
 6107TIP3    H239957   0.987   1.895   7.387  0.6710  0.3178  0.0275
 6108TIP3   OH239958   3.349   0.661   7.624 -0.2850 -0.2863  0.2584
 6108TIP3    H139959   3.331   0.698   7.538 -0.6859  0.2901  0.5824
 6108TIP3    H239960   3.275   0.689   7.678  0.3712  0.0657  0.9966
 6109TIP3   OH239961   6.661   5.315   7.842  0.2179  0.4926  0.1325
 6109TIP3    H139962   6.610   5.333   7.763  0.4338  2.0046  0.2931
 6109TIP3    H239963   6.601   5.333   7.914  0.8013  1.8512  0.3181
 6110TIP3   OH239964   0.629   6.553   0.306  0.6760  0.0251  0.4436
 6110TIP3    H139965   0.583   6.473   0.330  1.5598 -0.3349  1.0032
 6110TIP3    H239966   0.562   6.608   0.265  0.1011 -1.0586 -0.1017
 6111TIP3   OH239967   2.592   2.612   8.845  0.1369  0.1074 -0.4721
 6111TIP3    H139968   2.574   2.518   8.843  1.4048 -0.1528 -0.4177
 6111TIP3    H239969   2.657   2.626   8.777  1.5321  0.5747  0.8945
 6112TIP3   OH239970   5.682   3.311   7.406 -0.6628  0.4699  0.1433
 6112TIP3    H139971   5.631   3.328   7.327 -0.9937 -0.1025  0.2273
 6112TIP3    H239972   5.773   3.317   7.377 -0.7804  0.1910 -0.2991
 6113TIP3   OH239973   6.357   4.787   1.374 -0.0700  0.0356 -0.3156
 6113TIP3    H139974   6.447   4.764   1.398 -0.0744 -0.2206 -0.5454
 6113TIP3    H239975   6.353   4.882   1.385  0.5512  0.2008 -1.3597
 6114TIP3   OH239976   2.377   2.940   1.798  0.1835  0.2635  0.0986
 6114TIP3    H139977   2.298   2.986   1.770  0.1488  1.0453  1.4006
 6114TIP3    H239978   2.448   2.982   1.750 -0.1421 -0.2173 -0.8223
 6115TIP3   OH239979   1.032   5.919   1.022 -0.3545  0.3558 -0.5915
 6115TIP3    H139980   1.087   5.875   0.956  1.4042 -0.0195  1.0276
 6115TIP3    H239981   1.067   6.008   1.027 -0.9269  0.5847 -0.6465
 6116TIP3   OH239982   1.868   2.473   8.542 -0.9736 -0.2538  0.0577
 6116TIP3    H139983   1.908   2.557   8.519 -0.1938 -1.2423 -2.5688
 6116TIP3    H239984   1.865   2.474   8.638  1.5760  1.6108  0.2395
 6117TIP3   OH239985   2.400   4.747   8.802  0.3793  0.1750  0.0523
 6117TIP3    H139986   2.419   4.798   8.723 -1.2516  0.2587 -0.3238
 6117TIP3    H239987   2.361   4.810   8.863  3.1304  0.4889  1.6230
 6118TIP3   OH239988   2.967   0.659   8.566  0.8843 -0.1555  0.2186
 6118TIP3    H139989   2.932   0.668   8.477  3.0306  3.2837 -0.4849
 6118TIP3    H239990   3.026   0.584   8.561  0.2978 -0.5610 -1.0182
 6119TIP3   OH239991   3.779   6.700   7.160  0.3519  0.1435  0.2384
 6119TIP3    H139992   3.837   6.653   7.100  0.5571  0.0286  0.5215
 6119TIP3    H239993   3.801   6.792   7.148  0.1568  0.1460 -0.1045
 6120TIP3   OH239994   4.473   5.588   0.238  0.3552  0.2863  0.1914
 6120TIP3    H139995   4.410   5.578   0.309 -0.4752 -2.1739 -0.7782
 6120TIP3    H239996   4.422   5.572   0.158  2.3488 -3.3741 -0.5704
 6121TIP3   OH239997   3.499   5.748   2.374 -0.2975  0.2029  0.4705
 6121TIP3    H139998   3.548   5.696   2.311 -0.1673 -1.0373  1.5609
 6121TIP3    H239999   3.430   5.690   2.405 -1.2055  1.2465  0.4852
 6122TIP3   OH240000   3.654   5.992   0.601 -0.2046 -0.0447 -0.1530
 6122TIP3    H140001   3.637   6.041   0.682 -1.3531 -0.8502  0.1186
 6122TIP3    H240002   3.694   5.910   0.630  3.3859  1.3455 -0.7142
 6123TIP3   OH240003   0.113   6.058   2.214  0.0363  0.0182 -0.7146
 6123TIP3    H140004   0.133   5.972   2.249 -0.0864 -0.4531 -1.7546
 6123TIP3    H240005   0.057   6.099   2.280  2.2999  0.4036  1.0874
 6124TIP3   OH240006   6.706   1.520   2.473  0.6805  0.2100 -0.6140
 6124TIP3    H140007   6.752   1.452   2.521  0.9352 -1.0537 -2.5428
 6124TIP3    H240008   6.693   1.590   2.537  0.0599 -1.7709  1.5661
 6125TIP3   OH240009   1.075   6.668   8.882 -0.1198  0.3336  0.4457
 6125TIP3    H140010   1.166   6.641   8.868 -0.0815  0.5827  0.2128
 6125TIP3    H240011   1.026   6.585   8.884 -0.3461  0.2698 -2.7275
 6126TIP3   OH240012   6.020   1.294   8.169  0.0470 -0.2243  0.0324
 6126TIP3    H140013   5.995   1.357   8.236  0.7798  0.0951  0.0065
 6126TIP3    H240014   5.942   1.239   8.158 -0.4184  0.3520  0.4181
 6127TIP3   OH240015   2.427   3.255   7.403  0.5616  0.4874 -0.3699
 6127TIP3    H140016   2.444   3.336   7.355 -0.8132  0.5627 -0.7826
 6127TIP3    H240017   2.484   3.191   7.362  1.6391  1.2187 -0.0687
 6128TIP3   OH240018   3.798   1.133   1.758  0.4216  0.0816  0.6801
 6128TIP3    H140019   3.812   1.089   1.842 -1.2919  1.0583  1.5247
 6128TIP3    H240020   3.809   1.226   1.777  0.6166  0.2726 -0.3258
 6129TIP3   OH240021   3.369   2.064   1.154  0.5416  0.1878  0.6895
 6129TIP3    H140022   3.294   2.093   1.103  0.9191 -0.4366 -0.2422
 6129TIP3    H240023   3.386   2.136   1.215 -0.2509  0.7099  0.3034
 6130TIP3   OH240024   4.547   6.271   6.858 -0.7616 -0.2841  0.0933
 6130TIP3    H140025   4.567   6.219   6.780 -1.9087  0.9052 -1.0327
 6130TIP3    H240026   4.541   6.206   6.929  1.2825 -1.2893 -0.5609
 6131TIP3   OH240027   6.067   4.696   7.316  0.5395 -0.3789  0.2063
 6131TIP3    H140028   6.022   4.624   7.361  1.9703 -1.8752 -0.6994
 6131TIP3    H240029   6.157   4.667   7.307  0.6696  0.5528 -2.2009
 6132TIP3   OH240030   0.978   4.199   8.059  0.0863 -0.2441  0.0221
 6132TIP3    H140031   1.073   4.210   8.058  0.1385 -0.3854  1.5522
 6132TIP3    H240032   0.945   4.278   8.015  0.8709  0.6491  0.9640
 6133TIP3   OH240033   3.981   3.300   0.559  0.3823 -0.0590  0.3273
 6133TIP3    H140034   3.886   3.308   0.567  0.4035 -0.1219  0.6803
 6133TIP3    H240035   3.995   3.209   0.532  0.3712 -0.2641  0.9758
 6134TIP3   OH240036   4.840   4.462   8.850  0.5173  0.2535  0.2115
 6134TIP3    H140037   4.887   4.544   8.833  0.0263  0.2408 -1.3668
 6134TIP3    H240038   4.782   4.483   8.923  1.8472  0.7034  1.1878
 6135TIP3   OH240039   2.356   6.373   7.645  0.4775  0.0113  0.0454
 6135TIP3    H140040   2.448   6.379   7.669  0.9621 -0.3754 -1.6259
 6135TIP3    H240041   2.337   6.279   7.645  0.0649  0.0876  0.3713
 6136TIP3   OH240042   5.880   5.099   0.357  0.0245 -0.4633 -0.1827
 6136TIP3    H140043   5.800   5.117   0.308  0.1325  1.0474  0.1366
 6136TIP3    H240044   5.857   5.117   0.448  0.2427 -1.7827  0.1546
 6137TIP3   OH240045   1.226   1.359   7.480  0.0658  0.1351  0.0685
 6137TIP3    H140046   1.265   1.339   7.395  0.4529  0.5857  0.1433
 6137TIP3    H240047   1.210   1.453   7.478 -2.8123 -0.2610 -0.7310
 6138TIP3   OH240048   1.721   5.525   1.144  0.0258  0.2427 -0.0518
 6138TIP3    H140049   1.673   5.588   1.091  0.1227  0.1211 -0.2868
 6138TIP3    H240050   1.714   5.443   1.096  2.4641  0.6931 -1.3574
 6139TIP3   OH240051   6.053   0.301   1.500 -0.3097 -0.1539 -0.5105
 6139TIP3    H140052   6.136   0.345   1.517 -0.3424 -0.2134 -0.2018
 6139TIP3    H240053   6.006   0.361   1.442  0.8259 -1.0774 -2.4959
 6140TIP3   OH240054   1.394   4.625   1.243 -0.4555  0.3412 -0.7983
 6140TIP3    H140055   1.437   4.693   1.294 -1.0823  1.6028 -1.9045
 6140TIP3    H240056   1.397   4.656   1.152 -1.3594 -0.7816 -1.2483
 6141TIP3   OH240057   5.041   5.869   0.743 -0.4921 -0.0818 -0.1225
 6141TIP3    H140058   5.034   5.785   0.697 -0.8284 -0.0741 -0.0851
 6141TIP3    H240059   5.003   5.933   0.682  1.8068  0.4219 -1.1355
 6142TIP3   OH240060   4.244   2.503   1.491  0.4160  0.0369  0.1592
 6142TIP3    H140061   4.182   2.477   1.559  0.9217 -0.9389  0.2563
 6142TIP3    H240062   4.280   2.421   1.458  0.8991  0.5466 -0.6082
 6143TIP3   OH240063   3.008   0.830   2.502 -0.5347 -0.4351  0.1585
 6143TIP3    H140064   3.037   0.918   2.479 -0.1983 -0.9390 -1.4939
 6143TIP3    H240065   3.089   0.783   2.522 -0.7952 -0.0943  2.2455
 6144TIP3   OH240066   3.930   3.652   1.145 -0.3707  0.5300  0.6051
 6144TIP3    H140067   3.889   3.604   1.218 -0.0518  2.4379  2.1059
 6144TIP3    H240068   3.866   3.720   1.122 -0.0723  0.5144 -0.3049
 6145TIP3   OH240069   0.927   5.993   7.619  0.1691 -0.0458 -0.0709
 6145TIP3    H140070   0.852   6.031   7.573  0.7421  1.9086  0.5056
 6145TIP3    H240071   0.952   5.917   7.566 -0.5899  0.8030 -1.7195
 6146TIP3   OH240072   4.934   3.911   0.344 -0.6164  0.0088  0.4738
 6146TIP3    H140073   4.933   4.003   0.370  0.6096  0.2964 -0.4331
 6146TIP3    H240074   5.015   3.876   0.380  0.3862  0.0443 -1.6247
 6147TIP3   OH240075   4.031   5.997   8.729  0.8207 -0.2295  0.4120
 6147TIP3    H140076   4.009   5.996   8.635 -1.1346  0.9745  0.8039
 6147TIP3    H240077   4.044   5.905   8.751 -0.3741 -0.7033 -0.7042
 6148TIP3   OH240078   6.394   2.739   2.099 -1.0328 -0.6296 -0.1420
 6148TIP3    H140079   6.372   2.756   2.008  2.1098 -0.7696 -1.0378
 6148TIP3    H240080   6.444   2.657   2.097  1.0875  0.5335  1.3345
 6149TIP3   OH240081   5.232   5.163   7.443 -0.2333  0.0709  0.4632
 6149TIP3    H140082   5.307   5.109   7.419 -0.2976  0.3034 -0.3067
 6149TIP3    H240083   5.257   5.203   7.527  1.2256  1.4333 -0.5582
 6150TIP3   OH240084   0.298   5.375   1.395  0.0756 -0.1794  0.0106
 6150TIP3    H140085   0.300   5.437   1.322  1.6897  0.3329  0.4450
 6150TIP3    H240086   0.357   5.304   1.367 -2.8951 -2.4132 -1.1543
 6151TIP3   OH240087   0.717   4.371   6.727 -0.1704 -0.2839 -0.1905
 6151TIP3    H140088   0.625   4.390   6.709 -0.7528 -0.0356  2.6178
 6151TIP3    H240089   0.717   4.281   6.759  0.3822  0.0707  0.8540
 6152TIP3   OH240090   0.934   3.842   1.689 -0.4348 -0.0754  0.0157
 6152TIP3    H140091   1.027   3.855   1.708 -0.4244  0.1137 -0.1641
 6152TIP3    H240092   0.931   3.763   1.634 -0.3352  0.2144 -0.4047
 6153TIP3   OH240093   1.190   3.913   8.566  0.5546 -0.2910 -0.1836
 6153TIP3    H140094   1.150   3.927   8.480  0.3659 -0.2140 -0.0829
 6153TIP3    H240095   1.212   3.820   8.568  2.1946  0.0503 -1.0259
 6154TIP3   OH240096   3.865   4.012   7.504 -0.5571 -0.3593 -0.3189
 6154TIP3    H140097   3.935   4.007   7.569  0.0993  1.1919 -0.8517
 6154TIP3    H240098   3.876   3.933   7.451  0.6247 -0.2840 -0.2082
 6155TIP3   OH240099   6.427   2.335   0.490 -0.2131  0.2116 -0.3527
 6155TIP3    H140100   6.341   2.299   0.510  0.1778 -0.8590 -0.4955
 6155TIP3    H240101   6.458   2.372   0.572 -1.2361  1.5611 -0.5497
 6156TIP3   OH240102   2.642   0.522   7.106 -0.7381  0.0145 -0.3538
 6156TIP3    H140103   2.719   0.468   7.126  0.7239  2.3838  0.9008
 6156TIP3    H240104   2.643   0.529   7.011  2.0297  1.7650 -0.3123
 6157TIP3   OH240105   5.243   5.905   1.822  0.0159 -1.3068  0.2876
 6157TIP3    H140106   5.163   5.886   1.773 -0.3618 -0.4789  0.5619
 6157TIP3    H240107   5.280   5.981   1.778  0.1474 -1.1055  0.7368
 6158TIP3   OH240108   2.741   6.396   8.538 -0.2410  0.2428  0.3526
 6158TIP3    H140109   2.687   6.449   8.598  1.6090  2.5510  0.1393
 6158TIP3    H240110   2.813   6.365   8.592  0.2006  0.3712 -0.1606
 6159TIP3   OH240111   2.339   6.600   0.274  0.5159 -0.4515 -0.4397
 6159TIP3    H140112   2.376   6.654   0.343  1.0362  0.1502 -1.1759
 6159TIP3    H240113   2.415   6.573   0.221  0.0162  0.0737 -1.4542
 6160TIP3   OH240114   6.460   0.769   1.444 -0.5022 -0.2500 -0.2709
 6160TIP3    H140115   6.483   0.682   1.477  0.5906  0.0699 -0.1370
 6160TIP3    H240116   6.496   0.829   1.509 -1.4076  0.3059 -0.2696
 6161TIP3   OH240117   2.539   2.136   8.138  0.3539 -0.4204 -0.0204
 6161TIP3    H140118   2.526   2.045   8.111 -0.0648 -0.2520 -0.4008
 6161TIP3    H240119   2.588   2.130   8.220 -0.7663 -1.0271  0.6235
 6162TIP3   OH240120   4.902   4.457   1.903 -0.3604 -0.0265 -0.8896
 6162TIP3    H140121   4.846   4.475   1.828 -1.8402  1.7473  0.5343
 6162TIP3    H240122   4.841   4.450   1.977  1.1939  0.4161  0.4889
 6163TIP3   OH240123   3.863   4.812   1.251 -0.5919 -0.5081 -1.0910
 6163TIP3    H140124   3.785   4.773   1.291 -1.2969  0.1859 -1.7481
 6163TIP3    H240125   3.857   4.788   1.158 -0.1664 -0.2381 -1.1913
 6164TIP3   OH240126   5.849   5.742   8.451 -0.0980 -0.2543  0.1446
 6164TIP3    H140127   5.925   5.729   8.507  2.2375 -0.3572 -2.8005
 6164TIP3    H240128   5.804   5.657   8.450  0.7444 -0.7119  0.6080
 6165TIP3   OH240129   2.416   2.709   7.213  0.4437  0.6988  0.0644
 6165TIP3    H140130   2.456   2.790   7.243  3.4136 -1.1001  1.5018
 6165TIP3    H240131   2.331   2.706   7.256  0.6366  2.6283  0.6481
 6166TIP3   OH240132   5.660   2.605   7.652  0.2020 -0.3537  0.2985
 6166TIP3    H140133   5.620   2.624   7.568  0.7312  0.2695  0.1744
 6166TIP3    H240134   5.689   2.514   7.646 -1.0962 -0.7919  0.3634
 6167TIP3   OH240135   2.575   4.773   0.943  0.2013  0.0615 -0.4333
 6167TIP3    H140136   2.546   4.810   0.859 -0.1692  0.7406 -0.0233
 6167TIP3    H240137   2.519   4.816   1.008 -0.8130 -1.8209  0.0186
 6168TIP3   OH240138   6.129   3.113   2.087  0.6060  0.3950  0.0649
 6168TIP3    H140139   6.115   3.046   2.020  0.4013  0.1137  0.3840
 6168TIP3    H240140   6.119   3.196   2.041 -2.7987  0.2825  0.2986
 6169TIP3   OH240141   2.993   3.827   7.730  0.4649 -0.3816  0.1407
 6169TIP3    H140142   3.016   3.874   7.650 -2.3513  0.8004 -0.1345
 6169TIP3    H240143   2.914   3.778   7.707  0.5205 -1.3196  1.7851
 6170TIP3   OH240144   6.031   2.348   1.117 -0.0771  0.1978  0.1893
 6170TIP3    H140145   6.048   2.257   1.143 -2.1150  0.4063  2.5518
 6170TIP3    H240146   5.994   2.340   1.029  0.5612 -1.1581  0.0088
 6171TIP3   OH240147   3.624   5.097   7.899 -0.0661 -0.2206 -0.1581
 6171TIP3    H140148   3.661   5.151   7.969 -0.7820 -0.3082  0.3103
 6171TIP3    H240149   3.658   5.009   7.916  1.5603  0.1564 -1.2580
 6172TIP3   OH240150   5.967   6.550   0.789  0.0891  0.4637 -0.3129
 6172TIP3    H140151   5.962   6.488   0.862  1.4813  1.6383  0.8570
 6172TIP3    H240152   5.912   6.512   0.721 -0.9370 -0.9021  1.1930
 6173TIP3   OH240153   3.226   2.546   8.281  0.3545 -0.4747 -0.0282
 6173TIP3    H140154   3.239   2.524   8.373  0.0992 -2.3166 -0.4045
 6173TIP3    H240155   3.314   2.558   8.246  0.4240  1.1048  0.6318
 6174TIP3   OH240156   1.050   0.133   6.881 -0.5166 -0.5688 -0.4505
 6174TIP3    H140157   0.975   0.084   6.850 -1.1204  1.0400 -1.6691
 6174TIP3    H240158   1.013   0.210   6.925  0.4035 -0.5807  0.3965
 6175TIP3   OH240159   1.865   5.374   2.309  0.3183 -0.4888 -0.3003
 6175TIP3    H140160   1.797   5.376   2.241 -0.7116  1.0759  0.6887
 6175TIP3    H240161   1.911   5.458   2.300 -0.0856 -0.0701  1.1093
 6176TIP3   OH240162   0.204   0.218   1.310 -0.3831 -0.0621 -0.0229
 6176TIP3    H140163   0.211   0.177   1.397  0.0907  0.0540 -0.0079
 6176TIP3    H240164   0.182   0.310   1.329 -0.5324 -0.0938 -0.0360
 6177TIP3   OH240165   0.538   4.883   1.224 -0.1883 -0.4660 -0.2965
 6177TIP3    H140166   0.564   4.830   1.298  0.0724 -0.6080 -0.4890
 6177TIP3    H240167   0.502   4.821   1.161 -0.1250 -0.3844 -0.4139
 6178TIP3   OH240168   1.300   4.124   2.179  0.1415 -0.1718  0.2705
 6178TIP3    H140169   1.304   4.050   2.240 -0.9296  1.0243  1.8837
 6178TIP3    H240170   1.303   4.201   2.235  1.1648  1.0349 -1.3682
 6179TIP3   OH240171   1.750   5.559   7.653 -0.2411  0.0142  0.1652
 6179TIP3    H140172   1.723   5.600   7.735  2.2144  0.4079  0.8700
 6179TIP3    H240173   1.736   5.627   7.586  1.4053  1.1896  0.9303
 6180TIP3   OH240174   5.858   0.600   8.256  0.0571  0.3140 -0.5728
 6180TIP3    H140175   5.798   0.667   8.288  0.6633  1.1155 -1.0994
 6180TIP3    H240176   5.942   0.621   8.296 -0.0904 -1.1283  0.6075
 6181TIP3   OH240177   0.767   2.121   7.949  0.0418 -0.4362  0.0251
 6181TIP3    H140178   0.842   2.065   7.928  0.7019  0.9458 -1.5055
 6181TIP3    H240179   0.694   2.080   7.904  0.2053 -0.9032  0.1810
 6182TIP3   OH240180   2.333   6.699   0.706 -0.9150 -0.9503  0.4535
 6182TIP3    H140181   2.308   6.750   0.630  0.3114  0.5580  1.0143
 6182TIP3    H240182   2.382   6.625   0.670  0.9153  0.5166 -0.1864
 6183TIP3   OH240183   5.130   4.993   2.697  0.3604  0.2210 -0.3436
 6183TIP3    H140184   5.047   5.015   2.741  0.4106 -0.5532  0.1709
 6183TIP3    H240185   5.142   4.900   2.715  1.3068  0.3059 -0.4852
 6184TIP3   OH240186   1.826   1.430   7.062 -0.8993  0.1516  0.0281
 6184TIP3    H140187   1.852   1.353   7.011 -0.9186 -1.3987  2.2105
 6184TIP3    H240188   1.902   1.488   7.059  0.2126 -1.2204  0.6121
 6185TIP3   OH240189   6.505   4.700   7.905 -0.5148 -0.4546  0.0323
 6185TIP3    H140190   6.482   4.730   7.817  0.3016  0.5906  0.1599
 6185TIP3    H240191   6.587   4.652   7.894  0.2124  0.6744  0.3679
 6186TIP3   OH240192   5.181   1.298   2.997  0.1046 -0.1776  0.0872
 6186TIP3    H140193   5.235   1.222   2.977 -1.1815 -1.4573  1.2937
 6186TIP3    H240194   5.196   1.316   3.089 -1.6302 -0.6967  0.5137
 6187TIP3   OH240195   3.086   3.249   0.320 -0.4166 -0.4555 -0.0504
 6187TIP3    H140196   3.048   3.310   0.258  0.9451  0.1328 -0.3362
 6187TIP3    H240197   3.127   3.182   0.266  1.3785  0.4274  0.1384
 6188TIP3   OH240198   4.106   0.493   0.418 -0.0836 -0.0995 -0.1219
 6188TIP3    H140199   4.181   0.549   0.441  0.4341 -0.5103 -0.7759
 6188TIP3    H240200   4.116   0.415   0.472  0.2532 -0.3790 -0.5832
 6189TIP3   OH240201   1.058   6.629   7.872 -0.4700  0.2968  0.3489
 6189TIP3    H140202   1.122   6.699   7.882  0.6914 -0.7229  0.3153
 6189TIP3    H240203   0.980   6.661   7.917  0.5331  0.9808  1.6722
 6190TIP3   OH240204   1.749   2.417   2.752  0.7681  0.1255 -0.0477
 6190TIP3    H140205   1.771   2.463   2.671  0.6784 -0.2895 -0.3128
 6190TIP3    H240206   1.661   2.447   2.774  1.0464  0.7277  0.2491
 6191TIP3   OH240207   2.410   1.552   2.188 -0.1129  0.2887 -0.1378
 6191TIP3    H140208   2.318   1.547   2.160 -0.0965  2.8862 -0.9704
 6191TIP3    H240209   2.442   1.634   2.149  2.4837 -0.3899  0.3987
 6192TIP3   OH240210   5.719   1.013   0.734  0.1290  0.5666  0.8712
 6192TIP3    H140211   5.664   1.085   0.764  0.5152  1.8382 -1.2040
 6192TIP3    H240212   5.729   1.029   0.640 -1.2647 -3.2505 -0.0882
 6193TIP3   OH240213   6.816   0.188   2.115 -0.2868 -0.2465  0.2783
 6193TIP3    H140214   6.754   0.252   2.150 -0.0622 -0.6773  1.5015
 6193TIP3    H240215   6.763   0.134   2.056 -1.2098 -0.8448  1.5894
 6194TIP3   OH240216   3.980   3.336   8.557 -0.2751 -0.0559  0.3691
 6194TIP3    H140217   3.907   3.337   8.618  0.5389 -1.5627  1.4220
 6194TIP3    H240218   4.057   3.351   8.611  0.3658 -0.2632 -0.4683
 6195TIP3   OH240219   4.130   3.054   1.148 -0.5065  0.3306 -0.0483
 6195TIP3    H140220   4.046   3.025   1.114 -0.9502  2.1702 -0.6522
 6195TIP3    H240221   4.120   3.149   1.160  1.6260  0.7000 -0.6519
 6196TIP3   OH240222   1.676   2.051   0.386 -0.1792  0.3685  0.3791
 6196TIP3    H140223   1.659   2.100   0.305 -1.3890 -1.2189 -0.3943
 6196TIP3    H240224   1.765   2.017   0.376 -0.1834  0.4991 -0.1202
 6197TIP3   OH240225   6.464   4.441   1.010 -0.0640 -0.1982  0.3066
 6197TIP3    H140226   6.434   4.515   0.957  2.0608 -0.5836 -1.5776
 6197TIP3    H240227   6.559   4.451   1.015  0.0390 -1.4830  2.1403
 6198TIP3   OH240228   1.530   4.450   1.413 -0.2065 -0.2367 -0.2898
 6198TIP3    H140229   1.619   4.427   1.386  0.3368  2.0993 -0.7600
 6198TIP3    H240230   1.490   4.488   1.335 -0.4386  1.7602  0.7246
 6199TIP3   OH240231   1.221   4.089   0.129  0.0081  0.0629 -0.0704
 6199TIP3    H140232   1.193   4.030   0.060  1.5674  0.6567 -1.2901
 6199TIP3    H240233   1.238   4.172   0.084 -0.0064  0.7892  1.2205
 6200TIP3   OH240234   2.857   6.290   0.677 -0.7114  0.3512 -0.1802
 6200TIP3    H140235   2.830   6.198   0.671 -0.7967  0.3328  0.4825
 6200TIP3    H240236   2.938   6.294   0.625  0.1726 -0.4508  1.0831
 6201TIP3   OH240237   1.233   3.944   0.386 -0.6718  0.8058  0.2952
 6201TIP3    H140238   1.310   3.895   0.412 -1.8845 -0.7099  1.2223
 6201TIP3    H240239   1.249   3.969   0.295 -0.1458 -1.7179 -0.3823
 6202TIP3   OH240240   2.126   2.719   1.705  0.2621  0.0131  0.6423
 6202TIP3    H140241   2.196   2.679   1.655  0.9447 -1.4086  2.6051
 6202TIP3    H240242   2.146   2.813   1.706  0.8858 -0.0978 -0.6644
 6203TIP3   OH240243   3.846   6.654   0.943  0.3943  0.0679 -0.6539
 6203TIP3    H140244   3.786   6.718   0.904 -0.0287 -0.6159 -1.1475
 6203TIP3    H240245   3.797   6.618   1.017  0.7849  0.5886 -0.1332
 6204TIP3   OH240246   5.377   2.785   8.375 -0.9631 -0.3472  0.1671
 6204TIP3    H140247   5.391   2.824   8.288 -0.7477  0.7657  0.6879
 6204TIP3    H240248   5.465   2.769   8.409 -1.0351 -0.0958  0.4756
 6205TIP3   OH240249   3.829   1.231   8.890 -0.0194 -0.1873 -0.0606
 6205TIP3    H140250   3.905   1.234   8.947 -0.8157 -2.3788  1.2243
 6205TIP3    H240251   3.754   1.221   8.949 -1.0480 -0.6306 -1.3754
 6206TIP3   OH240252   0.313   1.744   7.669 -0.4060 -0.3836  0.1027
 6206TIP3    H140253   0.265   1.817   7.630 -0.3580 -0.8524 -0.8635
 6206TIP3    H240254   0.303   1.756   7.764  1.0497  1.8508  0.0535
 6207TIP3   OH240255   0.784   2.787   8.439 -0.2298 -0.2404 -0.0415
 6207TIP3    H140256   0.740   2.872   8.449  2.4649  1.3217 -0.5094
 6207TIP3    H240257   0.839   2.779   8.517  0.3805 -1.0295 -0.5337
 6208TIP3   OH240258   3.232   4.157   1.579 -0.2558  0.1422  0.2514
 6208TIP3    H140259   3.214   4.250   1.591 -0.5254  0.1373 -0.1322
 6208TIP3    H240260   3.324   4.154   1.550 -0.3754  0.3136 -0.1458
 6209TIP3   OH240261   2.975   2.252   6.859  0.2195 -0.0452  0.0794
 6209TIP3    H140262   2.893   2.241   6.907  1.4318 -1.3761  1.9897
 6209TIP3    H240263   3.038   2.198   6.907  1.7719 -0.6909 -2.4917
 6210TIP3   OH240264   1.319   3.065   8.243  0.5464 -0.2289 -0.4502
 6210TIP3    H140265   1.315   3.097   8.153  0.4545 -0.7248 -0.6235
 6210TIP3    H240266   1.281   3.136   8.295  1.0598  0.2646 -0.7447
 6211TIP3   OH240267   0.638   2.972   8.268 -0.1275 -0.7067 -0.0608
 6211TIP3    H140268   0.635   2.979   8.172 -0.4037 -0.6482 -0.0490
 6211TIP3    H240269   0.570   2.909   8.289  0.2085 -1.0267  0.0700
 6212TIP3   OH240270   2.575   6.253   0.039  0.0456 -0.0604  0.1872
 6212TIP3    H140271   2.608   6.226   0.125 -2.6186  0.8514  1.5925
 6212TIP3    H240272   2.561   6.171  -0.008 -1.2129 -0.7774  1.7391
 6213TIP3   OH240273   1.658   5.292   7.223 -0.0120  0.7051  0.1333
 6213TIP3    H140274   1.575   5.338   7.215 -0.3117  0.2966  0.8398
 6213TIP3    H240275   1.711   5.326   7.150 -0.5285  1.5121  0.1174
 6214TIP3   OH240276   4.843   6.790   0.754  0.4550 -0.0769  0.1529
 6214TIP3    H140277   4.861   6.880   0.726 -0.3068  0.4058  1.1324
 6214TIP3    H240278   4.772   6.761   0.696  0.0285  0.3147  0.4706
 6215TIP3   OH240279   5.925   4.905   7.182  0.4795  0.0499  0.1442
 6215TIP3    H140280   5.934   4.900   7.087 -1.6861 -0.0988 -0.1004
 6215TIP3    H240281   5.935   4.815   7.213  3.2267  0.3275  0.3591
 6216TIP3   OH240282   2.330   5.828   7.214 -0.1372  0.2985  0.0035
 6216TIP3    H140283   2.327   5.886   7.138  1.8425  0.3648 -0.0742
 6216TIP3    H240284   2.359   5.884   7.286 -0.9148 -0.0101  0.5778
 6217TIP3   OH240285   0.728   6.271   6.526 -0.1177  0.4073 -0.2911
 6217TIP3    H140286   0.633   6.267   6.516 -0.1005  0.6890 -0.5739
 6217TIP3    H240287   0.742   6.281   6.620 -0.3433 -0.2961 -0.1795
 6218TIP3   OH240288   4.103   0.161   1.011  0.0624 -0.3551 -0.3298
 6218TIP3    H140289   4.080   0.076   1.049 -1.5686  0.1244 -0.1496
 6218TIP3    H240290   4.096   0.148   0.917 -1.5357 -0.1164 -0.2772
 6219TIP3   OH240291   6.516   0.625   7.220 -0.9058  0.7184  0.5884
 6219TIP3    H140292   6.464   0.615   7.141 -0.5658  1.1816  0.2949
 6219TIP3    H240293   6.535   0.719   7.225  1.1107  0.4096 -0.1242
 6220TIP3   OH240294   3.986   1.984   2.063  0.5757 -0.2662  0.2051
 6220TIP3    H140295   3.983   2.078   2.080 -0.3588 -0.5095  1.5804
 6220TIP3    H240296   3.917   1.970   1.999 -0.9301 -0.2950  1.7581
 6221TIP3   OH240297   1.044   1.149   0.952  0.6254 -0.1231  0.5268
 6221TIP3    H140298   1.106   1.085   0.918  0.9170  0.7588 -0.6787
 6221TIP3    H240299   0.965   1.099   0.970  0.8605 -0.8267 -0.3554
 6222TIP3   OH240300   1.276   0.219   6.730  0.0087 -0.0852 -1.0161
 6222TIP3    H140301   1.194   0.178   6.758 -0.0714  0.7570  0.0641
 6222TIP3    H240302   1.335   0.207   6.805  0.5384  0.2148 -1.3827
 6223TIP3   OH240303   1.466   3.786   8.817 -0.1594  0.3333 -0.4696
 6223TIP3    H140304   1.530   3.795   8.888 -1.9481 -0.8343  1.3727
 6223TIP3    H240305   1.469   3.870   8.772  1.7756  0.7397  0.3056
 6224TIP3   OH240306   4.818   6.554   8.547  0.1429 -0.2160  0.1013
 6224TIP3    H140307   4.881   6.488   8.577 -1.7065 -3.2493 -2.0784
 6224TIP3    H240308   4.756   6.505   8.493 -1.1998  3.4308 -2.0487
 6225TIP3   OH240309   4.510   2.722   0.088  0.1349 -0.1015 -0.0811
 6225TIP3    H140310   4.597   2.689   0.065  0.8072  0.3842  1.6182
 6225TIP3    H240311   4.528   2.792   0.151 -1.5093 -0.1272  0.4360
 6226TIP3   OH240312   4.339   3.522   7.743 -0.3103 -0.6278 -0.2241
 6226TIP3    H140313   4.247   3.547   7.751  0.1489  1.3943 -0.7857
 6226TIP3    H240314   4.351   3.505   7.650  0.2005  0.5504 -0.3869
 6227TIP3   OH240315   0.855   4.731   1.983  0.1294 -0.3860 -0.4885
 6227TIP3    H140316   0.879   4.697   2.069  2.1326  2.0524  0.0476
 6227TIP3    H240317   0.938   4.750   1.940 -0.7096  3.2661 -0.8251
 6228TIP3   OH240318   0.004   4.355   7.161 -0.4150 -0.2266 -0.3852
 6228TIP3    H140319  -0.009   4.291   7.092 -0.9965 -0.2241 -0.2831
 6228TIP3    H240320  -0.065   4.420   7.147  1.7342  1.8687 -2.1391
 6229TIP3   OH240321   2.665   0.521   7.749  0.3537 -0.5150 -0.4614
 6229TIP3    H140322   2.717   0.601   7.742  0.6031 -0.6861 -0.6283
 6229TIP3    H240323   2.705   0.462   7.684  1.4076 -1.4463  0.9838
 6230TIP3   OH240324   4.413   2.148   1.953  0.4267 -0.1806  0.3258
 6230TIP3    H140325   4.493   2.137   1.902 -0.1444 -1.1515 -0.4011
 6230TIP3    H240326   4.343   2.143   1.888 -0.2598 -0.2430  1.0649
 6231TIP3   OH240327   3.804   6.728   0.055 -0.6591  0.0827  0.3647
 6231TIP3    H140328   3.836   6.738   0.144 -2.3064  1.4776  0.8693
 6231TIP3    H240329   3.854   6.792   0.004 -1.3880  1.0487  0.8153
 6232TIP3   OH240330   4.544   3.235   0.379 -0.0576 -0.8644  0.2552
 6232TIP3    H140331   4.558   3.284   0.298 -0.1351  0.9489  1.2785
 6232TIP3    H240332   4.493   3.158   0.352 -1.0491  0.2586 -1.2557
 6233TIP3   OH240333   0.331   5.632   6.831  0.5691 -0.6373  0.1433
 6233TIP3    H140334   0.356   5.584   6.752  0.7899  2.1191 -1.5801
 6233TIP3    H240335   0.408   5.627   6.887  1.1317 -0.9852 -0.6399
 6234TIP3   OH240336   4.914   6.134   0.302 -0.0721  1.0986 -0.1267
 6234TIP3    H140337   4.829   6.106   0.269 -0.9957  1.8576  1.4967
 6234TIP3    H240338   4.941   6.205   0.243 -0.9930  1.4570 -0.1272
 6235TIP3   OH240339   0.204   1.872   7.947  0.2663  0.2168  0.6989
 6235TIP3    H140340   0.193   1.929   7.871 -0.7604 -1.9030 -0.8393
 6235TIP3    H240341   0.262   1.921   8.005  2.1789  1.3731 -1.9939
 6236TIP3   OH240342   2.463   0.416   8.335 -0.4559 -0.3798  0.0933
 6236TIP3    H140343   2.374   0.439   8.308 -0.6224 -0.0719  0.8788
 6236TIP3    H240344   2.503   0.499   8.360  0.4348 -0.3563 -1.2855
 6237TIP3   OH240345   5.422   5.563   0.364 -0.7271 -0.2196  0.3364
 6237TIP3    H140346   5.391   5.559   0.454 -1.5893  0.6712  0.0960
 6237TIP3    H240347   5.410   5.655   0.338  0.6802 -0.1695 -0.2847
 6238TIP3   OH240348   3.605   6.816   1.268  0.2573 -0.7984  0.5698
 6238TIP3    H140349   3.686   6.863   1.290  0.4577 -0.7092 -0.3082
 6238TIP3    H240350   3.627   6.724   1.279  0.1601 -0.7315  1.3447
 6239TIP3   OH240351   4.238   0.202   0.522  0.0921  0.0213 -0.1688
 6239TIP3    H140352   4.309   0.263   0.540  1.2473 -0.4689 -2.6584
 6239TIP3    H240353   4.280   0.116   0.525 -1.2696 -0.6493  2.1281
 6240TIP3   OH240354   4.286   2.408   0.540  0.2755 -0.3949 -0.2343
 6240TIP3    H140355   4.343   2.331   0.541 -0.6536 -1.1322  1.5213
 6240TIP3    H240356   4.255   2.416   0.631  1.7667  3.1856  0.1265
 6241TIP3   OH240357   5.526   6.063   1.044 -1.0659  0.6879 -0.2890
 6241TIP3    H140358   5.461   6.125   1.012  0.0797  1.6698 -0.8031
 6241TIP3    H240359   5.476   5.986   1.069 -2.4722  1.6414 -0.0987
 6242TIP3   OH240360   3.108   1.896   7.591  0.6071 -0.2474 -0.3312
 6242TIP3    H140361   3.203   1.884   7.585  0.8127  0.6975  0.6433
 6242TIP3    H240362   3.073   1.851   7.514  1.7438 -1.6473 -0.0708
 6243TIP3   OH240363   5.760   0.454   8.015 -0.5816  0.4744  0.2670
 6243TIP3    H140364   5.731   0.538   7.979 -1.7196 -0.5389 -1.3277
 6243TIP3    H240365   5.772   0.471   8.108 -0.6893  2.4273 -0.0260
 6244TIP3   OH240366   2.315   4.004   7.859  0.0654 -0.3182 -0.1036
 6244TIP3    H140367   2.273   4.089   7.858  1.3784  0.3574 -1.2396
 6244TIP3    H240368   2.260   3.950   7.917  0.2027  1.7841  2.1525
 6245TIP3   OH240369   4.421   1.182   8.783  0.1595 -0.3706  0.0158
 6245TIP3    H140370   4.344   1.129   8.761 -0.0773 -0.5341  1.1846
 6245TIP3    H240371   4.495   1.126   8.760 -0.0862 -1.4368  1.6421
 6246TIP3   OH240372   4.340   6.764   0.932  0.0078 -0.3510 -0.0263
 6246TIP3    H140373   4.390   6.683   0.935 -0.5425 -0.8334 -2.2126
 6246TIP3    H240374   4.318   6.782   1.023  0.6565 -2.3073  0.5686
 6247TIP3   OH240375   0.291   0.249   7.398 -0.1300  0.0393  0.3450
 6247TIP3    H140376   0.378   0.286   7.412 -1.2850  2.2542  2.3230
 6247TIP3    H240377   0.286   0.177   7.461  0.1731  0.0639  0.4006
 6248TIP3   OH240378   0.475   4.557   0.551  0.6145  0.2020 -0.0811
 6248TIP3    H140379   0.471   4.651   0.564  0.0639  0.0376  1.0381
 6248TIP3    H240380   0.427   4.520   0.625 -0.8200 -0.8866 -1.4960
 6249TIP3   OH240381   2.970   3.807   1.626  0.2572  0.0968 -0.2549
 6249TIP3    H140382   2.964   3.730   1.683 -0.9789 -0.0480 -0.5668
 6249TIP3    H240383   2.959   3.882   1.685 -1.7790 -0.0736 -0.3721
 6250TIP3   OH240384   5.660   6.290   0.781  0.9277  0.2996  0.0506
 6250TIP3    H140385   5.652   6.263   0.873 -0.5888 -0.1998 -0.2124
 6250TIP3    H240386   5.661   6.386   0.785 -0.0202  0.2942  0.5311
 6251TIP3   OH240387   6.171   3.063   7.973  0.6423 -0.1997  0.3912
 6251TIP3    H140388   6.137   3.014   7.899 -0.0622  0.0154  0.5702
 6251TIP3    H240389   6.179   3.153   7.942  1.3811 -0.3061  0.2451
 6252TIP3   OH240390   1.044   3.937   0.591 -0.0146 -0.2610 -0.1032
 6252TIP3    H140391   1.112   3.914   0.527  0.0443 -1.1694  0.2714
 6252TIP3    H240392   1.038   3.861   0.647 -2.1465 -0.6413 -0.7855
 6253TIP3   OH240393   6.675   3.680   2.803 -0.4788 -0.3514  0.2658
 6253TIP3    H140394   6.610   3.725   2.748 -1.3068 -0.6095  1.0201
 6253TIP3    H240395   6.737   3.641   2.740 -0.0394  1.3617 -0.4302
 6254TIP3   OH240396   1.316   0.864   2.238 -0.3330 -0.5811 -0.2881
 6254TIP3    H140397   1.265   0.814   2.174 -0.4460 -2.1691  0.9671
 6254TIP3    H240398   1.327   0.803   2.312 -1.4527  1.6112  1.8311
 6255TIP3   OH240399   0.959   2.830   2.791  0.4501  0.1159  0.2007
 6255TIP3    H140400   0.967   2.735   2.797 -0.4456 -0.1746 -2.3557
 6255TIP3    H240401   1.038   2.859   2.746 -0.6350  0.1897 -1.7449
 6256TIP3   OH240402   4.427   5.894   2.552 -0.8288  0.2447 -0.6599
 6256TIP3    H140403   4.405   5.921   2.641  0.0577  0.2091 -0.4243
 6256TIP3    H240404   4.470   5.970   2.513  1.3856 -0.6499 -0.1008
 6257TIP3   OH240405   3.036   1.345   8.092  0.2952  0.3060  0.6977
 6257TIP3    H140406   2.979   1.332   8.016  0.9644  1.9128 -0.1388
 6257TIP3    H240407   3.001   1.287   8.159 -4.5567  3.5194  1.4909
 6258TIP3   OH240408   6.509   1.341   6.835 -0.5874  0.2732  0.1298
 6258TIP3    H140409   6.584   1.375   6.786 -0.4942 -0.5266 -0.2973
 6258TIP3    H240410   6.433   1.364   6.781 -0.6054  0.6073  0.2953
 6259TIP3   OH240411   2.782   2.188   1.253 -0.8716 -0.8551 -0.3360
 6259TIP3    H140412   2.736   2.110   1.220 -2.0883 -0.8494  1.2353
 6259TIP3    H240413   2.854   2.152   1.305 -0.9875 -0.9115 -0.2145
 6260TIP3   OH240414   0.205   5.930   2.713 -0.3176 -0.4228  0.0035
 6260TIP3    H140415   0.189   5.900   2.803 -1.1614 -2.9910 -0.9125
 6260TIP3    H240416   0.297   5.910   2.697  0.4860  2.0742  0.9123
 6261TIP3   OH240417   3.292   3.323   0.073  0.0481 -0.0499 -0.2948
 6261TIP3    H140418   3.372   3.337   0.023 -0.0553  0.9176 -0.2131
 6261TIP3    H240419   3.310   3.364   0.158 -0.5659  0.2742 -0.3172
 6262TIP3   OH240420   2.419   4.200   8.111  0.3723 -0.3204 -0.1586
 6262TIP3    H140421   2.448   4.110   8.102  0.4085 -0.1868 -1.5699
 6262TIP3    H240422   2.337   4.204   8.062  0.0878  0.2878  0.3502
 6263TIP3   OH240423   5.348   2.790   7.895  0.4196  0.0886  0.4103
 6263TIP3    H140424   5.316   2.783   7.805  0.1890 -0.0777  0.5047
 6263TIP3    H240425   5.318   2.709   7.937  0.8363 -0.0024  0.5390
 6264TIP3   OH240426   0.541   3.409   8.028  0.0373  0.1690 -0.1573
 6264TIP3    H140427   0.615   3.379   8.081 -0.6878 -1.4435  0.0025
 6264TIP3    H240428   0.582   3.440   7.947  0.9418 -0.0886  0.1831
 6265TIP3   OH240429   0.263   5.232   8.423 -0.2827 -0.1525 -0.1884
 6265TIP3    H140430   0.196   5.268   8.480  0.0454  1.9157 -1.0341
 6265TIP3    H240431   0.346   5.252   8.467 -0.1044 -0.0377 -0.5641
 6266TIP3   OH240432   2.816   2.161   0.149 -0.5041 -0.0875  0.4269
 6266TIP3    H140433   2.808   2.236   0.091 -0.9594 -0.0274  0.5638
 6266TIP3    H240434   2.885   2.185   0.211 -0.9211  0.3802  0.7138
 6267TIP3   OH240435   6.797   0.943   7.505 -0.2081  0.7179  0.1550
 6267TIP3    H140436   6.741   1.020   7.495  1.0198  1.7077  0.6727
 6267TIP3    H240437   6.884   0.979   7.519  0.6269 -0.7934 -0.9101
 6268TIP3   OH240438   2.332   4.093   1.098 -0.2624 -0.2775 -0.1981
 6268TIP3    H140439   2.325   4.182   1.062 -0.2507  0.6322  1.8825
 6268TIP3    H240440   2.409   4.055   1.055 -0.4245  0.5964 -1.3191
 6269TIP3   OH240441   3.696   5.387   0.883 -0.1915  0.1887  0.0340
 6269TIP3    H140442   3.707   5.479   0.905  1.8225  0.2498 -1.0394
 6269TIP3    H240443   3.712   5.382   0.788 -1.9599 -1.0339 -0.2601
 6270TIP3   OH240444   1.216   0.703   0.321 -0.6545 -0.0982  0.4671
 6270TIP3    H140445   1.132   0.671   0.290  0.2681  0.0906 -2.5197
 6270TIP3    H240446   1.204   0.798   0.329 -0.7617 -0.0844  0.1527
 6271TIP3   OH240447   3.124   3.542   1.866  0.2173 -0.0660  0.2494
 6271TIP3    H140448   3.132   3.447   1.859  0.9806  0.0063  0.1091
 6271TIP3    H240449   3.030   3.558   1.855  0.2982 -0.6401 -1.8366
 6272TIP3   OH240450   0.989   5.208   0.562 -0.0766 -0.4886 -0.0583
 6272TIP3    H140451   1.049   5.253   0.502  0.0339 -1.5166 -0.7376
 6272TIP3    H240452   0.902   5.227   0.527 -0.0262 -0.8560 -0.3885
 6273TIP3   OH240453   4.474   2.400   1.264  0.4825  0.1931 -0.4786
 6273TIP3    H140454   4.497   2.389   1.172 -0.8792  2.0196 -1.0991
 6273TIP3    H240455   4.408   2.332   1.281  1.8855 -1.1922 -0.3466
 6274TIP3   OH240456   5.123   0.024   8.493 -0.3974 -0.0298  0.8991
 6274TIP3    H140457   5.114   0.101   8.437 -0.9270 -0.4532  0.3820
 6274TIP3    H240458   5.203   0.039   8.542 -0.4070  0.7754  0.6869
 6275TIP3   OH240459   2.021   0.589   7.762  0.2448 -0.1694  0.3761
 6275TIP3    H140460   1.984   0.573   7.675 -0.7731  1.2230  0.5047
 6275TIP3    H240461   2.101   0.639   7.746  1.2904 -1.8674  0.1612
 6276TIP3   OH240462   2.162   2.845   1.074 -0.0485 -0.1511  0.0412
 6276TIP3    H140463   2.135   2.912   1.138  1.9009  1.0178 -0.2908
 6276TIP3    H240464   2.257   2.851   1.071  0.4290 -4.0897  1.1769
 6277TIP3   OH240465   3.163   2.077   0.600  0.2302 -0.0492 -0.2870
 6277TIP3    H140466   3.218   2.070   0.523  0.4125 -0.5067 -0.1173
 6277TIP3    H240467   3.224   2.074   0.674  0.0200 -0.0664 -0.1126
 6278TIP3   OH240468   2.912   6.358   7.597  0.4234 -0.1452 -0.2428
 6278TIP3    H140469   2.851   6.298   7.554  0.2390 -0.8965  1.0168
 6278TIP3    H240470   2.859   6.434   7.620  0.6789  0.5863 -1.9306
 6279TIP3   OH240471   5.668   3.951   8.735  0.2623  0.0877 -0.2802
 6279TIP3    H140472   5.706   3.914   8.656 -0.8369 -0.4105 -0.5932
 6279TIP3    H240473   5.673   4.046   8.722  1.9615  0.0715 -0.0168
 6280TIP3   OH240474   2.467   5.548   8.673 -0.2806  0.1902 -0.6286
 6280TIP3    H140475   2.552   5.516   8.644  0.3242  1.4062 -0.2306
 6280TIP3    H240476   2.469   5.540   8.768 -1.1915 -1.1315 -0.6789
 6281TIP3   OH240477   0.967   3.266   7.038 -0.1451  0.4075 -0.0388
 6281TIP3    H140478   0.902   3.202   7.007  0.9942 -1.5061  1.3425
 6281TIP3    H240479   1.015   3.220   7.106  0.7887  2.7627  0.9761
 6282TIP3   OH240480   2.921   4.525   1.674  0.6606 -0.6924 -0.6726
 6282TIP3    H140481   2.827   4.514   1.683  0.2905 -0.1910 -3.1887
 6282TIP3    H240482   2.940   4.606   1.722  0.0634 -1.4652  0.9262
 6283TIP3   OH240483   6.240   6.599   0.620  0.6026 -0.1474  0.5270
 6283TIP3    H140484   6.224   6.598   0.525  0.0246  2.0935  0.5296
 6283TIP3    H240485   6.320   6.548   0.631  1.8637  1.2395 -1.4603
 6284TIP3   OH240486   0.515   4.399   0.144 -0.8078 -0.6669  0.0866
 6284TIP3    H140487   0.426   4.435   0.142 -0.3303  0.5931  0.4933
 6284TIP3    H240488   0.510   4.325   0.205 -1.8152 -1.3337 -0.7710
 6285TIP3   OH240489   0.424   1.681   8.745  0.1840  0.3240  0.3550
 6285TIP3    H140490   0.330   1.680   8.761  0.1315  2.8869  0.6580
 6285TIP3    H240491   0.432   1.676   8.649 -0.1936 -0.7319  0.3672
 6286TIP3   OH240492   4.964   6.725   8.188  0.1578 -0.4575 -0.2275
 6286TIP3    H140493   4.885   6.673   8.174 -0.2208  0.3079 -0.9514
 6286TIP3    H240494   5.018   6.670   8.245 -0.5827 -1.2934 -0.3083
 6287TIP3   OH240495   4.414   3.570   1.702 -0.1116 -0.0634  0.0849
 6287TIP3    H140496   4.493   3.539   1.748  0.7792 -0.4860 -1.6553
 6287TIP3    H240497   4.431   3.663   1.688  0.0842 -0.1544 -0.2900
 6288TIP3   OH240498   3.767   5.399   0.129 -0.2333 -0.1345 -0.6340
 6288TIP3    H140499   3.714   5.320   0.120  0.9621 -0.8856 -1.2952
 6288TIP3    H240500   3.821   5.383   0.207 -0.4026  0.2948 -0.4223
 6289TIP3   OH240501   0.007   2.380   0.765 -0.0513  0.0532 -0.8130
 6289TIP3    H140502   0.096   2.390   0.730  0.6524  0.1867  0.9123
 6289TIP3    H240503  -0.009   2.286   0.762  0.6322 -0.0923 -0.0197
 6290TIP3   OH240504   1.242   3.664   7.350  0.1352  0.1067  0.4125
 6290TIP3    H140505   1.261   3.573   7.327  0.1342  0.1475  0.2469
 6290TIP3    H240506   1.318   3.693   7.400 -0.5806 -0.4931  1.9099
 6291TIP3   OH240507   1.990   2.071   2.394  0.2754 -0.3798  0.3383
 6291TIP3    H140508   1.912   2.035   2.436  1.2632 -1.0900  1.6693
 6291TIP3    H240509   1.994   2.027   2.309 -1.8446  1.1846 -0.6757
 6292TIP3   OH240510   4.749   3.187   8.111  0.3952  0.1086 -0.4123
 6292TIP3    H140511   4.784   3.259   8.058  0.3248 -0.1364 -0.7964
 6292TIP3    H240512   4.678   3.151   8.058  0.5236 -0.3373 -0.2838
 6293TIP3   OH240513   1.997   4.390   1.189  0.0064 -0.0765  0.1023
 6293TIP3    H140514   1.933   4.330   1.226 -1.9363  0.1780 -2.5573
 6293TIP3    H240515   2.063   4.400   1.257 -3.0430  0.0998  3.2926
 6294TIP3   OH240516   3.504   1.310   2.666  0.1673  0.4919 -0.5778
 6294TIP3    H140517   3.436   1.365   2.628  0.5847 -0.6852 -3.2567
 6294TIP3    H240518   3.459   1.229   2.690  0.0071  1.0353  1.0592
 6295TIP3   OH240519   4.404   1.803   7.551  0.0268  0.2103  0.4066
 6295TIP3    H140520   4.316   1.834   7.528 -0.0916  1.1056  1.9338
 6295TIP3    H240521   4.451   1.799   7.467 -1.9719 -2.1162 -0.7484
 6296TIP3   OH240522   5.310   3.187   0.943  0.0815  0.3719 -0.5439
 6296TIP3    H140523   5.253   3.157   0.872 -0.5486  0.8422 -0.2450
 6296TIP3    H240524   5.251   3.228   1.006  0.9694  3.1277 -1.3712
 6297TIP3   OH240525   5.994   0.709   8.656 -0.6874 -0.4191 -0.6015
 6297TIP3    H140526   5.900   0.702   8.673 -0.5989  0.7945  0.5209
 6297TIP3    H240527   6.000   0.709   8.560 -1.8481 -0.3501 -0.6998
 6298TIP3   OH240528   5.717   4.125   7.751  0.4841 -0.3994 -0.0984
 6298TIP3    H140529   5.762   4.159   7.829  1.5433  0.4705 -1.0440
 6298TIP3    H240530   5.783   4.071   7.707 -0.1485 -0.9938 -0.3249
 6299TIP3   OH240531   4.711   2.564   3.117  0.4001 -0.0793  0.3939
 6299TIP3    H140532   4.670   2.642   3.154  1.4634  1.1079 -0.8133
 6299TIP3    H240533   4.799   2.593   3.090  0.8327 -1.6899 -0.0798
 6300TIP3   OH240534   0.723   6.171   1.640  0.4023  0.3458 -0.0113
 6300TIP3    H140535   0.806   6.216   1.620  0.8123 -0.4911 -0.2306
 6300TIP3    H240536   0.742   6.079   1.627 -0.5788  0.1405 -0.0844
 6301TIP3   OH240537   3.698   6.806   6.814  0.0303  0.2395  0.1814
 6301TIP3    H140538   3.683   6.711   6.809 -0.8644  0.4208 -0.9691
 6301TIP3    H240539   3.625   6.844   6.766 -1.3412  1.7087  3.1997
 6302TIP3   OH240540   1.167   1.032   7.960 -0.0620 -0.4004  0.0216
 6302TIP3    H140541   1.155   0.949   7.913  2.3643  0.7646 -2.9826
 6302TIP3    H240542   1.108   1.093   7.916 -1.5289 -0.3554  1.9448
 6303TIP3   OH240543   5.450   1.027   8.832  0.3739 -0.0910 -0.2453
 6303TIP3    H140544   5.386   1.083   8.788 -0.1739 -1.2302 -0.9597
 6303TIP3    H240545   5.526   1.083   8.846 -0.1544  0.8236 -0.9167
 6304TIP3   OH240546   1.099   4.921   1.393  0.3854  0.4795 -0.0414
 6304TIP3    H140547   1.014   4.953   1.423  0.5376  1.2081 -0.3807
 6304TIP3    H240548   1.082   4.888   1.305  0.5213  0.9388 -0.2417
 6305TIP3   OH240549   4.194   1.944   2.392  0.0348 -0.3509  0.0377
 6305TIP3    H140550   4.221   1.976   2.306 -0.6660  0.9741  0.2925
 6305TIP3    H240551   4.194   2.021   2.448 -2.3190 -0.6381  0.5358
 6306TIP3   OH240552   0.905   4.087   0.153  0.0206 -0.1723 -0.0767
 6306TIP3    H140553   0.969   4.036   0.103 -0.8576 -2.8964  1.4067
 6306TIP3    H240554   0.824   4.078   0.103 -0.2340 -0.6024  0.4089
 6307TIP3   OH240555   5.595   6.040   1.941 -0.1781  0.4281  0.3521
 6307TIP3    H140556   5.532   5.973   1.970 -0.0916 -0.4892 -1.4103
 6307TIP3    H240557   5.664   5.990   1.898  0.2705  1.6095 -0.3365
 6308TIP3   OH240558   2.248   4.623   0.539 -0.3059 -0.3531 -0.1549
 6308TIP3    H140559   2.181   4.577   0.488 -1.5367  2.9621 -1.8367
 6308TIP3    H240560   2.216   4.712   0.546  1.6342  0.2511  3.4079
 6309TIP3   OH240561   6.408   2.943   8.649  0.4853  0.3087 -0.0063
 6309TIP3    H140562   6.370   2.948   8.737  1.8558 -3.5364  1.0019
 6309TIP3    H240563   6.344   2.987   8.593 -1.5769  0.8918  2.5717
 6310TIP3   OH240564   2.588   3.481   8.680  0.2592  1.2118 -0.2701
 6310TIP3    H140565   2.523   3.508   8.744  1.0190  0.7232  0.7465
 6310TIP3    H240566   2.582   3.385   8.679  1.9650  1.0521  0.9745
 6311TIP3   OH240567   1.153   6.806   1.723  0.3876 -0.3043  0.1301
 6311TIP3    H140568   1.217   6.758   1.671 -0.8641 -1.7824 -0.1072
 6311TIP3    H240569   1.152   6.761   1.808  1.8244  1.5882  1.2415
 6312TIP3   OH240570   4.098   0.966   0.102  0.2059  0.3956 -0.1735
 6312TIP3    H140571   4.115   1.040   0.159  0.4622  0.4659 -0.3417
 6312TIP3    H240572   4.036   0.911   0.151 -1.5141  1.6777 -0.8218
 6313TIP3   OH240573   5.502   6.151   7.353  0.1115 -0.8237 -0.2951
 6313TIP3    H140574   5.502   6.140   7.258  0.9020  0.1755 -0.4229
 6313TIP3    H240575   5.571   6.215   7.370 -1.0742  0.2196  0.8175
 6314TIP3   OH240576   1.962   1.755   1.565  0.2300 -0.3763 -0.1394
 6314TIP3    H140577   2.038   1.716   1.609  0.1726 -1.0617 -0.6383
 6314TIP3    H240578   1.995   1.836   1.527  0.0660  0.7628  1.9800
 6315TIP3   OH240579   5.810   4.995   1.309 -0.0116 -0.4733  0.0898
 6315TIP3    H140580   5.855   5.018   1.391 -0.1042  1.6737 -0.4131
 6315TIP3    H240581   5.717   4.995   1.331 -0.2089  2.3908 -0.4518
 6316TIP3   OH240582   5.265   4.833   2.232 -0.1069  0.2176 -0.2166
 6316TIP3    H140583   5.244   4.892   2.160 -1.9796  0.0066  0.1030
 6316TIP3    H240584   5.243   4.746   2.199 -0.1405  0.0210  0.3188
 6317TIP3   OH240585   2.435   0.733   2.697 -0.3773 -0.3757 -0.1900
 6317TIP3    H140586   2.451   0.674   2.623  1.7246 -0.6637  0.4306
 6317TIP3    H240587   2.388   0.679   2.761 -1.3776 -0.3914 -0.9125
 6318TIP3   OH240588   2.032   2.715   8.482 -0.3767  0.2945 -0.1480
 6318TIP3    H140589   2.068   2.771   8.552  1.6765 -0.4803 -0.5089
 6318TIP3    H240590   2.081   2.741   8.404 -0.9527 -0.5071 -0.7826
 6319TIP3   OH240591   3.662   6.541   7.344 -0.0973 -0.7055 -0.0749
 6319TIP3    H140592   3.693   6.600   7.276 -0.8705  0.5474  0.6194
 6319TIP3    H240593   3.630   6.464   7.297 -0.5234  0.0870 -1.1227
 6320TIP3   OH240594   2.560   1.593   2.426 -0.5245  0.0354 -0.1548
 6320TIP3    H140595   2.558   1.689   2.431 -1.6946  0.0118  0.0885
 6320TIP3    H240596   2.516   1.573   2.343  1.7757 -0.2394 -1.3981
 6321TIP3   OH240597   4.598   4.001   0.421 -0.5466  0.0224 -0.1528
 6321TIP3    H140598   4.556   4.047   0.494  1.0584 -0.6814  1.2975
 6321TIP3    H240599   4.656   3.937   0.463  1.6291  0.6428 -1.9834
 6322TIP3   OH240600   6.357   1.118   0.616 -0.2731  0.2202 -0.0835
 6322TIP3    H140601   6.448   1.146   0.620 -0.4463  0.8766 -0.6101
 6322TIP3    H240602   6.361   1.025   0.593  0.2712  0.0822  0.5435
 6323TIP3   OH240603   5.059   0.712   2.235  0.2334  0.1783 -0.5620
 6323TIP3    H140604   4.966   0.723   2.252  0.0785 -0.1524 -1.1868
 6323TIP3    H240605   5.080   0.625   2.268  0.7749  1.0133  1.4463
 6324TIP3   OH240606   2.064   0.169   1.914 -0.0172  0.2332  0.3594
 6324TIP3    H140607   2.064   0.262   1.936 -0.6173  0.6551 -1.2888
 6324TIP3    H240608   2.135   0.159   1.850 -0.2366 -0.3587  0.2001
 6325TIP3   OH240609   0.466   0.205   1.696 -0.1636 -0.1510  0.4433
 6325TIP3    H140610   0.459   0.196   1.791  1.1257 -1.1116  0.4708
 6325TIP3    H240611   0.415   0.132   1.661 -1.6293  0.8680  0.3293
 6326TIP3   OH240612   6.045   5.883   7.932 -0.7651  0.6250 -0.0740
 6326TIP3    H140613   5.996   5.865   7.852 -1.4745  1.5107  0.1396
 6326TIP3    H240614   5.977   5.898   7.998 -0.2331 -1.5189  1.0673
 6327TIP3   OH240615   2.602   5.062   8.282 -0.2218 -0.0714 -0.0998
 6327TIP3    H140616   2.523   5.029   8.240  0.3202 -0.8600 -0.5208
 6327TIP3    H240617   2.674   5.024   8.232  0.4441 -0.8393  1.3759
 6328TIP3   OH240618   3.448   4.373   7.379  0.1113 -0.0796 -0.3322
 6328TIP3    H140619   3.482   4.354   7.292  1.0453  0.9694 -0.2252
 6328TIP3    H240620   3.527   4.380   7.434 -0.4230 -0.0393  0.4472
 6329TIP3   OH240621   3.246   2.937   7.723 -0.0295 -0.3990 -0.3537
 6329TIP3    H140622   3.283   2.891   7.798  0.2042 -0.2848 -0.3992
 6329TIP3    H240623   3.306   3.010   7.707 -1.3489  1.0515  0.8700
 6330TIP3   OH240624   5.156   6.686   1.074 -0.3041  0.0577 -0.1259
 6330TIP3    H140625   5.157   6.693   1.169  0.6564 -1.2866 -0.0057
 6330TIP3    H240626   5.249   6.685   1.049 -0.5216 -0.9268 -0.9520
 6331TIP3   OH240627   5.472   0.487   7.828  0.5627 -0.3444  0.5241
 6331TIP3    H140628   5.384   0.494   7.789  0.2683 -0.4323  1.1669
 6331TIP3    H240629   5.499   0.397   7.809  0.3041 -0.4735  0.7645
 6332TIP3   OH240630   3.318   2.883   0.243  0.1052  0.1192 -0.2673
 6332TIP3    H140631   3.258   2.946   0.203 -0.5708 -0.8848 -0.8802
 6332TIP3    H240632   3.403   2.903   0.203 -0.0053  0.9076 -0.1353
 6333TIP3   OH240633   1.016   2.029   7.585  0.0626 -0.1755 -0.3876
 6333TIP3    H140634   0.940   2.058   7.636  0.0221 -0.0393 -0.5271
 6333TIP3    H240635   1.086   2.020   7.650  0.3777  1.2692 -0.5002
 6334TIP3   OH240636   4.200   2.357   0.816  0.4965 -0.0850 -0.1221
 6334TIP3    H140637   4.106   2.341   0.807  0.6412 -0.9167 -0.3006
 6334TIP3    H240638   4.230   2.293   0.881  1.0034 -0.1040 -0.3618
 6335TIP3   OH240639   0.208   4.792   7.897  0.3355  0.2276 -0.0848
 6335TIP3    H140640   0.264   4.844   7.840 -1.1656  1.3019 -0.6647
 6335TIP3    H240641   0.124   4.787   7.851 -0.6950  0.4645  1.6441
 6336TIP3   OH240642   3.569   2.464   0.064  0.3368  0.0232  0.5593
 6336TIP3    H140643   3.478   2.483   0.088 -0.2453 -0.4167 -1.2176
 6336TIP3    H240644   3.604   2.418   0.140 -1.4745 -1.4422  0.5798
 6337TIP3   OH240645   0.635   4.781   8.011  0.2521  0.3195 -0.5570
 6337TIP3    H140646   0.595   4.863   7.982  1.8786  2.1591  1.9868
 6337TIP3    H240647   0.701   4.808   8.075  2.0524 -2.8959 -0.8699
 6338TIP3   OH240648   6.615   4.306   8.345  0.1372  0.5758  1.0010
 6338TIP3    H140649   6.570   4.258   8.275  1.4033 -0.7562  1.0543
 6338TIP3    H240650   6.551   4.371   8.374 -0.3487  1.2992 -1.5091
 6339TIP3   OH240651   3.277   6.124   1.206  0.3480 -0.2104 -0.2487
 6339TIP3    H140652   3.260   6.219   1.209 -0.4514 -0.3423 -0.3188
 6339TIP3    H240653   3.372   6.117   1.213  0.4678  0.6255 -0.7561
 6340TIP3   OH240654   2.291   1.187   2.576 -0.4708  0.0928  0.4764
 6340TIP3    H140655   2.365   1.140   2.614 -0.2392  0.0250 -0.0439
 6340TIP3    H240656   2.214   1.150   2.619 -0.1364  1.1381  2.0598
 6341TIP3   OH240657   6.803   1.543   8.247 -0.3692 -0.1237 -0.6191
 6341TIP3    H140658   6.883   1.565   8.199 -0.1090 -0.5347 -0.3721
 6341TIP3    H240659   6.762   1.628   8.264  1.0922  0.2942  1.1392
 6342TIP3   OH240660   1.297   5.273   1.625 -0.0928  0.6576 -0.2212
 6342TIP3    H140661   1.298   5.181   1.651  0.3343  0.2093 -1.7132
 6342TIP3    H240662   1.219   5.309   1.668 -0.4860 -0.5005  0.0666
 6343TIP3   OH240663   2.540   3.435   0.999  0.1860  0.0784  0.1455
 6343TIP3    H140664   2.482   3.511   0.996  0.2927  0.1327 -1.1571
 6343TIP3    H240665   2.488   3.364   0.961  0.1489 -0.4750  1.1892
 6344TIP3   OH240666   3.406   4.024   0.806 -0.2268  0.1402  0.0458
 6344TIP3    H140667   3.331   3.972   0.834  0.3671 -0.0363  1.3822
 6344TIP3    H240668   3.381   4.114   0.825 -0.9295  0.3076 -1.5131
 6345TIP3   OH240669   6.049   0.264   7.314 -0.4116 -0.1000  0.1743
 6345TIP3    H140670   5.969   0.285   7.267 -1.6384 -2.9095  0.7881
 6345TIP3    H240671   6.114   0.249   7.245 -1.2876 -0.8943 -0.5039
 6346TIP3   OH240672   2.851   6.220   8.241 -0.2410 -0.3422 -0.1760
 6346TIP3    H140673   2.893   6.136   8.221  1.2270  0.1099  0.8553
 6346TIP3    H240674   2.817   6.209   8.329  0.1023  0.1983  0.0281
 6347TIP3   OH240675   4.530   4.028   1.310  0.6634 -0.2971  0.3298
 6347TIP3    H140676   4.440   4.000   1.292 -0.0705  0.7421  2.1149
 6347TIP3    H240677   4.580   3.997   1.234 -1.3984  0.1210 -1.3023
 6348TIP3   OH240678   6.158   1.065   7.402 -0.0584 -0.2267  0.3850
 6348TIP3    H140679   6.183   1.019   7.321 -0.9806  1.3900 -0.8813
 6348TIP3    H240680   6.229   1.046   7.463  1.5437 -0.1181 -1.3388
 6349TIP3   OH240681   3.500   2.012   7.924  0.5405  0.2123 -0.7361
 6349TIP3    H140682   3.405   2.016   7.911  0.6856  1.7677 -1.6611
 6349TIP3    H240683   3.512   2.030   8.017 -0.1283 -2.0007 -0.1720
 6350TIP3   OH240684   3.543   6.251   1.495  0.3806  0.3839  0.0595
 6350TIP3    H140685   3.521   6.208   1.413  0.1537 -2.2862  1.3895
 6350TIP3    H240686   3.638   6.252   1.498  0.3895 -0.5576  0.2421
 6351TIP3   OH240687   0.659   2.973   8.882  0.5618 -0.0352  0.5676
 6351TIP3    H140688   0.612   2.917   8.821 -0.3714 -0.1633  1.3807
 6351TIP3    H240689   0.744   2.931   8.894  2.0715  1.6098 -3.0173
 6352TIP3   OH240690   2.952   6.575   8.825 -0.2717 -0.2252  0.6429
 6352TIP3    H140691   3.015   6.587   8.754 -0.9524 -0.8117 -0.0876
 6352TIP3    H240692   2.901   6.656   8.826 -1.5849 -0.9693 -0.9255
 6353TIP3   OH240693   0.629   4.710   8.743 -0.0036  0.9780  0.3648
 6353TIP3    H140694   0.591   4.795   8.723  0.2599  0.3924 -3.3728
 6353TIP3    H240695   0.558   4.647   8.727 -0.4169  0.3918  3.7696
 6354TIP3   OH240696   4.744   1.214   0.395  0.1653 -0.0345 -0.4463
 6354TIP3    H140697   4.835   1.212   0.365  0.1418 -0.1347 -0.5097
 6354TIP3    H240698   4.750   1.193   0.488  0.3185  1.0699 -0.1903
 6355TIP3   OH240699   2.337   3.739   1.517 -0.1122 -0.0036  0.0401
 6355TIP3    H140700   2.249   3.772   1.536  0.4485  1.8151 -0.4346
 6355TIP3    H240701   2.341   3.734   1.422  0.3837  0.1083  0.0555
 6356TIP3   OH240702   5.182   0.913   8.776  0.0243 -0.2965 -0.4169
 6356TIP3    H140703   5.258   0.884   8.726  0.6525 -2.4917  1.6474
 6356TIP3    H240704   5.200   1.005   8.795  1.4327 -0.3821 -1.2414
 6357TIP3   OH240705   0.859   1.499   0.469 -0.3466 -0.2191 -0.2338
 6357TIP3    H140706   0.863   1.438   0.543  0.1180  1.2954  1.0514
 6357TIP3    H240707   0.804   1.455   0.404 -0.7181 -1.6274  0.9879
 6358TIP3   OH240708   3.413   3.151   7.679  0.2645 -0.3873  0.1576
 6358TIP3    H140709   3.426   3.156   7.584 -0.1186 -0.9658  0.0644
 6358TIP3    H240710   3.404   3.242   7.707 -0.1035 -0.2284 -0.4412
 6359TIP3   OH240711   5.949   3.602   2.503 -0.5283 -0.2138  0.7254
 6359TIP3    H140712   5.984   3.553   2.578 -1.1615 -0.7518  0.6746
 6359TIP3    H240713   5.865   3.560   2.484 -1.0982  0.9248  0.6987
 6360TIP3   OH240714   3.494   5.122   1.716  1.1285  0.0611 -0.3916
 6360TIP3    H140715   3.552   5.158   1.783  0.1270 -0.1928  0.6431
 6360TIP3    H240716   3.512   5.029   1.716  2.5336  0.3004 -1.8967
 6361TIP3   OH240717   3.923   4.175   2.467 -0.4263 -0.0462  0.2049
 6361TIP3    H140718   3.886   4.087   2.464 -0.0183 -0.2135 -2.4353
 6361TIP3    H240719   3.971   4.179   2.549 -1.4620 -1.8438  0.9417
 6362TIP3   OH240720   4.602   2.778   8.444 -0.6320  0.1476 -0.6151
 6362TIP3    H140721   4.632   2.778   8.353  0.7037  0.5213 -0.1860
 6362TIP3    H240722   4.517   2.735   8.440 -0.0925 -0.8797 -1.8876
 6363TIP3   OH240723   5.648   1.270   8.853  0.6571 -0.1745 -0.0982
 6363TIP3    H140724   5.722   1.220   8.819  0.0657 -1.4593  0.4599
 6363TIP3    H240725   5.673   1.295   8.942  0.3400 -0.7835  0.1631
 6364TIP3   OH240726   4.330   1.038   2.229 -0.1323  0.1217 -0.5631
 6364TIP3    H140727   4.297   1.009   2.144  0.4536  4.1190 -2.3454
 6364TIP3    H240728   4.425   1.038   2.220 -0.0267 -0.2056  0.4146
 6365TIP3   OH240729   0.794   6.313   1.872 -0.4451  0.0914  0.8525
 6365TIP3    H140730   0.765   6.251   1.805  1.2977 -0.2933  0.4098
 6365TIP3    H240731   0.783   6.399   1.831 -0.5857 -0.0748  0.5388
 6366TIP3   OH240732   4.822   0.748   6.531  0.1648  0.3006 -0.6952
 6366TIP3    H140733   4.767   0.825   6.518 -0.3774  0.0572  0.0482
 6366TIP3    H240734   4.809   0.725   6.623  0.0073 -0.9152 -1.0002
 6367TIP3   OH240735   0.528   0.500   1.160  0.2534 -0.3474 -0.3812
 6367TIP3    H140736   0.622   0.486   1.159  0.5057  1.0957 -1.2525
 6367TIP3    H240737   0.492   0.426   1.208  1.7983 -1.0967 -0.3333
 6368TIP3   OH240738   3.673   1.968   7.719  0.0193 -0.2459 -0.1846
 6368TIP3    H140739   3.606   1.964   7.786  0.9343  0.1060  0.7868
 6368TIP3    H240740   3.670   2.058   7.687  1.3507  0.3945  1.3243
 6369TIP3   OH240741   3.919   4.144   2.815 -0.0470 -0.3469  0.1796
 6369TIP3    H140742   3.840   4.112   2.771 -0.8276  1.2222  0.3796
 6369TIP3    H240743   3.891   4.162   2.905 -0.0897  2.2465 -0.2712
 6370TIP3   OH240744   5.748   0.947   1.059  0.0940 -0.0356  0.4719
 6370TIP3    H140745   5.798   0.970   0.981  2.6518 -1.3708  1.5683
 6370TIP3    H240746   5.762   1.021   1.119  1.2749 -0.6184  0.9560
 6371TIP3   OH240747   2.500   1.440   7.935  0.5497 -0.0453  0.3824
 6371TIP3    H140748   2.446   1.393   7.871  0.7592  0.2315 -0.0031
 6371TIP3    H240749   2.571   1.477   7.883  0.9357 -0.1362  0.8386
 6372TIP3   OH240750   6.701   6.567   8.146  0.1003 -0.2239  0.4643
 6372TIP3    H140751   6.723   6.659   8.132 -0.9206  0.2248  1.6566
 6372TIP3    H240752   6.641   6.545   8.075  0.9797 -0.2288 -0.3011
 6373TIP3   OH240753   1.351   4.627   2.283  0.2422 -0.3691 -0.1089
 6373TIP3    H140754   1.296   4.647   2.208 -2.2091 -1.9072  1.1580
 6373TIP3    H240755   1.332   4.696   2.347 -0.6948 -1.2074  0.5422
 6374TIP3   OH240756   4.135   3.731   1.413  0.0066 -0.1669  0.5919
 6374TIP3    H140757   4.054   3.705   1.368  1.0158 -0.5275 -1.0620
 6374TIP3    H240758   4.178   3.648   1.434 -0.5730 -0.0356  2.6002
 6375TIP3   OH240759   5.140   4.489   0.693 -0.7439 -0.3233 -0.1645
 6375TIP3    H140760   5.095   4.507   0.775 -0.7268  1.8230 -0.5814
 6375TIP3    H240761   5.109   4.402   0.668 -1.1297 -0.8179  1.8382
 6376TIP3   OH240762   3.515   2.853   0.989 -0.0821  0.0717 -0.3939
 6376TIP3    H140763   3.516   2.787   1.059  0.6239 -2.0516 -2.2874
 6376TIP3    H240764   3.422   2.867   0.971 -0.2453 -0.2709  0.1560
 6377TIP3   OH240765   4.850   5.076   1.019  0.9112  0.1063 -0.2663
 6377TIP3    H140766   4.905   5.028   1.081  0.4830  1.0243  0.8464
 6377TIP3    H240767   4.796   5.133   1.073 -0.3072  0.0997 -1.4113
 6378TIP3   OH240768   5.862   5.838   3.011  0.1197 -0.5291 -0.1638
 6378TIP3    H140769   5.795   5.879   2.956  1.3295  0.2407 -1.1057
 6378TIP3    H240770   5.945   5.872   2.978  1.0434 -2.0606  0.4792
 6379TIP3   OH240771   2.061   2.406   8.219 -0.0085  0.7950 -0.6135
 6379TIP3    H140772   2.095   2.324   8.254  0.8347  0.7754 -1.4353
 6379TIP3    H240773   2.130   2.470   8.237  0.4997  0.7601 -2.2977
 6380TIP3   OH240774   2.068   0.928   7.728  0.2387 -0.0731  0.1304
 6380TIP3    H140775   2.061   1.003   7.788  0.6183 -0.2736  0.4320
 6380TIP3    H240776   1.977   0.907   7.706  0.0924  0.0379  0.6020
 6381TIP3   OH240777   6.267   6.362   2.140 -0.0981 -0.7718  0.0055
 6381TIP3    H140778   6.328   6.367   2.214  0.4513 -0.6058 -0.4509
 6381TIP3    H240779   6.183   6.341   2.180  0.5072 -2.3608  0.5291
 6382TIP3   OH240780   4.467   3.632   0.081  0.0942  0.2404 -0.0210
 6382TIP3    H140781   4.490   3.716   0.042 -0.5350 -0.3563 -1.8244
 6382TIP3    H240782   4.386   3.648   0.130  0.6607  0.9281  0.6975
 6383TIP3   OH240783   2.539   4.576   0.176  0.5362 -0.2031 -0.3026
 6383TIP3    H140784   2.507   4.587   0.266 -0.4795 -0.7883 -0.5771
 6383TIP3    H240785   2.605   4.507   0.183  1.2645  0.5196  0.1577
 6384TIP3   OH240786   1.124   2.864   0.159  0.4231 -0.0086 -0.2500
 6384TIP3    H140787   1.116   2.954   0.188  1.9689 -0.1562  0.7529
 6384TIP3    H240788   1.146   2.870   0.066 -1.6430  0.5487 -0.7536
 6385TIP3   OH240789   0.635   3.562   7.800  0.0584 -0.4008 -0.1328
 6385TIP3    H140790   0.673   3.600   7.721  0.3898  0.4647  0.4304
 6385TIP3    H240791   0.588   3.634   7.842  1.0191 -0.4766  1.1546
 6386TIP3   OH240792   4.239   5.462   1.962 -0.5801  0.0302 -0.0375
 6386TIP3    H140793   4.292   5.451   2.040  0.3761 -1.0022 -0.8149
 6386TIP3    H240794   4.149   5.472   1.995  0.1111  2.4578  1.3264
 6387TIP3   OH240795   5.423   2.673   1.852 -0.2580 -0.1341  0.0845
 6387TIP3    H140796   5.518   2.681   1.852 -0.2238 -0.5390 -0.3280
 6387TIP3    H240797   5.403   2.624   1.932 -0.1145 -0.1318  0.1217
 6388TIP3   OH240798   2.450   2.632   7.728  0.0017 -0.3079 -0.2743
 6388TIP3    H140799   2.368   2.681   7.724 -0.6376 -1.0790  1.8597
 6388TIP3    H240800   2.427   2.551   7.774  2.0561 -0.2670  0.9532
 6389TIP3   OH240801   2.819   1.955   7.136 -0.3666 -0.3790  0.7367
 6389TIP3    H140802   2.892   1.992   7.185 -0.8775  2.9678 -0.7838
 6389TIP3    H240803   2.843   1.863   7.123  3.4021  0.4989  0.5562
 6390TIP3   OH240804   0.609   6.651   0.034  0.0395 -0.2177  0.6742
 6390TIP3    H140805   0.611   6.744   0.055  2.1219  0.1612 -0.7795
 6390TIP3    H240806   0.527   6.638  -0.013  0.4251  1.2897 -0.5097
 6391TIP3   OH240807   4.043   5.029   0.622  0.5275 -0.0415 -0.1317
 6391TIP3    H140808   4.038   4.955   0.562  2.5460 -1.5424  1.4417
 6391TIP3    H240809   4.069   5.103   0.566 -0.8775 -0.5968 -1.6030
 6392TIP3   OH240810   6.264   3.052   7.248  0.2019  0.2259  0.1295
 6392TIP3    H140811   6.194   3.023   7.190  1.5036  0.9222 -1.9203
 6392TIP3    H240812   6.291   3.137   7.212  1.7651  0.1874  1.1221
 6393TIP3   OH240813   1.143   4.204   8.577 -0.1024  0.0467  0.3987
 6393TIP3    H140814   1.199   4.133   8.545  1.5415  0.4372  2.2168
 6393TIP3    H240815   1.151   4.272   8.510 -0.4126 -0.8273 -0.5694
 6394TIP3   OH240816   6.616   6.613   2.697 -0.0885  0.2272  0.4389
 6394TIP3    H140817   6.624   6.684   2.760  1.4188 -0.8362  1.5221
 6394TIP3    H240818   6.526   6.581   2.709 -0.4419  1.2683  0.6582
 6395TIP3   OH240819   4.902   4.167   2.620  0.5581 -0.3586 -0.1838
 6395TIP3    H140820   4.863   4.254   2.618  2.2500  0.6017  2.5042
 6395TIP3    H240821   4.829   4.108   2.634 -0.4478  0.8396 -0.2160
 6396TIP3   OH240822   3.620   4.923   2.558 -0.0083  0.1967  0.4203
 6396TIP3    H140823   3.686   4.973   2.605 -0.5592  1.3013  0.0617
 6396TIP3    H240824   3.555   4.900   2.624 -0.5469  1.3425  0.3191
 6397TIP3   OH240825   2.890   3.721   8.214 -0.3286  0.4403  0.1210
 6397TIP3    H140826   2.934   3.643   8.247  1.8157  2.4644  2.4917
 6397TIP3    H240827   2.944   3.748   8.139  0.1206  0.7334  0.5470
 6398TIP3   OH240828   3.605   3.111   7.213 -0.1258  0.0896 -0.0163
 6398TIP3    H140829   3.523   3.133   7.258 -0.1340 -0.7277  0.3934
 6398TIP3    H240830   3.645   3.045   7.269  1.9954  2.1498  1.0750
 6399TIP3   OH240831   1.139   2.059   2.221 -0.5964 -0.2099  0.0535
 6399TIP3    H140832   1.149   1.975   2.265  0.7568 -0.8491 -1.3447
 6399TIP3    H240833   1.118   2.121   2.290 -3.0330 -1.8949  0.9475
 6400TIP3   OH240834   6.071   3.397   0.051 -1.3743  0.5482 -0.2084
 6400TIP3    H140835   6.012   3.449   0.106 -2.1256  1.4702 -1.8323
 6400TIP3    H240836   6.030   3.310   0.049 -1.5704  0.6219  0.3114
 6401TIP3   OH240837   3.576   5.731   8.623  0.0233  0.5776  0.3152
 6401TIP3    H140838   3.600   5.666   8.689  2.8449  0.5712 -0.5890
 6401TIP3    H240839   3.583   5.815   8.669 -0.1336  0.4516  0.5739
 6402TIP3   OH240840   6.593   3.279   8.526  0.5996 -0.6237  0.3966
 6402TIP3    H140841   6.651   3.298   8.452  1.4234 -0.5991  1.0384
 6402TIP3    H240842   6.648   3.232   8.588 -0.0236 -0.4540  1.0925
 6403TIP3   OH240843   2.106   0.153   8.536  1.0805  0.3131 -0.1635
 6403TIP3    H140844   2.026   0.176   8.582  1.2402  0.1344  0.1984
 6403TIP3    H240845   2.131   0.067   8.569  0.9504 -0.0235 -0.9075
 6404TIP3   OH240846   3.526   2.319   7.667 -0.6420  0.1260 -0.0837
 6404TIP3    H140847   3.441   2.317   7.623 -0.3966 -0.1740 -0.5601
 6404TIP3    H240848   3.589   2.317   7.595 -0.2325  0.2436  0.2700
 6405TIP3   OH240849   4.190   5.197   0.435 -0.2437  0.3648 -0.0809
 6405TIP3    H140850   4.280   5.180   0.462 -0.2011  0.2621 -0.2804
 6405TIP3    H240851   4.191   5.286   0.400 -1.0277  1.8794  3.4251
 6406TIP3   OH240852   1.324   4.358   2.392 -0.2012 -0.1608  0.3239
 6406TIP3    H140853   1.264   4.362   2.467 -0.4920 -0.0244  0.0872
 6406TIP3    H240854   1.330   4.448   2.361  1.2311  0.0724  1.1966
 6407TIP3   OH240855   6.615   6.003   7.273  0.1685  0.2497 -0.5698
 6407TIP3    H140856   6.660   6.049   7.202 -1.3699  0.7988 -1.2538
 6407TIP3    H240857   6.595   5.917   7.236  0.2233  0.1933 -0.4647
 6408TIP3   OH240858   4.319   2.015   8.390  0.2121 -0.0202 -0.2179
 6408TIP3    H140859   4.224   2.009   8.400 -0.0808  0.1959 -2.3945
 6408TIP3    H240860   4.331   2.068   8.311  2.0925 -1.6120 -1.0679
 6409TIP3   OH240861   2.539   5.526   0.080 -0.2750  0.5105  0.2504
 6409TIP3    H140862   2.491   5.448   0.055  1.6095 -0.2663 -1.1534
 6409TIP3    H240863   2.579   5.504   0.164  0.1508  0.0108 -0.0829
 6410TIP3   OH240864   0.911   0.024   7.653  0.1718 -0.0645  0.4983
 6410TIP3    H140865   0.855  -0.037   7.702 -0.3783  0.3738  0.4240
 6410TIP3    H240866   0.861   0.043   7.573  0.0239  1.0023  0.8242
 6411TIP3   OH240867   1.576   6.107   7.089 -0.0389  0.1024  0.6040
 6411TIP3    H140868   1.648   6.139   7.143 -1.9678  0.3958  3.1760
 6411TIP3    H240869   1.571   6.013   7.108 -0.4684  0.1265  0.6245
 6412TIP3   OH240870   1.758   3.193   8.075  0.2707  0.2513  0.0477
 6412TIP3    H140871   1.848   3.179   8.045 -0.3365 -0.3306 -1.6237
 6412TIP3    H240872   1.704   3.172   7.999 -1.3133  0.1946  1.1429
 6413TIP3   OH240873   5.768   2.273   8.142 -0.4381  0.6693 -0.3780
 6413TIP3    H140874   5.838   2.237   8.196  2.2233  0.4292 -3.6774
 6413TIP3    H240875   5.753   2.361   8.176 -0.7328 -0.3003  2.2238
 6414TIP3   OH240876   6.041   5.949   2.857 -0.5160  0.0838  0.4412
 6414TIP3    H140877   6.056   5.939   2.763 -1.1851  0.6822  0.2599
 6414TIP3    H240878   6.057   6.042   2.874  0.4959 -0.2011  1.0956
 6415TIP3   OH240879   4.446   3.522   0.712  0.2232 -0.6196  0.0212
 6415TIP3    H140880   4.381   3.485   0.771  0.0734 -0.5272 -0.0835
 6415TIP3    H240881   4.407   3.604   0.682  0.7794 -0.0955  0.6843
 6416TIP3   OH240882   2.192   6.177   8.702  0.4504  0.0956 -0.2121
 6416TIP3    H140883   2.281   6.211   8.712  0.5113  0.6250 -2.1980
 6416TIP3    H240884   2.202   6.082   8.699  0.5724 -0.0793  2.5372
 6417TIP3   OH240885   2.173   6.538   1.060  0.2637 -0.2292  0.2062
 6417TIP3    H140886   2.244   6.532   0.997  0.5323 -1.8848  0.6246
 6417TIP3    H240887   2.095   6.556   1.007  0.4303 -1.9318 -0.6718
 6418TIP3   OH240888   5.848   2.152   2.174 -0.1881 -0.6773  0.0295
 6418TIP3    H140889   5.826   2.223   2.234  0.4888 -1.1402  0.8518
 6418TIP3    H240890   5.934   2.175   2.140  0.2883 -1.3518  0.7303
 6419TIP3   OH240891   5.302   1.421   8.200  0.2176  0.2428 -0.0062
 6419TIP3    H140892   5.320   1.336   8.241 -0.4602 -0.2942 -0.7856
 6419TIP3    H240893   5.216   1.447   8.233 -0.1071  0.0472 -0.6677
 6420TIP3   OH240894   4.050   4.127   7.709 -0.3354  0.8331  0.3028
 6420TIP3    H140895   3.981   4.167   7.763  0.4780 -0.2939  2.2729
 6420TIP3    H240896   4.122   4.190   7.711 -0.1875  0.6513  0.8308
 6421TIP3   OH240897   3.645   4.662   1.311  0.2792 -0.5603 -0.0198
 6421TIP3    H140898   3.603   4.680   1.227  0.5559 -1.2819 -0.3260
 6421TIP3    H240899   3.591   4.593   1.350  0.6086 -0.7913  0.0282
 6422TIP3   OH240900   0.826   4.048   0.802  0.3167 -0.3227  0.2773
 6422TIP3    H140901   0.775   3.967   0.805  2.1396 -1.6236 -1.2094
 6422TIP3    H240902   0.901   4.026   0.747  0.9495  2.3654 -0.0461
 6423TIP3   OH240903   2.154   4.677   2.247 -0.3043  0.0761  0.4036
 6423TIP3    H140904   2.079   4.664   2.305 -0.8199  1.1904  0.0142
 6423TIP3    H240905   2.168   4.772   2.246 -0.1110  0.0550 -1.0401
 6424TIP3   OH240906   0.412   4.032   8.601 -0.3237 -0.2880 -0.0640
 6424TIP3    H140907   0.414   4.105   8.664 -2.2040  0.6650 -1.0091
 6424TIP3    H240908   0.433   4.073   8.517 -3.5551 -0.2480 -0.9995
 6425TIP3   OH240909   6.575   0.474   8.242  0.7323 -0.0594 -0.6507
 6425TIP3    H140910   6.532   0.548   8.200  0.7085  0.0813 -0.3735
 6425TIP3    H240911   6.504   0.413   8.262  0.3873  0.9978  1.5620
 6426TIP3   OH240912   3.376   5.299   0.407  0.0157  0.3853  0.0494
 6426TIP3    H140913   3.325   5.366   0.453 -0.3552  0.0739  0.1002
 6426TIP3    H240914   3.382   5.226   0.469 -0.2123  0.0906 -0.2690
 6427TIP3   OH240915   0.482   5.995   1.551 -0.0100  0.3289 -0.5224
 6427TIP3    H140916   0.437   5.911   1.539 -1.7328  0.9390  1.1791
 6427TIP3    H240917   0.523   5.988   1.637  0.4156  0.9959 -0.6644
 6428TIP3   OH240918   0.757   3.567   0.248  0.4254  0.3424 -0.8187
 6428TIP3    H140919   0.750   3.525   0.334 -2.5229  1.9190 -0.1481
 6428TIP3    H240920   0.831   3.628   0.257  0.3068  0.3250  0.5391
 6429TIP3   OH240921   2.169   2.478   1.962 -0.6373  0.1112  0.3749
 6429TIP3    H140922   2.257   2.444   1.982 -1.0968 -0.7341  1.0385
 6429TIP3    H240923   2.185   2.558   1.912  0.5541  1.1735  2.3564
 6430TIP3   OH240924   5.095   3.272   1.088  0.0303  0.2629  0.1886
 6430TIP3    H140925   5.069   3.353   1.132  0.3900  1.2298 -1.3258
 6430TIP3    H240926   5.092   3.206   1.158 -0.2884  1.5519  1.4568
 6431TIP3   OH240927   1.364   2.709   0.260 -0.4556 -0.1850 -0.4490
 6431TIP3    H140928   1.448   2.753   0.272 -0.3780 -0.1904 -0.9466
 6431TIP3    H240929   1.300   2.780   0.253 -0.8898 -0.1713  2.4159
 6432TIP3   OH240930   2.564   4.035   0.921  0.0487 -0.5077 -0.0011
 6432TIP3    H140931   2.599   4.013   0.835  1.1229  0.2080  0.2404
 6432TIP3    H240932   2.552   3.951   0.965  0.5088 -0.8141 -0.4605
 6433TIP3   OH240933   6.091   1.917   7.957 -0.2136 -0.3009 -0.4218
 6433TIP3    H140934   5.997   1.904   7.945 -0.5024  0.0413  1.1621
 6433TIP3    H240935   6.125   1.930   7.869 -1.6945 -0.1919 -1.0115
 6434TIP3   OH240936   3.761   6.181   2.561  0.4605 -0.1750 -0.0077
 6434TIP3    H140937   3.729   6.091   2.564  1.0047 -0.3535  0.6742
 6434TIP3    H240938   3.730   6.215   2.477 -0.3787 -0.7592  0.0598
 6435TIP3   OH240939   3.632   3.700   2.896  0.4627  0.5964 -0.2092
 6435TIP3    H140940   3.678   3.617   2.879 -0.0080 -0.0140  1.3041
 6435TIP3    H240941   3.539   3.678   2.887  0.1762  0.2747  2.5423
 6436TIP3   OH240942   4.400   0.617   2.316  0.1629  0.2605  0.3663
 6436TIP3    H140943   4.487   0.583   2.297 -0.1414 -0.2159 -0.2212
 6436TIP3    H240944   4.349   0.540   2.340 -0.1484  0.5031  0.4904
 6437TIP3   OH240945   2.184   0.399   8.498  0.6341  0.0203  0.1518
 6437TIP3    H140946   2.168   0.305   8.511  0.1763  0.2628  1.5015
 6437TIP3    H240947   2.183   0.410   8.403  0.2719 -1.2731 -0.0176
 6438TIP3   OH240948   5.183   5.649   7.543 -0.0739  0.5087  0.0504
 6438TIP3    H140949   5.164   5.682   7.455 -0.1736  0.2874 -0.0122
 6438TIP3    H240950   5.222   5.723   7.589  1.0552  0.3034 -0.5413
 6439TIP3   OH240951   0.653   0.274   0.601 -0.1431 -0.0913  0.3239
 6439TIP3    H140952   0.564   0.287   0.567  0.7780  2.1228 -1.5320
 6439TIP3    H240953   0.702   0.349   0.568  2.3746 -1.0969  1.5386
 6440TIP3   OH240954   2.147   3.388   1.965  0.2204  0.1822  0.1161
 6440TIP3    H140955   2.098   3.317   1.925  1.9747 -0.0541 -1.7796
 6440TIP3    H240956   2.237   3.376   1.934  0.8196  2.5094  0.7054
 6441TIP3   OH240957   3.957   6.466   2.232  0.3557 -1.0315  0.0694
 6441TIP3    H140958   4.007   6.442   2.310  0.6999 -1.0399 -0.1513
 6441TIP3    H240959   3.997   6.548   2.203 -0.3356 -0.5686  0.3986
 6442TIP3   OH240960   1.458   4.521   0.072 -0.7963  0.2500 -0.6968
 6442TIP3    H140961   1.465   4.427   0.061  1.1669  0.1550  0.7465
 6442TIP3    H240962   1.484   4.558  -0.012  0.4823 -0.5063 -0.6534
 6443TIP3   OH240963   5.762   2.854   7.495 -0.0139  0.3466 -0.8681
 6443TIP3    H140964   5.700   2.788   7.466 -0.8132  0.4602  0.4872
 6443TIP3    H240965   5.708   2.924   7.532  0.8938  0.5242  0.1980
 6444TIP3   OH240966   6.625   5.071   1.782  0.5111 -0.3723  0.2646
 6444TIP3    H140967   6.557   5.014   1.747  1.8274 -1.6961 -0.2498
 6444TIP3    H240968   6.590   5.101   1.866 -1.7332  1.0179 -1.0740
 6445TIP3   OH240969   3.700   2.298   7.448  0.1303  0.0778 -0.1729
 6445TIP3    H140970   3.676   2.292   7.355 -0.7320 -0.1224  0.0624
 6445TIP3    H240971   3.790   2.264   7.451 -0.2277 -0.9729 -0.7689
 6446TIP3   OH240972   2.548   2.653   6.915 -0.3196  0.0120  0.2069
 6446TIP3    H140973   2.509   2.590   6.975 -0.2624 -0.0324  0.1977
 6446TIP3    H240974   2.494   2.732   6.924 -1.9526 -0.8145 -1.5779
 6447TIP3   OH240975   2.512   5.199   0.191 -0.7748 -0.1465 -0.0479
 6447TIP3    H140976   2.479   5.118   0.229  0.8012 -0.4880  0.6719
 6447TIP3    H240977   2.604   5.181   0.172 -0.5452  1.2792 -0.4502
 6448TIP3   OH240978   0.957   1.796   2.123 -0.2825 -0.2340  0.3677
 6448TIP3    H140979   0.970   1.880   2.079  3.2159 -0.3262  0.8823
 6448TIP3    H240980   0.968   1.816   2.216  1.0910 -1.2791  0.4659
 6449TIP3   OH240981   2.739   5.986   0.152 -0.2656 -0.1866  0.1339
 6449TIP3    H140982   2.646   6.004   0.167 -0.1474  3.9160 -2.4530
 6449TIP3    H240983   2.740   5.929   0.074 -0.5580 -1.0256  0.7282
 6450TIP3   OH240984   1.881   2.987   8.502 -0.3034  0.0327 -0.5163
 6450TIP3    H140985   1.943   3.014   8.434 -1.1825  0.8471 -1.0008
 6450TIP3    H240986   1.795   3.004   8.465 -0.8783 -2.0347 -0.2472
 6451TIP3   OH240987   5.048   2.251   7.739 -0.2801 -0.1537 -0.2587
 6451TIP3    H140988   5.031   2.205   7.822 -1.2405  0.9898  0.2108
 6451TIP3    H240989   5.094   2.186   7.685 -0.3642 -1.1993  0.8638
 6452TIP3   OH240990   5.403   3.991   2.262  0.6438  0.2948 -0.0786
 6452TIP3    H140991   5.429   3.967   2.351  0.4376 -0.0792 -0.1160
 6452TIP3    H240992   5.316   4.030   2.272 -0.3340 -1.6683 -0.3264
 6453TIP3   OH240993   4.300   3.096   0.853 -0.1271 -0.0116  0.5583
 6453TIP3    H140994   4.387   3.126   0.828  0.2489  0.8432  2.6472
 6453TIP3    H240995   4.263   3.060   0.773  1.2668  1.6825 -0.9272
 6454TIP3   OH240996   3.076   0.572   1.998  0.1592  0.0337  0.1918
 6454TIP3    H140997   3.028   0.526   2.067  1.5673 -0.8860  0.5965
 6454TIP3    H240998   3.011   0.586   1.930 -0.4089 -2.4712  0.1062
 6455TIP3   OH240999   6.141   1.217   1.735 -0.0076  0.3140 -0.0400
 6455TIP3    H141000   6.125   1.301   1.777  1.5734  0.8435 -0.4373
 6455TIP3    H241001   6.076   1.212   1.665 -0.9159  0.6237  0.7735
 6456TIP3   OH241002   1.128   0.569   6.995 -0.0165 -0.0933  0.7057
 6456TIP3    H141003   1.043   0.547   7.032 -0.2040 -1.2823 -0.3391
 6456TIP3    H241004   1.175   0.615   7.065  0.0422 -3.0773  2.7970
 6457TIP3   OH241005   2.661   0.878   1.771  0.2647  0.6846 -0.2590
 6457TIP3    H141006   2.744   0.897   1.728  0.3299  0.7304 -0.1147
 6457TIP3    H241007   2.630   0.962   1.804 -1.0132  1.1050 -2.3394
 6458TIP3   OH241008   4.434   5.659   7.254 -0.2040  0.0333 -0.5038
 6458TIP3    H141009   4.399   5.600   7.188  1.4067  0.4083 -1.7603
 6458TIP3    H241010   4.422   5.747   7.217 -0.3544  0.3300  0.2321
 6459TIP3   OH241011   5.195   2.569   0.127  0.5843  0.2872  0.4685
 6459TIP3    H141012   5.227   2.594   0.213  1.6413 -0.0618  0.1853
 6459TIP3    H241013   5.155   2.649   0.092 -0.4731  0.2571  1.5344
 6460TIP3   OH241014   3.067   0.371   8.417  0.9538 -0.0144  0.4884
 6460TIP3    H141015   3.118   0.304   8.462 -1.3987 -0.9649  1.9682
 6460TIP3    H241016   3.119   0.395   8.341  3.9713 -0.1964  2.3641
 6461TIP3   OH241017   2.591   6.311   7.726 -0.1884 -0.4051 -0.5648
 6461TIP3    H141018   2.639   6.383   7.685 -0.3197 -0.0667 -0.1238
 6461TIP3    H241019   2.647   6.282   7.798 -0.8668  0.3372  0.2827
 6462TIP3   OH241020   5.772   2.349   8.632  0.2041  0.1927  0.6234
 6462TIP3    H141021   5.803   2.259   8.632 -0.2435  0.0329 -0.3302
 6462TIP3    H241022   5.826   2.393   8.698 -0.1034 -0.9458  1.6788
 6463TIP3   OH241023   3.069   1.004   8.030 -0.0256 -0.7328 -0.1414
 6463TIP3    H141024   3.006   0.934   8.013 -1.1959  0.4289 -0.7677
 6463TIP3    H241025   3.051   1.031   8.120  0.2842 -1.0872  0.0293
 6464TIP3   OH241026   3.298   6.642   0.184  0.1631  0.3257 -0.4256
 6464TIP3    H141027   3.379   6.614   0.140  0.2153 -0.1936 -0.0203
 6464TIP3    H241028   3.328   6.677   0.268 -0.0505 -0.1725 -0.1348
 6465TIP3   OH241029   2.459   6.020   0.180 -0.2986 -0.7555  0.2046
 6465TIP3    H141030   2.405   6.014   0.259  0.2179 -1.7358  0.5029
 6465TIP3    H241031   2.445   5.936   0.135 -1.5469  0.2699 -1.4004
 6466TIP3   OH241032   3.979   3.051   0.452 -0.1898 -0.6637  0.4454
 6466TIP3    H141033   3.884   3.041   0.441 -0.3563 -1.3556  2.1689
 6466TIP3    H241034   4.016   3.020   0.370 -1.5046  1.8274 -1.2114
 6467TIP3   OH241035   5.207   3.747   0.113 -0.0835 -0.7018 -1.0328
 6467TIP3    H141036   5.216   3.652   0.104  0.9682 -0.6175 -0.9280
 6467TIP3    H241037   5.178   3.777   0.026 -1.8728 -1.2659 -0.6699
 6468TIP3   OH241038   6.761   5.911   0.695  0.5489 -0.4346  0.7438
 6468TIP3    H141039   6.695   5.979   0.686 -0.4813 -1.3659  0.9798
 6468TIP3    H241040   6.845   5.957   0.693  0.0663  0.5580 -2.3313
 6469TIP3   OH241041   3.487   3.611   0.810 -0.2618  0.1657 -0.2612
 6469TIP3    H141042   3.488   3.516   0.816  0.6336  0.2046  0.6656
 6469TIP3    H241043   3.404   3.637   0.850 -1.1805 -0.2702 -1.8447
 6470TIP3   OH241044   3.494   3.717   7.983  0.1349  0.1894 -0.2439
 6470TIP3    H141045   3.462   3.807   7.992  1.4041  0.6052  0.2983
 6470TIP3    H241046   3.518   3.709   7.891 -3.0683 -0.7024 -1.1216
 6471TIP3   OH241047   1.594   0.223   1.540 -0.1575  0.5492  0.1942
 6471TIP3    H141048   1.555   0.306   1.512 -0.6182 -0.0929 -1.1795
 6471TIP3    H241049   1.548   0.157   1.489  1.0850 -0.4408  0.3012
 6472TIP3   OH241050   1.660   3.944   8.202 -0.0518  0.1407 -0.0300
 6472TIP3    H141051   1.724   3.877   8.178  1.3762  1.1775  0.7205
 6472TIP3    H241052   1.680   4.018   8.145 -1.0597  0.2311 -0.2794
 6473TIP3   OH241053   1.441   3.821   1.584  0.4389  0.3152  0.0928
 6473TIP3    H141054   1.481   3.762   1.648 -2.0539 -0.4377  1.0724
 6473TIP3    H241055   1.514   3.872   1.549  2.0716 -0.1606  2.5736
 6474TIP3   OH241056   1.196   3.851   8.114  0.1094  0.0001 -0.1272
 6474TIP3    H141057   1.263   3.784   8.117 -0.4427 -0.5176  1.1547
 6474TIP3    H241058   1.118   3.807   8.080 -0.1454  0.0849  0.3355
 6475TIP3   OH241059   2.921   6.501   8.191  0.6420 -0.8285  0.3139
 6475TIP3    H141060   2.888   6.560   8.123  1.6558 -1.2615 -0.5725
 6475TIP3    H241061   2.850   6.437   8.204  0.3584 -0.6137 -0.1677
 6476TIP3   OH241062   1.366   1.727   2.203  0.0559 -0.6536 -0.3065
 6476TIP3    H141063   1.318   1.765   2.130  0.9136  1.4445  0.1365
 6476TIP3    H241064   1.309   1.739   2.278  0.1098 -0.7175 -0.2551
 6477TIP3   OH241065   1.766   5.301   7.512 -0.1024 -0.5343 -0.0980
 6477TIP3    H141066   1.760   5.387   7.555 -3.3412 -1.1789  1.0209
 6477TIP3    H241067   1.752   5.320   7.420 -2.4546  0.0662  0.3281
 6478TIP3   OH241068   0.899   0.038   1.013  0.3311 -0.2716 -0.1094
 6478TIP3    H141069   0.939  -0.047   0.995  0.2094 -0.2370 -0.5597
 6478TIP3    H241070   0.811   0.018   1.045  1.0457 -0.3926  1.9366
 6479TIP3   OH241071   3.355   4.819   7.313 -0.0759  0.0530  0.1962
 6479TIP3    H141072   3.448   4.825   7.333 -0.0136  1.4082 -0.3369
 6479TIP3    H241073   3.331   4.730   7.335  0.3994  0.7695  4.3576
 6480TIP3   OH241074   0.439   6.259   2.049  0.4254 -0.4214  0.2513
 6480TIP3    H141075   0.444   6.234   1.956 -2.7805  1.7462 -0.6885
 6480TIP3    H241076   0.373   6.199   2.085  1.9210 -1.4976  1.3249
 6481TIP3   OH241077   2.595   3.115   8.386 -0.0603  0.3028  0.0975
 6481TIP3    H141078   2.539   3.096   8.311 -1.5928  0.5481  1.1283
 6481TIP3    H241079   2.605   3.031   8.431  0.7113  0.1898 -0.2712
 6482TIP3   OH241080   0.706   3.772   8.779 -0.1532  0.1659 -0.5618
 6482TIP3    H141081   0.722   3.683   8.811 -0.7033  0.2818  0.0527
 6482TIP3    H241082   0.627   3.764   8.726 -1.2962  0.5960  0.9921
 6483TIP3   OH241083   2.532   0.220   1.030  0.1295 -0.2539  0.4276
 6483TIP3    H141084   2.454   0.168   1.050  0.7332 -1.0699  0.7321
 6483TIP3    H241085   2.534   0.287   1.097 -2.9431  2.8989 -2.2636
 6484TIP3   OH241086   3.967   5.744   1.786 -0.1764  0.1619  0.1505
 6484TIP3    H141087   3.886   5.693   1.797  0.7945 -2.0480 -2.0141
 6484TIP3    H241088   3.994   5.766   1.875 -1.9512 -1.0220  1.0337
 6485TIP3   OH241089   1.988   1.968   7.872  0.6240 -0.5780 -0.1452
 6485TIP3    H141090   2.003   1.873   7.873  0.2461 -0.6415  1.3398
 6485TIP3    H241091   1.952   1.987   7.958  3.7403  1.4304  0.8618
 6486TIP3   OH241092   4.534   4.599   0.648  0.4196 -0.0038  0.1831
 6486TIP3    H141093   4.605   4.630   0.591 -0.0108  2.8246  0.9920
 6486TIP3    H241094   4.467   4.566   0.588  0.7231  1.2574 -0.9032
 6487TIP3   OH241095   2.092   2.792   8.811  0.2790  0.4543  0.2316
 6487TIP3    H141096   2.089   2.765   8.903 -0.1505 -0.6343 -0.0904
 6487TIP3    H241097   2.180   2.767   8.782  0.6517  1.3924  0.5051
 6488TIP3   OH241098   2.651   6.526   8.791  0.0380  0.3711 -0.8293
 6488TIP3    H141099   2.662   6.439   8.829  1.4805 -0.1397 -2.2960
 6488TIP3    H241100   2.673   6.587   8.861 -1.1486 -0.4124  0.2636
 6489TIP3   OH241101   1.303   3.156   1.921 -0.0562  0.0296  0.2453
 6489TIP3    H141102   1.340   3.240   1.950  0.9621 -0.1274 -0.5372
 6489TIP3    H241103   1.214   3.177   1.895  0.2922  0.9553 -0.2574
 6490TIP3   OH241104   5.503   4.153   8.341 -0.1597 -0.7070  0.3421
 6490TIP3    H141105   5.513   4.168   8.247  1.2543  2.1222  0.8218
 6490TIP3    H241106   5.590   4.124   8.369 -0.3370 -0.7042  0.8938
 6491TIP3   OH241107   4.966   6.397   0.213  0.2455 -0.1906  0.6166
 6491TIP3    H141108   4.985   6.477   0.164 -0.1758 -0.5967 -0.2386
 6491TIP3    H241109   4.875   6.407   0.241  0.2716 -0.2568  0.7255
 6492TIP3   OH241110   3.148   1.552   0.590 -0.4275  0.8430 -0.0349
 6492TIP3    H141111   3.052   1.549   0.581 -0.6270  0.1152  1.9327
 6492TIP3    H241112   3.169   1.477   0.644  1.2217  1.3010 -0.0026
 6493TIP3   OH241113   2.534   2.255   7.558 -0.3687 -0.3134 -0.0551
 6493TIP3    H141114   2.532   2.162   7.533  2.8644 -0.5212  0.0951
 6493TIP3    H241115   2.458   2.292   7.514 -1.4397 -2.9018 -0.6044
 6494TIP3   OH241116   0.996   5.971   8.113 -0.0966 -0.9248 -0.2838
 6494TIP3    H141117   0.954   6.040   8.164  0.9416 -0.0672 -0.5461
 6494TIP3    H241118   1.006   6.009   8.026  0.9770 -1.1960 -0.2889
 6495TIP3   OH241119   2.151   0.090   7.755  0.1983  0.1636 -0.1350
 6495TIP3    H141120   2.196   0.131   7.829  0.7064  0.1899 -0.4564
 6495TIP3    H241121   2.083   0.153   7.731 -0.6066 -0.2770  0.9220
 6496TIP3   OH241122   4.825   0.959   2.389  0.6344  0.2066  0.2645
 6496TIP3    H141123   4.915   0.950   2.421  0.7797  0.3352 -0.1134
 6496TIP3    H241124   4.800   0.871   2.364  0.7849  0.2352  0.0154
 6497TIP3   OH241125   0.064   6.519   8.345 -0.0055  0.3300  0.2224
 6497TIP3    H141126   0.012   6.529   8.265  1.4652  0.0345 -0.8185
 6497TIP3    H241127   0.049   6.599   8.395  0.0291  1.0881 -0.9584
 6498TIP3   OH241128   2.844   0.351   0.795 -0.2293 -0.3801  0.0445
 6498TIP3    H141129   2.795   0.403   0.859 -0.1993 -0.8070  0.4225
 6498TIP3    H241130   2.778   0.292   0.757 -0.4383  0.4800 -0.9853
 6499TIP3   OH241131   0.131   0.160   8.482 -0.1468  0.2409 -0.1584
 6499TIP3    H141132   0.120   0.243   8.435 -1.8605 -0.6471 -1.4293
 6499TIP3    H241133   0.200   0.178   8.545  0.3436  2.2961 -1.1823
 6500TIP3   OH241134   3.936   0.360   0.083 -0.3088  0.0376  0.0623
 6500TIP3    H141135   3.989   0.423   0.132 -0.3711 -1.0453  1.6059
 6500TIP3    H241136   3.951   0.383  -0.009  0.8080  1.3692  0.5308
 6501TIP3   OH241137   6.524   2.206   0.249 -0.8801  0.6171  0.0510
 6501TIP3    H141138   6.471   2.229   0.173 -0.3564 -0.7083 -0.7557
 6501TIP3    H241139   6.480   2.248   0.323 -2.2171  0.7396 -0.7815
 6502TIP3   OH241140   1.780   3.931   8.635  0.0729  0.1193  0.0266
 6502TIP3    H141141   1.738   4.000   8.584  0.8273  0.2298 -0.4764
 6502TIP3    H241142   1.838   3.978   8.695 -0.5488 -0.0263  0.7522
 6503TIP3   OH241143   1.197   0.512   2.710 -0.1322 -0.1861  0.4180
 6503TIP3    H141144   1.277   0.563   2.714 -1.2970  2.0661 -2.1665
 6503TIP3    H241145   1.212   0.450   2.639 -0.4960 -0.0980  0.2638
 6504TIP3   OH241146   3.385   1.419   2.154 -0.0218  0.1457 -0.1983
 6504TIP3    H141147   3.398   1.502   2.200 -0.8745  0.4011 -0.4073
 6504TIP3    H241148   3.312   1.435   2.095 -0.5788 -0.9260  0.1712
 6505TIP3   OH241149   6.270   2.670   7.268 -0.1331  0.0523 -0.4870
 6505TIP3    H141150   6.187   2.622   7.280  0.5086 -0.3993  3.5757
 6505TIP3    H241151   6.333   2.601   7.247 -0.1776 -0.1047 -0.1156
 6506TIP3   OH241152   3.855   4.613   8.503 -0.0379 -0.1126 -0.6382
 6506TIP3    H141153   3.824   4.677   8.439  1.0165  0.2024 -0.8596
 6506TIP3    H241154   3.796   4.623   8.578 -1.2696 -0.4598 -1.5232
 6507TIP3   OH241155   0.224   4.092   0.314 -0.1887  0.3034  0.2847
 6507TIP3    H141156   0.182   4.029   0.373  1.1617 -1.4165 -0.4914
 6507TIP3    H241157   0.188   4.072   0.228  2.1875 -1.3651 -0.4389
 6508TIP3   OH241158   0.368   5.358   7.288  0.3032  0.5982  0.0958
 6508TIP3    H141159   0.300   5.372   7.221  2.1648  1.2742 -1.7745
 6508TIP3    H241160   0.406   5.273   7.266  1.9376  1.4905 -0.7220
 6509TIP3   OH241161   1.920   1.328   6.677  0.2291  0.0201 -0.6653
 6509TIP3    H141162   1.959   1.256   6.627  1.9913  1.0400 -0.8679
 6509TIP3    H241163   1.939   1.307   6.768 -1.0233 -0.7384 -0.5638
 6510TIP3   OH241164   4.482   1.749   2.012  0.1048  0.2867 -0.4040
 6510TIP3    H141165   4.515   1.753   1.922  2.4262  0.3465  0.3765
 6510TIP3    H241166   4.390   1.774   2.005 -0.2982 -1.5181 -2.9843
 6511TIP3   OH241167   3.027   2.404   0.555  0.2626 -0.2078  0.2403
 6511TIP3    H141168   2.950   2.461   0.558 -1.4733 -2.0425 -2.9144
 6511TIP3    H241169   3.019   2.350   0.634 -0.5949  0.8933  0.9478
 6512TIP3   OH241170   3.726   1.250   2.412 -0.2991  0.0119  0.3314
 6512TIP3    H141171   3.750   1.186   2.479  2.1722 -0.8159 -1.1963
 6512TIP3    H241172   3.742   1.335   2.453 -0.5121 -0.4117  1.3259
 6513TIP3   OH241173   5.860   5.266   1.947 -0.0250 -0.3210  0.0972
 6513TIP3    H141174   5.853   5.359   1.925 -3.2193 -0.2380  1.0350
 6513TIP3    H241175   5.893   5.265   2.037  1.2230 -0.2031 -0.3349
 6514TIP3   OH241176   6.323   5.790   7.943  0.3905  0.3190 -0.6175
 6514TIP3    H141177   6.231   5.817   7.950  0.5938  0.6599  1.3245
 6514TIP3    H241178   6.364   5.859   7.890 -0.0358  1.4157  0.4384
 6515TIP3   OH241179   3.225   5.679   7.869  0.0129 -0.1187 -0.2018
 6515TIP3    H141180   3.270   5.724   7.798 -0.3115  0.8255  0.1784
 6515TIP3    H241181   3.286   5.611   7.897  0.6110  0.2342 -0.6245
 6516TIP3   OH241182   5.618   0.728   0.958 -0.0283 -0.1244  0.0272
 6516TIP3    H141183   5.652   0.721   0.868 -0.5893  0.5685 -0.2469
 6516TIP3    H241184   5.664   0.803   0.995 -0.6185  0.2884 -0.0630
 6517TIP3   OH241185   5.160   1.937   8.200  0.0797 -0.8986 -0.1609
 6517TIP3    H141186   5.191   2.019   8.164  0.2230 -0.5817  0.6495
 6517TIP3    H241187   5.065   1.948   8.206 -0.0767 -1.3791 -1.4491
 6518TIP3   OH241188   6.219   4.330   1.718  0.1311 -0.3065  0.1982
 6518TIP3    H141189   6.268   4.412   1.724  0.6106 -0.5870  0.2342
 6518TIP3    H241190   6.262   4.282   1.648  1.4356 -1.5332  1.7380
 6519TIP3   OH241191   3.367   3.761   2.854 -0.0088  0.2999 -0.2946
 6519TIP3    H141192   3.297   3.727   2.798  1.2107 -0.6671 -1.2954
 6519TIP3    H241193   3.364   3.856   2.842 -0.5899  0.2014 -1.0052
 6520TIP3   OH241194   1.620   3.708   0.817 -0.1248  0.3729  0.8682
 6520TIP3    H141195   1.627   3.640   0.750  0.3397 -0.1716  1.4561
 6520TIP3    H241196   1.705   3.707   0.861 -0.3679  0.8340  1.3668
 6521TIP3   OH241197   6.341   5.841   7.562  0.1997 -0.3808 -0.3471
 6521TIP3    H141198   6.424   5.889   7.560  0.3347 -0.6274 -1.8044
 6521TIP3    H241199   6.274   5.909   7.568  0.4865 -0.1765  0.8000
 6522TIP3   OH241200   1.783   2.451   0.191  0.8523  0.3682  0.6715
 6522TIP3    H141201   1.695   2.447   0.228  0.6777 -2.7654  0.2326
 6522TIP3    H241202   1.835   2.393   0.247  1.3984 -1.7037 -1.8025
 6523TIP3   OH241203   0.832   6.226   0.295  0.1301 -0.2146  0.8799
 6523TIP3    H141204   0.741   6.210   0.270  0.3338 -2.8767  1.5999
 6523TIP3    H241205   0.825   6.267   0.382 -0.3722 -0.6275  1.0398
 6524TIP3   OH241206   5.527   6.200   7.071  0.7712 -0.0323  0.3922
 6524TIP3    H141207   5.594   6.267   7.087 -0.6220  0.7719  3.6049
 6524TIP3    H241208   5.469   6.239   7.006  0.3088  1.7202  1.7819
 6525TIP3   OH241209   6.184   3.088   8.490  0.1698  0.1889  0.0923
 6525TIP3    H141210   6.178   3.057   8.400  1.2645 -0.6056  0.2730
 6525TIP3    H241211   6.093   3.110   8.514 -0.2471 -0.3668 -0.9226
 6526TIP3   OH241212   4.173   1.611   8.117  0.1905 -0.4359 -0.1651
 6526TIP3    H141213   4.099   1.570   8.072  0.7985 -0.0806 -1.5350
 6526TIP3    H241214   4.191   1.553   8.191 -2.1383  0.0474  0.8571
 6527TIP3   OH241215   0.654   5.334   1.390 -0.1170  0.2594  0.4546
 6527TIP3    H141216   0.737   5.325   1.436  0.4679  0.0877 -0.5835
 6527TIP3    H241217   0.652   5.427   1.364 -0.0822  0.1852  0.1843
 6528TIP3   OH241218   5.848   2.909   0.839  0.4082  0.3199  0.2108
 6528TIP3    H141219   5.782   2.860   0.789 -0.5625  1.1205  0.6754
 6528TIP3    H241220   5.880   2.846   0.904 -0.1864  0.0358  0.2366
 6529TIP3   OH241221   6.555   6.431   1.029 -0.2641  0.1605 -0.2208
 6529TIP3    H141222   6.568   6.357   0.969  0.3061  0.6079 -0.6632
 6529TIP3    H241223   6.607   6.502   0.990 -1.0600  0.8876  0.0256
 6530TIP3   OH241224   1.447   4.670   0.827  0.2957  0.5683  0.1009
 6530TIP3    H141225   1.515   4.634   0.884 -0.5242 -1.7860 -0.3011
 6530TIP3    H241226   1.375   4.608   0.834 -1.0102  1.8663 -1.1445
 6531TIP3   OH241227   4.986   3.933   7.815 -0.3849 -0.2712  0.0241
 6531TIP3    H141228   4.926   3.863   7.792  1.4906 -0.9578 -3.4940
 6531TIP3    H241229   5.022   3.907   7.900 -3.4050 -0.8356  1.2529
 6532TIP3   OH241230   0.450   0.637   8.024  0.3793  0.3274  0.3972
 6532TIP3    H141231   0.505   0.627   8.102 -1.1265 -1.4043  1.2906
 6532TIP3    H241232   0.455   0.552   7.980 -3.0758 -0.6362  1.5715
 6533TIP3   OH241233   5.298   0.688   7.496  0.1325  0.1956 -0.5746
 6533TIP3    H141234   5.391   0.681   7.474 -0.0999  0.4795 -1.7052
 6533TIP3    H241235   5.286   0.779   7.523  0.3151 -0.0240  0.2841
 6534TIP3   OH241236   5.847   2.087   8.659  0.5589 -0.0075  0.2756
 6534TIP3    H141237   5.921   2.105   8.716  0.7209 -0.6156  0.2642
 6534TIP3    H241238   5.881   2.026   8.593  0.5720  1.2589 -0.9211
 6535TIP3   OH241239   4.181   6.257   8.666  0.4458 -0.2988 -0.6440
 6535TIP3    H141240   4.113   6.196   8.695 -0.1049  1.5453  2.3731
 6535TIP3    H241241   4.134   6.335   8.640  1.3088  1.1307  1.7942
 6536TIP3   OH241242   1.525   1.223   0.209 -0.0926 -0.2544  0.6237
 6536TIP3    H141243   1.455   1.177   0.256 -0.1038 -1.2779 -0.3480
 6536TIP3    H241244   1.575   1.267   0.278 -0.9975 -0.4679  1.4447
 6537TIP3   OH241245   2.786   4.117   7.948 -0.9047  0.6526 -0.3681
 6537TIP3    H141246   2.833   4.186   7.902  1.8337 -1.3037 -0.7799
 6537TIP3    H241247   2.715   4.092   7.888  0.2736  0.7394 -1.8629
 6538TIP3   OH241248   5.533   2.559   7.983 -0.4642 -0.3838 -0.9307
 6538TIP3    H141249   5.601   2.617   8.016 -0.1919 -0.8131 -0.7193
 6538TIP3    H241250   5.577   2.503   7.920 -0.2239 -1.7557  0.3831
 6539TIP3   OH241251   4.714   0.480   0.604  0.0615 -0.0759 -0.3412
 6539TIP3    H141252   4.704   0.463   0.697 -1.5657 -0.9729 -0.6449
 6539TIP3    H241253   4.799   0.524   0.596 -0.1806  0.8369  1.6517
 6540TIP3   OH241254   0.372   3.884   7.701  0.4949 -0.2332  0.0010
 6540TIP3    H141255   0.323   3.836   7.633  0.6029 -0.2130 -0.0913
 6540TIP3    H241256   0.328   3.861   7.782  1.5237 -1.7952  0.1705
 6541TIP3   OH241257   2.387   0.378   7.500  0.0565 -0.0414 -0.1283
 6541TIP3    H141258   2.374   0.395   7.593 -0.7527  0.8969 -0.3984
 6541TIP3    H241259   2.482   0.368   7.490  0.0980 -0.7381  0.8809
 6542TIP3   OH241260   3.647   3.917   1.304 -0.0519 -0.3961 -0.1370
 6542TIP3    H141261   3.674   4.001   1.267  0.8422  0.0177  1.3350
 6542TIP3    H241262   3.658   3.855   1.233  2.4265  0.2134 -0.3749
 6543TIP3   OH241263   2.722   0.077   1.599 -0.3254  0.3557  0.2224
 6543TIP3    H141264   2.780   0.127   1.656  1.0349  1.0322 -1.6713
 6543TIP3    H241265   2.712   0.131   1.520 -0.0236 -1.6527 -1.2733
 6544TIP3   OH241266   3.211   4.790   6.868 -0.1687  0.7426  0.0783
 6544TIP3    H141267   3.268   4.743   6.929 -1.3011 -1.8925 -0.7732
 6544TIP3    H241268   3.127   4.797   6.914 -0.9685 -1.0830 -1.0177
 6545TIP3   OH241269   6.027   2.913   0.029  0.3680 -0.1371 -0.1668
 6545TIP3    H141270   5.995   2.920  -0.061 -1.7701 -0.9778  0.4575
 6545TIP3    H241271   5.986   2.833   0.062  2.1505 -0.5417  1.1788
 6546TIP3   OH241272   0.955   6.780   2.361 -0.2139 -0.0582  0.0684
 6546TIP3    H141273   0.972   6.852   2.301 -0.2514 -0.8541 -0.9180
 6546TIP3    H241274   0.859   6.771   2.361 -0.2144 -0.0688  0.2433
 6547TIP3   OH241275   3.284   5.815   0.285  0.2803 -0.4904 -0.4640
 6547TIP3    H141276   3.295   5.909   0.291 -0.6702 -0.3702 -0.4412
 6547TIP3    H241277   3.190   5.803   0.269  0.2392 -1.4700  0.4155
 6548TIP3   OH241278   1.473   5.807   2.176  0.0297 -1.0804 -0.2506
 6548TIP3    H141279   1.526   5.813   2.256  2.3361  0.6751 -1.7865
 6548TIP3    H241280   1.413   5.881   2.182 -1.0119 -1.9794  0.6374
 6549TIP3   OH241281   3.606   5.170   0.328  0.6664 -0.0114 -0.7674
 6549TIP3    H141282   3.553   5.219   0.391 -1.9417 -1.7924 -1.4177
 6549TIP3    H241283   3.562   5.183   0.244  1.2839 -1.5257 -1.3542
 6550TIP3   OH241284   5.187   2.634   2.058  0.0237  0.5865 -0.3433
 6550TIP3    H141285   5.099   2.625   2.095  0.4877  1.7996  1.1341
 6550TIP3    H241286   5.216   2.543   2.045 -1.3013  0.1661 -0.5306
 6551TIP3   OH241287   4.420   2.696   2.151  0.5011 -0.1785 -0.3082
 6551TIP3    H141288   4.371   2.635   2.206  0.8517 -1.9304 -1.8328
 6551TIP3    H241289   4.508   2.697   2.190  0.0664  0.6782  0.6947
 6552TIP3   OH241290   6.535   5.963   7.865  0.4898 -0.3421 -0.0782
 6552TIP3    H141291   6.545   6.011   7.948  0.3509 -1.6317  0.7136
 6552TIP3    H241292   6.616   5.980   7.817  0.4195  0.7161  0.1564
 6553TIP3   OH241293   5.436   3.276   7.869  0.0762  0.0256 -0.0059
 6553TIP3    H141294   5.520   3.243   7.901  0.3372  0.8750  0.1972
 6553TIP3    H241295   5.453   3.368   7.846 -0.7317  0.1297 -0.2105
 6554TIP3   OH241296   5.018   4.092   7.140  0.1580 -0.1437 -0.4273
 6554TIP3    H141297   5.015   4.036   7.062 -0.4584 -0.6149 -0.0741
 6554TIP3    H241298   4.936   4.142   7.138  0.0090 -0.3617  0.0616
 6555TIP3   OH241299   5.147   4.486   0.037 -0.1409 -0.3167 -0.2407
 6555TIP3    H141300   5.230   4.463  -0.004 -0.5166  1.0885 -1.9134
 6555TIP3    H241301   5.084   4.423   0.002  0.4599 -2.6971  2.5665
 6556TIP3   OH241302   1.913   2.002   7.507 -0.1858  0.0099 -0.7754
 6556TIP3    H141303   2.001   1.969   7.527 -0.0496  0.0334 -1.3195
 6556TIP3    H241304   1.878   1.940   7.442 -1.7603 -1.7803  1.5834
 6557TIP3   OH241305   2.212   2.294   1.534 -0.0377 -0.4368 -0.3568
 6557TIP3    H141306   2.203   2.284   1.628 -0.0263  3.0451  0.1762
 6557TIP3    H241307   2.123   2.291   1.500 -0.2813  0.6933  0.1486
 6558TIP3   OH241308   0.781   4.732   0.422  0.1190  0.2339 -0.4036
 6558TIP3    H141309   0.821   4.691   0.345  0.5499  0.0387 -0.0750
 6558TIP3    H241310   0.735   4.660   0.466 -1.0389  0.5463 -1.0464
 6559TIP3   OH241311   5.984   1.733   2.488  0.0040 -0.1426 -0.3167
 6559TIP3    H141312   5.910   1.702   2.435 -0.3770 -0.4325  0.3635
 6559TIP3    H241313   6.061   1.689   2.450 -0.3905 -1.1085 -0.0374
 6560TIP3   OH241314   2.309   2.771   0.637  0.3810  0.1841 -0.3790
 6560TIP3    H141315   2.218   2.782   0.664  0.8839  0.6126  1.2896
 6560TIP3    H241316   2.305   2.752   0.544 -1.2981  2.4822 -0.8627
 6561TIP3   OH241317   4.690   5.382   0.159  0.3469  0.2393 -0.5558
 6561TIP3    H141318   4.661   5.309   0.105 -0.2399 -0.5712  0.7790
 6561TIP3    H241319   4.640   5.457   0.127 -0.3515 -0.3286 -0.8267
 6562TIP3   OH241320   0.464   5.220   7.519  0.1170 -0.1740  0.3172
 6562TIP3    H141321   0.459   5.281   7.446  0.4069 -0.1078  0.3545
 6562TIP3    H241322   0.517   5.147   7.486 -0.1821 -0.3855  0.2898
 6563TIP3   OH241323   3.611   5.446   8.046  0.2131 -0.6965  0.1195
 6563TIP3    H141324   3.645   5.435   8.135  0.0828  4.5048  1.1696
 6563TIP3    H241325   3.688   5.442   7.990  1.2668  1.3635  1.2872
 6564TIP3   OH241326   6.025   6.462   1.355 -0.1195 -0.2018  0.1797
 6564TIP3    H141327   6.057   6.386   1.402 -2.5097 -1.6999 -0.4138
 6564TIP3    H241328   6.096   6.526   1.360  1.2705 -1.7779  2.2562
 6565TIP3   OH241329   0.476   5.250   0.995 -0.0343  0.3131 -0.4925
 6565TIP3    H141330   0.479   5.228   1.088  1.0567  2.1490 -0.0427
 6565TIP3    H241331   0.409   5.318   0.988  2.1216  2.6071 -0.3967
 6566TIP3   OH241332   2.076   4.934   0.631  0.0662  0.6578  0.1148
 6566TIP3    H141333   2.015   4.882   0.683 -0.0781 -1.2699 -1.8324
 6566TIP3    H241334   2.021   4.982   0.569  0.3989  0.6515 -0.1914
 6567TIP3   OH241335   1.249   6.722   1.289  0.1783  0.1918 -0.7677
 6567TIP3    H141336   1.298   6.746   1.210  1.3968 -0.7370 -0.3350
 6567TIP3    H241337   1.296   6.768   1.359 -1.0218  1.1842 -0.5756
 6568TIP3   OH241338   1.303   0.176   2.014  0.0841  0.3574 -0.2614
 6568TIP3    H141339   1.377   0.183   2.075  1.1074  0.8689 -1.5176
 6568TIP3    H241340   1.325   0.235   1.942 -0.0820 -1.7390 -2.1458
 6569TIP3   OH241341   0.376   1.852   3.114 -0.3658 -0.5146 -0.1997
 6569TIP3    H141342   0.451   1.882   3.062 -0.3634  0.7831  0.5280
 6569TIP3    H241343   0.327   1.932   3.134 -2.0300 -1.3441 -0.7572
 6570TIP3   OH241344   2.321   2.527   0.973 -0.3764  0.0486 -0.8317
 6570TIP3    H141345   2.237   2.557   0.939 -1.7791 -1.4567  1.0605
 6570TIP3    H241346   2.329   2.570   1.058  0.8858  0.3132 -1.0636
 6571TIP3   OH241347   3.785   0.277   7.549  0.4212  0.2244 -0.1644
 6571TIP3    H141348   3.784   0.234   7.464 -0.3198 -0.2812  0.0891
 6571TIP3    H241349   3.693   0.284   7.573  0.6632 -2.1424  1.8295
 6572TIP3   OH241350   0.074   5.252   0.622  0.2205  0.0880  0.1508
 6572TIP3    H141351   0.147   5.193   0.640  0.5949 -0.0571 -1.5898
 6572TIP3    H241352   0.082   5.270   0.528 -1.0573  1.3339  0.2570
 6573TIP3   OH241353   6.123   3.817   8.845 -0.0063 -0.3938  0.3047
 6573TIP3    H141354   6.207   3.840   8.885  0.2878  0.4353 -0.7543
 6573TIP3    H241355   6.139   3.730   8.806  0.6522  0.1245 -0.6376
 6574TIP3   OH241356   2.835   1.048   2.617 -0.6036  0.2083 -0.1308
 6574TIP3    H141357   2.884   0.973   2.651  0.9194  1.7574  1.2636
 6574TIP3    H241358   2.790   1.085   2.693 -0.2238  1.4996 -0.5017
 6575TIP3   OH241359   4.082   5.747   0.892  0.3841  0.1584 -0.2003
 6575TIP3    H141360   4.177   5.744   0.880  0.1730  0.3000 -2.2713
 6575TIP3    H241361   4.064   5.678   0.955  1.7120 -1.0458 -1.0783
 6576TIP3   OH241362   0.090   4.057   0.921 -0.1949  0.0421  0.4584
 6576TIP3    H141363   0.093   4.015   1.007  1.9738 -1.8145 -0.3868
 6576TIP3    H241364   0.179   4.046   0.887 -1.0569  0.4015 -2.1488
 6577TIP3   OH241365   6.427   5.142   8.439 -0.6977  0.4358 -0.2283
 6577TIP3    H141366   6.358   5.179   8.384  0.2056  1.8691 -0.4657
 6577TIP3    H241367   6.496   5.117   8.377 -0.6677 -0.2250  0.0642
 6578TIP3   OH241368   4.410   0.807   7.948 -0.3656 -0.4759 -0.0749
 6578TIP3    H141369   4.345   0.737   7.959  1.5934 -2.2928  0.7460
 6578TIP3    H241370   4.468   0.798   8.024  1.0741  0.7943 -0.9636
 6579TIP3   OH241371   1.357   0.916   7.526  0.4120  0.3957 -0.3763
 6579TIP3    H141372   1.281   0.969   7.502 -0.0050 -0.4965 -1.0749
 6579TIP3    H241373   1.432   0.971   7.503 -0.0038  1.0850 -0.1337
 6580TIP3   OH241374   5.291   2.579   7.593 -0.6761 -0.0688 -0.0407
 6580TIP3    H141375   5.376   2.585   7.635 -1.4365  0.7720  1.4767
 6580TIP3    H241376   5.309   2.588   7.499  0.9318 -0.4322  0.2216
 6581TIP3   OH241377   4.339   3.857   8.820 -0.7340  0.3742  0.1584
 6581TIP3    H141378   4.344   3.773   8.775 -0.9495  0.4741 -0.0577
 6581TIP3    H241379   4.423   3.899   8.802 -0.6549  0.2336  0.2052
 6582TIP3   OH241380   3.211   2.534   7.852 -0.3662 -0.0285  0.1216
 6582TIP3    H141381   3.284   2.591   7.831 -0.9243 -0.0767 -2.2396
 6582TIP3    H241382   3.241   2.482   7.927  0.7618  2.1510  1.2851
 6583TIP3   OH241383   2.778   4.701   8.512 -0.5294 -0.0164 -0.7124
 6583TIP3    H141384   2.797   4.617   8.470 -1.6551 -0.5474 -0.2272
 6583TIP3    H241385   2.836   4.704   8.588 -0.3233 -0.2537 -0.8602
 6584TIP3   OH241386   5.893   6.122   7.863  0.1923  0.6594  0.4668
 6584TIP3    H141387   5.859   6.209   7.841  1.2788  0.8836 -0.4280
 6584TIP3    H241388   5.819   6.077   7.905 -0.2506  2.1552  1.3511
 6585TIP3   OH241389   6.702   2.484   0.004 -0.5579 -0.0752 -0.4876
 6585TIP3    H141390   6.658   2.452  -0.075 -0.2437 -0.8060 -0.3741
 6585TIP3    H241391   6.630   2.504   0.064 -0.7632 -2.7607  0.2838
 6586TIP3   OH241392   1.416   5.426   0.518  0.0183  0.3074  0.4068
 6586TIP3    H141393   1.403   5.517   0.543 -1.8598  0.6994 -1.6456
 6586TIP3    H241394   1.490   5.396   0.571  1.4608  3.3642  0.2974
 6587TIP3   OH241395   5.725   3.879   6.984 -0.3517  0.5515 -0.2740
 6587TIP3    H141396   5.814   3.873   6.950 -0.2969  1.3745 -0.3086
 6587TIP3    H241397   5.727   3.831   7.066 -0.1847 -0.4509 -0.8415
 6588TIP3   OH241398   1.539   5.116   7.514  0.3456 -0.3762 -0.3072
 6588TIP3    H141399   1.487   5.062   7.572 -0.1164 -0.2188 -0.5708
 6588TIP3    H241400   1.623   5.126   7.559  0.1485 -0.6269  0.1190
 6589TIP3   OH241401   0.857   4.150   8.586 -0.1892  1.0275 -0.7023
 6589TIP3    H141402   0.783   4.162   8.527  0.4917 -1.6350 -2.2287
 6589TIP3    H241403   0.925   4.208   8.551 -1.1550  2.7748  0.1619
 6590TIP3   OH241404   0.674   4.313   1.302 -0.6610  0.1484 -0.0333
 6590TIP3    H141405   0.747   4.369   1.326 -0.9043  1.3026 -1.8141
 6590TIP3    H241406   0.659   4.259   1.380  1.6311  0.3229  0.6069
 6591TIP3   OH241407   3.079   2.602   1.609  0.1244  0.0322 -0.2113
 6591TIP3    H141408   3.017   2.555   1.665  0.0802 -1.3950 -1.3887
 6591TIP3    H241409   3.148   2.632   1.668 -1.4078  1.2445  1.0577
 6592TIP3   OH241410   0.231   4.168   8.265 -0.1613  0.0913 -0.2140
 6592TIP3    H141411   0.259   4.084   8.227  0.6548 -0.1816  0.9412
 6592TIP3    H241412   0.312   4.217   8.276 -0.4641  0.4202  0.5504
 6593TIP3   OH241413   3.562   0.626   0.236 -0.7016 -0.6797  0.6893
 6593TIP3    H141414   3.553   0.687   0.163 -1.4219  2.2507  3.0294
 6593TIP3    H241415   3.656   0.628   0.257 -0.5436 -1.2941  0.0979
 6594TIP3   OH241416   5.201   4.980   1.167 -0.5265  0.2299  0.4628
 6594TIP3    H141417   5.154   4.910   1.121 -0.7584  0.8066 -0.1907
 6594TIP3    H241418   5.218   4.944   1.255 -0.0986 -0.8820 -0.0508
 6595TIP3   OH241419   6.083   6.319   1.592  0.0472 -0.0574  0.2953
 6595TIP3    H141420   6.049   6.379   1.659  0.6242  0.2844  0.2886
 6595TIP3    H241421   6.178   6.329   1.597  0.1782 -1.2475  0.5467
 6596TIP3   OH241422   3.772   0.239   0.292  0.3757 -0.2047 -0.1620
 6596TIP3    H141423   3.834   0.260   0.222  0.1400 -0.2718 -0.3899
 6596TIP3    H241424   3.732   0.323   0.315 -0.6570 -0.4111 -1.1576
 6597TIP3   OH241425   3.797   1.761   7.191  0.2748 -0.7049 -0.0930
 6597TIP3    H141426   3.796   1.667   7.171  0.2046 -0.1753 -2.9534
 6597TIP3    H241427   3.740   1.800   7.125  0.6308  1.4160  0.7863
 6598TIP3   OH241428   2.618   3.957   1.388 -0.7112 -0.3010  0.2264
 6598TIP3    H141429   2.710   3.976   1.407 -0.6044 -0.7619  0.1752
 6598TIP3    H241430   2.583   4.040   1.355 -0.4245 -0.0045  0.6504
 6599TIP3   OH241431   2.765   2.040   0.735 -0.2702  0.3013 -0.2737
 6599TIP3    H141432   2.735   1.950   0.720 -0.4087  0.2361  0.3944
 6599TIP3    H241433   2.685   2.092   0.734 -0.3715  0.1850  1.0739
 6600TIP3   OH241434   4.481   1.538   8.853  0.3881 -0.5003 -0.3289
 6600TIP3    H141435   4.451   1.465   8.907  0.5863 -0.4058 -0.0877
 6600TIP3    H241436   4.435   1.527   8.769 -1.6709  0.6085  0.5739
 6601TIP3   OH241437   1.679   1.556   6.496 -0.2692 -0.4593 -0.1886
 6601TIP3    H141438   1.648   1.558   6.405  1.7715 -3.0376 -1.0691
 6601TIP3    H241439   1.607   1.516   6.545 -1.1172  0.3012 -0.7887
 6602TIP3   OH241440   4.898   2.997   0.133  0.6332  0.4001 -0.5301
 6602TIP3    H141441   4.837   3.011   0.061  2.7224 -0.5331 -2.6147
 6602TIP3    H241442   4.927   3.085   0.157 -1.2510  0.8341  0.3095
 6603TIP3   OH241443   2.071   1.418   7.664  0.0263  0.2865  0.0158
 6603TIP3    H141444   2.094   1.497   7.616 -2.9313  1.5301  0.3980
 6603TIP3    H241445   1.982   1.435   7.697 -0.1870 -2.6564  1.3034
 6604TIP3   OH241446   2.243   0.034   0.472  0.4083 -0.5347  0.5677
 6604TIP3    H141447   2.149   0.016   0.475  0.7123 -2.2166  0.5227
 6604TIP3    H241448   2.252   0.104   0.406 -0.9516  0.8340  1.7540
 6605TIP3   OH241449   0.274   3.691   1.306 -0.0730 -0.1133  0.2510
 6605TIP3    H141450   0.251   3.605   1.269 -0.0858  0.4373 -1.0944
 6605TIP3    H241451   0.370   3.693   1.302 -0.0895  0.0939 -0.1364
 6606TIP3   OH241452   1.056   1.810   8.204  0.2001  0.4737  0.4073
 6606TIP3    H141453   0.972   1.767   8.191 -0.1624  1.4561 -0.8081
 6606TIP3    H241454   1.034   1.899   8.230  0.9161  0.1801  2.1100
 6607TIP3   OH241455   1.096   0.357   1.373  0.1495  0.6590 -0.2530
 6607TIP3    H141456   1.081   0.264   1.353 -0.0280  0.8771 -1.1789
 6607TIP3    H241457   1.072   0.403   1.292  0.3774  1.5012  0.1494
 6608TIP3   OH241458   3.050   4.093   1.133  0.2171  0.2634 -0.5356
 6608TIP3    H141459   3.094   4.067   1.214 -2.9238  0.8124  1.4857
 6608TIP3    H241460   3.033   4.187   1.144 -2.9709 -0.2507 -0.3716
 6609TIP3   OH241461   6.725   1.440   8.771 -0.1537 -0.3570  0.4931
 6609TIP3    H141462   6.751   1.348   8.775  1.1028 -0.1585 -1.6167
 6609TIP3    H241463   6.799   1.484   8.729 -1.4068  1.3349 -0.0401
 6610TIP3   OH241464   0.283   5.074   0.477 -0.7902 -0.1033  0.3558
 6610TIP3    H141465   0.309   5.091   0.387 -2.4763  1.4484  0.1010
 6610TIP3    H241466   0.241   4.988   0.473  4.8831 -3.4128  1.0315
 6611TIP3   OH241467   1.729   5.424   2.067 -0.1472  0.3827  0.0490
 6611TIP3    H141468   1.716   5.347   2.011 -1.5411  1.3824 -1.1077
 6611TIP3    H241469   1.802   5.471   2.027 -0.4960  0.5818 -0.3703
 6612TIP3   OH241470   4.362   6.006   1.483 -0.3278  0.2102  0.4187
 6612TIP3    H141471   4.393   5.988   1.572  1.9863  3.5289  0.4352
 6612TIP3    H241472   4.283   6.059   1.495 -1.3967 -1.3061  0.3972
 6613TIP3   OH241473   0.510   1.581   0.205 -0.6045 -0.1488 -0.2685
 6613TIP3    H141474   0.465   1.631   0.273  2.6948  0.9917  1.2791
 6613TIP3    H241475   0.547   1.505   0.250  0.4553 -0.1391 -1.0690
 6614TIP3   OH241476   0.067   2.839   7.934  0.3021  0.2240 -0.4384
 6614TIP3    H141477   0.084   2.754   7.974 -0.8132  1.1788  2.3540
 6614TIP3    H241478   0.155   2.875   7.916  0.8811 -0.4272  0.9352
 6615TIP3   OH241479   1.589   1.258   1.342  0.0471 -0.6186 -0.2405
 6615TIP3    H141480   1.599   1.260   1.247  0.0054  1.9847 -0.2516
 6615TIP3    H241481   1.518   1.196   1.357 -0.2357 -0.7504 -1.9264
 6616TIP3   OH241482   4.248   6.285   1.327  0.0913 -0.0391  0.6429
 6616TIP3    H141483   4.187   6.227   1.372  0.2811  0.9667  2.2825
 6616TIP3    H241484   4.245   6.257   1.236 -1.0734 -1.5074  1.0931
 6617TIP3   OH241485   5.900   4.927   6.883  0.6860  0.2589 -0.0819
 6617TIP3    H141486   5.906   4.954   6.791  0.1815  0.5766 -0.0275
 6617TIP3    H241487   5.807   4.937   6.904  0.6590 -0.5906  0.2262
 6618TIP3   OH241488   1.808   4.218   1.012  0.3560 -0.2276 -0.7893
 6618TIP3    H141489   1.720   4.224   0.973  0.4287  0.6541 -0.8348
 6618TIP3    H241490   1.795   4.243   1.104  0.4698 -0.6387 -0.6601
 6619TIP3   OH241491   3.725   3.791   8.157 -0.2013 -0.4214 -0.6106
 6619TIP3    H141492   3.657   3.749   8.105 -1.4485  2.6245 -1.7120
 6619TIP3    H241493   3.762   3.857   8.098  1.1256  0.4959  1.1478
 6620TIP3   OH241494   0.555   1.178   0.089 -0.6081 -0.1072 -0.0944
 6620TIP3    H141495   0.554   1.114   0.018 -1.9851 -0.3147  0.0879
 6620TIP3    H241496   0.519   1.258   0.050  0.4168  0.3711 -0.1188
 6621TIP3   OH241497   0.348   2.942   8.811  0.0868  0.4971 -0.8472
 6621TIP3    H141498   0.388   3.027   8.830 -1.7054  1.2885 -0.3603
 6621TIP3    H241499   0.395   2.910   8.734  2.1700  0.9491  0.1493
 6622TIP3   OH241500   5.689   6.296   1.051  0.4615  0.1587 -0.4601
 6622TIP3    H141501   5.665   6.222   1.106 -0.3365  0.2856 -0.6271
 6622TIP3    H241502   5.779   6.278   1.024  0.2983 -0.7139 -0.4459
 6623TIP3   OH241503   2.208   0.052   8.246  0.3670  0.2164 -0.1416
 6623TIP3    H141504   2.168   0.134   8.274 -0.2144 -0.0572 -0.1462
 6623TIP3    H241505   2.240   0.069   8.158  0.6318  0.5647  0.0212
 6624TIP3   OH241506   1.919   3.050   6.781 -0.1641  0.3787 -0.2823
 6624TIP3    H141507   1.970   2.970   6.773 -0.0194  0.6369 -2.5340
 6624TIP3    H241508   1.972   3.116   6.737 -0.3187  1.7484  1.4487
 6625TIP3   OH241509   6.821   4.838   7.115 -0.8940  0.2953  0.1950
 6625TIP3    H141510   6.803   4.887   7.035  0.4895 -0.8128 -0.8337
 6625TIP3    H241511   6.912   4.861   7.137 -1.0260  0.0261  1.0425
 6626TIP3   OH241512   1.723   0.179   7.137 -0.0594 -0.3077 -0.2974
 6626TIP3    H141513   1.784   0.183   7.211 -0.8185 -0.5378  0.3573
 6626TIP3    H241514   1.779   0.167   7.061  0.8908  1.8975 -0.0271
 6627TIP3   OH241515   4.717   4.049   0.866 -0.2228 -0.3290  0.5782
 6627TIP3    H141516   4.690   4.018   0.953  1.7647 -0.5486  1.1725
 6627TIP3    H241517   4.647   4.023   0.808 -0.6665 -1.9987  1.8053
 6628TIP3   OH241518   1.980   6.422   7.225  0.1875  0.3600  0.2734
 6628TIP3    H141519   1.924   6.457   7.155 -0.3516  1.5204  1.2280
 6628TIP3    H241520   2.015   6.340   7.190  0.1709  1.0467 -1.4539
 6629TIP3   OH241521   3.328   1.301   8.077 -0.3929  0.6009  0.7300
 6629TIP3    H141522   3.389   1.334   8.143 -0.6888  0.2827  1.1674
 6629TIP3    H241523   3.243   1.299   8.122 -0.2717 -1.4314  0.9525
 6630TIP3   OH241524   5.733   3.976   2.170 -0.0068 -0.3087  0.1729
 6630TIP3    H141525   5.719   3.894   2.217  0.7821 -0.7470 -0.3176
 6630TIP3    H241526   5.762   4.037   2.237  1.2626 -0.9681  0.2667
 6631TIP3   OH241527   0.985   2.510   0.692 -0.0002  0.0893  0.0794
 6631TIP3    H141528   1.034   2.588   0.720 -0.6182 -0.2113  2.1304
 6631TIP3    H241529   1.030   2.437   0.734 -0.3074 -0.5256 -0.6352
 6632TIP3   OH241530   2.884   3.730   7.365  0.2687  0.4890  0.1550
 6632TIP3    H141531   2.905   3.823   7.377  1.9774  0.1532  0.0209
 6632TIP3    H241532   2.878   3.695   7.454  1.9331  0.2837  0.2208
 6633TIP3   OH241533   0.171   5.865   1.389  0.2174  0.0807  0.3877
 6633TIP3    H141534   0.175   5.941   1.332 -1.7623  0.4036  0.5969
 6633TIP3    H241535   0.260   5.854   1.422  0.4358  2.6534  0.8240
 6634TIP3   OH241536   6.664   4.101   7.825 -0.7116 -0.4237  0.2029
 6634TIP3    H141537   6.738   4.067   7.775 -0.4769 -0.1878  0.3873
 6634TIP3    H241538   6.596   4.035   7.814 -0.9784  0.0480 -1.1807
 6635TIP3   OH241539   4.294   5.543   0.021 -0.5597  0.2000  0.0921
 6635TIP3    H141540   4.308   5.555  -0.074 -3.7335 -0.6798 -0.5988
 6635TIP3    H241541   4.214   5.492   0.027 -0.8466  0.8489  3.3279
 6636TIP3   OH241542   4.348   1.182   1.241 -0.6642  0.2159 -0.4142
 6636TIP3    H141543   4.346   1.170   1.146 -0.0802  1.3048 -0.5779
 6636TIP3    H241544   4.432   1.226   1.258 -0.2635 -0.9213  0.7243
 6637TIP3   OH241545   4.873   6.618   7.304  0.1627 -0.1140  0.2121
 6637TIP3    H141546   4.885   6.701   7.257  1.6739 -0.9277 -0.9296
 6637TIP3    H241547   4.790   6.583   7.270 -1.3798  1.6468  1.9344
 6638TIP3   OH241548   5.067   5.426   8.023  0.6350 -0.5033  0.1772
 6638TIP3    H141549   5.041   5.465   7.939  0.5372 -1.2672 -0.1617
 6638TIP3    H241550   5.080   5.333   8.003 -1.8253 -1.2252  1.4937
 6639TIP3   OH241551   1.951   1.781   2.539 -0.2323  0.4618  0.0459
 6639TIP3    H141552   1.884   1.842   2.509  0.7528  1.3428 -0.4600
 6639TIP3    H241553   1.917   1.694   2.518 -1.5857  0.8420  0.6139
 6640TIP3   OH241554   0.831   6.494   8.813 -0.0316  0.2342 -0.7178
 6640TIP3    H141555   0.767   6.427   8.793  1.4587 -1.7965  0.9336
 6640TIP3    H241556   0.781   6.564   8.856 -1.2174 -1.1314  0.2054
 6641TIP3   OH241557   5.569   3.902   7.820  0.0711  0.8374 -0.8757
 6641TIP3    H141558   5.635   3.970   7.808  0.3568  0.4220 -1.7578
 6641TIP3    H241559   5.553   3.869   7.731 -1.0638  0.6924 -0.6337
 6642TIP3   OH241560   1.935   2.263   0.322 -0.0774  0.1606 -0.8683
 6642TIP3    H141561   2.002   2.241   0.386 -2.3395 -0.8446  1.3061
 6642TIP3    H241562   1.912   2.180   0.280  0.4551  0.5989 -2.0627
 6643TIP3   OH241563   4.978   2.629   2.970 -0.0640 -0.5993  0.8709
 6643TIP3    H141564   5.053   2.575   2.945  0.0680 -0.2066  0.4077
 6643TIP3    H241565   4.935   2.649   2.887 -0.3322 -0.3199  1.0792
 6644TIP3   OH241566   1.812   2.255   2.296  0.2524 -0.3988 -0.1572
 6644TIP3    H141567   1.859   2.182   2.335  1.0952 -0.8345 -1.8644
 6644TIP3    H241568   1.877   2.300   2.242 -0.6193  0.7030 -0.3440
 6645TIP3   OH241569   4.309   3.574   8.427 -0.6152  0.3539  0.0671
 6645TIP3    H141570   4.337   3.547   8.340 -0.7203 -0.9176  0.4141
 6645TIP3    H241571   4.213   3.577   8.421 -0.5806  1.5696 -0.2144
 6646TIP3   OH241572   3.613   0.808   1.395 -0.3590 -0.0028 -0.5798
 6646TIP3    H141573   3.661   0.735   1.435 -1.3635 -0.8928 -0.9440
 6646TIP3    H241574   3.611   0.875   1.463  1.4903  0.1261 -0.6012
 6647TIP3   OH241575   4.772   2.575   0.209 -0.3854  0.0450  0.5676
 6647TIP3    H141576   4.782   2.589   0.303  0.2859  0.3152  0.4667
 6647TIP3    H241577   4.788   2.482   0.196 -0.4611  0.0108  0.7186
 6648TIP3   OH241578   0.817   2.014   0.427  0.1368 -0.6112  0.4923
 6648TIP3    H141579   0.897   2.062   0.404 -1.0889  0.7869 -1.1145
 6648TIP3    H241580   0.808   1.948   0.359 -0.0862 -0.7485  0.6554
 6649TIP3   OH241581   4.314   2.719   7.704 -0.0303 -0.2406 -0.3582
 6649TIP3    H141582   4.244   2.784   7.705  0.1102 -0.0811 -0.8000
 6649TIP3    H241583   4.303   2.672   7.621  0.2553 -0.3563 -0.3328
 6650TIP3   OH241584   3.989   0.283   8.025 -0.1915 -0.0956  0.8006
 6650TIP3    H141585   4.049   0.314   8.093 -0.3312  0.4427  0.6837
 6650TIP3    H241586   3.938   0.361   8.000 -0.5301 -0.4138  0.4820
 6651TIP3   OH241587   5.828   3.441   1.246 -0.2352 -0.2547 -0.1815
 6651TIP3    H141588   5.887   3.481   1.310 -2.4894  1.4527  0.9505
 6651TIP3    H241589   5.797   3.361   1.289 -1.0523  0.4268  0.5303
 6652TIP3   OH241590   0.999   1.143   0.394  0.3936  0.4073 -0.0508
 6652TIP3    H141591   0.929   1.165   0.456  1.2350  0.6388  0.8399
 6652TIP3    H241592   1.007   1.221   0.339 -1.5555 -0.4331 -1.6741
 6653TIP3   OH241593   4.279   5.863   8.872  0.8499 -0.1888 -0.2310
 6653TIP3    H141594   4.303   5.868   8.964  2.5721 -1.2963 -0.5668
 6653TIP3    H241595   4.239   5.776   8.862 -0.2779  0.3269 -0.3466
 6654TIP3   OH241596   1.141   0.252   1.647  0.3698 -0.1545  0.3749
 6654TIP3    H141597   1.126   0.233   1.554  0.8990 -1.4595  0.5411
 6654TIP3    H241598   1.149   0.166   1.688 -0.7613  0.3926  1.8022
 6655TIP3   OH241599   5.441   3.786   0.283  0.7721  0.2624 -0.2265
 6655TIP3    H141600   5.357   3.767   0.241  1.1047 -0.9487 -0.4008
 6655TIP3    H241601   5.447   3.881   0.284 -1.4578  0.4761  1.4760
 6656TIP3   OH241602   0.581   1.405   0.837  0.2863 -0.2714  0.0491
 6656TIP3    H141603   0.664   1.363   0.858  0.5137  0.6046  0.9810
 6656TIP3    H241604   0.538   1.416   0.922 -1.4734 -2.0681 -0.5447
 6657TIP3   OH241605   6.115   2.111   0.888 -0.2524  0.5245 -0.1300
 6657TIP3    H141606   6.161   2.074   0.812  1.7571  1.1249  0.7320
 6657TIP3    H241607   6.089   2.198   0.859 -0.7682  0.2299 -0.5833
 6658TIP3   OH241608   4.937   5.016   0.612 -0.3832 -0.1333  0.1719
 6658TIP3    H141609   5.029   4.992   0.600 -0.4554 -0.5558  0.4436
 6658TIP3    H241610   4.910   4.967   0.690 -0.8218  0.0405  0.1294
 6659TIP3   OH241611   4.354   3.541   1.176  0.4960 -0.2747 -0.0382
 6659TIP3    H141612   4.449   3.533   1.165  0.5570 -0.9219  0.8086
 6659TIP3    H241613   4.343   3.567   1.268 -0.0749  1.9769 -0.6929
 6660TIP3   OH241614   5.334   0.293   2.507 -0.0078 -0.0457  0.1775
 6660TIP3    H141615   5.429   0.304   2.499  0.0610  0.5346  1.4829
 6660TIP3    H241616   5.319   0.285   2.601 -1.1825 -0.9130 -0.0653
 6661TIP3   OH241617   4.097   6.396   0.924 -0.2579 -0.3018  0.0671
 6661TIP3    H141618   4.148   6.389   1.005 -0.5166  0.1073  0.2697
 6661TIP3    H241619   4.094   6.307   0.890  0.1363 -0.4199  0.3354
 6662TIP3   OH241620   1.142   5.961   1.432  0.0578 -0.2759 -0.7612
 6662TIP3    H141621   1.133   6.028   1.365  0.8006  0.2992 -0.2992
 6662TIP3    H241622   1.195   6.002   1.500 -1.9290 -0.2944  0.9142
 6663TIP3   OH241623   0.058   3.823   8.110  0.1780 -0.1170  0.4407
 6663TIP3    H141624   0.093   3.872   8.036 -0.2863  0.2048  0.4309
 6663TIP3    H241625   0.043   3.735   8.074 -2.3889  0.6339 -0.6080
 6664TIP3   OH241626   0.792   3.562   1.706  0.2266  0.2076  0.0124
 6664TIP3    H141627   0.811   3.546   1.798 -1.9628 -0.4840  0.3963
 6664TIP3    H241628   0.878   3.562   1.664  1.2404  0.0301  1.9494
 6665TIP3   OH241629   2.088   3.295   0.123  0.1139  0.1747 -0.0633
 6665TIP3    H141630   2.131   3.212   0.102 -1.6255 -0.9286  0.4878
 6665TIP3    H241631   2.075   3.292   0.218 -2.9876 -0.5564 -0.4140
 6666TIP3   OH241632   4.998   0.729   8.446 -0.2431 -0.1532  0.0918
 6666TIP3    H141633   4.940   0.652   8.438 -1.8485  1.0262 -0.1036
 6666TIP3    H241634   4.965   0.791   8.381  1.3126  0.5594 -0.0613
 6667TIP3   OH241635   5.800   3.806   7.245  0.8684  0.8780  0.0271
 6667TIP3    H141636   5.746   3.792   7.322 -0.0820  1.3811 -0.5316
 6667TIP3    H241637   5.870   3.741   7.253  0.1702  0.1868  0.7467
 6668TIP3   OH241638   1.616   5.283   1.016 -0.0439 -0.0498  0.5280
 6668TIP3    H141639   1.538   5.306   1.066 -1.1141 -0.7098 -0.7616
 6668TIP3    H241640   1.633   5.192   1.038  0.3125  0.0594  0.7209
 6669TIP3   OH241641   6.017   1.312   1.206  0.2534 -0.6172 -0.0444
 6669TIP3    H141642   6.078   1.340   1.274 -1.0189  0.7940  0.5642
 6669TIP3    H241643   6.046   1.360   1.128  0.3477 -0.5012  0.0616
 6670TIP3   OH241644   4.075   1.249   0.124  0.0502  1.0013 -0.0048
 6670TIP3    H141645   4.077   1.321   0.060  1.3458  1.4508  0.5034
 6670TIP3    H241646   4.163   1.247   0.160 -0.2811 -0.1463  0.7928
 6671TIP3   OH241647   4.817   4.865   1.771 -0.1466  0.0797 -0.4587
 6671TIP3    H141648   4.835   4.858   1.677  1.0807  2.3183 -0.4445
 6671TIP3    H241649   4.903   4.874   1.812 -0.6608 -0.9412  0.9308
 6672TIP3   OH241650   6.308   5.057   1.429 -0.1558  0.3339  0.7181
 6672TIP3    H141651   6.218   5.067   1.461 -1.4779 -0.4505 -2.3087
 6672TIP3    H241652   6.349   5.142   1.443 -1.0024  0.4307  3.0217
 6673TIP3   OH241653   6.687   4.605   7.063 -0.2830 -0.2089 -0.6661
 6673TIP3    H141654   6.595   4.608   7.087 -0.0979 -2.5059  0.6426
 6673TIP3    H241655   6.720   4.693   7.082 -1.2520 -0.5013  3.3244
 6674TIP3   OH241656   6.709   6.006   0.016  0.5605  0.2026 -1.1519
 6674TIP3    H141657   6.772   6.077   0.002 -1.3551  2.2950  0.1697
 6674TIP3    H241658   6.626   6.042  -0.014 -0.7707 -0.8307  1.0700
 6675TIP3   OH241659   5.836   3.965   7.484 -0.5905 -0.4238  0.4378
 6675TIP3    H141660   5.785   3.884   7.481  0.5934 -1.1885  0.3909
 6675TIP3    H241661   5.927   3.937   7.475 -0.2269  1.0090 -0.8069
 6676TIP3   OH241662   2.693   6.802   8.253 -0.2671 -0.0242 -0.0183
 6676TIP3    H141663   2.635   6.871   8.221 -0.1168  0.0219 -0.1896
 6676TIP3    H241664   2.745   6.777   8.177 -1.4239 -1.4508 -0.3842
 6677TIP3   OH241665   6.807   1.068   0.402 -0.3007 -0.0940 -0.2103
 6677TIP3    H141666   6.750   1.006   0.356 -0.8293 -0.3574  0.7763
 6677TIP3    H241667   6.889   1.021   0.414 -0.1986 -0.0676 -0.7597
 6678TIP3   OH241668   2.957   4.642   7.148  0.0078 -0.4829 -0.0238
 6678TIP3    H141669   2.893   4.642   7.219  0.5250 -3.1604  0.5575
 6678TIP3    H241670   2.912   4.682   7.074 -2.8561 -3.3167  0.0080
 6679TIP3   OH241671   5.588   4.142   2.461  0.0833 -0.2075 -0.5266
 6679TIP3    H141672   5.673   4.145   2.417 -0.6134  0.5854 -1.8757
 6679TIP3    H241673   5.574   4.050   2.480  0.8152 -0.4620 -1.1651
 6680TIP3   OH241674   3.173   4.944   7.782  0.5172  0.4112  0.5974
 6680TIP3    H141675   3.187   4.957   7.688  1.8304  0.5729  0.7910
 6680TIP3    H241676   3.212   5.021   7.822  1.4857 -0.4310  1.3485
 6681TIP3   OH241677   4.407   0.251   7.601  0.7285  0.3352  0.1969
 6681TIP3    H141678   4.479   0.235   7.541  0.1538  1.1629 -0.7346
 6681TIP3    H241679   4.390   0.165   7.641  3.5825  0.4711  2.0697
 6682TIP3   OH241680   1.512   3.409   2.811  0.1651  0.4360  0.0630
 6682TIP3    H141681   1.590   3.464   2.816 -0.6094  1.5618 -0.0707
 6682TIP3    H241682   1.529   3.350   2.737 -0.6307  3.1414 -2.4576
 6683TIP3   OH241683   0.065   3.693   7.501  0.2258 -0.7468 -0.0733
 6683TIP3    H141684   0.147   3.649   7.482  0.3870 -0.2390 -0.5592
 6683TIP3    H241685   0.054   3.757   7.431 -1.0340 -1.4239 -0.5260
 6684TIP3   OH241686   4.349   3.855   1.557  0.0586 -0.0101  0.0028
 6684TIP3    H141687   4.436   3.817   1.541 -0.5365 -0.4141 -2.9135
 6684TIP3    H241688   4.290   3.803   1.502 -1.9864  0.5426  1.5733
 6685TIP3   OH241689   3.541   3.391   1.049  0.1951  0.1029  0.1593
 6685TIP3    H141690   3.624   3.406   1.095  0.7634  0.9898 -1.0822
 6685TIP3    H241691   3.549   3.303   1.013  0.1173 -0.2513  1.0058
 6686TIP3   OH241692   0.211   4.487   6.388  0.1721 -0.4921  0.2579
 6686TIP3    H141693   0.170   4.497   6.474 -1.5254 -2.7585 -0.1783
 6686TIP3    H241694   0.259   4.568   6.374 -1.8585  1.1320  2.0899
 6687TIP3   OH241695   4.646   5.455   7.416 -0.0068 -0.4885 -0.1740
 6687TIP3    H141696   4.665   5.493   7.502  0.0732  1.6923 -1.0892
 6687TIP3    H241697   4.562   5.412   7.426 -0.6862  0.9714  0.6655
 6688TIP3   OH241698   2.291   5.720   1.771 -0.3947  0.0525  0.3431
 6688TIP3    H141699   2.332   5.713   1.685  1.1325 -1.3643  1.1083
 6688TIP3    H241700   2.236   5.798   1.766 -0.3382  0.0087 -1.8908
 6689TIP3   OH241701   4.990   3.951   0.039 -0.1026 -0.2704 -0.3012
 6689TIP3    H141702   4.989   3.919   0.129 -3.9378  0.6344  0.1487
 6689TIP3    H241703   4.981   3.872  -0.015  0.4848 -0.6844  0.2054
 6690TIP3   OH241704   4.538   6.500   0.027  1.0073  0.7667  0.0835
 6690TIP3    H141705   4.465   6.454   0.069  0.2136  1.5492 -0.4048
 6690TIP3    H241706   4.600   6.431   0.005  1.2599  0.2715  2.1278
 6691TIP3   OH241707   3.087   0.939   1.372  0.3849  0.5542 -0.2292
 6691TIP3    H141708   3.175   0.933   1.335  0.2161  1.7950 -0.8942
 6691TIP3    H241709   3.044   1.007   1.320 -1.8976 -1.8696 -1.6977
 6692TIP3   OH241710   0.374   3.183   0.624 -0.2519  0.3731  0.0040
 6692TIP3    H141711   0.402   3.207   0.536  1.8822  1.0941  0.7965
 6692TIP3    H241712   0.403   3.092   0.635 -2.0609 -0.3065 -0.5925
 6693TIP3   OH241713   1.884   1.479   0.422  0.3722 -0.0653 -0.9035
 6693TIP3    H141714   1.835   1.551   0.382 -0.6618 -0.6971 -0.8180
 6693TIP3    H241715   1.957   1.521   0.467 -0.4047  0.9695 -0.5739
 6694TIP3   OH241716   6.463   0.759   0.077 -0.1200 -0.2015  0.5252
 6694TIP3    H141717   6.534   0.823   0.081  1.0202 -1.4595  1.9509
 6694TIP3    H241718   6.398   0.791   0.140  1.3998 -1.4094  2.8646
 6695TIP3   OH241719   4.386   6.778   0.513  0.4603  0.4050 -0.5589
 6695TIP3    H141720   4.416   6.698   0.471 -0.7281 -1.0108  1.1490
 6695TIP3    H241721   4.444   6.788   0.589 -0.3627  0.2769  0.1000
 6696TIP3   OH241722   3.964   6.427   0.199 -0.8709 -0.1865  0.0867
 6696TIP3    H141723   4.039   6.470   0.240 -1.7320  0.4614  1.0295
 6696TIP3    H241724   3.905   6.407   0.271 -2.2067  0.5163 -0.7683
 6697TIP3   OH241725   6.455   6.083   0.669  0.5137  0.4042 -0.3137
 6697TIP3    H141726   6.455   6.064   0.575  0.6302  1.1665 -0.4728
 6697TIP3    H241727   6.436   6.177   0.674 -0.8078  0.1177  0.4771
 6698TIP3   OH241728   1.250   0.894   1.651  0.0171  0.4889 -0.6815
 6698TIP3    H141729   1.293   0.831   1.709  0.7736  1.1231 -0.5450
 6698TIP3    H241730   1.280   0.871   1.564  0.0112  0.4482 -0.6733
 6699TIP3   OH241731   3.782   3.488   0.217  0.1699 -0.3295 -0.3102
 6699TIP3    H141732   3.800   3.561   0.158 -0.6295  0.8533  0.8763
 6699TIP3    H241733   3.706   3.516   0.268  1.4578 -0.8635  2.0289
 6700TIP3   OH241734   3.041   6.331   0.465  0.4040 -0.0840 -0.2849
 6700TIP3    H141735   3.061   6.423   0.479 -1.3852  0.3336 -0.2008
 6700TIP3    H241736   3.011   6.326   0.374 -0.5243 -0.3743  0.0241
 6701TIP3   OH241737   6.425   2.101   1.821 -0.3435  0.6032  0.2521
 6701TIP3    H141738   6.427   2.040   1.748  1.6499  1.9872 -0.9360
 6701TIP3    H241739   6.517   2.119   1.841 -0.8430  1.3200  2.2288
 6702TIP3   OH241740   2.521   0.577   8.727  0.0754  0.0957  0.0440
 6702TIP3    H141741   2.584   0.548   8.660  0.7983 -0.1675  0.8193
 6702TIP3    H241742   2.443   0.524   8.710 -1.0794  2.4241 -2.7804
 6703TIP3   OH241743   3.154   2.871   0.682 -0.3346 -0.1604 -0.0418
 6703TIP3    H141744   3.118   2.863   0.594  0.3859 -0.1710 -0.3455
 6703TIP3    H241745   3.164   2.780   0.712  0.1148 -0.1821 -0.2465
 6704TIP3   OH241746   1.835   1.081   0.409  0.6282  0.1746  0.3141
 6704TIP3    H141747   1.909   1.084   0.470  1.7519 -0.1836 -0.9914
 6704TIP3    H241748   1.846   1.157   0.353  1.0514 -0.8291 -1.0261
 6705TIP3   OH241749   3.740   0.063   0.496  0.6611  0.2554  0.0482
 6705TIP3    H141750   3.649   0.082   0.517  0.7543  0.7466  0.0178
 6705TIP3    H241751   3.756   0.110   0.414  0.6643 -0.6207 -0.4586
 6706TIP3   OH241752   4.599   2.297   8.672 -0.3910 -0.5810 -0.2197
 6706TIP3    H141753   4.592   2.254   8.587 -1.1017 -0.6389 -0.1375
 6706TIP3    H241754   4.542   2.247   8.730 -2.0942  1.0660 -0.3792
 6707TIP3   OH241755   1.522   2.257   1.526  1.2720 -0.2971 -0.6533
 6707TIP3    H141756   1.494   2.314   1.598  1.5476 -0.0695 -0.7236
 6707TIP3    H241757   1.618   2.260   1.529  1.3004 -1.1138 -0.3775
 6708TIP3   OH241758   1.888   1.081   1.450  0.3829 -0.0323  0.3293
 6708TIP3    H141759   1.831   1.114   1.519  0.3061 -2.1662  1.3765
 6708TIP3    H241760   1.829   1.045   1.384  0.4892  0.6756 -0.1667
 6709TIP3   OH241761   0.620   4.663   6.425 -0.4586 -0.4541 -0.3151
 6709TIP3    H141762   0.585   4.677   6.513  0.2708 -0.4060 -0.0262
 6709TIP3    H241763   0.544   4.674   6.367 -0.6355  1.1895  0.1657
 6710TIP3   OH241764   0.505   3.134   1.654 -0.4577  0.4668  0.1352
 6710TIP3    H141765   0.419   3.122   1.615 -0.4178 -1.5691  0.5969
 6710TIP3    H241766   0.489   3.136   1.749  0.1889 -2.4874  0.3838
 6711TIP3   OH241767   4.294   2.687   1.887  0.3013  0.1880  0.1560
 6711TIP3    H141768   4.355   2.711   1.818  0.4429  3.3918  1.2359
 6711TIP3    H241769   4.350   2.670   1.963 -0.0087  0.3479  0.4228
 6712TIP3   OH241770   0.790   6.367   7.681 -0.1435  0.4746 -0.3434
 6712TIP3    H141771   0.876   6.406   7.693  1.3737 -2.5412 -0.4027
 6712TIP3    H241772   0.771   6.379   7.588  0.6796  0.3151 -0.5377
 6713TIP3   OH241773   0.690   0.094   1.337  0.0874  0.5171  0.0537
 6713TIP3    H141774   0.612   0.122   1.289  0.0144  1.3155  0.6182
 6713TIP3    H241775   0.753   0.071   1.269 -0.4109  0.5069 -0.4127
 6714TIP3   OH241776   6.801   4.021   0.511 -0.3314 -0.1356  0.4463
 6714TIP3    H141777   6.764   4.071   0.583 -0.9578 -1.7575  1.2910
 6714TIP3    H241778   6.845   3.948   0.553 -0.1767 -0.7754 -0.7969
 6715TIP3   OH241779   3.962   2.155   1.462 -0.1888 -0.3449 -0.3344
 6715TIP3    H141780   3.955   2.153   1.558 -0.1640  0.8946 -0.2922
 6715TIP3    H241781   4.052   2.181   1.446  0.0976 -1.5417 -0.7169
 6716TIP3   OH241782   2.862   3.619   1.861  0.1405 -0.6993 -0.5690
 6716TIP3    H141783   2.814   3.547   1.903 -1.3114  0.6082  0.1166
 6716TIP3    H241784   2.817   3.698   1.891  2.2485  0.5644 -0.5781
 6717TIP3   OH241785   0.435   3.472   1.138  0.2906  0.7723 -0.4929
 6717TIP3    H141786   0.372   3.507   1.075 -0.1551  1.0456  0.0898
 6717TIP3    H241787   0.509   3.533   1.135  2.0366 -1.2683 -3.5408
 6718TIP3   OH241788   0.369   2.982   2.650 -0.1528  0.2581 -0.0314
 6718TIP3    H141789   0.369   3.042   2.724 -1.4207  0.1750  0.0613
 6718TIP3    H241790   0.432   2.914   2.674 -1.6921 -0.6246  1.7124
 6719TIP3   OH241791   4.475   4.704   8.038 -0.0906 -0.1136  0.2035
 6719TIP3    H141792   4.392   4.662   8.060 -0.5454 -0.9683 -2.6576
 6719TIP3    H241793   4.540   4.635   8.044 -0.6265 -1.1042 -3.1833
 6720TIP3   OH241794   5.103   3.039   0.486 -0.3864  0.4430 -0.1694
 6720TIP3    H141795   5.145   3.074   0.407 -0.7604  1.4651  0.0671
 6720TIP3    H241796   5.009   3.051   0.471 -0.4380  1.3312  0.7150
 6721TIP3   OH241797   6.512   0.044   6.989  0.4432 -0.2283 -0.5599
 6721TIP3    H141798   6.512  -0.046   6.955  0.5896 -0.3620 -0.2153
 6721TIP3    H241799   6.574   0.042   7.062 -0.1105 -0.0290 -0.0717
 6722TIP3   OH241800   4.472   1.167   0.333 -0.2736 -0.0478 -0.4529
 6722TIP3    H141801   4.440   1.220   0.406 -0.2198 -1.8724  0.9685
 6722TIP3    H241802   4.559   1.138   0.360 -0.4296 -1.1199 -1.0334
 6723TIP3   OH241803   0.900   5.446   8.371 -0.0464 -0.9283 -0.6245
 6723TIP3    H141804   0.905   5.487   8.285 -1.2435 -3.9862 -2.2929
 6723TIP3    H241805   0.975   5.387   8.375  0.2020 -0.5662  0.6047
 6724TIP3   OH241806   5.874   6.504   1.144  0.4493 -0.2716 -0.2848
 6724TIP3    H141807   5.916   6.509   1.230  0.1470  0.6751 -0.1744
 6724TIP3    H241808   5.801   6.443   1.157  2.2814 -2.7069 -0.7252
 6725TIP3   OH241809   4.288   4.255   1.902  0.5273 -0.4013 -0.0983
 6725TIP3    H141810   4.232   4.238   1.827 -2.1030 -0.1143  1.6586
 6725TIP3    H241811   4.271   4.347   1.924  1.7343 -0.2970  0.4961
 6726TIP3   OH241812   6.576   2.110   0.833 -0.4088 -0.3512  0.2817
 6726TIP3    H141813   6.535   2.129   0.917 -1.3423  1.6052 -0.5252
 6726TIP3    H241814   6.550   2.184   0.777  0.0206 -1.6702 -1.7721
 6727TIP3   OH241815   3.875   3.968   7.129 -0.1598 -0.2387  0.2972
 6727TIP3    H141816   3.897   3.888   7.177  0.5772 -0.9771 -1.1803
 6727TIP3    H241817   3.960   4.003   7.101 -0.4638  1.1659  1.0504
 6728TIP3   OH241818   3.389   2.784   8.824  0.1736 -0.2502  0.6603
 6728TIP3    H141819   3.450   2.730   8.774 -0.3127 -0.7322  0.5767
 6728TIP3    H241820   3.441   2.818   8.896  0.9150  0.5430 -0.2258
 6729TIP3   OH241821   6.155   2.921   1.881 -0.4312  0.4922  0.1258
 6729TIP3    H141822   6.103   2.898   1.805  1.0437 -0.8538 -0.5376
 6729TIP3    H241823   6.214   2.847   1.893 -0.8798  0.4741  2.8508
 6730TIP3   OH241824   6.570   2.074   1.472  0.4504  0.1566 -0.1652
 6730TIP3    H141825   6.517   2.004   1.512  0.6199  0.1743  0.0942
 6730TIP3    H241826   6.526   2.155   1.500  0.4614  0.1637 -0.1688
 6731TIP3   OH241827   5.702   4.711   0.357  0.4373  0.5825 -0.3197
 6731TIP3    H141828   5.612   4.720   0.326  0.4379  1.3932 -0.1304
 6731TIP3    H241829   5.712   4.618   0.378 -0.4405  0.5280 -0.0906
 6732TIP3   OH241830   6.791   0.806   8.502 -0.4416  0.0103 -0.4461
 6732TIP3    H141831   6.858   0.854   8.551  0.4067  0.4856 -2.0154
 6732TIP3    H241832   6.781   0.855   8.420 -2.2059 -0.4527 -0.5578
 6733TIP3   OH241833   1.825   2.199   1.555  0.3914  0.3931  0.5469
 6733TIP3    H141834   1.821   2.277   1.610 -1.3048 -0.9606  2.4715
 6733TIP3    H241835   1.795   2.128   1.611  0.8036 -1.4837 -1.4716
 6734TIP3   OH241836   0.761   6.444   8.508  0.2321  0.5859 -0.0131
 6734TIP3    H141837   0.851   6.426   8.481  0.5205  1.4203  0.3376
 6734TIP3    H241838   0.715   6.361   8.497  1.3757 -0.2346  1.1515
 6735TIP3   OH241839   0.880   1.283   6.909  0.6114  0.1859 -0.0352
 6735TIP3    H141840   0.826   1.362   6.903  0.1970 -0.1352 -0.7321
 6735TIP3    H241841   0.830   1.224   6.966 -0.1389 -0.3702 -1.2212
 6736TIP3   OH241842   4.567   0.444   0.056  0.2061 -0.1409  0.2431
 6736TIP3    H141843   4.569   0.415   0.147  1.7432 -1.2017 -0.0832
 6736TIP3    H241844   4.581   0.538   0.060 -1.0856  0.0243  1.1589
 6737TIP3   OH241845   0.343   1.278   6.654 -0.1294  0.5617  0.0560
 6737TIP3    H141846   0.310   1.335   6.723 -0.0762  0.1745  0.4073
 6737TIP3    H241847   0.409   1.331   6.609 -1.6145  1.5560 -1.0302
 6738TIP3   OH241848   5.459   0.027   1.511  0.6030 -0.7327  0.2358
 6738TIP3    H141849   5.513  -0.049   1.534  0.3392 -1.7701 -2.2914
 6738TIP3    H241850   5.520   0.102   1.515  1.4862 -1.4401  0.3571
 6739TIP3   OH241851   6.461   4.040   8.196 -0.0405 -0.2455  0.1871
 6739TIP3    H141852   6.410   4.073   8.270 -1.6302 -0.2352 -0.8700
 6739TIP3    H241853   6.399   4.039   8.123  1.3060 -0.9068 -0.9846
 6740TIP3   OH241854   3.049   1.838   1.474  0.2098  0.0345  0.3597
 6740TIP3    H141855   3.102   1.836   1.554 -0.9422  0.3613  1.1641
 6740TIP3    H241856   3.083   1.766   1.421  2.4083  1.1268  0.1895
 6741TIP3   OH241857   3.583   0.724   2.253  0.0103  0.2832 -0.3581
 6741TIP3    H141858   3.546   0.812   2.252 -2.6532 -0.6994 -3.1911
 6741TIP3    H241859   3.538   0.679   2.325 -0.5609  0.5503 -0.5418
 6742TIP3   OH241860   4.207   5.807   1.178  0.1679 -0.1799 -0.3389
 6742TIP3    H141861   4.240   5.719   1.158  1.3484  0.6235 -2.1994
 6742TIP3    H241862   4.282   5.864   1.164 -0.7896  1.2204  0.0692
 6743TIP3   OH241863   0.859   5.123   7.299 -0.3031  0.0624 -0.1494
 6743TIP3    H141864   0.782   5.115   7.243 -0.1215 -2.1030 -0.1728
 6743TIP3    H241865   0.933   5.122   7.238 -0.1186 -2.0409  0.0176
 6744TIP3   OH241866   4.589   6.729   8.382  0.0378 -0.1295  0.1191
 6744TIP3    H141867   4.591   6.633   8.386 -1.5146 -0.2077 -0.5485
 6744TIP3    H241868   4.587   6.749   8.289 -0.7593  0.5111  0.2659
 6745TIP3   OH241869   5.711   4.393   1.417  0.4528 -0.5848 -0.1647
 6745TIP3    H141870   5.698   4.316   1.361 -1.3497 -0.0686 -0.5321
 6745TIP3    H241871   5.719   4.466   1.356 -0.3446 -0.1740  0.2025
 6746TIP3   OH241872   4.715   1.892   8.583 -0.4674 -0.3398 -0.0863
 6746TIP3    H141873   4.661   1.851   8.651  1.0330 -0.2417  1.2157
 6746TIP3    H241874   4.762   1.820   8.543  0.8018 -0.1322  0.9664
 6747TIP3   OH241875   1.341   1.673   8.820  0.5076  0.2398  0.8175
 6747TIP3    H141876   1.345   1.717   8.905 -0.6610 -0.4620  1.2566
 6747TIP3    H241877   1.256   1.700   8.784 -0.0387 -1.2873  0.9093
 6748TIP3   OH241878   6.568   0.551   2.448 -0.1558 -0.2131  0.2022
 6748TIP3    H141879   6.660   0.563   2.475  0.2037  0.2171 -1.1240
 6748TIP3    H241880   6.523   0.627   2.485  0.5837  1.0963 -1.4226
 6749TIP3   OH241881   2.639   4.459   1.636 -0.2444 -0.2663  0.0569
 6749TIP3    H141882   2.555   4.505   1.641  0.9900  2.4844 -1.8905
 6749TIP3    H241883   2.630   4.404   1.557  0.2355  1.2409 -1.1011
 6750TIP3   OH241884   3.864   5.300   0.635  0.4513 -0.4496 -0.2941
 6750TIP3    H141885   3.830   5.211   0.626  0.7106 -0.7085  1.0940
 6750TIP3    H241886   3.800   5.355   0.589 -0.0169 -1.2865 -0.6537
 6751TIP3   OH241887   0.231   0.106   2.250 -0.0724 -0.3676 -0.1271
 6751TIP3    H141888   0.145   0.119   2.209 -0.4199 -2.4167 -0.1587
 6751TIP3    H241889   0.224   0.022   2.294  1.1467  0.5709  2.0253
 6752TIP3   OH241890   0.162   6.132   1.966 -0.1439 -0.2622  0.4401
 6752TIP3    H141891   0.164   6.096   2.055  1.3772 -0.0569  0.5274
 6752TIP3    H241892   0.167   6.055   1.909  1.9303 -0.3118  0.6096
 6753TIP3   OH241893   5.935   2.578   1.675 -0.0788 -0.8008  0.0987
 6753TIP3    H141894   5.918   2.553   1.766  0.8206 -1.5264  0.0705
 6753TIP3    H241895   5.885   2.515   1.623 -2.1059  0.7055  0.0600
 6754TIP3   OH241896   0.215   5.944   7.784 -0.4388 -0.5836 -0.1456
 6754TIP3    H141897   0.204   5.993   7.702 -0.6769  0.1016  0.2811
 6754TIP3    H241898   0.278   5.997   7.834 -1.0661 -0.4559  0.5192
 6755TIP3   OH241899   2.950   0.335   8.872  0.4811  0.0696  0.0134
 6755TIP3    H141900   3.002   0.381   8.806 -2.1906  2.6204 -0.4885
 6755TIP3    H241901   2.947   0.394   8.946 -0.4134 -0.7378  0.6385
 6756TIP3   OH241902   6.591   3.178   0.829  0.8616 -0.3634 -0.0879
 6756TIP3    H141903   6.680   3.165   0.863  1.8005  3.6188 -0.5208
 6756TIP3    H241904   6.604   3.199   0.736 -0.8082 -1.9910 -0.7421
 6757TIP3   OH241905   4.030   5.254   0.848 -0.0741  0.2238  0.1345
 6757TIP3    H141906   4.117   5.247   0.807  0.4971 -1.9628  1.5202
 6757TIP3    H241907   3.974   5.287   0.778  1.6465  0.5830 -1.1595
 6758TIP3   OH241908   6.127   6.089   8.273 -0.0988  0.2848  0.6876
 6758TIP3    H141909   6.124   6.115   8.365 -0.8192 -2.9921  1.7117
 6758TIP3    H241910   6.042   6.048   8.257 -0.1056  1.0523 -1.5727
 6759TIP3   OH241911   5.682   6.013   7.985  0.4019  0.3724  0.1083
 6759TIP3    H141912   5.635   6.038   8.064  1.0907 -0.9717  0.9810
 6759TIP3    H241913   5.631   5.941   7.948 -0.3720  1.5216 -1.1723
 6760TIP3   OH241914   2.232   0.020   8.740  0.2206  0.4106 -0.0546
 6760TIP3    H141915   2.284   0.020   8.659 -0.0809  1.4173 -0.2597
 6760TIP3    H241916   2.290  -0.019   8.806  0.3223 -0.8207 -0.8321
 6761TIP3   OH241917   1.227   4.912   2.147 -0.2254  0.3359  1.2591
 6761TIP3    H141918   1.154   4.970   2.128  0.5085  0.8605 -0.0925
 6761TIP3    H241919   1.236   4.916   2.243 -0.4823  2.0981  1.2428
 6762TIP3   OH241920   3.453   2.200   2.009  0.3768  0.5845  0.3636
 6762TIP3    H141921   3.517   2.271   2.005  1.4779 -0.4100 -2.5890
 6762TIP3    H241922   3.369   2.242   1.989  0.8295  1.2587 -0.1829
 6763TIP3   OH241923   5.055   2.245   8.373 -0.4854 -0.6618 -0.0024
 6763TIP3    H141924   5.012   2.181   8.430 -0.3507 -0.8651 -0.1257
 6763TIP3    H241925   5.128   2.278   8.426  1.0921 -2.5738 -0.8520
 6764TIP3   OH241926   0.330   3.084   2.901 -0.2219 -0.2582  0.1882
 6764TIP3    H141927   0.337   3.178   2.885 -1.1031 -0.2403 -0.1505
 6764TIP3    H241928   0.386   3.069   2.977 -1.4094  0.8426  1.3391
 6765TIP3   OH241929   2.935   0.949   1.608  0.6480 -0.1632 -0.2115
 6765TIP3    H141930   3.005   0.942   1.672  1.9220 -0.4637 -1.5666
 6765TIP3    H241931   2.967   0.899   1.532 -1.2936 -0.7948 -0.6644
 6766TIP3   OH241932   2.525   1.721   2.009  0.3542 -0.4333  0.8215
 6766TIP3    H141933   2.468   1.788   1.970  0.1058 -0.6456  0.8154
 6766TIP3    H241934   2.537   1.656   1.939  0.8643 -0.2321  0.7194
 6767TIP3   OH241935   6.795   1.759   2.218 -0.7948 -0.1819  0.2961
 6767TIP3    H141936   6.786   1.665   2.236 -1.4397 -0.5794 -1.8246
 6767TIP3    H241937   6.828   1.796   2.300 -0.5901 -2.2401  1.2048
 6768TIP3   OH241938   6.505   5.024   0.201  0.4931  0.0030  0.2585
 6768TIP3    H141939   6.469   4.942   0.169  2.6344 -1.6450  1.7523
 6768TIP3    H241940   6.429   5.075   0.229 -0.9755 -0.8928 -1.8439
 6769TIP3   OH241941   4.481   0.772   1.581  0.9081  0.1104 -0.4081
 6769TIP3    H141942   4.503   0.750   1.672  1.4674  1.1659 -0.2678
 6769TIP3    H241943   4.542   0.842   1.558 -0.4982  1.2032 -0.9508
 6770TIP3   OH241944   3.644   2.418   7.897  0.1162  0.2026  0.2013
 6770TIP3    H141945   3.680   2.333   7.923  1.1867  0.0525 -1.6393
 6770TIP3    H241946   3.601   2.402   7.814  0.0979  1.4127 -0.0446
 6771TIP3   OH241947   6.137   6.175   7.392 -0.2357  0.0470 -0.2902
 6771TIP3    H141948   6.131   6.126   7.310 -0.8673  0.3498 -0.4257
 6771TIP3    H241949   6.227   6.158   7.423  0.2923  0.6174 -1.4608
 6772TIP3   OH241950   0.425   0.365   7.965 -0.4544 -0.1592  0.1665
 6772TIP3    H141951   0.492   0.319   8.015  0.5218  1.7730  0.7290
 6772TIP3    H241952   0.349   0.366   8.023 -0.4843 -1.0081  0.1545
 6773TIP3   OH241953   0.480   0.372   2.911 -0.2630 -0.3334 -0.9648
 6773TIP3    H141954   0.443   0.444   2.962  0.2150 -0.9577  0.3156
 6773TIP3    H241955   0.421   0.362   2.836 -0.1839  1.5530 -1.3163
 6774TIP3   OH241956   6.559   3.102   1.436  0.1418  0.1473  0.2895
 6774TIP3    H141957   6.477   3.129   1.477  1.3388  2.9814  1.0319
 6774TIP3    H241958   6.545   3.115   1.342 -0.5424 -0.2926  0.3259
 6775TIP3   OH241959   1.191   0.360   7.940  0.4984 -0.3395  0.4645
 6775TIP3    H141960   1.106   0.320   7.918 -0.2306  1.4399 -0.1577
 6775TIP3    H241961   1.216   0.319   8.023 -0.2233 -1.9828 -0.0748
 6776TIP3   OH241962   0.977   4.863   8.792 -0.1510  0.1865  0.7161
 6776TIP3    H141963   1.068   4.842   8.809 -0.0037 -1.1077 -1.3398
 6776TIP3    H241964   0.928   4.789   8.828 -0.0384 -1.1218 -1.6330
 6777TIP3   OH241965   1.769   2.757   8.317 -0.5299 -0.2113 -0.1452
 6777TIP3    H141966   1.749   2.848   8.296  0.5360  0.2786  0.8525
 6777TIP3    H241967   1.838   2.762   8.383 -0.0417 -1.7533 -0.4968
 6778TIP3   OH241968   2.044   1.195   8.611  0.2457  0.4239 -0.2769
 6778TIP3    H141969   2.078   1.191   8.700 -0.7679 -0.3112  0.0992
 6778TIP3    H241970   1.994   1.276   8.609 -0.4812 -0.0004  0.1235
 6779TIP3   OH241971   2.230   6.714   2.020  0.6755  0.3661  0.4328
 6779TIP3    H141972   2.274   6.669   2.092 -0.1284  0.7995  1.2143
 6779TIP3    H241973   2.186   6.789   2.062 -2.7675 -1.3054  0.1369
 6780TIP3   OH241974   5.240   1.236   2.311  0.7566  0.1895 -0.0321
 6780TIP3    H141975   5.305   1.269   2.372  0.3576  0.2866  0.3402
 6780TIP3    H241976   5.157   1.244   2.357  0.5603 -0.5820 -0.2396
 6781TIP3   OH241977   1.981   4.103   0.808  0.0223 -0.8772 -0.2322
 6781TIP3    H141978   1.977   4.168   0.878  1.1401  0.4989 -1.3809
 6781TIP3    H241979   1.890   4.092   0.780 -0.1613  0.4151 -0.1970
 6782TIP3   OH241980   0.035   0.113   7.413 -0.2212 -0.4306  0.4235
 6782TIP3    H141981   0.089   0.180   7.372 -0.6389  0.0998  0.7176
 6782TIP3    H241982   0.085   0.085   7.490 -0.2991 -0.0293  0.6268
 6783TIP3   OH241983   2.026   5.474   7.690 -0.1063  0.3096  0.0581
 6783TIP3    H141984   2.073   5.519   7.760 -0.6293  0.7830  0.1141
 6783TIP3    H241985   1.940   5.517   7.687 -1.3305 -1.8732  1.3336
 6784TIP3   OH241986   0.938   6.170   8.646  0.0853  0.0270  0.4088
 6784TIP3    H141987   0.848   6.205   8.643  0.3898  0.9210  1.1585
 6784TIP3    H241988   0.987   6.225   8.585  0.3651  0.2930  0.8685
 6785TIP3   OH241989   0.471   2.142   8.743  0.6851 -0.6205  0.3829
 6785TIP3    H141990   0.563   2.132   8.721 -0.1579 -1.6975 -3.2543
 6785TIP3    H241991   0.451   2.068   8.801  1.4131 -2.4223 -1.5607
 6786TIP3   OH241992   5.827   4.728   1.449 -0.2666 -0.1466  0.0830
 6786TIP3    H141993   5.883   4.737   1.372  1.6194  2.5746  1.5942
 6786TIP3    H241994   5.858   4.648   1.491 -0.2411 -0.7923 -1.1027
 6787TIP3   OH241995   4.713   5.144   1.275  0.1737  0.0958 -0.1216
 6787TIP3    H141996   4.726   5.130   1.369  1.2794 -0.4646 -0.3432
 6787TIP3    H241997   4.661   5.069   1.247  2.3496 -1.3427 -0.4836
 6788TIP3   OH241998   4.507   1.505   2.130  0.7035 -0.0883 -0.5467
 6788TIP3    H141999   4.595   1.481   2.102  2.2712  0.5396  3.2813
 6788TIP3    H242000   4.506   1.601   2.126  0.3252 -0.0768 -0.1486
 6789TIP3   OH242001   2.605   5.300   1.410 -0.7740 -0.3283 -0.1807
 6789TIP3    H142002   2.636   5.252   1.333 -0.5955  0.3608 -0.5446
 6789TIP3    H242003   2.621   5.240   1.483 -0.5535 -0.8226 -0.6247
 6790TIP3   OH242004   5.151   1.790   1.154 -0.2814  0.0377 -0.2916
 6790TIP3    H142005   5.122   1.702   1.178 -0.1205  0.6575  2.4668
 6790TIP3    H242006   5.244   1.792   1.179 -0.8184  1.6184  1.7426
 6791TIP3   OH242007   4.934   2.240   2.150  0.0535 -0.0967  0.3802
 6791TIP3    H142008   4.989   2.240   2.072 -0.0577 -0.9148  0.2971
 6791TIP3    H242009   4.987   2.197   2.217 -0.1403 -0.0725  0.5496
 6792TIP3   OH242010   0.436   5.879   1.841  0.0073 -0.0332 -0.0070
 6792TIP3    H142011   0.440   5.974   1.826  0.7246  0.4002  2.5540
 6792TIP3    H242012   0.351   5.853   1.805 -0.3799  1.6420 -0.4047
 6793TIP3   OH242013   3.252   5.006   1.415 -0.1447  0.2504  0.0423
 6793TIP3    H142014   3.181   4.962   1.461 -0.8709  0.7020 -0.6295
 6793TIP3    H242015   3.209   5.060   1.349  0.8581 -0.2438 -1.0590
 6794TIP3   OH242016   0.433   2.136   8.430 -0.1426 -0.3187  0.5610
 6794TIP3    H142017   0.393   2.223   8.434 -0.6849 -0.5054 -0.3999
 6794TIP3    H242018   0.458   2.116   8.520  0.2890  0.9701  0.7466
 6795TIP3   OH242019   1.525   6.744   8.383  0.0689 -0.3757  0.2527
 6795TIP3    H142020   1.548   6.652   8.391 -0.2381 -0.4117  0.7950
 6795TIP3    H242021   1.573   6.788   8.453  1.4618  0.1341 -0.9767
 6796TIP3   OH242022   6.793   4.469   0.206 -0.5033 -0.0604 -0.0212
 6796TIP3    H142023   6.742   4.528   0.149 -2.7389 -1.9526 -0.1146
 6796TIP3    H242024   6.730   4.439   0.272  1.4528  0.2366  2.0941
 6797TIP3   OH242025   4.287   3.503   1.469  0.0562  0.8349  0.4470
 6797TIP3    H142026   4.300   3.410   1.452 -2.2703  0.3141  1.1117
 6797TIP3    H242027   4.332   3.519   1.552  1.1708  0.5374 -0.0760
 6798TIP3   OH242028   3.036   2.383   7.435  0.1573 -0.5326 -0.8590
 6798TIP3    H142029   3.030   2.478   7.439 -2.9937 -0.5661 -2.0269
 6798TIP3    H242030   3.088   2.365   7.356  2.1027  0.1216  0.1934
 6799TIP3   OH242031   4.413   5.185   2.507  0.2411  0.2978  0.3863
 6799TIP3    H142032   4.446   5.229   2.428  0.2067 -0.6154 -0.1467
 6799TIP3    H242033   4.333   5.232   2.529  1.3022  1.8732  1.0815
 6800TIP3   OH242034   2.956   2.177   8.265  0.1400  0.1135  0.2621
 6800TIP3    H142035   2.975   2.183   8.171 -0.6324  1.2592  0.1534
 6800TIP3    H242036   2.879   2.233   8.277  0.9138  0.9319  1.7703
 6801TIP3   OH242037   1.671   6.043   0.866  0.0895  0.6846  0.9055
 6801TIP3    H142038   1.581   6.069   0.852  0.2566  1.0232  0.4480
 6801TIP3    H242039   1.701   6.010   0.781 -0.2896 -1.5803  1.5947
 6802TIP3   OH242040   6.511   2.899   0.846  0.0807  0.3981 -1.2683
 6802TIP3    H142041   6.500   2.848   0.926  1.3009 -1.8594 -2.4279
 6802TIP3    H242042   6.510   2.990   0.875  0.0752 -0.3237  1.2397
 6803TIP3   OH242043   0.236   0.996   7.587  0.0860 -0.2084  0.1781
 6803TIP3    H142044   0.320   1.024   7.625 -0.0292  2.1458 -1.0791
 6803TIP3    H242045   0.260   0.936   7.517  0.4717 -2.0168  1.7683
 6804TIP3   OH242046   6.453   5.796   0.660 -0.2726  0.9579 -0.1575
 6804TIP3    H142047   6.489   5.885   0.659  1.0633  0.4435 -0.4731
 6804TIP3    H242048   6.421   5.782   0.571 -2.0215  1.6938  0.3272
 6805TIP3   OH242049   1.250   0.555   0.962  0.5490  0.2791 -0.1461
 6805TIP3    H142050   1.194   0.514   0.895 -0.2435 -1.7786  1.6501
 6805TIP3    H242051   1.324   0.495   0.971  0.7199  0.6043  0.7002
 6806TIP3   OH242052   4.508   2.011   0.967 -0.2986 -0.0564 -0.3929
 6806TIP3    H142053   4.571   1.957   0.918 -0.6118  0.9141 -1.9542
 6806TIP3    H242054   4.542   2.012   1.056  1.8190  0.2726 -1.1305
 6807TIP3   OH242055   5.846   4.373   8.583  0.3731 -0.3882  0.5041
 6807TIP3    H142056   5.838   4.467   8.572 -0.9796 -0.6006 -0.5820
 6807TIP3    H242057   5.829   4.358   8.677 -1.8272  0.2644  0.2773
 6808TIP3   OH242058   0.609   5.097   1.613  0.1476  0.1897 -0.5165
 6808TIP3    H142059   0.527   5.117   1.568 -0.3400 -0.7166 -0.0470
 6808TIP3    H242060   0.676   5.143   1.561 -0.4138 -0.6417 -2.0383
 6809TIP3   OH242061   6.633   0.432   0.387  0.1795  0.2214  0.0861
 6809TIP3    H142062   6.566   0.392   0.443 -0.3093 -1.2080 -1.4258
 6809TIP3    H242063   6.606   0.523   0.378 -1.8860 -0.4262 -0.8686
 6810TIP3   OH242064   0.412   6.730   1.583 -0.3849  0.1210 -0.4914
 6810TIP3    H142065   0.337   6.740   1.525 -0.1113 -0.4393 -0.9534
 6810TIP3    H242066   0.485   6.706   1.525 -0.2308 -1.0086  0.1291
 6811TIP3   OH242067   6.491   2.247   8.394 -0.1390 -0.0198 -0.0177
 6811TIP3    H142068   6.487   2.230   8.299 -2.1255  1.1505 -0.2058
 6811TIP3    H242069   6.437   2.325   8.406  0.0031 -0.2074  2.1106
 6812TIP3   OH242070   3.937   5.035   0.290 -0.4783 -0.1160 -0.1121
 6812TIP3    H142071   3.885   5.057   0.367 -0.1978  1.0398 -0.2298
 6812TIP3    H242072   3.874   5.004   0.226 -0.9412  0.6303 -0.0263
 6813TIP3   OH242073   0.290   4.125   2.065  0.1929 -0.0865 -0.1764
 6813TIP3    H142074   0.236   4.050   2.039  0.4492 -0.4734  0.3856
 6813TIP3    H242075   0.370   4.086   2.100  0.1315  0.4362  0.5601
 6814TIP3   OH242076   1.190   4.043   7.115  0.0846 -0.2664 -0.1659
 6814TIP3    H142077   1.255   4.041   7.045 -0.5530  0.9647 -0.8112
 6814TIP3    H242078   1.183   4.135   7.140  0.7554 -0.7321  1.9841
 6815TIP3   OH242079   3.516   2.695   0.341 -0.4173  0.1719 -0.6639
 6815TIP3    H142080   3.444   2.740   0.297 -0.1688  2.1603  0.8568
 6815TIP3    H242081   3.480   2.670   0.426  0.1338 -0.5285 -0.6276
 6816TIP3   OH242082   4.624   0.507   0.852 -0.5082  0.4540 -0.0637
 6816TIP3    H142083   4.641   0.464   0.935  1.4031  0.3779 -0.4466
 6816TIP3    H242084   4.584   0.590   0.876 -0.0335  0.4094  0.9362
 6817TIP3   OH242085   4.759   0.396   1.355 -0.3383 -0.4960  0.2043
 6817TIP3    H142086   4.686   0.457   1.341 -2.6372 -3.1953 -0.4295
 6817TIP3    H242087   4.729   0.339   1.426  0.3715 -2.7226 -1.1752
 6818TIP3   OH242088   2.267   5.338   2.127 -0.4303 -0.1322 -0.0761
 6818TIP3    H142089   2.256   5.384   2.210  1.1899  1.7050 -0.8114
 6818TIP3    H242090   2.230   5.397   2.062  0.5510 -0.4316 -0.9215
 6819TIP3   OH242091   3.527   4.450   8.454  0.0183 -0.2195 -0.0665
 6819TIP3    H142092   3.589   4.456   8.527  2.4741  0.2204 -2.0552
 6819TIP3    H242093   3.464   4.384   8.481  1.2281 -0.5394  2.1728
 6820TIP3   OH242094   2.618   2.076   7.791 -0.8789 -0.1284 -0.7697
 6820TIP3    H142095   2.532   2.099   7.757 -0.4802  0.5159 -1.3736
 6820TIP3    H242096   2.669   2.156   7.783 -0.3787 -0.3428  0.1047
 6821TIP3   OH242097   2.789   4.122   8.851 -0.1592 -0.2053 -0.2907
 6821TIP3    H142098   2.786   4.030   8.879 -0.0531 -0.3305 -0.6838
 6821TIP3    H242099   2.702   4.139   8.815 -0.4239  0.0699  0.4592
 6822TIP3   OH242100   2.374   0.081   8.012 -0.1934  0.2496 -0.6658
 6822TIP3    H142101   2.446   0.126   8.058 -1.5246  2.3100 -0.4468
 6822TIP3    H242102   2.381  -0.010   8.039  1.2178  0.7409  0.8057
 6823TIP3   OH242103   4.924   1.837   1.848 -0.4749  0.2612  0.1441
 6823TIP3    H142104   4.844   1.796   1.881 -0.1196 -1.3503 -0.8777
 6823TIP3    H242105   4.894   1.916   1.802 -1.8110 -1.4715 -2.1943
 6824TIP3   OH242106   3.790   2.743   1.103  0.4205  0.2825 -0.1998
 6824TIP3    H142107   3.794   2.652   1.074  1.0814  0.5196 -0.8819
 6824TIP3    H242108   3.700   2.755   1.132  0.3573 -0.6215  0.0102
 6825TIP3   OH242109   5.731   0.458   7.574 -0.0906 -0.7066  0.1414
 6825TIP3    H142110   5.692   0.504   7.499 -0.6137 -0.4771  0.5470
 6825TIP3    H242111   5.664   0.395   7.601  0.3881 -1.2992 -0.0385
 6826TIP3   OH242112   4.722   0.972   1.149 -0.4693 -0.7269  0.4592
 6826TIP3    H142113   4.694   0.977   1.240  0.3958 -1.2243  0.7722
 6826TIP3    H242114   4.778   1.049   1.137  0.1263 -1.1264  0.6185
 6827TIP3   OH242115   2.495   6.019   8.152  0.3130 -0.5254 -0.4995
 6827TIP3    H142116   2.540   5.940   8.183  2.2539 -0.0241 -1.8040
 6827TIP3    H242117   2.408   6.014   8.190  1.3920 -1.7005  2.0225
 6828TIP3   OH242118   0.481   1.352   7.715 -0.1758  0.0153  0.3430
 6828TIP3    H142119   0.562   1.370   7.762 -0.5790 -0.2053  1.1236
 6828TIP3    H242120   0.411   1.370   7.778 -0.7362  0.1606 -0.3061
 6829TIP3   OH242121   5.453   0.602   1.200 -0.3013  0.5786 -0.5420
 6829TIP3    H142122   5.386   0.547   1.159  0.2859 -1.0367  0.5641
 6829TIP3    H242123   5.491   0.650   1.127  1.3673 -2.8798 -2.1950
 6830TIP3   OH242124   0.407   2.876   2.079  0.2964 -0.1939  0.8584
 6830TIP3    H142125   0.384   2.945   2.016 -1.3739 -1.3342  0.1560
 6830TIP3    H242126   0.493   2.902   2.112  2.2898 -0.5594 -3.4097
 6831TIP3   OH242127   3.857   2.573   8.002 -0.4550  0.3767 -0.4088
 6831TIP3    H142128   3.778   2.533   7.964 -0.6700  1.4905 -1.1984
 6831TIP3    H242129   3.922   2.504   8.001 -1.5207 -0.7007  0.6409
 6832TIP3   OH242130   3.503   5.215   2.120 -0.0410  0.4558  0.1130
 6832TIP3    H142131   3.479   5.283   2.183  1.1344  0.2879  0.7704
 6832TIP3    H242132   3.542   5.263   2.047 -1.0688  0.6226 -0.3461
 6833TIP3   OH242133   4.026   3.417   0.323  0.0078 -0.4800 -0.3785
 6833TIP3    H142134   4.012   3.382   0.410  0.2626 -0.0628 -0.1686
 6833TIP3    H242135   3.940   3.448   0.295  0.2046  0.7496  0.3242
 6834TIP3   OH242136   2.387   2.067   2.050  0.6503 -0.0428  0.2968
 6834TIP3    H142137   2.313   2.108   2.096 -0.7361 -0.5245 -1.4009
 6834TIP3    H242138   2.357   1.978   2.031  1.5083 -0.1229 -0.7564
 6835TIP3   OH242139   5.497   3.756   0.723  0.0178 -0.0305  0.0412
 6835TIP3    H142140   5.575   3.702   0.739  0.6200  1.2726  1.8637
 6835TIP3    H242141   5.531   3.845   0.716 -1.1427  0.3479 -0.9891
 6836TIP3   OH242142   2.120   0.587   0.260 -0.0920  0.3346 -0.5485
 6836TIP3    H142143   2.188   0.547   0.315 -0.5062 -0.1160 -0.3515
 6836TIP3    H242144   2.039   0.546   0.290 -0.6840  2.1051  0.4136
 6837TIP3   OH242145   5.268   5.919   2.502  0.0536  0.2606  0.6142
 6837TIP3    H142146   5.322   5.946   2.577 -0.6601 -0.1827  1.3043
 6837TIP3    H242147   5.279   5.990   2.438  0.3508  0.8546  1.3066
 6838TIP3   OH242148   5.883   1.957   0.964 -0.2863  0.0856 -0.1960
 6838TIP3    H142149   5.808   2.006   0.932 -2.1541 -2.8429 -0.7054
 6838TIP3    H242150   5.959   2.004   0.931 -1.9249  2.0005 -1.4589
 6839TIP3   OH242151   3.266   0.429   1.618 -0.9435  0.1022  0.2985
 6839TIP3    H142152   3.347   0.433   1.669 -0.4309 -0.3018 -0.4670
 6839TIP3    H242153   3.265   0.510   1.567 -0.4135 -0.4209 -0.5719
 6840TIP3   OH242154   5.888   1.192   1.549 -0.3297  0.1448 -0.2839
 6840TIP3    H142155   5.870   1.148   1.466 -2.0720 -1.2689  0.7631
 6840TIP3    H242156   5.849   1.279   1.539 -0.3755  0.0513 -0.9859
 6841TIP3   OH242157   2.227   6.327   0.403  0.0707  0.2533  0.5685
 6841TIP3    H142158   2.147   6.282   0.374  0.2224 -0.7457  1.6373
 6841TIP3    H242159   2.228   6.408   0.353  0.4798 -1.4787 -2.4950
 6842TIP3   OH242160   2.251   6.325   6.804 -0.0192 -0.0544  0.5448
 6842TIP3    H142161   2.277   6.234   6.787 -0.8293 -0.2299  0.2246
 6842TIP3    H242162   2.327   6.364   6.847  1.4294 -0.0846 -1.8427
 6843TIP3   OH242163   6.060   2.527   0.723 -0.1551  0.2245  0.0287
 6843TIP3    H142164   6.022   2.572   0.648  1.9479 -1.2515 -2.0954
 6843TIP3    H242165   6.099   2.596   0.776 -0.0013  1.1938 -1.2899
 6844TIP3   OH242166   3.395   5.492   0.080 -0.2932  0.5459 -0.1717
 6844TIP3    H142167   3.332   5.541   0.027 -0.4154  1.7285  1.0155
 6844TIP3    H242168   3.346   5.466   0.158  0.8013  2.0035  1.0508
 6845TIP3   OH242169   2.992   0.211   1.621  0.1659 -0.0168 -0.9072
 6845TIP3    H142170   2.948   0.254   1.548 -2.0612 -0.5319  0.0668
 6845TIP3    H242171   3.049   0.146   1.579 -0.1070  0.5514 -2.2211
 6846TIP3   OH242172   3.746   0.095   2.062 -0.8833 -0.1881  0.1931
 6846TIP3    H142173   3.756   0.103   2.157 -0.8802  2.7771  0.0223
 6846TIP3    H242174   3.651   0.083   2.049 -1.4988  3.3064  0.5191
 6847TIP3   OH242175   0.343   3.145   1.930  1.0273 -0.3168 -0.0005
 6847TIP3    H142176   0.288   3.222   1.946  0.5151 -0.6837  0.0427
 6847TIP3    H242177   0.281   3.075   1.907  1.5832 -0.2592 -1.9018
 6848TIP3   OH242178   5.848   0.168   7.728 -0.0047  0.1772 -0.0540
 6848TIP3    H142179   5.926   0.173   7.673  0.0491  0.3915  0.0414
 6848TIP3    H242180   5.873   0.112   7.800 -0.6889 -1.7782 -1.2583
 6849TIP3   OH242181   0.422   1.387   8.886 -0.0310 -0.7720 -0.1653
 6849TIP3    H142182   0.395   1.439   8.962  0.7559  0.1314 -0.4866
 6849TIP3    H242183   0.343   1.380   8.832 -0.2633 -0.3176  0.1135
 6850TIP3   OH242184   4.628   1.423   1.759  0.3718  0.2976  0.6519
 6850TIP3    H142185   4.624   1.346   1.816 -0.5478  0.2981  0.6113
 6850TIP3    H242186   4.684   1.397   1.687 -0.7354 -0.7057  0.1176
 6851TIP3   OH242187   4.939   6.018   1.901  0.3064 -0.2734  0.2191
 6851TIP3    H142188   4.978   6.022   1.988  0.1811 -1.3885  0.3377
 6851TIP3    H242189   4.961   5.931   1.869  0.4394  0.1531 -0.9157
 6852TIP3   OH242190   0.517   2.187   1.603  0.5401  0.4397 -0.1162
 6852TIP3    H142191   0.553   2.103   1.630  0.7750  1.0360  1.5480
 6852TIP3    H242192   0.574   2.252   1.644 -0.4379  1.4043 -0.2228
 6853TIP3   OH242193   0.767   3.060   7.007  0.0048 -0.3012 -0.0452
 6853TIP3    H142194   0.710   3.026   6.938 -1.6068  1.3107  0.4353
 6853TIP3    H242195   0.771   2.989   7.071 -0.2404 -0.9948 -0.7732
 6854TIP3   OH242196   3.553   5.112   6.583 -0.3161 -0.1790 -0.7126
 6854TIP3    H142197   3.638   5.147   6.610 -0.4609  0.0520 -0.5508
 6854TIP3    H242198   3.560   5.017   6.598  0.0878 -0.2243 -1.1815
 6855TIP3   OH242199   2.669   5.487   1.578 -0.6033 -0.4143  0.1431
 6855TIP3    H142200   2.637   5.414   1.526 -2.3421  0.3979 -0.0054
 6855TIP3    H242201   2.604   5.498   1.648 -0.1527  0.6897  0.4185
 6856TIP3   OH242202   5.030   0.587   7.561 -0.2841  0.2834  0.2110
 6856TIP3    H142203   5.118   0.622   7.549  0.3787 -1.4518 -0.1790
 6856TIP3    H242204   5.027   0.559   7.652 -1.2731  2.4382  0.9290
 6857TIP3   OH242205   2.258   0.775   7.466 -0.3682  0.3194 -0.5354
 6857TIP3    H142206   2.171   0.756   7.432 -1.3903  1.6895  1.1326
 6857TIP3    H242207   2.252   0.754   7.560  1.7975 -1.6905 -0.7419
 6858TIP3   OH242208   0.705   2.456   2.126  0.0703 -0.8431  0.1461
 6858TIP3    H142209   0.617   2.425   2.147 -0.1605 -1.3881 -1.4932
 6858TIP3    H242210   0.693   2.510   2.048  0.9611  0.5322  0.9289
 6859TIP3   OH242211   3.521   1.342   8.294 -0.2409  0.0784 -0.2904
 6859TIP3    H142212   3.489   1.359   8.383  0.7289  0.2897  0.0346
 6859TIP3    H242213   3.612   1.315   8.307 -0.4224 -0.9837 -1.1477
 6860TIP3   OH242214   4.146   1.922   7.040 -0.2424  0.5590  0.2408
 6860TIP3    H142215   4.149   1.826   7.049  0.3464  0.6294  0.8419
 6860TIP3    H242216   4.172   1.939   6.949 -1.5954  0.0918 -0.2733
 6861TIP3   OH242217   1.264   6.519   8.112 -0.1714  0.2147 -0.2187
 6861TIP3    H142218   1.251   6.612   8.089  0.3089  0.1168 -0.9284
 6861TIP3    H242219   1.331   6.489   8.050 -1.1390 -0.8993 -0.7455
 6862TIP3   OH242220   3.135   4.970   8.833 -0.1618 -0.1369 -0.3418
 6862TIP3    H142221   3.132   5.065   8.824  1.5104 -0.0358 -0.1302
 6862TIP3    H242222   3.107   4.954   8.923  1.6285  0.3568  0.3465
 6863TIP3   OH242223   4.867   0.055   8.604  0.3908 -0.1621 -0.0672
 6863TIP3    H142224   4.936   0.046   8.538  1.4705  0.2338  0.9961
 6863TIP3    H242225   4.885   0.138   8.647  0.3851 -0.9647  1.5244
 6864TIP3   OH242226   4.956   4.190   0.401  0.3692 -0.3032 -0.3715
 6864TIP3    H142227   4.968   4.194   0.496  0.3229 -0.1172 -0.3735
 6864TIP3    H242228   4.890   4.256   0.382 -1.9696 -2.4059 -0.1626
 6865TIP3   OH242229   0.872   0.872   2.469  0.2211 -0.6861 -0.3457
 6865TIP3    H142230   0.957   0.858   2.429  0.5049 -1.4452  0.4780
 6865TIP3    H242231   0.857   0.793   2.522  0.7890  1.0657  2.6692
 6866TIP3   OH242232   2.293   0.144   2.154  0.5869 -0.7740  0.9073
 6866TIP3    H142233   2.311   0.192   2.073 -1.0888 -0.3770  0.7198
 6866TIP3    H242234   2.199   0.126   2.150  0.8303 -2.4545  1.8691
 6867TIP3   OH242235   5.953   2.851   8.659 -0.0748 -0.0515  0.1153
 6867TIP3    H142236   6.028   2.803   8.625 -1.0190 -1.2128 -0.3831
 6867TIP3    H242237   5.949   2.930   8.605 -0.5470 -1.0740 -1.4058
 6868TIP3   OH242238   2.575   3.675   0.429  0.1291 -0.0961  0.4452
 6868TIP3    H142239   2.586   3.605   0.493 -0.6087 -2.2255 -1.6385
 6868TIP3    H242240   2.652   3.667   0.372 -0.5527  0.0232 -0.5073
 6869TIP3   OH242241   4.494   5.109   0.227 -0.6158  0.0777 -0.0785
 6869TIP3    H142242   4.401   5.088   0.239 -0.7162 -0.4436 -1.5355
 6869TIP3    H242243   4.496   5.160   0.146  0.3629  0.2216  0.0262
 6870TIP3   OH242244   5.797   1.594   2.349 -0.6390  0.2895  0.1391
 6870TIP3    H142245   5.749   1.511   2.361  0.2434 -0.2981 -0.2848
 6870TIP3    H242246   5.729   1.658   2.327 -1.0878 -0.9350 -2.4663
 6871TIP3   OH242247   3.062   6.619   0.484  0.3488  0.1957 -0.1491
 6871TIP3    H142248   3.025   6.638   0.398 -2.3216  0.3290  0.9199
 6871TIP3    H242249   3.096   6.703   0.514 -3.8174  1.7087  1.0930
 6872TIP3   OH242250   4.965   3.773   0.703  0.3931  0.1156  0.6141
 6872TIP3    H142251   5.021   3.842   0.739  0.3909  0.0005  0.8431
 6872TIP3    H242252   5.027   3.708   0.668  0.3983  0.1088  0.6361
 6873TIP3   OH242253   2.867   2.938   8.322 -0.0104  0.5656  0.2826
 6873TIP3    H142254   2.955   2.921   8.289  0.6011  0.3733  1.8843
 6873TIP3    H242255   2.863   3.034   8.333  0.4006  0.4920  1.1811
 6874TIP3   OH242256   6.616   5.561   1.722 -0.4260 -0.0798  0.4410
 6874TIP3    H142257   6.621   5.631   1.657  1.3778 -0.2692  0.3403
 6874TIP3    H242258   6.634   5.481   1.672 -0.2579 -0.3665  0.9543
 6875TIP3   OH242259   4.074   1.478   8.883  0.3465  0.2589  0.1989
 6875TIP3    H142260   4.109   1.541   8.946 -0.2927  0.5208  0.2901
 6875TIP3    H242261   4.127   1.492   8.804  0.7785  0.3081  0.4941
 6876TIP3   OH242262   2.967   4.748   8.290  0.0526  0.0186 -0.6978
 6876TIP3    H142263   2.988   4.672   8.236 -0.4720 -0.3211 -0.4229
 6876TIP3    H242264   2.913   4.714   8.361 -0.0919  0.6294 -0.5081
 6877TIP3   OH242265   2.804   6.112   1.235  0.0252 -0.6998  0.5427
 6877TIP3    H142266   2.740   6.055   1.191 -1.9286  1.4093  0.4673
 6877TIP3    H242267   2.766   6.128   1.322  0.1513  0.9863  0.3241
 6878TIP3   OH242268   2.335   1.500   0.127 -0.3112 -0.1519 -0.4105
 6878TIP3    H142269   2.338   1.420   0.180  0.8207 -0.3684 -0.7629
 6878TIP3    H242270   2.367   1.473   0.041  2.6259  1.1219  0.1358
 6879TIP3   OH242271   6.122   2.723   2.116  0.1142 -0.5128  0.4307
 6879TIP3    H142272   6.082   2.797   2.162  0.8809 -0.6534  1.3662
 6879TIP3    H242273   6.216   2.734   2.131  0.2900 -1.2278 -0.1075
 6880TIP3   OH242274   4.668   4.681   0.904 -0.0079  0.3805  0.1867
 6880TIP3    H142275   4.660   4.629   0.825  1.1801 -0.9213  0.8745
 6880TIP3    H242276   4.646   4.620   0.975 -1.1223  1.5364  0.8697
 6881TIP3   OH242277   3.575   0.961   0.290 -0.2367  0.4853 -0.1403
 6881TIP3    H142278   3.491   0.920   0.266 -0.6206  0.4920  1.1110
 6881TIP3    H242279   3.592   0.930   0.379  0.2050  1.8688  0.2826
 6882TIP3   OH242280   6.252   1.799   7.118  0.1608  0.5464 -0.0754
 6882TIP3    H142281   6.334   1.768   7.156  0.7782 -0.7873 -2.3098
 6882TIP3    H242282   6.277   1.846   7.039 -1.1788  0.5912 -0.5085
 6883TIP3   OH242283   1.142   4.140   0.751  0.2384  0.2427 -0.0909
 6883TIP3    H142284   1.156   4.081   0.826  0.4726 -0.0571 -0.3655
 6883TIP3    H242285   1.111   4.082   0.682  1.8199  0.1928 -0.8033
 6884TIP3   OH242286   5.891   3.963   1.276 -0.0210  0.5356 -0.1974
 6884TIP3    H142287   5.955   4.010   1.329  0.7842 -1.2764  0.5434
 6884TIP3    H242288   5.906   3.994   1.187  1.5565  0.5304  0.0370
 6885TIP3   OH242289   0.048   6.196   1.723 -0.3880  0.2568 -0.3025
 6885TIP3    H142290   0.083   6.190   1.812  0.4343  0.7374 -0.5855
 6885TIP3    H242291   0.109   6.254   1.677 -1.5544  1.1071 -0.8183
 6886TIP3   OH242292   4.169   0.688   7.991 -0.6094  0.0032  0.0666
 6886TIP3    H142293   4.179   0.699   7.897  0.2926  1.2940  0.2928
 6886TIP3    H242294   4.088   0.734   8.013  0.3627  1.6913  0.2290
 6887TIP3   OH242295   5.772   6.360   7.812 -0.5832  0.1317  0.0180
 6887TIP3    H142296   5.806   6.447   7.790  1.6480 -1.1499 -2.0353
 6887TIP3    H242297   5.692   6.351   7.760 -0.0003  0.3992 -0.9464
 6888TIP3   OH242298   0.520   0.724   1.618 -0.2622 -0.7304  0.2121
 6888TIP3    H142299   0.609   0.687   1.620  0.1244  0.0642 -0.9279
 6888TIP3    H242300   0.463   0.648   1.605 -0.0052 -1.5445  3.1836
 6889TIP3   OH242301   0.333   5.687   7.735 -0.5163 -0.0834  0.1468
 6889TIP3    H142302   0.327   5.625   7.808 -0.7661 -0.7090 -0.3922
 6889TIP3    H242303   0.256   5.743   7.744 -0.4218 -0.0100  0.4981
 6890TIP3   OH242304   1.070   2.761   7.330 -0.4335 -1.1989 -0.0273
 6890TIP3    H142305   1.026   2.820   7.268  0.0635 -1.2115 -0.3947
 6890TIP3    H242306   1.149   2.734   7.284 -1.1094 -2.9029 -0.2456
 6891TIP3   OH242307   1.349   5.101   0.849  0.1920  0.1006 -0.1401
 6891TIP3    H142308   1.339   5.048   0.770 -1.5232  1.2849 -0.7655
 6891TIP3    H242309   1.364   5.190   0.817 -2.1880  0.9191  0.7390
 6892TIP3   OH242310   3.069   1.071   8.566  0.0521 -0.1935 -0.3504
 6892TIP3    H142311   3.110   1.066   8.653 -0.4754  1.4914  0.0319
 6892TIP3    H242312   3.143   1.070   8.505  0.4043 -1.9005  0.0632
 6893TIP3   OH242313   0.124   4.535   6.664 -0.6499  0.4411  0.3229
 6893TIP3    H142314   0.068   4.600   6.706 -1.5562 -1.0416  1.5332
 6893TIP3    H242315   0.133   4.466   6.730 -2.2040 -2.0490 -1.8810
 6894TIP3   OH242316   6.787   2.664   1.767  0.2808 -0.3483 -0.3309
 6894TIP3    H142317   6.855   2.641   1.704 -0.4345  0.8888 -1.5987
 6894TIP3    H242318   6.835   2.710   1.837  0.7663  0.4789 -1.1905
 6895TIP3   OH242319   0.138   3.757   8.397  0.1114 -0.1488 -0.2359
 6895TIP3    H142320   0.171   3.695   8.332  0.1900 -2.1378  1.5967
 6895TIP3    H242321   0.086   3.819   8.346  1.7699 -0.4281 -2.4228
 6896TIP3   OH242322   1.016   1.982   3.249  0.8130  0.1574  1.0365
 6896TIP3    H142323   0.988   2.049   3.187 -0.3706 -0.8740  0.4194
 6896TIP3    H242324   1.112   1.984   3.245  0.7733  1.1551  0.3310
 6897TIP3   OH242325   1.714   3.517   0.395  0.6519  0.1604 -0.3770
 6897TIP3    H142326   1.744   3.579   0.462 -0.7165  2.1448 -1.4970
 6897TIP3    H242327   1.709   3.568   0.315 -0.5853 -1.3875 -1.3507
 6898TIP3   OH242328   6.430   6.753   0.311 -0.3596 -0.4724 -0.0749
 6898TIP3    H142329   6.474   6.669   0.321 -0.3416 -0.6552 -1.4783
 6898TIP3    H242330   6.337   6.733   0.323 -0.1604 -0.0871  2.8819
 6899TIP3   OH242331   5.449   5.964   1.582  0.0541 -0.7318  0.1025
 6899TIP3    H142332   5.461   5.895   1.647  2.7118 -0.1032  0.3755
 6899TIP3    H242333   5.537   5.994   1.561 -0.9202  1.6737 -0.9949
 6900TIP3   OH242334   3.641   4.461   2.159 -0.1013 -0.6308 -0.0745
 6900TIP3    H142335   3.628   4.475   2.065 -0.9179 -1.1202 -0.0527
 6900TIP3    H242336   3.563   4.500   2.200 -0.1061 -1.0571  0.3354
 6901TIP3   OH242337   6.731   0.807   2.291 -0.3273  0.3194  0.5620
 6901TIP3    H142338   6.765   0.893   2.267  0.0193  0.1338  0.3879
 6901TIP3    H242339   6.669   0.825   2.362  1.7512  0.4781  2.4533
 6902TIP3   OH242340   3.876   4.187   1.559  0.1837 -0.5282  0.2006
 6902TIP3    H142341   3.902   4.270   1.518  2.0620 -0.9223  0.5113
 6902TIP3    H242342   3.913   4.119   1.503 -2.6979 -1.2747 -0.9454
 6903TIP3   OH242343   4.703   5.657   8.440 -0.0202  0.1396 -0.3261
 6903TIP3    H142344   4.687   5.716   8.367  3.0164 -0.9250 -2.0265
 6903TIP3    H242345   4.755   5.708   8.502 -3.7868  1.5240  2.0520
 6904TIP3   OH242346   0.256   0.488   3.024 -0.4169 -0.6164 -0.1009
 6904TIP3    H142347   0.179   0.442   2.992 -0.6289 -0.0005 -0.5096
 6904TIP3    H242348   0.246   0.578   2.991  1.5111 -1.0046 -2.0441
 6905TIP3   OH242349   5.069   5.778   1.006  0.0133  0.4006 -0.2591
 6905TIP3    H142350   5.035   5.844   0.945 -2.7340  0.5738  1.2973
 6905TIP3    H242351   5.013   5.702   0.994  1.4548 -0.7416 -0.1268
 6906TIP3   OH242352   5.522   5.297   1.874 -0.4741 -0.6390  0.5397
 6906TIP3    H142353   5.607   5.338   1.859 -0.9230  0.4565  0.9031
 6906TIP3    H242354   5.463   5.342   1.814 -1.0355 -0.5560  1.1436
 6907TIP3   OH242355   4.461   1.753   7.808 -0.0138  0.0160  0.0415
 6907TIP3    H142356   4.434   1.756   7.716 -0.4535  0.2928  0.1781
 6907TIP3    H242357   4.557   1.761   7.805 -0.1062  1.1474 -0.3400
 6908TIP3   OH242358   6.140   6.625   0.058  0.0509 -0.7583  0.0373
 6908TIP3    H142359   6.155   6.717   0.038 -1.6486 -0.4078  0.2657
 6908TIP3    H242360   6.165   6.616   0.150  0.1900 -0.5291  0.0245
 6909TIP3   OH242361   6.016   0.603   2.591 -0.4062  0.0569 -0.0663
 6909TIP3    H142362   6.060   0.685   2.567 -0.9995  0.8484  1.4420
 6909TIP3    H242363   6.071   0.566   2.661 -0.5208 -0.4845 -0.2582
 6910TIP3   OH242364   3.643   3.010   1.957  0.0623  0.0798  0.1114
 6910TIP3    H142365   3.652   2.951   1.882 -2.6956  1.6155 -1.5622
 6910TIP3    H242366   3.601   3.088   1.922  0.2269  1.5786  2.9633
 6911TIP3   OH242367   4.427   4.166   0.577  0.1775 -0.2176 -0.1290
 6911TIP3    H142368   4.426   4.233   0.645  1.4089  0.8353 -1.0871
 6911TIP3    H242369   4.337   4.133   0.574  0.1737 -0.6483  2.2873
 6912TIP3   OH242370   0.240   0.868   6.569 -0.2241 -0.3601 -0.0152
 6912TIP3    H142371   0.182   0.944   6.575  0.0472 -0.1307 -0.2792
 6912TIP3    H242372   0.227   0.821   6.652  0.3885  0.5316  0.5975
 6913TIP3   OH242373   6.464   6.460   8.023  0.1119  0.0998  0.5890
 6913TIP3    H142374   6.390   6.511   7.990 -0.2388  0.3487  1.7161
 6913TIP3    H242375   6.426   6.403   8.089  0.7304 -0.6753  0.2879
 6914TIP3   OH242376   5.051   4.306   6.908 -0.2495 -0.3976 -0.0871
 6914TIP3    H142377   5.042   4.214   6.932  0.6279 -1.3056 -2.8985
 6914TIP3    H242378   5.143   4.327   6.924 -0.3127 -0.1716 -0.0100
 6915TIP3   OH242379   1.969   6.221   0.357 -0.4447 -0.5488  0.4221
 6915TIP3    H142380   1.976   6.228   0.262  0.7049 -1.5324  0.4093
 6915TIP3    H242381   1.944   6.130   0.373 -0.0722 -0.5454  1.0760
 6916TIP3   OH242382   6.108   3.559   8.742 -0.2582 -0.2519 -0.5707
 6916TIP3    H142383   6.158   3.518   8.670  1.4865  0.5441  0.1411
 6916TIP3    H242384   6.101   3.490   8.808 -1.0031 -0.6757 -1.0735
 6917TIP3   OH242385   1.772   1.317   6.426 -0.3124  0.5065  0.4382
 6917TIP3    H142386   1.826   1.337   6.503  0.7356  1.2526 -0.4563
 6917TIP3    H242387   1.723   1.398   6.410 -1.2826  0.0175  0.9086
 6918TIP3   OH242388   3.771   6.329   7.499 -0.2218  0.5595  0.2095
 6918TIP3    H142389   3.810   6.322   7.412 -0.9956 -0.6809 -0.0661
 6918TIP3    H242390   3.745   6.421   7.506 -0.1918  0.6676 -0.8906
 6919TIP3   OH242391   3.589   4.290   7.125 -0.5331 -0.2138  0.3839
 6919TIP3    H142392   3.616   4.244   7.046 -0.5043  1.8466 -0.8695
 6919TIP3    H242393   3.628   4.377   7.117 -1.3511  0.3718  2.1909
 6920TIP3   OH242394   6.280   5.589   7.743  0.2245  0.2715 -0.4355
 6920TIP3    H142395   6.292   5.601   7.649  0.9012  0.4315 -0.3341
 6920TIP3    H242396   6.339   5.653   7.783  1.3414 -1.0249  0.0905
 6921TIP3   OH242397   4.225   2.069   0.930 -0.3631  0.3022 -0.2380
 6921TIP3    H142398   4.319   2.057   0.918 -0.2963  1.6083 -1.2053
 6921TIP3    H242399   4.209   2.046   1.022  0.9969  0.6130  0.0941
 6922TIP3   OH242400   2.599   0.424   1.210 -0.8559 -0.3629  0.1164
 6922TIP3    H142401   2.555   0.505   1.234 -0.0912 -0.2930  1.3818
 6922TIP3    H242402   2.687   0.451   1.183 -0.6308 -0.7551  0.4368
 6923TIP3   OH242403   0.966   6.304   0.051 -0.1987 -0.1670  0.0771
 6923TIP3    H142404   0.916   6.369   0.001 -2.4119 -1.8026  0.0390
 6923TIP3    H242405   0.915   6.289   0.130  1.2739 -0.4890  1.0080
 6924TIP3   OH242406   1.872   6.221   8.619 -0.1896  0.2909 -0.1168
 6924TIP3    H142407   1.961   6.190   8.636 -0.0746  0.7173  0.0540
 6924TIP3    H242408   1.876   6.316   8.631 -0.7779  0.2594  0.4022
 6925TIP3   OH242409   6.197   6.085   8.008  0.0351 -0.3947  0.1713
 6925TIP3    H142410   6.161   6.077   8.096  3.1378 -1.2629  1.5125
 6925TIP3    H242411   6.141   6.030   7.954 -1.5968 -0.3278  1.6984
 6926TIP3   OH242412   3.901   0.362   8.701 -0.0766 -0.0804 -0.3849
 6926TIP3    H142413   3.881   0.434   8.642 -0.0709 -0.0417 -0.3404
 6926TIP3    H242414   3.882   0.283   8.650 -3.2331 -0.0819  0.5554
 6927TIP3   OH242415   6.511   3.578   7.292 -0.4785 -0.3122 -0.3708
 6927TIP3    H142416   6.578   3.514   7.266 -1.1269 -1.2640  0.2303
 6927TIP3    H242417   6.548   3.663   7.267  1.0542 -0.7860  0.1508
 6928TIP3   OH242418   4.700   4.548   1.736  0.3013 -0.1009  0.6924
 6928TIP3    H142419   4.738   4.636   1.727  1.9060 -0.7183  1.1351
 6928TIP3    H242420   4.747   4.496   1.671  0.2342 -0.8973  1.2723
 6929TIP3   OH242421   6.737   3.903   0.764  0.0053 -0.0957 -0.2486
 6929TIP3    H142422   6.676   3.890   0.837  0.1736 -0.8610 -0.2359
 6929TIP3    H242423   6.806   3.959   0.801  0.9017 -1.7216  0.6743
 6930TIP3   OH242424   0.934   0.460   0.057  0.0062  0.4551 -0.1387
 6930TIP3    H142425   0.897   0.508  -0.017 -1.8428  0.4102  0.6947
 6930TIP3    H242426   0.871   0.389   0.074 -0.4143  1.3067  2.3458
 6931TIP3   OH242427   0.124   5.439   1.666 -0.2688 -0.0377 -0.1943
 6931TIP3    H142428   0.134   5.469   1.756 -1.0610 -0.1759 -0.0583
 6931TIP3    H242429   0.082   5.512   1.620 -1.1138 -0.4757 -0.1346
 6932TIP3   OH242430   6.698   1.443   1.607 -0.7399 -0.2018  0.0326
 6932TIP3    H142431   6.611   1.477   1.629 -0.8524 -0.0706 -0.6083
 6932TIP3    H242432   6.681   1.360   1.562 -0.5470  0.0455 -0.4931
 6933TIP3   OH242433   2.986   3.260   0.979  0.2828 -0.1880  0.0082
 6933TIP3    H142434   2.933   3.255   0.899  3.2628  1.0406 -2.2521
 6933TIP3    H242435   2.925   3.289   1.047 -2.2479 -0.5719 -1.9443
 6934TIP3   OH242436   6.550   5.478   0.225  0.3367  0.4109 -0.5073
 6934TIP3    H142437   6.608   5.537   0.272 -0.2511  0.4593  0.1907
 6934TIP3    H242438   6.462   5.507   0.249 -0.0295 -2.2582  1.9362
 6935TIP3   OH242439   4.687   6.012   0.629  0.0387  0.4913 -0.2118
 6935TIP3    H142440   4.633   5.933   0.635 -1.5324  1.5735  0.3062
 6935TIP3    H242441   4.662   6.065   0.704  0.7933  1.6689 -0.7606
 6936TIP3   OH242442   4.788   1.413   7.927  0.2820  0.1686  0.0973
 6936TIP3    H142443   4.723   1.410   7.857 -0.2445 -0.3495  0.5980
 6936TIP3    H242444   4.757   1.482   7.985  0.6310  0.4877 -0.0960
 6937TIP3   OH242445   3.562   2.771   8.225  0.1375  0.2478  0.9847
 6937TIP3    H142446   3.654   2.756   8.248 -0.2645 -0.5538  2.1401
 6937TIP3    H242447   3.518   2.689   8.246 -1.0194  0.9553  1.4218
 6938TIP3   OH242448   6.776   2.270   8.308 -0.4630 -1.1287  0.4958
 6938TIP3    H142449   6.816   2.341   8.359 -1.1264  0.9097 -1.6061
 6938TIP3    H242450   6.687   2.263   8.343 -0.6006 -0.4473  0.2969
 6939TIP3   OH242451   6.076   1.771   8.241  0.1397 -0.2611 -0.1131
 6939TIP3    H142452   6.063   1.808   8.153  0.4736 -0.8120 -0.4045
 6939TIP3    H242453   6.171   1.766   8.251  0.1202  0.5362  0.6114
 6940TIP3   OH242454   0.605   1.444   7.403 -0.0192  0.3732  0.4086
 6940TIP3    H142455   0.621   1.365   7.351  1.6752  1.1880 -0.4052
 6940TIP3    H242456   0.573   1.412   7.487 -0.6349 -1.0971 -0.3513
 6941TIP3   OH242457   3.650   3.595   2.007  0.1854  0.2697  0.0422
 6941TIP3    H142458   3.663   3.528   1.940  0.0945  1.1240 -0.8400
 6941TIP3    H242459   3.671   3.550   2.089 -0.1432 -0.9160 -0.5026
 6942TIP3   OH242460   2.882   4.933   7.778  0.4238  0.0370  0.0647
 6942TIP3    H142461   2.964   4.981   7.779  1.6235 -1.8237 -1.4802
 6942TIP3    H242462   2.898   4.856   7.834 -0.4343 -0.0848  0.1600
 6943TIP3   OH242463   3.251   3.767   1.903 -0.3253 -0.0019 -0.1809
 6943TIP3    H142464   3.270   3.786   1.812  0.2824  0.8491  0.1100
 6943TIP3    H242465   3.210   3.681   1.902  0.9715 -0.6325 -1.1106
 6944TIP3   OH242466   4.022   1.073   1.207 -0.4232 -0.7217 -0.6062
 6944TIP3    H142467   3.985   1.105   1.289  0.1000 -0.4059 -0.4912
 6944TIP3    H242468   4.107   1.115   1.201  0.1153 -1.7956 -0.6467
 6945TIP3   OH242469   4.794   0.880   6.931  0.1804 -0.4163  0.2941
 6945TIP3    H142470   4.715   0.867   6.983 -0.8886 -1.6371 -1.4988
 6945TIP3    H242471   4.811   0.794   6.892  1.3270  0.2696 -0.8047
 6946TIP3   OH242472   1.965   3.980   0.496  0.2037 -0.3707 -0.6752
 6946TIP3    H142473   2.008   3.916   0.553  1.0320  0.8586  0.1420
 6946TIP3    H242474   1.886   4.006   0.544 -1.0304 -1.9472 -1.7571
 6947TIP3   OH242475   0.249   4.739   7.070 -0.3632  0.3136 -0.1314
 6947TIP3    H142476   0.281   4.740   6.979  0.1688  1.6270  0.0338
 6947TIP3    H242477   0.235   4.647   7.090  1.4877 -0.1946 -0.8876
 6948TIP3   OH242478   2.371   2.364   2.252 -0.0714  0.0349 -0.3562
 6948TIP3    H142479   2.400   2.276   2.278  1.2903  0.4601 -0.3344
 6948TIP3    H242480   2.363   2.411   2.335  0.9992  0.4291 -0.4504
 6949TIP3   OH242481   3.666   4.596   1.912  0.2910  0.2163 -0.3439
 6949TIP3    H142482   3.683   4.682   1.874 -1.9832  1.1404  0.5339
 6949TIP3    H242483   3.615   4.550   1.845 -0.7230  0.5501  0.1799
 6950TIP3   OH242484   6.532   1.508   0.457  0.0535 -0.3601  0.2074
 6950TIP3    H142485   6.609   1.452   0.447 -0.0987 -0.6996  0.8493
 6950TIP3    H242486   6.561   1.576   0.519  0.3470  0.4876 -0.8340
 6951TIP3   OH242487   0.284   6.798   8.296 -0.3203  0.4149  0.2444
 6951TIP3    H142488   0.196   6.829   8.320 -0.2218  0.8279  0.0720
 6951TIP3    H242489   0.327   6.780   8.379 -1.2897 -1.8806  0.3436
 6952TIP3   OH242490   6.312   0.082   7.698  0.9634  0.0382 -0.3347
 6952TIP3    H142491   6.322   0.024   7.622 -0.6629  1.2448 -1.5327
 6952TIP3    H242492   6.236   0.136   7.677  0.9677  0.9695  1.8209
 6953TIP3   OH242493   5.767   2.201   1.165  0.2429  0.1075 -0.4033
 6953TIP3    H142494   5.862   2.218   1.165  0.0936  1.0042  0.6122
 6953TIP3    H242495   5.759   2.113   1.201  0.6241  0.5923  0.9415
 6954TIP3   OH242496   0.510   3.590   2.001 -0.9260 -0.2104 -0.3166
 6954TIP3    H142497   0.543   3.600   2.090 -0.3571  2.3033 -0.7579
 6954TIP3    H242498   0.555   3.512   1.968 -0.1492 -0.4188  1.1401
 6955TIP3   OH242499   2.823   5.647   7.126  0.1985 -0.1846 -0.3488
 6955TIP3    H142500   2.764   5.711   7.088  0.6994  1.3453  1.3423
 6955TIP3    H242501   2.851   5.685   7.209  1.8217 -1.8543 -0.0534
 6956TIP3   OH242502   3.235   1.749   8.902  0.5006 -0.2829  0.7281
 6956TIP3    H142503   3.184   1.758   8.822  1.4265  0.5220  0.1972
 6956TIP3    H242504   3.179   1.783   8.971  0.4643  0.9910  0.0923
 6957TIP3   OH242505   0.779   4.535   0.210 -0.3994  0.6778 -0.8954
 6957TIP3    H142506   0.835   4.467   0.246  1.0975  2.1156 -0.3931
 6957TIP3    H242507   0.690   4.502   0.222  0.2321 -0.6306  0.4717
 6958TIP3   OH242508   3.935   3.347   1.875 -0.2056  1.1941 -0.1593
 6958TIP3    H142509   3.962   3.431   1.911  0.0222  0.8000  0.6190
 6958TIP3    H242510   3.840   3.353   1.866 -0.4836  0.7442  2.0510
 6959TIP3   OH242511   6.609   1.450   0.759 -0.1486  0.6662 -0.1296
 6959TIP3    H142512   6.696   1.474   0.727 -0.8472  2.2239 -1.0140
 6959TIP3    H242513   6.603   1.356   0.743  1.0789  0.6718 -0.7835
 6960TIP3   OH242514   1.087   0.393   0.802  0.2851 -0.3910 -0.4535
 6960TIP3    H142515   1.098   0.304   0.767 -0.2531 -0.4956 -0.3694
 6960TIP3    H242516   1.060   0.445   0.726 -0.4464 -0.5275 -0.3042
 6961TIP3   OH242517   3.639   5.980   8.725  0.2965 -0.2946  0.9341
 6961TIP3    H142518   3.564   5.996   8.782 -0.1596  1.8491 -0.1563
 6961TIP3    H242519   3.692   6.059   8.733 -1.5571  1.8974 -4.0796
 6962TIP3   OH242520   5.781   1.870   2.158 -0.0127  0.1772  0.3561
 6962TIP3    H142521   5.706   1.889   2.101  1.0431  0.6113 -0.9509
 6962TIP3    H242522   5.805   1.955   2.194  0.1653  0.1247  0.3600
 6963TIP3   OH242523   5.867   1.562   8.181  0.0550 -0.4286  0.7669
 6963TIP3    H142524   5.854   1.555   8.087  1.0932 -2.1493  0.7058
 6963TIP3    H242525   5.836   1.650   8.204 -1.8062 -0.5927 -0.8853
 6964TIP3   OH242526   0.509   1.245   1.896  0.7459  0.3070  0.7775
 6964TIP3    H142527   0.480   1.154   1.891 -1.1515  0.9397 -1.9989
 6964TIP3    H242528   0.596   1.245   1.856 -0.2905  0.0058 -1.6226
 6965TIP3   OH242529   6.641   6.475   8.513 -0.1669  0.5587 -0.1490
 6965TIP3    H142530   6.691   6.461   8.432  1.6323  2.0635  0.6412
 6965TIP3    H242531   6.557   6.431   8.496  0.6502 -0.3533 -2.2929
 6966TIP3   OH242532   2.846   4.809   6.606 -0.1522  0.3787  0.4551
 6966TIP3    H142533   2.770   4.831   6.551  0.7914  2.3887 -0.1552
 6966TIP3    H242534   2.911   4.776   6.544  0.4585  1.4164  0.5288
 6967TIP3   OH242535   0.659   1.611   8.898 -0.3146 -0.0499  0.1553
 6967TIP3    H142536   0.624   1.603   8.987  0.1074  0.3997  0.3627
 6967TIP3    H242537   0.583   1.594   8.842 -0.4442 -0.9951  0.5845
 6968TIP3   OH242538   2.561   4.938   0.239 -1.0122  0.4251 -0.2220
 6968TIP3    H142539   2.620   4.885   0.292 -1.7785 -0.0472  0.1812
 6968TIP3    H242540   2.473   4.913   0.268 -1.4048  1.8482 -0.0868
 6969TIP3   OH242541   6.534   3.343   7.883 -0.1670 -0.1279  0.3567
 6969TIP3    H142542   6.497   3.261   7.917 -0.3748 -0.3372 -0.3400
 6969TIP3    H242543   6.513   3.341   7.789  0.7168  0.2489  0.1438
 6970TIP3   OH242544   3.193   3.673   7.192 -0.6270  0.1630  0.0051
 6970TIP3    H142545   3.285   3.656   7.208 -0.2259  0.3429 -1.8503
 6970TIP3    H242546   3.151   3.665   7.278  1.3163  1.5474  1.1620
 6971TIP3   OH242547   5.097   5.459   8.875  0.1767 -0.0122 -0.0332
 6971TIP3    H142548   5.129   5.395   8.812 -2.3040 -1.2826 -0.1420
 6971TIP3    H242549   5.139   5.435   8.958  1.8067  0.3324 -0.7317
 6972TIP3   OH242550   2.379   2.997   8.745  0.3175  0.5653 -0.1387
 6972TIP3    H142551   2.351   2.959   8.662  0.2660 -0.6268  0.4034
 6972TIP3    H242552   2.376   2.925   8.807  1.7860  1.0776  0.5844
 6973TIP3   OH242553   3.277   4.848   8.179  0.0297  0.4288  0.5084
 6973TIP3    H142554   3.279   4.771   8.235  2.8339  1.4573  2.0671
 6973TIP3    H242555   3.339   4.828   8.108 -1.2723  0.2631 -0.6206
 6974TIP3   OH242556   4.479   3.834   8.053  0.0780 -0.0495  0.1569
 6974TIP3    H142557   4.394   3.831   8.010  0.5930 -0.8636 -0.8372
 6974TIP3    H242558   4.461   3.812   8.144 -0.9762  1.3314  0.3120
 6975TIP3   OH242559   2.348   0.397   0.830  0.7187 -0.0092  0.1792
 6975TIP3    H142560   2.376   0.314   0.870  2.2873 -1.0086 -2.6501
 6975TIP3    H242561   2.277   0.371   0.771  2.3183  0.2585 -1.9797
 6976TIP3   OH242562   1.952   3.794   6.655  0.3598  0.1212  0.3540
 6976TIP3    H142563   2.003   3.872   6.633  1.3325 -0.1280  1.5869
 6976TIP3    H242564   1.865   3.826   6.675  0.9129  0.9769  1.4474
 6977TIP3   OH242565   4.068   5.491   1.032  0.1189  0.5601  0.5576
 6977TIP3    H142566   4.161   5.485   1.051 -0.2827  0.6648  2.7540
 6977TIP3    H242567   4.047   5.406   0.992  0.9306  0.1106  1.0626
 6978TIP3   OH242568   6.633   4.894   8.077  0.2312  0.5122 -0.4787
 6978TIP3    H142569   6.549   4.861   8.045 -0.0363  0.2108  0.4919
 6978TIP3    H242570   6.666   4.825   8.134  1.4403  0.3730 -1.2994
 6979TIP3   OH242571   1.423   2.302   1.814 -0.2031  0.4525 -0.1043
 6979TIP3    H142572   1.471   2.384   1.821  3.7500 -1.2910 -2.9030
 6979TIP3    H242573   1.450   2.252   1.891  0.3162  0.4826 -0.2626
 6980TIP3   OH242574   5.834   5.934   2.428 -0.2091  0.2613 -0.1168
 6980TIP3    H142575   5.824   5.995   2.355  1.7701  0.9040  0.1072
 6980TIP3    H242576   5.835   5.990   2.505  2.3713  0.0974  0.0420
 6981TIP3   OH242577   4.699   2.960   8.843 -0.5284 -0.4076  1.3124
 6981TIP3    H142578   4.733   2.882   8.799 -0.2873  0.6395 -0.4674
 6981TIP3    H242579   4.619   2.982   8.795  0.1493  1.2028  0.8579
 6982TIP3   OH242580   1.218   4.006   0.976 -0.6224 -0.1211 -0.2813
 6982TIP3    H142581   1.240   4.061   1.052 -0.7852  0.6979 -0.8154
 6982TIP3    H242582   1.170   3.932   1.014 -0.8814  0.3811  0.3961
 6983TIP3   OH242583   3.639   5.460   6.651  0.1262  0.0664  0.3808
 6983TIP3    H142584   3.675   5.372   6.646  0.9832  0.4188  0.1372
 6983TIP3    H242585   3.608   5.479   6.563 -0.9690 -0.3556  0.6641
 6984TIP3   OH242586   3.818   3.944   8.823 -0.6704 -0.3057  0.0188
 6984TIP3    H142587   3.853   3.962   8.736 -1.3680  1.0838  0.0083
 6984TIP3    H242588   3.896   3.944   8.880 -0.4273  0.9072 -0.2894
 6985TIP3   OH242589   1.086   5.124   6.743  0.3031 -0.3625 -0.5078
 6985TIP3    H142590   1.142   5.103   6.818 -2.2470  0.5195  1.7849
 6985TIP3    H242591   1.117   5.210   6.714  0.7035 -0.2715  0.1631
 6986TIP3   OH242592   2.060   6.288   7.460  0.1137 -0.4085 -0.2287
 6986TIP3    H142593   2.106   6.372   7.465  0.5112 -0.6952  1.5953
 6986TIP3    H242594   2.030   6.283   7.369  0.6662  1.3844 -0.5570
 6987TIP3   OH242595   0.231   1.574   2.493 -0.0888 -0.8755  0.1906
 6987TIP3    H142596   0.292   1.600   2.562 -0.7343  0.3366  0.3293
 6987TIP3    H242597   0.172   1.512   2.535  1.3381 -2.4979 -0.0850
 6988TIP3   OH242598   1.494   3.146   1.556 -0.5466  0.1255  0.0179
 6988TIP3    H142599   1.400   3.131   1.551 -0.8527  1.6836  0.5737
 6988TIP3    H242600   1.503   3.229   1.603  1.0909  0.2508 -0.4500
 6989TIP3   OH242601   5.895   6.801   2.097  0.3107 -0.6772 -0.2576
 6989TIP3    H142602   5.931   6.718   2.128  0.1085 -0.4904  0.5072
 6989TIP3    H242603   5.863   6.844   2.177  0.4079  0.1288 -0.6460
 6990TIP3   OH242604   5.807   6.772   8.441 -0.0487 -0.2673  0.1119
 6990TIP3    H142605   5.771   6.696   8.395  0.3367 -0.2453 -0.2269
 6990TIP3    H242606   5.853   6.735   8.516  0.4318 -0.3927 -0.2434
 6991TIP3   OH242607   5.798   2.372   2.340 -0.1551  0.2427  0.2059
 6991TIP3    H142608   5.797   2.342   2.431  0.2052  1.4736  0.6295
 6991TIP3    H242609   5.727   2.435   2.335 -1.1597 -0.9145 -0.7796
 6992TIP3   OH242610   4.162   2.511   0.313  0.2143 -0.3744  0.5310
 6992TIP3    H142611   4.212   2.516   0.232  0.6355  1.0970  0.8531
 6992TIP3    H242612   4.213   2.452   0.369 -0.5517 -2.1302 -0.5588
 6993TIP3   OH242613   5.398   6.131   2.596 -0.2748 -0.0523 -0.3459
 6993TIP3    H142614   5.338   6.194   2.637  1.5204  0.4434  1.6835
 6993TIP3    H242615   5.407   6.162   2.505 -1.5627  0.9651 -0.1604
 6994TIP3   OH242616   1.029   0.685   1.877  0.0179  0.5376 -0.2992
 6994TIP3    H142617   0.934   0.690   1.870 -0.1335 -1.7206 -0.5277
 6994TIP3    H242618   1.058   0.641   1.797  1.1073  0.0946  0.3002
 6995TIP3   OH242619   1.820   1.575   1.711  0.3223  0.4850  0.4141
 6995TIP3    H142620   1.844   1.644   1.651  0.1992 -1.3954 -1.9426
 6995TIP3    H242621   1.875   1.501   1.686 -0.3702 -0.6502  2.0438
 6996TIP3   OH242622   2.270   3.814   8.612  1.0583 -0.5761  0.3762
 6996TIP3    H142623   2.355   3.776   8.592  1.0259 -1.4074  1.7127
 6996TIP3    H242624   2.207   3.755   8.571  1.0899  1.1406 -2.4327
 6997TIP3   OH242625   3.261   3.693   8.752 -0.0794  0.0516 -0.5928
 6997TIP3    H142626   3.290   3.616   8.704  1.7144  0.6894 -0.5749
 6997TIP3    H242627   3.221   3.658   8.832  2.8069 -0.8717  0.5637
 6998TIP3   OH242628   5.735   2.089   7.388 -0.4959 -0.9759 -0.2554
 6998TIP3    H142629   5.730   2.049   7.301  0.6267  0.1004 -0.8413
 6998TIP3    H242630   5.770   2.177   7.372  4.6545 -2.3364  1.6572
 6999TIP3   OH242631   1.975   2.795   1.389 -0.6592 -0.0545 -0.3726
 6999TIP3    H142632   1.885   2.816   1.414 -1.3055 -2.1435 -0.7046
 6999TIP3    H242633   2.012   2.754   1.466 -1.1197 -2.1976 -1.2170
 7000TIP3   OH242634   0.827   4.205   7.147  0.2342 -0.6434 -0.1493
 7000TIP3    H142635   0.762   4.150   7.104  0.0760 -0.8885  0.3916
 7000TIP3    H242636   0.818   4.184   7.240 -0.5441  1.0230  0.1927
 7001TIP3   OH242637   0.689   6.062   0.632  0.2247  0.0954 -0.0727
 7001TIP3    H142638   0.760   6.049   0.696 -0.3437 -0.3307  0.4935
 7001TIP3    H242639   0.725   6.122   0.568  1.0118  0.0947  0.3510
 7002TIP3   OH242640   0.916   5.257   1.925  0.0637 -0.9133  0.2284
 7002TIP3    H142641   0.943   5.294   1.841 -1.2217 -1.6630 -0.5527
 7002TIP3    H242642   0.860   5.325   1.963 -1.1647 -1.4257 -0.5746
 7003TIP3   OH242643   5.346   5.240   7.844 -0.4802  0.1844  0.0186
 7003TIP3    H142644   5.333   5.316   7.787 -2.8152 -0.9158 -1.0446
 7003TIP3    H242645   5.258   5.214   7.869  0.3749 -1.0759  1.9126
 7004TIP3   OH242646   4.527   0.067   0.738  0.0070 -0.0429  0.0496
 7004TIP3    H142647   4.464   0.122   0.784 -0.5831 -1.0956  0.5325
 7004TIP3    H242648   4.546  -0.005   0.798 -0.4419 -1.2192 -1.1422
 7005TIP3   OH242649   4.565   4.526   1.112  0.1443  0.6484 -0.1335
 7005TIP3    H142650   4.495   4.463   1.130 -0.8313  1.3996 -1.1864
 7005TIP3    H242651   4.643   4.485   1.150 -0.7025 -0.5651  0.3975
 7006TIP3   OH242652   0.767   6.561   7.945  0.0203 -0.2461  0.1303
 7006TIP3    H142653   0.789   6.583   8.036  0.9283 -2.0338  0.3734
 7006TIP3    H242654   0.760   6.466   7.944  1.3316 -0.3903 -1.9385
 7007TIP3   OH242655   1.390   1.768   1.443 -0.3694  0.2496  0.1469
 7007TIP3    H142656   1.421   1.827   1.374 -0.4443  0.2459  0.1103
 7007TIP3    H242657   1.295   1.778   1.442 -0.4074 -0.1039 -0.0692
 7008TIP3   OH242658   6.662   6.335   7.204  0.6366 -0.0520  0.2509
 7008TIP3    H142659   6.666   6.292   7.289  1.0181  0.9463  0.7591
 7008TIP3    H242660   6.727   6.405   7.210 -0.8402  1.4057 -0.0789
 7009TIP3   OH242661   1.373   5.935   7.619  0.3984  0.0858  0.1629
 7009TIP3    H142662   1.305   5.999   7.639 -0.3831 -0.1879 -1.4254
 7009TIP3    H242663   1.328   5.869   7.566  1.2664 -1.5730  1.3901
 7010TIP3   OH242664   4.539   0.787   1.855  0.1101  0.0591 -0.2010
 7010TIP3    H142665   4.493   0.863   1.890  1.8295  1.1298 -0.1617
 7010TIP3    H242666   4.586   0.751   1.929  2.4604  1.3659 -0.9542
 7011TIP3   OH242667   0.489   3.278   0.353  0.0528  0.0110 -0.4173
 7011TIP3    H142668   0.569   3.228   0.372 -0.2697  0.4285  2.5500
 7011TIP3    H242669   0.444   3.227   0.286  2.2221 -0.8572 -1.3059
 7012TIP3   OH242670   3.695   3.045   7.673  0.4246 -0.4026 -0.1725
 7012TIP3    H142671   3.707   3.006   7.586 -1.0173  0.1812 -0.6620
 7012TIP3    H242672   3.616   3.097   7.665  1.8397  2.0413  0.6608
 7013TIP3   OH242673   2.426   1.426   1.500  0.3051 -0.1576 -1.1498
 7013TIP3    H142674   2.462   1.499   1.550  1.9326 -0.8761 -1.2292
 7013TIP3    H242675   2.407   1.463   1.414  1.4176  0.1083 -1.2901
 7014TIP3   OH242676   1.004   4.732   1.735  0.3255 -0.0071 -0.1562
 7014TIP3    H142677   1.011   4.827   1.729  0.5713  0.0955  1.3378
 7014TIP3    H242678   1.079   4.699   1.687  0.2997  0.5590 -0.5926
 7015TIP3   OH242679   2.759   1.887   1.720  0.5794  0.4038 -0.4369
 7015TIP3    H142680   2.686   1.949   1.716  0.9645  1.1922  2.5020
 7015TIP3    H242681   2.720   1.805   1.751  0.5448 -0.0475 -1.5972
 7016TIP3   OH242682   3.692   5.483   0.540  0.2896 -0.0928  0.1742
 7016TIP3    H142683   3.645   5.459   0.460  0.1517 -0.3091  0.3185
 7016TIP3    H242684   3.739   5.563   0.517 -0.0426  0.0517 -0.0132
 7017TIP3   OH242685   5.956   4.842   7.980  0.0187  0.5388 -0.5711
 7017TIP3    H142686   6.015   4.770   8.004 -1.1338 -0.5520 -0.9168
 7017TIP3    H242687   5.944   4.832   7.886 -1.8339 -0.1554 -0.3014
 7018TIP3   OH242688   6.434   4.929   1.655 -0.6217  0.9190  0.1097
 7018TIP3    H142689   6.373   4.977   1.598  0.3301  0.8357 -1.0136
 7018TIP3    H242690   6.379   4.896   1.726 -1.7385  1.5529 -0.4301
 7019TIP3   OH242691   1.089   3.681   7.665  0.0552  0.4575 -0.4082
 7019TIP3    H142692   1.092   3.663   7.571 -1.3609  1.3298 -0.6539
 7019TIP3    H242693   1.028   3.616   7.699  1.0453 -0.2623  0.0318
 7020TIP3   OH242694   2.819   5.932   8.133 -0.3656 -0.0721 -0.1478
 7020TIP3    H142695   2.830   5.886   8.049 -1.8335 -1.9954  0.6353
 7020TIP3    H242696   2.905   5.926   8.174  0.5818  1.5171 -1.7559
 7021TIP3   OH242697   4.554   1.866   2.262  0.2729 -0.1394  0.2963
 7021TIP3    H142698   4.647   1.861   2.283  0.6429  1.5583 -0.6412
 7021TIP3    H242699   4.551   1.856   2.166 -0.4327  0.2897  0.2626
 7022TIP3   OH242700   2.529   2.474   1.310  0.0511 -0.4156  0.2496
 7022TIP3    H142701   2.489   2.557   1.284 -1.1375 -0.5728  1.4544
 7022TIP3    H242702   2.622   2.485   1.292  0.4107  2.2866  2.9417
 7023TIP3   OH242703   6.822   0.638   1.880  0.4393 -0.2841  0.0328
 7023TIP3    H142704   6.843   0.565   1.822  1.1570 -0.4096  0.4382
 7023TIP3    H242705   6.804   0.712   1.821 -0.6338 -0.8632 -0.3888
 7024TIP3   OH242706   4.176   6.428   1.786 -0.2705  0.3800  0.2182
 7024TIP3    H142707   4.207   6.498   1.844 -0.2546  0.5425  0.0145
 7024TIP3    H242708   4.146   6.359   1.845 -1.1960  0.9475  0.4333
 7025TIP3   OH242709   6.154   0.844   2.588 -0.2786 -0.3060 -0.4690
 7025TIP3    H142710   6.102   0.894   2.651  2.3167 -0.7526  2.2543
 7025TIP3    H242711   6.208   0.910   2.544  1.0884 -0.3414  1.0671
 7026TIP3   OH242712   1.953   2.861   7.642  0.0524 -0.3679 -0.1660
 7026TIP3    H142713   1.980   2.930   7.581  0.2175  0.1881  0.5253
 7026TIP3    H242714   1.859   2.875   7.654 -0.1960 -1.1328 -1.0996
 7027TIP3   OH242715   3.830   0.625   1.289  0.1785 -0.1533 -0.1846
 7027TIP3    H142716   3.862   0.690   1.352 -0.4343  0.5690 -0.6025
 7027TIP3    H242717   3.834   0.670   1.204 -0.1341 -0.7070 -0.4925
 7028TIP3   OH242718   6.541   0.910   1.652 -0.3306  0.0110  0.1639
 7028TIP3    H142719   6.609   0.844   1.666  0.0850  0.2113 -0.8304
 7028TIP3    H242720   6.489   0.908   1.733  0.2092 -0.8953  0.5098
 7029TIP3   OH242721   0.603   3.369   2.658  0.2503 -0.6342  0.3666
 7029TIP3    H142722   0.655   3.449   2.653 -1.6675  0.6027 -0.8175
 7029TIP3    H242723   0.661   3.305   2.700  3.3997  0.0819 -2.4851
 7030TIP3   OH242724   2.706   1.912   1.145 -0.2383 -0.2231 -0.7144
 7030TIP3    H142725   2.731   1.900   1.237  0.9718 -0.0408 -1.0008
 7030TIP3    H242726   2.647   1.839   1.127  1.1846 -1.5102 -0.3778
 7031TIP3   OH242727   4.962   2.553   0.953  0.1021  0.2393  0.0923
 7031TIP3    H142728   4.879   2.538   1.000 -0.7055  1.7035 -0.8063
 7031TIP3    H242729   4.985   2.467   0.918 -0.6430 -0.3380  0.9590
 7032TIP3   OH242730   5.911   3.368   0.301  0.0551 -0.1060 -0.8581
 7032TIP3    H142731   5.891   3.308   0.229 -1.5551  0.6999 -1.1311
 7032TIP3    H242732   5.909   3.455   0.261  0.9864  0.2339 -0.1963
 7033TIP3   OH242733   6.025   4.591   0.405  0.4978  0.5374 -0.7024
 7033TIP3    H142734   6.047   4.608   0.497 -0.3011 -0.3718 -0.3246
 7033TIP3    H242735   5.963   4.660   0.382 -0.1921  0.1036 -0.1888
 7034TIP3   OH242736   5.728   3.291   2.253  0.5662 -0.3959  0.4031
 7034TIP3    H142737   5.732   3.343   2.172  0.4477 -1.3670 -0.2349
 7034TIP3    H242738   5.819   3.266   2.269  0.2804 -2.6423 -1.0679
 7035TIP3   OH242739   3.371   5.315   6.579  0.1877 -0.2520  0.6994
 7035TIP3    H142740   3.439   5.249   6.563 -0.3438 -0.3782 -1.4348
 7035TIP3    H242741   3.418   5.388   6.620  0.9078 -1.6527  2.4997
 7036TIP3   OH242742   0.921   4.341   0.359 -0.2191  0.2925 -0.1244
 7036TIP3    H142743   0.921   4.341   0.455  0.4538  1.5796 -0.0981
 7036TIP3    H242744   0.872   4.263   0.335  1.5740 -1.3701  1.2740
 7037TIP3   OH242745   2.624   5.011   7.745 -0.6011 -0.2881 -0.1242
 7037TIP3    H142746   2.711   4.973   7.750 -0.8372 -1.0005 -1.1325
 7037TIP3    H242747   2.573   4.947   7.695 -1.5972  0.3020  0.1130
 7038TIP3   OH242748   2.647   0.158   7.175  0.0367  0.3776  0.0700
 7038TIP3    H142749   2.593   0.185   7.101  0.8033  0.1368 -0.5982
 7038TIP3    H242750   2.670   0.067   7.155  1.4970  0.7797 -0.1756
 7039TIP3   OH242751   1.370   6.146   6.898 -0.0383 -0.3745 -0.7805
 7039TIP3    H142752   1.436   6.166   6.963 -1.1136  0.5720  0.0688
 7039TIP3    H242753   1.407   6.074   6.847  0.8068 -1.1822  0.9089
 7040TIP3   OH242754   1.916   4.982   7.987 -0.0118 -0.1926 -0.1614
 7040TIP3    H142755   1.931   5.022   8.073 -0.6300 -0.2989 -0.0034
 7040TIP3    H242756   1.912   4.888   8.005  0.4311 -0.2602 -0.3928
 7041TIP3   OH242757   2.945   2.741   0.180  0.2013 -0.3258 -0.0498
 7041TIP3    H142758   2.918   2.656   0.144 -1.0447 -0.4066  1.0087
 7041TIP3    H242759   2.986   2.786   0.106 -0.3792 -1.3099 -1.0077
 7042TIP3   OH242760   2.272   0.455   8.745 -0.0695  0.0728 -0.3033
 7042TIP3    H142761   2.225   0.453   8.661  0.3337  0.9537 -0.5684
 7042TIP3    H242762   2.212   0.499   8.805 -0.7004 -1.3012  0.1136
 7043TIP3   OH242763   0.703   0.847   8.290  0.2780  0.3699 -0.5322
 7043TIP3    H142764   0.771   0.823   8.227 -0.2738  0.0805 -1.0241
 7043TIP3    H242765   0.744   0.912   8.346  0.8337  0.4965 -1.0792
 7044TIP3   OH242766   3.871   2.154   0.251 -0.5052 -0.1106 -0.7495
 7044TIP3    H142767   3.885   2.222   0.185 -1.9761  0.7047 -0.2684
 7044TIP3    H242768   3.820   2.087   0.205  3.3936 -2.4789 -2.1319
 7045TIP3   OH242769   0.513   1.051   0.954  0.1956  0.1460 -0.1208
 7045TIP3    H142770   0.493   1.045   1.047  1.1853 -1.3398  0.0308
 7045TIP3    H242771   0.554   0.967   0.933 -0.8053  0.0939 -2.0926
 7046TIP3   OH242772   6.617   2.584   0.517  0.3419 -0.0027 -0.1772
 7046TIP3    H142773   6.615   2.523   0.444 -2.0894  0.1381 -0.3047
 7046TIP3    H242774   6.662   2.537   0.587 -0.4766 -1.4974 -0.6293
 7047TIP3   OH242775   3.118   0.884   8.338 -0.3255 -0.0727  0.2105
 7047TIP3    H142776   3.171   0.843   8.270 -1.7673  0.3061 -1.1934
 7047TIP3    H242777   3.172   0.879   8.417  1.3868 -0.5473 -0.9411
 7048TIP3   OH242778   6.581   5.692   2.201 -0.1298  0.6709 -0.3476
 7048TIP3    H142779   6.597   5.685   2.106 -1.4552  0.4970 -0.5774
 7048TIP3    H242780   6.522   5.766   2.209 -0.0844  0.6346  0.3487
 7049TIP3   OH242781   4.777   1.903   0.091  0.9118  0.6440 -0.5406
 7049TIP3    H142782   4.708   1.888   0.026 -1.1347  1.9768  1.1574
 7049TIP3    H242783   4.747   1.857   0.169  4.1696 -2.4107 -0.8655
 7050TIP3   OH242784   3.720   3.256   0.670 -0.1720  0.4062  0.4900
 7050TIP3    H142785   3.644   3.301   0.708  1.0974  1.9387  1.3564
 7050TIP3    H242786   3.725   3.174   0.718 -1.4833  0.1009  0.1505
 7051TIP3   OH242787   1.095   2.511   8.299  0.1285 -0.6946 -0.0217
 7051TIP3    H142788   1.036   2.584   8.279  1.1206  0.0059 -0.4700
 7051TIP3    H242789   1.078   2.447   8.230  0.7630  0.0486 -0.8951
 7052TIP3   OH242790   0.347   5.614   0.615 -0.3056 -0.5292 -0.1325
 7052TIP3    H142791   0.345   5.573   0.701 -0.6428  0.2597  0.2461
 7052TIP3    H242792   0.255   5.632   0.594 -0.1238  0.6709  0.0333
 7053TIP3   OH242793   2.256   5.032   7.603  0.1160  0.1134 -0.1215
 7053TIP3    H142794   2.210   4.970   7.660 -3.5557  1.6504 -1.1327
 7053TIP3    H242795   2.261   5.112   7.655  1.6313  0.0419 -0.1121
 7054TIP3   OH242796   6.045   0.939   0.415 -0.2996  0.0020  0.0450
 7054TIP3    H142797   5.963   0.903   0.380 -1.1310  1.1104  0.8109
 7054TIP3    H242798   6.025   0.959   0.507  1.1214 -0.6007  0.5088
 7055TIP3   OH242799   0.531   5.787   0.381  0.0360 -0.3087 -0.2544
 7055TIP3    H142800   0.584   5.809   0.304 -0.4828 -0.9295 -0.7987
 7055TIP3    H242801   0.451   5.837   0.370 -0.3824 -1.0189 -0.5565
 7056TIP3   OH242802   5.257   3.545   7.467 -0.1667  0.0017 -0.0632
 7056TIP3    H142803   5.164   3.568   7.470 -0.2043  0.5841 -2.7629
 7056TIP3    H242804   5.299   3.621   7.427  1.2559 -0.7983 -0.1504
 7057TIP3   OH242805   5.473   4.431   8.253  0.2158 -0.8448 -0.3495
 7057TIP3    H142806   5.446   4.367   8.319 -0.2400 -1.8841 -1.5202
 7057TIP3    H242807   5.407   4.424   8.185 -0.7733  2.0339  0.1826
 7058TIP3   OH242808   2.408   6.291   7.124  0.0161 -0.0039  0.6375
 7058TIP3    H142809   2.455   6.322   7.201 -0.3998  0.9547  0.5196
 7058TIP3    H242810   2.471   6.295   7.052  0.9196 -2.4591  1.1808
 7059TIP3   OH242811   3.892   5.271   2.537 -0.5883 -0.2836  0.3001
 7059TIP3    H142812   3.876   5.365   2.526 -0.8263 -0.5389 -2.1776
 7059TIP3    H242813   3.835   5.245   2.609 -0.6550  1.4233  0.9072
 7060TIP3   OH242814   6.156   5.726   8.287 -0.3574  0.4525  0.1103
 7060TIP3    H142815   6.107   5.799   8.326 -0.2080  0.0972  0.9828
 7060TIP3    H242816   6.245   5.761   8.275 -0.5437  0.7442 -0.4519
 7061TIP3   OH242817   4.908   4.578   7.195 -1.1318 -0.8367  0.3348
 7061TIP3    H142818   4.948   4.558   7.110 -1.0823  0.3111  0.0679
 7061TIP3    H242819   4.896   4.673   7.194 -2.0458 -0.9262  1.2190
 7062TIP3   OH242820   6.509   5.524   8.468 -0.3738 -0.3456  0.3813
 7062TIP3    H142821   6.597   5.559   8.476 -0.2373 -0.6031  0.0138
 7062TIP3    H242822   6.509   5.446   8.524 -0.6743  0.2202  1.1887
 7063TIP3   OH242823   5.996   2.248   7.385 -0.9116 -0.1794  0.4212
 7063TIP3    H142824   6.059   2.306   7.342 -0.7833 -0.7982 -0.2432
 7063TIP3    H242825   6.044   2.211   7.460 -1.0045  0.5805  0.8667
 7064TIP3   OH242826   6.108   5.972   7.137  0.2096  0.2004 -0.5458
 7064TIP3    H142827   6.017   5.957   7.161 -0.8673  2.6877 -2.5408
 7064TIP3    H242828   6.121   5.922   7.056  1.1196 -1.2567  0.4486
 7065TIP3   OH242829   2.111   0.613   8.902  0.4467  0.2216 -0.7750
 7065TIP3    H142830   2.016   0.622   8.904  0.3947  0.0179 -1.7051
 7065TIP3    H242831   2.135   0.584   8.990 -0.3063  0.6701 -0.4122
 7066TIP3   OH242832   0.771   4.041   8.823 -0.3485  0.2261 -0.1764
 7066TIP3    H142833   0.788   4.082   8.737  1.5042  1.4850  0.7127
 7066TIP3    H242834   0.746   3.951   8.802 -0.2282  0.5819 -2.0568
 7067TIP3   OH242835   0.537   2.803   1.707  0.1110  0.1494 -0.4594
 7067TIP3    H142836   0.599   2.874   1.722  1.2745 -0.4965 -1.8773
 7067TIP3    H242837   0.581   2.726   1.743 -0.3038 -0.1576 -0.6013
 7068TIP3   OH242838   6.437   0.733   2.613  0.5008 -0.1810  0.1916
 7068TIP3    H142839   6.465   0.802   2.674 -0.1260 -0.2279  0.5473
 7068TIP3    H242840   6.343   0.727   2.627 -0.3641  2.2541 -3.2839
 7069TIP3   OH242841   0.046   3.856   1.216 -0.2436 -0.0677 -0.5101
 7069TIP3    H142842   0.014   3.815   1.136  2.5031 -1.5771 -0.9793
 7069TIP3    H242843   0.105   3.791   1.255  1.4332  2.0097  0.7281
 7070TIP3   OH242844   6.345   2.233   0.012  0.0637 -0.5425 -0.1877
 7070TIP3    H142845   6.402   2.306  -0.011  2.7020 -1.4573  2.7264
 7070TIP3    H242846   6.276   2.272   0.065  0.5036  0.0773 -0.0638
 7071TIP3   OH242847   1.069   3.611   8.068 -0.1330 -0.1129  0.0319
 7071TIP3    H142848   0.976   3.607   8.087 -0.4330  1.4943 -0.9947
 7071TIP3    H242849   1.082   3.546   7.998 -0.3843 -0.6719  0.4998
 7072TIP3   OH242850   3.377   3.045   8.696 -0.2922 -0.1467  0.1866
 7072TIP3    H142851   3.359   3.062   8.789 -1.7031  0.3736 -0.1658
 7072TIP3    H242852   3.371   2.950   8.688  1.1778 -0.3369  0.8664
 7073TIP3   OH242853   0.697   6.230   2.223 -0.1085 -0.3516  0.2235
 7073TIP3    H142854   0.690   6.167   2.295  0.2023 -1.5838 -0.7839
 7073TIP3    H242855   0.606   6.246   2.197 -0.2645  0.5930  1.2674
 7074TIP3   OH242856   4.446   3.574   7.318 -0.2394  0.1547 -0.4772
 7074TIP3    H142857   4.366   3.554   7.366  0.0051  1.0452  0.3354
 7074TIP3    H242858   4.513   3.519   7.358 -0.2709  0.0448 -0.5758
 7075TIP3   OH242859   3.372   5.119   8.610 -0.7198 -0.5713  0.2704
 7075TIP3    H142860   3.351   5.110   8.703  0.3351 -0.2947  0.5480
 7075TIP3    H242861   3.337   5.205   8.585  2.1554  1.0361  1.3611
 7076TIP3   OH242862   1.270   1.696   1.734  0.6579  0.4293 -0.5511
 7076TIP3    H142863   1.297   1.761   1.799 -0.6403  0.8830 -0.4370
 7076TIP3    H242864   1.315   1.723   1.653  0.2377  1.3992 -0.4722
 7077TIP3   OH242865   2.760   0.703   2.539  0.1907 -0.9588  0.5523
 7077TIP3    H142866   2.782   0.624   2.588  1.0322 -1.7141 -0.9574
 7077TIP3    H242867   2.838   0.758   2.545  0.6797 -1.4719 -0.6668
 7078TIP3   OH242868   0.249   1.698   1.159  0.6825 -0.3492 -0.8355
 7078TIP3    H142869   0.283   1.774   1.112 -4.4659  1.4004 -2.4328
 7078TIP3    H242870   0.178   1.732   1.213 -1.6262 -3.8613 -1.2648
 7079TIP3   OH242871   0.229   4.346   6.877 -0.2615 -0.5510  0.0699
 7079TIP3    H142872   0.275   4.266   6.849 -1.2598 -0.9982 -0.3462
 7079TIP3    H242873   0.136   4.324   6.869 -0.5838 -0.0044  1.8054
 7080TIP3   OH242874   0.544   2.951   0.284 -0.3884  0.0818 -0.2218
 7080TIP3    H142875   0.485   2.881   0.257 -0.4173  0.0309 -0.0274
 7080TIP3    H242876   0.585   2.981   0.202 -2.1643  1.4787 -0.6580
 7081TIP3   OH242877   1.686   4.709   7.575 -0.3479 -0.6783  0.0325
 7081TIP3    H142878   1.610   4.657   7.551  0.1960 -0.5474 -2.1425
 7081TIP3    H242879   1.761   4.658   7.544  0.5985 -1.1938  2.8159
 7082TIP3   OH242880   6.129   3.599   0.806 -0.1547 -0.1210 -0.0985
 7082TIP3    H142881   6.155   3.631   0.893  0.6902 -0.2643 -0.2835
 7082TIP3    H242882   6.150   3.505   0.809 -0.8343 -0.2798 -0.2030
 7083TIP3   OH242883   2.157   5.941   1.699 -0.1433 -0.0824  0.2167
 7083TIP3    H142884   2.221   5.983   1.758  1.3337 -2.8232  0.7256
 7083TIP3    H242885   2.122   6.014   1.647  3.9165  1.5953 -0.6129
 7084TIP3   OH242886   0.098   0.711   0.074  0.3084  0.1531  0.2719
 7084TIP3    H142887   0.067   0.674  -0.008  0.8350  1.1374 -0.3938
 7084TIP3    H242888   0.039   0.784   0.092  0.4243  0.1767  0.5720
 7085TIP3   OH242889   1.763   2.453   8.820 -0.1382  0.2557  0.0380
 7085TIP3    H142890   1.781   2.458   8.914  0.0399  2.0795 -0.0703
 7085TIP3    H242891   1.669   2.441   8.814 -0.1197 -0.1188  0.4470
 7086TIP3   OH242892   4.627   2.633   0.457 -0.2205  0.3603  0.2074
 7086TIP3    H142893   4.625   2.709   0.515 -0.0037  0.2273  0.3906
 7086TIP3    H242894   4.689   2.573   0.498  0.0367  0.3191 -0.2363
 7087TIP3   OH242895   0.467   4.872   0.102  0.2573 -0.4787 -0.4270
 7087TIP3    H142896   0.434   4.815   0.171 -1.3236  1.8243  0.8371
 7087TIP3    H242897   0.562   4.875   0.116  0.0543 -0.7065  1.1210
 7088TIP3   OH242898   3.349   2.408   7.495 -0.3886 -0.1939  0.5945
 7088TIP3    H142899   3.375   2.500   7.496  0.0939 -0.2920 -0.4956
 7088TIP3    H242900   3.382   2.375   7.411 -0.3282 -1.4242  1.0708
 7089TIP3   OH242901   4.197   1.656   7.019  0.4524  0.2937  0.1993
 7089TIP3    H142902   4.155   1.576   6.987 -0.4159  1.5155 -1.8555
 7089TIP3    H242903   4.289   1.647   6.994  0.5988 -0.4913  0.9426
 7090TIP3   OH242904   4.038   1.600   7.302  0.8292 -0.1995  0.2064
 7090TIP3    H142905   4.068   1.615   7.212 -1.0123 -0.7414 -0.5346
 7090TIP3    H242906   4.039   1.505   7.313  2.5208 -0.1015  1.3349
 7091TIP3   OH242907   4.405   5.513   1.682 -0.4002 -0.2246  0.5200
 7091TIP3    H142908   4.313   5.518   1.711 -0.2728  2.5748  0.7286
 7091TIP3    H242909   4.455   5.524   1.763  0.0100  2.1349  0.0222
 7092TIP3   OH242910   0.487   4.429   6.620 -0.6984  0.4503  0.0972
 7092TIP3    H142911   0.395   4.420   6.592 -0.1785  0.8431 -1.9286
 7092TIP3    H242912   0.502   4.523   6.623  0.4345  0.4624 -2.7405
 7093TIP3   OH242913   4.951   1.239   2.390  0.7328 -0.0153  0.8598
 7093TIP3    H142914   4.937   1.152   2.428 -2.7528  0.2542  0.4395
 7093TIP3    H242915   4.948   1.299   2.465 -3.1230  0.2207  0.6840
 7094TIP3   OH242916   3.624   3.061   8.306 -0.3690  0.0825 -0.5177
 7094TIP3    H142917   3.585   3.079   8.391 -0.1801 -0.4881 -0.3058
 7094TIP3    H242918   3.717   3.050   8.324 -0.2287  0.6038 -0.8961
 7095TIP3   OH242919   3.725   2.985   0.747 -0.1413 -0.4612  0.1736
 7095TIP3    H142920   3.764   2.928   0.681 -0.2242  1.8651 -2.0391
 7095TIP3    H242921   3.632   2.961   0.746 -0.1288 -0.5108 -0.5191
 7096TIP3   OH242922   0.952   2.517   1.256  0.5705  0.0918 -0.5849
 7096TIP3    H142923   0.894   2.451   1.294 -0.3242  1.1340 -0.0854
 7096TIP3    H242924   1.033   2.469   1.237 -0.3730 -1.3536 -1.1329
 7097TIP3   OH242925   6.390   5.921   1.162 -0.5276 -0.1900  0.1430
 7097TIP3    H142926   6.396   5.971   1.244 -2.2892 -1.2066  0.9661
 7097TIP3    H242927   6.355   5.983   1.098 -0.7829  0.1723  0.6263
 7098TIP3   OH242928   5.156   5.402   1.508  0.5142  0.1548 -0.4066
 7098TIP3    H142929   5.174   5.458   1.433 -0.7419  1.0161 -0.1066
 7098TIP3    H242930   5.114   5.325   1.471 -2.3010  1.5844 -0.4993
 7099TIP3   OH242931   3.061   3.691   6.943 -0.2439  0.2204 -0.2402
 7099TIP3    H142932   3.135   3.684   7.004 -0.1941 -0.4104 -0.3618
 7099TIP3    H242933   2.985   3.670   6.997  0.0267 -2.9904 -0.8890
 7100TIP3   OH242934   0.226   0.357   8.147  0.0738 -0.1829  0.3117
 7100TIP3    H142935   0.221   0.400   8.232 -1.2939 -0.2641  0.2884
 7100TIP3    H242936   0.140   0.317   8.134  0.8053 -1.6465 -0.3461
 7101TIP3   OH242937   4.641   5.359   1.503  1.0618 -0.0863 -0.3575
 7101TIP3    H142938   4.650   5.416   1.579  0.7428  0.1291 -0.4780
 7101TIP3    H242939   4.562   5.308   1.521  0.2505  0.8618 -1.1109
 7102TIP3   OH242940   4.415   5.308   7.378  0.2988 -0.7099  0.7552
 7102TIP3    H142941   4.475   5.271   7.313 -0.6972 -2.6905  0.8875
 7102TIP3    H242942   4.416   5.245   7.450 -0.4285  0.2429  1.6271
 7103TIP3   OH242943   1.227   3.130   0.220  0.6430 -0.0140 -0.1585
 7103TIP3    H142944   1.287   3.078   0.273  0.5114 -0.2336 -0.2211
 7103TIP3    H242945   1.279   3.203   0.189  0.7614  0.0332  0.1466
 7104TIP3   OH242946   4.293   0.608   8.855 -0.1214  0.2187  0.0130
 7104TIP3    H142947   4.208   0.576   8.826  0.3389 -0.1993 -0.9623
 7104TIP3    H242948   4.318   0.548   8.926 -1.6832  1.8257  2.0249
 7105TIP3   OH242949   5.283   3.340   2.603  0.6319 -0.2520 -0.4637
 7105TIP3    H142950   5.192   3.312   2.610  0.3243 -0.1703 -3.1320
 7105TIP3    H242951   5.301   3.342   2.509  3.4114 -0.2761 -0.0330
 7106TIP3   OH242952   2.457   3.261   1.244  0.6124  0.0447 -0.2122
 7106TIP3    H142953   2.457   3.294   1.155  0.9392 -0.1173 -0.2758
 7106TIP3    H242954   2.447   3.338   1.299  0.8493  0.1945 -0.3765
 7107TIP3   OH242955   1.252   1.322   0.666 -0.2606  0.3413  0.1717
 7107TIP3    H142956   1.165   1.291   0.643 -0.2177  0.4290 -0.1122
 7107TIP3    H242957   1.309   1.289   0.596  0.0560 -0.3142  0.7208
 7108TIP3   OH242958   3.083   3.920   7.481  0.9963 -0.6738 -0.0269
 7108TIP3    H142959   3.105   3.864   7.406  0.8274 -0.1233 -0.4982
 7108TIP3    H242960   3.158   3.980   7.488  0.0439  0.6961 -1.1433
 7109TIP3   OH242961   6.325   6.743   7.227 -0.6283 -0.1652  0.3969
 7109TIP3    H142962   6.398   6.757   7.287  0.7260 -0.5724 -1.0828
 7109TIP3    H242963   6.351   6.668   7.173 -3.1216 -1.7689  1.2329
 7110TIP3   OH242964   4.612   0.222   0.525 -0.1205  0.2844  0.0048
 7110TIP3    H142965   4.642   0.307   0.557 -1.8176  0.2042  2.0441
 7110TIP3    H242966   4.579   0.177   0.604  0.6728 -2.2596 -1.0074
 7111TIP3   OH242967   4.924   5.776   8.573  0.1293  0.1152  0.5094
 7111TIP3    H142968   4.931   5.741   8.662 -3.4506  1.1508  1.3692
 7111TIP3    H242969   4.991   5.845   8.569  0.1810  0.2336  2.4998
 7112TIP3   OH242970   1.354   1.277   7.215  0.0861  0.6507  0.1733
 7112TIP3    H142971   1.448   1.294   7.215  0.0275  1.0937 -1.4591
 7112TIP3    H242972   1.318   1.343   7.156 -1.0873 -0.3169 -0.2258
 7113TIP3   OH242973   3.120   4.029   1.380 -0.7687  0.2050  0.0707
 7113TIP3    H142974   3.200   4.051   1.428 -1.7661  1.5965  1.2206
 7113TIP3    H242975   3.106   3.936   1.398  0.5915 -0.0684 -0.1800
 7114TIP3   OH242976   6.706   2.573   2.782 -0.4917 -0.2271 -0.3100
 7114TIP3    H142977   6.661   2.505   2.833 -1.1480 -0.3894 -1.0890
 7114TIP3    H242978   6.660   2.574   2.698 -0.2920  0.9760 -0.4161
 7115TIP3   OH242979   6.322   2.097   7.411  0.0382  0.4410  0.1960
 7115TIP3    H142980   6.413   2.071   7.395 -0.0339  0.0283  0.4403
 7115TIP3    H242981   6.296   2.144   7.332 -0.1461 -1.0960 -0.7065
 7116TIP3   OH242982   2.729   0.320   7.391  0.0710  0.1677  0.1938
 7116TIP3    H142983   2.773   0.244   7.429 -1.6707 -1.9625 -1.7122
 7116TIP3    H242984   2.698   0.289   7.306 -3.1797  2.1238  0.4971
 7117TIP3   OH242985   0.945   3.965   7.925  0.2219  0.1463  0.3281
 7117TIP3    H142986   0.974   4.044   7.970 -2.8854  2.2258 -0.9173
 7117TIP3    H242987   0.890   3.919   7.989 -0.2149  0.4978  0.2109
 7118TIP3   OH242988   2.853   5.748   7.393 -0.2013 -0.6663  0.2039
 7118TIP3    H142989   2.875   5.829   7.439 -0.8794 -0.3206 -0.0610
 7118TIP3    H242990   2.935   5.699   7.389  0.4115  0.3779 -0.3534
 7119TIP3   OH242991   1.383   5.328   1.154 -0.0527 -0.5316 -0.6162
 7119TIP3    H142992   1.373   5.351   1.247 -0.2946  0.6110 -0.9034
 7119TIP3    H242993   1.345   5.240   1.147  0.6978 -0.9696  0.5053
 7120TIP3   OH242994   6.341   4.115   2.500  0.6974 -0.2173 -0.7546
 7120TIP3    H142995   6.283   4.045   2.530 -0.2049 -0.9459 -3.7752
 7120TIP3    H242996   6.304   4.195   2.536  0.7927 -1.0941  1.4279
 7121TIP3   OH242997   6.380   1.237   7.649  0.3982  0.7270  0.0676
 7121TIP3    H142998   6.333   1.282   7.719  0.5866 -0.4762  1.0060
 7121TIP3    H242999   6.458   1.201   7.692  0.4783 -0.0982 -0.7413
 7122TIP3   OH243000   3.215   2.337   8.081 -0.6297  0.4783 -0.2586
 7122TIP3    H143001   3.237   2.384   8.161  1.4384  0.0858 -0.5427
 7122TIP3    H243002   3.123   2.312   8.092 -0.0137 -0.8204  2.6388
 7123TIP3   OH243003   1.166   0.168   8.187  0.0969 -0.3671 -0.1109
 7123TIP3    H143004   1.091   0.226   8.171 -1.0486 -1.2275  1.7706
 7123TIP3    H243005   1.179   0.172   8.282  2.8008  0.1382 -0.4408
 7124TIP3   OH243006   6.685   1.336   0.138  0.1171  0.0793 -0.1897
 7124TIP3    H143007   6.651   1.247   0.131  1.7718 -0.4843 -1.8824
 7124TIP3    H243008   6.723   1.340   0.226 -0.8273 -0.5595  0.2528
 7125TIP3   OH243009   5.164   6.726   2.679 -0.0416  0.1920  0.5683
 7125TIP3    H143010   5.088   6.714   2.622 -1.0431  1.1374  1.6566
 7125TIP3    H243011   5.160   6.653   2.740  0.0147  0.1532  0.5253
 7126TIP3   OH243012   2.650   1.054   8.161  1.0682  0.1118  0.2984
 7126TIP3    H143013   2.727   1.030   8.213  0.9497 -1.8476 -0.3606
 7126TIP3    H243014   2.576   1.018   8.210  0.9654 -1.9254 -1.2060
 7127TIP3   OH243015   0.366   0.271   0.924 -0.3788 -0.7883  0.2408
 7127TIP3    H143016   0.309   0.264   0.847 -1.7266  0.4347  1.0774
 7127TIP3    H243017   0.416   0.351   0.908  0.9671 -1.7003 -0.3505
 7128TIP3   OH243018   2.828   5.121   6.630 -0.6082  0.5890  0.2195
 7128TIP3    H143019   2.843   5.128   6.536  1.9549  0.4886  0.5468
 7128TIP3    H243020   2.862   5.034   6.653 -0.1175  1.0679  1.3893
 7129TIP3   OH243021   2.423   4.280   6.846  0.1484 -0.1623 -0.5742
 7129TIP3    H143022   2.413   4.364   6.802 -0.7683 -1.0645 -2.1581
 7129TIP3    H243023   2.334   4.255   6.870  0.5734  0.1395  1.6033
 7130TIP3   OH243024   5.691   0.313   2.168  0.0686 -0.2992 -0.3504
 7130TIP3    H143025   5.653   0.268   2.092  0.6803  0.4864 -1.1440
 7130TIP3    H243026   5.617   0.328   2.226 -1.1433  2.2539 -2.3672
 7131TIP3   OH243027   4.275   2.699   0.670 -0.0138  0.5347  0.7123
 7131TIP3    H143028   4.219   2.726   0.742  0.6306 -0.6013  1.6800
 7131TIP3    H243029   4.227   2.627   0.628 -0.7042  1.6266 -0.4706
 7132TIP3   OH243030   4.039   6.469   1.267 -0.1568  0.6624 -0.0637
 7132TIP3    H143031   4.003   6.467   1.356 -1.3106  0.0229 -0.5224
 7132TIP3    H243032   4.111   6.406   1.269 -1.9460 -1.5007 -0.2618
 7133TIP3   OH243033   0.159   0.974   1.861 -0.4253  0.0729  0.2813
 7133TIP3    H143034   0.247   1.011   1.855  0.1009 -1.3255 -2.1854
 7133TIP3    H243035   0.172   0.885   1.891 -0.8368 -0.4683 -1.0441
 7134TIP3   OH243036   0.751   2.390   0.522  0.8869 -0.1904 -0.3528
 7134TIP3    H143037   0.781   2.403   0.431  1.3883 -0.6291 -0.2551
 7134TIP3    H243038   0.826   2.417   0.575  0.7371 -0.3123 -0.0808
 7135TIP3   OH243039   1.057   5.213   1.109 -0.7901  0.3942 -0.4861
 7135TIP3    H143040   1.138   5.164   1.111 -1.1866 -0.2659  0.7829
 7135TIP3    H243041   1.053   5.251   1.021  1.7523  1.9431 -0.0442
 7136TIP3   OH243042   2.735   5.659   0.817  0.1404  0.0048 -0.2821
 7136TIP3    H143043   2.783   5.726   0.865  1.0680  0.0008 -1.1792
 7136TIP3    H243044   2.643   5.681   0.831  0.4224  1.0996 -0.0482
 7137TIP3   OH243045   1.146   3.947   7.738 -0.1456  0.3313 -0.3992
 7137TIP3    H143046   1.150   3.853   7.721  2.0305  0.0377  1.2800
 7137TIP3    H243047   1.068   3.959   7.791  0.6624 -0.9083  1.1309
 7138TIP3   OH243048   2.630   0.896   2.070  0.0844 -0.1473  0.0424
 7138TIP3    H143049   2.627   0.985   2.035 -0.2736  0.7250  2.1101
 7138TIP3    H243050   2.586   0.902   2.155  0.0040 -2.3244  0.2178
 7139TIP3   OH243051   4.148   4.047   2.016 -0.1994 -0.6076  0.0506
 7139TIP3    H143052   4.207   4.121   2.004  3.0583 -3.0434 -0.3709
 7139TIP3    H243053   4.155   3.998   1.934  0.1666 -2.8801  1.3611
 7140TIP3   OH243054   1.130   5.073   8.396 -0.3500  0.0021 -0.3107
 7140TIP3    H143055   1.166   5.158   8.373 -1.0645 -0.2500 -2.6403
 7140TIP3    H243056   1.105   5.081   8.488 -0.8848  2.4800 -0.6154
 7141TIP3   OH243057   1.867   6.550   7.013  0.1651  0.5044 -0.1095
 7141TIP3    H143058   1.909   6.636   7.014 -0.3192  0.8887 -3.1398
 7141TIP3    H243059   1.776   6.568   6.987 -0.5480 -0.7660  1.3646
 7142TIP3   OH243060   2.746   1.637   2.864 -0.4970  0.1179 -0.0699
 7142TIP3    H143061   2.730   1.668   2.775  1.6962 -0.5819 -0.7646
 7142TIP3    H243062   2.703   1.551   2.867 -2.3081  0.9798  0.2628
 7143TIP3   OH243063   3.364   0.585   8.511 -0.1164 -0.1918  0.1836
 7143TIP3    H143064   3.415   0.586   8.429  1.5973 -1.5495  1.1515
 7143TIP3    H243065   3.328   0.674   8.518  2.7734  1.1474 -0.2395
 7144TIP3   OH243066   2.787   6.784   2.671  0.1099  0.3723 -0.0458
 7144TIP3    H143067   2.801   6.786   2.766 -0.1176 -1.6986  0.0920
 7144TIP3    H243068   2.872   6.760   2.634 -0.2826 -0.9204 -0.1586
 7145TIP3   OH243069   2.784   0.241   8.537 -0.6083 -0.1261 -0.2102
 7145TIP3    H143070   2.871   0.281   8.538 -0.7780  0.5118 -3.1341
 7145TIP3    H243071   2.796   0.159   8.489 -1.6340  0.0154 -0.7332
 7146TIP3   OH243072   2.030   1.688   7.057 -0.0926  0.2590  0.6717
 7146TIP3    H143073   2.081   1.619   7.015 -1.4755 -0.7309  0.5555
 7146TIP3    H243074   1.975   1.724   6.987  0.6990  1.5928  0.7006
 7147TIP3   OH243075   2.496   2.675   2.267  1.0017 -0.0395 -0.3876
 7147TIP3    H143076   2.423   2.655   2.325  1.7434  0.1453  0.6325
 7147TIP3    H243077   2.456   2.691   2.182 -0.1982  0.6889  0.3009
 7148TIP3   OH243078   0.245   0.419   8.444  0.2070 -0.6588 -0.2075
 7148TIP3    H143079   0.224   0.497   8.494 -0.2578 -0.6499 -0.4155
 7148TIP3    H243080   0.339   0.406   8.458  0.0039 -0.9192  1.0289
 7149TIP3   OH243081   3.771   5.611   2.666  0.4628 -0.6733 -0.1948
 7149TIP3    H143082   3.849   5.647   2.623  1.0220 -0.9088  0.5941
 7149TIP3    H243083   3.737   5.683   2.718 -0.4638 -0.2593 -1.3385
 7150TIP3   OH243084   5.477   2.209   7.205  0.2137  0.0621  0.3969
 7150TIP3    H143085   5.389   2.192   7.170 -0.2889  3.3180 -0.2013
 7150TIP3    H243086   5.536   2.172   7.139 -0.6144 -1.8435  0.6320
 7151TIP3   OH243087   0.881   2.791   0.640  0.1713  0.2493  0.1396
 7151TIP3    H143088   0.816   2.782   0.571 -0.1794  1.4681  0.2959
 7151TIP3    H243089   0.925   2.706   0.642  0.3742  0.2589 -1.7586
 7152TIP3   OH243090   2.721   4.309   0.167  0.1216 -0.1676 -0.0938
 7152TIP3    H143091   2.748   4.283   0.079  1.6073 -0.8617  0.5177
 7152TIP3    H243092   2.789   4.272   0.224  0.0680  1.6255  1.2039
 7153TIP3   OH243093   4.300   0.032   7.943  0.3393  0.3824 -0.4978
 7153TIP3    H143094   4.362   0.049   7.873  0.5048  3.3310  0.2715
 7153TIP3    H243095   4.225   0.088   7.924  0.2878  1.0825  1.5288
 7154TIP3   OH243096   4.733   5.154   1.864 -0.7537 -0.1451 -0.4652
 7154TIP3    H143097   4.765   5.066   1.843 -0.0685  0.6932 -3.4440
 7154TIP3    H243098   4.659   5.139   1.923 -0.7716 -2.7219 -1.0160
 7155TIP3   OH243099   0.202   5.048   7.604  0.4488  0.4236  0.3669
 7155TIP3    H143100   0.227   5.132   7.564 -0.4641  1.4083  1.7827
 7155TIP3    H243101   0.159   5.072   7.686 -2.9172 -1.2437 -0.7248
 7156TIP3   OH243102   2.895   0.153   7.870  0.1507 -0.1950 -0.1460
 7156TIP3    H143103   2.973   0.197   7.835  0.1998 -0.0370  0.1564
 7156TIP3    H243104   2.824   0.183   7.813  0.2139  0.1343 -0.0564
 7157TIP3   OH243105   3.972   2.987   8.735 -0.4945 -0.2606  0.0625
 7157TIP3    H143106   3.995   2.895   8.747  0.3633 -0.2947 -1.5834
 7157TIP3    H243107   4.036   3.034   8.788  0.9694 -0.5272 -1.3975
 7158TIP3   OH243108   2.303   0.165   1.211  0.0859  0.0275 -0.2521
 7158TIP3    H143109   2.274   0.250   1.176 -0.0052 -0.1661 -0.6544
 7158TIP3    H243110   2.222   0.116   1.224  0.2086 -0.5558 -1.4806
 7159TIP3   OH243111   6.014   5.012   1.523  0.3661  0.1305  0.3788
 7159TIP3    H143112   6.059   4.941   1.570  0.3053 -0.2268 -0.0969
 7159TIP3    H243113   5.957   5.051   1.588  0.2637 -0.3774  0.6006
 7160TIP3   OH243114   4.072   4.991   8.677 -0.0737  0.1534 -0.1129
 7160TIP3    H143115   3.989   4.950   8.701 -0.1273 -0.7833 -1.7311
 7160TIP3    H243116   4.068   4.999   8.582  1.3871  0.7856 -0.1441
 7161TIP3   OH243117   5.201   1.012   8.026 -0.0130  0.0185  0.3678
 7161TIP3    H143118   5.119   1.025   7.978 -0.1341  0.5232  0.7038
 7161TIP3    H243119   5.262   1.074   7.987  0.0676 -0.0100  0.4478
 7162TIP3   OH243120   6.356   4.038   1.729  0.4429  0.3954  0.8262
 7162TIP3    H143121   6.408   4.005   1.656  0.6927 -0.4316  1.3734
 7162TIP3    H243122   6.366   4.133   1.724  0.4181  0.3542 -0.2402
 7163TIP3   OH243123   1.254   6.075   1.670 -0.0644 -0.1046  0.1064
 7163TIP3    H143124   1.296   6.075   1.756  2.5043  0.4056 -1.0593
 7163TIP3    H243125   1.177   6.130   1.681 -0.4053 -0.9052  2.3092
 7164TIP3   OH243126   5.993   0.950   0.697 -0.1269 -0.7270 -0.0093
 7164TIP3    H143127   5.910   0.995   0.710 -0.5799 -1.1060 -1.3946
 7164TIP3    H243128   6.028   0.937   0.785 -1.2865 -0.1134  0.5613
 7165TIP3   OH243129   5.805   4.962   2.297 -0.1623  0.0806 -0.0810
 7165TIP3    H143130   5.841   5.050   2.283  2.1144 -0.6309  0.8714
 7165TIP3    H243131   5.774   4.963   2.388 -0.3301 -0.0389 -0.1365
 7166TIP3   OH243132   0.691   3.156   0.494  0.4586  0.1941 -0.5036
 7166TIP3    H143133   0.781   3.126   0.483  0.1622  0.1591 -3.6036
 7166TIP3    H243134   0.648   3.085   0.543  1.2110 -1.7161 -2.4533
 7167TIP3   OH243135   4.006   5.171   1.184  0.3436  0.1065  0.1589
 7167TIP3    H143136   3.961   5.186   1.101  0.0215  0.4698  0.3971
 7167TIP3    H243137   3.960   5.096   1.222 -1.1053  1.4335  1.1224
 7168TIP3   OH243138   5.253   6.720   0.623 -0.0386  0.2374 -0.3787
 7168TIP3    H143139   5.312   6.726   0.549 -0.1560  0.4135 -0.4582
 7168TIP3    H243140   5.283   6.643   0.672  0.6141  0.6659 -0.1019
 7169TIP3   OH243141   3.221   1.872   2.933  0.3815  0.5318 -0.1642
 7169TIP3    H143142   3.251   1.802   2.876  1.0160  0.2754  0.4771
 7169TIP3    H243143   3.152   1.832   2.986  1.9086 -0.1471  1.4210
 7170TIP3   OH243144   4.459   3.833   8.344 -0.1582  0.2678 -0.4210
 7170TIP3    H143145   4.405   3.754   8.352  0.9101 -0.4313  0.2890
 7170TIP3    H243146   4.420   3.896   8.404 -0.3010 -0.1581 -0.0603
 7171TIP3   OH243147   1.941   2.504   7.529  0.3316  0.3226 -0.8095
 7171TIP3    H143148   1.941   2.408   7.529  0.3690  0.2349  1.7926
 7171TIP3    H243149   2.009   2.527   7.593  0.6735  2.1204 -1.7613
 7172TIP3   OH243150   3.026   3.759   7.987  0.2040 -0.1561 -0.1298
 7172TIP3    H143151   3.033   3.773   7.893 -0.4616  0.7778 -0.0449
 7172TIP3    H243152   3.097   3.697   8.007  1.3709  0.8670 -0.9815
 7173TIP3   OH243153   6.759   6.497   0.619 -0.0941 -0.2394  0.2079
 7173TIP3    H143154   6.665   6.487   0.635 -0.1979 -2.0134 -1.1769
 7173TIP3    H243155   6.796   6.517   0.704 -1.6736  0.0531  0.8579
 7174TIP3   OH243156   3.681   5.230   1.896  0.1426  0.5295  0.1859
 7174TIP3    H143157   3.705   5.154   1.950  0.8541 -0.0480 -0.9014
 7174TIP3    H243158   3.764   5.267   1.868 -0.2043  0.4396 -1.0200
 7175TIP3   OH243159   3.470   0.017   0.602  0.9163 -0.8406 -0.3165
 7175TIP3    H143160   3.417   0.094   0.581  1.9273 -0.5368 -1.8969
 7175TIP3    H243161   3.474  -0.033   0.521 -0.5952 -3.1647  0.9287
 7176TIP3   OH243162   2.686   0.304   2.082  0.0503 -0.0689  0.2673
 7176TIP3    H143163   2.738   0.284   2.159 -0.5904  0.1013  0.7520
 7176TIP3    H243164   2.740   0.275   2.008  1.7421  1.9618  0.6090
 7177LIG     O143165   5.311   6.309   7.635  0.6898  0.3727 -0.0073
 7177LIG     O243166   4.899   6.099   7.631  1.0297 -0.4017 -0.0103
 7177LIG     N143167   4.957   6.214   7.820  0.7684 -0.5127 -0.6044
 7177LIG     N243168   5.246   6.382   7.934 -0.1910  0.2349  0.5203
 7177LIG     N343169   5.102   6.198   7.635 -0.0150 -0.4411 -0.0369
 7177LIG     N443170   5.043   6.329   8.016  0.6164  0.0217 -0.1826
 7177LIG     C143171   5.176   6.320   7.827  0.5117  0.8500  0.4921
 7177LIG     C243172   5.053   6.285   7.885  0.2202 -0.5593 -0.0661
 7177LIG     C343173   5.206   6.282   7.696  0.3098 -0.6333 -0.0613
 7177LIG     C443174   4.981   6.167   7.690 -0.4861 -0.7872  0.1676
 7177LIG     C543175   5.154   6.391   8.044 -0.3462 -0.3495  0.5369
 7177LIG     C643176   4.843   6.167   7.898 -0.2155 -0.4977 -0.0023
 7177LIG     C743177   5.381   6.440   7.918  0.1603  0.0875 -0.0779
 7177LIG     C843178   5.127   6.141   7.502 -0.3274  1.0064 -0.5270
 7177LIG     H143179   5.165   6.445   8.138  0.4024  1.5455 -0.5791
 7177LIG     H243180   4.862   6.059   7.917  0.3353 -0.4772 -0.4120
 7177LIG     H343181   4.747   6.172   7.842 -1.2653  0.2822  1.7882
 7177LIG     H443182   4.825   6.224   7.991  1.8812  1.3531 -0.6722
 7177LIG     H543183   5.461   6.366   7.938  0.0075  0.3832  1.8234
 7177LIG     H643184   5.379   6.523   7.992 -4.5196  1.1877 -1.0931
 7177LIG     H743185   5.380   6.488   7.817 -0.7429 -0.3801 -0.3015
 7177LIG     H843186   5.131   6.033   7.526  1.7709  1.4508  1.5128
 7177LIG     H943187   5.227   6.159   7.458  0.6186  3.0091  2.1807
 7177LIG    H1043188   5.051   6.161   7.424 -2.0260  2.1166  1.3090
   6.82264   6.82264   8.90312
