Title
43188
    1CHL1    C3    1   2.895   1.038   6.533 -0.7511  0.1316  0.5153
    1CHL1    H3    2   2.986   0.981   6.505 -0.1013  0.2955  2.2143
    1CHL1    O3    3   2.893   1.046   6.675  0.1649  0.3855 -0.5966
    1CHL1   H3'    4   2.809   1.087   6.695  0.0741 -0.5481  1.1467
    1CHL1    C4    5   2.912   1.186   6.488 -0.4647  0.1150  0.0149
    1CHL1   H4A    6   2.828   1.251   6.521  0.6999  0.7372  1.9223
    1CHL1   H4B    7   3.006   1.221   6.536 -2.1390  0.9639  2.9585
    1CHL1    C5    8   2.921   1.190   6.339  0.3256 -0.2088 -0.0796
    1CHL1    C6    9   3.028   1.233   6.281 -0.6954  0.9312 -0.3296
    1CHL1    H6   10   3.105   1.280   6.343  0.1286  0.6886 -1.1483
    1CHL1    C7   11   3.055   1.237   6.132  0.6533 -0.5450 -0.4010
    1CHL1   H7A   12   3.106   1.333   6.110  2.0533 -0.2580  3.3358
    1CHL1   H7B   13   3.125   1.152   6.114 -0.1283 -1.2458 -0.1730
    1CHL1    C8   14   2.920   1.223   6.050 -0.6092  0.3041 -0.2174
    1CHL1    H8   15   2.869   1.322   6.049 -3.6631 -1.1452  0.6777
    1CHL1   C14   16   2.955   1.183   5.909 -0.9850 -0.1152  0.2778
    1CHL1   H14   17   3.005   1.085   5.919  0.4770  0.5942  0.0761
    1CHL1   C15   18   3.066   1.267   5.838  0.2340 -0.0550 -0.1283
    1CHL1  H15A   19   3.068   1.375   5.864  1.7811  0.2092 -1.1824
    1CHL1  H15B   20   3.170   1.233   5.860 -0.5570 -1.2353  2.0293
    1CHL1   C16   21   3.037   1.249   5.688  0.4198  0.1670  0.0758
    1CHL1  H16A   22   3.004   1.347   5.648 -1.1825 -0.9706 -1.5491
    1CHL1  H16B   23   3.122   1.224   5.621  1.8009  3.0692  0.5863
    1CHL1   C17   24   2.914   1.154   5.671  0.4558  1.0560 -1.3748
    1CHL1   H17   25   2.950   1.049   5.670 -1.1450  0.4859 -1.6809
    1CHL1   C13   26   2.838   1.178   5.811  0.0233 -0.1611 -0.3456
    1CHL1   C18   27   2.769   1.314   5.807  0.0404  0.2311  0.3025
    1CHL1  H18A   28   2.838   1.391   5.766 -0.7572  0.2404 -1.0887
    1CHL1  H18B   29   2.681   1.300   5.741  0.0657  0.3543  0.2417
    1CHL1  H18C   30   2.732   1.340   5.908 -1.0020 -0.1682  0.0341
    1CHL1   C12   31   2.745   1.066   5.858  0.1773  0.7353 -0.0272
    1CHL1  H12A   32   2.653   1.078   5.796 -0.0316  4.0389  0.7242
    1CHL1  H12B   33   2.792   0.965   5.856  0.5101  0.8957 -0.4871
    1CHL1   C11   34   2.702   1.090   6.003  0.4219 -0.2273  0.4427
    1CHL1  H11A   35   2.629   1.174   5.996 -0.7711 -1.1715  1.0806
    1CHL1  H11B   36   2.633   1.008   6.030 -0.9299  0.4328 -0.8139
    1CHL1    C9   37   2.822   1.114   6.107 -0.5467  0.6337  0.0276
    1CHL1    H9   38   2.887   1.024   6.101  0.8933  1.6932 -1.1360
    1CHL1   C10   39   2.801   1.126   6.260 -0.4897  0.5871  0.2538
    1CHL1   C19   40   2.686   1.224   6.276  0.3031  0.8056  0.5563
    1CHL1  H19A   41   2.592   1.181   6.236 -0.5632  0.2022  3.0265
    1CHL1  H19B   42   2.659   1.256   6.379 -0.9912 -0.6896  0.7261
    1CHL1  H19C   43   2.691   1.320   6.221  1.5089  1.7600  2.2176
    1CHL1    C1   44   2.777   0.989   6.319  0.7671 -0.3992  0.0804
    1CHL1   H1A   45   2.678   0.954   6.283  1.5087 -2.1033 -0.3829
    1CHL1   H1B   46   2.842   0.906   6.284  0.7662 -0.2935 -0.1802
    1CHL1    C2   47   2.767   0.982   6.470  0.1034  0.4955  0.1376
    1CHL1   H2A   48   2.761   0.874   6.496  3.2665 -0.0630 -0.9970
    1CHL1   H2B   49   2.686   1.036   6.522 -0.9896 -1.2208  0.2996
    1CHL1   C20   50   2.829   1.159   5.545  0.5035 -0.5049 -0.3425
    1CHL1   H20   51   2.740   1.224   5.554 -1.4290 -2.6597 -2.3255
    1CHL1   C21   52   2.775   1.013   5.523  0.0084 -0.5616  1.0288
    1CHL1  H21A   53   2.706   0.985   5.605 -2.6420  1.6103 -0.2898
    1CHL1  H21B   54   2.863   0.947   5.509  0.9293  0.9637 -0.9721
    1CHL1  H21C   55   2.726   1.011   5.423  3.1331 -1.4025 -0.6194
    1CHL1   C22   56   2.904   1.214   5.422  0.7411  0.3404 -0.3765
    1CHL1  H22A   57   2.952   1.312   5.441 -1.2883  1.3927 -0.3867
    1CHL1  H22B   58   2.988   1.149   5.389  2.1602  0.7156  2.2278
    1CHL1   C23   59   2.812   1.250   5.300 -0.7236 -0.3582 -0.2504
    1CHL1  H23A   60   2.782   1.153   5.253 -1.4602 -1.1981  1.8408
    1CHL1  H23B   61   2.727   1.305   5.346  0.5219 -0.7925  2.7706
    1CHL1   C24   62   2.875   1.345   5.196  0.0583  0.0798  0.2530
    1CHL1  H24A   63   2.794   1.371   5.124  0.7064 -1.7345 -1.2225
    1CHL1  H24B   64   2.902   1.436   5.253 -0.5448  1.1676 -1.1489
    1CHL1   C25   65   2.994   1.294   5.109 -0.0727 -0.3330  0.4190
    1CHL1   H25   66   3.063   1.253   5.185  3.1185  0.9388 -1.5840
    1CHL1   C26   67   2.967   1.174   5.014 -0.1393 -0.6311 -0.0766
    1CHL1  H26A   68   2.943   1.083   5.073  1.3608 -1.6930 -1.0243
    1CHL1  H26B   69   2.891   1.198   4.937  1.6788  0.1094 -1.7222
    1CHL1  H26C   70   3.056   1.146   4.954 -0.0260  0.1972 -0.3114
    1CHL1   C27   71   3.045   1.405   5.022 -0.1777 -0.2338  0.0895
    1CHL1  H27A   72   2.963   1.445   4.959  0.4637 -0.1702 -0.7251
    1CHL1  H27B   73   3.088   1.490   5.080 -0.2400 -1.2780  1.7369
    1CHL1  H27C   74   3.112   1.376   4.938 -0.6624  1.2847 -0.8562
    2CHL1    C3   75   2.087   0.938   6.550  0.1126  0.2573  0.2351
    2CHL1    H3   76   1.986   0.959   6.510  0.0820 -0.1147  0.1137
    2CHL1    O3   77   2.099   0.914   6.688 -1.1462  0.0594 -0.6730
    2CHL1   H3'   78   2.173   0.860   6.717 -2.0394  0.8317  3.6491
    2CHL1    C4   79   2.140   0.814   6.473  0.3816  0.0497 -0.0452
    2CHL1   H4A   80   2.237   0.774   6.510 -0.3638  0.1794  2.1861
    2CHL1   H4B   81   2.073   0.731   6.506 -0.2811  0.5695 -0.0739
    2CHL1    C5   82   2.139   0.831   6.321 -0.7138  0.1004  0.1414
    2CHL1    C6   83   2.084   0.742   6.233  0.2430  0.1202  0.0529
    2CHL1    H6   84   2.029   0.656   6.275  1.2015 -1.2946 -1.4645
    2CHL1    C7   85   2.081   0.761   6.083 -1.4906  0.3555 -0.2418
    2CHL1   H7A   86   2.103   0.669   6.025  1.1978 -0.1429  1.3865
    2CHL1   H7B   87   1.982   0.805   6.058 -2.1110 -0.6321  0.4131
    2CHL1    C8   88   2.185   0.861   6.037  0.0248 -0.5046 -0.1374
    2CHL1    H8   89   2.287   0.815   6.033  0.7360  1.0427 -3.4896
    2CHL1   C14   90   2.156   0.901   5.895 -0.7191 -0.0730 -0.6681
    2CHL1   H14   91   2.053   0.943   5.905 -0.2387  1.1901 -0.8465
    2CHL1   C15   92   2.148   0.792   5.780 -0.1822  0.7389  0.2750
    2CHL1  H15A   93   2.248   0.743   5.782 -0.6953 -0.2989  2.1019
    2CHL1  H15B   94   2.071   0.716   5.802 -0.3390  0.7838 -0.1115
    2CHL1   C16   95   2.130   0.871   5.652  0.5998  0.4597 -0.1188
    2CHL1  H16A   96   2.175   0.824   5.561 -1.3009 -0.3644 -0.6834
    2CHL1  H16B   97   2.021   0.890   5.644  0.5239 -0.2257 -0.8060
    2CHL1   C17   98   2.192   1.020   5.687 -0.1155 -0.2676  0.0017
    2CHL1   H17   99   2.102   1.086   5.690 -0.2012 -0.2377 -1.8863
    2CHL1   C13  100   2.243   1.010   5.831  0.0899 -0.2327 -0.0045
    2CHL1   C18  101   2.392   0.963   5.818  0.3091 -0.8149  0.1541
    2CHL1  H18A  102   2.459   1.047   5.791 -0.6190  0.3029  1.2489
    2CHL1  H18B  103   2.427   0.932   5.918 -0.4523  0.1848  0.7454
    2CHL1  H18C  104   2.420   0.883   5.746  2.5199  0.4783 -0.5522
    2CHL1   C12  105   2.233   1.135   5.923  0.2194 -0.1878 -0.0628
    2CHL1  H12A  106   2.296   1.220   5.888  1.7415 -0.4523  1.8549
    2CHL1  H12B  107   2.128   1.170   5.923  0.3682  0.4299 -2.3542
    2CHL1   C11  108   2.272   1.110   6.068 -0.1875 -0.6092  0.4325
    2CHL1  H11A  109   2.382   1.101   6.076  0.0699  1.0276 -0.8131
    2CHL1  H11B  110   2.259   1.201   6.129  1.6816 -0.0017 -0.0192
    2CHL1    C9  111   2.188   0.989   6.126 -0.1666 -0.6155  0.1301
    2CHL1    H9  112   2.082   1.023   6.120  0.0913  0.1040 -0.4824
    2CHL1   C10  113   2.216   0.959   6.275  1.4249  0.3686  0.2641
    2CHL1   C19  114   2.370   0.934   6.291  0.3050 -0.0002  0.1496
    2CHL1  H19A  115   2.424   1.030   6.302 -1.3762  1.2045 -1.5254
    2CHL1  H19B  116   2.388   0.864   6.376 -1.8420 -1.1434 -0.2802
    2CHL1  H19C  117   2.412   0.879   6.204  3.0243 -0.6863  1.7588
    2CHL1    C1  118   2.169   1.086   6.361 -0.5820  0.4212  0.0957
    2CHL1   H1A  119   2.233   1.174   6.338  0.8280 -1.1874 -2.7124
    2CHL1   H1B  120   2.065   1.112   6.334 -0.9159 -0.3410  0.6261
    2CHL1    C2  121   2.174   1.057   6.511 -0.0426  0.1287 -0.6247
    2CHL1   H2A  122   2.139   1.146   6.567  0.2217 -0.2101  0.0845
    2CHL1   H2B  123   2.279   1.040   6.544  0.0450  2.5246  0.5966
    2CHL1   C20  124   2.272   1.076   5.572  0.3352  0.3929  0.7678
    2CHL1   H20  125   2.371   1.025   5.566 -0.0748 -0.2300 -2.0066
    2CHL1   C21  126   2.283   1.226   5.597 -1.5350  0.4398  0.9826
    2CHL1  H21A  127   2.189   1.285   5.607  0.3493  3.4553  2.6024
    2CHL1  H21B  128   2.324   1.265   5.501 -1.6950 -0.4636  0.5443
    2CHL1  H21C  129   2.352   1.260   5.678 -1.8796  0.8066  1.1298
    2CHL1   C22  130   2.207   1.059   5.425 -0.5276  0.4656  0.4483
    2CHL1  H22A  131   2.182   0.952   5.414  2.5540 -0.3793  0.7487
    2CHL1  H22B  132   2.119   1.125   5.412 -0.4500  0.4595 -0.1321
    2CHL1   C23  133   2.300   1.099   5.304 -0.0742 -0.5843  0.5837
    2CHL1  H23A  134   2.330   1.206   5.307 -0.3080 -0.4587 -0.9514
    2CHL1  H23B  135   2.393   1.038   5.301 -0.6489 -1.6281  2.5182
    2CHL1   C24  136   2.225   1.081   5.167  0.4786 -0.0770  0.0888
    2CHL1  H24A  137   2.208   0.973   5.147 -1.3044 -0.0942  1.4850
    2CHL1  H24B  138   2.122   1.121   5.173  0.6857  0.8002 -1.5992
    2CHL1   C25  139   2.289   1.159   5.051 -0.7003 -0.1311 -0.0052
    2CHL1   H25  140   2.385   1.102   5.053 -0.8018 -0.3164 -0.3383
    2CHL1   C26  141   2.234   1.127   4.917  0.3114  0.2730  0.5142
    2CHL1  H26A  142   2.318   1.125   4.844 -0.8970 -1.0905 -0.8865
    2CHL1  H26B  143   2.167   1.039   4.918 -0.7782  1.0704  0.0592
    2CHL1  H26C  144   2.170   1.209   4.878 -1.9628 -1.2940  0.7612
    2CHL1   C27  145   2.305   1.307   5.066 -0.4536 -0.6154  0.6749
    2CHL1  H27A  146   2.206   1.356   5.076  0.2579  1.2581 -0.8219
    2CHL1  H27B  147   2.364   1.336   5.156  1.8075  0.7171 -1.1320
    2CHL1  H27C  148   2.340   1.350   4.970 -0.8557 -0.6031  0.5324
    3CHL1    C3  149   1.827   0.259   6.200 -0.6890  0.3836 -0.2212
    3CHL1    H3  150   1.898   0.175   6.215  0.5153  1.3024 -0.6799
    3CHL1    O3  151   1.744   0.307   6.302 -0.0156  0.6591  0.1269
    3CHL1   H3'  152   1.800   0.349   6.368 -1.1481  0.8630  0.9859
    3CHL1    C4  153   1.899   0.378   6.144  0.0691  0.2941 -0.6123
    3CHL1   H4A  154   1.822   0.456   6.125 -1.6827 -0.9705  0.9057
    3CHL1   H4B  155   1.965   0.419   6.223 -1.5642 -0.0774  1.0208
    3CHL1    C5  156   1.970   0.357   6.012  0.2045 -0.8561 -0.2733
    3CHL1    C6  157   2.100   0.390   5.995 -0.5434  0.3945  0.8664
    3CHL1    H6  158   2.157   0.419   6.086 -1.5434  1.3870  1.2047
    3CHL1    C7  159   2.165   0.391   5.853 -0.5917 -0.8400  0.1984
    3CHL1   H7A  160   2.221   0.485   5.833 -2.6710  0.7748  1.5309
    3CHL1   H7B  161   2.227   0.301   5.835  0.1023 -0.3245 -0.0233
    3CHL1    C8  162   2.064   0.387   5.736  0.3065 -0.7690  0.3098
    3CHL1    H8  163   2.022   0.490   5.729  4.9575  1.3456 -0.3362
    3CHL1   C14  164   2.135   0.364   5.601  0.5425 -0.2446 -0.7714
    3CHL1   H14  165   2.183   0.267   5.627 -0.5159 -0.4702  0.4209
    3CHL1   C15  166   2.250   0.458   5.550 -0.0357  0.6173  0.5947
    3CHL1  H15A  167   2.219   0.564   5.544 -1.1638  0.3333  1.1439
    3CHL1  H15B  168   2.343   0.466   5.610  1.1045  1.5360 -1.1843
    3CHL1   C16  169   2.270   0.412   5.399  0.5296 -1.1119 -0.4657
    3CHL1  H16A  170   2.254   0.503   5.337 -0.7405  0.3044  1.7818
    3CHL1  H16B  171   2.376   0.383   5.386  0.8038  0.5467 -2.3378
    3CHL1   C17  172   2.164   0.297   5.374  0.5364 -0.4571  0.0494
    3CHL1   H17  173   2.221   0.208   5.406  0.4239 -0.6695 -0.3347
    3CHL1   C13  174   2.050   0.326   5.477 -0.5893 -0.3522  0.7888
    3CHL1   C18  175   1.973   0.451   5.422 -0.2166  0.9903  0.3918
    3CHL1  H18A  176   1.900   0.425   5.342 -0.8188  0.6854  1.0293
    3CHL1  H18B  177   1.916   0.489   5.509 -0.4226 -1.3842  1.3561
    3CHL1  H18C  178   2.050   0.521   5.383  3.0691 -1.9206  1.1561
    3CHL1   C12  179   1.965   0.210   5.517  0.4304 -0.3349 -0.6216
    3CHL1  H12A  180   1.894   0.192   5.433 -1.6646  0.0903  0.9570
    3CHL1  H12B  181   2.026   0.124   5.552 -0.5669 -0.6319  0.4831
    3CHL1   C11  182   1.874   0.243   5.641  0.1960  0.1507  0.0553
    3CHL1  H11A  183   1.800   0.322   5.618 -1.7254 -2.1610 -2.2690
    3CHL1  H11B  184   1.812   0.153   5.661  1.0400 -0.2281  1.0636
    3CHL1    C9  185   1.952   0.283   5.772 -0.6668 -0.7610 -0.3782
    3CHL1    H9  186   2.016   0.195   5.794 -1.0411 -1.1011 -0.6157
    3CHL1   C10  187   1.877   0.315   5.901  0.6414  0.0689  0.3350
    3CHL1   C19  188   1.765   0.409   5.857  0.5274 -0.0947 -0.5351
    3CHL1  H19A  189   1.809   0.502   5.815  0.2564  0.2084 -0.1530
    3CHL1  H19B  190   1.690   0.361   5.790  1.5380  0.2262 -1.9372
    3CHL1  H19C  191   1.709   0.441   5.948  1.0826  0.3369 -0.3410
    3CHL1    C1  192   1.808   0.189   5.954  0.3113 -0.1371 -0.1258
    3CHL1   H1A  193   1.723   0.172   5.885  0.8147 -0.4303 -0.6895
    3CHL1   H1B  194   1.864   0.093   5.950  0.2003 -0.2494  0.6911
    3CHL1    C2  195   1.736   0.194   6.092  0.3893  0.1646 -0.1067
    3CHL1   H2A  196   1.717   0.089   6.126  0.7053  0.0972 -0.1346
    3CHL1   H2B  197   1.640   0.248   6.080  0.6479  0.8478  0.8159
    3CHL1   C20  198   2.133   0.287   5.227 -0.2499 -0.0069 -0.0282
    3CHL1   H20  199   2.053   0.359   5.202  0.1440  0.6754  0.6260
    3CHL1   C21  200   2.085   0.146   5.204 -0.2099 -0.1459 -0.6795
    3CHL1  H21A  201   2.092   0.131   5.094 -0.2034 -2.4893 -0.4102
    3CHL1  H21B  202   1.986   0.122   5.248  1.1257  0.1894  2.7906
    3CHL1  H21C  203   2.147   0.061   5.241 -3.4611 -1.5575  2.1215
    3CHL1   C22  204   2.255   0.317   5.132 -0.4341  0.3906 -0.2162
    3CHL1  H22A  205   2.281   0.423   5.153  2.1726 -0.3346  0.5940
    3CHL1  H22B  206   2.338   0.251   5.165 -0.5681 -0.8877 -2.2458
    3CHL1   C23  207   2.235   0.305   4.979  0.0015 -0.0404  0.9405
    3CHL1  H23A  208   2.235   0.198   4.950  0.1003 -0.0005  0.7966
    3CHL1  H23B  209   2.140   0.357   4.953 -0.0887 -1.1915 -1.3071
    3CHL1   C24  210   2.353   0.367   4.910  0.1673  0.0195  0.3256
    3CHL1  H24A  211   2.362   0.477   4.923  2.4750 -0.0302 -0.4657
    3CHL1  H24B  212   2.445   0.334   4.962  1.0308 -1.6706 -2.0486
    3CHL1   C25  213   2.367   0.335   4.756  0.1077  0.1337 -0.1171
    3CHL1   H25  214   2.446   0.408   4.728 -1.1683  1.0144 -1.5554
    3CHL1   C26  215   2.414   0.193   4.734  0.2765 -0.0487  0.5278
    3CHL1  H26A  216   2.325   0.130   4.751  0.7885 -0.8642  0.2547
    3CHL1  H26B  217   2.437   0.179   4.626 -2.8948  2.4416 -0.6108
    3CHL1  H26C  218   2.502   0.168   4.798  0.4083  2.0407  1.2561
    3CHL1   C27  219   2.235   0.368   4.681  0.3344  0.2524 -0.0213
    3CHL1  H27A  220   2.258   0.354   4.573  2.6585  0.5285  0.3848
    3CHL1  H27B  221   2.154   0.300   4.714 -1.6856  1.2874 -2.4363
    3CHL1  H27C  222   2.192   0.471   4.685 -1.4389 -0.3520 -1.9137
    4CHL1    C3  223   2.582   0.567   6.821 -0.3745 -0.8577 -0.3093
    4CHL1    H3  224   2.521   0.660   6.816  1.7385  0.5403 -1.5840
    4CHL1    O3  225   2.581   0.531   6.961 -0.1202 -0.2117 -0.3438
    4CHL1   H3'  226   2.655   0.471   6.971 -1.0814 -1.5588 -1.0139
    4CHL1    C4  227   2.522   0.463   6.739  1.3715  0.3786 -0.2444
    4CHL1   H4A  228   2.579   0.370   6.756  1.1535  0.5091  1.3707
    4CHL1   H4B  229   2.418   0.453   6.778  1.1751  3.0434  0.0945
    4CHL1    C5  230   2.522   0.499   6.586  0.1425  0.0256  0.1030
    4CHL1    C6  231   2.416   0.506   6.507  0.2810 -0.3881  0.0362
    4CHL1    H6  232   2.320   0.494   6.559  1.0686 -0.7238  1.4720
    4CHL1    C7  233   2.423   0.546   6.362  0.0612  0.2950  0.1001
    4CHL1   H7A  234   2.349   0.477   6.316  1.3876 -1.6294  0.6903
    4CHL1   H7B  235   2.392   0.651   6.346 -2.2413 -0.4772 -1.0138
    4CHL1    C8  236   2.566   0.518   6.305 -0.3431 -0.6859  0.3295
    4CHL1    H8  237   2.581   0.408   6.303 -1.5995 -0.8752 -1.5749
    4CHL1   C14  238   2.568   0.572   6.163  0.3040 -0.1668 -0.2058
    4CHL1   H14  239   2.549   0.682   6.168  3.1851  0.3993  0.0027
    4CHL1   C15  240   2.460   0.527   6.066  0.1876 -0.0725  0.2193
    4CHL1  H15A  241   2.440   0.419   6.080  1.4152 -0.4177 -0.5429
    4CHL1  H15B  242   2.359   0.573   6.076  0.4886  0.6327  0.0728
    4CHL1   C16  243   2.522   0.552   5.928  0.0827  0.4476 -0.3800
    4CHL1  H16A  244   2.547   0.454   5.881 -0.9092  0.4807 -1.0150
    4CHL1  H16B  245   2.450   0.602   5.860  0.4648 -1.5264 -2.3339
    4CHL1   C17  246   2.660   0.626   5.950 -0.2765 -0.3327  0.5302
    4CHL1   H17  247   2.638   0.734   5.962 -1.2880 -0.5608  0.8631
    4CHL1   C13  248   2.706   0.570   6.090  0.1743 -0.4749  0.2517
    4CHL1   C18  249   2.749   0.433   6.075 -0.7860 -0.5358  0.1102
    4CHL1  H18A  250   2.838   0.429   6.008  0.0025 -2.5490  1.2199
    4CHL1  H18B  251   2.776   0.383   6.170 -1.0305  1.4307  1.2711
    4CHL1  H18C  252   2.673   0.364   6.033 -0.5654 -0.1653 -0.9343
    4CHL1   C12  253   2.804   0.658   6.179  0.2256  0.6923 -0.4990
    4CHL1  H12A  254   2.908   0.660   6.138 -0.0522  3.1330 -1.2465
    4CHL1  H12B  255   2.769   0.764   6.181 -1.8261  0.0853  2.3435
    4CHL1   C11  256   2.809   0.600   6.317 -0.0114 -1.1444  0.2073
    4CHL1  H11A  257   2.849   0.497   6.311 -0.7136 -1.4376  0.5034
    4CHL1  H11B  258   2.892   0.635   6.382  1.3994 -3.2894 -0.3512
    4CHL1    C9  259   2.675   0.594   6.388 -0.1775  0.7346 -0.3168
    4CHL1    H9  260   2.641   0.700   6.397  0.9432  0.9908  1.5214
    4CHL1   C10  261   2.670   0.535   6.533  1.1141  0.5052 -0.4199
    4CHL1   C19  262   2.754   0.410   6.544 -0.0019  0.5130 -0.2670
    4CHL1  H19A  263   2.859   0.440   6.524  0.2396  1.1524  1.7683
    4CHL1  H19B  264   2.757   0.376   6.650 -2.7177  0.6052 -0.1032
    4CHL1  H19C  265   2.718   0.329   6.477 -2.7923 -0.1272  1.8548
    4CHL1    C1  266   2.722   0.647   6.634 -0.8253  0.0656  0.0771
    4CHL1   H1A  267   2.828   0.669   6.608 -0.4627 -1.9109 -0.2738
    4CHL1   H1B  268   2.665   0.741   6.621  0.6182  0.8863 -0.6041
    4CHL1    C2  269   2.727   0.609   6.783  0.7011 -0.1599 -0.1191
    4CHL1   H2A  270   2.766   0.698   6.836  2.0132 -1.8479  1.9334
    4CHL1   H2B  271   2.798   0.523   6.795  1.1359  0.3445  1.0623
    4CHL1   C20  272   2.740   0.612   5.822 -0.0528  0.1576  0.3603
    4CHL1   H20  273   2.750   0.503   5.802  0.1606  0.2575 -0.0805
    4CHL1   C21  274   2.885   0.669   5.823  0.5251 -0.3046  0.1040
    4CHL1  H21A  275   2.956   0.615   5.887  1.0997  1.2928  0.8692
    4CHL1  H21B  276   2.887   0.780   5.835  0.0164 -0.0547 -1.7111
    4CHL1  H21C  277   2.931   0.652   5.723  2.0371 -0.1075  0.7495
    4CHL1   C22  278   2.671   0.671   5.694 -0.5613 -0.1727  0.5286
    4CHL1  H22A  279   2.562   0.654   5.684 -1.3949  4.4560 -0.6545
    4CHL1  H22B  280   2.679   0.782   5.690  0.1299 -0.1678  1.6720
    4CHL1   C23  281   2.730   0.612   5.565  0.4025  0.1315  0.2452
    4CHL1  H23A  282   2.835   0.644   5.547  0.0548  1.3875  0.3495
    4CHL1  H23B  283   2.723   0.502   5.579 -0.7406  0.2874  1.0001
    4CHL1   C24  284   2.638   0.649   5.435 -0.1123 -0.5650 -0.3627
    4CHL1  H24A  285   2.544   0.598   5.463  0.3836 -1.6526 -0.6316
    4CHL1  H24B  286   2.624   0.760   5.432  1.0701 -0.3302  1.5888
    4CHL1   C25  287   2.699   0.595   5.304  0.2845 -0.0644 -0.0439
    4CHL1   H25  288   2.735   0.490   5.311  0.4068 -0.1648 -1.7453
    4CHL1   C26  289   2.587   0.585   5.196  0.1858  0.4555 -0.1965
    4CHL1  H26A  290   2.546   0.482   5.201  1.6263 -0.3159 -2.5665
    4CHL1  H26B  291   2.515   0.670   5.196  0.1594  0.4332 -0.1370
    4CHL1  H26C  292   2.631   0.589   5.094 -1.3267  1.5485 -0.8498
    4CHL1   C27  293   2.817   0.673   5.251  0.3203 -0.4053 -0.2995
    4CHL1  H27A  294   2.873   0.624   5.169  0.0025 -1.0144 -0.1609
    4CHL1  H27B  295   2.786   0.777   5.227 -0.9446 -0.2497  1.7093
    4CHL1  H27C  296   2.892   0.680   5.332  0.3988 -0.0437 -0.4003
    5CHL1    C3  297   1.730   0.932   6.343  0.2045  0.2516  0.5664
    5CHL1    H3  298   1.831   0.905   6.305 -0.9905 -1.8798 -1.3038
    5CHL1    O3  299   1.740   0.965   6.480  0.3344  0.5905 -0.5381
    5CHL1   H3'  300   1.650   0.978   6.513 -1.6186 -2.2308 -4.0253
    5CHL1    C4  301   1.678   1.047   6.265  0.5943 -0.1408 -0.1601
    5CHL1   H4A  302   1.576   1.065   6.306  1.0338 -2.5378  2.2272
    5CHL1   H4B  303   1.738   1.139   6.285  1.7465 -1.1424  1.1699
    5CHL1    C5  304   1.676   1.014   6.112 -0.0613 -0.9480 -0.0979
    5CHL1    C6  305   1.757   1.079   6.026 -0.4362  0.0923  0.1672
    5CHL1    H6  306   1.813   1.162   6.073  1.1608 -0.7127 -0.2194
    5CHL1    C7  307   1.758   1.068   5.876  0.6917  0.5624 -0.0893
    5CHL1   H7A  308   1.762   1.168   5.829  2.4247 -0.1580 -1.5639
    5CHL1   H7B  309   1.850   1.017   5.842 -2.2734 -3.6231 -2.7558
    5CHL1    C8  310   1.639   0.981   5.827 -0.2729 -0.1467 -0.0925
    5CHL1    H8  311   1.549   1.046   5.832 -0.2405  0.0241 -1.3264
    5CHL1   C14  312   1.665   0.935   5.687  0.2641 -0.1416  0.1306
    5CHL1   H14  313   1.739   0.852   5.686 -0.7195 -1.0730 -1.9586
    5CHL1   C15  314   1.708   1.039   5.580  0.5762  0.5012  0.0260
    5CHL1  H15A  315   1.644   1.125   5.611  0.8614  0.6408  0.2338
    5CHL1  H15B  316   1.812   1.075   5.594 -0.3522  2.7546  1.7563
    5CHL1   C16  317   1.675   0.967   5.452  0.6039  0.2273  1.1381
    5CHL1  H16A  318   1.608   1.038   5.398  0.6426 -1.4123 -1.1958
    5CHL1  H16B  319   1.757   0.947   5.381 -0.7287 -4.2406  0.5643
    5CHL1   C17  320   1.597   0.840   5.482 -0.2988  0.1210 -0.4038
    5CHL1   H17  321   1.677   0.763   5.494 -1.2453 -0.8225 -0.0009
    5CHL1   C13  322   1.537   0.868   5.617 -0.6220  0.1570  0.4043
    5CHL1   C18  323   1.416   0.968   5.611 -0.4221 -0.0556  0.5774
    5CHL1  H18A  324   1.339   0.892   5.586  1.3688 -1.0521 -2.4977
    5CHL1  H18B  325   1.381   1.006   5.709 -0.4805  0.7500  0.2503
    5CHL1  H18C  326   1.424   1.053   5.539  0.9693  0.5388  1.3937
    5CHL1   C12  327   1.503   0.743   5.705 -0.1461  0.3591  0.5043
    5CHL1  H12A  328   1.414   0.693   5.662  0.4035  1.1727 -1.6787
    5CHL1  H12B  329   1.596   0.684   5.697 -0.8705 -0.5707 -1.8558
    5CHL1   C11  330   1.475   0.784   5.858  0.2544  0.1847  0.3889
    5CHL1  H11A  331   1.381   0.842   5.870 -0.8169 -1.6419  1.3749
    5CHL1  H11B  332   1.453   0.699   5.927  4.3508 -0.8442  0.6830
    5CHL1    C9  333   1.595   0.863   5.922  0.2060 -0.7984 -0.3739
    5CHL1    H9  334   1.686   0.799   5.923  0.0227 -1.0633  0.5788
    5CHL1   C10  335   1.580   0.900   6.079 -1.0315 -0.9409  0.4264
    5CHL1   C19  336   1.431   0.923   6.114 -0.1290  0.2683  0.1149
    5CHL1  H19A  337   1.372   0.829   6.110 -0.5205  0.5345 -0.3460
    5CHL1  H19B  338   1.422   0.958   6.219  0.5924 -0.1607  0.3278
    5CHL1  H19C  339   1.394   0.996   6.039  0.1377 -0.5897 -0.8770
    5CHL1    C1  340   1.638   0.782   6.166 -0.2830  0.5231 -0.0963
    5CHL1   H1A  341   1.571   0.695   6.151  0.2712 -0.6265  3.2564
    5CHL1   H1B  342   1.741   0.749   6.138 -0.6053 -0.2527 -0.3845
    5CHL1    C2  343   1.642   0.808   6.314 -0.0882 -0.6294 -0.4200
    5CHL1   H2A  344   1.678   0.720   6.371  0.3396  1.3295  2.5772
    5CHL1   H2B  345   1.541   0.834   6.351  1.8560  4.2919  2.4544
    5CHL1   C20  346   1.501   0.790   5.366 -0.0384  0.3334 -0.0070
    5CHL1   H20  347   1.408   0.850   5.369  0.9633  1.9929 -0.5066
    5CHL1   C21  348   1.466   0.646   5.393 -0.2610 -0.3027  1.0156
    5CHL1  H21A  349   1.407   0.599   5.313  0.1118 -0.1706  0.6600
    5CHL1  H21B  350   1.409   0.631   5.487  1.9493  0.8069  2.6411
    5CHL1  H21C  351   1.559   0.585   5.397  0.1329  0.2442  0.3600
    5CHL1   C22  352   1.549   0.816   5.214  0.2517 -0.1798 -0.1234
    5CHL1  H22A  353   1.461   0.769   5.163  0.5365  0.2806 -1.0591
    5CHL1  H22B  354   1.573   0.922   5.195  1.8227 -0.0157  2.3430
    5CHL1   C23  355   1.671   0.726   5.179 -0.3465  0.3764 -0.2331
    5CHL1  H23A  356   1.754   0.741   5.253 -0.5971 -1.5922  0.4957
    5CHL1  H23B  357   1.638   0.620   5.177 -0.5327  0.4042 -3.3733
    5CHL1   C24  358   1.730   0.739   5.037  0.4104 -0.7056  0.1713
    5CHL1  H24A  359   1.659   0.716   4.955  1.4529  2.3246 -1.7527
    5CHL1  H24B  360   1.763   0.843   5.020  1.1958 -1.3509 -2.7905
    5CHL1   C25  361   1.855   0.653   4.994 -0.5000  0.1054 -0.1609
    5CHL1   H25  362   1.894   0.670   4.891  2.2951 -2.8853  0.2317
    5CHL1   C26  363   1.973   0.701   5.076 -0.1587  0.7691 -0.1179
    5CHL1  H26A  364   1.976   0.810   5.056 -1.7049  0.6557 -1.1016
    5CHL1  H26B  365   1.958   0.679   5.184  1.6976 -0.6317 -0.0923
    5CHL1  H26C  366   2.072   0.663   5.042  1.1083  3.8798 -0.2340
    5CHL1   C27  367   1.834   0.507   5.014  0.1877 -0.1449 -0.3162
    5CHL1  H27A  368   1.744   0.464   4.965 -1.2367  0.2002  1.8205
    5CHL1  H27B  369   1.922   0.447   4.985  1.4754  0.9734  1.1053
    5CHL1  H27C  370   1.821   0.476   5.120 -1.7048 -0.1380 -0.5066
    6CHL1    C3  371   6.710   0.334   6.336  0.4075  0.2206  0.3784
    6CHL1    H3  372   6.727   0.444   6.330  0.7021  0.0970 -1.6526
    6CHL1    O3  373   6.728   0.283   6.469  0.2240 -0.2284  0.4898
    6CHL1   H3'  374   6.740   0.189   6.453 -1.4669 -0.5976  1.1819
    6CHL1    C4  375   6.565   0.290   6.296  0.5345 -0.9458  0.4764
    6CHL1   H4A  376   6.548   0.182   6.314  1.8137 -1.1073  0.8493
    6CHL1   H4B  377   6.496   0.344   6.365  0.5142 -1.1842  0.6422
    6CHL1    C5  378   6.540   0.333   6.154 -0.3401 -0.0343 -0.7996
    6CHL1    C6  379   6.446   0.430   6.122 -0.4512 -0.4116  0.1289
    6CHL1    H6  380   6.386   0.480   6.200  1.5861  0.6619  1.0674
    6CHL1    C7  381   6.412   0.465   5.977 -0.3817 -0.4710 -0.4925
    6CHL1   H7A  382   6.306   0.475   5.947 -0.0489  1.1897 -1.2313
    6CHL1   H7B  383   6.462   0.558   5.944 -0.0141 -0.4831  0.0069
    6CHL1    C8  384   6.468   0.357   5.876 -0.2064 -0.1805 -0.7841
    6CHL1    H8  385   6.401   0.271   5.895 -0.0582  0.4471  3.7806
    6CHL1   C14  386   6.455   0.409   5.738 -0.1346 -0.6075 -0.2941
    6CHL1   H14  387   6.526   0.493   5.743 -1.6029  0.8390 -2.2708
    6CHL1   C15  388   6.325   0.471   5.681  0.4239  0.3903 -0.2279
    6CHL1  H15A  389   6.246   0.399   5.713  1.1627  0.8778  3.0540
    6CHL1  H15B  390   6.313   0.570   5.729  2.6151  1.0825 -0.9780
    6CHL1   C16  391   6.332   0.473   5.532  0.7703 -0.4492  1.0459
    6CHL1  H16A  392   6.242   0.425   5.487  1.7224 -0.1954 -1.2544
    6CHL1  H16B  393   6.333   0.576   5.492 -1.4278 -1.2682 -1.4281
    6CHL1   C17  394   6.467   0.398   5.500  0.3349 -0.0466  0.0716
    6CHL1   H17  395   6.537   0.484   5.492  0.2419  0.1342  1.1037
    6CHL1   C13  396   6.510   0.320   5.633 -0.2684 -0.5616  0.4055
    6CHL1   C18  397   6.436   0.184   5.635 -1.2094  0.1228 -0.8836
    6CHL1  H18A  398   6.330   0.202   5.608 -1.2995  1.3814  0.2119
    6CHL1  H18B  399   6.479   0.108   5.566  2.8912  0.2160  1.2412
    6CHL1  H18C  400   6.441   0.131   5.733  1.4760 -1.7396 -1.8948
    6CHL1   C12  401   6.658   0.299   5.653 -0.9483  0.5511  0.2438
    6CHL1  H12A  402   6.699   0.215   5.593  1.0293  0.0819  2.1292
    6CHL1  H12B  403   6.724   0.388   5.649 -0.6945  0.3258 -2.0392
    6CHL1   C11  404   6.686   0.244   5.793  0.9010 -1.0684 -0.1102
    6CHL1  H11A  405   6.648   0.140   5.786  0.3098 -0.7693 -1.8645
    6CHL1  H11B  406   6.796   0.250   5.807  0.6066  0.6989  1.8687
    6CHL1    C9  407   6.615   0.327   5.914 -0.2442  0.1208 -0.0908
    6CHL1    H9  408   6.661   0.428   5.907  0.4487 -0.2612 -1.3618
    6CHL1   C10  409   6.637   0.271   6.059 -0.0258  0.3595  0.6780
    6CHL1   C19  410   6.593   0.118   6.049 -0.7482 -0.8007 -0.1994
    6CHL1  H19A  411   6.491   0.113   6.004  0.0958  1.5516 -2.6748
    6CHL1  H19B  412   6.676   0.065   5.998  1.0664  0.4036  1.3817
    6CHL1  H19C  413   6.594   0.071   6.149  1.0078  1.1371  0.7528
    6CHL1    C1  414   6.785   0.290   6.100  0.2591  0.2841  0.2740
    6CHL1   H1A  415   6.839   0.213   6.041 -2.3700 -0.6222 -1.1294
    6CHL1   H1B  416   6.814   0.393   6.068  2.2849 -0.4231 -0.3297
    6CHL1    C2  417   6.811   0.258   6.251 -0.0323 -0.1963  0.5234
    6CHL1   H2A  418   6.916   0.284   6.273 -0.2738 -0.3478  1.8981
    6CHL1   H2B  419   6.811   0.147   6.258  0.2422 -0.1424  1.4277
    6CHL1   C20  420   6.459   0.320   5.367  0.6755  0.0506  0.1215
    6CHL1   H20  421   6.409   0.221   5.380  0.4674  0.0531 -0.6405
    6CHL1   C21  422   6.607   0.301   5.319  0.3579  0.1677 -0.1151
    6CHL1  H21A  423   6.672   0.242   5.387  0.6091  1.8630  1.1974
    6CHL1  H21B  424   6.655   0.401   5.311 -1.0678  1.1901  2.7049
    6CHL1  H21C  425   6.600   0.256   5.218 -0.0970  1.0316 -0.4835
    6CHL1   C22  426   6.379   0.395   5.257 -0.2153  0.3504  0.4618
    6CHL1  H22A  427   6.270   0.382   5.275 -0.1829 -1.6186 -0.4501
    6CHL1  H22B  428   6.406   0.501   5.274  2.1347 -0.3526  1.4438
    6CHL1   C23  429   6.392   0.354   5.109 -0.1364  0.3318 -0.4707
    6CHL1  H23A  430   6.494   0.365   5.068  1.8258  0.6973  3.9431
    6CHL1  H23B  431   6.364   0.247   5.100 -2.4647  0.6485  1.7052
    6CHL1   C24  432   6.302   0.435   5.013  0.5154  0.2425  0.2657
    6CHL1  H24A  433   6.197   0.403   5.033  0.6496 -0.1708  0.3257
    6CHL1  H24B  434   6.310   0.543   5.037 -0.3093  0.8880 -2.1147
    6CHL1   C25  435   6.334   0.437   4.860 -0.1714 -0.0543 -0.0215
    6CHL1   H25  436   6.439   0.473   4.852  0.4262 -1.8841 -0.9768
    6CHL1   C26  437   6.345   0.289   4.801 -0.6478 -0.0272  0.4217
    6CHL1  H26A  438   6.371   0.288   4.693 -1.7515 -0.1397  0.1396
    6CHL1  H26B  439   6.438   0.237   4.830  1.8028  2.0316 -2.8664
    6CHL1  H26C  440   6.255   0.227   4.820  0.5567 -1.9141  0.2024
    6CHL1   C27  441   6.243   0.535   4.781  0.2181 -0.3063  0.0434
    6CHL1  H27A  442   6.140   0.494   4.777  0.3634 -1.0609  2.3594
    6CHL1  H27B  443   6.246   0.635   4.829  0.6484 -0.7441  0.9702
    6CHL1  H27C  444   6.292   0.556   4.684  2.5713 -0.9020  1.0047
    7CHL1    C3  445   2.336   5.624   6.189 -0.6666 -0.6832  0.8942
    7CHL1    H3  446   2.352   5.728   6.154 -0.1323 -0.6551  1.2150
    7CHL1    O3  447   2.377   5.612   6.316 -0.0227 -0.5618 -0.0116
    7CHL1   H3'  448   2.296   5.602   6.367  0.5842 -0.4221  1.0173
    7CHL1    C4  449   2.182   5.607   6.179  0.4409 -0.1004  0.1911
    7CHL1   H4A  450   2.153   5.512   6.227  0.3912 -0.1445  0.0741
    7CHL1   H4B  451   2.142   5.692   6.238 -2.5877 -0.5304 -1.0816
    7CHL1    C5  452   2.147   5.625   6.031 -0.1847  0.7227 -0.2693
    7CHL1    C6  453   2.046   5.709   5.998 -0.7982 -0.7876  0.1394
    7CHL1    H6  454   1.990   5.772   6.069  0.5636  1.4796 -0.6649
    7CHL1    C7  455   2.006   5.726   5.854  0.3463 -0.0516 -0.5342
    7CHL1   H7A  456   1.896   5.709   5.861  0.5400 -1.1953 -0.0918
    7CHL1   H7B  457   2.030   5.826   5.810 -0.4527  0.5940  0.4495
    7CHL1    C8  458   2.062   5.611   5.763 -0.3766 -0.6580 -0.3345
    7CHL1    H8  459   2.006   5.518   5.790  1.8692 -2.2559 -0.8684
    7CHL1   C14  460   2.053   5.647   5.618  0.5112  0.2813  0.2666
    7CHL1   H14  461   2.125   5.729   5.601 -0.3029  0.6235 -1.8720
    7CHL1   C15  462   1.914   5.695   5.568 -0.4614 -0.0089  0.8478
    7CHL1  H15A  463   1.832   5.638   5.615  0.7943 -2.1328  0.5646
    7CHL1  H15B  464   1.911   5.806   5.574  1.2252  0.1552 -0.4650
    7CHL1   C16  465   1.901   5.650   5.423 -0.4754  1.1630 -0.0597
    7CHL1  H16A  466   1.838   5.559   5.418  1.5328 -0.2993  0.2967
    7CHL1  H16B  467   1.870   5.734   5.356  0.9188 -0.0099 -2.3147
    7CHL1   C17  468   2.045   5.605   5.389  0.3739  0.2377  0.7077
    7CHL1   H17  469   2.106   5.697   5.379  0.7193 -0.1311 -0.7607
    7CHL1   C13  470   2.095   5.536   5.523 -0.6787 -0.2862 -0.1500
    7CHL1   C18  471   2.014   5.404   5.545  0.6870 -0.2212  0.0766
    7CHL1  H18A  472   2.023   5.340   5.455 -0.7250  0.3605 -0.5058
    7CHL1  H18B  473   2.051   5.329   5.618 -0.1598 -1.2743 -0.5369
    7CHL1  H18C  474   1.907   5.425   5.569  0.8136  1.1743 -0.5492
    7CHL1   C12  475   2.242   5.505   5.540  0.1386 -0.3555 -0.5080
    7CHL1  H12A  476   2.269   5.413   5.485  2.4316 -1.2562  1.9129
    7CHL1  H12B  477   2.295   5.596   5.505 -0.5594  0.4991  0.5628
    7CHL1   C11  478   2.269   5.473   5.687  0.2039 -0.2154  0.6915
    7CHL1  H11A  479   2.223   5.374   5.705 -4.8325  1.8255  0.7782
    7CHL1  H11B  480   2.380   5.471   5.697  0.2417 -0.4791  0.2595
    7CHL1    C9  481   2.210   5.576   5.792  0.1230 -0.4462  0.2493
    7CHL1    H9  482   2.259   5.675   5.781 -2.6560  1.0809  0.8222
    7CHL1   C10  483   2.226   5.529   5.935 -0.2286 -0.3067 -0.0645
    7CHL1   C19  484   2.170   5.388   5.951 -0.1156 -0.9103  0.4485
    7CHL1  H19A  485   2.187   5.363   6.058  1.1353  1.7769  0.9515
    7CHL1  H19B  486   2.061   5.375   5.930 -0.2966 -2.1122  1.9258
    7CHL1  H19C  487   2.237   5.319   5.895  2.5224  0.9679  1.0927
    7CHL1    C1  488   2.371   5.544   5.954 -0.3623 -0.3951 -1.6718
    7CHL1   H1A  489   2.433   5.467   5.903  0.4043 -0.2458 -1.0027
    7CHL1   H1B  490   2.408   5.645   5.926  1.0917 -0.2328  0.5698
    7CHL1    C2  491   2.409   5.530   6.106  0.1766 -0.0828 -0.0370
    7CHL1   H2A  492   2.518   5.548   6.118  0.8952 -2.5899 -1.8906
    7CHL1   H2B  493   2.392   5.424   6.134 -0.1674  0.4192  1.7841
    7CHL1   C20  494   2.057   5.523   5.258  0.5021  0.0238 -0.5042
    7CHL1   H20  495   2.001   5.427   5.263 -0.2379  0.5042  0.9091
    7CHL1   C21  496   2.207   5.505   5.228 -1.4849 -0.0992 -0.1074
    7CHL1  H21A  497   2.220   5.506   5.118 -0.6998 -1.6688 -0.0481
    7CHL1  H21B  498   2.249   5.418   5.282 -0.7648  1.8330  2.7153
    7CHL1  H21C  499   2.272   5.589   5.262 -1.5478  0.4698 -1.3354
    7CHL1   C22  500   1.985   5.591   5.141 -0.0972 -0.2936  0.2666
    7CHL1  H22A  501   1.888   5.643   5.159  0.8060  1.8015 -0.5147
    7CHL1  H22B  502   2.059   5.660   5.095 -1.6354 -0.5992 -2.8956
    7CHL1   C23  503   1.960   5.481   5.035  0.2441  0.2969 -0.3534
    7CHL1  H23A  504   2.052   5.419   5.036  1.1941  1.6592  0.3662
    7CHL1  H23B  505   1.882   5.410   5.071  0.9004 -0.6856 -0.8177
    7CHL1   C24  506   1.902   5.528   4.900  0.6249 -0.1014  0.1500
    7CHL1  H24A  507   1.875   5.433   4.849 -1.3468 -0.4807  1.7535
    7CHL1  H24B  508   1.807   5.583   4.916  1.1068  1.1057 -0.9499
    7CHL1   C25  509   1.996   5.614   4.814 -0.2228  0.1204  0.1604
    7CHL1   H25  510   2.021   5.702   4.877 -0.4657 -0.3868  0.9764
    7CHL1   C26  511   2.125   5.536   4.788 -0.3434 -0.3470  0.2938
    7CHL1  H26A  512   2.198   5.579   4.716  0.0168  1.2463  1.5677
    7CHL1  H26B  513   2.179   5.516   4.882 -0.8413 -2.3994  0.1935
    7CHL1  H26C  514   2.095   5.438   4.746  0.1865  0.3974 -1.9689
    7CHL1   C27  515   1.932   5.660   4.683 -0.1564 -0.4383 -0.3649
    7CHL1  H27A  516   2.009   5.705   4.616 -0.9054 -0.9469 -1.5766
    7CHL1  H27B  517   1.881   5.578   4.630 -0.3574 -0.3724 -0.2736
    7CHL1  H27C  518   1.848   5.731   4.693  0.2562  0.0246 -0.1113
    8CHL1    C3  519   6.602   6.393   6.204 -0.0476  0.1275 -0.2149
    8CHL1    H3  520   6.504   6.435   6.172 -0.3820  0.2245  0.8919
    8CHL1    O3  521   6.590   6.352   6.333  0.5973  0.1439 -0.3091
    8CHL1   H3'  522   6.665   6.292   6.343 -1.0866 -2.0903 -0.4717
    8CHL1    C4  523   6.644   6.274   6.116  0.3323 -0.2736 -0.0441
    8CHL1   H4A  524   6.736   6.222   6.150  1.6025  0.1342 -2.6005
    8CHL1   H4B  525   6.567   6.193   6.112  0.9462 -0.8311 -1.0039
    8CHL1    C5  526   6.657   6.316   5.975  0.1577 -0.0439  0.1812
    8CHL1    C6  527   6.575   6.276   5.880 -0.3085  1.3934  0.0576
    8CHL1    H6  528   6.502   6.200   5.912  0.7072  0.0325 -0.7439
    8CHL1    C7  529   6.597   6.298   5.732 -0.3109 -0.0060 -0.3555
    8CHL1   H7A  530   6.597   6.203   5.674 -2.5004 -0.7202  0.6889
    8CHL1   H7B  531   6.510   6.347   5.683  0.1884  1.2113 -0.0682
    8CHL1    C8  532   6.723   6.387   5.695 -0.3263  1.0877 -0.4319
    8CHL1    H8  533   6.818   6.330   5.696  0.1911  1.9332 -0.1173
    8CHL1   C14  534   6.709   6.443   5.558  0.5448 -0.2077  0.0626
    8CHL1   H14  535   6.613   6.498   5.552  1.3157  1.0227 -2.5444
    8CHL1   C15  536   6.695   6.346   5.443  0.1571  0.4119 -0.3323
    8CHL1  H15A  537   6.772   6.267   5.449  0.0972  0.4339  1.0576
    8CHL1  H15B  538   6.592   6.306   5.430  0.3397  0.1019 -0.8605
    8CHL1   C16  539   6.711   6.438   5.321  0.0431 -0.0157 -0.2021
    8CHL1  H16A  540   6.785   6.390   5.253 -0.1012  0.1802 -0.4982
    8CHL1  H16B  541   6.612   6.459   5.274 -0.0639  0.1626  0.1023
    8CHL1   C17  542   6.775   6.573   5.375  0.8544  0.6859  0.1961
    8CHL1   H17  543   6.689   6.642   5.388  0.0366 -0.0636 -0.9916
    8CHL1   C13  544   6.821   6.540   5.521 -0.3130  0.1317 -1.0731
    8CHL1   C18  545   6.952   6.462   5.510  0.1327 -0.4259  0.5248
    8CHL1  H18A  546   7.035   6.530   5.481  0.1121 -1.0144 -1.0554
    8CHL1  H18B  547   6.980   6.424   5.610  1.3824 -2.0803 -0.3880
    8CHL1  H18C  548   6.950   6.378   5.437 -0.8569  1.4382 -1.7204
    8CHL1   C12  549   6.814   6.658   5.623 -0.1521  0.4219  0.4965
    8CHL1  H12A  550   6.899   6.724   5.597  0.9220 -0.7419  0.9288
    8CHL1  H12B  551   6.715   6.705   5.609 -0.3584  0.3304  1.5834
    8CHL1   C11  552   6.833   6.615   5.773 -0.7453  0.4545 -0.8064
    8CHL1  H11A  553   6.933   6.568   5.781 -1.8166 -2.0008 -0.9290
    8CHL1  H11B  554   6.823   6.708   5.832 -0.8591 -0.6434  0.9815
    8CHL1    C9  555   6.731   6.493   5.806 -0.7306  0.2594 -0.2475
    8CHL1    H9  556   6.633   6.544   5.815  0.6338  2.9838  0.1599
    8CHL1   C10  557   6.756   6.434   5.951  0.2158  0.6017 -0.8392
    8CHL1   C19  558   6.898   6.381   5.965 -0.4166 -0.0795 -0.0592
    8CHL1  H19A  559   6.911   6.314   6.053  0.8566  0.0242 -0.1575
    8CHL1  H19B  560   6.937   6.323   5.879  1.9525  3.8433 -1.9443
    8CHL1  H19C  561   6.970   6.465   5.973 -1.5015  0.7537  1.8467
    8CHL1    C1  562   6.730   6.549   6.048  0.3941  0.2981  0.6748
    8CHL1   H1A  563   6.810   6.627   6.047  1.5685 -0.8538  1.4720
    8CHL1   H1B  564   6.630   6.589   6.019  0.1890  0.8310  2.0474
    8CHL1    C2  565   6.702   6.507   6.192  0.1999 -0.5371 -0.1800
    8CHL1   H2A  566   6.673   6.592   6.258 -2.3824 -0.1523 -1.6939
    8CHL1   H2B  567   6.802   6.470   6.221  0.3715 -0.0017 -0.0806
    8CHL1   C20  568   6.871   6.641   5.280 -0.1122  0.2992 -0.3903
    8CHL1   H20  569   6.961   6.577   5.265  0.9641  1.6271  0.1211
    8CHL1   C21  570   6.917   6.777   5.331 -0.0881 -1.0905  0.0669
    8CHL1  H21A  571   6.997   6.770   5.408 -1.5953  1.3006  2.0239
    8CHL1  H21B  572   6.834   6.833   5.379  0.0366  0.1604 -1.0976
    8CHL1  H21C  573   6.950   6.834   5.241 -0.6149 -0.0272  0.5331
    8CHL1   C22  574   6.820   6.657   5.130  0.3332  0.4919 -0.4922
    8CHL1  H22A  575   6.903   6.689   5.064 -1.1145  1.5322 -1.9185
    8CHL1  H22B  576   6.777   6.563   5.089  2.5425  0.3730 -2.7676
    8CHL1   C23  577   6.704   6.758   5.112  0.4208  0.1979  0.7624
    8CHL1  H23A  578   6.618   6.715   5.169  0.9240  0.8997  2.0895
    8CHL1  H23B  579   6.739   6.856   5.151  1.8540  1.6207 -3.5704
    8CHL1   C24  580   6.654   6.764   4.966 -0.4328  0.1296  0.1626
    8CHL1  H24A  581   6.619   6.665   4.928  0.5188 -0.4881  0.8605
    8CHL1  H24B  582   6.564   6.829   4.969 -0.3632  0.3939 -1.8212
    8CHL1   C25  583   6.751   6.822   4.861 -0.0439  0.0567  0.5348
    8CHL1   H25  584   6.846   6.765   4.869  0.0596 -0.1949 -1.7705
    8CHL1   C26  585   6.688   6.788   4.728 -0.2021  0.1294  0.3949
    8CHL1  H26A  586   6.589   6.838   4.726  0.3680  1.3006  0.5964
    8CHL1  H26B  587   6.752   6.820   4.643 -0.4626 -0.7062 -0.1240
    8CHL1  H26C  588   6.669   6.679   4.724 -0.1234  0.0961  0.9131
    8CHL1   C27  589   6.791   6.971   4.880  0.0308 -0.1281  0.0162
    8CHL1  H27A  590   6.877   7.006   4.818  2.6520 -0.7925  2.9876
    8CHL1  H27B  591   6.701   7.034   4.861 -0.7578 -1.5901 -1.3107
    8CHL1  H27C  592   6.818   6.986   4.987  1.2838 -1.4638 -0.0793
    9CHL1    C3  593   3.066   6.757   6.691  0.2707 -0.0738 -0.5294
    9CHL1    H3  594   3.034   6.658   6.651  0.9589  0.4558 -2.4598
    9CHL1    O3  595   3.068   6.758   6.831  0.1309  0.1377  0.4047
    9CHL1   H3'  596   3.104   6.841   6.863 -0.0015  0.1160  0.6115
    9CHL1    C4  597   3.211   6.795   6.649 -0.2857  0.0691 -0.0158
    9CHL1   H4A  598   3.236   6.896   6.688  0.8786 -0.3679  0.4278
    9CHL1   H4B  599   3.273   6.719   6.702 -0.9433 -0.1262  0.4838
    9CHL1    C5  600   3.219   6.795   6.494 -0.4124 -0.1673 -0.4165
    9CHL1    C6  601   3.299   6.718   6.424 -0.7035 -0.7450  0.3073
    9CHL1    H6  602   3.368   6.656   6.484  0.9856  2.4040  1.8697
    9CHL1    C7  603   3.307   6.727   6.269  0.3346 -0.1995  0.3350
    9CHL1   H7A  604   3.416   6.729   6.245  0.4032 -1.7248  0.3846
    9CHL1   H7B  605   3.264   6.636   6.222  0.5763  0.8268 -2.0605
    9CHL1    C8  606   3.237   6.845   6.201  0.4443 -0.2717  0.3428
    9CHL1    H8  607   3.309   6.928   6.218  0.8180 -0.2319 -1.2954
    9CHL1   C14  608   3.217   6.816   6.052  0.0681 -0.2986 -0.2933
    9CHL1   H14  609   3.148   6.730   6.041 -0.4648  0.2200 -1.1986
    9CHL1   C15  610   3.338   6.782   5.958  0.9226 -0.2699  0.2401
    9CHL1  H15A  611   3.433   6.836   5.975  0.7676 -0.1408  0.7184
    9CHL1  H15B  612   3.357   6.673   5.968 -1.1394 -0.7622 -0.5543
    9CHL1   C16  613   3.282   6.813   5.824  0.2928  0.0480 -0.1921
    9CHL1  H16A  614   3.350   6.884   5.772  1.6807 -0.0256  1.4409
    9CHL1  H16B  615   3.288   6.714   5.773  1.3738  0.2443 -0.4826
    9CHL1   C17  616   3.141   6.878   5.834  0.2395  0.5401  0.2538
    9CHL1   H17  617   3.070   6.793   5.836  0.6111  0.2293  0.6023
    9CHL1   C13  618   3.137   6.928   5.984  0.4000 -0.3046 -0.1649
    9CHL1   C18  619   3.216   7.069   5.986 -0.2596 -0.5982  0.1389
    9CHL1  H18A  620   3.164   7.152   5.932 -0.6730  0.3539  1.9151
    9CHL1  H18B  621   3.208   7.107   6.090 -0.0410  0.1715 -0.1204
    9CHL1  H18C  622   3.319   7.041   5.958 -0.5321 -1.0157 -0.4771
    9CHL1   C12  623   3.000   6.933   6.054  0.0985  0.2710  0.4312
    9CHL1  H12A  624   2.939   7.014   6.010  0.6990  0.2967 -0.3861
    9CHL1  H12B  625   2.947   6.836   6.045 -0.8750  0.7654  0.8003
    9CHL1   C11  626   3.020   6.967   6.199 -0.2075 -0.1665  0.1318
    9CHL1  H11A  627   3.073   7.065   6.206 -3.5986  2.0410 -1.8108
    9CHL1  H11B  628   2.922   6.962   6.251 -0.1295 -1.2258  0.1982
    9CHL1    C9  629   3.104   6.864   6.277 -0.0822 -0.4311 -0.5747
    9CHL1    H9  630   3.053   6.766   6.267 -1.5685  0.2038  0.4986
    9CHL1   C10  631   3.115   6.895   6.433  0.3390 -0.8784  0.5769
    9CHL1   C19  632   3.151   7.042   6.458 -0.5204  0.3647  0.2318
    9CHL1  H19A  633   3.080   7.115   6.413  2.3798  2.3489 -1.4637
    9CHL1  H19B  634   3.159   7.065   6.567 -0.4335  2.5403 -0.1824
    9CHL1  H19C  635   3.253   7.064   6.420  0.0576  0.3737  1.7050
    9CHL1    C1  636   2.963   6.881   6.493 -0.3499 -0.0666  0.6488
    9CHL1   H1A  637   2.902   6.966   6.455  1.1540  0.2544 -1.1917
    9CHL1   H1B  638   2.924   6.789   6.444  0.4056  0.4076 -0.9042
    9CHL1    C2  639   2.957   6.855   6.645  0.1145 -0.0543  0.8165
    9CHL1   H2A  640   2.859   6.809   6.671  0.4666 -2.0891 -1.1147
    9CHL1   H2B  641   2.984   6.956   6.682  0.7244 -0.1831  0.7361
    9CHL1   C20  642   3.105   6.975   5.721  0.3544 -0.3941 -0.0046
    9CHL1   H20  643   3.150   7.076   5.728 -3.3447  1.6511 -2.2046
    9CHL1   C21  644   2.953   6.991   5.728 -0.5025 -0.9312  0.4089
    9CHL1  H21A  645   2.917   7.027   5.827  1.4626  2.7008 -0.0496
    9CHL1  H21B  646   2.908   6.892   5.704  0.2014 -0.7405 -1.9815
    9CHL1  H21C  647   2.925   7.073   5.659 -2.1470  0.4016  2.5443
    9CHL1   C22  648   3.138   6.922   5.573 -0.2375 -0.5046  0.3382
    9CHL1  H22A  649   3.246   6.899   5.568  0.0643 -0.3354  4.0214
    9CHL1  H22B  650   3.085   6.827   5.552 -1.4272  0.6776 -2.5517
    9CHL1   C23  651   3.101   7.015   5.463  0.5245  0.1596  0.5722
    9CHL1  H23A  652   2.990   7.025   5.460 -0.0022 -4.0486 -0.0589
    9CHL1  H23B  653   3.137   7.115   5.492  0.8259  0.8136 -1.8919
    9CHL1   C24  654   3.147   6.976   5.319  0.9320  0.3055 -0.0803
    9CHL1  H24A  655   3.250   6.936   5.328  1.1693  1.3026  2.3452
    9CHL1  H24B  656   3.086   6.896   5.270 -0.9252  0.3599  1.9983
    9CHL1   C25  657   3.146   7.087   5.208  0.7404 -0.4713  0.4948
    9CHL1   H25  658   3.190   7.179   5.251 -2.2555  0.6791  1.3570
    9CHL1   C26  659   3.221   7.042   5.078  0.7108 -0.1451 -0.8369
    9CHL1  H26A  660   3.330   7.025   5.094  0.3334 -1.5711  0.5200
    9CHL1  H26B  661   3.178   6.944   5.047 -2.9083  0.8748  0.4794
    9CHL1  H26C  662   3.216   7.115   4.994  1.2265 -0.4948 -1.1823
    9CHL1   C27  663   3.000   7.127   5.169 -0.8519  0.4883  0.0388
    9CHL1  H27A  664   2.999   7.214   5.101  1.7490  1.4925  1.1415
    9CHL1  H27B  665   2.947   7.035   5.137 -1.1212 -0.1893  2.2263
    9CHL1  H27C  666   2.960   7.158   5.268 -1.0218 -3.9603  1.5884
   10CHL1    C3  667   2.735   2.614   6.243  0.4648  0.6676 -0.1600
   10CHL1    H3  668   2.781   2.519   6.276 -0.3010  0.2981 -0.1446
   10CHL1    O3  669   2.651   2.662   6.346  0.2229  0.0853  0.1123
   10CHL1   H3'  670   2.700   2.736   6.383  0.4041  0.8676 -1.6035
   10CHL1    C4  671   2.836   2.730   6.211  0.8544  0.5646  0.0554
   10CHL1   H4A  672   2.778   2.824   6.200  0.6262  0.5083  0.7618
   10CHL1   H4B  673   2.893   2.751   6.304  0.6852  0.3599  0.2057
   10CHL1    C5  674   2.921   2.708   6.084  0.8020  0.2915 -0.4037
   10CHL1    C6  675   3.050   2.701   6.100  0.1025  0.0564  0.4039
   10CHL1    H6  676   3.091   2.723   6.200 -1.1234  1.0404  0.7185
   10CHL1    C7  677   3.148   2.678   5.983 -0.2109  0.5103  0.1191
   10CHL1   H7A  678   3.235   2.747   5.983 -0.1421  0.4361 -0.8430
   10CHL1   H7B  679   3.192   2.576   5.992  3.0779  1.5711 -2.1542
   10CHL1    C8  680   3.078   2.707   5.848  0.2707  0.1939 -0.1928
   10CHL1    H8  681   3.065   2.816   5.830 -0.7847  0.4660  1.9360
   10CHL1   C14  682   3.169   2.648   5.740 -0.2696 -0.2753 -0.0754
   10CHL1   H14  683   3.184   2.540   5.760  1.8055 -0.0654 -0.2202
   10CHL1   C15  684   3.311   2.702   5.725 -0.3041  0.3439 -0.3210
   10CHL1  H15A  685   3.306   2.813   5.735  1.2027  0.4911 -0.8915
   10CHL1  H15B  686   3.382   2.668   5.803  1.9419  2.1658 -1.4416
   10CHL1   C16  687   3.359   2.660   5.581 -0.3717 -0.2156 -0.4882
   10CHL1  H16A  688   3.384   2.752   5.525 -0.7008 -0.3671 -0.8894
   10CHL1  H16B  689   3.444   2.589   5.572 -0.4607 -0.5253  0.8978
   10CHL1   C17  690   3.227   2.596   5.519 -0.1136 -0.2323  0.5362
   10CHL1   H17  691   3.240   2.490   5.551 -0.1262 -0.4119 -0.0387
   10CHL1   C13  692   3.113   2.653   5.601  0.3902  0.1352  0.3921
   10CHL1   C18  693   3.086   2.791   5.554 -0.3278 -0.9147 -0.0654
   10CHL1  H18A  694   3.016   2.780   5.469  0.5590  1.1653 -1.1259
   10CHL1  H18B  695   3.020   2.848   5.623 -2.7240 -2.7517 -0.7135
   10CHL1  H18C  696   3.174   2.854   5.529  1.9510 -3.1510  1.8011
   10CHL1   C12  697   2.982   2.571   5.599 -0.5392 -0.5201  0.0435
   10CHL1  H12A  698   2.945   2.594   5.497  2.4509  0.2989 -0.9603
   10CHL1  H12B  699   2.985   2.462   5.618 -3.9324 -0.6865  0.2005
   10CHL1   C11  700   2.877   2.631   5.692  0.1571 -0.2599  0.0971
   10CHL1  H11A  701   2.848   2.733   5.660 -1.3507  0.4654  3.3257
   10CHL1  H11B  702   2.782   2.573   5.696 -1.7795  2.7872  1.2890
   10CHL1    C9  703   2.941   2.644   5.838  0.6206 -0.0646  0.6383
   10CHL1    H9  704   2.943   2.535   5.863 -0.9291 -0.5399 -1.1206
   10CHL1   C10  705   2.844   2.688   5.953  1.0846  0.2936 -0.5089
   10CHL1   C19  706   2.772   2.824   5.911 -0.6393  0.0499 -0.4243
   10CHL1  H19A  707   2.703   2.813   5.825 -2.9550 -1.0183  1.4346
   10CHL1  H19B  708   2.708   2.855   5.997 -1.8322 -0.6859 -1.0265
   10CHL1  H19C  709   2.855   2.896   5.896  2.6999 -2.7254  2.6956
   10CHL1    C1  710   2.739   2.578   5.978 -0.2465 -0.5936 -0.0067
   10CHL1   H1A  711   2.666   2.576   5.895 -1.0029  1.1276  0.5836
   10CHL1   H1B  712   2.793   2.481   5.982  0.6334 -0.0880  0.8601
   10CHL1    C2  713   2.658   2.591   6.115  0.5836  0.6135  0.5627
   10CHL1   H2A  714   2.601   2.498   6.137  1.8532 -0.2987  0.1025
   10CHL1   H2B  715   2.581   2.669   6.095 -0.1946 -0.4940 -0.9460
   10CHL1   C20  716   3.224   2.603   5.364 -0.7506 -0.5500  0.1667
   10CHL1   H20  717   3.164   2.688   5.326  0.7607  0.9274  0.9424
   10CHL1   C21  718   3.171   2.459   5.325 -0.9480  0.2255 -0.1803
   10CHL1  H21A  719   3.161   2.461   5.214  0.3612 -0.1403 -0.3207
   10CHL1  H21B  720   3.072   2.438   5.370 -0.1694 -0.1790  1.3999
   10CHL1  H21C  721   3.247   2.384   5.353 -0.4734  0.7388 -0.0731
   10CHL1   C22  722   3.362   2.620   5.303  0.2556  0.6538  0.1223
   10CHL1  H22A  723   3.402   2.722   5.320  2.6962 -0.2800  0.3103
   10CHL1  H22B  724   3.432   2.541   5.337  2.5220  1.1648 -2.9630
   10CHL1   C23  725   3.364   2.621   5.150  0.5156 -0.2642  0.7609
   10CHL1  H23A  726   3.346   2.517   5.115 -2.3964  0.6145 -0.6023
   10CHL1  H23B  727   3.285   2.691   5.117  1.7826  0.1552 -1.6148
   10CHL1   C24  728   3.491   2.663   5.091  0.6696  0.0926 -0.5685
   10CHL1  H24A  729   3.510   2.766   5.127  0.9536  0.0651 -0.6444
   10CHL1  H24B  730   3.564   2.590   5.131  0.4763  0.8379  1.2301
   10CHL1   C25  731   3.487   2.681   4.944 -0.2813 -0.4252  0.4310
   10CHL1   H25  732   3.427   2.771   4.920  1.0408  0.3647  0.0016
   10CHL1   C26  733   3.620   2.720   4.880  0.2417 -0.3202 -0.1187
   10CHL1  H26A  734   3.598   2.705   4.772  0.9426  2.4798 -0.7162
   10CHL1  H26B  735   3.648   2.827   4.892  0.5645 -0.2804 -1.1116
   10CHL1  H26C  736   3.704   2.656   4.917 -0.5987 -0.4059  1.7222
   10CHL1   C27  737   3.419   2.577   4.863 -0.2917  0.2884 -0.2580
   10CHL1  H27A  738   3.449   2.474   4.890 -1.7865  0.5123  2.6746
   10CHL1  H27B  739   3.308   2.577   4.876 -0.4522 -1.6161 -1.1855
   10CHL1  H27C  740   3.432   2.603   4.756  0.2967  0.8337 -0.0591
   11CHL1    C3  741   6.566   5.577   6.441 -0.5247 -0.7182  0.8649
   11CHL1    H3  742   6.552   5.468   6.426 -0.0286 -0.6469 -0.2314
   11CHL1    O3  743   6.587   5.611   6.580  0.2756  0.1067  0.4868
   11CHL1   H3'  744   6.634   5.694   6.570 -0.7120  0.4884 -1.7317
   11CHL1    C4  745   6.691   5.638   6.363 -0.3113  0.0758 -0.0696
   11CHL1   H4A  746   6.703   5.747   6.384 -0.3751 -0.0942  0.9167
   11CHL1   H4B  747   6.780   5.587   6.407  0.6471  1.7203  0.0018
   11CHL1    C5  748   6.681   5.615   6.215  0.6327  0.5702  0.0650
   11CHL1    C6  749   6.767   5.547   6.141  0.0115  0.1415  0.1220
   11CHL1    H6  750   6.853   5.502   6.192 -0.7451  0.5617  1.8602
   11CHL1    C7  751   6.758   5.522   6.002 -0.8125 -0.4518  0.7960
   11CHL1   H7A  752   6.861   5.524   5.961 -0.4606 -0.0038  1.6750
   11CHL1   H7B  753   6.711   5.422   5.986 -1.2702  0.0414 -1.1820
   11CHL1    C8  754   6.676   5.634   5.938  0.0451  0.0639 -0.4707
   11CHL1    H8  755   6.738   5.727   5.937  1.7588 -1.0113  0.3491
   11CHL1   C14  756   6.647   5.601   5.792  0.0463 -0.0740 -0.2226
   11CHL1   H14  757   6.579   5.514   5.805 -0.4742  0.6265  2.3554
   11CHL1   C15  758   6.766   5.556   5.707 -0.4045 -0.4740  0.2102
   11CHL1  H15A  759   6.853   5.623   5.723 -0.9907  0.6287 -0.9680
   11CHL1  H15B  760   6.786   5.446   5.710 -2.6698 -1.1336 -3.1715
   11CHL1   C16  761   6.717   5.586   5.566  0.8376 -0.0732 -0.4878
   11CHL1  H16A  762   6.773   5.669   5.518 -1.6308  0.6285 -2.3764
   11CHL1  H16B  763   6.706   5.500   5.497  1.7969 -2.3588  2.0467
   11CHL1   C17  764   6.565   5.635   5.571 -0.0846 -0.5364  0.3374
   11CHL1   H17  765   6.507   5.540   5.576 -0.4049 -0.2917  2.1851
   11CHL1   C13  766   6.561   5.704   5.712 -0.5991  0.2507  0.2889
   11CHL1   C18  767   6.617   5.851   5.704  0.2931  0.4285  0.3751
   11CHL1  H18A  768   6.530   5.912   5.669 -1.1571 -1.7186  0.0052
   11CHL1  H18B  769   6.658   5.892   5.798 -0.9955 -0.1241  1.2053
   11CHL1  H18C  770   6.694   5.849   5.624  0.4285 -0.3195  0.5117
   11CHL1   C12  771   6.420   5.708   5.785 -0.2693 -0.3806  0.2083
   11CHL1  H12A  772   6.357   5.785   5.733  0.9322  1.2550  1.0738
   11CHL1  H12B  773   6.367   5.611   5.786 -1.6834  0.3047 -1.7908
   11CHL1   C11  774   6.445   5.752   5.927  0.0181 -0.0265 -0.2858
   11CHL1  H11A  775   6.483   5.855   5.936  0.5284 -0.1103 -1.3776
   11CHL1  H11B  776   6.348   5.750   5.981  0.2874  0.3074  0.2163
   11CHL1    C9  777   6.541   5.659   6.001 -0.5268  0.2675 -0.2396
   11CHL1    H9  778   6.497   5.556   6.002  1.0461 -0.4443 -1.0770
   11CHL1   C10  779   6.562   5.693   6.154 -0.1468  0.4674  0.2496
   11CHL1   C19  780   6.576   5.850   6.173  0.3008  0.2561  0.3373
   11CHL1  H19A  781   6.482   5.905   6.151  1.8918  3.1450  0.3033
   11CHL1  H19B  782   6.598   5.873   6.279 -0.1436  1.3884  0.1971
   11CHL1  H19C  783   6.661   5.874   6.106  1.6312 -0.2934  1.7767
   11CHL1    C1  784   6.430   5.642   6.233  0.0963  0.3557  0.0283
   11CHL1   H1A  785   6.338   5.690   6.195  0.0963  1.7548  1.6762
   11CHL1   H1B  786   6.424   5.534   6.208 -0.6498  0.2254  0.7100
   11CHL1    C2  787   6.440   5.651   6.390  0.0045  0.1659  1.0959
   11CHL1   H2A  788   6.345   5.602   6.419 -1.0670  0.1141 -2.1623
   11CHL1   H2B  789   6.440   5.758   6.417  2.3592  0.7644 -0.8893
   11CHL1   C20  790   6.531   5.716   5.449 -0.4940  0.2607  0.0521
   11CHL1   H20  791   6.577   5.817   5.445 -1.6751  0.7833 -2.7916
   11CHL1   C21  792   6.378   5.739   5.457  0.2748 -0.4984  1.0563
   11CHL1  H21A  793   6.343   5.812   5.533  1.1806 -0.3406  1.3355
   11CHL1  H21B  794   6.317   5.648   5.471  0.4115 -0.5391  1.3841
   11CHL1  H21C  795   6.341   5.771   5.357  2.0209 -1.1582  0.1363
   11CHL1   C22  796   6.567   5.646   5.312  0.4391 -0.6877 -0.3039
   11CHL1  H22A  797   6.677   5.629   5.315  1.2896  3.4395  3.3413
   11CHL1  H22B  798   6.515   5.548   5.308 -0.1389 -0.3974 -0.1210
   11CHL1   C23  799   6.544   5.722   5.184 -0.2621  0.1139  0.9632
   11CHL1  H23A  800   6.433   5.721   5.178 -0.3694 -0.6136  2.4636
   11CHL1  H23B  801   6.582   5.824   5.207  3.4084 -0.8146 -0.2184
   11CHL1   C24  802   6.588   5.650   5.049  0.7001 -0.2809  0.2971
   11CHL1  H24A  803   6.699   5.648   5.054  0.6795  0.5668  1.2452
   11CHL1  H24B  804   6.541   5.549   5.044 -0.4976  0.3244 -1.9347
   11CHL1   C25  805   6.537   5.730   4.927  0.1566 -0.0681 -0.1922
   11CHL1   H25  806   6.559   5.837   4.948  0.1465  0.2365 -1.6386
   11CHL1   C26  807   6.609   5.683   4.805 -0.3523 -0.1869  0.5148
   11CHL1  H26A  808   6.710   5.642   4.829 -0.5001 -0.3114  0.9413
   11CHL1  H26B  809   6.565   5.596   4.752 -2.9577  1.6079 -0.4374
   11CHL1  H26C  810   6.621   5.758   4.724  1.9968 -1.4320 -0.4014
   11CHL1   C27  811   6.385   5.723   4.908  0.5889  0.3718 -0.3015
   11CHL1  H27A  812   6.334   5.769   4.996 -1.0641  0.2020 -1.1340
   11CHL1  H27B  813   6.350   5.773   4.815  0.9973 -1.0194 -1.2310
   11CHL1  H27C  814   6.361   5.614   4.908 -0.6647  0.4031  4.5108
   12CHL1    C3  815   1.050   4.667   6.275  0.0672 -0.3138 -0.5834
   12CHL1    H3  816   1.043   4.764   6.222  0.5438  1.0039  1.6481
   12CHL1    O3  817   1.090   4.691   6.412  0.2683 -0.7437 -0.0579
   12CHL1   H3'  818   1.126   4.609   6.447  2.5646  0.5190  0.7073
   12CHL1    C4  819   0.916   4.589   6.280 -0.1616  0.1708  0.2637
   12CHL1   H4A  820   0.934   4.501   6.345  1.0493 -0.9365 -1.4553
   12CHL1   H4B  821   0.834   4.650   6.323 -1.2353 -1.9647  1.3667
   12CHL1    C5  822   0.871   4.550   6.139 -0.2620  0.1221  0.5135
   12CHL1    C6  823   0.753   4.592   6.092 -0.0460  0.0330  0.3133
   12CHL1    H6  824   0.682   4.645   6.157 -1.4628 -0.7599 -0.5268
   12CHL1    C7  825   0.700   4.529   5.966 -0.6049  0.0702  0.2571
   12CHL1   H7A  826   0.602   4.479   5.984 -1.6172  1.4688 -1.1524
   12CHL1   H7B  827   0.671   4.604   5.889 -4.4249 -1.6429 -0.2069
   12CHL1    C8  828   0.780   4.413   5.901  0.1041 -0.4590 -0.5429
   12CHL1    H8  829   0.759   4.320   5.958  3.4882 -1.9516 -1.4199
   12CHL1   C14  830   0.738   4.394   5.761 -0.2230  0.6713 -0.0830
   12CHL1   H14  831   0.768   4.487   5.708 -0.7706  0.6703 -0.4044
   12CHL1   C15  832   0.587   4.367   5.743  0.4529 -0.4371 -0.1771
   12CHL1  H15A  833   0.569   4.305   5.833  0.9404  0.8369  0.8381
   12CHL1  H15B  834   0.535   4.463   5.763 -1.2014 -1.7219  2.1693
   12CHL1   C16  835   0.580   4.300   5.607 -0.5753  0.4207 -0.4698
   12CHL1  H16A  836   0.532   4.200   5.611 -0.2506  0.2769 -0.0888
   12CHL1  H16B  837   0.522   4.364   5.537  0.3261  0.5066 -1.1653
   12CHL1   C17  838   0.733   4.280   5.558  0.5896 -0.2941  0.6681
   12CHL1   H17  839   0.754   4.372   5.499 -1.1040 -0.4255 -0.2220
   12CHL1   C13  840   0.814   4.283   5.690 -0.0285  0.1365 -0.0708
   12CHL1   C18  841   0.784   4.151   5.754  0.3855 -0.6851 -0.2144
   12CHL1  H18A  842   0.678   4.118   5.756  0.0684  0.3171  0.7078
   12CHL1  H18B  843   0.844   4.069   5.707  0.7103 -1.0050  0.7233
   12CHL1  H18C  844   0.819   4.153   5.859 -0.8532  2.4017  0.2490
   12CHL1   C12  845   0.967   4.309   5.698  0.4891 -0.0706 -0.2698
   12CHL1  H12A  846   1.035   4.232   5.654  0.5504  0.5201 -1.2361
   12CHL1  H12B  847   0.980   4.411   5.657 -0.9860  1.0819  1.9087
   12CHL1   C11  848   1.012   4.332   5.848 -0.0440  0.6129 -0.2313
   12CHL1  H11A  849   0.998   4.231   5.892  2.6845  0.9517  1.6537
   12CHL1  H11B  850   1.120   4.357   5.848 -0.0054  0.4386  0.0202
   12CHL1    C9  851   0.929   4.436   5.917  0.0984 -0.4550 -0.0032
   12CHL1    H9  852   0.953   4.531   5.864  2.5408  0.6505  2.7429
   12CHL1   C10  853   0.974   4.464   6.059  0.3331 -0.1323 -0.2009
   12CHL1   C19  854   0.984   4.324   6.127  0.1959  0.3427 -0.6022
   12CHL1  H19A  855   1.072   4.272   6.084  0.2948  1.1871 -1.4546
   12CHL1  H19B  856   0.989   4.319   6.238  2.3365 -1.7181 -0.6927
   12CHL1  H19C  857   0.889   4.270   6.107 -1.0046  2.5680 -1.1260
   12CHL1    C1  858   1.107   4.539   6.056 -0.4730 -0.0034 -0.3721
   12CHL1   H1A  859   1.180   4.464   6.018 -0.3616 -0.8748  1.4620
   12CHL1   H1B  860   1.098   4.630   5.993  0.8642 -0.4260 -1.2143
   12CHL1    C2  861   1.157   4.590   6.194 -0.3162  0.0666 -0.5812
   12CHL1   H2A  862   1.248   4.648   6.168  1.2237 -2.5037 -1.2360
   12CHL1   H2B  863   1.192   4.503   6.253  1.5071 -0.1078 -1.8409
   12CHL1   C20  864   0.752   4.165   5.454 -0.2617 -0.5490 -0.4441
   12CHL1   H20  865   0.751   4.066   5.503 -0.6723 -1.2148 -1.7425
   12CHL1   C21  866   0.888   4.179   5.381  0.5544  0.5080  0.1298
   12CHL1  H21A  867   0.971   4.161   5.453 -0.2531 -1.9673  0.5632
   12CHL1  H21B  868   0.904   4.283   5.346  1.5626 -0.3821 -2.2723
   12CHL1  H21C  869   0.889   4.130   5.281  3.0408  0.3784  0.1581
   12CHL1   C22  870   0.641   4.166   5.351 -0.7021  0.9479  0.4174
   12CHL1  H22A  871   0.680   4.080   5.292  1.4429  1.6890  0.6600
   12CHL1  H22B  872   0.546   4.149   5.405  0.1835 -0.3161  1.6308
   12CHL1   C23  873   0.620   4.292   5.263  0.1920 -0.1884 -0.2511
   12CHL1  H23A  874   0.614   4.387   5.320  0.7957 -0.6267  0.5518
   12CHL1  H23B  875   0.719   4.301   5.214  0.4570  2.3182  0.5949
   12CHL1   C24  876   0.517   4.280   5.151  0.4674  1.3084 -0.3205
   12CHL1  H24A  877   0.537   4.193   5.085 -2.4189 -0.1682  0.5945
   12CHL1  H24B  878   0.415   4.270   5.193  1.0176  0.8359  0.9543
   12CHL1   C25  879   0.510   4.407   5.055 -0.2911  0.3558  0.3969
   12CHL1   H25  880   0.491   4.499   5.115  3.7899  0.2511  2.1688
   12CHL1   C26  881   0.660   4.422   5.001  0.1004 -0.0199  0.3103
   12CHL1  H26A  882   0.689   4.328   4.951 -0.9331  0.9180 -2.2605
   12CHL1  H26B  883   0.659   4.506   4.928 -1.2599 -0.3917 -0.1293
   12CHL1  H26C  884   0.734   4.439   5.082  0.8282 -1.0929 -0.1171
   12CHL1   C27  885   0.410   4.388   4.949  0.0558  0.3200  0.5202
   12CHL1  H27A  886   0.367   4.477   4.899 -0.1112 -0.6719 -1.1927
   12CHL1  H27B  887   0.463   4.343   4.862 -2.7737 -1.4368 -0.4702
   12CHL1  H27C  888   0.323   4.325   4.979  0.4484 -0.4121  0.1479
   13CHL1    C3  889   0.936   5.175   6.230  0.5182 -0.3339  0.5053
   13CHL1    H3  890   1.037   5.207   6.197 -0.1014  1.8403  0.5609
   13CHL1    O3  891   0.934   5.206   6.363 -0.2171 -0.5182 -0.6516
   13CHL1   H3'  892   0.844   5.190   6.391 -0.4665  0.0624 -1.0952
   13CHL1    C4  893   0.824   5.251   6.156  0.1374  0.6265  0.3029
   13CHL1   H4A  894   0.727   5.231   6.205  1.4308 -1.4817  2.1998
   13CHL1   H4B  895   0.849   5.359   6.162  1.1033  0.3983  0.6129
   13CHL1    C5  896   0.817   5.206   6.008  0.2882  0.5737 -0.4461
   13CHL1    C6  897   0.827   5.293   5.908 -0.1726 -0.7008 -0.2170
   13CHL1    H6  898   0.832   5.400   5.930 -0.4966 -0.2203 -2.3202
   13CHL1    C7  899   0.839   5.260   5.759  0.5931 -0.0283  0.1283
   13CHL1   H7A  900   0.787   5.336   5.697  1.0513  0.1043 -0.0983
   13CHL1   H7B  901   0.948   5.257   5.740  0.8548  1.6793  1.1199
   13CHL1    C8  902   0.782   5.121   5.738 -0.3243 -0.2396  0.1955
   13CHL1    H8  903   0.671   5.119   5.746 -0.3166 -0.7621  0.1655
   13CHL1   C14  904   0.811   5.076   5.594  0.4990 -0.4942 -0.1842
   13CHL1   H14  905   0.919   5.053   5.597  0.7230  0.5255 -0.3494
   13CHL1   C15  906   0.783   5.173   5.483 -0.1961 -0.5028  0.1681
   13CHL1  H15A  907   0.695   5.232   5.516  0.7999  1.0842  0.0420
   13CHL1  H15B  908   0.863   5.241   5.449 -0.4990  0.2072  0.8424
   13CHL1   C16  909   0.745   5.079   5.361 -0.1618 -0.1290 -0.4747
   13CHL1  H16A  910   0.636   5.087   5.342 -0.1552 -0.0803 -0.4912
   13CHL1  H16B  911   0.803   5.099   5.268  1.7305 -1.5954  0.3404
   13CHL1   C17  912   0.787   4.937   5.403  1.0325 -0.1558  0.1393
   13CHL1   H17  913   0.897   4.930   5.390  1.0045 -0.4050  0.0351
   13CHL1   C13  914   0.750   4.941   5.557  0.1171 -0.0581 -0.0000
   13CHL1   C18  915   0.597   4.947   5.574 -0.6448  0.2789  0.1449
   13CHL1  H18A  916   0.544   4.856   5.537 -0.5702  0.4447 -0.3729
   13CHL1  H18B  917   0.568   4.958   5.681 -0.2873 -1.0224  0.3968
   13CHL1  H18C  918   0.555   5.032   5.516 -1.1301 -0.5322 -0.7306
   13CHL1   C12  919   0.808   4.833   5.654 -0.6496 -0.1986 -0.0795
   13CHL1  H12A  920   0.764   4.733   5.637  0.2081 -0.8020  1.1324
   13CHL1  H12B  921   0.917   4.829   5.629 -0.4620 -1.0503  0.8227
   13CHL1   C11  922   0.795   4.869   5.801 -0.2515  0.1661 -0.8331
   13CHL1  H11A  923   0.688   4.854   5.826 -0.3224  0.0536 -1.2078
   13CHL1  H11B  924   0.856   4.797   5.860  1.8524  1.1915 -1.6379
   13CHL1    C9  925   0.835   5.016   5.832  0.4466  0.4051 -0.4507
   13CHL1    H9  926   0.945   5.025   5.814  1.3271 -2.6884  2.2987
   13CHL1   C10  927   0.808   5.054   5.982 -0.8079  0.7749 -0.0554
   13CHL1   C19  928   0.669   5.002   6.030  0.9370  0.2615 -0.0775
   13CHL1  H19A  929   0.647   5.034   6.134  0.2574 -1.6231  0.3903
   13CHL1  H19B  930   0.581   5.019   5.964 -1.8604 -0.2133  3.1847
   13CHL1  H19C  931   0.679   4.892   6.042 -4.2552 -0.7491 -2.3889
   13CHL1    C1  932   0.928   4.984   6.067  0.2034 -0.2853  0.1901
   13CHL1   H1A  933   0.922   4.875   6.052 -1.3661 -0.7719  3.4682
   13CHL1   H1B  934   1.024   5.020   6.024 -0.2325  1.1604  0.3561
   13CHL1    C2  935   0.926   5.024   6.211 -0.6890 -0.2193  0.0480
   13CHL1   H2A  936   1.011   4.977   6.265  0.7145  0.5398 -1.3901
   13CHL1   H2B  937   0.832   4.982   6.253  0.4805 -4.2084 -0.8486
   13CHL1   C20  938   0.727   4.821   5.319 -0.3257  0.0158  0.7564
   13CHL1   H20  939   0.617   4.813   5.330 -0.6772  2.4588 -0.3589
   13CHL1   C21  940   0.779   4.676   5.357  1.0772  0.7168  0.2576
   13CHL1  H21A  941   0.714   4.634   5.436  2.8650 -0.5137  1.1287
   13CHL1  H21B  942   0.886   4.668   5.386  0.9272 -2.4402  0.2796
   13CHL1  H21C  943   0.756   4.601   5.278 -0.4600 -0.0091  1.3410
   13CHL1   C22  944   0.746   4.851   5.168 -0.4192 -0.7145 -0.6211
   13CHL1  H22A  945   0.705   4.772   5.101  1.1645 -3.0755  1.0718
   13CHL1  H22B  946   0.692   4.947   5.147 -1.7702 -0.7417  2.2896
   13CHL1   C23  947   0.895   4.875   5.141 -0.3655  0.4155  0.7019
   13CHL1  H23A  948   0.926   4.976   5.178 -0.0795  1.0422 -1.1307
   13CHL1  H23B  949   0.967   4.802   5.183  0.0548  1.7972  2.4707
   13CHL1   C24  950   0.927   4.870   4.990  0.4970  0.2998  0.9402
   13CHL1  H24A  951   0.910   4.768   4.950  1.2852  0.4625  0.1461
   13CHL1  H24B  952   0.858   4.943   4.943 -0.2162 -0.5358  0.6512
   13CHL1   C25  953   1.060   4.916   4.944  0.5655 -0.5310  0.6099
   13CHL1   H25  954   1.075   5.020   4.982  3.3810 -0.4609 -0.4585
   13CHL1   C26  955   1.164   4.814   4.976 -0.2963 -0.4770  0.7348
   13CHL1  H26A  956   1.259   4.840   4.925 -1.2426  0.3076 -0.6872
   13CHL1  H26B  957   1.180   4.793   5.084 -0.9610  0.1481  0.9642
   13CHL1  H26C  958   1.140   4.716   4.930  3.2350 -1.4876  0.7397
   13CHL1   C27  959   1.053   4.935   4.792  0.3039 -0.2000  0.5115
   13CHL1  H27A  960   1.159   4.953   4.762  0.3974 -1.5797 -0.0814
   13CHL1  H27B  961   1.029   4.838   4.743  3.0965  0.3579 -2.3515
   13CHL1  H27C  962   0.978   5.012   4.768  1.5693  1.2775  1.1333
   14CHL1    C3  963   5.645   2.728   6.682 -0.6260  0.7425 -0.3314
   14CHL1    H3  964   5.752   2.758   6.686 -0.3451 -0.2987  0.8759
   14CHL1    O3  965   5.586   2.735   6.809 -0.0805  0.0492 -0.1854
   14CHL1   H3'  966   5.576   2.829   6.824 -1.8001 -0.1579  0.1297
   14CHL1    C4  967   5.573   2.825   6.583 -0.0475 -0.6428  0.3412
   14CHL1   H4A  968   5.466   2.797   6.598 -0.2316 -0.5577 -0.6982
   14CHL1   H4B  969   5.588   2.923   6.634  0.4651 -0.6152  0.1390
   14CHL1    C5  970   5.604   2.812   6.438  0.0915  0.8242  0.3790
   14CHL1    C6  971   5.637   2.915   6.355  0.1838 -0.2958  1.0545
   14CHL1    H6  972   5.638   3.017   6.396 -1.1206  0.3856 -0.5124
   14CHL1    C7  973   5.677   2.904   6.210  0.3900  0.2744 -0.3795
   14CHL1   H7A  974   5.641   2.987   6.144 -1.6854  1.2422  1.8150
   14CHL1   H7B  975   5.787   2.909   6.201  0.5534  0.6338  1.4584
   14CHL1    C8  976   5.628   2.765   6.150 -1.1358 -0.1604  0.5973
   14CHL1    H8  977   5.518   2.772   6.142 -1.0922  1.1941  0.8531
   14CHL1   C14  978   5.692   2.748   6.014 -0.7238  0.8687  0.0821
   14CHL1   H14  979   5.802   2.751   6.031 -0.9842  1.8272  1.8595
   14CHL1   C15  980   5.659   2.855   5.913 -0.3459 -0.0573 -0.6996
   14CHL1  H15A  981   5.552   2.885   5.918 -0.2589  0.0542  1.1744
   14CHL1  H15B  982   5.725   2.943   5.926  1.6966 -1.5587 -0.4299
   14CHL1   C16  983   5.691   2.788   5.780  0.7061  0.6767 -0.3299
   14CHL1  H16A  984   5.614   2.818   5.706  0.1355 -1.8267 -0.8507
   14CHL1  H16B  985   5.788   2.828   5.744  2.1903 -3.3342 -1.3057
   14CHL1   C17  986   5.706   2.638   5.808 -0.4081 -0.2502  0.1362
   14CHL1   H17  987   5.811   2.609   5.825 -0.4706  0.3002  1.5632
   14CHL1   C13  988   5.653   2.615   5.947 -0.1448  0.1714  0.1416
   14CHL1   C18  989   5.496   2.615   5.935 -0.0335 -0.0012 -0.0454
   14CHL1  H18A  990   5.457   2.689   5.862  0.7330 -0.9670 -1.4761
   14CHL1  H18B  991   5.477   2.513   5.895 -0.9424  1.1971 -2.8777
   14CHL1  H18C  992   5.439   2.625   6.030 -0.4813  3.9849 -0.5554
   14CHL1   C12  993   5.708   2.500   6.034 -0.0035  0.5180 -0.2818
   14CHL1  H12A  994   5.696   2.396   5.997 -3.7721  0.2191  1.3085
   14CHL1  H12B  995   5.817   2.522   6.039  0.3185 -0.7788 -1.1507
   14CHL1   C11  996   5.655   2.510   6.179  0.9719 -0.4227  0.2716
   14CHL1  H11A  997   5.548   2.484   6.163  0.1093  3.2846 -0.9911
   14CHL1  H11B  998   5.704   2.438   6.248  1.0784  0.3109  0.9838
   14CHL1    C9  999   5.673   2.655   6.243 -0.4116  0.2576 -0.3003
   14CHL1    H9 1000   5.782   2.667   6.261  0.1829 -3.2050 -0.9930
   14CHL1   C10 1001   5.604   2.666   6.384 -0.4380 -0.5144 -0.3897
   14CHL1   C19 1002   5.453   2.622   6.374 -0.3972  0.1737 -0.3290
   14CHL1  H19A 1003   5.406   2.684   6.295 -2.2509 -0.1499  0.4780
   14CHL1  H19B 1004   5.452   2.513   6.350 -1.5903 -0.0511  0.6498
   14CHL1  H19C 1005   5.414   2.637   6.477  1.2129  1.3090  0.1598
   14CHL1    C1 1006   5.686   2.582   6.486 -1.1168 -0.0541  0.2376
   14CHL1   H1A 1007   5.680   2.474   6.462 -0.4310 -0.3496  1.3010
   14CHL1   H1B 1008   5.792   2.616   6.477 -1.4502  1.7431  2.2471
   14CHL1    C2 1009   5.645   2.582   6.637  0.4421 -0.1081  0.3441
   14CHL1   H2A 1010   5.697   2.512   6.706 -0.8061 -0.6576  0.7602
   14CHL1   H2B 1011   5.541   2.548   6.652 -0.1841  2.5389  3.0916
   14CHL1   C20 1012   5.649   2.548   5.693 -0.4159 -0.1909 -0.3226
   14CHL1   H20 1013   5.538   2.557   5.691 -0.3106  1.0996 -1.4291
   14CHL1   C21 1014   5.693   2.404   5.710 -0.1194  0.5765 -0.6349
   14CHL1  H21A 1015   5.629   2.363   5.791  1.0685  0.3034  0.1857
   14CHL1  H21B 1016   5.802   2.388   5.722  0.2241  2.9619  0.0215
   14CHL1  H21C 1017   5.660   2.339   5.627 -0.6875  0.2513 -0.1603
   14CHL1   C22 1018   5.697   2.595   5.554 -0.8705 -0.6894 -0.1822
   14CHL1  H22A 1019   5.670   2.702   5.544  0.4323 -0.5001 -2.3267
   14CHL1  H22B 1020   5.808   2.597   5.552 -0.7800  0.3029  2.6175
   14CHL1   C23 1021   5.642   2.529   5.425  0.1555 -0.0270  0.1902
   14CHL1  H23A 1022   5.695   2.574   5.338  1.6781 -0.8736  0.6548
   14CHL1  H23B 1023   5.653   2.419   5.422 -1.2301 -0.2064 -3.2660
   14CHL1   C24 1024   5.497   2.562   5.415  1.1306 -0.6648  0.1468
   14CHL1  H24A 1025   5.448   2.533   5.511  0.3883  0.2326  0.0562
   14CHL1  H24B 1026   5.488   2.672   5.397  0.7444 -0.4826  1.3548
   14CHL1   C25 1027   5.436   2.498   5.287  0.5780 -1.1014  0.3568
   14CHL1   H25 1028   5.331   2.536   5.287  0.6171 -0.9896  0.1438
   14CHL1   C26 1029   5.495   2.558   5.159 -0.4374 -0.2603 -0.1324
   14CHL1  H26A 1030   5.602   2.530   5.153 -0.0284  0.7541  1.5144
   14CHL1  H26B 1031   5.437   2.529   5.069  0.5626 -0.4064 -0.7369
   14CHL1  H26C 1032   5.506   2.669   5.166  1.2179 -0.2751 -1.7512
   14CHL1   C27 1033   5.425   2.353   5.271  0.2917 -0.1076 -0.3592
   14CHL1  H27A 1034   5.369   2.302   5.352  0.5987 -1.9194 -1.2268
   14CHL1  H27B 1035   5.368   2.338   5.176  1.2229  0.2426 -0.9895
   14CHL1  H27C 1036   5.526   2.310   5.254  0.0822 -1.0985  0.7742
   15CHL1    C3 1037   5.818   0.568   6.121 -0.8503 -0.3604  0.2665
   15CHL1    H3 1038   5.871   0.476   6.088 -0.6391  0.1985 -1.0260
   15CHL1    O3 1039   5.819   0.577   6.266 -0.0840 -0.1310 -0.0813
   15CHL1   H3' 1040   5.764   0.650   6.296 -0.3690 -0.7164  0.8843
   15CHL1    C4 1041   5.883   0.695   6.061  0.1302  0.7553  0.5393
   15CHL1   H4A 1042   5.819   0.781   6.090  1.1442  1.4446  0.7927
   15CHL1   H4B 1043   5.985   0.705   6.104  0.9384 -0.4631 -0.9869
   15CHL1    C5 1044   5.903   0.681   5.908  0.5327  0.6848 -0.1433
   15CHL1    C6 1045   6.025   0.687   5.853  0.6612 -0.4503 -0.1093
   15CHL1    H6 1046   6.110   0.702   5.922  1.0863 -1.0820 -0.4843
   15CHL1    C7 1047   6.046   0.674   5.702 -0.9773 -0.3100  0.2059
   15CHL1   H7A 1048   6.133   0.738   5.674  1.1022 -2.7859  0.6435
   15CHL1   H7B 1049   6.069   0.569   5.674  2.1001  0.5702 -1.0238
   15CHL1    C8 1050   5.913   0.701   5.622  0.0003 -0.0618 -0.1964
   15CHL1    H8 1051   5.892   0.810   5.625  1.7622  0.3531 -1.5452
   15CHL1   C14 1052   5.930   0.658   5.475 -0.6652 -0.2269  0.1994
   15CHL1   H14 1053   5.958   0.551   5.476  0.0789 -0.0339  0.8754
   15CHL1   C15 1054   6.037   0.729   5.386 -0.1744  0.5107 -1.0459
   15CHL1  H15A 1055   6.028   0.838   5.407 -0.2296  0.4768 -0.8932
   15CHL1  H15B 1056   6.138   0.697   5.418 -0.2810  1.3552  0.2270
   15CHL1   C16 1057   5.998   0.713   5.239 -0.2669  0.5040 -0.4581
   15CHL1  H16A 1058   5.982   0.813   5.192  0.1896  1.7179  1.8039
   15CHL1  H16B 1059   6.062   0.652   5.172  0.2101 -0.7051  1.0394
   15CHL1   C17 1060   5.858   0.640   5.247 -0.3846 -0.2544 -0.1430
   15CHL1   H17 1061   5.883   0.531   5.252 -0.6535 -0.3437 -0.6377
   15CHL1   C13 1062   5.808   0.666   5.387 -0.0132 -0.3772 -0.6602
   15CHL1   C18 1063   5.746   0.803   5.386  0.4050 -0.4629  0.3323
   15CHL1  H18A 1064   5.651   0.802   5.327  0.8795  0.0465 -0.4642
   15CHL1  H18B 1065   5.711   0.844   5.483 -2.9523  1.6314 -1.5387
   15CHL1  H18C 1066   5.815   0.878   5.342  0.8281 -0.7782  0.4490
   15CHL1   C12 1067   5.714   0.562   5.450 -0.0128 -0.2284 -0.0393
   15CHL1  H12A 1068   5.613   0.563   5.405 -0.9735 -0.3294  2.0146
   15CHL1  H12B 1069   5.766   0.465   5.435  2.5161  1.2148 -1.3442
   15CHL1   C11 1070   5.691   0.583   5.597  0.8459 -0.0407 -0.6215
   15CHL1  H11A 1071   5.624   0.672   5.603  0.9593  0.0826 -1.1082
   15CHL1  H11B 1072   5.625   0.502   5.635  0.4563  1.2075  1.5463
   15CHL1    C9 1073   5.808   0.611   5.689 -0.0129 -0.0713 -0.2339
   15CHL1    H9 1074   5.858   0.514   5.707  1.6950  1.2221  2.5868
   15CHL1   C10 1075   5.770   0.652   5.833 -0.6432  0.0526 -0.0887
   15CHL1   C19 1076   5.676   0.783   5.828 -0.4982 -0.1673  0.5630
   15CHL1  H19A 1077   5.576   0.754   5.790 -0.9611  2.1434 -0.1782
   15CHL1  H19B 1078   5.658   0.830   5.928  0.3110 -0.1435  0.7043
   15CHL1  H19C 1079   5.711   0.863   5.759 -2.6447  2.2144  2.0075
   15CHL1    C1 1080   5.690   0.545   5.902  0.5880  0.1189 -0.0345
   15CHL1   H1A 1081   5.583   0.539   5.873  0.6225 -0.6298 -0.0366
   15CHL1   H1B 1082   5.730   0.447   5.869 -2.0769 -0.4764 -1.8792
   15CHL1    C2 1083   5.674   0.551   6.058 -0.9264 -0.1997  0.3218
   15CHL1   H2A 1084   5.631   0.456   6.096 -2.0690  0.1842  0.0085
   15CHL1   H2B 1085   5.620   0.642   6.089  0.5545  0.3801  1.3262
   15CHL1   C20 1086   5.773   0.662   5.125 -0.0156  0.7238  0.5123
   15CHL1   H20 1087   5.773   0.773   5.116  1.7433  0.8400  1.5568
   15CHL1   C21 1088   5.625   0.605   5.138 -0.4979  0.1366 -0.1196
   15CHL1  H21A 1089   5.559   0.637   5.222 -1.2746  1.9166 -1.3332
   15CHL1  H21B 1090   5.629   0.494   5.142 -1.4219  0.1250  0.9277
   15CHL1  H21C 1091   5.569   0.641   5.049 -1.3477  0.2723  0.4605
   15CHL1   C22 1092   5.834   0.601   4.997 -0.5364  0.4061  0.4731
   15CHL1  H22A 1093   5.939   0.635   4.986 -0.1930 -1.1059 -1.6866
   15CHL1  H22B 1094   5.821   0.491   4.987 -2.6362  0.6645 -0.2916
   15CHL1   C23 1095   5.766   0.665   4.868 -0.2907 -0.3403 -0.2314
   15CHL1  H23A 1096   5.661   0.630   4.875 -0.2322 -0.4238  0.2787
   15CHL1  H23B 1097   5.790   0.773   4.874  0.9189 -0.6088  0.0242
   15CHL1   C24 1098   5.830   0.616   4.735 -0.3631  0.0083 -0.8509
   15CHL1  H24A 1099   5.939   0.640   4.731  0.4880 -3.4805 -1.6633
   15CHL1  H24B 1100   5.823   0.507   4.721 -0.5127 -0.0757 -0.1660
   15CHL1   C25 1101   5.759   0.692   4.622  0.0634  0.0487 -0.4179
   15CHL1   H25 1102   5.739   0.797   4.650 -1.7552 -0.1319 -0.9373
   15CHL1   C26 1103   5.842   0.694   4.495  0.7113  0.0692  0.0396
   15CHL1  H26A 1104   5.846   0.595   4.445  2.0780 -0.0014  0.2636
   15CHL1  H26B 1105   5.800   0.772   4.428  0.1273  1.5537  2.0170
   15CHL1  H26C 1106   5.944   0.730   4.518  1.4472 -0.2185 -2.5090
   15CHL1   C27 1107   5.620   0.627   4.592  0.2448  0.0826 -0.8017
   15CHL1  H27A 1108   5.560   0.654   4.682 -0.8114 -1.8483 -0.8733
   15CHL1  H27B 1109   5.568   0.683   4.512 -0.7182  1.6643  0.8259
   15CHL1  H27C 1110   5.637   0.520   4.569  2.1027  0.0024  0.6703
   16CHL1    C3 1111   3.864   6.495   5.944  0.6221 -0.6179 -0.2049
   16CHL1    H3 1112   3.926   6.581   5.978  0.4488 -0.0429 -1.3192
   16CHL1    O3 1113   3.860   6.413   6.064  0.7876 -0.1328  0.1389
   16CHL1   H3' 1114   3.777   6.367   6.054 -0.9917  3.0694 -1.9409
   16CHL1    C4 1115   3.728   6.546   5.910  0.3705  0.9178 -0.2005
   16CHL1   H4A 1116   3.662   6.458   5.924  1.8892 -0.5637 -1.8316
   16CHL1   H4B 1117   3.695   6.618   5.987  0.8577  2.2257 -1.1808
   16CHL1    C5 1118   3.692   6.590   5.774 -0.1963 -0.5271 -0.3927
   16CHL1    C6 1119   3.625   6.701   5.741 -0.2632 -0.3074  0.0806
   16CHL1    H6 1120   3.596   6.773   5.820  2.6087  0.5274  0.4821
   16CHL1    C7 1121   3.600   6.749   5.597 -0.2744  0.3425 -0.5990
   16CHL1   H7A 1122   3.493   6.782   5.597 -0.0418  1.1926  0.9977
   16CHL1   H7B 1123   3.668   6.833   5.571  0.1552  1.1767  2.7037
   16CHL1    C8 1124   3.614   6.640   5.492 -0.0303 -0.3320 -0.3698
   16CHL1    H8 1125   3.529   6.569   5.500  1.4104 -2.0377  0.4993
   16CHL1   C14 1126   3.609   6.699   5.345 -0.5496  0.5793 -0.1313
   16CHL1   H14 1127   3.693   6.771   5.351  0.1164 -0.2822  3.1713
   16CHL1   C15 1128   3.490   6.789   5.292 -0.0873 -0.4114 -0.0812
   16CHL1  H15A 1129   3.384   6.772   5.322 -0.4630  2.3590  0.4822
   16CHL1  H15B 1130   3.512   6.890   5.333 -2.2897  0.1734 -0.1855
   16CHL1   C16 1131   3.505   6.788   5.147 -0.3190  0.3758  0.1863
   16CHL1  H16A 1132   3.411   6.746   5.107 -0.0491  0.8043 -0.9172
   16CHL1  H16B 1133   3.519   6.888   5.100 -2.2206  2.2735  3.3036
   16CHL1   C17 1134   3.621   6.694   5.105 -0.1795 -0.2858 -0.9174
   16CHL1   H17 1135   3.706   6.764   5.088 -1.1791  0.9212 -1.0698
   16CHL1   C13 1136   3.634   6.596   5.234  0.2663  0.2987  0.8361
   16CHL1   C18 1137   3.522   6.493   5.228 -0.4329  0.4461  0.5661
   16CHL1  H18A 1138   3.505   6.450   5.329  0.9602  0.5496  0.8661
   16CHL1  H18B 1139   3.429   6.539   5.186 -1.4310 -1.1308  0.9721
   16CHL1  H18C 1140   3.553   6.411   5.161 -0.7511 -1.2940  2.4495
   16CHL1   C12 1141   3.774   6.538   5.256 -0.4635 -0.2168 -0.3193
   16CHL1  H12A 1142   3.794   6.455   5.186 -0.3950 -1.0988  0.7144
   16CHL1  H12B 1143   3.852   6.617   5.249 -0.5128  0.1993  2.4354
   16CHL1   C11 1144   3.779   6.471   5.398  0.2631 -0.3622 -0.6156
   16CHL1  H11A 1145   3.705   6.388   5.400 -0.0724 -0.0570 -0.1586
   16CHL1  H11B 1146   3.878   6.423   5.411 -0.2615 -1.0260  1.2533
   16CHL1    C9 1147   3.746   6.568   5.522 -0.7924  0.0241  0.4591
   16CHL1    H9 1148   3.835   6.635   5.522  2.8667 -4.2545 -1.6872
   16CHL1   C10 1149   3.746   6.504   5.664 -0.1183 -0.3981  0.6169
   16CHL1   C19 1150   3.655   6.380   5.659  0.2672  1.0512  0.3238
   16CHL1  H19A 1151   3.683   6.296   5.590 -2.6008 -0.9440  1.4156
   16CHL1  H19B 1152   3.650   6.337   5.761  0.0706  0.1812 -0.0351
   16CHL1  H19C 1153   3.555   6.415   5.628 -0.4038 -0.0734  1.1509
   16CHL1    C1 1154   3.896   6.471   5.692  0.6489 -0.5052 -0.2599
   16CHL1   H1A 1155   3.938   6.404   5.614 -1.2342 -0.9246 -0.9606
   16CHL1   H1B 1156   3.958   6.563   5.685 -0.9494  0.7292  0.9445
   16CHL1    C2 1157   3.916   6.414   5.822 -0.3329  0.1124 -0.3940
   16CHL1   H2A 1158   4.022   6.387   5.842 -0.2742  1.2597  0.9552
   16CHL1   H2B 1159   3.860   6.318   5.826  0.1668 -0.1382  1.0049
   16CHL1   C20 1160   3.589   6.627   4.974 -0.1840 -0.1426  0.3859
   16CHL1   H20 1161   3.513   6.548   4.988 -0.7017 -0.0322 -1.4611
   16CHL1   C21 1162   3.717   6.558   4.926  1.1440  0.2599 -0.0927
   16CHL1  H21A 1163   3.794   6.636   4.943  0.2778  0.8242  1.5379
   16CHL1  H21B 1164   3.707   6.530   4.819 -1.2568 -3.4082  0.9001
   16CHL1  H21C 1165   3.739   6.466   4.984  0.5027  0.5535  0.6407
   16CHL1   C22 1166   3.535   6.719   4.857 -0.0666 -0.7107  0.2181
   16CHL1  H22A 1167   3.517   6.658   4.766  0.4921 -1.0291  0.3154
   16CHL1  H22B 1168   3.431   6.752   4.877 -0.5706 -1.5458 -0.9118
   16CHL1   C23 1169   3.620   6.840   4.830  0.2953 -0.1882  0.2266
   16CHL1  H23A 1170   3.633   6.899   4.923 -1.9156  0.9941 -0.1426
   16CHL1  H23B 1171   3.719   6.803   4.794  0.2496 -0.0430 -0.0487
   16CHL1   C24 1172   3.547   6.942   4.735 -0.9512  1.0200  0.3203
   16CHL1  H24A 1173   3.455   6.980   4.784 -0.4077  0.5453  1.7700
   16CHL1  H24B 1174   3.614   7.029   4.720 -0.2581  0.2775 -0.9943
   16CHL1   C25 1175   3.499   6.900   4.591 -0.0719  0.4995  0.2220
   16CHL1   H25 1176   3.419   6.822   4.594  0.4890 -0.1100 -0.2913
   16CHL1   C26 1177   3.433   7.019   4.532 -0.6289  0.2077  0.6062
   16CHL1  H26A 1178   3.348   7.057   4.592 -0.3149  0.0522  1.1536
   16CHL1  H26B 1179   3.509   7.100   4.520 -2.1759  1.6115 -0.0995
   16CHL1  H26C 1180   3.396   6.993   4.430 -1.8176  0.4404  0.9662
   16CHL1   C27 1181   3.620   6.850   4.510 -0.0173  1.3425  0.3536
   16CHL1  H27A 1182   3.710   6.910   4.532  2.2611 -2.3367  2.1018
   16CHL1  H27B 1183   3.653   6.747   4.538 -2.1956  0.1759 -1.0040
   16CHL1  H27C 1184   3.585   6.856   4.405  1.1510  1.9650 -0.0110
   17CHL1    C3 1185   0.376   3.168   6.249  0.0014  0.5288  0.1025
   17CHL1    H3 1186   0.426   3.069   6.239 -0.7142  0.3544 -2.4784
   17CHL1    O3 1187   0.318   3.189   6.375 -0.0212  0.1137 -0.4841
   17CHL1   H3' 1188   0.258   3.114   6.383 -1.2104  0.8527 -1.8963
   17CHL1    C4 1189   0.475   3.274   6.214  0.6121 -0.3681 -0.5722
   17CHL1   H4A 1190   0.436   3.374   6.245  1.8747 -0.2040  0.5882
   17CHL1   H4B 1191   0.557   3.266   6.288 -0.0493  1.1350  0.3957
   17CHL1    C5 1192   0.519   3.267   6.068 -1.5366 -0.0571  0.2498
   17CHL1    C6 1193   0.649   3.256   6.039  0.3912  0.1536  0.1628
   17CHL1    H6 1194   0.721   3.231   6.119  0.2890  0.5476  0.3776
   17CHL1    C7 1195   0.694   3.259   5.893  0.5247  0.2274 -0.3703
   17CHL1   H7A 1196   0.793   3.310   5.890  0.9751 -0.6731 -2.3936
   17CHL1   H7B 1197   0.707   3.156   5.855  1.1754 -0.0203  0.4862
   17CHL1    C8 1198   0.599   3.327   5.803  0.4472  0.2337 -0.2490
   17CHL1    H8 1199   0.594   3.437   5.822  0.5420 -0.0152  1.3499
   17CHL1   C14 1200   0.635   3.293   5.658 -0.3127 -0.6577 -0.5591
   17CHL1   H14 1201   0.610   3.185   5.653  1.0352 -0.9782 -0.9555
   17CHL1   C15 1202   0.784   3.305   5.613  0.5388 -0.2337 -0.3330
   17CHL1  H15A 1203   0.819   3.403   5.651 -2.2028  0.3184  0.9462
   17CHL1  H15B 1204   0.853   3.221   5.638 -0.4554 -1.1856 -0.6879
   17CHL1   C16 1205   0.773   3.312   5.459 -0.4205  0.1306 -0.2183
   17CHL1  H16A 1206   0.826   3.404   5.426  1.3009 -0.7818 -0.1557
   17CHL1  H16B 1207   0.824   3.219   5.426  0.4200  0.5400 -0.1090
   17CHL1   C17 1208   0.630   3.308   5.419 -0.6422 -0.5731 -0.4492
   17CHL1   H17 1209   0.607   3.201   5.401 -0.0745 -0.9276  0.8474
   17CHL1   C13 1210   0.550   3.351   5.548  0.7358  0.3108  0.0142
   17CHL1   C18 1211   0.545   3.505   5.546 -0.8116  0.3410 -0.3632
   17CHL1  H18A 1212   0.499   3.541   5.641 -1.6199  0.5252 -0.8237
   17CHL1  H18B 1213   0.652   3.535   5.557  0.1603 -1.8379 -2.8167
   17CHL1  H18C 1214   0.484   3.555   5.468 -1.2833 -1.7712 -1.4328
   17CHL1   C12 1215   0.409   3.290   5.568 -0.6304 -0.5163 -0.0770
   17CHL1  H12A 1216   0.336   3.315   5.489 -0.9783  0.2175  0.4631
   17CHL1  H12B 1217   0.412   3.179   5.578  0.2241 -0.3396  2.7013
   17CHL1   C11 1218   0.359   3.325   5.715  0.2803  0.5877 -0.0427
   17CHL1  H11A 1219   0.337   3.434   5.720  1.7062  0.9784 -1.5506
   17CHL1  H11B 1220   0.261   3.275   5.731  1.4825 -1.6432  0.6873
   17CHL1    C9 1221   0.454   3.276   5.820 -0.6799  0.6900 -0.2763
   17CHL1    H9 1222   0.469   3.169   5.793  1.3419  1.0258 -0.6693
   17CHL1   C10 1223   0.405   3.286   5.967 -0.3875 -0.2483 -0.1403
   17CHL1   C19 1224   0.356   3.437   5.981  0.2437  0.3301 -0.0636
   17CHL1  H19A 1225   0.263   3.458   5.923  0.7884 -2.1455 -1.9914
   17CHL1  H19B 1226   0.324   3.468   6.083  0.4506  1.8101 -0.4140
   17CHL1  H19C 1227   0.442   3.502   5.955  1.8734 -1.4298  0.7402
   17CHL1    C1 1228   0.302   3.178   5.997  0.1734  0.2991 -0.0265
   17CHL1   H1A 1229   0.213   3.200   5.934  0.3904  1.8090  0.1573
   17CHL1   H1B 1230   0.328   3.077   5.960 -0.8635  0.4841 -1.3436
   17CHL1    C2 1231   0.262   3.172   6.149 -0.1659  0.5163 -0.0582
   17CHL1   H2A 1232   0.207   3.076   6.166 -1.5119  1.3960  0.7470
   17CHL1   H2B 1233   0.195   3.259   6.163 -0.0572  0.3852  1.4641
   17CHL1   C20 1234   0.592   3.383   5.291  0.2988  0.6079  0.1800
   17CHL1   H20 1235   0.625   3.489   5.295  1.5708  0.1942  1.1493
   17CHL1   C21 1236   0.442   3.376   5.254 -0.4099 -0.1583  0.0318
   17CHL1  H21A 1237   0.426   3.409   5.149  1.3565 -0.5987 -0.4056
   17CHL1  H21B 1238   0.378   3.439   5.320 -1.9687 -1.9803  0.3518
   17CHL1  H21C 1239   0.415   3.269   5.251 -1.1257  0.0298 -2.8087
   17CHL1   C22 1240   0.683   3.320   5.177 -0.5378  0.1636 -0.5839
   17CHL1  H22A 1241   0.788   3.344   5.205 -0.3787 -1.2052  0.0471
   17CHL1  H22B 1242   0.668   3.210   5.176 -2.0913  0.3310  0.1071
   17CHL1   C23 1243   0.665   3.377   5.037  0.2309 -0.4767  0.0413
   17CHL1  H23A 1244   0.559   3.362   5.010  0.2675  1.4621 -1.3959
   17CHL1  H23B 1245   0.698   3.483   5.044 -0.2018 -0.2673 -0.9890
   17CHL1   C24 1246   0.759   3.308   4.932  0.0082 -0.1618  0.6471
   17CHL1  H24A 1247   0.866   3.333   4.947  0.2690 -0.9610  0.1916
   17CHL1  H24B 1248   0.751   3.197   4.939 -0.0314 -0.1668  0.5285
   17CHL1   C25 1249   0.725   3.359   4.789  0.0413  0.1178  0.2345
   17CHL1   H25 1250   0.618   3.331   4.777  0.7686 -2.2532 -1.4203
   17CHL1   C26 1251   0.754   3.518   4.766 -0.2539  1.0524 -0.5418
   17CHL1  H26A 1252   0.691   3.555   4.683  1.3443  0.1756 -2.2109
   17CHL1  H26B 1253   0.735   3.580   4.856  1.1267  0.6002  0.0951
   17CHL1  H26C 1254   0.860   3.504   4.736 -0.9587 -2.5916 -1.8161
   17CHL1   C27 1255   0.796   3.280   4.677  0.3131  0.7136  0.8372
   17CHL1  H27A 1256   0.798   3.177   4.719  0.7507 -0.1287 -1.1758
   17CHL1  H27B 1257   0.741   3.279   4.581  2.3110 -2.7908 -0.4683
   17CHL1  H27C 1258   0.902   3.302   4.654  0.5356 -0.3930  0.7306
   18CHL1    C3 1259   0.616   6.159   6.026 -1.1942  0.2268  0.1846
   18CHL1    H3 1260   0.561   6.063   6.021 -0.9907  0.0799  0.7085
   18CHL1    O3 1261   0.638   6.191   6.160  0.4088  0.5415  0.1366
   18CHL1   H3' 1262   0.723   6.152   6.184 -0.4541 -1.5703 -0.0781
   18CHL1    C4 1263   0.749   6.146   5.948  0.1227  0.2026  0.5832
   18CHL1   H4A 1264   0.821   6.224   5.983 -0.0043 -0.4403  2.4290
   18CHL1   H4B 1265   0.808   6.060   5.984  3.8830  2.7520  1.0726
   18CHL1    C5 1266   0.729   6.150   5.800  0.0367  0.6340  0.3556
   18CHL1    C6 1267   0.780   6.047   5.727 -0.2056 -0.8728  0.1135
   18CHL1    H6 1268   0.838   5.975   5.788 -0.3399 -0.6414  0.5204
   18CHL1    C7 1269   0.769   6.032   5.579 -0.2345  0.1538 -0.3627
   18CHL1   H7A 1270   0.869   6.015   5.533  0.9150  2.5890  1.0659
   18CHL1   H7B 1271   0.705   5.942   5.566  2.3563 -2.4063  2.8262
   18CHL1    C8 1272   0.717   6.158   5.507  0.2130 -0.7051 -0.1803
   18CHL1    H8 1273   0.808   6.221   5.499  0.0253 -0.6728 -3.4106
   18CHL1   C14 1274   0.658   6.123   5.373  0.3692  0.0868 -0.3259
   18CHL1   H14 1275   0.567   6.066   5.401 -0.6316  1.4059 -0.7683
   18CHL1   C15 1276   0.736   6.037   5.272  0.0648  0.5191  0.3306
   18CHL1  H15A 1277   0.840   6.075   5.264  0.4514 -0.3071  1.2096
   18CHL1  H15B 1278   0.737   5.931   5.304  0.3031 -0.0816 -1.5591
   18CHL1   C16 1279   0.659   6.053   5.145  0.4346  0.1308  0.2191
   18CHL1  H16A 1280   0.720   6.076   5.055  2.7271 -3.5290  0.6030
   18CHL1  H16B 1281   0.589   5.967   5.134 -0.6730  1.2678 -2.6619
   18CHL1   C17 1282   0.560   6.177   5.173  0.2395  0.3911 -0.2009
   18CHL1   H17 1283   0.469   6.119   5.200  0.4156 -0.2940 -1.0362
   18CHL1   C13 1284   0.620   6.249   5.299  0.0444  0.0320 -0.1254
   18CHL1   C18 1285   0.742   6.337   5.275 -0.0912  0.6163  0.2707
   18CHL1  H18A 1286   0.821   6.299   5.206 -0.7245 -1.0959  0.4524
   18CHL1  H18B 1287   0.706   6.434   5.234  1.9368  0.8830 -1.0233
   18CHL1  H18C 1288   0.788   6.362   5.374  1.2020  1.4683 -0.5120
   18CHL1   C12 1289   0.518   6.337   5.381 -0.6088  0.4724  0.4701
   18CHL1  H12A 1290   0.516   6.441   5.340  1.5101  0.7865  1.0491
   18CHL1  H12B 1291   0.416   6.294   5.379 -0.8968  1.0725  1.4520
   18CHL1   C11 1292   0.574   6.362   5.520  0.0446 -0.0619 -0.8647
   18CHL1  H11A 1293   0.657   6.435   5.515 -0.2126  0.6310  2.7042
   18CHL1  H11B 1294   0.492   6.421   5.567  1.2729  1.7882 -0.9363
   18CHL1    C9 1295   0.609   6.232   5.589 -0.4149 -1.0040  0.3842
   18CHL1    H9 1296   0.515   6.173   5.590 -0.9721 -0.2042 -1.3744
   18CHL1   C10 1297   0.645   6.252   5.740  0.7108 -0.4090 -0.4480
   18CHL1   C19 1298   0.718   6.387   5.753 -0.2540 -0.3750 -0.7703
   18CHL1  H19A 1299   0.654   6.476   5.735  1.1291  0.7966 -0.0927
   18CHL1  H19B 1300   0.765   6.402   5.853  1.1945  1.1725 -1.6378
   18CHL1  H19C 1301   0.800   6.389   5.679  0.3954 -0.1069 -0.0558
   18CHL1    C1 1302   0.507   6.250   5.820  0.0196  0.9177  0.2869
   18CHL1   H1A 1303   0.445   6.336   5.786  0.6941  0.5749 -2.0250
   18CHL1   H1B 1304   0.447   6.160   5.794 -0.2774  1.4286 -0.8986
   18CHL1    C2 1305   0.516   6.265   5.966  0.2206  0.3082  0.3980
   18CHL1   H2A 1306   0.415   6.262   6.012  0.9272 -2.5584  2.0363
   18CHL1   H2B 1307   0.554   6.363   6.001 -1.9821  1.3724 -0.0478
   18CHL1   C20 1308   0.496   6.256   5.058 -0.5993 -0.2699 -0.5157
   18CHL1   H20 1309   0.452   6.177   4.993  0.9544  0.6994 -2.8522
   18CHL1   C21 1310   0.604   6.337   4.975  0.5565  0.1470 -0.7527
   18CHL1  H21A 1311   0.704   6.291   4.988  1.2248  1.8385  0.5390
   18CHL1  H21B 1312   0.607   6.443   5.011 -0.6582 -0.8174  2.5855
   18CHL1  H21C 1313   0.588   6.337   4.865 -0.7008 -0.8666 -0.5822
   18CHL1   C22 1314   0.379   6.353   5.092  0.1837  0.5296  0.5946
   18CHL1  H22A 1315   0.322   6.307   5.175  0.1952  1.2132  0.9952
   18CHL1  H22B 1316   0.430   6.440   5.141 -1.4122  0.1491  3.1313
   18CHL1   C23 1317   0.282   6.378   4.976  0.5921 -0.3314  0.0169
   18CHL1  H23A 1318   0.207   6.458   4.997  0.7282 -0.2148  0.0579
   18CHL1  H23B 1319   0.345   6.425   4.898  1.5759 -0.4553  0.7281
   18CHL1   C24 1320   0.200   6.247   4.943 -0.1520 -0.4770  0.3788
   18CHL1  H24A 1321   0.270   6.177   4.893  0.7917  0.8678 -0.2265
   18CHL1  H24B 1322   0.146   6.204   5.030 -0.9307 -1.7445 -0.6935
   18CHL1   C25 1323   0.095   6.256   4.825  0.9901  0.0873  0.2780
   18CHL1   H25 1324   0.153   6.298   4.739  0.7654  1.2374  0.6807
   18CHL1   C26 1325   0.029   6.133   4.768  0.3646  0.5456  0.4000
   18CHL1  H26A 1326  -0.003   6.155   4.664 -0.2774  1.9023  0.8541
   18CHL1  H26B 1327   0.087   6.040   4.783 -2.9101 -1.8071 -0.3829
   18CHL1  H26C 1328  -0.065   6.111   4.823 -0.5204  2.8287 -0.0993
   18CHL1   C27 1329  -0.023   6.356   4.854 -0.2703 -0.1905  0.4029
   18CHL1  H27A 1330   0.022   6.456   4.873 -0.1491 -0.2970  0.6899
   18CHL1  H27B 1331  -0.097   6.354   4.771  1.7089 -2.6851 -1.4816
   18CHL1  H27C 1332  -0.076   6.327   4.947 -1.0456  0.8546  0.3078
   19CHL1    C3 1333   6.251   3.712   6.457  0.8284  1.1772  0.0732
   19CHL1    H3 1334   6.336   3.784   6.452  1.8428  0.0008 -0.2288
   19CHL1    O3 1335   6.228   3.676   6.590  0.0516  0.2593 -0.0142
   19CHL1   H3' 1336   6.138   3.645   6.587  0.0289  0.2543  0.4850
   19CHL1    C4 1337   6.125   3.764   6.390  0.2366  0.3302 -0.8345
   19CHL1   H4A 1338   6.041   3.696   6.416 -0.5673  1.9304  0.9330
   19CHL1   H4B 1339   6.101   3.856   6.446  1.2722  0.6921 -0.9770
   19CHL1    C5 1340   6.129   3.784   6.243 -0.5608  0.1501 -0.4738
   19CHL1    C6 1341   6.110   3.902   6.194 -0.7004  0.2232 -0.2383
   19CHL1    H6 1342   6.085   3.993   6.251 -1.3790 -0.3874  0.4544
   19CHL1    C7 1343   6.121   3.929   6.044 -0.8393  0.0360 -0.1948
   19CHL1   H7A 1344   6.037   3.988   6.002  1.6152  4.4096  0.3432
   19CHL1   H7B 1345   6.215   3.989   6.036 -0.5766  0.0121  2.0616
   19CHL1    C8 1346   6.144   3.805   5.955 -0.2619 -0.0887 -0.4140
   19CHL1    H8 1347   6.044   3.757   5.948  0.2274 -1.0945 -0.5851
   19CHL1   C14 1348   6.200   3.839   5.811  0.0369  0.3932 -0.0563
   19CHL1   H14 1349   6.306   3.872   5.820  0.9648 -0.7705 -4.4585
   19CHL1   C15 1350   6.122   3.949   5.735 -0.7060 -0.3144  0.9450
   19CHL1  H15A 1351   6.013   3.930   5.721 -0.3628 -2.5189  0.8801
   19CHL1  H15B 1352   6.126   4.051   5.778 -2.1988  0.3096 -0.2682
   19CHL1   C16 1353   6.177   3.921   5.593 -0.1640 -0.5305 -0.0353
   19CHL1  H16A 1354   6.088   3.902   5.531 -1.2037 -1.7192  1.7273
   19CHL1  H16B 1355   6.236   4.007   5.554  0.7362 -1.0693  0.0935
   19CHL1   C17 1356   6.262   3.788   5.592  0.3412  0.3034  0.0607
   19CHL1   H17 1357   6.364   3.828   5.608  0.4259  0.0086  0.2640
   19CHL1   C13 1358   6.216   3.714   5.715 -0.0227  0.4097  0.0311
   19CHL1   C18 1359   6.081   3.646   5.691 -0.3254 -0.0413  0.4513
   19CHL1  H18A 1360   6.021   3.625   5.783 -2.7602 -2.6637 -1.5522
   19CHL1  H18B 1361   6.016   3.713   5.631  1.9455  1.2369 -0.7106
   19CHL1  H18C 1362   6.104   3.550   5.640 -0.8324 -0.6601  1.3451
   19CHL1   C12 1363   6.308   3.611   5.782  0.1480 -0.9390  0.5678
   19CHL1  H12A 1364   6.301   3.521   5.719 -1.3813 -0.8695  0.5957
   19CHL1  H12B 1365   6.414   3.645   5.785  0.8550 -2.5458 -2.5839
   19CHL1   C11 1366   6.255   3.574   5.930  0.7182  0.1861  0.3227
   19CHL1  H11A 1367   6.155   3.527   5.920  0.2676  1.3226 -0.8289
   19CHL1  H11B 1368   6.319   3.495   5.975  0.5395 -1.1704 -1.6945
   19CHL1    C9 1369   6.230   3.693   6.020 -0.2620  0.0877  0.3275
   19CHL1    H9 1370   6.325   3.751   6.020 -0.9922  1.3764 -1.1568
   19CHL1   C10 1371   6.187   3.663   6.170  0.1421 -0.2357  0.6432
   19CHL1   C19 1372   6.063   3.573   6.157 -0.3139 -0.6094  0.4723
   19CHL1  H19A 1373   6.015   3.549   6.254  1.1791 -0.8291  1.1940
   19CHL1  H19B 1374   5.983   3.626   6.102 -0.7531 -0.1354  1.5301
   19CHL1  H19C 1375   6.082   3.477   6.104 -0.7456  0.2443 -1.2687
   19CHL1    C1 1376   6.309   3.598   6.235  0.0140  0.1510 -0.9135
   19CHL1   H1A 1377   6.323   3.498   6.189 -0.6230 -1.5675  2.3315
   19CHL1   H1B 1378   6.394   3.670   6.234 -2.0990  3.0316  2.1977
   19CHL1    C2 1379   6.290   3.576   6.385  0.4513  0.2842  0.6956
   19CHL1   H2A 1380   6.384   3.530   6.424  0.8815  1.3428  0.9399
   19CHL1   H2B 1381   6.210   3.503   6.409  1.0275  0.2759  2.8303
   19CHL1   C20 1382   6.262   3.717   5.456 -0.2496 -0.3323  0.4616
   19CHL1   H20 1383   6.160   3.691   5.420 -0.7343  0.2471  1.4031
   19CHL1   C21 1384   6.333   3.583   5.463  0.2653  0.0499  0.1855
   19CHL1  H21A 1385   6.353   3.541   5.362  0.7490  0.0778  0.2681
   19CHL1  H21B 1386   6.272   3.511   5.522  0.4829  1.3519  2.0594
   19CHL1  H21C 1387   6.428   3.599   5.519  0.7139  3.1753 -1.2386
   19CHL1   C22 1388   6.328   3.793   5.335  0.4081 -0.1852  0.2280
   19CHL1  H22A 1389   6.275   3.890   5.337 -1.4513 -1.1421 -0.6855
   19CHL1  H22B 1390   6.436   3.793   5.361  0.1690 -0.0246  1.2524
   19CHL1   C23 1391   6.276   3.739   5.196 -0.5930 -0.1894  0.2888
   19CHL1  H23A 1392   6.315   3.817   5.128 -4.0383  0.9252 -0.6360
   19CHL1  H23B 1393   6.313   3.636   5.176 -3.1689 -0.9143 -1.2204
   19CHL1   C24 1394   6.122   3.749   5.178 -0.1051 -0.0368  0.2561
   19CHL1  H24A 1395   6.067   3.664   5.225 -0.0125  1.1095  2.5579
   19CHL1  H24B 1396   6.077   3.842   5.217 -0.8865  0.0822 -0.9130
   19CHL1   C25 1397   6.085   3.753   5.029 -0.7936  0.2757  0.0705
   19CHL1   H25 1398   6.129   3.844   4.984  0.0682 -0.2249 -0.1119
   19CHL1   C26 1399   6.134   3.623   4.956  0.5971 -0.4380  0.4453
   19CHL1  H26A 1400   6.085   3.535   5.005  2.4599 -2.2309 -0.7430
   19CHL1  H26B 1401   6.099   3.625   4.851  0.2967 -2.0453  0.4754
   19CHL1  H26C 1402   6.245   3.620   4.956  0.5842 -1.7042  0.7796
   19CHL1   C27 1403   5.926   3.765   5.008  0.0643 -0.9411 -0.0192
   19CHL1  H27A 1404   5.883   3.853   5.060 -2.1401 -0.8469 -1.8914
   19CHL1  H27B 1405   5.897   3.758   4.902 -1.8368  1.0933  0.3156
   19CHL1  H27C 1406   5.888   3.668   5.048  0.3068 -0.3944  1.6243
   20CHL1    C3 1407   5.962   5.308   6.451 -0.2323 -0.8550  0.7704
   20CHL1    H3 1408   5.905   5.224   6.406  0.5193 -1.0466  0.1327
   20CHL1    O3 1409   5.997   5.276   6.589 -0.4213 -0.2986 -0.5623
   20CHL1   H3' 1410   6.023   5.184   6.593 -0.7221 -0.3491  1.5068
   20CHL1    C4 1411   6.097   5.319   6.374  0.0582 -0.0298 -0.5602
   20CHL1   H4A 1412   6.163   5.399   6.415 -1.1606 -0.4941  2.5938
   20CHL1   H4B 1413   6.149   5.222   6.388  1.3186  0.6492 -0.3107
   20CHL1    C5 1414   6.071   5.354   6.232  0.6043  0.5531  0.7064
   20CHL1    C6 1415   6.103   5.271   6.130  0.0875 -0.1152 -0.9228
   20CHL1    H6 1416   6.147   5.174   6.156  0.6128  0.2133 -0.5707
   20CHL1    C7 1417   6.084   5.296   5.981 -0.4381  0.8013  0.0083
   20CHL1   H7A 1418   6.171   5.259   5.922 -1.8457  1.8554 -2.9183
   20CHL1   H7B 1419   6.002   5.227   5.950  0.5888 -0.4819  0.0787
   20CHL1    C8 1420   6.053   5.446   5.957  0.0165 -0.9291  1.4619
   20CHL1    H8 1421   6.143   5.510   5.966 -0.9459  0.7723 -0.3816
   20CHL1   C14 1422   6.005   5.465   5.813  0.0554  0.3096 -0.0003
   20CHL1   H14 1423   5.924   5.390   5.802  1.3449 -1.4744  1.7657
   20CHL1   C15 1424   6.102   5.433   5.702 -0.2735  0.5750  0.4110
   20CHL1  H15A 1425   6.200   5.477   5.730 -0.1634 -0.3961  1.6264
   20CHL1  H15B 1426   6.121   5.324   5.695  1.7964  1.0001 -1.8636
   20CHL1   C16 1427   6.041   5.489   5.577  0.0187 -0.7259  0.1623
   20CHL1  H16A 1428   6.110   5.561   5.530  0.2324 -0.7187  0.4841
   20CHL1  H16B 1429   6.021   5.409   5.502 -1.2829 -0.6215  0.3658
   20CHL1   C17 1430   5.911   5.569   5.626 -0.2623  0.0648  0.1202
   20CHL1   H17 1431   5.824   5.501   5.624  2.1295 -3.2277 -0.3002
   20CHL1   C13 1432   5.943   5.601   5.777  0.1156 -0.0673 -0.3950
   20CHL1   C18 1433   6.039   5.719   5.783  0.0410 -0.1786 -0.3294
   20CHL1  H18A 1434   5.977   5.811   5.774  0.8524  0.4096 -0.0183
   20CHL1  H18B 1435   6.082   5.732   5.885 -0.7896  0.2569 -0.0190
   20CHL1  H18C 1436   6.128   5.713   5.718  0.7028 -0.7351  0.6000
   20CHL1   C12 1437   5.828   5.622   5.878  0.4257 -0.4131  0.8297
   20CHL1  H12A 1438   5.790   5.725   5.861  2.3725  0.1393 -0.5721
   20CHL1  H12B 1439   5.749   5.546   5.861  1.0626 -1.3188  1.7451
   20CHL1   C11 1440   5.873   5.622   6.026  0.7085 -0.0921 -0.5717
   20CHL1  H11A 1441   5.942   5.709   6.032 -1.2644  1.5223 -0.4780
   20CHL1  H11B 1442   5.787   5.640   6.094 -0.7173 -0.5749 -2.1813
   20CHL1    C9 1443   5.946   5.488   6.059  0.0676  0.2578 -0.2369
   20CHL1    H9 1444   5.875   5.404   6.047  1.9423 -1.4778  0.2256
   20CHL1   C10 1445   5.993   5.482   6.208 -0.2268 -0.2031  0.7311
   20CHL1   C19 1446   6.071   5.609   6.236  0.0179 -0.0236 -0.2420
   20CHL1  H19A 1447   6.146   5.594   6.317 -0.4163  3.1694  0.9268
   20CHL1  H19B 1448   6.124   5.641   6.143  0.5214  0.9688  0.3592
   20CHL1  H19C 1449   6.017   5.701   6.266  1.4820  0.7487  0.1657
   20CHL1    C1 1450   5.860   5.486   6.299  0.3658  0.0289 -0.0357
   20CHL1   H1A 1451   5.818   5.589   6.298  1.1839  0.3666 -0.7490
   20CHL1   H1B 1452   5.780   5.418   6.263  1.0361 -1.3516  0.9516
   20CHL1    C2 1453   5.887   5.443   6.444 -0.2623  0.3026 -0.1606
   20CHL1   H2A 1454   5.791   5.455   6.500  0.6169  1.7864  1.0971
   20CHL1   H2B 1455   5.957   5.518   6.485  1.3409 -0.2955 -1.7103
   20CHL1   C20 1456   5.887   5.682   5.536 -0.4266 -0.4932 -0.3870
   20CHL1   H20 1457   5.977   5.748   5.541 -1.2412  0.5695  2.4163
   20CHL1   C21 1458   5.768   5.765   5.582 -0.0212 -0.5313 -0.6426
   20CHL1  H21A 1459   5.767   5.860   5.525  1.1517 -1.0125 -1.5201
   20CHL1  H21B 1460   5.750   5.784   5.690 -0.1324  0.5242 -0.8356
   20CHL1  H21C 1461   5.682   5.698   5.559  0.3443 -0.7162 -1.5230
   20CHL1   C22 1462   5.864   5.639   5.391  0.0216  0.7867 -0.2171
   20CHL1  H22A 1463   5.935   5.560   5.356 -1.9581 -0.1916 -2.3005
   20CHL1  H22B 1464   5.759   5.606   5.377  0.5896 -0.4571 -2.0243
   20CHL1   C23 1465   5.898   5.751   5.296 -0.3804  0.3420 -0.0714
   20CHL1  H23A 1466   5.820   5.830   5.295  1.9067  2.7060 -1.2524
   20CHL1  H23B 1467   5.990   5.795   5.341 -1.0416  2.2666 -0.5244
   20CHL1   C24 1468   5.926   5.698   5.157 -0.0204  0.2491 -0.4651
   20CHL1  H24A 1469   5.987   5.606   5.164 -0.0949  0.3186  1.5029
   20CHL1  H24B 1470   5.828   5.659   5.120 -0.0676 -0.9278  0.8379
   20CHL1   C25 1471   5.987   5.800   5.061  0.3541 -0.0192 -0.6414
   20CHL1   H25 1472   6.084   5.839   5.098  0.4820  1.0167 -1.9970
   20CHL1   C26 1473   6.019   5.735   4.927  0.2432  0.0391  0.0206
   20CHL1  H26A 1474   5.922   5.703   4.882  0.5322  0.7878 -1.1941
   20CHL1  H26B 1475   6.066   5.801   4.851 -0.0263 -0.2733 -0.4205
   20CHL1  H26C 1476   6.079   5.642   4.936  2.3367  1.3235 -0.1158
   20CHL1   C27 1477   5.891   5.916   5.042 -0.0578 -0.4635  0.4868
   20CHL1  H27A 1478   5.932   5.994   4.974 -1.2189  1.5988  2.0368
   20CHL1  H27B 1479   5.792   5.894   4.997 -0.0821  0.7274 -0.0629
   20CHL1  H27C 1480   5.877   5.977   5.134  0.9768 -1.4777  1.3436
   21CHL1    C3 1481   3.953   4.655   6.190 -0.1082  0.5439 -0.0125
   21CHL1    H3 1482   3.859   4.599   6.173  0.5566 -0.3774 -0.7118
   21CHL1    O3 1483   3.979   4.666   6.332 -0.0876 -0.8467 -0.2353
   21CHL1   H3' 1484   4.022   4.751   6.345  2.3671 -1.8269 -1.2296
   21CHL1    C4 1485   4.066   4.576   6.123  0.0620 -0.2602 -0.0734
   21CHL1   H4A 1486   4.166   4.623   6.135  0.6411 -0.2171 -3.9095
   21CHL1   H4B 1487   4.075   4.485   6.186  2.2058 -0.5238 -0.6721
   21CHL1    C5 1488   4.028   4.573   5.972 -0.0154 -0.2122 -0.4316
   21CHL1    C6 1489   3.997   4.457   5.918 -0.5781 -0.0266  0.5092
   21CHL1    H6 1490   3.995   4.372   5.987 -0.7125 -0.6073 -0.2006
   21CHL1    C7 1491   3.961   4.439   5.774  0.4923  0.1077 -0.5551
   21CHL1   H7A 1492   4.000   4.341   5.738  0.3069  0.2406 -1.1337
   21CHL1   H7B 1493   3.850   4.433   5.767  0.5973 -0.3050 -2.5567
   21CHL1    C8 1494   4.023   4.556   5.688  0.5268  0.2815  1.1902
   21CHL1    H8 1495   4.134   4.550   5.691  0.5182 -0.1739  0.7595
   21CHL1   C14 1496   3.967   4.548   5.546  0.3930  0.4807 -0.6016
   21CHL1   H14 1497   3.856   4.553   5.542  0.1953 -0.0879  2.0646
   21CHL1   C15 1498   3.984   4.420   5.465 -0.3333  0.5681 -0.0535
   21CHL1  H15A 1499   4.086   4.385   5.492 -0.8127  0.6810  2.0479
   21CHL1  H15B 1500   3.913   4.345   5.507  0.2837 -0.6324 -1.0820
   21CHL1   C16 1501   3.953   4.461   5.321  0.0618  0.6301  0.4295
   21CHL1  H16A 1502   4.035   4.429   5.253 -2.2459  0.4067 -2.4736
   21CHL1  H16B 1503   3.848   4.438   5.294 -0.1565  0.3784  1.4415
   21CHL1   C17 1504   3.955   4.623   5.315  0.4213  0.2917  0.0309
   21CHL1   H17 1505   3.848   4.645   5.331  0.4570 -0.6547  1.8023
   21CHL1   C13 1506   4.011   4.664   5.447 -0.4943  0.0512 -0.8336
   21CHL1   C18 1507   4.167   4.662   5.439 -0.5913  0.5255  0.2826
   21CHL1  H18A 1508   4.207   4.561   5.416 -0.5079  0.7806 -0.7129
   21CHL1  H18B 1509   4.197   4.742   5.369 -1.2678  0.1339 -0.4691
   21CHL1  H18C 1510   4.200   4.678   5.544  0.1331  1.7176 -0.1054
   21CHL1   C12 1511   3.953   4.797   5.500 -0.1380  0.5136  0.1054
   21CHL1  H12A 1512   3.997   4.884   5.447  1.3170  1.3228  2.4762
   21CHL1  H12B 1513   3.843   4.787   5.495 -0.1795  1.5964 -1.7084
   21CHL1   C11 1514   3.994   4.815   5.650  0.3248  0.0430  0.5820
   21CHL1  H11A 1515   4.101   4.836   5.631 -0.4380  3.6156 -0.5124
   21CHL1  H11B 1516   3.948   4.913   5.674  0.3490  0.6007 -1.4579
   21CHL1    C9 1517   3.982   4.697   5.750  0.5848  0.9740  0.2666
   21CHL1    H9 1518   3.874   4.674   5.761  1.2309 -2.4374  0.6328
   21CHL1   C10 1519   4.032   4.710   5.898 -0.5027  0.1535 -0.1102
   21CHL1   C19 1520   4.166   4.789   5.890  0.6322  0.3497  0.3781
   21CHL1  H19A 1521   4.212   4.800   5.990 -0.0997 -1.1281  0.9163
   21CHL1  H19B 1522   4.232   4.734   5.819  0.0801 -1.0675  0.9276
   21CHL1  H19C 1523   4.147   4.894   5.859  0.3048  0.1211 -0.2062
   21CHL1    C1 1524   3.935   4.796   5.982  0.1254 -0.1556 -0.2927
   21CHL1   H1A 1525   3.941   4.895   5.933 -1.1637 -0.3836 -0.9516
   21CHL1   H1B 1526   3.833   4.759   5.960 -0.7058  1.8454 -0.0324
   21CHL1    C2 1527   3.958   4.798   6.132  0.2921 -0.1648 -0.3109
   21CHL1   H2A 1528   3.873   4.851   6.181  0.5356 -0.1306  0.0708
   21CHL1   H2B 1529   4.059   4.841   6.144 -0.3759  1.0623  1.4155
   21CHL1   C20 1530   3.995   4.686   5.179 -0.2854 -0.4043 -0.2542
   21CHL1   H20 1531   4.106   4.682   5.168 -0.3474  0.6153 -1.4153
   21CHL1   C21 1532   3.962   4.838   5.179  0.0535 -0.4696 -0.4718
   21CHL1  H21A 1533   3.961   4.880   5.076 -3.0376 -1.7332 -1.0762
   21CHL1  H21B 1534   4.026   4.900   5.245 -1.2365  0.2337  0.1489
   21CHL1  H21C 1535   3.863   4.849   5.229  0.4337 -1.8406  0.6448
   21CHL1   C22 1536   3.936   4.615   5.063  1.0288 -0.4200 -0.3137
   21CHL1  H22A 1537   3.918   4.506   5.059  0.7352 -0.3490 -3.0307
   21CHL1  H22B 1538   3.835   4.659   5.054  0.9336  0.0057  2.2510
   21CHL1   C23 1539   4.016   4.645   4.930  0.5894 -0.0737 -0.5341
   21CHL1  H23A 1540   4.008   4.752   4.903 -2.0852  0.2103  1.0474
   21CHL1  H23B 1541   4.125   4.627   4.941  0.6019 -0.1385 -0.7622
   21CHL1   C24 1542   3.965   4.559   4.809  0.4153  0.4239  0.7232
   21CHL1  H24A 1543   3.964   4.454   4.846 -0.7939  0.7265  1.6018
   21CHL1  H24B 1544   3.860   4.585   4.785 -0.1630 -1.8729  0.4814
   21CHL1   C25 1545   4.049   4.580   4.680  0.3792  0.1924 -0.0844
   21CHL1   H25 1546   4.155   4.562   4.707 -0.4588 -2.2826  1.9099
   21CHL1   C26 1547   4.013   4.477   4.576  0.3715  0.0941 -0.4436
   21CHL1  H26A 1548   3.914   4.498   4.529  0.8905  0.5454 -1.3599
   21CHL1  H26B 1549   4.090   4.479   4.497  0.9127  1.1750  0.0843
   21CHL1  H26C 1550   4.006   4.375   4.620 -0.3278  0.2639 -0.1423
   21CHL1   C27 1551   4.036   4.717   4.615 -0.4181  0.3888 -0.1121
   21CHL1  H27A 1552   4.070   4.721   4.509 -0.7687  1.1887 -0.2035
   21CHL1  H27B 1553   3.929   4.746   4.605 -0.8174 -1.1626 -0.6340
   21CHL1  H27C 1554   4.084   4.798   4.674 -1.2925  0.4799  0.4997
   22CHL1    C3 1555   6.752   2.879   6.115 -0.2203  0.5958 -0.4272
   22CHL1    H3 1556   6.857   2.911   6.101  1.3448 -1.6856  4.1135
   22CHL1    O3 1557   6.742   2.877   6.254  0.1792  0.0810  0.0308
   22CHL1   H3' 1558   6.671   2.818   6.278 -0.1525  0.6760  0.5413
   22CHL1    C4 1559   6.651   2.976   6.050 -0.0803 -0.3293 -0.2701
   22CHL1   H4A 1560   6.546   2.954   6.076 -0.1920 -1.8139 -1.8067
   22CHL1   H4B 1561   6.672   3.076   6.094 -0.8070 -0.4449  0.3335
   22CHL1    C5 1562   6.659   2.974   5.901 -0.3360  0.3166  1.0111
   22CHL1    C6 1563   6.681   3.084   5.830 -0.5597  0.0222 -0.3451
   22CHL1    H6 1564   6.684   3.178   5.886  0.9199  0.8084 -1.6650
   22CHL1    C7 1565   6.678   3.087   5.681 -0.4218 -0.1344 -0.0025
   22CHL1   H7A 1566   6.617   3.175   5.652 -0.1814  0.2560  0.6626
   22CHL1   H7B 1567   6.776   3.119   5.639 -0.1453 -0.3388  0.4743
   22CHL1    C8 1568   6.631   2.952   5.612 -0.1269 -0.2395 -0.5427
   22CHL1    H8 1569   6.521   2.945   5.609 -0.1701 -2.4421  2.1996
   22CHL1   C14 1570   6.667   2.931   5.461 -0.3180  0.0966  0.2105
   22CHL1   H14 1571   6.778   2.928   5.465 -0.1992  0.1746 -1.8299
   22CHL1   C15 1572   6.649   3.055   5.363 -0.2279  0.3675 -0.5513
   22CHL1  H15A 1573   6.548   3.099   5.373 -1.1670 -1.4808 -1.3908
   22CHL1  H15B 1574   6.734   3.125   5.378 -0.2160  0.4635 -1.0538
   22CHL1   C16 1575   6.660   2.988   5.228  0.0426  0.4376 -0.1644
   22CHL1  H16A 1576   6.562   3.007   5.180 -1.4942  0.0184  2.6209
   22CHL1  H16B 1577   6.738   3.043   5.170  1.8073 -0.4365  1.2816
   22CHL1   C17 1578   6.687   2.833   5.246  0.5851  0.2127 -0.3009
   22CHL1   H17 1579   6.795   2.819   5.264  0.0375 -0.3801  3.3077
   22CHL1   C13 1580   6.629   2.801   5.388 -0.2671 -0.3334 -0.1466
   22CHL1   C18 1581   6.481   2.791   5.381  0.7579 -0.3334  0.1876
   22CHL1  H18A 1582   6.433   2.869   5.318  0.7579 -0.0107  0.5826
   22CHL1  H18B 1583   6.454   2.692   5.337 -1.1723  0.3444 -0.2721
   22CHL1  H18C 1584   6.438   2.791   5.483 -0.8792  1.0450 -0.4527
   22CHL1   C12 1585   6.691   2.685   5.459  0.4443  0.6084 -0.3382
   22CHL1  H12A 1586   6.651   2.587   5.426  0.4033 -0.0726  1.6000
   22CHL1  H12B 1587   6.801   2.685   5.448  0.6144 -1.8690  0.7767
   22CHL1   C11 1588   6.659   2.692   5.613 -0.0366  0.2981  0.1327
   22CHL1  H11A 1589   6.549   2.675   5.620  0.0786  0.3265  2.8520
   22CHL1  H11B 1590   6.695   2.600   5.663 -0.0727 -0.3216 -0.9560
   22CHL1    C9 1591   6.685   2.831   5.684 -0.0475 -1.0690  0.2812
   22CHL1    H9 1592   6.795   2.837   5.668 -0.2068 -0.2004 -0.5459
   22CHL1   C10 1593   6.659   2.829   5.838 -0.3900 -0.0096 -0.0191
   22CHL1   C19 1594   6.528   2.763   5.862  0.1450  0.2123 -0.1688
   22CHL1  H19A 1595   6.480   2.778   5.961 -0.1167  1.0671 -0.4189
   22CHL1  H19B 1596   6.456   2.803   5.788 -0.9552  0.3223  0.9241
   22CHL1  H19C 1597   6.538   2.653   5.849 -2.2180 -0.0027 -0.5912
   22CHL1    C1 1598   6.759   2.732   5.913 -0.0017 -0.5393 -0.3803
   22CHL1   H1A 1599   6.755   2.628   5.873  0.4897 -0.2590 -1.1641
   22CHL1   H1B 1600   6.857   2.768   5.876 -0.6009  1.7640  0.1497
   22CHL1    C2 1601   6.744   2.734   6.061 -0.1983  1.0691  0.0271
   22CHL1   H2A 1602   6.824   2.677   6.113 -0.4069  1.6648  1.0214
   22CHL1   H2B 1603   6.642   2.699   6.088 -0.0582  0.1157 -0.6237
   22CHL1   C20 1604   6.654   2.734   5.132 -0.4319 -0.5385 -0.5595
   22CHL1   H20 1605   6.636   2.630   5.167 -0.6897 -0.4809 -0.5197
   22CHL1   C21 1606   6.778   2.718   5.039  0.5495 -0.8265  0.5461
   22CHL1  H21A 1607   6.804   2.803   4.973 -1.0433 -1.2826 -0.7305
   22CHL1  H21B 1608   6.754   2.636   4.968 -1.3887  0.7141 -0.6482
   22CHL1  H21C 1609   6.862   2.677   5.100  2.3029  0.4105 -0.9348
   22CHL1   C22 1610   6.537   2.772   5.036  0.2201  0.1875 -0.0874
   22CHL1  H22A 1611   6.457   2.816   5.099  0.5910  0.3476  0.2754
   22CHL1  H22B 1612   6.576   2.849   4.966  0.9013 -2.2283 -2.5186
   22CHL1   C23 1613   6.483   2.657   4.947 -0.8306  0.1047 -0.3984
   22CHL1  H23A 1614   6.568   2.625   4.882  1.4415 -0.6981  2.7215
   22CHL1  H23B 1615   6.457   2.575   5.018 -1.1411 -0.0842 -0.7253
   22CHL1   C24 1616   6.361   2.680   4.859 -0.9247 -1.0429  0.3264
   22CHL1  H24A 1617   6.268   2.705   4.915 -0.3962 -0.7541  1.0815
   22CHL1  H24B 1618   6.382   2.766   4.791 -0.9537 -0.7552  0.6786
   22CHL1   C25 1619   6.322   2.572   4.762  0.8638  0.6559  0.4707
   22CHL1   H25 1620   6.408   2.561   4.692  0.2374 -0.8130 -0.0939
   22CHL1   C26 1621   6.290   2.435   4.825  0.3751 -0.2960 -0.2442
   22CHL1  H26A 1622   6.225   2.448   4.914  2.3538  1.1833  1.1003
   22CHL1  H26B 1623   6.247   2.370   4.746 -0.4762 -0.1318  0.0714
   22CHL1  H26C 1624   6.386   2.384   4.849  0.7456 -0.0485 -1.1417
   22CHL1   C27 1625   6.200   2.614   4.680  0.1538 -0.3281 -0.0020
   22CHL1  H27A 1626   6.228   2.709   4.629 -0.9118 -0.3392 -0.6373
   22CHL1  H27B 1627   6.171   2.532   4.610 -1.0134 -0.5485  0.7199
   22CHL1  H27C 1628   6.114   2.641   4.744  0.5494  3.4345 -0.8287
   23CHL1    C3 1629   4.478   5.998   6.283 -0.4900  0.7602 -0.5354
   23CHL1    H3 1630   4.409   5.912   6.269  1.8009 -1.6770  1.9672
   23CHL1    O3 1631   4.477   6.031   6.427  0.2505 -0.2673  0.1174
   23CHL1   H3' 1632   4.550   6.091   6.437  1.3778 -1.8207  1.7297
   23CHL1    C4 1633   4.624   5.949   6.246  0.1566  0.2461  0.0970
   23CHL1   H4A 1634   4.683   6.037   6.280 -1.3952  2.2221 -2.0230
   23CHL1   H4B 1635   4.653   5.860   6.305  0.9639  0.8990  0.7259
   23CHL1    C5 1636   4.639   5.923   6.098  0.5459 -0.3498 -0.2429
   23CHL1    C6 1637   4.699   5.814   6.053 -0.0946  0.8703 -1.3019
   23CHL1    H6 1638   4.736   5.734   6.119 -0.6836  1.2632 -0.4850
   23CHL1    C7 1639   4.708   5.780   5.907 -0.1309 -0.2092 -0.6783
   23CHL1   H7A 1640   4.813   5.747   5.895 -0.1303 -1.7425  2.4790
   23CHL1   H7B 1641   4.636   5.698   5.889 -2.1240  1.2686  0.0895
   23CHL1    C8 1642   4.679   5.905   5.816  0.0031  0.3638  0.3034
   23CHL1    H8 1643   4.765   5.975   5.824 -0.5333  1.0918 -0.1237
   23CHL1   C14 1644   4.682   5.867   5.671  0.4476 -0.4402 -1.0100
   23CHL1   H14 1645   4.596   5.802   5.645  0.5743 -0.1359 -2.2552
   23CHL1   C15 1646   4.804   5.799   5.627 -0.3252  0.1920 -0.0065
   23CHL1  H15A 1647   4.894   5.853   5.663 -0.0298  0.1251 -0.6491
   23CHL1  H15B 1648   4.807   5.696   5.669 -0.4856  0.0215 -0.4096
   23CHL1   C16 1649   4.796   5.802   5.477 -0.5711  0.7189  0.1384
   23CHL1  H16A 1650   4.887   5.845   5.431 -2.2597  2.9638 -1.3267
   23CHL1  H16B 1651   4.773   5.701   5.437 -0.2485 -0.8340  3.5048
   23CHL1   C17 1652   4.677   5.900   5.449 -0.4010 -0.8825  0.2157
   23CHL1   H17 1653   4.588   5.834   5.443 -1.0345 -0.0148 -0.2181
   23CHL1   C13 1654   4.669   5.988   5.573  0.7267  0.6972 -0.3547
   23CHL1   C18 1655   4.787   6.086   5.584  0.7964 -0.4197  0.1585
   23CHL1  H18A 1656   4.752   6.179   5.533 -0.4627  0.5182  2.5826
   23CHL1  H18B 1657   4.806   6.116   5.689  2.7962 -1.2202  0.0622
   23CHL1  H18C 1658   4.875   6.038   5.536  0.5635 -0.1344 -0.5791
   23CHL1   C12 1659   4.537   6.057   5.606  0.3354  0.4647  0.1200
   23CHL1  H12A 1660   4.535   6.142   5.534  0.5618  1.0069  0.7459
   23CHL1  H12B 1661   4.455   5.988   5.577 -0.5287  1.5028  0.0291
   23CHL1   C11 1662   4.524   6.096   5.757  0.5066  0.2966  0.5592
   23CHL1  H11A 1663   4.590   6.185   5.767 -0.0424  1.0697 -2.0379
   23CHL1  H11B 1664   4.417   6.126   5.768  0.1438 -1.3765  2.0768
   23CHL1    C9 1665   4.558   5.983   5.853  0.5382 -0.3736 -0.6797
   23CHL1    H9 1666   4.470   5.916   5.852 -0.1395  0.4833 -0.1137
   23CHL1   C10 1667   4.584   6.029   6.003  0.1702 -0.6674 -0.3238
   23CHL1   C19 1668   4.692   6.144   6.015 -0.0189  0.6875 -0.4113
   23CHL1  H19A 1669   4.655   6.228   5.952 -1.4409  0.7664  0.4755
   23CHL1  H19B 1670   4.695   6.189   6.116  0.2248 -0.8388  0.2849
   23CHL1  H19C 1671   4.792   6.110   5.982 -0.3548 -0.9341  0.1387
   23CHL1    C1 1672   4.447   6.068   6.058  0.6061 -0.7827  0.5819
   23CHL1   H1A 1673   4.415   6.156   5.998 -1.8025 -1.1125  1.2892
   23CHL1   H1B 1674   4.370   5.989   6.041  0.2951 -0.0153 -2.0774
   23CHL1    C2 1675   4.439   6.113   6.202 -0.3057 -0.3886  0.5907
   23CHL1   H2A 1676   4.334   6.142   6.227  0.3361  1.7420  1.0723
   23CHL1   H2B 1677   4.497   6.208   6.210 -1.3033  0.2247  0.7419
   23CHL1   C20 1678   4.674   5.982   5.316 -0.4771 -0.2700  0.1645
   23CHL1   H20 1679   4.715   6.084   5.331  1.4072 -0.8642 -0.6158
   23CHL1   C21 1680   4.531   6.003   5.260  0.2696  0.8409  0.2354
   23CHL1  H21A 1681   4.531   6.084   5.185 -0.5407  0.9784  0.3752
   23CHL1  H21B 1682   4.470   6.043   5.344 -0.3280 -1.0917  0.7673
   23CHL1  H21C 1683   4.483   5.916   5.210  2.8566  0.4297 -1.7259
   23CHL1   C22 1684   4.773   5.907   5.216  0.0002 -0.3406  0.5621
   23CHL1  H22A 1685   4.875   5.924   5.257  1.2411 -0.2606 -2.3601
   23CHL1  H22B 1686   4.748   5.799   5.211  0.6685 -0.5085  0.6661
   23CHL1   C23 1687   4.770   5.965   5.070  0.0629  0.5875  0.1206
   23CHL1  H23A 1688   4.668   5.955   5.025 -0.0848 -1.7090  0.8279
   23CHL1  H23B 1689   4.793   6.073   5.075  1.4427  0.2883  0.6176
   23CHL1   C24 1690   4.871   5.893   4.982  0.1537  0.4843  0.5171
   23CHL1  H24A 1691   4.971   5.925   5.020  0.3894  1.0265 -0.5196
   23CHL1  H24B 1692   4.867   5.782   4.987 -1.0903  0.4925 -0.1653
   23CHL1   C25 1693   4.880   5.928   4.834 -0.7443  0.4703 -0.1034
   23CHL1   H25 1694   4.784   5.925   4.778 -0.0221  1.2326 -1.4419
   23CHL1   C26 1695   4.932   6.073   4.819  0.3489 -0.0028 -0.5542
   23CHL1  H26A 1696   4.871   6.135   4.887  1.0797 -1.2864  1.3392
   23CHL1  H26B 1697   5.038   6.085   4.852  0.5126  0.2081 -1.1281
   23CHL1  H26C 1698   4.908   6.105   4.715  0.0269  0.5905 -0.2992
   23CHL1   C27 1699   4.964   5.823   4.755  0.3036 -0.1372  0.7897
   23CHL1  H27A 1700   5.069   5.816   4.791  2.0097  3.0818 -2.8579
   23CHL1  H27B 1701   4.898   5.734   4.764 -0.9736  0.9008  2.4246
   23CHL1  H27C 1702   4.963   5.840   4.646 -1.4631 -3.1061  0.2452
   24CHL1    C3 1703   4.732   3.957   6.501  0.4413  0.4895 -0.1769
   24CHL1    H3 1704   4.627   3.985   6.478  0.6391  0.5808 -0.9974
   24CHL1    O3 1705   4.747   3.933   6.644 -0.0489  0.4834  0.4468
   24CHL1   H3' 1706   4.842   3.931   6.654  0.1787 -4.8635  0.2014
   24CHL1    C4 1707   4.777   3.826   6.436 -0.5571 -0.5766  0.9219
   24CHL1   H4A 1708   4.885   3.807   6.455  0.2900  2.3650 -0.4045
   24CHL1   H4B 1709   4.721   3.738   6.475  1.0614 -2.8734 -1.5448
   24CHL1    C5 1710   4.760   3.843   6.288 -0.4921  0.4842 -0.1698
   24CHL1    C6 1711   4.677   3.761   6.219  0.6670  0.1383  0.3146
   24CHL1    H6 1712   4.621   3.685   6.276  1.6376 -0.2678  0.7478
   24CHL1    C7 1713   4.665   3.773   6.069 -0.4968 -0.3941  1.0787
   24CHL1   H7A 1714   4.678   3.674   6.022  1.8083  0.3519  0.0029
   24CHL1   H7B 1715   4.562   3.802   6.039 -0.6076 -0.7438  1.1269
   24CHL1    C8 1716   4.762   3.863   5.987 -0.1356 -0.7464  0.2079
   24CHL1    H8 1717   4.859   3.809   5.978  0.2351 -0.2411  1.0875
   24CHL1   C14 1718   4.718   3.902   5.846 -0.3478 -0.4921  0.9960
   24CHL1   H14 1719   4.628   3.964   5.863 -0.3299 -0.4277  0.8557
   24CHL1   C15 1720   4.674   3.788   5.749  0.2394  0.1939  0.0447
   24CHL1  H15A 1721   4.731   3.694   5.768 -2.2737 -1.3420  0.4869
   24CHL1  H15B 1722   4.565   3.769   5.754  0.4795 -1.5247 -0.5514
   24CHL1   C16 1723   4.702   3.847   5.603  0.7102  0.2071  0.2980
   24CHL1  H16A 1724   4.785   3.784   5.563  1.3870  0.9822  0.4663
   24CHL1  H16B 1725   4.606   3.849   5.548 -0.4886  0.4589  2.2881
   24CHL1   C17 1726   4.754   3.995   5.624 -0.2396  0.8774  0.1664
   24CHL1   H17 1727   4.662   4.056   5.630 -1.1598 -0.5476  1.3079
   24CHL1   C13 1728   4.816   3.998   5.769  0.0032 -0.1816  0.5624
   24CHL1   C18 1729   4.957   3.934   5.765  0.3885 -0.0717 -0.5273
   24CHL1  H18A 1730   5.036   3.998   5.718  1.1202  0.5120  1.4178
   24CHL1  H18B 1731   5.005   3.900   5.859 -0.7811  0.7266  0.3738
   24CHL1  H18C 1732   4.940   3.840   5.707  0.2620 -0.3262 -0.0777
   24CHL1   C12 1733   4.816   4.123   5.855 -0.0336 -0.1442  1.1512
   24CHL1  H12A 1734   4.879   4.209   5.822 -0.4174 -0.9955 -2.1533
   24CHL1  H12B 1735   4.713   4.166   5.860 -0.2620 -0.0227 -2.3194
   24CHL1   C11 1736   4.869   4.098   5.998 -0.6531  0.1339  0.1245
   24CHL1  H11A 1737   4.977   4.077   5.987 -0.5425  0.8617 -0.2712
   24CHL1  H11B 1738   4.870   4.197   6.049 -0.5146  0.5376 -0.6534
   24CHL1    C9 1739   4.788   3.985   6.071 -0.6870 -0.2319 -0.3654
   24CHL1    H9 1740   4.688   4.030   6.084 -1.0464 -0.8937 -0.7669
   24CHL1   C10 1741   4.836   3.957   6.215 -0.1141  0.5798  0.3052
   24CHL1   C19 1742   4.988   3.936   6.213 -0.2842  0.3200 -0.0814
   24CHL1  H19A 1743   5.055   4.015   6.173  1.1933 -0.1942  1.2812
   24CHL1  H19B 1744   5.031   3.917   6.313 -4.4678 -0.7324  1.7290
   24CHL1  H19C 1745   5.018   3.855   6.142  0.1361 -0.1520  0.6237
   24CHL1    C1 1746   4.807   4.082   6.297  0.5104 -0.4686  0.3199
   24CHL1   H1A 1747   4.872   4.166   6.266  1.1453 -0.6547  1.1117
   24CHL1   H1B 1748   4.701   4.110   6.280  0.7681 -0.2529 -1.0007
   24CHL1    C2 1749   4.817   4.068   6.448  0.7283 -0.8976 -0.5117
   24CHL1   H2A 1750   4.788   4.164   6.496  2.4663 -0.2411 -0.7002
   24CHL1   H2B 1751   4.920   4.051   6.485  0.9085  1.4638  0.2294
   24CHL1   C20 1752   4.841   4.044   5.509  0.0355 -0.2468 -0.3515
   24CHL1   H20 1753   4.931   3.979   5.511 -0.0527 -0.3575  0.3274
   24CHL1   C21 1754   4.880   4.193   5.531  0.4530 -0.0070 -0.1582
   24CHL1  H21A 1755   4.946   4.203   5.619 -0.7727 -0.5144  0.8572
   24CHL1  H21B 1756   4.791   4.260   5.536  0.9625  0.7008 -0.5155
   24CHL1  H21C 1757   4.941   4.238   5.450  1.3710  3.0617  2.0448
   24CHL1   C22 1758   4.772   4.036   5.374  0.0935  0.7900  0.9035
   24CHL1  H22A 1759   4.737   3.931   5.370  0.5522  0.6693 -0.7922
   24CHL1  H22B 1760   4.679   4.097   5.374 -0.6358 -0.2422  2.6985
   24CHL1   C23 1761   4.848   4.069   5.244 -0.3647  0.4202 -0.1964
   24CHL1  H23A 1762   4.870   4.178   5.245  1.6209  0.1071  2.5657
   24CHL1  H23B 1763   4.944   4.014   5.243  0.5003  1.8479  0.3101
   24CHL1   C24 1764   4.766   4.041   5.122 -0.2132 -0.2839 -0.4137
   24CHL1  H24A 1765   4.745   3.932   5.127  0.7646 -0.4234  2.3130
   24CHL1  H24B 1766   4.673   4.101   5.133  1.0073  1.4586  0.8492
   24CHL1   C25 1767   4.828   4.085   4.983 -0.1665  0.6416  0.4338
   24CHL1   H25 1768   4.852   4.193   4.983 -0.6323  0.8158 -2.3291
   24CHL1   C26 1769   4.964   4.009   4.952  0.7141 -0.4498  0.0449
   24CHL1  H26A 1770   4.999   4.025   4.847 -1.3246 -1.6213 -0.8774
   24CHL1  H26B 1771   5.037   4.044   5.028  0.2619  1.9609 -0.5568
   24CHL1  H26C 1772   4.955   3.901   4.974  1.1272 -0.7855 -1.3068
   24CHL1   C27 1773   4.712   4.060   4.878 -0.1633 -0.2413  0.0535
   24CHL1  H27A 1774   4.685   3.952   4.872 -0.8625 -0.1730  1.4993
   24CHL1  H27B 1775   4.630   4.124   4.917 -0.7220 -0.3320 -0.9478
   24CHL1  H27C 1776   4.766   4.103   4.791  0.5067  0.7538  0.9288
   25CHL1    C3 1777   2.823   5.232   6.158  0.2971 -0.1944  0.0731
   25CHL1    H3 1778   2.927   5.225   6.121 -0.3449 -0.7507 -1.7035
   25CHL1    O3 1779   2.832   5.240   6.297  0.1212 -0.2234 -0.3934
   25CHL1   H3' 1780   2.922   5.211   6.313 -0.2794 -1.1790  0.2015
   25CHL1    C4 1781   2.738   5.351   6.111 -0.4239 -0.7059 -0.1308
   25CHL1   H4A 1782   2.643   5.338   6.167  1.3191  0.5476  3.3934
   25CHL1   H4B 1783   2.785   5.444   6.149  2.7467 -2.6168  1.0446
   25CHL1    C5 1784   2.725   5.350   5.959  0.0608 -0.4298 -0.0913
   25CHL1    C6 1785   2.759   5.461   5.885 -0.0583 -0.4564 -0.2244
   25CHL1    H6 1786   2.800   5.540   5.950  1.1798 -1.2755  0.0241
   25CHL1    C7 1787   2.768   5.459   5.737  0.8298 -0.3399 -0.2948
   25CHL1   H7A 1788   2.741   5.559   5.696  0.4621 -0.6920 -0.9307
   25CHL1   H7B 1789   2.871   5.435   5.705  0.3093  0.2652 -2.5686
   25CHL1    C8 1790   2.687   5.347   5.675  0.4701  0.0031 -1.2132
   25CHL1    H8 1791   2.577   5.360   5.684  0.2473 -2.0168 -0.3432
   25CHL1   C14 1792   2.720   5.330   5.525  0.1849  0.2012 -0.4133
   25CHL1   H14 1793   2.826   5.297   5.530  0.1465  0.2698  2.3304
   25CHL1   C15 1794   2.711   5.460   5.439  0.1654 -0.2656 -0.9399
   25CHL1  H15A 1795   2.618   5.517   5.459  1.2007  2.5434 -3.4577
   25CHL1  H15B 1796   2.789   5.539   5.445  0.8569 -0.8882 -1.5773
   25CHL1   C16 1797   2.711   5.405   5.298  0.1541  0.3692  0.1219
   25CHL1  H16A 1798   2.622   5.447   5.246  0.2551 -0.3622 -0.6742
   25CHL1  H16B 1799   2.794   5.448   5.239 -2.2236  2.4315 -1.9471
   25CHL1   C17 1800   2.702   5.251   5.306 -0.0361  0.0603 -0.0755
   25CHL1   H17 1801   2.803   5.207   5.299  0.6133  1.4330  0.3750
   25CHL1   C13 1802   2.642   5.225   5.447  0.0755 -1.1031  0.1308
   25CHL1   C18 1803   2.488   5.256   5.447  0.2199  0.1130  0.3228
   25CHL1  H18A 1804   2.464   5.356   5.405  0.8769  0.4343  0.7046
   25CHL1  H18B 1805   2.442   5.182   5.378  0.9417  0.2417 -0.3114
   25CHL1  H18C 1806   2.447   5.253   5.550  2.5045  0.5783  1.2983
   25CHL1   C12 1807   2.663   5.090   5.511 -0.3708 -0.0960  0.7131
   25CHL1  H12A 1808   2.600   5.007   5.474  0.8412 -1.0032  0.6450
   25CHL1  H12B 1809   2.772   5.079   5.496 -0.2455  1.1170  0.6254
   25CHL1   C11 1810   2.646   5.097   5.666 -0.7392 -0.6330  0.2105
   25CHL1  H11A 1811   2.535   5.105   5.670 -0.9163 -0.6849 -2.6465
   25CHL1  H11B 1812   2.684   5.002   5.710 -1.0830 -0.7714  0.2072
   25CHL1    C9 1813   2.708   5.212   5.739 -0.1993 -0.1396 -0.4093
   25CHL1    H9 1814   2.817   5.194   5.726 -0.2363 -0.1446 -0.7296
   25CHL1   C10 1815   2.677   5.217   5.899  0.7665 -0.0319  0.0472
   25CHL1   C19 1816   2.535   5.190   5.928  0.1088 -0.3143 -0.0940
   25CHL1  H19A 1817   2.463   5.267   5.892 -1.2160 -0.4202  2.0960
   25CHL1  H19B 1818   2.504   5.092   5.885  0.4859 -0.7402  0.5889
   25CHL1  H19C 1819   2.533   5.185   6.039  1.8553  0.7476  0.0135
   25CHL1    C1 1820   2.763   5.100   5.955 -0.4104  0.0743  0.2952
   25CHL1   H1A 1821   2.723   5.004   5.918 -0.2411  0.3255 -0.5587
   25CHL1   H1B 1822   2.867   5.114   5.917 -0.9266  1.5381 -0.6649
   25CHL1    C2 1823   2.758   5.094   6.110  0.1637  0.0190  0.3848
   25CHL1   H2A 1824   2.816   5.006   6.145 -1.0552 -0.5454  1.0615
   25CHL1   H2B 1825   2.660   5.092   6.163  1.2517  0.8392  2.5507
   25CHL1   C20 1826   2.623   5.189   5.190  0.4430  0.6050  0.1622
   25CHL1   H20 1827   2.514   5.213   5.191  0.4780  1.1525 -2.6291
   25CHL1   C21 1828   2.640   5.038   5.195  0.0520  0.6810 -0.1266
   25CHL1  H21A 1829   2.606   4.993   5.099  2.7505  0.4313 -1.0507
   25CHL1  H21B 1830   2.577   4.995   5.276 -1.0955  3.8833  0.8450
   25CHL1  H21C 1831   2.744   5.006   5.216 -0.8697 -1.3659  1.7013
   25CHL1   C22 1832   2.677   5.242   5.049  0.3005 -0.4966 -0.0121
   25CHL1  H22A 1833   2.689   5.353   5.048 -3.4339  0.0938  1.8073
   25CHL1  H22B 1834   2.779   5.197   5.051  2.0207  3.0472  1.1168
   25CHL1   C23 1835   2.590   5.208   4.924 -0.5515  0.5625 -0.3524
   25CHL1  H23A 1836   2.538   5.110   4.936  0.8365 -0.3964 -1.7847
   25CHL1  H23B 1837   2.520   5.294   4.921 -0.5967  0.6532  1.8455
   25CHL1   C24 1838   2.666   5.207   4.794  0.2490  0.0091 -0.1007
   25CHL1  H24A 1839   2.736   5.122   4.807 -0.5770 -0.4434  1.6818
   25CHL1  H24B 1840   2.608   5.181   4.703 -1.3445  1.3441  0.4884
   25CHL1   C25 1841   2.746   5.334   4.764  0.3033 -0.3309 -0.5528
   25CHL1   H25 1842   2.792   5.368   4.860  1.0721 -1.8955 -0.3367
   25CHL1   C26 1843   2.844   5.308   4.658 -0.4127  0.7530 -0.2013
   25CHL1  H26A 1844   2.930   5.250   4.696 -0.3693  1.1169  0.2618
   25CHL1  H26B 1845   2.788   5.256   4.577  1.0243 -0.4221 -0.4840
   25CHL1  H26C 1846   2.894   5.400   4.621  1.4164  0.5600  1.6374
   25CHL1   C27 1847   2.650   5.443   4.718 -0.2586 -0.8694 -0.0189
   25CHL1  H27A 1848   2.623   5.400   4.620 -0.7028 -1.2167  0.2541
   25CHL1  H27B 1849   2.563   5.449   4.787 -0.2269  2.5957 -0.0991
   25CHL1  H27C 1850   2.702   5.542   4.713 -0.0881 -0.9722 -0.3352
   26CHL1    C3 1851   6.392   4.074   6.501  0.3915  0.3864  0.1346
   26CHL1    H3 1852   6.321   4.005   6.451 -2.8104  1.2405  3.0628
   26CHL1    O3 1853   6.366   4.070   6.642 -0.6360 -0.3243 -0.6650
   26CHL1   H3' 1854   6.407   4.142   6.691 -0.6642 -1.0697  0.5149
   26CHL1    C4 1855   6.532   4.024   6.487  0.2357  0.2905  0.5929
   26CHL1   H4A 1856   6.616   4.087   6.524  1.8471 -1.4976  0.1948
   26CHL1   H4B 1857   6.545   3.923   6.532  0.2648 -0.0829 -0.2295
   26CHL1    C5 1858   6.566   4.008   6.338  0.4889  0.0243 -0.3415
   26CHL1    C6 1859   6.602   3.888   6.279 -0.7620  0.0761 -0.2175
   26CHL1    H6 1860   6.618   3.798   6.341 -1.3426 -0.3355 -0.6524
   26CHL1    C7 1861   6.632   3.876   6.133 -0.0701  0.2758 -0.9010
   26CHL1   H7A 1862   6.728   3.820   6.122  0.4384  0.6480  1.1471
   26CHL1   H7B 1863   6.556   3.819   6.077 -1.3107  2.0933 -1.1243
   26CHL1    C8 1864   6.635   4.013   6.062  0.7105  0.8574  0.1085
   26CHL1    H8 1865   6.740   4.047   6.075  1.4153 -1.0439 -0.3215
   26CHL1   C14 1866   6.619   3.985   5.913 -0.1319 -0.5079 -0.0998
   26CHL1   H14 1867   6.519   3.940   5.895  0.2561 -1.8487  0.9383
   26CHL1   C15 1868   6.705   3.882   5.837  0.2726  0.0339 -0.5831
   26CHL1  H15A 1869   6.814   3.895   5.853  1.0383 -2.5599 -2.9560
   26CHL1  H15B 1870   6.670   3.782   5.869  1.4710  0.1594  1.3127
   26CHL1   C16 1871   6.691   3.895   5.687 -0.1085  0.0023 -0.0799
   26CHL1  H16A 1872   6.793   3.908   5.644 -0.1311  1.5917  0.2989
   26CHL1  H16B 1873   6.647   3.803   5.644 -0.3894 -0.1719  0.5610
   26CHL1   C17 1874   6.612   4.031   5.679 -0.1707  0.5544  0.2818
   26CHL1   H17 1875   6.504   4.010   5.664 -1.0383  3.0625  2.2060
   26CHL1   C13 1876   6.622   4.106   5.819 -0.0856 -1.2240  0.3040
   26CHL1   C18 1877   6.756   4.186   5.816 -0.2714 -0.1908  0.4167
   26CHL1  H18A 1878   6.758   4.277   5.753  0.6586 -0.1043  0.5629
   26CHL1  H18B 1879   6.789   4.215   5.918  0.3005  0.1110  0.1441
   26CHL1  H18C 1880   6.839   4.122   5.780 -1.2669 -2.5493  2.0388
   26CHL1   C12 1881   6.513   4.201   5.866 -0.5834 -0.0292 -0.6926
   26CHL1  H12A 1882   6.474   4.280   5.799 -2.9498 -0.7364 -0.2499
   26CHL1  H12B 1883   6.426   4.132   5.866  0.1847 -1.0990  1.6485
   26CHL1   C11 1884   6.542   4.239   6.013  0.2034  0.4066 -0.4580
   26CHL1  H11A 1885   6.629   4.307   6.017  0.9713 -0.6154  0.8492
   26CHL1  H11B 1886   6.463   4.309   6.048  1.4506  0.6185  2.2163
   26CHL1    C9 1887   6.537   4.114   6.109 -1.1964  0.6344  0.0896
   26CHL1    H9 1888   6.442   4.059   6.096  0.8354 -2.8531 -1.2378
   26CHL1   C10 1889   6.546   4.140   6.257  0.3137  0.3000 -0.4707
   26CHL1   C19 1890   6.665   4.237   6.289  0.1343 -0.7809 -0.1284
   26CHL1  H19A 1891   6.690   4.230   6.397  1.7337  0.2317 -0.3879
   26CHL1  H19B 1892   6.753   4.232   6.222 -0.5442  1.5295 -1.3431
   26CHL1  H19C 1893   6.637   4.344   6.272  0.3389 -0.7488 -0.2670
   26CHL1    C1 1894   6.416   4.208   6.300  0.1981  0.3433  0.2814
   26CHL1   H1A 1895   6.416   4.307   6.249 -1.1366 -0.8304 -2.1778
   26CHL1   H1B 1896   6.331   4.159   6.247 -0.8476  0.1435  2.0772
   26CHL1    C2 1897   6.389   4.220   6.449  0.2065 -0.4123  0.4252
   26CHL1   H2A 1898   6.294   4.276   6.460 -1.1010 -2.7617  1.7909
   26CHL1   H2B 1899   6.478   4.272   6.491  1.2526 -1.9648  0.2215
   26CHL1   C20 1900   6.653   4.108   5.547 -0.1466  0.5957 -0.2568
   26CHL1   H20 1901   6.763   4.126   5.541  0.1523 -0.1485  2.0730
   26CHL1   C21 1902   6.574   4.233   5.544  0.4873 -0.5391  0.2200
   26CHL1  H21A 1903   6.466   4.214   5.564 -0.1862 -1.9849 -3.8084
   26CHL1  H21B 1904   6.578   4.275   5.442  1.3604  1.9740  1.2229
   26CHL1  H21C 1905   6.617   4.313   5.609  2.4395 -0.2137 -1.3951
   26CHL1   C22 1906   6.608   4.017   5.423 -0.0989  0.7534 -1.0607
   26CHL1  H22A 1907   6.637   3.911   5.430 -1.4302  0.4943  1.9699
   26CHL1  H22B 1908   6.497   4.017   5.430 -0.0563  0.8043 -0.3656
   26CHL1   C23 1909   6.675   4.060   5.294 -0.0370  0.0974 -0.3549
   26CHL1  H23A 1910   6.637   4.163   5.279 -0.6766 -0.4360 -2.6976
   26CHL1  H23B 1911   6.786   4.058   5.305  0.2683  0.3527 -2.7808
   26CHL1   C24 1912   6.648   3.962   5.169 -0.1887 -0.6655 -0.8099
   26CHL1  H24A 1913   6.684   3.862   5.201  2.1007  0.4380  0.3103
   26CHL1  H24B 1914   6.541   3.938   5.155  0.4016 -3.1739 -1.5018
   26CHL1   C25 1915   6.734   4.001   5.052 -1.1583  0.2278  0.4801
   26CHL1   H25 1916   6.833   4.020   5.099 -1.7120 -0.8260  2.1645
   26CHL1   C26 1917   6.746   3.892   4.961 -0.3221  0.9439  0.4672
   26CHL1  H26A 1918   6.829   3.902   4.888  0.2783  0.2475  1.0342
   26CHL1  H26B 1919   6.771   3.794   5.008  1.9072  1.1595 -0.1469
   26CHL1  H26C 1920   6.654   3.876   4.902  0.8291  0.6975 -1.3448
   26CHL1   C27 1921   6.692   4.128   4.972  0.6276  0.6991  0.0240
   26CHL1  H27A 1922   6.607   4.109   4.903  1.1426  0.4422 -0.5400
   26CHL1  H27B 1923   6.670   4.210   5.045  0.0602  1.9341 -1.4700
   26CHL1  H27C 1924   6.774   4.166   4.907  0.6661  0.2590 -0.1856
   27CHL1    C3 1925   5.196   3.578   6.216 -0.4236 -0.0814 -1.0587
   27CHL1    H3 1926   5.087   3.598   6.219 -0.5044 -0.5679  1.2624
   27CHL1    O3 1927   5.255   3.557   6.344 -0.0843  0.0290 -0.4155
   27CHL1   H3' 1928   5.198   3.488   6.380  0.3544 -0.5095 -0.7460
   27CHL1    C4 1929   5.229   3.452   6.142 -0.1838  0.6567  0.0649
   27CHL1   H4A 1930   5.337   3.435   6.157 -0.0753  1.6093  0.4284
   27CHL1   H4B 1931   5.199   3.358   6.192  0.4254  0.7457  0.6077
   27CHL1    C5 1932   5.189   3.466   5.995 -0.2012  0.6456  0.4271
   27CHL1    C6 1933   5.095   3.384   5.932 -0.5698 -0.1451  0.5740
   27CHL1    H6 1934   5.041   3.308   5.991  1.8786 -2.4842  0.0419
   27CHL1    C7 1935   5.062   3.404   5.791  0.5176 -0.3159  0.4923
   27CHL1   H7A 1936   5.063   3.306   5.739 -0.0643  0.4503 -1.0060
   27CHL1   H7B 1937   4.962   3.451   5.788  1.2646  1.4752  1.8575
   27CHL1    C8 1938   5.162   3.497   5.713 -0.1060  0.6638 -0.4021
   27CHL1    H8 1939   5.262   3.448   5.703 -0.3435 -0.1149  0.8000
   27CHL1   C14 1940   5.103   3.523   5.577  0.6246  0.0769 -0.0562
   27CHL1   H14 1941   5.004   3.574   5.577  0.6394  0.1837  2.1498
   27CHL1   C15 1942   5.091   3.396   5.496 -0.2205 -0.0375 -0.0190
   27CHL1  H15A 1943   5.167   3.320   5.526  0.6683  0.9383  0.2723
   27CHL1  H15B 1944   4.993   3.349   5.518 -0.8485  0.4662 -1.6118
   27CHL1   C16 1945   5.103   3.445   5.345  0.4477 -0.0735  0.4169
   27CHL1  H16A 1946   5.192   3.401   5.295  0.0259  2.0574 -2.5281
   27CHL1  H16B 1947   5.013   3.415   5.288  1.9781 -0.6127 -1.8478
   27CHL1   C17 1948   5.120   3.597   5.350 -0.0180 -0.5766  0.2118
   27CHL1   H17 1949   5.015   3.633   5.356  0.0088 -0.3968 -0.3458
   27CHL1   C13 1950   5.191   3.615   5.497  0.0303 -0.0982  0.5274
   27CHL1   C18 1951   5.338   3.561   5.482  0.3135 -0.1075 -0.4137
   27CHL1  H18A 1952   5.404   3.634   5.431  1.3705 -0.1329  0.8588
   27CHL1  H18B 1953   5.385   3.546   5.582 -0.7674  1.9704  0.4677
   27CHL1  H18C 1954   5.338   3.463   5.429 -0.7185  0.5557 -1.6848
   27CHL1   C12 1955   5.193   3.751   5.561 -1.2217  0.3742 -0.4378
   27CHL1  H12A 1956   5.268   3.814   5.507 -0.6549 -0.6848 -0.9198
   27CHL1  H12B 1957   5.091   3.794   5.553 -0.4360  2.5677  0.3521
   27CHL1   C11 1958   5.240   3.745   5.715 -0.5304 -0.6761  0.1429
   27CHL1  H11A 1959   5.348   3.729   5.737 -0.6130  1.7639  2.9813
   27CHL1  H11B 1960   5.219   3.844   5.761  0.9943 -0.7738  1.1387
   27CHL1    C9 1961   5.185   3.628   5.795  0.5909  0.1695 -0.3443
   27CHL1    H9 1962   5.081   3.655   5.823  0.9319  1.4143 -0.2244
   27CHL1   C10 1963   5.256   3.593   5.935 -0.1292 -0.0635  0.0341
   27CHL1   C19 1964   5.405   3.564   5.901 -0.3724  1.0001 -1.0064
   27CHL1  H19A 1965   5.423   3.485   5.825  3.0379  1.9902 -1.4133
   27CHL1  H19B 1966   5.460   3.659   5.884 -1.5620  1.8986  0.0323
   27CHL1  H19C 1967   5.452   3.539   5.999  0.1087  1.5767 -1.0851
   27CHL1    C1 1968   5.229   3.719   6.022 -0.4339 -0.0770 -0.3803
   27CHL1   H1A 1969   5.292   3.799   5.978  0.1140 -0.3963 -0.1881
   27CHL1   H1B 1970   5.125   3.756   6.012 -0.0460  1.2665  0.3256
   27CHL1    C2 1971   5.260   3.704   6.165 -0.8224 -0.3972  0.0863
   27CHL1   H2A 1972   5.227   3.792   6.223 -0.2636  0.5742 -1.0280
   27CHL1   H2B 1973   5.370   3.700   6.179 -0.3703  2.3849 -1.8005
   27CHL1   C20 1974   5.189   3.655   5.228 -0.2712  0.1901  0.1684
   27CHL1   H20 1975   5.291   3.681   5.261 -0.1909 -1.2999  1.1958
   27CHL1   C21 1976   5.130   3.796   5.203 -0.0288 -0.9422 -0.5453
   27CHL1  H21A 1977   5.151   3.857   5.294  1.2477  0.0616 -1.4722
   27CHL1  H21B 1978   5.023   3.789   5.173  0.4066 -2.3885 -1.8841
   27CHL1  H21C 1979   5.183   3.850   5.122  0.6176  0.8258  0.9687
   27CHL1   C22 1980   5.210   3.569   5.097  0.6463 -0.1010  0.3435
   27CHL1  H22A 1981   5.262   3.630   5.021  2.4444 -0.0475  1.5516
   27CHL1  H22B 1982   5.269   3.475   5.107 -1.6701 -1.5858  0.8717
   27CHL1   C23 1983   5.075   3.525   5.026 -0.0884 -1.2293 -0.2827
   27CHL1  H23A 1984   5.000   3.474   5.090 -0.2158  0.9660  1.4304
   27CHL1  H23B 1985   5.026   3.619   4.992  0.2879 -1.0430 -0.3173
   27CHL1   C24 1986   5.103   3.437   4.900  0.1844  0.3067  0.4198
   27CHL1  H24A 1987   5.175   3.479   4.827 -1.0547 -0.3813 -1.2876
   27CHL1  H24B 1988   5.134   3.335   4.931 -1.6994 -0.8327 -1.1925
   27CHL1   C25 1989   4.974   3.396   4.820  0.9616 -0.4467 -0.8214
   27CHL1   H25 1990   4.929   3.492   4.785  1.1759  0.9465  2.3637
   27CHL1   C26 1991   5.005   3.307   4.707 -0.7699  0.0086  0.0701
   27CHL1  H26A 1992   4.906   3.298   4.658 -0.4069  2.1162 -1.1599
   27CHL1  H26B 1993   5.074   3.347   4.630  1.5071 -0.7481  1.6122
   27CHL1  H26C 1994   5.047   3.212   4.747  1.7482  1.1146  0.1872
   27CHL1   C27 1995   4.877   3.321   4.905 -0.0689  0.1472  0.8140
   27CHL1  H27A 1996   4.840   3.376   4.994  1.9521  0.5502  1.4370
   27CHL1  H27B 1997   4.782   3.303   4.850 -0.1735  2.1700  0.2442
   27CHL1  H27C 1998   4.916   3.226   4.947 -0.5678 -1.3153 -1.7817
   28CHL1    C3 1999   5.918   4.199   6.451  0.5500  0.0640  0.0657
   28CHL1    H3 2000   5.983   4.114   6.421  0.7819  0.4615 -0.5789
   28CHL1    O3 2001   5.881   4.200   6.584 -0.0855  0.0177  0.2482
   28CHL1   H3' 2002   5.819   4.272   6.589  1.1387  1.1579 -0.3739
   28CHL1    C4 2003   5.971   4.334   6.406 -0.7113 -0.1014  0.6838
   28CHL1   H4A 2004   5.906   4.416   6.443 -0.2130 -0.1940  1.8224
   28CHL1   H4B 2005   6.071   4.347   6.454  0.2573  0.7994 -1.4370
   28CHL1    C5 2006   6.004   4.350   6.257  0.5841  1.2130  0.7791
   28CHL1    C6 2007   6.121   4.398   6.211  0.1053  0.3907  0.5310
   28CHL1    H6 2008   6.190   4.437   6.287 -1.2024  2.1016  0.9168
   28CHL1    C7 2009   6.163   4.412   6.068 -0.2943 -0.1279  0.5887
   28CHL1   H7A 2010   6.219   4.507   6.048 -0.4850 -0.0483  0.4279
   28CHL1   H7B 2011   6.239   4.332   6.052 -1.2539 -1.1015  0.8094
   28CHL1    C8 2012   6.044   4.400   5.971  0.4643 -0.2600  0.3663
   28CHL1    H8 2013   6.005   4.504   5.974  2.7095  0.6518  0.0554
   28CHL1   C14 2014   6.092   4.370   5.832 -0.1214  0.0897  0.1537
   28CHL1   H14 2015   6.143   4.271   5.836 -1.5553 -0.6432  1.0947
   28CHL1   C15 2016   6.199   4.463   5.777 -0.5470  0.2114 -0.2730
   28CHL1  H15A 2017   6.166   4.567   5.799  1.5087  0.9866 -0.5900
   28CHL1  H15B 2018   6.299   4.446   5.823 -0.9806  1.6255  1.3028
   28CHL1   C16 2019   6.185   4.434   5.619 -0.2869  0.3225  0.0297
   28CHL1  H16A 2020   6.174   4.530   5.564  2.4705  1.3163  1.0270
   28CHL1  H16B 2021   6.272   4.383   5.572 -0.5196  1.4141 -1.6869
   28CHL1   C17 2022   6.068   4.333   5.602 -1.0996  0.0009 -0.7848
   28CHL1   H17 2023   6.122   4.238   5.620  0.3223  0.5935 -1.7474
   28CHL1   C13 2024   5.985   4.358   5.730  0.2860  0.8008  0.1055
   28CHL1   C18 2025   5.908   4.487   5.709 -0.0394  0.7021  0.2621
   28CHL1  H18A 2026   5.819   4.483   5.644 -0.2479 -1.7738  0.6292
   28CHL1  H18B 2027   5.876   4.537   5.803 -0.9494  0.5788  0.0259
   28CHL1  H18C 2028   5.971   4.566   5.662  0.0475  1.4593  1.5872
   28CHL1   C12 2029   5.894   4.245   5.773 -0.1367  0.6382 -0.0324
   28CHL1  H12A 2030   5.807   4.236   5.704 -2.2336 -0.9782  2.6134
   28CHL1  H12B 2031   5.949   4.149   5.783 -1.9234 -0.7879 -2.6083
   28CHL1   C11 2032   5.830   4.260   5.916  0.6413 -0.2941  0.2353
   28CHL1  H11A 2033   5.757   4.343   5.915 -0.1932 -1.0220 -0.0092
   28CHL1  H11B 2034   5.767   4.174   5.946 -0.2789  0.3699  0.2400
   28CHL1    C9 2035   5.943   4.288   6.015 -1.6489  0.3483 -0.8934
   28CHL1    H9 2036   6.003   4.195   6.018 -0.9363  0.8088  1.5064
   28CHL1   C10 2037   5.895   4.315   6.159  0.6529 -0.1144 -1.0981
   28CHL1   C19 2038   5.793   4.437   6.157 -0.2097 -1.0607 -0.5486
   28CHL1  H19A 2039   5.707   4.395   6.101 -0.1184 -1.9766 -0.0162
   28CHL1  H19B 2040   5.765   4.480   6.256  0.2230 -0.8198 -0.5248
   28CHL1  H19C 2041   5.833   4.525   6.100  1.0339  0.5459  2.5475
   28CHL1    C1 2042   5.836   4.185   6.214  0.0075 -0.0976  0.1228
   28CHL1   H1A 2043   5.736   4.180   6.165  0.0700  1.0542 -0.1583
   28CHL1   H1B 2044   5.887   4.088   6.194 -1.6073 -0.9912  0.1819
   28CHL1    C2 2045   5.788   4.184   6.365 -0.7465  0.5497  0.2003
   28CHL1   H2A 2046   5.738   4.087   6.389 -0.1382 -0.6121 -2.7891
   28CHL1   H2B 2047   5.727   4.273   6.392  0.3106  1.1021  0.8387
   28CHL1   C20 2048   6.007   4.332   5.462 -0.3591 -0.0076 -1.0347
   28CHL1   H20 2049   5.938   4.417   5.446 -1.9887 -1.0989 -0.1007
   28CHL1   C21 2050   5.922   4.203   5.454  0.2287  0.0282  0.5829
   28CHL1  H21A 2051   5.822   4.221   5.500 -0.0075 -0.3493  0.2262
   28CHL1  H21B 2052   5.974   4.116   5.499 -0.9310 -0.6638  0.6298
   28CHL1  H21C 2053   5.903   4.175   5.348  0.6399  0.3993  0.4104
   28CHL1   C22 2054   6.109   4.334   5.351 -0.0607 -0.3867 -0.1454
   28CHL1  H22A 2055   6.043   4.353   5.264 -3.3161 -0.7052  2.0958
   28CHL1  H22B 2056   6.168   4.428   5.355 -4.1298  2.3541  1.0952
   28CHL1   C23 2057   6.196   4.210   5.329 -0.2079  1.2648 -0.6184
   28CHL1  H23A 2058   6.266   4.206   5.415  0.1043  0.3324 -0.9028
   28CHL1  H23B 2059   6.124   4.125   5.325 -1.7544  2.3851  1.6503
   28CHL1   C24 2060   6.290   4.216   5.203 -0.0213 -0.4176 -0.3860
   28CHL1  H24A 2061   6.373   4.290   5.211 -1.4396  1.3075 -0.9512
   28CHL1  H24B 2062   6.337   4.115   5.209 -1.9524 -1.2827  3.6423
   28CHL1   C25 2063   6.229   4.253   5.062  0.2130 -0.3820 -0.1225
   28CHL1   H25 2064   6.207   4.362   5.058  3.1824  0.3067 -3.2560
   28CHL1   C26 2065   6.334   4.241   4.952  0.1938  0.4110 -0.5619
   28CHL1  H26A 2066   6.287   4.255   4.852  2.2576  0.3077 -1.5840
   28CHL1  H26B 2067   6.417   4.314   4.956  0.4158  0.1168  0.6365
   28CHL1  H26C 2068   6.372   4.137   4.964  0.8038  0.7967  1.0163
   28CHL1   C27 2069   6.104   4.170   5.030 -0.0357 -0.0634 -0.6418
   28CHL1  H27A 2070   6.137   4.066   5.014 -1.0630 -0.4623 -0.2537
   28CHL1  H27B 2071   6.024   4.182   5.106  1.1868 -1.8903  1.0071
   28CHL1  H27C 2072   6.062   4.198   4.931  1.7217 -0.1304 -1.4354
   29CHL1    C3 2073   4.653   5.747   2.735  0.3727 -0.4247  0.7965
   29CHL1    H3 2074   4.657   5.854   2.765 -1.1383 -0.4213  1.1037
   29CHL1    O3 2075   4.609   5.747   2.594 -0.5655 -0.8491  0.5590
   29CHL1   H3' 2076   4.638   5.823   2.543 -0.1395 -1.6182 -0.3776
   29CHL1    C4 2077   4.789   5.677   2.740 -0.3312  1.2434 -0.2759
   29CHL1   H4A 2078   4.767   5.578   2.695 -3.1197  0.8511  1.6990
   29CHL1   H4B 2079   4.859   5.744   2.685 -1.8953  0.4736 -3.3856
   29CHL1    C5 2080   4.837   5.657   2.883 -0.0327  0.0067  0.3825
   29CHL1    C6 2081   4.958   5.703   2.920  0.4924  0.0852  0.5741
   29CHL1    H6 2082   5.018   5.758   2.847 -0.3340 -2.0189 -1.8196
   29CHL1    C7 2083   5.008   5.684   3.060  0.2399  0.3658 -1.0076
   29CHL1   H7A 2084   5.113   5.648   3.059  0.5198  1.0188  0.8129
   29CHL1   H7B 2085   5.012   5.785   3.106  2.0636  0.7646 -1.9357
   29CHL1    C8 2086   4.929   5.570   3.134 -0.4781 -1.6675  0.0919
   29CHL1    H8 2087   4.958   5.471   3.092 -3.2432 -2.2252 -0.6656
   29CHL1   C14 2088   4.961   5.583   3.290 -0.0927  0.0218  0.3756
   29CHL1   H14 2089   4.906   5.678   3.310 -0.2608  0.8779 -3.4799
   29CHL1   C15 2090   5.108   5.593   3.328 -0.5433 -0.1898 -0.7271
   29CHL1  H15A 2091   5.171   5.525   3.267  0.5605 -0.3320  0.5162
   29CHL1  H15B 2092   5.151   5.695   3.315 -1.1042  0.6742  3.1260
   29CHL1   C16 2093   5.105   5.556   3.476  0.2515  0.8603 -0.4413
   29CHL1  H16A 2094   5.171   5.469   3.493 -1.4011 -0.6555 -1.4407
   29CHL1  H16B 2095   5.152   5.629   3.545 -0.1801  1.0422 -0.3344
   29CHL1   C17 2096   4.957   5.507   3.519  0.1231  0.7128  0.7240
   29CHL1   H17 2097   4.909   5.604   3.548 -1.9218  0.3640 -1.2003
   29CHL1   C13 2098   4.890   5.476   3.381 -0.4422  0.2140  0.0307
   29CHL1   C18 2099   4.935   5.342   3.327 -0.3147  0.7790 -0.2742
   29CHL1  H18A 2100   4.905   5.316   3.223 -0.9916 -0.6160  0.2464
   29CHL1  H18B 2101   5.043   5.322   3.341 -0.0400 -0.0789 -2.9494
   29CHL1  H18C 2102   4.883   5.262   3.385 -0.5749 -0.0958 -1.6696
   29CHL1   C12 2103   4.743   5.502   3.363  0.0128  0.2443  0.3630
   29CHL1  H12A 2104   4.682   5.434   3.427  0.4134 -1.6889 -1.2136
   29CHL1  H12B 2105   4.728   5.601   3.411  2.8847  0.7606  0.3543
   29CHL1   C11 2106   4.696   5.506   3.217  0.0006  0.7298 -0.3190
   29CHL1  H11A 2107   4.710   5.401   3.184 -2.2462  0.4676 -0.5776
   29CHL1  H11B 2108   4.590   5.538   3.211  0.0729  0.9282 -0.5436
   29CHL1    C9 2109   4.782   5.593   3.122  0.7795 -0.3405  0.1345
   29CHL1    H9 2110   4.771   5.700   3.148  0.8906 -0.1551 -0.5705
   29CHL1   C10 2111   4.732   5.590   2.974 -0.5023  0.0729  0.5054
   29CHL1   C19 2112   4.718   5.442   2.928 -0.6432 -0.0739  0.6193
   29CHL1  H19A 2113   4.806   5.384   2.963  0.6672  0.3311 -1.7642
   29CHL1  H19B 2114   4.622   5.416   2.978 -0.9071 -1.1758 -0.4043
   29CHL1  H19C 2115   4.706   5.435   2.818  0.4384  0.5846  0.4473
   29CHL1    C1 2116   4.595   5.660   2.961 -0.5044 -0.1259  0.0667
   29CHL1   H1A 2117   4.524   5.621   3.036  1.2775  1.2258  2.5947
   29CHL1   H1B 2118   4.602   5.763   3.003  1.0216 -0.6799  1.2462
   29CHL1    C2 2119   4.548   5.674   2.818 -0.5612 -0.1906  0.8794
   29CHL1   H2A 2120   4.449   5.723   2.829 -1.4846 -2.2698  2.8012
   29CHL1   H2B 2121   4.517   5.573   2.784 -0.4963  0.1627 -0.2493
   29CHL1   C20 2122   4.940   5.405   3.636  0.1584 -0.2545  1.0480
   29CHL1   H20 2123   4.969   5.308   3.590 -2.2108 -0.8610  0.6807
   29CHL1   C21 2124   4.788   5.387   3.666 -0.8735  0.2126  0.4060
   29CHL1  H21A 2125   4.742   5.314   3.596 -0.5526  0.8064 -0.4487
   29CHL1  H21B 2126   4.729   5.481   3.672 -0.7037  0.2312  2.4409
   29CHL1  H21C 2127   4.787   5.330   3.761 -0.5384 -0.7773 -0.1620
   29CHL1   C22 2128   5.022   5.445   3.761 -0.0941 -0.3932  0.2265
   29CHL1  H22A 2129   5.042   5.353   3.820  0.7583 -1.0868 -1.0871
   29CHL1  H22B 2130   5.126   5.471   3.733  0.2717 -1.9904 -0.0189
   29CHL1   C23 2131   4.960   5.559   3.852  0.8194  0.5889 -0.2196
   29CHL1  H23A 2132   4.962   5.655   3.795 -0.0784  3.5949  4.2550
   29CHL1  H23B 2133   4.863   5.528   3.895  0.4662  1.2823 -0.4894
   29CHL1   C24 2134   5.065   5.591   3.966  0.7348  0.4051  0.2670
   29CHL1  H24A 2135   5.084   5.500   4.026 -2.5009 -0.5255  0.1034
   29CHL1  H24B 2136   5.165   5.616   3.924  1.2211 -2.7929 -0.7269
   29CHL1   C25 2137   5.012   5.695   4.066  0.2190 -0.4554  0.5074
   29CHL1   H25 2138   5.005   5.793   4.013  0.7445  0.4213  1.9748
   29CHL1   C26 2139   4.883   5.661   4.132  0.0295 -0.0558 -0.1490
   29CHL1  H26A 2140   4.889   5.572   4.199  2.1715  0.0543 -0.1334
   29CHL1  H26B 2141   4.844   5.742   4.198 -1.0453 -0.8648  0.2549
   29CHL1  H26C 2142   4.801   5.639   4.060 -0.0480  1.0168 -0.4051
   29CHL1   C27 2143   5.119   5.704   4.176 -0.5521  0.8483  0.0949
   29CHL1  H27A 2144   5.092   5.776   4.256 -1.1685  0.8983 -0.1587
   29CHL1  H27B 2145   5.135   5.608   4.231 -0.0440  1.5951  1.3126
   29CHL1  H27C 2146   5.218   5.735   4.137  0.6749 -1.8857  0.7372
   30CHL1    C3 2147   6.197   6.300   2.776  0.3146 -0.8711  1.1098
   30CHL1    H3 2148   6.305   6.282   2.792  0.2312 -0.3425  2.4537
   30CHL1    O3 2149   6.154   6.288   2.638  0.0800 -0.0571 -0.1421
   30CHL1   H3' 2150   6.213   6.340   2.583 -0.1577  0.4203  0.0547
   30CHL1    C4 2151   6.106   6.219   2.871  0.2495 -0.6486  0.3054
   30CHL1   H4A 2152   5.998   6.241   2.854  0.7207  0.0942 -2.2849
   30CHL1   H4B 2153   6.117   6.110   2.852 -0.1565 -0.5448 -0.6010
   30CHL1    C5 2154   6.140   6.264   3.013 -0.0311 -0.5352 -0.4820
   30CHL1    C6 2155   6.183   6.171   3.100  0.0252  0.3421 -0.6460
   30CHL1    H6 2156   6.184   6.067   3.065  1.4456  0.3528 -0.7086
   30CHL1    C7 2157   6.207   6.186   3.246 -0.0209 -0.2021 -0.5027
   30CHL1   H7A 2158   6.149   6.115   3.310 -2.1733  1.1140 -0.8842
   30CHL1   H7B 2159   6.311   6.168   3.280 -1.1248  1.6409  4.9496
   30CHL1    C8 2160   6.153   6.328   3.297 -0.6934  0.2850 -0.4056
   30CHL1    H8 2161   6.042   6.330   3.303 -0.6717 -0.0532  0.2778
   30CHL1   C14 2162   6.213   6.364   3.432  0.4025 -0.4811 -0.4131
   30CHL1   H14 2163   6.321   6.381   3.411 -0.1643  1.3275 -2.1956
   30CHL1   C15 2164   6.214   6.244   3.528 -0.0024  0.7348  0.6152
   30CHL1  H15A 2165   6.111   6.205   3.539 -0.2196  1.2837  0.5522
   30CHL1  H15B 2166   6.290   6.167   3.500  0.1399  1.4340 -0.9834
   30CHL1   C16 2167   6.260   6.320   3.657 -0.0673  0.1337 -0.4571
   30CHL1  H16A 2168   6.199   6.281   3.741  0.9047  2.1947  1.3137
   30CHL1  H16B 2169   6.362   6.282   3.678 -0.1025  1.2460  2.0896
   30CHL1   C17 2170   6.250   6.466   3.637 -0.4334 -0.4612  0.0749
   30CHL1   H17 2171   6.351   6.505   3.612 -0.4996 -0.7706 -0.6967
   30CHL1   C13 2172   6.164   6.486   3.504  0.3198 -0.1004 -0.3441
   30CHL1   C18 2173   6.007   6.466   3.530 -0.8355 -0.3341 -0.0152
   30CHL1  H18A 2174   5.958   6.452   3.432  1.5032  1.3632 -1.5282
   30CHL1  H18B 2175   5.989   6.378   3.596 -0.2131 -1.1601 -0.9255
   30CHL1  H18C 2176   5.970   6.564   3.567  0.8846  1.1380 -1.9801
   30CHL1   C12 2177   6.198   6.604   3.410 -0.8510  0.4756 -0.2017
   30CHL1  H12A 2178   6.152   6.700   3.442 -2.3609 -0.5686  0.9370
   30CHL1  H12B 2179   6.308   6.617   3.418 -0.9210  1.6554 -0.9197
   30CHL1   C11 2180   6.146   6.580   3.264 -0.5543 -0.1170  1.0286
   30CHL1  H11A 2181   6.036   6.561   3.267 -0.4058 -1.5704 -0.6782
   30CHL1  H11B 2182   6.166   6.669   3.201 -0.8280  0.3495  1.5885
   30CHL1    C9 2183   6.184   6.439   3.200 -0.6998 -0.6823  0.2043
   30CHL1    H9 2184   6.294   6.440   3.186 -0.6129  0.3446  0.8895
   30CHL1   C10 2185   6.128   6.415   3.060  0.0478  0.3498  0.4082
   30CHL1   C19 2186   5.979   6.448   3.044 -0.2435 -0.1264 -0.2833
   30CHL1  H19A 2187   5.920   6.375   3.103  2.9665 -1.5650  1.4250
   30CHL1  H19B 2188   5.965   6.555   3.069 -0.5831  0.4170 -2.5175
   30CHL1  H19C 2189   5.951   6.439   2.937 -2.9874 -0.3015  0.3963
   30CHL1    C1 2190   6.219   6.485   2.953 -0.1614  0.1470 -0.4404
   30CHL1   H1A 2191   6.190   6.593   2.959 -0.0837  0.2908 -2.2451
   30CHL1   H1B 2192   6.325   6.471   2.983 -0.7759 -2.9803  0.5841
   30CHL1    C2 2193   6.186   6.451   2.805 -0.5861 -0.0640 -0.0545
   30CHL1   H2A 2194   6.264   6.508   2.751  0.8133  0.4557  2.4062
   30CHL1   H2B 2195   6.089   6.496   2.774 -0.0536  0.3828 -1.1413
   30CHL1   C20 2196   6.203   6.548   3.760 -0.9655 -0.0857 -0.1922
   30CHL1   H20 2197   6.112   6.505   3.807  0.7210 -2.9003  0.7871
   30CHL1   C21 2198   6.184   6.695   3.725  0.6018  0.5001 -0.0485
   30CHL1  H21A 2199   6.094   6.709   3.662  0.2180  1.4439  0.6801
   30CHL1  H21B 2200   6.271   6.741   3.671 -1.0473  0.5604 -2.8326
   30CHL1  H21C 2201   6.176   6.745   3.824 -0.8344 -2.8423  1.6811
   30CHL1   C22 2202   6.306   6.527   3.878  0.3727 -0.2595 -0.2348
   30CHL1  H22A 2203   6.339   6.420   3.880  1.1969 -0.0037  1.0130
   30CHL1  H22B 2204   6.396   6.586   3.851 -0.3571  0.8969 -0.2102
   30CHL1   C23 2205   6.260   6.577   4.015 -0.1560 -0.2699 -0.7350
   30CHL1  H23A 2206   6.260   6.688   4.012  1.6804 -0.2408 -1.0249
   30CHL1  H23B 2207   6.159   6.534   4.031  0.4436 -1.6588 -0.5916
   30CHL1   C24 2208   6.351   6.523   4.126  0.6363 -0.3106  0.2122
   30CHL1  H24A 2209   6.362   6.413   4.119  3.7219 -0.0297 -0.9957
   30CHL1  H24B 2210   6.455   6.558   4.109  0.1783  2.2619  2.0987
   30CHL1   C25 2211   6.313   6.558   4.272 -0.2269 -0.0770 -0.1316
   30CHL1   H25 2212   6.212   6.519   4.297 -0.1815 -0.1963 -0.1321
   30CHL1   C26 2213   6.411   6.480   4.368  0.9317 -0.1713  0.0702
   30CHL1  H26A 2214   6.416   6.375   4.333 -0.1160 -0.3039  0.2937
   30CHL1  H26B 2215   6.511   6.524   4.348  1.9657 -2.3576  0.1549
   30CHL1  H26C 2216   6.373   6.504   4.470  0.2883  3.8417 -0.9495
   30CHL1   C27 2217   6.308   6.709   4.299 -0.1931 -0.1235 -0.4151
   30CHL1  H27A 2218   6.411   6.747   4.316 -0.0998 -0.6495  0.2565
   30CHL1  H27B 2219   6.262   6.757   4.210  0.1137 -2.2123 -1.7816
   30CHL1  H27C 2220   6.254   6.733   4.392  0.0279  0.8656 -0.5328
   31CHL1    C3 2221   0.325   1.867   2.833 -0.3455  0.2292 -0.3911
   31CHL1    H3 2222   0.428   1.905   2.845 -0.5322  0.5168  0.3642
   31CHL1    O3 2223   0.313   1.825   2.700 -0.1042  0.1543  0.0328
   31CHL1   H3' 2224   0.262   1.744   2.711 -1.3519  0.6964 -1.3761
   31CHL1    C4 2225   0.308   1.738   2.923 -0.3638  0.8779 -0.2482
   31CHL1   H4A 2226   0.215   1.685   2.895 -0.3748 -0.1608  1.6043
   31CHL1   H4B 2227   0.399   1.679   2.901  0.7730  3.4135 -3.1850
   31CHL1    C5 2228   0.297   1.775   3.069  0.1846 -0.8659  0.5718
   31CHL1    C6 2229   0.382   1.719   3.157 -0.3102  0.0677 -0.3573
   31CHL1    H6 2230   0.460   1.651   3.121  0.8483  0.5302  1.2003
   31CHL1    C7 2231   0.358   1.724   3.308 -0.1946  0.6242  0.8783
   31CHL1   H7A 2232   0.348   1.617   3.336 -0.9311 -0.4738 -2.9931
   31CHL1   H7B 2233   0.443   1.775   3.357 -0.1686  0.1150  1.3719
   31CHL1    C8 2234   0.237   1.814   3.342  0.2952  0.4887 -0.2022
   31CHL1    H8 2235   0.154   1.741   3.350  1.5932 -0.9196  0.9958
   31CHL1   C14 2236   0.256   1.862   3.485 -0.1236 -0.2458  0.0877
   31CHL1   H14 2237   0.338   1.937   3.475 -0.4009  0.6502  3.4951
   31CHL1   C15 2238   0.311   1.764   3.592 -0.0009  0.7056 -0.3389
   31CHL1  H15A 2239   0.262   1.665   3.597  1.0884  0.0819 -1.5048
   31CHL1  H15B 2240   0.419   1.740   3.576 -0.1924 -0.4678  0.0486
   31CHL1   C16 2241   0.288   1.837   3.727  0.0452 -1.0658 -0.9438
   31CHL1  H16A 2242   0.234   1.770   3.798 -1.5410  0.3108 -0.7859
   31CHL1  H16B 2243   0.383   1.865   3.778  0.0510  0.5258 -1.7722
   31CHL1   C17 2244   0.205   1.968   3.688  0.2686 -0.4278  0.0709
   31CHL1   H17 2245   0.278   2.051   3.676 -0.3728  0.0391 -0.6387
   31CHL1   C13 2246   0.143   1.938   3.544  0.0540  0.2746 -0.5248
   31CHL1   C18 2247   0.021   1.844   3.560 -0.2191  0.1062 -0.0908
   31CHL1  H18A 2248  -0.017   1.812   3.460  0.5830  0.1927 -0.4349
   31CHL1  H18B 2249   0.048   1.766   3.634  0.3646  0.9953  0.6549
   31CHL1  H18C 2250  -0.067   1.893   3.607 -2.5560 -1.2376 -2.7344
   31CHL1   C12 2251   0.114   2.062   3.455 -0.0455  0.0672 -0.4139
   31CHL1  H12A 2252   0.014   2.100   3.485 -0.2868 -0.8143 -0.0427
   31CHL1  H12B 2253   0.192   2.141   3.463  0.4136 -0.3237 -0.9145
   31CHL1   C11 2254   0.095   2.027   3.309  0.2264  0.1619  0.3486
   31CHL1  H11A 2255  -0.004   1.985   3.285 -0.5801  1.6666  0.8785
   31CHL1  H11B 2256   0.092   2.121   3.250 -0.0347  0.3279  0.6226
   31CHL1    C9 2257   0.208   1.932   3.251 -0.0815 -0.2579  0.7392
   31CHL1    H9 2258   0.297   1.998   3.260  0.4609 -1.0993  1.7874
   31CHL1   C10 2259   0.196   1.883   3.101  0.6099  0.2998  0.1455
   31CHL1   C19 2260   0.050   1.829   3.081 -0.2563  0.6509  0.4536
   31CHL1  H19A 2261  -0.017   1.909   3.042 -2.5123 -1.0620  0.6338
   31CHL1  H19B 2262   0.042   1.739   3.016 -0.4385 -0.0707  1.4529
   31CHL1  H19C 2263   0.014   1.795   3.180  0.8642 -1.0434  0.3143
   31CHL1    C1 2264   0.225   2.003   3.015 -0.4764 -0.3004  0.0083
   31CHL1   H1A 2265   0.148   2.074   3.050  0.0611 -0.1402  0.8818
   31CHL1   H1B 2266   0.324   2.049   3.034 -0.0524 -0.7455 -1.0393
   31CHL1    C2 2267   0.221   1.970   2.874 -1.0276  0.2607  0.4530
   31CHL1   H2A 2268   0.240   2.057   2.808 -1.5439  1.5355  1.9470
   31CHL1   H2B 2269   0.121   1.929   2.851 -0.8176  0.2039 -0.4040
   31CHL1   C20 2270   0.107   2.009   3.804 -0.1350 -0.6027 -0.0824
   31CHL1   H20 2271   0.022   1.942   3.830 -1.4634  1.0201 -0.0808
   31CHL1   C21 2272   0.049   2.156   3.773 -0.1498  0.4894 -0.1240
   31CHL1  H21A 2273   0.125   2.232   3.746  0.2691 -0.3474 -1.3736
   31CHL1  H21B 2274   0.000   2.186   3.869 -0.6979 -1.5396  0.2692
   31CHL1  H21C 2275  -0.023   2.161   3.688  0.7835  0.7216 -0.9185
   31CHL1   C22 2276   0.193   2.028   3.934 -0.4794  0.5489 -0.9228
   31CHL1  H22A 2277   0.261   1.941   3.944 -0.9264  0.4024  1.4317
   31CHL1  H22B 2278   0.253   2.120   3.918  0.1469  0.3070 -0.0132
   31CHL1   C23 2279   0.116   2.031   4.062 -0.0057  0.6598  0.2838
   31CHL1  H23A 2280   0.040   2.111   4.071 -0.1542  0.3519  2.2981
   31CHL1  H23B 2281   0.054   1.939   4.058 -0.4322  0.9198  0.8187
   31CHL1   C24 2282   0.213   2.035   4.181  0.6962 -0.4339 -0.2134
   31CHL1  H24A 2283   0.288   1.954   4.168 -0.7382 -1.7462 -0.7024
   31CHL1  H24B 2284   0.253   2.138   4.174 -0.5304  0.0783 -0.0214
   31CHL1   C25 2285   0.141   2.030   4.325  0.3839 -0.0656 -0.2104
   31CHL1   H25 2286   0.070   2.115   4.337  1.3657  0.4617  2.7398
   31CHL1   C26 2287   0.048   1.901   4.343 -0.3938  0.2015 -0.7719
   31CHL1  H26A 2288   0.004   1.920   4.443 -0.0754  0.5259 -0.6922
   31CHL1  H26B 2289  -0.033   1.892   4.267 -1.0413  2.1041 -0.3519
   31CHL1  H26C 2290   0.119   1.816   4.349 -0.7320  0.0388  1.9758
   31CHL1   C27 2291   0.248   2.048   4.436  0.1239 -0.3385 -0.5411
   31CHL1  H27A 2292   0.205   2.021   4.535  0.8721  2.7361  0.7387
   31CHL1  H27B 2293   0.327   1.973   4.414 -0.4393 -1.6280  1.5433
   31CHL1  H27C 2294   0.283   2.153   4.430  1.7908 -0.9567 -3.4052
   32CHL1    C3 2295   4.845   4.359   2.760  0.5679  0.1661  0.3688
   32CHL1    H3 2296   4.829   4.254   2.794  0.0270 -0.4991 -1.7709
   32CHL1    O3 2297   4.813   4.364   2.617  0.1445  0.0111  0.0043
   32CHL1   H3' 2298   4.764   4.446   2.604  1.0086  0.6062  0.3973
   32CHL1    C4 2299   4.756   4.449   2.844 -0.1873  0.4584  0.2480
   32CHL1   H4A 2300   4.759   4.547   2.793 -1.7629  1.6218  2.2132
   32CHL1   H4B 2301   4.651   4.412   2.834 -1.0872  3.3032 -1.8965
   32CHL1    C5 2302   4.796   4.469   2.983  0.4582 -1.0889  0.2357
   32CHL1    C6 2303   4.721   4.449   3.092 -0.7168 -0.2727 -0.9348
   32CHL1    H6 2304   4.616   4.416   3.082 -0.6038 -1.8058  1.9816
   32CHL1    C7 2305   4.760   4.490   3.232 -0.1809  0.4192 -1.1091
   32CHL1   H7A 2306   4.695   4.566   3.280  0.2899  2.3806 -3.3837
   32CHL1   H7B 2307   4.765   4.394   3.288  2.5984  1.4270  0.5869
   32CHL1    C8 2308   4.895   4.569   3.248  0.1227  0.3558 -0.0619
   32CHL1    H8 2309   4.869   4.672   3.217 -0.7796 -0.1651 -1.1029
   32CHL1   C14 2310   4.937   4.563   3.395  0.0855  0.2552 -0.2287
   32CHL1   H14 2311   4.958   4.456   3.417 -1.4833 -0.2297 -0.9907
   32CHL1   C15 2312   4.842   4.599   3.506  0.2505  0.3970  0.1741
   32CHL1  H15A 2313   4.784   4.692   3.490 -1.2808 -0.2960  1.4028
   32CHL1  H15B 2314   4.760   4.526   3.524 -0.1556  0.5006 -1.1101
   32CHL1   C16 2315   4.927   4.627   3.625 -0.3383  0.0131  0.6469
   32CHL1  H16A 2316   4.913   4.730   3.664  2.5511  0.0374  1.8652
   32CHL1  H16B 2317   4.915   4.553   3.707 -3.0222 -0.0273  0.3252
   32CHL1   C17 2318   5.070   4.618   3.574  0.4466 -0.4226  0.0869
   32CHL1   H17 2319   5.109   4.517   3.597  0.7567 -0.7474 -1.6661
   32CHL1   C13 2320   5.065   4.634   3.418  1.4590 -0.0815  0.2579
   32CHL1   C18 2321   5.051   4.781   3.377  0.2640 -0.5920  0.4138
   32CHL1  H18A 2322   5.146   4.838   3.381  0.0926 -0.1150 -1.3919
   32CHL1  H18B 2323   5.028   4.799   3.269 -0.5829 -0.3293  0.6270
   32CHL1  H18C 2324   4.971   4.834   3.434  0.6679 -1.1118  1.4715
   32CHL1   C12 2325   5.168   4.568   3.336  0.2490 -0.6625  0.2230
   32CHL1  H12A 2326   5.269   4.613   3.352  0.3308 -1.1435  1.1672
   32CHL1  H12B 2327   5.172   4.462   3.370  1.3057 -0.5995  0.3351
   32CHL1   C11 2328   5.142   4.564   3.184  0.6030 -0.4655  0.8218
   32CHL1  H11A 2329   5.151   4.667   3.142  1.2407 -0.8351  0.0125
   32CHL1  H11B 2330   5.216   4.498   3.134 -1.2837 -2.1367  0.1046
   32CHL1    C9 2331   4.998   4.517   3.153  1.1678  0.1370 -0.0528
   32CHL1    H9 2332   5.012   4.408   3.170 -0.9516 -0.5623 -2.2691
   32CHL1   C10 2333   4.942   4.528   3.001  0.6967 -0.1679 -0.1162
   32CHL1   C19 2334   4.963   4.675   2.946  0.4120  0.0179  0.4215
   32CHL1  H19A 2335   4.931   4.686   2.840 -1.1498  3.0168  1.0856
   32CHL1  H19B 2336   4.895   4.742   3.003  0.5886  2.7134 -2.2800
   32CHL1  H19C 2337   5.066   4.716   2.957  0.6065 -0.3786  0.0932
   32CHL1    C1 2338   5.030   4.428   2.924 -0.4689 -0.1875  0.4225
   32CHL1   H1A 2339   5.137   4.459   2.918 -0.6486  0.1673 -1.6388
   32CHL1   H1B 2340   5.026   4.330   2.975 -2.2195 -0.4301 -0.1211
   32CHL1    C2 2341   4.995   4.383   2.779  0.1023  0.2695  0.3049
   32CHL1   H2A 2342   5.056   4.299   2.741  1.2507  1.2599 -0.0811
   32CHL1   H2B 2343   5.028   4.472   2.722  0.5456 -0.0892  0.0000
   32CHL1   C20 2344   5.162   4.708   3.658  0.1914 -0.7751 -0.4490
   32CHL1   H20 2345   5.143   4.814   3.628  3.2468 -0.2297 -0.7709
   32CHL1   C21 2346   5.312   4.684   3.622 -0.5332  0.0786 -0.3046
   32CHL1  H21A 2347   5.396   4.722   3.684 -1.5231 -2.4807  2.8978
   32CHL1  H21B 2348   5.333   4.726   3.522  0.0023  0.5026 -0.0195
   32CHL1  H21C 2349   5.314   4.572   3.621 -2.0132  0.0363 -1.6777
   32CHL1   C22 2350   5.145   4.682   3.805  0.1311 -0.4105 -0.5146
   32CHL1  H22A 2351   5.037   4.681   3.829  0.1840 -1.8340 -0.2120
   32CHL1  H22B 2352   5.193   4.582   3.820  0.4219 -0.5952 -2.4078
   32CHL1   C23 2353   5.195   4.790   3.908  0.5229 -0.4959  0.6022
   32CHL1  H23A 2354   5.304   4.798   3.889  0.6074 -3.0338 -0.3044
   32CHL1  H23B 2355   5.140   4.885   3.893  2.5236  0.8326  1.2166
   32CHL1   C24 2356   5.156   4.748   4.047 -0.2771  0.0357  0.0778
   32CHL1  H24A 2357   5.046   4.734   4.036 -0.3680  1.3771 -1.1485
   32CHL1  H24B 2358   5.203   4.651   4.073  3.0506  2.2658  3.3841
   32CHL1   C25 2359   5.206   4.841   4.160  0.7830  0.2711 -0.1418
   32CHL1   H25 2360   5.188   4.947   4.133  1.4644  1.0396  2.1810
   32CHL1   C26 2361   5.125   4.822   4.288 -0.0640  0.4740  0.0748
   32CHL1  H26A 2362   5.113   4.915   4.347 -1.1505  1.0859 -1.0461
   32CHL1  H26B 2363   5.020   4.797   4.260  0.6556 -2.6097 -0.3063
   32CHL1  H26C 2364   5.181   4.745   4.345 -0.1221 -1.4868 -2.3121
   32CHL1   C27 2365   5.360   4.852   4.192  0.5602 -0.5169 -0.1004
   32CHL1  H27A 2366   5.373   4.940   4.259  0.8098 -0.6321  0.0047
   32CHL1  H27B 2367   5.397   4.763   4.247 -1.0282 -1.5375 -0.6178
   32CHL1  H27C 2368   5.416   4.887   4.103  0.3675 -1.4341 -0.5983
   33CHL1    C3 2369   2.768   1.660   3.134 -0.4463  0.3001  0.6363
   33CHL1    H3 2370   2.738   1.762   3.166  0.1981  0.8523 -0.4653
   33CHL1    O3 2371   2.777   1.632   2.995 -0.4358 -0.1989  0.6179
   33CHL1   H3' 2372   2.840   1.697   2.963 -1.5421  0.5355 -0.1701
   33CHL1    C4 2373   2.909   1.639   3.194 -0.5550 -0.0985 -0.5278
   33CHL1   H4A 2374   2.954   1.545   3.156 -0.6884 -0.6919  0.7437
   33CHL1   H4B 2375   2.972   1.720   3.150 -1.8641  1.0739 -0.3090
   33CHL1    C5 2376   2.917   1.648   3.345  0.4427 -0.0890  0.5414
   33CHL1    C6 2377   3.011   1.711   3.415  0.1205  0.5893 -0.1434
   33CHL1    H6 2378   3.076   1.778   3.355  1.4671 -0.5219  0.0122
   33CHL1    C7 2379   3.040   1.703   3.563 -0.4409 -0.2144 -0.0874
   33CHL1   H7A 2380   3.147   1.675   3.573 -0.2533  0.2543 -0.6872
   33CHL1   H7B 2381   3.023   1.805   3.604 -2.3961 -0.4895 -0.1015
   33CHL1    C8 2382   2.947   1.592   3.628 -0.2393  0.3598 -0.2904
   33CHL1    H8 2383   2.999   1.494   3.624 -1.3200 -0.5081  3.0965
   33CHL1   C14 2384   2.926   1.627   3.775  0.0253  0.0553 -0.4700
   33CHL1   H14 2385   2.853   1.710   3.777 -1.6264 -1.3519  1.6760
   33CHL1   C15 2386   3.060   1.666   3.851 -0.2602  0.2323  0.6781
   33CHL1  H15A 2387   3.148   1.600   3.830 -0.4754  0.1316  0.0900
   33CHL1  H15B 2388   3.078   1.774   3.832  0.0833  0.1494  0.5218
   33CHL1   C16 2389   3.027   1.640   3.997  0.1585 -0.0477 -0.1067
   33CHL1  H16A 2390   3.097   1.567   4.043 -1.5673 -2.3038 -0.8820
   33CHL1  H16B 2391   3.022   1.735   4.054  0.3651 -0.7132  1.0462
   33CHL1   C17 2392   2.872   1.590   4.000 -0.0336 -0.1949  0.2672
   33CHL1   H17 2393   2.811   1.684   4.003  2.6497  1.6867 -0.4182
   33CHL1   C13 2394   2.853   1.533   3.860 -0.5365 -0.2791 -1.3745
   33CHL1   C18 2395   2.928   1.397   3.868  0.1346  0.5043  0.4298
   33CHL1  H18A 2396   2.864   1.325   3.924  0.3407 -1.3456 -1.5515
   33CHL1  H18B 2397   2.945   1.347   3.770  2.2366 -1.4092  1.6713
   33CHL1  H18C 2398   3.028   1.399   3.916  0.9125 -3.1215 -0.7248
   33CHL1   C12 2399   2.716   1.521   3.799 -0.1609  0.0972 -0.4210
   33CHL1  H12A 2400   2.679   1.428   3.848  0.6297 -1.5229 -2.7527
   33CHL1  H12B 2401   2.658   1.610   3.831  2.3598  2.3815 -1.7585
   33CHL1   C11 2402   2.712   1.495   3.647 -0.3079 -0.1369  0.0883
   33CHL1  H11A 2403   2.742   1.390   3.627  2.3266  0.3477  1.0872
   33CHL1  H11B 2404   2.606   1.510   3.615 -0.3037  1.1692  0.6252
   33CHL1    C9 2405   2.806   1.584   3.564 -0.6632 -0.5659  0.3423
   33CHL1    H9 2406   2.766   1.687   3.580  1.3498 -0.0027  2.2005
   33CHL1   C10 2407   2.807   1.556   3.412  0.0139 -0.2858  0.0946
   33CHL1   C19 2408   2.845   1.410   3.395 -0.0275  0.7468 -0.0915
   33CHL1  H19A 2409   2.838   1.397   3.285 -3.7626  1.7996 -0.1106
   33CHL1  H19B 2410   2.935   1.378   3.453 -0.8199  2.0074  1.9401
   33CHL1  H19C 2411   2.762   1.345   3.430 -1.4928  2.6733  0.1461
   33CHL1    C1 2412   2.661   1.579   3.349 -0.3006 -0.3290  0.2248
   33CHL1   H1A 2413   2.590   1.501   3.387 -0.9989 -0.8309 -1.9658
   33CHL1   H1B 2414   2.621   1.676   3.385  1.6304  0.3510  0.6522
   33CHL1    C2 2415   2.656   1.572   3.192  0.3157  0.4165 -0.6552
   33CHL1   H2A 2416   2.558   1.615   3.164 -0.6103 -2.2662 -1.9006
   33CHL1   H2B 2417   2.666   1.469   3.152  1.8904  0.3822 -0.2573
   33CHL1   C20 2418   2.840   1.510   4.130 -0.3925 -0.0189 -0.0955
   33CHL1   H20 2419   2.912   1.426   4.123  1.9494  1.9842 -1.9240
   33CHL1   C21 2420   2.689   1.464   4.142  0.2906 -0.1876 -0.0512
   33CHL1  H21A 2421   2.630   1.558   4.152  0.1640 -0.1339 -1.1892
   33CHL1  H21B 2422   2.659   1.404   4.231 -1.1044  3.2687  2.0194
   33CHL1  H21C 2423   2.658   1.422   4.044 -0.2091  2.6226 -1.1814
   33CHL1   C22 2424   2.877   1.582   4.264 -0.1407 -0.3466  0.6709
   33CHL1  H22A 2425   2.973   1.635   4.245 -1.2501  1.8574  0.8836
   33CHL1  H22B 2426   2.799   1.661   4.275 -0.2219 -0.2668 -0.3188
   33CHL1   C23 2427   2.876   1.485   4.383 -0.8876  0.0323  0.4747
   33CHL1  H23A 2428   2.772   1.458   4.410 -1.6893  1.8176 -0.6712
   33CHL1  H23B 2429   2.926   1.392   4.348 -0.1841  1.4252 -2.5385
   33CHL1   C24 2430   2.949   1.555   4.504 -0.0344 -0.2560  0.4347
   33CHL1  H24A 2431   3.055   1.558   4.473 -0.3633 -1.0659 -0.8609
   33CHL1  H24B 2432   2.914   1.659   4.518  0.0006 -0.4968  2.6088
   33CHL1   C25 2433   2.943   1.482   4.633 -0.3870 -0.7267  0.2550
   33CHL1   H25 2434   3.014   1.533   4.701 -0.6513 -0.6613  0.4823
   33CHL1   C26 2435   2.805   1.492   4.701  0.0701 -0.2989  0.2453
   33CHL1  H26A 2436   2.800   1.440   4.799 -0.9341 -0.4193  0.1403
   33CHL1  H26B 2437   2.787   1.602   4.705 -0.2763 -0.3396 -0.1094
   33CHL1  H26C 2438   2.720   1.460   4.637  0.1783 -0.8726  0.3885
   33CHL1   C27 2439   2.994   1.341   4.625  0.9841 -0.9151 -0.1912
   33CHL1  H27A 2440   3.095   1.340   4.578  0.6326 -0.1019 -0.9984
   33CHL1  H27B 2441   3.015   1.301   4.726  1.5600  0.3367  0.1941
   33CHL1  H27C 2442   2.920   1.289   4.560  0.2609 -1.3386  0.9337
   34CHL1    C3 2443   1.738   2.606   3.040 -0.8089 -0.0247  0.0478
   34CHL1    H3 2444   1.744   2.497   3.021 -2.0618  0.0221 -0.7705
   34CHL1    O3 2445   1.744   2.660   2.906  0.2713  0.7039 -0.4249
   34CHL1   H3' 2446   1.827   2.707   2.892  0.3873  0.2496 -1.3355
   34CHL1    C4 2447   1.610   2.639   3.104  0.1486 -0.1653  0.5028
   34CHL1   H4A 2448   1.596   2.748   3.121 -0.9074 -0.3694  0.9705
   34CHL1   H4B 2449   1.518   2.610   3.049 -0.1706  0.2817  0.7986
   34CHL1    C5 2450   1.601   2.579   3.247 -0.7223  0.2429  0.2994
   34CHL1    C6 2451   1.506   2.496   3.285 -0.4452  0.2402  0.0719
   34CHL1    H6 2452   1.425   2.462   3.217 -0.6280 -0.7067  0.7336
   34CHL1    C7 2453   1.487   2.451   3.422  0.4437  0.1132  0.0259
   34CHL1   H7A 2454   1.385   2.468   3.462  0.2047  0.6732 -0.7933
   34CHL1   H7B 2455   1.503   2.341   3.427  4.0219  0.3259 -2.5793
   34CHL1    C8 2456   1.587   2.521   3.516 -0.2346  0.1812 -0.4557
   34CHL1    H8 2457   1.548   2.620   3.547  1.8926  0.6097  1.1273
   34CHL1   C14 2458   1.594   2.437   3.640 -0.6243  1.0334  0.1718
   34CHL1   H14 2459   1.635   2.339   3.606 -0.1857  1.2976 -0.0683
   34CHL1   C15 2460   1.466   2.411   3.718  0.0192 -0.0667  0.4697
   34CHL1  H15A 2461   1.417   2.509   3.733 -2.7672 -1.0190 -1.5507
   34CHL1  H15B 2462   1.389   2.343   3.675  0.9886 -1.4917  0.8992
   34CHL1   C16 2463   1.507   2.370   3.859 -0.0468  1.1809  0.1471
   34CHL1  H16A 2464   1.471   2.448   3.930 -0.8152  2.0668 -1.1723
   34CHL1  H16B 2465   1.451   2.280   3.893 -0.3512  2.0610  2.1239
   34CHL1   C17 2466   1.667   2.373   3.866 -0.2197  0.7024  0.2399
   34CHL1   H17 2467   1.690   2.266   3.850 -4.1107 -0.2817  0.3299
   34CHL1   C13 2468   1.699   2.470   3.746  0.5778 -0.0601  0.0711
   34CHL1   C18 2469   1.679   2.614   3.805  0.4908  0.6548  0.1198
   34CHL1  H18A 2470   1.578   2.617   3.851 -0.3519 -0.7755 -1.4997
   34CHL1  H18B 2471   1.749   2.631   3.889  2.0900  0.0322 -1.0231
   34CHL1  H18C 2472   1.681   2.693   3.727  0.7423  0.5307 -0.0013
   34CHL1   C12 2473   1.835   2.462   3.677  0.2411 -0.2455 -0.7346
   34CHL1  H12A 2474   1.918   2.481   3.749 -0.0797  0.5636 -0.5725
   34CHL1  H12B 2475   1.846   2.357   3.643 -0.6170 -0.1955 -1.1771
   34CHL1   C11 2476   1.835   2.566   3.564  0.3016  0.2146  0.7761
   34CHL1  H11A 2477   1.827   2.672   3.595  0.7629  0.5251 -0.1403
   34CHL1  H11B 2478   1.929   2.555   3.507 -0.3436 -1.3529 -0.0534
   34CHL1    C9 2479   1.725   2.533   3.455  0.2248  0.2863 -0.0256
   34CHL1    H9 2480   1.756   2.435   3.412  0.1200  0.8463 -1.4188
   34CHL1   C10 2481   1.723   2.618   3.330  0.3055  0.0770 -0.1318
   34CHL1   C19 2482   1.719   2.765   3.380  0.1355  0.2353  0.5640
   34CHL1  H19A 2483   1.817   2.795   3.423  1.7677 -0.4133 -2.4085
   34CHL1  H19B 2484   1.711   2.841   3.299  3.6728 -0.4304 -0.5968
   34CHL1  H19C 2485   1.636   2.795   3.446  1.2286  0.1063  2.0505
   34CHL1    C1 2486   1.861   2.591   3.251  0.1625  0.0209 -0.5313
   34CHL1   H1A 2487   1.939   2.640   3.313 -1.6510  1.7114  0.5459
   34CHL1   H1B 2488   1.883   2.482   3.263  0.2246  0.0554 -0.3157
   34CHL1    C2 2489   1.864   2.655   3.117  0.7871 -0.3819  0.5034
   34CHL1   H2A 2490   1.952   2.614   3.063  0.2014 -0.1372 -0.6644
   34CHL1   H2B 2491   1.874   2.766   3.122  2.0897 -0.4514 -0.2198
   34CHL1   C20 2492   1.733   2.398   4.009  0.4834  0.1236  0.1296
   34CHL1   H20 2493   1.692   2.495   4.045  1.0063 -0.4779  2.4879
   34CHL1   C21 2494   1.883   2.401   4.010  0.1188  0.7153 -0.6166
   34CHL1  H21A 2495   1.928   2.306   3.974 -0.3894  0.5034 -0.7091
   34CHL1  H21B 2496   1.918   2.407   4.115  0.8668  2.7557 -0.9458
   34CHL1  H21C 2497   1.926   2.488   3.957  0.3847  1.9163  1.4728
   34CHL1   C22 2498   1.672   2.297   4.113 -0.2335 -0.1794  0.2486
   34CHL1  H22A 2499   1.567   2.269   4.088 -1.0664  3.0999 -0.3908
   34CHL1  H22B 2500   1.744   2.213   4.105  1.9172  1.6461 -0.8129
   34CHL1   C23 2501   1.670   2.341   4.259 -0.6570  0.1416 -1.0176
   34CHL1  H23A 2502   1.775   2.375   4.277 -0.3163 -0.7624 -1.2496
   34CHL1  H23B 2503   1.602   2.428   4.272 -0.2667  0.0949  2.0791
   34CHL1   C24 2504   1.644   2.221   4.351  0.7922 -0.3271  0.4631
   34CHL1  H24A 2505   1.538   2.190   4.335  0.0487  1.9355  0.6591
   34CHL1  H24B 2506   1.704   2.132   4.325 -1.5060 -2.2303  1.2443
   34CHL1   C25 2507   1.661   2.255   4.498  0.7092  0.4124 -1.0256
   34CHL1   H25 2508   1.603   2.348   4.512  1.3400  0.4325  2.2570
   34CHL1   C26 2509   1.614   2.144   4.582 -0.3887  0.1887  0.0675
   34CHL1  H26A 2510   1.661   2.047   4.554  0.8127  0.5998  0.5797
   34CHL1  H26B 2511   1.662   2.147   4.682  1.4669 -2.8473 -0.5896
   34CHL1  H26C 2512   1.505   2.130   4.592 -0.1815 -1.7287  0.0408
   34CHL1   C27 2513   1.808   2.299   4.544 -0.1135  0.3227  0.1816
   34CHL1  H27A 2514   1.798   2.347   4.644  1.6208  0.2699  0.4023
   34CHL1  H27B 2515   1.877   2.213   4.549 -0.4599  0.0563  0.4420
   34CHL1  H27C 2516   1.849   2.370   4.470 -0.1478 -1.3509 -1.5242
   35CHL1    C3 2517   3.850   1.475   2.708 -0.1594  0.3702  1.1683
   35CHL1    H3 2518   3.950   1.510   2.675 -0.6514  0.4623 -0.2770
   35CHL1    O3 2519   3.795   1.413   2.593  0.4546 -0.1778 -0.0995
   35CHL1   H3' 2520   3.711   1.377   2.622  0.0109  0.2644 -0.8166
   35CHL1    C4 2521   3.866   1.361   2.811  0.4698  0.0888 -0.0221
   35CHL1   H4A 2522   3.771   1.304   2.821  0.2572  0.6183  1.3016
   35CHL1   H4B 2523   3.939   1.286   2.774  0.4809 -0.4249  1.0006
   35CHL1    C5 2524   3.898   1.416   2.955  0.6495 -0.1686 -0.0858
   35CHL1    C6 2525   4.002   1.363   3.016 -0.4012  0.1479  0.8608
   35CHL1    H6 2526   4.061   1.292   2.956 -0.3078  1.7836 -1.0739
   35CHL1    C7 2527   4.034   1.400   3.156 -0.8730 -0.2707 -0.4327
   35CHL1   H7A 2528   4.039   1.311   3.221 -2.6489  0.5503  0.8980
   35CHL1   H7B 2529   4.133   1.449   3.161 -1.4440  0.9062 -0.2412
   35CHL1    C8 2530   3.918   1.479   3.226 -0.0239  0.2405  0.1098
   35CHL1    H8 2531   3.835   1.408   3.248 -0.4369  0.9626  0.9629
   35CHL1   C14 2532   3.970   1.539   3.355  0.1633  0.2710  0.2490
   35CHL1   H14 2533   4.044   1.617   3.324 -0.6510  0.4191 -1.4154
   35CHL1   C15 2534   4.035   1.445   3.460  0.0150  0.1997  0.5566
   35CHL1  H15A 2535   3.969   1.358   3.482 -0.0311  0.2854  0.7603
   35CHL1  H15B 2536   4.134   1.407   3.427 -1.0513  0.2403 -3.1843
   35CHL1   C16 2537   4.048   1.540   3.583 -0.1567 -0.4428  0.1157
   35CHL1  H16A 2538   4.009   1.477   3.666 -0.6497 -0.7798 -0.3660
   35CHL1  H16B 2539   4.151   1.579   3.598  0.1940 -1.4845  0.5388
   35CHL1   C17 2540   3.949   1.663   3.559  0.0341  0.5558 -0.2534
   35CHL1   H17 2541   4.018   1.747   3.534  1.7971 -0.9067 -0.5158
   35CHL1   C13 2542   3.874   1.630   3.430  0.6709  0.1424  0.0927
   35CHL1   C18 2543   3.753   1.543   3.475  0.7277 -0.3814 -0.0655
   35CHL1  H18A 2544   3.682   1.611   3.527 -2.1610  0.1810 -4.2130
   35CHL1  H18B 2545   3.710   1.483   3.391 -1.0698 -0.1823  0.6689
   35CHL1  H18C 2546   3.780   1.471   3.555 -0.4815  0.6706  1.3456
   35CHL1   C12 2547   3.821   1.742   3.342  0.4045  0.3941 -0.6165
   35CHL1  H12A 2548   3.750   1.807   3.399  1.2081  0.3637  0.4445
   35CHL1  H12B 2549   3.907   1.805   3.310  0.5902  0.2538 -0.3904
   35CHL1   C11 2550   3.760   1.684   3.215 -0.1769 -0.3529  0.2130
   35CHL1  H11A 2551   3.669   1.624   3.237 -1.5569  0.9141 -1.6385
   35CHL1  H11B 2552   3.734   1.762   3.139 -2.2518 -0.3986  0.8312
   35CHL1    C9 2553   3.864   1.590   3.136 -0.1474 -0.1876 -0.3372
   35CHL1    H9 2554   3.949   1.659   3.116  0.0958  0.6648  3.0203
   35CHL1   C10 2555   3.811   1.534   3.004  0.4089  0.2833 -0.1945
   35CHL1   C19 2556   3.672   1.473   3.028 -0.6162  0.3991 -0.3920
   35CHL1  H19A 2557   3.677   1.399   3.111  0.0590 -1.7661 -2.2463
   35CHL1  H19B 2558   3.602   1.555   3.052  0.4383  0.7972  1.5167
   35CHL1  H19C 2559   3.627   1.411   2.947 -0.7282 -0.3616  0.2411
   35CHL1    C1 2560   3.801   1.642   2.892 -0.4706 -0.1780 -0.0522
   35CHL1   H1A 2561   3.726   1.719   2.917  2.3159  2.5667  0.4155
   35CHL1   H1B 2562   3.890   1.707   2.874 -0.7059  0.6894  1.7139
   35CHL1    C2 2563   3.757   1.590   2.760  1.1988 -0.3166  0.7367
   35CHL1   H2A 2564   3.751   1.659   2.673 -1.5494 -0.2089  0.9358
   35CHL1   H2B 2565   3.660   1.539   2.776 -0.5725  2.6375  0.2686
   35CHL1   C20 2566   3.881   1.700   3.689 -0.2762  0.0233 -0.0132
   35CHL1   H20 2567   3.807   1.625   3.724 -0.9195 -0.1699 -1.7105
   35CHL1   C21 2568   3.811   1.832   3.662 -0.5127 -0.3314  0.2626
   35CHL1  H21A 2569   3.752   1.843   3.755  0.0137 -1.0497  0.6957
   35CHL1  H21B 2570   3.727   1.821   3.591  0.0073 -3.3401 -0.0275
   35CHL1  H21C 2571   3.882   1.914   3.637 -1.5081  0.5312  0.2234
   35CHL1   C22 2572   3.985   1.719   3.796 -0.4817  0.0669 -0.3378
   35CHL1  H22A 2573   4.021   1.620   3.830 -0.7821  0.3903  0.9755
   35CHL1  H22B 2574   4.077   1.774   3.767 -1.0771  2.0613  1.2802
   35CHL1   C23 2575   3.920   1.779   3.922 -0.0445  0.3863 -0.0211
   35CHL1  H23A 2576   3.900   1.887   3.910  1.1314  0.4815 -1.5186
   35CHL1  H23B 2577   3.821   1.732   3.938 -0.4908  0.8523 -1.2576
   35CHL1   C24 2578   4.002   1.760   4.052 -0.1881  0.0769  0.3569
   35CHL1  H24A 2579   3.941   1.794   4.139 -0.7534 -1.3618  0.5499
   35CHL1  H24B 2580   4.027   1.653   4.061  2.6039  0.4878 -1.2333
   35CHL1   C25 2581   4.131   1.833   4.069  0.7341 -0.0892  0.1599
   35CHL1   H25 2582   4.200   1.793   3.992 -0.2116  0.2179 -0.8584
   35CHL1   C26 2583   4.113   1.990   4.059 -0.2905  0.0956  0.4730
   35CHL1  H26A 2584   4.030   2.013   4.129  0.7231  0.4068  1.5934
   35CHL1  H26B 2585   4.209   2.033   4.094 -0.6755  1.0936  0.3230
   35CHL1  H26C 2586   4.088   2.035   3.960  0.1389  1.6662  1.0499
   35CHL1   C27 2587   4.187   1.792   4.209  0.3546 -0.0026 -0.8832
   35CHL1  H27A 2588   4.285   1.835   4.238  1.6960 -2.6839 -1.1785
   35CHL1  H27B 2589   4.104   1.827   4.274 -1.2085 -2.3725 -1.4750
   35CHL1  H27C 2590   4.193   1.682   4.214 -3.0973 -0.2732 -0.4045
   36CHL1    C3 2591   6.403   4.268   3.107  0.2093 -1.0704 -0.6795
   36CHL1    H3 2592   6.371   4.162   3.115 -1.2817 -0.6346 -0.5337
   36CHL1    O3 2593   6.377   4.311   2.977 -0.2233 -0.6053  0.0003
   36CHL1   H3' 2594   6.383   4.407   2.981 -1.2520 -0.4468 -1.2996
   36CHL1    C4 2595   6.312   4.358   3.208 -0.2535 -0.8107  0.8853
   36CHL1   H4A 2596   6.311   4.464   3.175 -1.3271 -1.1279 -0.1692
   36CHL1   H4B 2597   6.206   4.328   3.198 -0.3510 -0.8571  2.0023
   36CHL1    C5 2598   6.343   4.352   3.359 -0.5855  0.0974 -0.0504
   36CHL1    C6 2599   6.257   4.322   3.458  0.1429  0.5647 -0.0062
   36CHL1    H6 2600   6.152   4.300   3.433  0.6660 -1.9020 -0.3401
   36CHL1    C7 2601   6.295   4.310   3.598 -0.7702  0.7460 -0.5135
   36CHL1   H7A 2602   6.211   4.345   3.663 -1.7925 -1.6821 -0.4022
   36CHL1   H7B 2603   6.310   4.202   3.619 -0.5919  0.7866 -0.4329
   36CHL1    C8 2604   6.429   4.381   3.636 -0.2477 -0.0648  0.0495
   36CHL1    H8 2605   6.416   4.491   3.623  0.0477 -0.1001 -0.5824
   36CHL1   C14 2606   6.484   4.355   3.780  0.6799 -0.4003 -0.7910
   36CHL1   H14 2607   6.509   4.247   3.781 -1.4859 -0.9494  0.2405
   36CHL1   C15 2608   6.387   4.377   3.901 -0.5595 -0.5868  0.5368
   36CHL1  H15A 2609   6.346   4.480   3.891  1.9522  0.3598 -1.0374
   36CHL1  H15B 2610   6.308   4.300   3.909 -2.4604  1.1553 -0.3776
   36CHL1   C16 2611   6.481   4.380   4.022 -0.2043  0.2455  0.4122
   36CHL1  H16A 2612   6.456   4.467   4.088 -1.1025 -0.8290  1.5399
   36CHL1  H16B 2613   6.474   4.286   4.081  1.5187 -0.2213 -0.0923
   36CHL1   C17 2614   6.628   4.372   3.972  0.2047  0.0254  0.3027
   36CHL1   H17 2615   6.662   4.267   3.969  1.0422  0.3018 -0.0955
   36CHL1   C13 2616   6.617   4.417   3.821 -0.3796  0.4552  0.0005
   36CHL1   C18 2617   6.615   4.571   3.818  0.0409  0.2076 -0.0833
   36CHL1  H18A 2618   6.597   4.599   3.712 -4.1530  0.2409  0.4729
   36CHL1  H18B 2619   6.528   4.619   3.867 -0.7854  1.0125 -2.2074
   36CHL1  H18C 2620   6.716   4.611   3.844 -1.1453  2.4975  1.3371
   36CHL1   C12 2621   6.721   4.351   3.728 -0.0425  0.1873  0.1345
   36CHL1  H12A 2622   6.827   4.375   3.753  0.6480 -0.9363 -1.5267
   36CHL1  H12B 2623   6.709   4.241   3.739 -1.9061  0.3881  0.4102
   36CHL1   C11 2624   6.681   4.377   3.578 -0.2732  0.1289  0.2360
   36CHL1  H11A 2625   6.693   4.486   3.563 -0.4173  0.1223  0.0667
   36CHL1  H11B 2626   6.753   4.326   3.510  0.9952  0.7977  1.0679
   36CHL1    C9 2627   6.537   4.344   3.533  0.9160  0.3486  0.2601
   36CHL1    H9 2628   6.538   4.233   3.523  2.0824  0.4146 -0.5931
   36CHL1   C10 2629   6.498   4.377   3.380 -0.7468  0.4327 -0.4384
   36CHL1   C19 2630   6.543   4.516   3.352 -0.6149 -1.5285 -0.5758
   36CHL1  H19A 2631   6.652   4.537   3.355 -0.5842 -1.7778  1.3539
   36CHL1  H19B 2632   6.508   4.541   3.250 -0.6105  1.7639  0.1319
   36CHL1  H19C 2633   6.505   4.589   3.427  0.0497  0.1376 -1.8010
   36CHL1    C1 2634   6.578   4.275   3.296  0.7747 -0.3287  0.2077
   36CHL1   H1A 2635   6.683   4.274   3.334  0.4157  0.5679  1.2695
   36CHL1   H1B 2636   6.542   4.171   3.309  0.4062 -0.5016 -1.9154
   36CHL1    C2 2637   6.552   4.298   3.144 -0.3071  0.1839  0.5142
   36CHL1   H2A 2638   6.617   4.227   3.088  0.4174  1.8941 -0.8775
   36CHL1   H2B 2639   6.582   4.398   3.108 -2.7282  0.6872 -0.2824
   36CHL1   C20 2640   6.724   4.455   4.063 -0.6071 -0.0227 -0.5909
   36CHL1   H20 2641   6.707   4.565   4.055  1.7317  0.5544  1.2070
   36CHL1   C21 2642   6.874   4.422   4.022  0.0867 -0.4373 -0.0288
   36CHL1  H21A 2643   6.888   4.314   4.041  1.2308 -0.3652 -0.4014
   36CHL1  H21B 2644   6.944   4.466   4.097  1.0284 -1.3175 -0.3757
   36CHL1  H21C 2645   6.890   4.462   3.920 -1.6325  0.9796  0.2006
   36CHL1   C22 2646   6.707   4.427   4.221 -0.0839 -0.4526  0.3027
   36CHL1  H22A 2647   6.772   4.493   4.283 -2.4144  1.0520  1.2869
   36CHL1  H22B 2648   6.601   4.460   4.233  0.2558  0.5362  0.7017
   36CHL1   C23 2649   6.731   4.284   4.269 -0.0650 -0.9955 -0.1735
   36CHL1  H23A 2650   6.690   4.205   4.204  2.4225 -1.4536 -1.3207
   36CHL1  H23B 2651   6.841   4.266   4.278  0.2074  0.2624 -0.7113
   36CHL1   C24 2652   6.676   4.266   4.410 -0.0202  0.2687  0.1848
   36CHL1  H24A 2653   6.703   4.347   4.482  0.2114  0.4431 -0.0979
   36CHL1  H24B 2654   6.566   4.273   4.407  0.0483  0.9744 -1.5298
   36CHL1   C25 2655   6.718   4.135   4.478 -0.2158 -0.7601 -0.3900
   36CHL1   H25 2656   6.734   4.053   4.406  0.4047  0.5878 -1.8334
   36CHL1   C26 2657   6.859   4.140   4.538  0.5474 -0.1204  0.2944
   36CHL1  H26A 2658   6.890   4.044   4.584 -1.2302 -1.0823 -0.4078
   36CHL1  H26B 2659   6.940   4.158   4.465 -0.3328 -0.3243 -0.7498
   36CHL1  H26C 2660   6.861   4.225   4.610  0.2278  0.8109 -0.7603
   36CHL1   C27 2661   6.617   4.095   4.588  0.2948 -0.5473 -0.0531
   36CHL1  H27A 2662   6.666   4.025   4.659  1.8693 -0.0268 -0.5878
   36CHL1  H27B 2663   6.575   4.187   4.634  2.2930  0.9508 -1.1072
   36CHL1  H27C 2664   6.525   4.049   4.545 -0.1991  2.4115 -2.5517
   37CHL1    C3 2665   1.579   2.139   2.988 -0.4519  0.3349  0.4696
   37CHL1    H3 2666   1.618   2.241   3.010 -1.3464  0.1885  2.9425
   37CHL1    O3 2667   1.534   2.129   2.849  0.3588  0.6104  0.2214
   37CHL1   H3' 2668   1.540   2.038   2.819  3.7364  1.2988 -1.7421
   37CHL1    C4 2669   1.702   2.048   3.005  0.3500 -0.4359  0.3515
   37CHL1   H4A 2670   1.672   1.946   2.972  1.9906 -0.9015  0.2189
   37CHL1   H4B 2671   1.786   2.061   2.934 -0.5402 -1.2310 -0.8911
   37CHL1    C5 2672   1.754   2.059   3.151 -0.2136 -0.1800  0.1960
   37CHL1    C6 2673   1.880   2.106   3.181  0.0893  0.2280  0.1468
   37CHL1    H6 2674   1.947   2.139   3.100 -1.3103 -1.1896 -1.6863
   37CHL1    C7 2675   1.944   2.091   3.318  0.4066  0.1388  0.1754
   37CHL1   H7A 2676   2.041   2.037   3.308 -0.7154 -1.7667 -1.0319
   37CHL1   H7B 2677   1.974   2.183   3.372  1.1424 -0.7567  1.3359
   37CHL1    C8 2678   1.849   2.008   3.416 -0.1137 -0.2964  0.6408
   37CHL1    H8 2679   1.860   1.901   3.389 -3.0321 -0.8717  1.3391
   37CHL1   C14 2680   1.887   2.032   3.559  0.1365  0.1079  0.0297
   37CHL1   H14 2681   1.866   2.140   3.571 -0.0396 -0.0924  1.7403
   37CHL1   C15 2682   2.031   2.009   3.593  0.6088 -0.2999  0.2456
   37CHL1  H15A 2683   2.072   1.919   3.542  2.0097  1.2207 -1.4530
   37CHL1  H15B 2684   2.104   2.082   3.552  0.5858 -1.3276 -1.7815
   37CHL1   C16 2685   2.027   1.997   3.746  0.4050 -0.6365  0.2304
   37CHL1  H16A 2686   2.084   1.908   3.780 -0.2977 -0.0607  3.1850
   37CHL1  H16B 2687   2.069   2.090   3.789 -0.1130 -0.1905 -0.2031
   37CHL1   C17 2688   1.882   1.989   3.791 -0.6291 -0.3987 -0.0376
   37CHL1   H17 2689   1.851   2.091   3.821  1.3054  0.0986  0.3469
   37CHL1   C13 2690   1.802   1.956   3.659 -0.1084 -0.0458  0.0347
   37CHL1   C18 2691   1.809   1.806   3.630  0.1672  0.3719  0.4706
   37CHL1  H18A 2692   1.905   1.752   3.619 -0.9287 -1.1909 -2.1541
   37CHL1  H18B 2693   1.764   1.759   3.720  3.4678 -0.2733  1.9107
   37CHL1  H18C 2694   1.754   1.777   3.538  1.2892  0.4250 -0.2353
   37CHL1   C12 2695   1.659   2.011   3.653 -0.4691 -0.2134 -0.0244
   37CHL1  H12A 2696   1.597   1.950   3.721  1.0701  0.3703  1.9931
   37CHL1  H12B 2697   1.657   2.114   3.695 -0.8120 -0.9957  1.9745
   37CHL1   C11 2698   1.606   1.993   3.512  0.7229 -0.1137  0.2702
   37CHL1  H11A 2699   1.588   1.883   3.513 -0.4372  0.0615  0.5565
   37CHL1  H11B 2700   1.508   2.045   3.504  0.9080  0.6365  2.3854
   37CHL1    C9 2701   1.700   2.045   3.395  0.7335 -0.5237 -0.3198
   37CHL1    H9 2702   1.687   2.155   3.403  0.9633 -0.4016 -1.5645
   37CHL1   C10 2703   1.649   2.018   3.253 -0.5440 -0.3141 -0.0100
   37CHL1   C19 2704   1.604   1.875   3.237 -0.9058  0.5582  0.4580
   37CHL1  H19A 2705   1.573   1.854   3.132 -0.1361 -0.2581  0.3840
   37CHL1  H19B 2706   1.683   1.800   3.254 -2.0933 -0.7544  0.4084
   37CHL1  H19C 2707   1.518   1.845   3.301  0.2082  2.6498  3.1128
   37CHL1    C1 2708   1.525   2.108   3.227 -0.2862 -0.2185 -0.1854
   37CHL1   H1A 2709   1.453   2.066   3.301 -1.2554 -0.9791 -1.5110
   37CHL1   H1B 2710   1.542   2.211   3.263  1.5522  0.0362 -1.6271
   37CHL1    C2 2711   1.465   2.112   3.087 -0.2410  0.3035  0.3107
   37CHL1   H2A 2712   1.389   2.192   3.082  1.1364  1.6579  0.2924
   37CHL1   H2B 2713   1.418   2.014   3.062 -0.2993  0.2562  0.6021
   37CHL1   C20 2714   1.863   1.902   3.918  0.4091  0.8765  0.7264
   37CHL1   H20 2715   1.895   1.800   3.887 -3.2846 -0.2101 -0.0514
   37CHL1   C21 2716   1.710   1.904   3.950  0.7503  0.0674 -0.3958
   37CHL1  H21A 2717   1.682   2.011   3.935 -1.5753 -0.4885 -0.4152
   37CHL1  H21B 2718   1.690   1.878   4.056  0.0544  0.1499 -0.5023
   37CHL1  H21C 2719   1.654   1.845   3.875  0.6190 -0.6359  0.2416
   37CHL1   C22 2720   1.937   1.960   4.040 -0.2097 -1.1454  0.4832
   37CHL1  H22A 2721   2.035   1.988   3.997 -0.8740 -2.2661 -1.9114
   37CHL1  H22B 2722   1.886   2.052   4.077 -0.4891 -0.8582 -0.5803
   37CHL1   C23 2723   1.949   1.872   4.160 -0.1151 -0.5573 -0.3533
   37CHL1  H23A 2724   1.842   1.858   4.189 -0.0421  1.4329  1.0947
   37CHL1  H23B 2725   1.997   1.774   4.140 -1.7384 -1.6780  0.9286
   37CHL1   C24 2726   2.032   1.940   4.274  0.1370 -0.3374 -0.2037
   37CHL1  H24A 2727   2.132   1.959   4.230  0.4321  0.0994  0.6473
   37CHL1  H24B 2728   1.996   2.040   4.306 -1.7489 -0.3343 -2.1229
   37CHL1   C25 2729   2.057   1.861   4.406  0.1708  0.1687  0.1932
   37CHL1   H25 2730   2.082   1.757   4.375  1.8081  0.7314 -0.4969
   37CHL1   C26 2731   2.169   1.929   4.495 -0.2739  0.4017  0.3443
   37CHL1  H26A 2732   2.135   2.024   4.540  2.5920  1.6485  0.0997
   37CHL1  H26B 2733   2.191   1.860   4.580 -0.1692  0.6819  0.5449
   37CHL1  H26C 2734   2.258   1.952   4.433  0.7014 -3.1990  0.1669
   37CHL1   C27 2735   1.925   1.864   4.489  0.1054 -0.3854 -0.1593
   37CHL1  H27A 2736   1.882   1.966   4.492  0.7545 -0.1007 -0.3229
   37CHL1  H27B 2737   1.853   1.795   4.440 -2.7193  2.3327 -0.1167
   37CHL1  H27C 2738   1.952   1.837   4.594 -2.4741  0.9694  0.9222
   38CHL1    C3 2739   5.243   6.667   2.942 -0.9330  0.3135  0.9289
   38CHL1    H3 2740   5.330   6.600   2.962  0.1396  1.7039  1.0749
   38CHL1    O3 2741   5.225   6.700   2.806 -0.1725  0.0827  0.1418
   38CHL1   H3' 2742   5.296   6.759   2.782 -0.4081  0.1656 -0.3588
   38CHL1    C4 2743   5.121   6.599   2.995  0.0482 -0.0680  0.5584
   38CHL1   H4A 2744   5.039   6.672   2.982 -0.7010 -0.8223  0.9210
   38CHL1   H4B 2745   5.108   6.507   2.934  0.5692  0.3491 -0.2059
   38CHL1    C5 2746   5.129   6.559   3.145  0.1724 -0.7853  0.6519
   38CHL1    C6 2747   5.115   6.438   3.196  0.5438 -0.3149 -0.2181
   38CHL1    H6 2748   5.071   6.357   3.135 -0.6497  0.5990 -0.5984
   38CHL1    C7 2749   5.137   6.399   3.338  0.2112 -0.0492 -0.6537
   38CHL1   H7A 2750   5.062   6.325   3.370 -0.4144  1.0900  0.6173
   38CHL1   H7B 2751   5.239   6.357   3.354 -0.2327 -1.6441 -1.7887
   38CHL1    C8 2752   5.128   6.521   3.427 -0.0570  0.2326 -1.4346
   38CHL1    H8 2753   5.025   6.561   3.436 -0.3125 -0.5454 -0.7085
   38CHL1   C14 2754   5.162   6.491   3.574  0.0519  0.4413 -0.2851
   38CHL1   H14 2755   5.264   6.447   3.568 -0.3132 -0.4498 -0.2045
   38CHL1   C15 2756   5.070   6.384   3.648  0.1785  0.0131 -0.1974
   38CHL1  H15A 2757   4.965   6.417   3.639  0.7374  1.7486 -0.6655
   38CHL1  H15B 2758   5.091   6.278   3.620  0.9355  0.0712  0.1079
   38CHL1   C16 2759   5.093   6.399   3.795  0.7008  0.0518 -0.0204
   38CHL1  H16A 2760   5.000   6.412   3.854 -1.4732 -2.6224 -2.5820
   38CHL1  H16B 2761   5.149   6.312   3.835  1.6978  1.0615  0.8604
   38CHL1   C17 2762   5.178   6.534   3.805 -0.0488  0.1377  0.2027
   38CHL1   H17 2763   5.282   6.494   3.801  0.4223  1.4374 -1.4357
   38CHL1   C13 2764   5.163   6.609   3.675 -0.1412  0.3058  0.6655
   38CHL1   C18 2765   5.035   6.692   3.672 -0.3358  0.4939 -0.4005
   38CHL1  H18A 2766   4.946   6.632   3.701 -0.7115 -0.0226 -2.4733
   38CHL1  H18B 2767   5.057   6.776   3.742 -0.4745 -1.0713  1.6056
   38CHL1  H18C 2768   5.013   6.739   3.574  0.0183 -1.0127 -1.2369
   38CHL1   C12 2769   5.283   6.695   3.621 -0.1768  0.5326 -0.4743
   38CHL1  H12A 2770   5.270   6.782   3.689 -2.3930 -0.1903  0.1111
   38CHL1  H12B 2771   5.384   6.656   3.646 -0.1003 -0.1639 -1.7929
   38CHL1   C11 2772   5.262   6.738   3.476 -0.4251 -0.3534 -0.4825
   38CHL1  H11A 2773   5.188   6.820   3.484 -1.8027 -1.4494 -1.4096
   38CHL1  H11B 2774   5.357   6.785   3.444 -0.0021 -0.8031  0.0911
   38CHL1    C9 2775   5.221   6.627   3.376  0.0793 -0.9069  0.0917
   38CHL1    H9 2776   5.314   6.567   3.361  0.8034  0.3923 -0.8465
   38CHL1   C10 2777   5.176   6.672   3.235  0.9157  0.1789 -0.3462
   38CHL1   C19 2778   5.053   6.769   3.239 -0.6001  0.1534  0.2686
   38CHL1  H19A 2779   4.959   6.727   3.281 -0.6228 -1.5234 -1.3509
   38CHL1  H19B 2780   5.085   6.862   3.290  1.0530  1.2164 -2.4617
   38CHL1  H19C 2781   5.015   6.792   3.137 -0.2085 -0.0424  0.0764
   38CHL1    C1 2782   5.293   6.743   3.164 -0.8119 -0.5564  0.9824
   38CHL1   H1A 2783   5.331   6.829   3.224  0.2080  0.7140 -1.3483
   38CHL1   H1B 2784   5.376   6.669   3.167  1.5443  1.9450  3.0197
   38CHL1    C2 2785   5.268   6.793   3.022  0.0277 -0.2818  0.3253
   38CHL1   H2A 2786   5.355   6.842   2.972 -1.2374 -0.0231 -1.7643
   38CHL1   H2B 2787   5.181   6.861   3.012 -0.7606 -1.5358 -2.3592
   38CHL1   C20 2788   5.181   6.618   3.938 -0.3956  0.5373 -0.9524
   38CHL1   H20 2789   5.182   6.723   3.901  0.8360 -0.0212 -2.5933
   38CHL1   C21 2790   5.313   6.580   4.016 -0.1961 -0.0410 -0.4976
   38CHL1  H21A 2791   5.400   6.599   3.950  0.6481 -1.9112  0.0270
   38CHL1  H21B 2792   5.309   6.473   4.048 -2.6722  0.5725  1.6342
   38CHL1  H21C 2793   5.327   6.644   4.105  1.1489  0.3748 -0.9950
   38CHL1   C22 2794   5.058   6.618   4.033  0.3789  0.1574  0.6011
   38CHL1  H22A 2795   4.979   6.630   3.956  1.8161  1.0424 -0.7695
   38CHL1  H22B 2796   5.040   6.526   4.094 -2.2250 -0.6523 -1.1813
   38CHL1   C23 2797   5.044   6.738   4.132 -0.8406 -0.2061 -0.5360
   38CHL1  H23A 2798   5.135   6.726   4.196  0.1374 -3.5027 -2.3176
   38CHL1  H23B 2799   5.057   6.838   4.085  3.2187  1.6688  3.6653
   38CHL1   C24 2800   4.920   6.745   4.227  0.0202 -0.3726 -0.0552
   38CHL1  H24A 2801   4.828   6.711   4.175 -1.2123  0.3121  1.5935
   38CHL1  H24B 2802   4.948   6.681   4.314  0.6223  0.6554  0.5423
   38CHL1   C25 2803   4.892   6.890   4.253  0.0654  0.2618 -0.9003
   38CHL1   H25 2804   4.851   6.931   4.159  1.6771 -0.1440 -1.8243
   38CHL1   C26 2805   4.768   6.887   4.353 -0.2809 -0.0178  0.8107
   38CHL1  H26A 2806   4.802   6.875   4.458  2.6637 -1.7077 -0.2146
   38CHL1  H26B 2807   4.711   6.982   4.338  1.3719  0.6903 -1.4487
   38CHL1  H26C 2808   4.698   6.806   4.326  0.0683  0.2849 -1.1343
   38CHL1   C27 2809   5.006   6.975   4.310  0.8000 -0.4753 -0.4706
   38CHL1  H27A 2810   5.095   6.990   4.244  1.7318  0.7915  0.9932
   38CHL1  H27B 2811   4.966   7.074   4.342 -2.4723 -0.8424 -2.9268
   38CHL1  H27C 2812   5.045   6.918   4.397  0.3742 -0.9208 -0.5699
   39CHL1    C3 2813   4.721   6.665   3.036 -0.0727  0.3257 -0.3394
   39CHL1    H3 2814   4.798   6.718   3.096  0.3354  0.5178 -1.0207
   39CHL1    O3 2815   4.764   6.676   2.901 -0.0793  0.3213 -0.3526
   39CHL1   H3' 2816   4.710   6.614   2.851 -1.1139  0.2622  0.7957
   39CHL1    C4 2817   4.713   6.520   3.076 -0.0784 -0.2514 -0.2204
   39CHL1   H4A 2818   4.635   6.457   3.027  0.3038 -0.4370 -0.5928
   39CHL1   H4B 2819   4.807   6.475   3.038  0.6326  0.7888  0.2538
   39CHL1    C5 2820   4.686   6.505   3.223 -0.1212 -0.0325 -0.5001
   39CHL1    C6 2821   4.774   6.459   3.311 -0.0901 -0.6101 -0.3159
   39CHL1    H6 2822   4.880   6.449   3.281  0.2339  3.2094 -0.9357
   39CHL1    C7 2823   4.739   6.449   3.457  1.0577  0.4316 -0.4525
   39CHL1   H7A 2824   4.778   6.353   3.498 -1.7234 -0.8307 -0.5096
   39CHL1   H7B 2825   4.781   6.534   3.516 -1.5795  2.6738 -1.5820
   39CHL1    C8 2826   4.585   6.438   3.479  0.1950 -0.0911  0.0008
   39CHL1    H8 2827   4.549   6.349   3.423 -1.0983  0.4801 -0.1191
   39CHL1   C14 2828   4.556   6.435   3.627  0.4397  0.3107  0.3207
   39CHL1   H14 2829   4.603   6.518   3.684 -0.8502 -0.0093  1.9502
   39CHL1   C15 2830   4.619   6.317   3.708  0.1409 -0.8809  0.7024
   39CHL1  H15A 2831   4.604   6.217   3.662  0.0712 -0.8939  0.7523
   39CHL1  H15B 2832   4.725   6.332   3.737  0.0252 -1.2808  1.3563
   39CHL1   C16 2833   4.532   6.321   3.841  0.0589 -0.0527  0.4455
   39CHL1  H16A 2834   4.510   6.214   3.864 -0.7656 -0.5256 -2.1144
   39CHL1  H16B 2835   4.602   6.356   3.919  0.7797 -0.5123  0.0159
   39CHL1   C17 2836   4.409   6.416   3.822 -0.3581  0.5853 -0.0127
   39CHL1   H17 2837   4.435   6.518   3.856  0.4938  0.5226 -0.4641
   39CHL1   C13 2838   4.409   6.441   3.666  1.1205  0.6223  0.0230
   39CHL1   C18 2839   4.332   6.313   3.612 -0.7731 -0.0601 -0.8141
   39CHL1  H18A 2840   4.354   6.316   3.503 -1.0887  3.5030 -0.8753
   39CHL1  H18B 2841   4.377   6.222   3.658 -0.2686  0.6042  0.0136
   39CHL1  H18C 2842   4.224   6.334   3.627 -0.7556  1.2886 -2.2454
   39CHL1   C12 2843   4.346   6.566   3.607  0.0619 -0.4110 -0.1915
   39CHL1  H12A 2844   4.239   6.578   3.632  0.5744  0.1099  1.9868
   39CHL1  H12B 2845   4.393   6.659   3.647  1.8033 -1.3794  0.1228
   39CHL1   C11 2846   4.364   6.572   3.448 -0.7829  1.0297 -0.5742
   39CHL1  H11A 2847   4.312   6.485   3.403  2.6767 -2.0238  0.7994
   39CHL1  H11B 2848   4.325   6.666   3.403 -0.8289  0.5058 -1.6626
   39CHL1    C9 2849   4.515   6.558   3.409  0.0787 -0.2652  0.2599
   39CHL1    H9 2850   4.565   6.649   3.449  1.9681 -0.3914 -1.6276
   39CHL1   C10 2851   4.539   6.557   3.254 -0.2852  0.5948  0.2047
   39CHL1   C19 2852   4.430   6.470   3.190 -0.5540 -0.2758 -0.4622
   39CHL1  H19A 2853   4.333   6.522   3.206  0.4695  1.7024 -0.3507
   39CHL1  H19B 2854   4.442   6.477   3.080 -2.3069 -0.6687 -0.7044
   39CHL1  H19C 2855   4.423   6.366   3.229 -2.1395 -0.9077 -2.2894
   39CHL1    C1 2856   4.536   6.704   3.204 -0.2066 -0.6645  0.1664
   39CHL1   H1A 2857   4.432   6.741   3.216  0.2961  0.4720  1.2978
   39CHL1   H1B 2858   4.612   6.756   3.266  0.5917 -0.6429 -0.8100
   39CHL1    C2 2859   4.582   6.716   3.061 -0.1736 -0.3380  0.2279
   39CHL1   H2A 2860   4.583   6.821   3.025 -1.3498 -0.6798 -0.8918
   39CHL1   H2B 2861   4.510   6.665   2.994  0.1369  0.4575 -0.7432
   39CHL1   C20 2862   4.280   6.374   3.898  0.1425  0.1193  0.2757
   39CHL1   H20 2863   4.232   6.288   3.848  2.8767 -0.9442 -0.7519
   39CHL1   C21 2864   4.177   6.487   3.893 -0.2106  0.2789  0.4220
   39CHL1  H21A 2865   4.118   6.498   3.799 -1.7136  1.6222  1.4782
   39CHL1  H21B 2866   4.227   6.582   3.919  0.7502  0.3065 -1.3450
   39CHL1  H21C 2867   4.094   6.476   3.966 -0.9830  0.4902 -0.4050
   39CHL1   C22 2868   4.301   6.339   4.044 -0.4466  0.4009 -1.1003
   39CHL1  H22A 2869   4.202   6.328   4.093 -0.5725  0.8977 -1.2402
   39CHL1  H22B 2870   4.350   6.239   4.039 -2.9470 -1.0092  0.7034
   39CHL1   C23 2871   4.395   6.438   4.122 -0.9630 -0.1663  0.0217
   39CHL1  H23A 2872   4.489   6.466   4.069 -0.1724 -0.6681  1.1144
   39CHL1  H23B 2873   4.344   6.536   4.131 -0.7265  0.2172 -2.1598
   39CHL1   C24 2874   4.434   6.380   4.253  0.2199  0.6863 -0.2416
   39CHL1  H24A 2875   4.346   6.338   4.306  1.9410 -1.0807  1.4080
   39CHL1  H24B 2876   4.504   6.298   4.227  1.8822  1.4997  1.3243
   39CHL1   C25 2877   4.505   6.481   4.346  1.4204  0.4339 -0.0117
   39CHL1   H25 2878   4.438   6.568   4.359 -3.4832 -2.6954 -1.4889
   39CHL1   C26 2879   4.537   6.425   4.484  0.0691  0.9123 -0.1627
   39CHL1  H26A 2880   4.600   6.492   4.547 -0.0350 -1.8449  3.2042
   39CHL1  H26B 2881   4.444   6.410   4.543 -0.2017  0.1560 -0.7662
   39CHL1  H26C 2882   4.588   6.326   4.489  0.8424  1.2909  4.9406
   39CHL1   C27 2883   4.635   6.532   4.285 -0.1936  0.1217 -0.0285
   39CHL1  H27A 2884   4.597   6.611   4.217  1.9141  1.5493  0.3400
   39CHL1  H27B 2885   4.697   6.578   4.365  2.2225 -1.5048 -0.8710
   39CHL1  H27C 2886   4.693   6.450   4.239  0.7217 -0.7374  2.4775
   40CHL1    C3 2887   1.298   4.951   2.827  0.0515 -0.2549  0.1002
   40CHL1    H3 2888   1.214   4.901   2.880 -0.2840  0.8977  0.6705
   40CHL1    O3 2889   1.308   4.932   2.685  0.1248  0.2697 -0.3947
   40CHL1   H3' 2890   1.310   4.837   2.668  0.9324 -0.1319  1.6674
   40CHL1    C4 2891   1.292   5.102   2.867  0.4188  0.2056  0.4554
   40CHL1   H4A 2892   1.364   5.168   2.814 -0.5005  1.1238  0.2974
   40CHL1   H4B 2893   1.196   5.124   2.814  0.7002  2.5092  0.7891
   40CHL1    C5 2894   1.287   5.134   3.015 -0.8319  0.0856  0.3146
   40CHL1    C6 2895   1.185   5.203   3.072 -0.6801  0.0225 -0.2867
   40CHL1    H6 2896   1.106   5.245   3.008  0.7116 -0.2645 -2.2833
   40CHL1    C7 2897   1.190   5.229   3.221 -0.4651 -0.4011 -0.4058
   40CHL1   H7A 2898   1.153   5.332   3.241  1.8847  0.5595 -0.6722
   40CHL1   H7B 2899   1.124   5.157   3.274  1.4157 -1.1517  1.0477
   40CHL1    C8 2900   1.325   5.201   3.292  0.0317  0.5977  0.7661
   40CHL1    H8 2901   1.390   5.288   3.268 -2.7703  2.0388 -2.3850
   40CHL1   C14 2902   1.300   5.187   3.439  0.6443  0.2065 -0.4197
   40CHL1   H14 2903   1.228   5.103   3.451  1.1015  0.1412  2.5468
   40CHL1   C15 2904   1.232   5.307   3.507 -0.3909 -0.2326  0.6623
   40CHL1  H15A 2905   1.289   5.391   3.464  1.0941 -1.6383 -0.2385
   40CHL1  H15B 2906   1.124   5.302   3.480 -1.4629  1.2988  4.0694
   40CHL1   C16 2907   1.266   5.299   3.651 -0.4035  0.0470 -0.2859
   40CHL1  H16A 2908   1.328   5.386   3.683  0.4104 -0.0899 -1.4279
   40CHL1  H16B 2909   1.171   5.304   3.708 -1.5749 -0.2951 -2.1519
   40CHL1   C17 2910   1.344   5.171   3.667  0.4399  0.1419 -0.0370
   40CHL1   H17 2911   1.284   5.079   3.684  3.7958 -1.7182  3.4545
   40CHL1   C13 2912   1.416   5.144   3.533 -0.1296  1.2742 -0.2058
   40CHL1   C18 2913   1.543   5.237   3.519  0.6405 -0.7001 -0.8559
   40CHL1  H18A 2914   1.533   5.335   3.571  2.1605 -1.2841  0.6613
   40CHL1  H18B 2915   1.632   5.180   3.553 -0.5162 -0.2505  3.5213
   40CHL1  H18C 2916   1.554   5.268   3.413 -0.7400 -1.9065 -1.3815
   40CHL1   C12 2917   1.451   4.999   3.480  0.4716  0.2730  0.0915
   40CHL1  H12A 2918   1.539   4.953   3.530  0.7076 -0.8810 -1.3264
   40CHL1  H12B 2919   1.371   4.930   3.512  0.5705 -1.0429 -2.2988
   40CHL1   C11 2920   1.487   4.996   3.332 -0.7541 -0.4768 -0.2872
   40CHL1  H11A 2921   1.579   5.056   3.317 -1.1191  0.0873 -0.2825
   40CHL1  H11B 2922   1.496   4.889   3.302 -0.5800 -0.3345 -0.7443
   40CHL1    C9 2923   1.371   5.066   3.241  0.7962 -0.2535 -0.1535
   40CHL1    H9 2924   1.286   4.996   3.254  0.2054  0.4531 -0.1763
   40CHL1   C10 2925   1.400   5.060   3.088  0.4427 -0.1589  0.0541
   40CHL1   C19 2926   1.529   5.140   3.058 -1.0924  0.4111  0.0278
   40CHL1  H19A 2927   1.515   5.245   3.089  1.8276  1.0254 -0.4899
   40CHL1  H19B 2928   1.619   5.088   3.097  0.4366  1.4672 -1.8950
   40CHL1  H19C 2929   1.561   5.131   2.952 -0.1847 -2.0281  0.4381
   40CHL1    C1 2930   1.408   4.913   3.044 -0.0255 -0.1267  0.4028
   40CHL1   H1A 2931   1.496   4.867   3.094 -0.5148 -2.0942 -0.4639
   40CHL1   H1B 2932   1.319   4.860   3.084 -0.2894 -0.5454 -0.7297
   40CHL1    C2 2933   1.412   4.890   2.891  0.2161  0.5601 -0.5979
   40CHL1   H2A 2934   1.404   4.780   2.878 -1.8726  0.5846  0.0303
   40CHL1   H2B 2935   1.505   4.938   2.856  0.5183  1.1194  0.8841
   40CHL1   C20 2936   1.439   5.177   3.791  0.7588  0.1076  0.2901
   40CHL1   H20 2937   1.508   5.262   3.774  0.5555  0.0918 -0.6831
   40CHL1   C21 2938   1.523   5.049   3.793  0.1868 -0.1820  0.2806
   40CHL1  H21A 2939   1.614   5.056   3.731 -0.6399  1.6493 -0.8001
   40CHL1  H21B 2940   1.456   4.963   3.773 -1.4419  1.0606  0.1799
   40CHL1  H21C 2941   1.559   5.042   3.898  0.4176  1.5532  0.3462
   40CHL1   C22 2942   1.377   5.224   3.926 -0.2864  0.1325 -0.6640
   40CHL1  H22A 2943   1.338   5.327   3.911  0.2992  0.3430 -0.7537
   40CHL1  H22B 2944   1.286   5.165   3.952 -0.8499  1.0291 -0.5468
   40CHL1   C23 2945   1.472   5.231   4.048 -0.4508  0.1279  0.1688
   40CHL1  H23A 2946   1.470   5.134   4.102 -3.3438 -1.5458 -2.5560
   40CHL1  H23B 2947   1.575   5.226   4.005 -1.4782  0.0984 -2.4546
   40CHL1   C24 2948   1.452   5.345   4.151  0.4754  0.1979  0.0236
   40CHL1  H24A 2949   1.432   5.440   4.096 -1.6196 -0.7014 -0.9040
   40CHL1  H24B 2950   1.346   5.331   4.182 -0.0057  1.7349 -0.8136
   40CHL1   C25 2951   1.563   5.361   4.256 -0.3638 -0.3366 -0.0502
   40CHL1   H25 2952   1.656   5.377   4.199 -0.7612  1.2667 -0.2751
   40CHL1   C26 2953   1.539   5.467   4.362 -0.6693 -0.4425 -0.3725
   40CHL1  H26A 2954   1.623   5.463   4.435  0.9466 -0.1348 -2.1417
   40CHL1  H26B 2955   1.558   5.565   4.313  1.4203  1.0775  3.0951
   40CHL1  H26C 2956   1.436   5.456   4.403 -1.3071  0.7148 -1.6018
   40CHL1   C27 2957   1.595   5.229   4.324  0.6128  0.5972 -0.1879
   40CHL1  H27A 2958   1.499   5.205   4.375  0.7431 -1.2536 -0.7278
   40CHL1  H27B 2959   1.626   5.149   4.253 -0.4524 -0.8700  0.9533
   40CHL1  H27C 2960   1.663   5.241   4.411 -1.6027  1.0915  1.5676
   41CHL1    C3 2961   1.175   2.783   3.140 -0.3122  0.7388 -0.1466
   41CHL1    H3 2962   1.239   2.692   3.141  0.3191  1.1478  2.4796
   41CHL1    O3 2963   1.097   2.798   3.022 -0.2725  0.2613 -0.1346
   41CHL1   H3' 2964   1.080   2.892   3.011 -0.7498  0.2326  0.3298
   41CHL1    C4 2965   1.077   2.785   3.253 -0.1568 -0.3033  0.0865
   41CHL1   H4A 2966   1.015   2.876   3.237  0.8212  0.4468  0.4379
   41CHL1   H4B 2967   1.004   2.703   3.238  0.5994 -0.6215 -2.2032
   41CHL1    C5 2968   1.143   2.788   3.392 -0.0337 -0.1898  0.7306
   41CHL1    C6 2969   1.130   2.691   3.480  0.0785  0.6368  0.0887
   41CHL1    H6 2970   1.067   2.604   3.456  2.0706 -0.8057 -0.1698
   41CHL1    C7 2971   1.179   2.698   3.621  0.5717 -0.4075 -0.7404
   41CHL1   H7A 2972   1.110   2.650   3.694  0.2380  1.6016  0.3587
   41CHL1   H7B 2973   1.271   2.636   3.623  0.9742  0.1540  1.7215
   41CHL1    C8 2974   1.235   2.838   3.657  0.4965 -0.6389 -0.2831
   41CHL1    H8 2975   1.148   2.907   3.666  1.3189  0.2430  1.3128
   41CHL1   C14 2976   1.303   2.836   3.792  0.2936 -0.6609  0.1390
   41CHL1   H14 2977   1.372   2.748   3.794  1.1375 -0.0136 -0.0129
   41CHL1   C15 2978   1.222   2.818   3.924 -0.2134  0.0098  0.0242
   41CHL1  H15A 2979   1.119   2.858   3.911 -1.3687 -2.3661  1.2009
   41CHL1  H15B 2980   1.217   2.707   3.936 -0.3433 -0.0025 -0.1431
   41CHL1   C16 2981   1.304   2.874   4.040  0.2838  0.3276  0.0805
   41CHL1  H16A 2982   1.251   2.964   4.075 -0.4394 -0.2962  0.6159
   41CHL1  H16B 2983   1.332   2.805   4.123 -0.1961 -0.4022 -0.3553
   41CHL1   C17 2984   1.436   2.917   3.966 -0.1158  0.5325 -0.2178
   41CHL1   H17 2985   1.506   2.831   3.963 -0.6930  0.0411  0.0479
   41CHL1   C13 2986   1.391   2.958   3.828  0.5503  0.0395 -0.0262
   41CHL1   C18 2987   1.301   3.082   3.828  0.1548 -0.8558 -0.4637
   41CHL1  H18A 2988   1.355   3.179   3.819 -2.2089  0.6410  0.6116
   41CHL1  H18B 2989   1.237   3.088   3.738 -1.3993  0.8074  0.6939
   41CHL1  H18C 2990   1.237   3.097   3.918  0.5735  1.2776 -0.4565
   41CHL1   C12 2991   1.492   2.978   3.714  0.7406  0.8226 -0.1628
   41CHL1  H12A 2992   1.559   3.066   3.714 -0.0394  1.4335  0.5854
   41CHL1  H12B 2993   1.563   2.892   3.704 -0.7085 -0.1973 -2.7995
   41CHL1   C11 2994   1.431   2.980   3.569  0.3403 -0.0608  0.8122
   41CHL1  H11A 2995   1.389   3.082   3.557 -1.4316 -0.9688 -1.4524
   41CHL1  H11B 2996   1.519   2.965   3.503 -1.7368 -0.8649 -1.9115
   41CHL1    C9 2997   1.322   2.876   3.542 -0.1018 -0.5161 -0.2101
   41CHL1    H9 2998   1.388   2.789   3.523  1.6402  0.3462  1.4911
   41CHL1   C10 2999   1.238   2.897   3.413  0.4420  0.5670  0.2831
   41CHL1   C19 3000   1.161   3.032   3.424 -0.0895  0.7933 -0.1722
   41CHL1  H19A 3001   1.232   3.116   3.432  0.3233  0.4313 -0.0266
   41CHL1  H19B 3002   1.084   3.049   3.345 -0.8676 -1.6045 -0.0392
   41CHL1  H19C 3003   1.098   3.031   3.516  0.4412  1.1298  0.1921
   41CHL1    C1 3004   1.333   2.905   3.286  0.4960  0.4530 -0.7119
   41CHL1   H1A 3005   1.387   3.001   3.285  1.1038  0.1140 -0.6831
   41CHL1   H1B 3006   1.407   2.823   3.288 -0.7412 -0.6973 -0.4322
   41CHL1    C2 3007   1.268   2.903   3.151  1.0375 -0.1052  0.4020
   41CHL1   H2A 3008   1.332   2.897   3.060  2.2020 -3.6683  1.3064
   41CHL1   H2B 3009   1.208   2.997   3.146  0.3389 -0.5901 -1.0386
   41CHL1   C20 3010   1.531   3.011   4.039 -0.2713 -0.4069 -0.3980
   41CHL1   H20 3011   1.585   3.064   3.958  1.3525 -1.3314  0.0325
   41CHL1   C21 3012   1.640   2.924   4.111 -0.0561 -0.6784 -0.5628
   41CHL1  H21A 3013   1.724   2.988   4.146 -0.3056  0.4668 -1.9801
   41CHL1  H21B 3014   1.689   2.856   4.038  2.7020  0.6242 -0.0421
   41CHL1  H21C 3015   1.585   2.862   4.185 -0.4970  0.8452  0.4406
   41CHL1   C22 3016   1.467   3.116   4.135  0.3950  0.4376 -0.1059
   41CHL1  H22A 3017   1.389   3.169   4.077  0.5086 -1.8228 -2.5089
   41CHL1  H22B 3018   1.419   3.060   4.218  0.5771 -0.8560 -0.8510
   41CHL1   C23 3019   1.573   3.211   4.191 -0.2631 -0.0200 -0.1902
   41CHL1  H23A 3020   1.651   3.154   4.246  0.6917  2.2092  0.9098
   41CHL1  H23B 3021   1.608   3.257   4.096  0.0090 -1.0136 -0.5841
   41CHL1   C24 3022   1.521   3.327   4.276  0.2305  0.0727  0.2471
   41CHL1  H24A 3023   1.453   3.393   4.218  2.0883  2.7627  0.9469
   41CHL1  H24B 3024   1.469   3.283   4.363  1.1527 -1.6409 -0.0354
   41CHL1   C25 3025   1.642   3.416   4.326  0.3899  0.5272  0.4049
   41CHL1   H25 3026   1.707   3.442   4.239 -0.5239  2.5811  0.2705
   41CHL1   C26 3027   1.582   3.538   4.389  0.1945  0.1561  0.1473
   41CHL1  H26A 3028   1.518   3.496   4.469  3.2378 -2.6286  1.3391
   41CHL1  H26B 3029   1.658   3.595   4.446 -0.0928 -0.9473  1.6938
   41CHL1  H26C 3030   1.542   3.607   4.312  2.4052 -0.6772 -1.8793
   41CHL1   C27 3031   1.732   3.338   4.425  0.2965 -0.0773 -0.6536
   41CHL1  H27A 3032   1.665   3.296   4.503  0.8218  1.0188  0.4397
   41CHL1  H27B 3033   1.782   3.257   4.368  0.8252  0.0737 -0.4150
   41CHL1  H27C 3034   1.814   3.403   4.464 -1.3937  2.2199 -0.7172
   42CHL1    C3 3035   2.517   1.125   3.315 -0.5871 -0.2282  0.1320
   42CHL1    H3 3036   2.562   1.227   3.317  0.4548 -0.6883  1.6484
   42CHL1    O3 3037   2.502   1.091   3.177  0.0371 -0.1195  0.1673
   42CHL1   H3' 3038   2.475   0.999   3.185  1.4025 -0.5999 -0.4606
   42CHL1    C4 3039   2.608   1.024   3.382  0.1320  0.6665 -0.0795
   42CHL1   H4A 3040   2.563   0.924   3.369 -1.8327  0.5161  5.3912
   42CHL1   H4B 3041   2.708   1.017   3.335 -0.9406  0.0247 -2.3815
   42CHL1    C5 3042   2.613   1.052   3.529 -0.2364  0.0320  0.0387
   42CHL1    C6 3043   2.734   1.074   3.593  0.2991 -0.0092 -0.0967
   42CHL1    H6 3044   2.820   1.088   3.527  0.4460  3.9013  0.6966
   42CHL1    C7 3045   2.751   1.082   3.742 -0.0276  0.1688 -0.1069
   42CHL1   H7A 3046   2.833   1.016   3.778 -1.7807 -3.4446 -2.1141
   42CHL1   H7B 3047   2.773   1.188   3.768  0.2958  0.1346 -0.2381
   42CHL1    C8 3048   2.625   1.033   3.813  0.8418 -0.4580  0.3491
   42CHL1    H8 3049   2.612   0.923   3.810 -0.0283 -0.3738  0.5819
   42CHL1   C14 3050   2.630   1.084   3.958 -0.3364 -0.4063  1.0215
   42CHL1   H14 3051   2.618   1.194   3.957 -0.9469 -0.4699  0.1207
   42CHL1   C15 3052   2.762   1.065   4.038  0.2665  0.4276  0.1991
   42CHL1  H15A 3053   2.795   0.960   4.021 -1.7339 -0.1782 -0.1107
   42CHL1  H15B 3054   2.833   1.146   4.011 -2.0739  2.8570  0.9220
   42CHL1   C16 3055   2.711   1.084   4.183 -0.8566  0.3327  0.6114
   42CHL1  H16A 3056   2.757   0.997   4.235  0.0913 -0.1594 -0.9955
   42CHL1  H16B 3057   2.748   1.176   4.233  2.5642 -0.1074 -0.8360
   42CHL1   C17 3058   2.559   1.094   4.189  0.4539  0.3498 -0.2116
   42CHL1   H17 3059   2.544   1.204   4.198  0.5018  0.2945  0.6344
   42CHL1   C13 3060   2.513   1.046   4.050  0.4290  0.2089  0.4469
   42CHL1   C18 3061   2.509   0.890   4.056 -0.3729  0.8411  0.0029
   42CHL1  H18A 3062   2.418   0.849   4.106  0.4918 -1.1043  0.0861
   42CHL1  H18B 3063   2.525   0.834   3.961  3.0752  0.5352  0.6696
   42CHL1  H18C 3064   2.596   0.860   4.117 -1.1841 -2.4637 -0.2560
   42CHL1   C12 3065   2.389   1.110   3.996 -0.4854  0.7410 -0.2775
   42CHL1  H12A 3066   2.292   1.087   4.044  0.8260  0.8307  2.6943
   42CHL1  H12B 3067   2.405   1.220   4.005  0.9215  0.4195  2.3335
   42CHL1   C11 3068   2.369   1.071   3.849 -0.2966 -0.2381  0.5203
   42CHL1  H11A 3069   2.333   0.966   3.840  1.0840 -0.7668  0.7788
   42CHL1  H11B 3070   2.291   1.140   3.811  3.0481  2.4614 -2.1360
   42CHL1    C9 3071   2.494   1.093   3.760  0.4406  0.4589 -0.2003
   42CHL1    H9 3072   2.518   1.201   3.763  2.9327  0.0605 -2.5288
   42CHL1   C10 3073   2.483   1.048   3.616  0.2593  0.6844 -0.3860
   42CHL1   C19 3074   2.439   0.898   3.613  0.5013  0.2587 -1.3584
   42CHL1  H19A 3075   2.413   0.875   3.508  0.7602 -0.3422 -1.2966
   42CHL1  H19B 3076   2.518   0.830   3.652 -1.2059 -0.0743  1.8157
   42CHL1  H19C 3077   2.349   0.874   3.673  1.8492 -0.6565  0.4409
   42CHL1    C1 3078   2.384   1.137   3.538  0.3037 -0.7188 -0.4285
   42CHL1   H1A 3079   2.287   1.114   3.588  1.2139 -0.0558  1.8019
   42CHL1   H1B 3080   2.402   1.246   3.555  0.5007 -0.8594  0.3138
   42CHL1    C2 3081   2.377   1.124   3.384 -0.3304 -0.1753 -0.3252
   42CHL1   H2A 3082   2.315   1.206   3.345  2.1571  1.9209 -0.1672
   42CHL1   H2B 3083   2.333   1.025   3.361 -0.3691 -0.0912 -0.6132
   42CHL1   C20 3084   2.494   1.026   4.311  0.0100  0.0703  0.4341
   42CHL1   H20 3085   2.498   0.915   4.314 -0.0625  0.0837  2.5170
   42CHL1   C21 3086   2.353   1.069   4.327  1.1094  0.3489 -0.6512
   42CHL1  H21A 3087   2.301   1.032   4.417  1.1284  1.0697 -0.3387
   42CHL1  H21B 3088   2.291   1.038   4.240  1.1447  0.9931 -0.9129
   42CHL1  H21C 3089   2.358   1.180   4.323  1.4581  0.2999 -2.3497
   42CHL1   C22 3090   2.577   1.064   4.433  0.3299  0.1077 -0.5731
   42CHL1  H22A 3091   2.679   1.020   4.429  0.2316 -0.1181 -0.6218
   42CHL1  H22B 3092   2.581   1.173   4.453 -0.9242  0.5761 -2.6169
   42CHL1   C23 3093   2.528   0.994   4.560 -0.0446 -0.0831  0.6395
   42CHL1  H23A 3094   2.443   1.048   4.608  1.2590  0.6631  2.2386
   42CHL1  H23B 3095   2.481   0.901   4.524  0.4938  0.4891 -1.6853
   42CHL1   C24 3096   2.636   0.960   4.661 -1.1089 -0.7809 -0.6037
   42CHL1  H24A 3097   2.703   0.884   4.614 -0.6619 -1.7531  1.5210
   42CHL1  H24B 3098   2.700   1.048   4.686 -2.6663 -0.4550  2.7424
   42CHL1   C25 3099   2.576   0.890   4.787  0.8632 -0.3609 -0.0778
   42CHL1   H25 3100   2.487   0.949   4.819 -1.0808 -2.6619 -1.0121
   42CHL1   C26 3101   2.536   0.749   4.749  0.5676 -0.1961 -0.1648
   42CHL1  H26A 3102   2.448   0.752   4.681  0.1273 -0.2164  0.3976
   42CHL1  H26B 3103   2.620   0.685   4.715  0.7484 -0.3937  0.6376
   42CHL1  H26C 3104   2.499   0.709   4.846 -2.2702  1.7021 -0.3621
   42CHL1   C27 3105   2.673   0.884   4.905  0.9922 -0.5635 -0.7652
   42CHL1  H27A 3106   2.634   0.815   4.983 -1.5800  0.2822 -1.2189
   42CHL1  H27B 3107   2.774   0.857   4.866  0.9821  2.7316 -3.4714
   42CHL1  H27C 3108   2.680   0.981   4.958 -0.5994  0.3293 -2.1126
   43CHL1    C3 3109   5.762   0.968   3.062  0.4294  0.1385  0.1723
   43CHL1    H3 3110   5.660   1.010   3.078  0.0041 -0.5343 -0.6666
   43CHL1    O3 3111   5.805   0.990   2.932  0.0737 -0.3047 -0.0649
   43CHL1   H3' 3112   5.857   0.913   2.906 -2.6562 -3.4626  2.8757
   43CHL1    C4 3113   5.855   1.033   3.171 -0.1429  0.3316  0.8271
   43CHL1   H4A 3114   5.957   1.000   3.140 -0.1271  1.6017 -0.5741
   43CHL1   H4B 3115   5.865   1.140   3.143  0.2743  0.4412  1.3697
   43CHL1    C5 3116   5.820   1.005   3.316  0.4122 -0.0174 -0.0479
   43CHL1    C6 3117   5.794   1.110   3.403  0.1736 -0.1240 -0.4905
   43CHL1    H6 3118   5.800   1.214   3.365  1.4018  0.2988  0.8107
   43CHL1    C7 3119   5.743   1.095   3.543  0.3159 -0.2682 -0.1443
   43CHL1   H7A 3120   5.783   1.168   3.616  1.0847  0.4131 -1.2014
   43CHL1   H7B 3121   5.636   1.119   3.552  0.8465  2.7797 -1.0365
   43CHL1    C8 3122   5.772   0.952   3.594  0.5954  0.3553  0.1136
   43CHL1    H8 3123   5.882   0.944   3.609  0.4360 -0.5239  0.9180
   43CHL1   C14 3124   5.693   0.936   3.726  0.6021  0.4543 -0.5323
   43CHL1   H14 3125   5.585   0.957   3.709  0.1083  2.4260  3.8634
   43CHL1   C15 3126   5.721   1.031   3.840 -0.1372 -0.0549  0.5297
   43CHL1  H15A 3127   5.832   1.025   3.848  0.0949 -0.9051 -2.1865
   43CHL1  H15B 3128   5.691   1.130   3.799  1.5666  0.6613  0.9210
   43CHL1   C16 3129   5.646   0.959   3.955  0.0428 -1.0035  0.3532
   43CHL1  H16A 3130   5.725   0.955   4.034  0.7709 -2.2763 -0.4080
   43CHL1  H16B 3131   5.557   1.022   3.976 -0.0658 -0.7775 -0.7568
   43CHL1   C17 3132   5.614   0.811   3.910 -0.0469 -0.0526  0.1872
   43CHL1   H17 3133   5.505   0.811   3.886  0.0947 -0.0062 -0.4816
   43CHL1   C13 3134   5.687   0.791   3.776  0.2739  0.2212  0.5799
   43CHL1   C18 3135   5.829   0.734   3.796  0.5597 -0.1540 -0.1231
   43CHL1  H18A 3136   5.885   0.807   3.858  2.0367 -1.8661  0.6582
   43CHL1  H18B 3137   5.818   0.636   3.846 -2.2362 -0.6246 -1.4943
   43CHL1  H18C 3138   5.892   0.709   3.708 -0.7000 -2.8969 -0.3327
   43CHL1   C12 3139   5.623   0.700   3.669  0.2005 -0.3370 -0.2458
   43CHL1  H12A 3140   5.605   0.596   3.704  0.1555 -1.2341 -2.7224
   43CHL1  H12B 3141   5.518   0.735   3.655  0.5344  0.6616 -0.3144
   43CHL1   C11 3142   5.691   0.705   3.533  0.0764  1.0483  0.2916
   43CHL1  H11A 3143   5.793   0.660   3.540 -0.1563  0.2529 -1.2700
   43CHL1  H11B 3144   5.624   0.647   3.467 -1.0464  0.3670  1.9702
   43CHL1    C9 3145   5.725   0.852   3.483  0.2724 -0.2446 -0.8870
   43CHL1    H9 3146   5.622   0.884   3.460 -0.1417 -0.9643 -0.0732
   43CHL1   C10 3147   5.800   0.862   3.350 -0.5682  0.0882 -0.0942
   43CHL1   C19 3148   5.930   0.775   3.355  0.4437 -0.0166 -0.2889
   43CHL1  H19A 3149   5.996   0.819   3.432 -0.6210  0.4728  0.3659
   43CHL1  H19B 3150   5.904   0.675   3.396 -1.3324  1.3630  2.1932
   43CHL1  H19C 3151   5.979   0.763   3.256 -1.8488  1.6845 -1.7482
   43CHL1    C1 3152   5.712   0.792   3.232  0.1813 -0.7034 -0.0427
   43CHL1   H1A 3153   5.703   0.682   3.246 -1.7454 -0.8595 -1.8971
   43CHL1   H1B 3154   5.612   0.836   3.249  1.4174  2.1430  0.3669
   43CHL1    C2 3155   5.756   0.816   3.088 -0.0011 -0.3626 -0.2104
   43CHL1   H2A 3156   5.686   0.773   3.014 -2.8533  1.0865  1.4796
   43CHL1   H2B 3157   5.857   0.770   3.077 -0.5389 -1.1576 -2.4307
   43CHL1   C20 3158   5.631   0.708   4.019 -0.4702  0.8765  0.8407
   43CHL1   H20 3159   5.741   0.696   4.033 -0.4412 -0.3121 -0.1670
   43CHL1   C21 3160   5.567   0.580   3.983  0.7962  0.0018  0.1612
   43CHL1  H21A 3161   5.461   0.592   3.952  0.6147  0.3416  0.8857
   43CHL1  H21B 3162   5.544   0.512   4.068 -1.1406  2.3622  1.6602
   43CHL1  H21C 3163   5.631   0.543   3.900 -0.0220  1.1925 -1.0322
   43CHL1   C22 3164   5.572   0.756   4.159  0.6788 -0.4794  0.4658
   43CHL1  H22A 3165   5.590   0.680   4.237 -2.0020 -0.1748  1.5122
   43CHL1  H22B 3166   5.644   0.833   4.194  1.1489 -0.5460 -0.3260
   43CHL1   C23 3167   5.427   0.812   4.156  0.0012 -0.5978 -0.2104
   43CHL1  H23A 3168   5.404   0.878   4.069 -2.3361 -0.8504  0.1310
   43CHL1  H23B 3169   5.358   0.725   4.145  0.6215 -1.2474  0.8721
   43CHL1   C24 3170   5.388   0.896   4.284  0.0198 -0.3446 -0.0354
   43CHL1  H24A 3171   5.387   0.818   4.363 -1.0363 -0.4702 -0.1516
   43CHL1  H24B 3172   5.465   0.975   4.295 -0.3476 -0.0926  0.8029
   43CHL1   C25 3173   5.250   0.965   4.280  0.3649  0.5728  0.9296
   43CHL1   H25 3174   5.244   1.015   4.181 -0.1075 -1.7929 -0.3024
   43CHL1   C26 3175   5.146   0.846   4.281 -0.1974 -0.0067 -0.1932
   43CHL1  H26A 3176   5.160   0.805   4.178  0.8841 -0.3239  0.0592
   43CHL1  H26B 3177   5.167   0.777   4.366  1.1403  0.3584 -0.1937
   43CHL1  H26C 3178   5.045   0.886   4.299 -0.7010 -1.4459  0.3684
   43CHL1   C27 3179   5.229   1.054   4.398  0.5553 -0.8176 -0.7531
   43CHL1  H27A 3180   5.311   1.127   4.415  1.0434 -1.1245 -1.7131
   43CHL1  H27B 3181   5.129   1.102   4.394 -0.0710 -2.0746 -0.7836
   43CHL1  H27C 3182   5.216   0.998   4.493 -0.7878 -1.9995 -1.5908
   44CHL1    C3 3183   1.169   1.689   3.142  0.4354 -0.0187 -0.0049
   44CHL1    H3 3184   1.280   1.684   3.142  0.4224 -0.5357  0.6507
   44CHL1    O3 3185   1.120   1.658   3.011  0.1215 -0.5509  0.0424
   44CHL1   H3' 3186   1.177   1.708   2.951 -2.3256  0.2220 -1.8036
   44CHL1    C4 3187   1.129   1.574   3.239  0.0801 -0.4195  0.1157
   44CHL1   H4A 3188   1.019   1.565   3.236  0.2878 -4.3862  0.0933
   44CHL1   H4B 3189   1.170   1.479   3.199 -0.3224 -0.7682  0.5242
   44CHL1    C5 3190   1.170   1.595   3.389  0.1152  0.1133  0.6184
   44CHL1    C6 3191   1.238   1.506   3.460 -0.0792  0.2939  0.6904
   44CHL1    H6 3192   1.271   1.415   3.408 -0.3233  1.2028 -1.1106
   44CHL1    C7 3193   1.284   1.522   3.601 -0.5592 -0.1602 -0.6435
   44CHL1   H7A 3194   1.282   1.425   3.655 -0.6626 -0.1570 -0.6417
   44CHL1   H7B 3195   1.391   1.552   3.603 -0.8453  0.9438  1.6604
   44CHL1    C8 3196   1.208   1.632   3.670  0.3126 -0.2359 -0.2756
   44CHL1    H8 3197   1.104   1.597   3.692 -0.5131  2.8382  1.1810
   44CHL1   C14 3198   1.265   1.661   3.813 -0.6530  0.3118  0.5438
   44CHL1   H14 3199   1.372   1.687   3.797 -0.2995 -1.4857 -0.1461
   44CHL1   C15 3200   1.273   1.549   3.914  0.1856  0.2603 -0.5247
   44CHL1  H15A 3201   1.189   1.477   3.923  1.6713 -1.6584 -1.5035
   44CHL1  H15B 3202   1.352   1.475   3.892  0.8463  0.1180  2.0161
   44CHL1   C16 3203   1.287   1.623   4.050  0.3713  0.2683  0.4665
   44CHL1  H16A 3204   1.202   1.588   4.112  0.5300 -2.9764 -0.8973
   44CHL1  H16B 3205   1.374   1.600   4.115 -0.1943 -1.9473  0.5271
   44CHL1   C17 3206   1.277   1.776   4.019 -0.3854 -0.1525 -0.0268
   44CHL1   H17 3207   1.378   1.815   3.994  0.2067 -0.3135  2.0161
   44CHL1   C13 3208   1.203   1.783   3.884  0.5534 -0.4949 -0.0253
   44CHL1   C18 3209   1.047   1.754   3.913  1.0186  0.0951 -0.3979
   44CHL1  H18A 3210   1.011   1.843   3.968  0.0316 -0.1362 -0.6476
   44CHL1  H18B 3211   0.990   1.750   3.817  0.8536  0.2891 -0.3060
   44CHL1  H18C 3212   1.037   1.664   3.978 -0.0278 -0.6742 -1.5751
   44CHL1   C12 3213   1.226   1.912   3.799 -0.9200  0.2118  0.0796
   44CHL1  H12A 3214   1.182   2.002   3.846  1.6031  0.2396  2.7084
   44CHL1  H12B 3215   1.337   1.915   3.791 -0.7111 -2.0685  1.2029
   44CHL1   C11 3216   1.159   1.888   3.656 -0.0933 -0.6766 -0.3767
   44CHL1  H11A 3217   1.050   1.900   3.672  0.0910 -0.4675  0.8649
   44CHL1  H11B 3218   1.187   1.974   3.593  1.1972 -1.1942 -0.5307
   44CHL1    C9 3219   1.203   1.758   3.583  0.2799  0.4567 -0.2988
   44CHL1    H9 3220   1.312   1.773   3.566  0.4749 -0.2199  0.3338
   44CHL1   C10 3221   1.130   1.732   3.442 -0.3720  0.3746  0.1219
   44CHL1   C19 3222   0.979   1.728   3.469 -0.1487 -0.5033  0.2301
   44CHL1  H19A 3223   0.926   1.708   3.373  1.4412 -2.2835 -0.3595
   44CHL1  H19B 3224   0.948   1.652   3.544  0.6091  0.7592  1.8950
   44CHL1  H19C 3225   0.943   1.824   3.511  1.3817 -1.2575  3.5647
   44CHL1    C1 3226   1.165   1.842   3.346 -0.3196  0.7387 -0.0276
   44CHL1   H1A 3227   1.127   1.940   3.381 -0.5546  0.2498  1.1479
   44CHL1   H1B 3228   1.275   1.848   3.332 -0.3793 -0.0550 -0.9547
   44CHL1    C2 3229   1.121   1.816   3.203  0.6097 -0.1669  0.7167
   44CHL1   H2A 3230   1.144   1.901   3.135 -2.8856 -0.3254 -0.8778
   44CHL1   H2B 3231   1.010   1.815   3.199  0.6595 -1.8920 -1.9408
   44CHL1   C20 3232   1.231   1.871   4.127  0.5827 -0.2176  0.5701
   44CHL1   H20 3233   1.173   1.952   4.077 -2.3602 -0.5705  3.1442
   44CHL1   C21 3234   1.363   1.934   4.200  0.0047  0.1759  0.0274
   44CHL1  H21A 3235   1.385   1.846   4.264 -2.9194 -0.5949  0.1319
   44CHL1  H21B 3236   1.329   2.020   4.261 -0.2694  0.0562  0.0445
   44CHL1  H21C 3237   1.439   1.965   4.124  0.4669 -0.5663  0.1735
   44CHL1   C22 3238   1.133   1.807   4.233  0.5042  0.1037 -0.8775
   44CHL1  H22A 3239   1.057   1.742   4.184 -1.3550  0.6456  1.1134
   44CHL1  H22B 3240   1.194   1.746   4.304  0.1980 -1.2205 -1.7194
   44CHL1   C23 3241   1.055   1.913   4.325  0.1212 -0.0548  0.2118
   44CHL1  H23A 3242   1.124   1.994   4.354  0.0738  0.9568 -2.3304
   44CHL1  H23B 3243   0.966   1.949   4.269 -0.8986 -1.0641  1.1088
   44CHL1   C24 3244   0.990   1.851   4.450  0.2237  0.8131  0.4767
   44CHL1  H24A 3245   0.927   1.922   4.507 -2.4833  0.3118 -1.6494
   44CHL1  H24B 3246   0.925   1.766   4.418  0.5250  0.3885  0.9683
   44CHL1   C25 3247   1.092   1.791   4.552  0.5026 -0.7024  0.8081
   44CHL1   H25 3248   1.134   1.706   4.495  0.1754 -1.3187  1.4834
   44CHL1   C26 3249   1.211   1.884   4.593 -0.0900  0.1692  0.3519
   44CHL1  H26A 3250   1.265   1.914   4.501 -0.5292  3.1995  0.9863
   44CHL1  H26B 3251   1.174   1.976   4.643  0.0981  0.5046 -0.1198
   44CHL1  H26C 3252   1.275   1.826   4.662  0.9575  0.9823  0.0815
   44CHL1   C27 3253   1.022   1.736   4.680 -0.3627 -0.1196 -0.0444
   44CHL1  H27A 3254   0.955   1.816   4.718 -1.0483 -0.5908 -0.2401
   44CHL1  H27B 3255   0.960   1.653   4.641 -0.7367  1.4170 -2.9960
   44CHL1  H27C 3256   1.097   1.701   4.754 -0.0387 -0.4665 -0.5345
   45CHL1    C3 3257   3.798   2.104   2.684 -0.5446 -0.3296 -0.0121
   45CHL1    H3 3258   3.691   2.126   2.703 -0.5390  0.3489 -0.7209
   45CHL1    O3 3259   3.816   2.073   2.545  0.6172 -0.4021 -0.4258
   45CHL1   H3' 3260   3.911   2.060   2.535  0.2845 -1.8587 -2.1809
   45CHL1    C4 3261   3.885   2.233   2.716  0.1365  0.1141 -0.2715
   45CHL1   H4A 3262   3.989   2.234   2.676  0.0721  1.9556 -0.4801
   45CHL1   H4B 3263   3.831   2.311   2.659  0.6845 -0.2014 -1.2435
   45CHL1    C5 3264   3.894   2.265   2.866 -0.1684 -0.7478  0.1602
   45CHL1    C6 3265   3.868   2.388   2.916  0.4895 -0.4525 -0.6916
   45CHL1    H6 3266   3.847   2.467   2.843 -0.4481 -0.6682 -0.6706
   45CHL1    C7 3267   3.892   2.431   3.058  0.0882  0.3509 -0.3933
   45CHL1   H7A 3268   3.947   2.527   3.066 -0.4748  0.9165 -2.6157
   45CHL1   H7B 3269   3.795   2.467   3.099  0.1078  0.6378 -0.5980
   45CHL1    C8 3270   3.959   2.323   3.135  0.2132 -0.4272  0.2794
   45CHL1    H8 3271   4.068   2.343   3.124  0.0274  0.9081  0.6932
   45CHL1   C14 3272   3.921   2.350   3.274 -0.2328  0.3446 -0.8418
   45CHL1   H14 3273   3.820   2.310   3.298  0.4997 -0.1179  1.8584
   45CHL1   C15 3274   3.920   2.495   3.327  0.1973 -0.3565 -0.1001
   45CHL1  H15A 3275   4.009   2.542   3.279 -0.4627 -0.6367 -1.6600
   45CHL1  H15B 3276   3.835   2.561   3.300  1.8565  1.8305 -0.2564
   45CHL1   C16 3277   3.929   2.485   3.475  0.2370 -0.1561  0.2679
   45CHL1  H16A 3278   4.010   2.553   3.508  0.4030  0.7575 -1.8136
   45CHL1  H16B 3279   3.837   2.517   3.529  0.2585  0.8302 -0.2539
   45CHL1   C17 3280   3.954   2.336   3.500  0.0463  0.3653  0.0149
   45CHL1   H17 3281   3.860   2.279   3.516  1.2994 -1.4655  1.2364
   45CHL1   C13 3282   4.007   2.263   3.373 -0.2596 -0.7031 -0.4431
   45CHL1   C18 3283   4.157   2.288   3.358 -0.5162 -0.0806  0.1847
   45CHL1  H18A 3284   4.221   2.230   3.428 -0.0860 -0.4119 -0.4719
   45CHL1  H18B 3285   4.195   2.279   3.254  0.6170 -0.6626  0.6289
   45CHL1  H18C 3286   4.189   2.389   3.391  1.4094 -0.7731  0.6168
   45CHL1   C12 3287   3.964   2.113   3.349 -0.0686 -0.1418  0.1005
   45CHL1  H12A 3288   4.045   2.057   3.399  0.5926  1.1669  0.5536
   45CHL1  H12B 3289   3.864   2.092   3.393 -1.0864  3.2835 -0.2582
   45CHL1   C11 3290   3.984   2.075   3.198  0.4082  0.4694 -0.2385
   45CHL1  H11A 3291   4.093   2.070   3.178  0.4263  0.7212 -0.2044
   45CHL1  H11B 3292   3.940   1.975   3.177  2.3013 -0.4830  0.1404
   45CHL1    C9 3293   3.916   2.177   3.099 -0.2727  0.4679 -1.0155
   45CHL1    H9 3294   3.810   2.153   3.121  0.3330 -0.9421  0.5822
   45CHL1   C10 3295   3.930   2.140   2.949 -1.0516 -0.3616 -0.1465
   45CHL1   C19 3296   4.077   2.101   2.922  0.3836 -0.0830  0.5179
   45CHL1  H19A 3297   4.094   1.998   2.959  2.4236 -0.0392 -0.1543
   45CHL1  H19B 3298   4.094   2.082   2.814 -0.6343  2.1282 -0.0943
   45CHL1  H19C 3299   4.151   2.175   2.960  0.0443  0.4772  0.1025
   45CHL1    C1 3300   3.846   2.017   2.920 -1.3285 -0.1315 -0.7620
   45CHL1   H1A 3301   3.886   1.932   2.979  1.6312  1.2105 -0.6448
   45CHL1   H1B 3302   3.740   2.036   2.948 -0.9859  1.7587 -0.6035
   45CHL1    C2 3303   3.842   1.985   2.766 -0.6083  0.4643 -0.1686
   45CHL1   H2A 3304   3.774   1.902   2.738 -0.5836  0.4259 -0.1155
   45CHL1   H2B 3305   3.943   1.952   2.734 -0.8642 -1.7126  1.1146
   45CHL1   C20 3306   4.031   2.312   3.624  0.5164 -0.1177  1.0347
   45CHL1   H20 3307   4.139   2.334   3.614  0.1787  0.2750 -3.6221
   45CHL1   C21 3308   4.014   2.164   3.667  0.2383  0.3774  0.5311
   45CHL1  H21A 3309   4.078   2.144   3.756  1.7231  1.0534 -0.3586
   45CHL1  H21B 3310   4.040   2.082   3.597 -2.8809 -0.2018 -0.0645
   45CHL1  H21C 3311   3.911   2.128   3.690 -0.1312  1.2565  0.2680
   45CHL1   C22 3312   3.978   2.405   3.736  0.6723  0.1424  0.6985
   45CHL1  H22A 3313   4.011   2.508   3.710  0.2099 -0.1114 -1.0469
   45CHL1  H22B 3314   3.867   2.402   3.738  0.4877  3.5042  2.8161
   45CHL1   C23 3315   4.030   2.376   3.872  0.8022 -1.1449  0.5356
   45CHL1  H23A 3316   3.998   2.275   3.904  0.7119 -0.9487  1.0696
   45CHL1  H23B 3317   4.140   2.378   3.857  0.8027  0.7827  0.4588
   45CHL1   C24 3318   3.994   2.478   3.985 -0.6693  0.4007  0.1706
   45CHL1  H24A 3319   4.031   2.579   3.956 -1.0092  0.5393  0.2164
   45CHL1  H24B 3320   3.883   2.486   3.990 -0.5973  1.7814 -0.1269
   45CHL1   C25 3321   4.054   2.452   4.117 -0.2770  0.9244 -0.0253
   45CHL1   H25 3322   4.002   2.365   4.163  1.7773 -0.3827 -0.0915
   45CHL1   C26 3323   4.201   2.427   4.111 -0.8214  0.1930  0.0845
   45CHL1  H26A 3324   4.248   2.492   4.035  0.3483 -2.1387 -1.3173
   45CHL1  H26B 3325   4.250   2.447   4.209  0.0625  2.8165 -0.8121
   45CHL1  H26C 3326   4.221   2.319   4.091  2.3191  0.9769 -1.6121
   45CHL1   C27 3327   4.018   2.571   4.206  0.2760 -0.1804 -0.3121
   45CHL1  H27A 3328   4.041   2.540   4.310  0.4288  0.0221 -0.2849
   45CHL1  H27B 3329   4.076   2.662   4.180 -0.4506  0.4961  0.3568
   45CHL1  H27C 3330   3.912   2.603   4.197  0.0910 -0.7158 -0.0794
   46CHL1    C3 3331   0.503   2.850   3.052  0.7174 -0.0270 -0.8351
   46CHL1    H3 3332   0.464   2.747   3.064  0.8593  0.0306  0.2286
   46CHL1    O3 3333   0.491   2.904   2.922  0.1859  0.2981  0.6509
   46CHL1   H3' 3334   0.532   2.990   2.929  0.4854  0.1615  0.5816
   46CHL1    C4 3335   0.426   2.945   3.157 -0.6156 -0.4404  0.0902
   46CHL1   H4A 3336   0.458   3.050   3.145 -1.8275  0.1359  1.5512
   46CHL1   H4B 3337   0.317   2.955   3.141 -0.7625 -0.3890  1.0933
   46CHL1    C5 3338   0.454   2.921   3.305 -0.2851  0.3226  0.7404
   46CHL1    C6 3339   0.355   2.910   3.395 -0.0151 -0.2847 -0.2285
   46CHL1    H6 3340   0.256   2.906   3.348  0.6428 -1.0921 -1.6308
   46CHL1    C7 3341   0.384   2.887   3.543 -0.0812  0.2332 -0.2889
   46CHL1   H7A 3342   0.316   2.942   3.612 -2.7318 -0.5421 -2.1347
   46CHL1   H7B 3343   0.374   2.778   3.560 -2.3049  0.6460  1.6974
   46CHL1    C8 3344   0.529   2.924   3.582 -0.0237 -0.2934  0.0625
   46CHL1    H8 3345   0.531   3.034   3.569 -0.4144 -0.5610 -3.1189
   46CHL1   C14 3346   0.553   2.885   3.729 -0.2241  0.2541 -0.0593
   46CHL1   H14 3347   0.539   2.775   3.731  1.6232 -0.0476 -0.9243
   46CHL1   C15 3348   0.466   2.951   3.836  0.0485 -0.6880 -0.5515
   46CHL1  H15A 3349   0.451   3.060   3.822 -0.9372 -0.7273  0.0829
   46CHL1  H15B 3350   0.362   2.913   3.827 -0.8761  1.1739  1.3402
   46CHL1   C16 3351   0.539   2.932   3.971 -0.2014  0.1098  0.3671
   46CHL1  H16A 3352   0.540   3.027   4.029 -2.5737 -1.2813  2.9257
   46CHL1  H16B 3353   0.493   2.848   4.028  3.4463 -1.9818  0.5786
   46CHL1   C17 3354   0.678   2.876   3.930 -0.0518 -0.2953  0.9718
   46CHL1   H17 3355   0.669   2.765   3.925  1.1161 -0.5625  3.3652
   46CHL1   C13 3356   0.693   2.915   3.777 -0.4805  0.1732  0.1796
   46CHL1   C18 3357   0.733   3.065   3.764 -0.7547  0.0779 -0.6225
   46CHL1  H18A 3358   0.667   3.127   3.828  0.9793  0.9166  0.4463
   46CHL1  H18B 3359   0.841   3.076   3.788  0.1165  1.8823 -4.5140
   46CHL1  H18C 3360   0.732   3.113   3.664 -0.0158  1.3886 -0.0345
   46CHL1   C12 3361   0.798   2.832   3.702 -0.5219 -0.5020 -0.3037
   46CHL1  H12A 3362   0.898   2.864   3.739 -0.8101  1.3750 -1.0528
   46CHL1  H12B 3363   0.792   2.725   3.733 -1.6850 -0.4251 -0.2517
   46CHL1   C11 3364   0.777   2.854   3.550 -0.1499 -0.4393  0.3225
   46CHL1  H11A 3365   0.818   2.956   3.534 -1.0580 -0.3225 -1.6465
   46CHL1  H11B 3366   0.848   2.778   3.509  1.3121 -1.4013  4.2243
   46CHL1    C9 3367   0.633   2.855   3.495  0.1922  0.2756 -0.2805
   46CHL1    H9 3368   0.603   2.748   3.497 -1.0074  0.5678 -1.2251
   46CHL1   C10 3369   0.605   2.905   3.342 -0.2318 -0.0014 -0.3647
   46CHL1   C19 3370   0.669   3.043   3.319 -0.8060  0.0825  0.4242
   46CHL1  H19A 3371   0.675   3.072   3.212  0.3426 -0.3876  0.3493
   46CHL1  H19B 3372   0.612   3.117   3.379  0.1750  0.1412  1.3172
   46CHL1  H19C 3373   0.771   3.051   3.362 -0.7983 -1.9383  0.9029
   46CHL1    C1 3374   0.671   2.810   3.247 -0.2326  0.6463  0.4853
   46CHL1   H1A 3375   0.772   2.779   3.281 -0.1110 -0.8668 -1.0971
   46CHL1   H1B 3376   0.628   2.708   3.261  0.5741 -0.0961 -2.0100
   46CHL1    C2 3377   0.654   2.836   3.092  0.5704  0.0808  1.0045
   46CHL1   H2A 3378   0.703   2.764   3.023 -3.1900  0.0836 -1.9685
   46CHL1   H2B 3379   0.696   2.938   3.082  0.6020  0.1268  1.6013
   46CHL1   C20 3380   0.810   2.899   4.013 -0.0036 -0.1414 -0.1037
   46CHL1   H20 3381   0.896   2.914   3.943 -0.7390  1.8068 -0.6566
   46CHL1   C21 3382   0.824   2.771   4.095 -0.4821 -0.0165 -0.5811
   46CHL1  H21A 3383   0.920   2.794   4.144 -1.5665  1.2279  1.0528
   46CHL1  H21B 3384   0.828   2.672   4.044 -1.2838 -0.8560  0.9274
   46CHL1  H21C 3385   0.748   2.769   4.176  1.3131  2.1789  1.2979
   46CHL1   C22 3386   0.806   3.020   4.108 -0.8107  0.2618 -1.4596
   46CHL1  H22A 3387   0.764   3.100   4.043  0.3957  1.1895 -1.1222
   46CHL1  H22B 3388   0.739   2.996   4.193  1.5631 -0.9712  0.1596
   46CHL1   C23 3389   0.942   3.065   4.156 -0.6881 -0.1338  0.2363
   46CHL1  H23A 3390   0.985   2.988   4.223  0.4846  0.7519  0.5438
   46CHL1  H23B 3391   1.009   3.077   4.068  0.7336 -0.8175  1.1722
   46CHL1   C24 3392   0.935   3.196   4.242 -0.0128  0.4140  0.3815
   46CHL1  H24A 3393   0.912   3.277   4.170 -1.5732 -1.0753 -0.8786
   46CHL1  H24B 3394   0.857   3.205   4.321  1.2953 -0.7308  1.8638
   46CHL1   C25 3395   1.067   3.247   4.304 -0.0475 -0.9864 -0.1624
   46CHL1   H25 3396   1.142   3.251   4.222  1.1058  1.3076  0.9016
   46CHL1   C26 3397   1.062   3.392   4.345  0.0860 -0.2788 -0.4599
   46CHL1  H26A 3398   1.013   3.415   4.442 -0.1353  1.7923 -1.0261
   46CHL1  H26B 3399   1.163   3.439   4.351  1.0642 -2.2247 -0.8720
   46CHL1  H26C 3400   1.011   3.450   4.266  0.6135  0.0727 -0.5529
   46CHL1   C27 3401   1.117   3.153   4.416  0.5283  0.0231 -0.3359
   46CHL1  H27A 3402   1.048   3.148   4.502  2.0182 -0.1658  0.9065
   46CHL1  H27B 3403   1.133   3.050   4.378 -1.5284  0.0457 -1.4124
   46CHL1  H27C 3404   1.206   3.190   4.472  0.4899  0.2185 -0.4020
   47CHL1    C3 3405   5.055   3.829   2.942  0.0343  1.0017  0.2628
   47CHL1    H3 3406   5.125   3.754   2.985 -1.3979 -1.7239 -1.8377
   47CHL1    O3 3407   5.057   3.812   2.805  0.0877 -0.1994 -0.1814
   47CHL1   H3' 3408   5.144   3.825   2.766  0.0625 -0.3613 -0.2945
   47CHL1    C4 3409   4.909   3.822   2.987  0.3788 -0.4486 -0.3469
   47CHL1   H4A 3410   4.844   3.889   2.928  0.6792 -0.9981 -1.3250
   47CHL1   H4B 3411   4.871   3.720   2.964 -0.0375 -0.1856 -0.8229
   47CHL1    C5 3412   4.906   3.857   3.135 -0.3563  0.4668 -0.2489
   47CHL1    C6 3413   4.851   3.767   3.228 -0.0237 -0.4722  0.6727
   47CHL1    H6 3414   4.820   3.668   3.193  0.8318 -0.0466 -1.5220
   47CHL1    C7 3415   4.840   3.801   3.373  0.2593  1.1139  0.6728
   47CHL1   H7A 3416   4.736   3.788   3.409  0.0359  0.1030 -0.2738
   47CHL1   H7B 3417   4.904   3.733   3.433  0.7768 -0.9601 -2.0489
   47CHL1    C8 3418   4.873   3.951   3.410  0.5619 -0.3637 -0.0656
   47CHL1    H8 3419   4.783   4.011   3.386  1.6954  0.8716 -1.3760
   47CHL1   C14 3420   4.902   3.967   3.564  0.3573 -0.3190 -0.4502
   47CHL1   H14 3421   4.993   3.905   3.582  1.3621  0.8256 -1.4367
   47CHL1   C15 3422   4.804   3.901   3.665  0.2810  0.6571  0.0799
   47CHL1  H15A 3423   4.702   3.914   3.624 -0.2986 -0.5529  1.0854
   47CHL1  H15B 3424   4.816   3.791   3.675 -0.1616  0.6168  0.2009
   47CHL1   C16 3425   4.837   3.975   3.795 -0.2366 -0.0390  0.3226
   47CHL1  H16A 3426   4.743   4.020   3.834  0.1371  0.9299  0.1126
   47CHL1  H16B 3427   4.876   3.898   3.865  0.9757  0.7562  0.5579
   47CHL1   C17 3428   4.963   4.075   3.764  0.6942  0.0044  0.6418
   47CHL1   H17 3429   5.062   4.027   3.773  1.4631  1.3811 -0.1282
   47CHL1   C13 3430   4.941   4.105   3.615  0.6407  0.1306  0.0961
   47CHL1   C18 3431   4.825   4.201   3.594 -0.0465  1.1316 -0.4214
   47CHL1  H18A 3432   4.736   4.171   3.654  0.2918 -0.7433 -0.8182
   47CHL1  H18B 3433   4.864   4.302   3.622  2.1307 -0.1657  1.6577
   47CHL1  H18C 3434   4.792   4.206   3.488  1.8682  1.8048 -1.0264
   47CHL1   C12 3435   5.062   4.145   3.534 -0.2761  0.2339  0.3623
   47CHL1  H12A 3436   5.093   4.250   3.552  1.5367 -0.3430  0.7942
   47CHL1  H12B 3437   5.148   4.080   3.563  0.1317  0.3627 -0.5182
   47CHL1   C11 3438   5.034   4.140   3.388  0.5347 -0.1602  0.1456
   47CHL1  H11A 3439   4.964   4.219   3.356  0.7897 -0.3726 -0.9916
   47CHL1  H11B 3440   5.128   4.160   3.331  0.5522 -2.6014 -0.8232
   47CHL1    C9 3441   4.991   3.999   3.334  0.3320  0.6154 -0.0283
   47CHL1    H9 3442   5.073   3.927   3.352 -0.8496 -1.0772 -1.1019
   47CHL1   C10 3443   4.964   3.993   3.183 -0.0343 -0.1034 -0.0306
   47CHL1   C19 3444   4.869   4.107   3.143  0.0370  0.3502 -0.0890
   47CHL1  H19A 3445   4.847   4.096   3.034 -1.5550 -0.4680  0.2780
   47CHL1  H19B 3446   4.777   4.114   3.205  1.3966  0.8803  1.9465
   47CHL1  H19C 3447   4.923   4.204   3.147  0.3951  0.2478 -1.7048
   47CHL1    C1 3448   5.112   4.008   3.115  0.1685  0.7311  0.1676
   47CHL1   H1A 3449   5.150   4.111   3.130  1.1524  0.4770 -0.4516
   47CHL1   H1B 3450   5.186   3.943   3.165 -0.7672 -0.1798  0.4116
   47CHL1    C2 3451   5.111   3.967   2.964  0.1796 -0.0225 -0.1123
   47CHL1   H2A 3452   5.217   3.977   2.932  0.1784 -2.6751 -1.2311
   47CHL1   H2B 3453   5.045   4.033   2.904 -1.2323  1.2870  2.7021
   47CHL1   C20 3454   4.956   4.189   3.871  0.1443  0.4976  0.3149
   47CHL1   H20 3455   4.855   4.235   3.861 -0.8831 -1.7275 -0.3225
   47CHL1   C21 3456   5.078   4.281   3.844  0.2796 -0.0453 -0.7200
   47CHL1  H21A 3457   5.173   4.225   3.837  0.9385  1.0792 -0.8868
   47CHL1  H21B 3458   5.081   4.339   3.938 -2.1544 -0.2835 -0.4268
   47CHL1  H21C 3459   5.061   4.347   3.756 -0.1305  0.2362 -0.4342
   47CHL1   C22 3460   4.965   4.127   4.012 -0.4553 -0.0151  0.1134
   47CHL1  H22A 3461   4.868   4.077   4.033 -0.3690  0.2719  1.3175
   47CHL1  H22B 3462   5.039   4.045   4.012 -1.7366 -1.2207 -1.4923
   47CHL1   C23 3463   4.975   4.221   4.137  0.6332 -0.0135  0.4630
   47CHL1  H23A 3464   5.054   4.295   4.112  3.2269 -2.3832  1.1634
   47CHL1  H23B 3465   4.878   4.272   4.151 -0.0561 -1.7749  2.8742
   47CHL1   C24 3466   4.996   4.129   4.257 -0.3839 -1.6559  0.2838
   47CHL1  H24A 3467   4.920   4.050   4.238  0.2230 -2.3047  0.5352
   47CHL1  H24B 3468   5.095   4.085   4.282  0.4189  0.4983  1.1509
   47CHL1   C25 3469   4.957   4.196   4.386 -0.3575  0.4156  0.8575
   47CHL1   H25 3470   4.851   4.229   4.385 -0.7503 -0.7952  0.8918
   47CHL1   C26 3471   4.952   4.092   4.497 -0.2831 -0.3714  0.1120
   47CHL1  H26A 3472   5.056   4.072   4.531  0.5086 -0.4957 -2.1693
   47CHL1  H26B 3473   4.896   4.127   4.586  1.1971 -2.0622  1.7845
   47CHL1  H26C 3474   4.907   3.997   4.462 -0.7839  0.5648 -1.9569
   47CHL1   C27 3475   5.041   4.316   4.430 -0.2320 -0.3420  0.1372
   47CHL1  H27A 3476   4.994   4.351   4.525  0.5025 -1.5151  0.9713
   47CHL1  H27B 3477   5.149   4.297   4.447 -0.4633 -1.4310  0.4600
   47CHL1  H27C 3478   5.044   4.403   4.361  1.7558 -1.0658 -0.7358
   48CHL1    C3 3479   2.126   1.516   3.043 -0.3047  0.3675  0.0877
   48CHL1    H3 3480   2.185   1.422   3.041 -0.8996 -0.0086 -0.2376
   48CHL1    O3 3481   2.083   1.548   2.912  0.4060  0.0387  0.6826
   48CHL1   H3' 3482   2.043   1.634   2.927  0.6688  0.3525 -0.2845
   48CHL1    C4 3483   2.003   1.504   3.137 -0.1440 -0.1406  0.0001
   48CHL1   H4A 3484   1.949   1.601   3.134  1.3919  0.7417 -0.2767
   48CHL1   H4B 3485   1.943   1.423   3.090  2.3228 -1.0025 -1.8445
   48CHL1    C5 3486   2.041   1.476   3.282 -0.4304 -0.5358  0.5690
   48CHL1    C6 3487   1.991   1.370   3.351 -0.5408  0.0286 -0.4024
   48CHL1    H6 3488   1.913   1.306   3.309  0.4120 -1.7821  0.4698
   48CHL1    C7 3489   2.040   1.329   3.490  0.4208  0.0998  0.6147
   48CHL1   H7A 3490   1.951   1.290   3.545 -1.1128  2.7215  0.2063
   48CHL1   H7B 3491   2.119   1.253   3.478 -1.1936 -1.2782 -2.3068
   48CHL1    C8 3492   2.095   1.455   3.567  0.2195 -0.4514  0.7567
   48CHL1    H8 3493   2.007   1.521   3.581  0.2894 -0.2090  0.0596
   48CHL1   C14 3494   2.148   1.408   3.701 -0.5041  0.3877  0.6753
   48CHL1   H14 3495   2.235   1.345   3.675  0.1117  0.8566  1.5673
   48CHL1   C15 3496   2.051   1.331   3.795  0.3006  0.5487 -0.6609
   48CHL1  H15A 3497   1.947   1.368   3.788  0.3508  1.1020  1.2298
   48CHL1  H15B 3498   2.057   1.225   3.762  0.5954  1.3240 -3.3516
   48CHL1   C16 3499   2.103   1.361   3.933 -0.3973 -0.1926 -0.9542
   48CHL1  H16A 3500   2.026   1.419   3.989 -0.0503  1.3603 -1.9922
   48CHL1  H16B 3501   2.124   1.269   3.991  1.5534 -0.6078 -2.2356
   48CHL1   C17 3502   2.230   1.453   3.919  0.2318 -0.2760  0.4745
   48CHL1   H17 3503   2.319   1.392   3.895  0.5243 -0.0521  0.9852
   48CHL1   C13 3504   2.208   1.521   3.779  0.2445 -0.6570  0.4551
   48CHL1   C18 3505   2.093   1.629   3.803  1.0064  0.4140 -0.2520
   48CHL1  H18A 3506   2.001   1.598   3.857  1.3182 -0.7095 -0.3311
   48CHL1  H18B 3507   2.123   1.716   3.866  1.0266  0.9760 -1.0219
   48CHL1  H18C 3508   2.063   1.670   3.705  0.7488  0.1763 -0.2765
   48CHL1   C12 3509   2.326   1.581   3.694 -0.4962 -1.0761  0.8738
   48CHL1  H12A 3510   2.375   1.665   3.748 -1.8570 -0.1812  0.7792
   48CHL1  H12B 3511   2.391   1.496   3.665  2.4559  0.8603  1.3848
   48CHL1   C11 3512   2.281   1.637   3.556  0.3472 -0.0041 -0.5572
   48CHL1  H11A 3513   2.210   1.721   3.570  0.4131  0.4172 -2.4766
   48CHL1  H11B 3514   2.372   1.674   3.504  0.3583 -0.0210 -0.5497
   48CHL1    C9 3515   2.203   1.527   3.476  0.4841 -0.0119  0.0050
   48CHL1    H9 3516   2.275   1.444   3.456 -1.1277 -1.3160 -0.6530
   48CHL1   C10 3517   2.147   1.569   3.336 -0.4973  0.0619 -0.4850
   48CHL1   C19 3518   2.073   1.708   3.350  0.1697  0.1808 -0.3912
   48CHL1  H19A 3519   2.028   1.745   3.256  2.3759  1.5566 -0.9700
   48CHL1  H19B 3520   1.995   1.692   3.429 -1.3627 -0.4974 -1.9751
   48CHL1  H19C 3521   2.145   1.785   3.385 -0.8052  0.8065  0.2988
   48CHL1    C1 3522   2.265   1.580   3.226 -0.2914 -0.6327 -0.3619
   48CHL1   H1A 3523   2.345   1.649   3.261  1.1640 -2.3235 -0.2436
   48CHL1   H1B 3524   2.308   1.478   3.226 -0.9714 -0.9646  1.9339
   48CHL1    C2 3525   2.220   1.625   3.092 -0.3394  0.5124  0.7473
   48CHL1   H2A 3526   2.308   1.636   3.025 -0.3980 -1.2381  0.3434
   48CHL1   H2B 3527   2.156   1.716   3.083  0.3239  0.7731 -2.9103
   48CHL1   C20 3528   2.264   1.541   4.047  0.2432 -0.7244  0.3673
   48CHL1   H20 3529   2.183   1.614   4.069 -2.7126 -3.3502 -0.9200
   48CHL1   C21 3530   2.395   1.621   4.013  0.0256  0.1987  0.0308
   48CHL1  H21A 3531   2.456   1.571   3.935 -1.1630 -0.5460 -0.4436
   48CHL1  H21B 3532   2.458   1.633   4.104  0.1995 -1.3720  0.1350
   48CHL1  H21C 3533   2.364   1.720   3.972 -2.4395  0.5737  2.4774
   48CHL1   C22 3534   2.272   1.458   4.174 -0.9149  0.1805  0.0634
   48CHL1  H22A 3535   2.189   1.387   4.192 -0.5596 -0.5195 -0.9828
   48CHL1  H22B 3536   2.363   1.395   4.163 -1.7185 -0.9347 -0.3753
   48CHL1   C23 3537   2.306   1.540   4.308  0.3923 -0.0936  0.3952
   48CHL1  H23A 3538   2.395   1.606   4.301 -0.6707  1.2968 -0.6524
   48CHL1  H23B 3539   2.222   1.612   4.321 -1.4272 -2.0126 -0.0094
   48CHL1   C24 3540   2.309   1.444   4.428 -0.2003 -0.4520  0.2116
   48CHL1  H24A 3541   2.217   1.382   4.437 -0.1933 -0.2676  1.8170
   48CHL1  H24B 3542   2.401   1.382   4.424  0.9738  1.2015  0.6432
   48CHL1   C25 3543   2.322   1.520   4.564  0.3131  0.2615 -0.0368
   48CHL1   H25 3544   2.234   1.586   4.579 -0.9978 -1.4747  0.2083
   48CHL1   C26 3545   2.291   1.424   4.687 -0.2473  0.0396  0.6449
   48CHL1  H26A 3546   2.298   1.468   4.789 -1.3630 -0.3864  0.9265
   48CHL1  H26B 3547   2.191   1.386   4.655 -0.2010  0.3844  0.0627
   48CHL1  H26C 3548   2.358   1.336   4.689  1.5711  1.3846  1.0745
   48CHL1   C27 3549   2.456   1.595   4.580 -0.1539  0.5159  0.4954
   48CHL1  H27A 3550   2.472   1.625   4.686 -1.4100  1.0293  0.5582
   48CHL1  H27B 3551   2.535   1.530   4.537 -0.4685  1.6608 -1.9642
   48CHL1  H27C 3552   2.469   1.684   4.515  0.9994 -0.7531 -1.0793
   49CHL1    C3 3553   4.277   3.068   3.056 -0.7020 -0.4898 -0.1178
   49CHL1    H3 3554   4.366   3.001   3.062 -1.3356 -1.2163  2.1720
   49CHL1    O3 3555   4.247   3.108   2.923 -0.2140 -0.0158 -0.4104
   49CHL1   H3' 3556   4.160   3.148   2.918 -1.0733 -1.7365 -0.1306
   49CHL1    C4 3557   4.155   2.992   3.112  0.5953  0.4508 -1.3735
   49CHL1   H4A 3558   4.067   3.055   3.085  2.0553  2.7853 -0.9089
   49CHL1   H4B 3559   4.145   2.899   3.051  0.3577 -0.2913 -0.2464
   49CHL1    C5 3560   4.155   2.971   3.262  0.2122 -0.0278  0.1554
   49CHL1    C6 3561   4.132   2.850   3.320 -0.6712  0.2950  0.3378
   49CHL1    H6 3562   4.130   2.757   3.261 -1.9676 -0.7133  1.8506
   49CHL1    C7 3563   4.092   2.841   3.464 -0.9162 -0.1182 -0.1647
   49CHL1   H7A 3564   4.009   2.768   3.477  0.8392 -1.9043  1.9291
   49CHL1   H7B 3565   4.177   2.792   3.516 -1.4399 -0.3884  0.4492
   49CHL1    C8 3566   4.069   2.977   3.541 -0.4521  0.5736  0.4799
   49CHL1    H8 3567   3.967   3.014   3.518 -1.2447 -2.4787 -1.4938
   49CHL1   C14 3568   4.087   2.955   3.688 -0.0702  0.3318  0.5739
   49CHL1   H14 3569   4.192   2.924   3.707  0.5413  1.8220 -0.2606
   49CHL1   C15 3570   4.004   2.840   3.753  0.5267 -0.5975 -0.1860
   49CHL1  H15A 3571   3.904   2.827   3.706  0.3361 -2.3407  0.6481
   49CHL1  H15B 3572   4.060   2.746   3.742 -2.5975 -2.6755  0.2830
   49CHL1   C16 3573   3.994   2.885   3.902 -0.3337  0.7902  0.4949
   49CHL1  H16A 3574   3.894   2.921   3.937 -0.1304  1.6816  0.1905
   49CHL1  H16B 3575   4.044   2.802   3.955  0.5972 -1.5361 -3.5995
   49CHL1   C17 3576   4.069   3.021   3.909  0.1897  0.3576 -0.1223
   49CHL1   H17 3577   4.176   2.999   3.931  0.4530  0.2332 -1.4494
   49CHL1   C13 3578   4.068   3.080   3.768  1.0425  0.3426  0.0539
   49CHL1   C18 3579   3.927   3.137   3.749 -0.5638  0.0423  0.1976
   49CHL1  H18A 3580   3.902   3.166   3.644 -0.4061 -0.8345 -0.0904
   49CHL1  H18B 3581   3.850   3.069   3.792 -0.4904  0.0998  0.4205
   49CHL1  H18C 3582   3.917   3.230   3.808  1.0314  1.0974 -1.1094
   49CHL1   C12 3583   4.165   3.190   3.726 -0.3436 -0.1141 -0.7674
   49CHL1  H12A 3584   4.143   3.279   3.788  0.1796 -1.2380  1.1032
   49CHL1  H12B 3585   4.266   3.155   3.754  0.1902  0.3719 -1.9976
   49CHL1   C11 3586   4.159   3.222   3.573  0.1411  0.3603 -0.3858
   49CHL1  H11A 3587   4.069   3.280   3.544  0.4048  0.3791 -1.1905
   49CHL1  H11B 3588   4.242   3.293   3.552  0.9540 -0.4813 -0.1077
   49CHL1    C9 3589   4.165   3.091   3.491 -0.4468  0.4899  0.2356
   49CHL1    H9 3590   4.262   3.047   3.522 -0.1449  0.4801 -0.6926
   49CHL1   C10 3591   4.169   3.105   3.337  0.2232 -1.1062  0.7042
   49CHL1   C19 3592   4.054   3.200   3.297 -0.7587  0.3513  0.3458
   49CHL1  H19A 3593   4.083   3.303   3.327  1.9464 -0.0947 -0.4861
   49CHL1  H19B 3594   4.034   3.217   3.189  3.5617 -0.3514 -0.7578
   49CHL1  H19C 3595   3.959   3.165   3.342  0.4890 -2.3837  1.0504
   49CHL1    C1 3596   4.298   3.171   3.293  0.1503 -0.1953 -0.5840
   49CHL1   H1A 3597   4.305   3.269   3.346 -1.8898 -0.2719 -0.0745
   49CHL1   H1B 3598   4.375   3.100   3.329 -0.1903 -1.0901 -1.5849
   49CHL1    C2 3599   4.304   3.192   3.140  0.4794  0.2694  0.2753
   49CHL1   H2A 3600   4.407   3.228   3.117  1.5707 -1.2860  2.4420
   49CHL1   H2B 3601   4.227   3.267   3.112  0.4773 -0.3256 -1.4163
   49CHL1   C20 3602   4.006   3.102   4.025  0.2855  0.0029 -0.3782
   49CHL1   H20 3603   3.900   3.130   4.008  0.4101  2.2601  1.9981
   49CHL1   C21 3604   4.073   3.239   4.044  0.1383  0.4749 -0.8056
   49CHL1  H21A 3605   4.031   3.314   3.973 -1.7113 -0.2021 -0.4670
   49CHL1  H21B 3606   4.180   3.218   4.021 -0.0818 -0.7860 -0.7351
   49CHL1  H21C 3607   4.053   3.281   4.144 -0.2655  0.8609 -1.0432
   49CHL1   C22 3608   4.008   3.024   4.167  0.5097 -0.2288  0.1636
   49CHL1  H22A 3609   4.001   2.914   4.154  3.8686 -0.7350  1.6081
   49CHL1  H22B 3610   4.108   3.032   4.213  1.7019 -0.8974 -2.1786
   49CHL1   C23 3611   3.896   3.061   4.270 -0.7409 -0.0072 -0.7628
   49CHL1  H23A 3612   3.914   3.169   4.288  3.4663 -0.8700  1.5289
   49CHL1  H23B 3613   3.793   3.048   4.230 -0.4798 -1.6894 -0.9563
   49CHL1   C24 3614   3.895   2.980   4.411  0.1127  0.0860  0.5808
   49CHL1  H24A 3615   3.879   2.872   4.390  1.3031 -0.1402  0.7784
   49CHL1  H24B 3616   3.994   2.982   4.460  0.6979 -0.0964 -0.5519
   49CHL1   C25 3617   3.785   3.020   4.507 -1.1764 -0.8231  0.3600
   49CHL1   H25 3618   3.683   3.018   4.464 -1.3559 -1.4673  0.8020
   49CHL1   C26 3619   3.796   2.943   4.639 -0.3395 -0.6120  0.1448
   49CHL1  H26A 3620   3.890   2.956   4.697 -1.3423  3.2281  1.2242
   49CHL1  H26B 3621   3.721   2.972   4.715  1.3084 -0.7044  1.9071
   49CHL1  H26C 3622   3.793   2.834   4.616 -0.4419  0.0156 -3.3865
   49CHL1   C27 3623   3.810   3.168   4.546 -0.0298  0.7115 -0.1463
   49CHL1  H27A 3624   3.755   3.223   4.467 -4.6711 -1.1781  1.4386
   49CHL1  H27B 3625   3.781   3.183   4.653  1.3405 -0.4472  0.4259
   49CHL1  H27C 3626   3.918   3.191   4.560  0.8599 -3.0878  0.3288
   50CHL1    C3 3627   2.599   4.056   2.809 -0.7871  0.1830 -0.6750
   50CHL1    H3 3628   2.706   4.040   2.832 -0.2235 -0.2975 -3.3217
   50CHL1    O3 3629   2.612   4.056   2.666 -0.8827  0.5695 -0.2275
   50CHL1   H3' 3630   2.524   4.077   2.636 -0.9450 -1.4073 -1.6662
   50CHL1    C4 3631   2.531   3.932   2.877  0.7280 -0.4728 -0.4337
   50CHL1   H4A 3632   2.424   3.930   2.846  0.7068  1.0552 -0.5024
   50CHL1   H4B 3633   2.590   3.847   2.835  1.1444 -0.7852  0.7504
   50CHL1    C5 3634   2.542   3.931   3.027 -0.1193 -0.0242  0.0438
   50CHL1    C6 3635   2.578   3.822   3.103 -0.7567 -0.6622  0.4399
   50CHL1    H6 3636   2.608   3.734   3.044  2.1540  1.0039 -0.7994
   50CHL1    C7 3637   2.614   3.831   3.248  0.3296  0.2349 -0.3916
   50CHL1   H7A 3638   2.593   3.734   3.298 -0.3933 -0.0364 -1.1925
   50CHL1   H7B 3639   2.719   3.859   3.269 -0.1778  2.1250 -0.2454
   50CHL1    C8 3640   2.523   3.936   3.320 -1.3760 -0.0385 -0.8646
   50CHL1    H8 3641   2.415   3.915   3.304 -1.6686  0.6876  0.0673
   50CHL1   C14 3642   2.560   3.953   3.464 -0.2227  0.6975  0.3247
   50CHL1   H14 3643   2.665   3.986   3.471  1.1238 -3.0215 -0.1678
   50CHL1   C15 3644   2.562   3.823   3.557 -0.6955 -0.3878 -0.3045
   50CHL1  H15A 3645   2.503   3.734   3.526 -0.2146 -0.2898 -1.5975
   50CHL1  H15B 3646   2.667   3.789   3.573 -0.7159 -1.9995 -2.9594
   50CHL1   C16 3647   2.516   3.878   3.692  0.3181 -0.3867 -1.0912
   50CHL1  H16A 3648   2.417   3.835   3.714  1.1893 -2.7174 -1.4927
   50CHL1  H16B 3649   2.586   3.862   3.777  0.8388  2.9707 -0.7216
   50CHL1   C17 3650   2.515   4.036   3.681 -0.7078 -0.2468 -0.3781
   50CHL1   H17 3651   2.620   4.071   3.683 -0.4585 -0.9412 -0.9532
   50CHL1   C13 3652   2.471   4.056   3.538  0.7551 -0.6030  0.3895
   50CHL1   C18 3653   2.320   4.013   3.528  0.1975 -0.4185  0.0248
   50CHL1  H18A 3654   2.249   4.071   3.591  0.0444 -1.8761  1.2372
   50CHL1  H18B 3655   2.294   4.022   3.420  0.1827 -0.6827  0.0068
   50CHL1  H18C 3656   2.295   3.909   3.556 -0.4950  0.2891  2.2082
   50CHL1   C12 3657   2.512   4.195   3.475  0.0117  0.7095 -0.1023
   50CHL1  H12A 3658   2.446   4.271   3.523  0.6666 -0.4280  2.7701
   50CHL1  H12B 3659   2.618   4.222   3.494 -0.9421  2.3633  3.9477
   50CHL1   C11 3660   2.484   4.195   3.322  0.0212 -0.4041 -0.3960
   50CHL1  H11A 3661   2.373   4.190   3.322 -0.0378 -0.9509  2.9580
   50CHL1  H11B 3662   2.513   4.296   3.287  1.8080 -1.5394 -2.4407
   50CHL1    C9 3663   2.542   4.073   3.246  0.2302 -0.0972 -0.0668
   50CHL1    H9 3664   2.649   4.103   3.258  0.5552  0.2778 -3.1194
   50CHL1   C10 3665   2.513   4.069   3.097  0.5241  0.0461  0.0878
   50CHL1   C19 3666   2.360   4.088   3.080  0.2161 -0.0712 -0.1408
   50CHL1  H19A 3667   2.327   4.085   2.974 -2.2710 -1.9168  0.6122
   50CHL1  H19B 3668   2.300   4.007   3.126  2.1540 -1.5164 -0.0142
   50CHL1  H19C 3669   2.334   4.187   3.125  1.5220  1.1031 -1.8009
   50CHL1    C1 3670   2.574   4.193   3.021  0.1916 -0.3666  0.1827
   50CHL1   H1A 3671   2.531   4.285   3.064  0.8379 -0.1337  0.3402
   50CHL1   H1B 3672   2.682   4.185   3.046  0.5508  0.9143 -0.8507
   50CHL1    C2 3673   2.568   4.196   2.863  0.1333 -0.3080 -0.6967
   50CHL1   H2A 3674   2.648   4.269   2.838 -0.5692  0.5590 -0.4704
   50CHL1   H2B 3675   2.466   4.233   2.837 -0.2079 -1.1645 -0.6231
   50CHL1   C20 3676   2.439   4.102   3.799  0.0249  0.5588  1.1846
   50CHL1   H20 3677   2.344   4.046   3.789  0.3770  0.0486  0.5890
   50CHL1   C21 3678   2.414   4.258   3.796  0.0483  0.0028 -0.1486
   50CHL1  H21A 3679   2.367   4.299   3.704  0.6348 -4.6217 -2.8511
   50CHL1  H21B 3680   2.513   4.307   3.809  0.0870  0.1765 -1.0737
   50CHL1  H21C 3681   2.350   4.277   3.885 -1.0727  2.5216 -1.4008
   50CHL1   C22 3682   2.496   4.061   3.942 -0.3503 -0.6240 -0.7149
   50CHL1  H22A 3683   2.524   3.955   3.958 -1.1651 -0.6508  0.6713
   50CHL1  H22B 3684   2.579   4.133   3.960 -0.5796 -0.0746 -1.7660
   50CHL1   C23 3685   2.406   4.098   4.063  0.2583 -0.1250  0.7728
   50CHL1  H23A 3686   2.386   4.207   4.076  0.0852  0.0875 -1.0518
   50CHL1  H23B 3687   2.311   4.049   4.035  0.5643  0.4413 -1.4374
   50CHL1   C24 3688   2.458   4.042   4.198 -0.5505  0.7804 -0.4976
   50CHL1  H24A 3689   2.463   3.931   4.192 -1.2796  0.2013  4.8469
   50CHL1  H24B 3690   2.560   4.077   4.224  0.0998 -1.0994 -0.4050
   50CHL1   C25 3691   2.362   4.067   4.313 -0.1246  0.2936  0.3205
   50CHL1   H25 3692   2.328   4.173   4.316  1.9085  0.9898  0.4371
   50CHL1   C26 3693   2.232   3.985   4.294 -0.2892 -0.3576 -0.4713
   50CHL1  H26A 3694   2.165   4.012   4.378  1.8784 -0.2263  1.3062
   50CHL1  H26B 3695   2.189   4.002   4.193  2.7427 -1.6634 -2.1116
   50CHL1  H26C 3696   2.269   3.880   4.293  3.5711  0.6269  4.1209
   50CHL1   C27 3697   2.418   4.037   4.446 -0.3110  0.3736  0.0387
   50CHL1  H27A 3698   2.511   4.098   4.445  0.7362 -1.0933 -2.4870
   50CHL1  H27B 3699   2.350   4.084   4.520 -1.8766  1.2348 -1.8508
   50CHL1  H27C 3700   2.447   3.932   4.467  0.6419  0.5763 -0.2275
   51CHL1    C3 3701   4.975   1.350   3.010  0.1419  0.7227 -0.6717
   51CHL1    H3 3702   5.075   1.308   3.032 -0.6842 -0.8704  0.2458
   51CHL1    O3 3703   4.947   1.324   2.873  0.5858 -0.3945 -0.0242
   51CHL1   H3' 3704   4.864   1.370   2.857  0.6026  0.8676  2.9140
   51CHL1    C4 3705   4.868   1.289   3.104 -0.4491 -0.4908  0.1249
   51CHL1   H4A 3706   4.767   1.326   3.075  0.0502  1.6040  0.8788
   51CHL1   H4B 3707   4.852   1.180   3.097 -2.4817 -0.1709 -0.7985
   51CHL1    C5 3708   4.902   1.326   3.245  0.0898 -0.6413 -0.0172
   51CHL1    C6 3709   4.920   1.231   3.337 -0.4186 -0.4555  0.0605
   51CHL1    H6 3710   4.908   1.124   3.311 -0.4327 -0.4915  0.2140
   51CHL1    C7 3711   4.962   1.271   3.476  0.1109  0.0376  0.4983
   51CHL1   H7A 3712   4.900   1.208   3.543 -1.1300  2.0210  1.3261
   51CHL1   H7B 3713   5.069   1.252   3.497  0.3811  0.7295 -0.1929
   51CHL1    C8 3714   4.927   1.419   3.517 -0.1493 -0.4032  0.1987
   51CHL1    H8 3715   4.817   1.434   3.524 -0.0303 -0.0259  1.5740
   51CHL1   C14 3716   4.981   1.458   3.653 -0.2815  0.3527  0.7259
   51CHL1   H14 3717   5.091   1.454   3.638 -0.2802  2.0603 -0.0053
   51CHL1   C15 3718   4.945   1.360   3.767 -0.3829  0.1896 -0.1780
   51CHL1  H15A 3719   4.839   1.326   3.763 -1.0617  1.9559  1.4646
   51CHL1  H15B 3720   5.020   1.278   3.765  1.2776  1.6586 -1.4035
   51CHL1   C16 3721   4.974   1.440   3.898  0.3795  1.1304 -0.1756
   51CHL1  H16A 3722   4.886   1.435   3.965  0.4263  3.6781  0.1447
   51CHL1  H16B 3723   5.062   1.410   3.958 -0.2225 -0.6044 -0.0781
   51CHL1   C17 3724   5.015   1.584   3.845  0.1562  0.1348 -1.1737
   51CHL1   H17 3725   5.125   1.582   3.827  0.7554 -1.0100  1.9633
   51CHL1   C13 3726   4.955   1.600   3.705  0.6816 -0.1701  1.1674
   51CHL1   C18 3727   4.809   1.625   3.710  0.0211  0.3039  0.2126
   51CHL1  H18A 3728   4.755   1.540   3.757  0.7868  1.0641  2.6052
   51CHL1  H18B 3729   4.777   1.721   3.754 -0.4144  0.4270 -0.3571
   51CHL1  H18C 3730   4.751   1.614   3.616  1.0580 -4.6645 -0.1349
   51CHL1   C12 3731   5.017   1.701   3.599  0.2884  0.1937 -0.2185
   51CHL1  H12A 3732   5.005   1.808   3.627  2.2513  0.5646 -0.6152
   51CHL1  H12B 3733   5.126   1.684   3.613 -0.0686 -0.8847  1.6349
   51CHL1   C11 3734   4.960   1.665   3.457 -0.2979  0.5559 -0.5503
   51CHL1  H11A 3735   4.852   1.687   3.466  0.0163  1.7282  0.7470
   51CHL1  H11B 3736   4.998   1.738   3.382 -2.2734  1.0264 -1.1361
   51CHL1    C9 3737   4.976   1.517   3.413 -0.6055 -0.1151 -0.1239
   51CHL1    H9 3738   5.086   1.498   3.404 -0.3014  1.6472 -0.4438
   51CHL1   C10 3739   4.917   1.480   3.277  0.2423 -0.4678 -0.0213
   51CHL1   C19 3740   4.779   1.553   3.257 -0.3650 -0.3628  0.0039
   51CHL1  H19A 3741   4.725   1.514   3.168 -1.5684 -1.6134  1.2416
   51CHL1  H19B 3742   4.714   1.531   3.344 -0.0348 -2.3117 -0.2090
   51CHL1  H19C 3743   4.788   1.663   3.238  0.3534 -0.6419 -1.4020
   51CHL1    C1 3744   5.022   1.536   3.174 -0.2552  0.2335 -0.7267
   51CHL1   H1A 3745   5.031   1.647   3.175  0.7159  0.1656  0.1233
   51CHL1   H1B 3746   5.119   1.491   3.204 -0.8060  0.3728  1.3755
   51CHL1    C2 3747   4.984   1.502   3.030 -0.0525 -0.3257 -0.0001
   51CHL1   H2A 3748   5.060   1.538   2.957 -1.5043 -0.2849 -1.5608
   51CHL1   H2B 3749   4.884   1.542   3.003 -0.5038 -1.2106  0.3446
   51CHL1   C20 3750   4.984   1.695   3.954  0.4455 -0.4620 -0.1013
   51CHL1   H20 3751   4.877   1.723   3.950  0.1697 -1.5617 -0.9817
   51CHL1   C21 3752   5.068   1.823   3.916  0.5087 -0.0187  0.9680
   51CHL1  H21A 3753   5.063   1.909   3.986  0.2133  0.1838  0.7001
   51CHL1  H21B 3754   5.034   1.869   3.821 -1.3949  1.5279  2.3332
   51CHL1  H21C 3755   5.175   1.792   3.912  0.3593 -0.6355  1.5169
   51CHL1   C22 3756   5.014   1.664   4.100  0.2716  1.0002 -0.2540
   51CHL1  H22A 3757   4.922   1.615   4.137 -0.2575  2.9635  1.1658
   51CHL1  H22B 3758   5.103   1.597   4.105  1.9298  3.2025  2.5912
   51CHL1   C23 3759   5.057   1.768   4.201 -0.6075 -0.6586  0.2686
   51CHL1  H23A 3760   5.163   1.790   4.176 -0.9365 -0.4653 -1.0125
   51CHL1  H23B 3761   4.995   1.858   4.183 -0.4088 -0.9797 -2.3157
   51CHL1   C24 3762   5.048   1.733   4.346  0.9602  0.0503  0.0309
   51CHL1  H24A 3763   4.944   1.699   4.365  1.0824 -0.2401  0.1826
   51CHL1  H24B 3764   5.126   1.657   4.372  0.1709 -0.3261  1.3971
   51CHL1   C25 3765   5.055   1.853   4.441  0.2416 -0.1296 -0.2226
   51CHL1   H25 3766   4.983   1.929   4.406 -1.0790 -2.0419 -1.8453
   51CHL1   C26 3767   5.010   1.825   4.585  0.2733  0.5126  0.5286
   51CHL1  H26A 3768   4.899   1.818   4.588  0.2816  0.5876  2.5758
   51CHL1  H26B 3769   5.067   1.741   4.631 -0.4844 -1.4102 -1.8016
   51CHL1  H26C 3770   5.034   1.913   4.648  3.2169 -0.2684  0.6552
   51CHL1   C27 3771   5.198   1.914   4.450  0.6178 -0.6432  0.1941
   51CHL1  H27A 3772   5.195   1.990   4.531  1.6333  1.6420 -1.7831
   51CHL1  H27B 3773   5.268   1.832   4.478  1.5444 -1.6382 -4.3217
   51CHL1  H27C 3774   5.235   1.963   4.358 -0.9040 -0.4111 -0.3209
   52CHL1    C3 3775   0.843   5.034   2.821  1.6237 -0.0945  0.1683
   52CHL1    H3 3776   0.935   5.087   2.853 -0.0534  1.8309  2.1140
   52CHL1    O3 3777   0.830   5.028   2.673  0.1126  0.2334  1.1871
   52CHL1   H3' 3778   0.737   5.011   2.660 -0.1839  1.8236  0.9495
   52CHL1    C4 3779   0.859   4.893   2.883  0.2835  0.2304  0.2305
   52CHL1   H4A 3780   0.768   4.838   2.850 -1.6924  3.6177 -0.5281
   52CHL1   H4B 3781   0.945   4.838   2.839  1.2940  1.8937  0.0449
   52CHL1    C5 3782   0.863   4.893   3.032  0.4188  0.4999  0.9061
   52CHL1    C6 3783   0.972   4.846   3.098 -0.3950  0.7819 -0.2937
   52CHL1    H6 3784   1.050   4.797   3.038 -1.5172 -0.5563 -0.6926
   52CHL1    C7 3785   0.986   4.847   3.249 -0.3688 -1.1358 -0.4244
   52CHL1   H7A 3786   1.002   4.742   3.281 -2.0049 -1.8348 -1.7017
   52CHL1   H7B 3787   1.081   4.904   3.258 -1.0868  0.6053 -2.6978
   52CHL1    C8 3788   0.870   4.906   3.332 -0.0661 -0.7380  0.0122
   52CHL1    H8 3789   0.793   4.828   3.349 -2.4121  1.7004  1.2756
   52CHL1   C14 3790   0.921   4.956   3.468  0.0840 -0.2546 -0.4732
   52CHL1   H14 3791   0.980   5.047   3.443 -2.0067  0.6373 -2.4565
   52CHL1   C15 3792   1.004   4.859   3.549  0.4123  0.0718  0.3115
   52CHL1  H15A 3793   0.960   4.757   3.542 -1.9824  1.0818 -0.6826
   52CHL1  H15B 3794   1.106   4.876   3.511  0.6596  1.1626  1.3837
   52CHL1   C16 3795   0.980   4.918   3.696  0.2701  0.0445  0.2310
   52CHL1  H16A 3796   0.934   4.843   3.763  0.4119  0.8699  1.2952
   52CHL1  H16B 3797   1.077   4.951   3.740  1.1532 -1.5912 -0.4173
   52CHL1   C17 3798   0.880   5.041   3.684 -0.1504  0.3422  0.0629
   52CHL1   H17 3799   0.944   5.131   3.669 -0.2086  0.4435  0.4252
   52CHL1   C13 3800   0.806   5.008   3.554 -0.1667  0.1493  0.1166
   52CHL1   C18 3801   0.701   4.896   3.569 -0.4807 -0.1821  0.1682
   52CHL1  H18A 3802   0.617   4.921   3.637  0.5151  1.2143  0.9397
   52CHL1  H18B 3803   0.658   4.861   3.473  0.3324  1.0427 -0.6664
   52CHL1  H18C 3804   0.748   4.803   3.608 -2.8149 -0.8487  1.6403
   52CHL1   C12 3805   0.739   5.126   3.481 -0.8753 -0.1019 -0.2348
   52CHL1  H12A 3806   0.651   5.158   3.540 -0.4914 -0.8982  0.7958
   52CHL1  H12B 3807   0.817   5.204   3.468 -0.6741 -0.1448  0.6609
   52CHL1   C11 3808   0.691   5.087   3.342  0.0255  0.3658 -0.1613
   52CHL1  H11A 3809   0.606   5.017   3.352  0.1083  0.1943 -0.6586
   52CHL1  H11B 3810   0.650   5.176   3.292  1.4446  2.4782  2.1606
   52CHL1    C9 3811   0.803   5.023   3.251 -0.7415 -0.1497  0.6992
   52CHL1    H9 3812   0.887   5.096   3.242 -1.5854  0.6960 -0.7187
   52CHL1   C10 3813   0.760   4.982   3.106  0.6160  0.7283 -0.4656
   52CHL1   C19 3814   0.624   4.897   3.113  0.2287 -0.2414 -0.0754
   52CHL1  H19A 3815   0.541   4.966   3.139  1.2367  1.6859 -1.6249
   52CHL1  H19B 3816   0.595   4.849   3.016  0.0288  0.9907 -0.6445
   52CHL1  H19C 3817   0.637   4.810   3.180  0.7131 -0.1632 -0.0650
   52CHL1    C1 3818   0.728   5.115   3.033 -0.4249  0.3205  0.0896
   52CHL1   H1A 3819   0.626   5.150   3.061 -0.2491 -0.3565  1.6326
   52CHL1   H1B 3820   0.804   5.192   3.056 -1.0260  0.6593  0.9727
   52CHL1    C2 3821   0.717   5.104   2.879  0.4215  0.5267  0.3504
   52CHL1   H2A 3822   0.704   5.205   2.833  0.5863 -0.9765 -3.3197
   52CHL1   H2B 3823   0.637   5.031   2.858  1.7147 -0.8766  0.1381
   52CHL1   C20 3824   0.800   5.075   3.811 -0.2313  0.1267  0.5222
   52CHL1   H20 3825   0.717   5.001   3.812  1.1291 -1.5702  4.0644
   52CHL1   C21 3826   0.730   5.209   3.815  0.1224 -0.2772  0.1157
   52CHL1  H21A 3827   0.680   5.231   3.718  0.9500  0.8405 -0.0664
   52CHL1  H21B 3828   0.803   5.290   3.835  0.0822  0.2150 -1.5415
   52CHL1  H21C 3829   0.656   5.209   3.897 -0.0122  2.5744  0.0911
   52CHL1   C22 3830   0.877   5.038   3.937  0.0917  0.0877 -0.3360
   52CHL1  H22A 3831   0.916   4.934   3.946 -0.2948  0.0220  0.7685
   52CHL1  H22B 3832   0.963   5.107   3.951  0.3305 -0.3206  0.2899
   52CHL1   C23 3833   0.797   5.046   4.065 -0.3162  0.8310 -0.1451
   52CHL1  H23A 3834   0.747   5.144   4.082 -2.0724 -0.2593  1.2354
   52CHL1  H23B 3835   0.717   4.969   4.070 -1.3117  1.9194  3.5728
   52CHL1   C24 3836   0.897   5.025   4.178  0.3773  1.2558 -0.9723
   52CHL1  H24A 3837   0.947   4.926   4.179  0.0528  1.0764  1.0823
   52CHL1  H24B 3838   0.970   5.109   4.174  0.6931  1.0131 -0.4452
   52CHL1   C25 3839   0.824   5.045   4.318 -0.1129  0.0372 -0.2981
   52CHL1   H25 3840   0.744   4.969   4.316 -0.7631  0.6520  0.9448
   52CHL1   C26 3841   0.919   5.005   4.435 -0.6841 -0.1804  0.1521
   52CHL1  H26A 3842   0.986   5.089   4.462 -1.3895  0.1572  0.8941
   52CHL1  H26B 3843   0.861   5.000   4.530 -0.1472  0.0957  0.4978
   52CHL1  H26C 3844   0.969   4.907   4.417  0.1046  0.3029 -0.3079
   52CHL1   C27 3845   0.774   5.183   4.355 -0.4601  0.2105  0.7514
   52CHL1  H27A 3846   0.699   5.217   4.280  0.1377  0.1521  0.1151
   52CHL1  H27B 3847   0.726   5.174   4.455 -1.1621 -1.7205  0.2886
   52CHL1  H27C 3848   0.866   5.246   4.355  0.1485 -0.6222 -0.6491
   53CHL1    C3 3849   5.312   2.871   3.039 -0.1097 -0.4964 -0.1172
   53CHL1    H3 3850   5.398   2.938   3.059  0.5677 -1.5090  0.4106
   53CHL1    O3 3851   5.319   2.832   2.899  0.4053  0.8503 -0.0040
   53CHL1   H3' 3852   5.409   2.798   2.892  0.4230  1.2541 -4.4873
   53CHL1    C4 3853   5.319   2.746   3.128  0.0274  0.2747 -0.4579
   53CHL1   H4A 3854   5.241   2.676   3.092 -1.5289  1.6617  0.0772
   53CHL1   H4B 3855   5.412   2.687   3.120  1.4953  2.6186 -1.7889
   53CHL1    C5 3856   5.314   2.779   3.277  0.4747 -0.7592 -0.1427
   53CHL1    C6 3857   5.414   2.751   3.366 -0.3279 -0.0822  0.4556
   53CHL1    H6 3858   5.502   2.699   3.325 -0.5734  1.3853 -2.1757
   53CHL1    C7 3859   5.411   2.777   3.516  0.3443  0.5293 -0.6409
   53CHL1   H7A 3860   5.420   2.677   3.562 -0.5612 -0.2147 -1.9936
   53CHL1   H7B 3861   5.479   2.862   3.538  0.2537  0.3169  0.5083
   53CHL1    C8 3862   5.259   2.805   3.557 -0.9047  0.2800  0.0527
   53CHL1    H8 3863   5.197   2.713   3.547  0.5835 -0.4922 -3.4186
   53CHL1   C14 3864   5.256   2.854   3.703 -0.1869 -0.3312  0.1060
   53CHL1   H14 3865   5.313   2.950   3.701  1.7462 -1.3313  2.4563
   53CHL1   C15 3866   5.330   2.769   3.812 -0.4229  0.1053  0.7091
   53CHL1  H15A 3867   5.310   2.662   3.793 -0.4440 -0.0805  1.7289
   53CHL1  H15B 3868   5.439   2.792   3.815 -0.5312  0.8567 -0.4034
   53CHL1   C16 3869   5.260   2.817   3.938 -0.7261  0.3877  0.2387
   53CHL1  H16A 3870   5.199   2.733   3.978  0.9513  0.1636  2.5595
   53CHL1  H16B 3871   5.332   2.843   4.018 -0.2078 -1.0083  0.2486
   53CHL1   C17 3872   5.154   2.924   3.902  0.3161  0.1621 -0.3044
   53CHL1   H17 3873   5.221   3.013   3.899 -0.0027  0.3855 -1.0058
   53CHL1   C13 3874   5.123   2.894   3.751  0.5196  0.4463 -0.2516
   53CHL1   C18 3875   5.016   2.782   3.764  0.8221 -0.1323  0.6326
   53CHL1  H18A 3876   5.008   2.741   3.661 -2.4198  1.2443  0.2127
   53CHL1  H18B 3877   5.035   2.701   3.838 -0.2507 -0.1612  0.8936
   53CHL1  H18C 3878   4.912   2.819   3.778  1.6028  2.0690  0.8697
   53CHL1   C12 3879   5.065   3.011   3.671  0.0918 -0.4097 -0.4954
   53CHL1  H12A 3880   4.967   3.041   3.711  0.5824 -1.0297  1.2730
   53CHL1  H12B 3881   5.135   3.096   3.683 -0.9060  0.3443  0.0729
   53CHL1   C11 3882   5.060   2.972   3.519  0.3525 -0.9383  0.0306
   53CHL1  H11A 3883   4.979   2.896   3.517  0.3675 -0.9519 -0.0413
   53CHL1  H11B 3884   5.033   3.056   3.452 -1.0922 -0.8919  0.6490
   53CHL1    C9 3885   5.192   2.907   3.465 -0.2763 -0.2672 -0.7172
   53CHL1    H9 3886   5.263   2.992   3.477  1.3842 -1.9399  3.4033
   53CHL1   C10 3887   5.188   2.864   3.317 -0.6669  0.6415  0.5154
   53CHL1   C19 3888   5.056   2.790   3.302 -0.2084  0.0585 -0.1522
   53CHL1  H19A 3889   4.970   2.859   3.295  0.8463  1.4291 -0.1253
   53CHL1  H19B 3890   5.055   2.728   3.210 -0.8659 -1.8595  1.0935
   53CHL1  H19C 3891   5.051   2.727   3.394  0.9728  0.0588 -0.0625
   53CHL1    C1 3892   5.172   2.977   3.216  0.1160  0.2423 -0.2053
   53CHL1   H1A 3893   5.082   3.034   3.246 -0.6116 -1.7107  1.4989
   53CHL1   H1B 3894   5.261   3.042   3.233 -0.0163  0.6819 -1.1531
   53CHL1    C2 3895   5.182   2.944   3.066 -0.0520  0.5614 -0.5209
   53CHL1   H2A 3896   5.175   3.033   2.999 -0.0896  0.6827 -0.3580
   53CHL1   H2B 3897   5.104   2.870   3.037  2.4705 -2.2306 -0.6957
   53CHL1   C20 3898   5.048   2.959   4.002 -0.1019 -0.0377  0.0810
   53CHL1   H20 3899   4.961   2.893   3.984  0.1789 -0.6917  1.0210
   53CHL1   C21 3900   5.010   3.104   3.989  1.0600 -0.2357 -0.5188
   53CHL1  H21A 3901   5.024   3.134   3.883  1.9989  0.3188 -0.2478
   53CHL1  H21B 3902   5.065   3.169   4.060 -0.1776  1.3119 -0.9139
   53CHL1  H21C 3903   4.901   3.124   4.004  1.4128  3.2443 -1.7240
   53CHL1   C22 3904   5.079   2.920   4.146  0.1136 -0.9329  0.1965
   53CHL1  H22A 3905   5.138   2.827   4.160  1.3619 -0.0699  0.8735
   53CHL1  H22B 3906   5.152   2.996   4.183 -0.0128  0.2491 -1.8424
   53CHL1   C23 3907   4.958   2.928   4.245  0.0776  0.5981 -0.4580
   53CHL1  H23A 3908   4.948   3.033   4.279  0.1793  1.0351 -1.7099
   53CHL1  H23B 3909   4.860   2.907   4.196 -0.3014  2.2771 -0.4795
   53CHL1   C24 3910   4.977   2.826   4.355 -0.4209 -0.3720 -0.4365
   53CHL1  H24A 3911   4.972   2.726   4.307 -0.2785  0.0105 -1.2673
   53CHL1  H24B 3912   5.071   2.837   4.412 -1.0637  0.1573  0.5554
   53CHL1   C25 3913   4.857   2.829   4.451 -0.3026  0.2500 -0.2324
   53CHL1   H25 3914   4.762   2.806   4.399  1.2512 -0.5940 -2.9335
   53CHL1   C26 3915   4.886   2.721   4.557 -0.1653  0.1548  0.3131
   53CHL1  H26A 3916   4.883   2.626   4.500  0.3308  1.5203 -2.1208
   53CHL1  H26B 3917   4.978   2.742   4.616  0.4865  0.8325 -0.9103
   53CHL1  H26C 3918   4.804   2.718   4.632  1.4085 -0.6800  2.0667
   53CHL1   C27 3919   4.848   2.963   4.519 -0.3451  0.6789  0.2294
   53CHL1  H27A 3920   4.780   2.957   4.606  0.1230 -1.1340  0.5055
   53CHL1  H27B 3921   4.948   2.997   4.553  0.9337 -1.6080 -1.0136
   53CHL1  H27C 3922   4.815   3.032   4.438 -0.1071  0.8582  0.2841
   54CHL1    C3 3923   4.243   1.767   2.712 -1.1511 -0.1833 -0.9679
   54CHL1    H3 3924   4.154   1.833   2.723 -0.7780  0.1279  0.2783
   54CHL1    O3 3925   4.248   1.719   2.581 -0.5414 -0.1103  0.5581
   54CHL1   H3' 3926   4.339   1.688   2.570 -0.6353 -0.0943 -0.3935
   54CHL1    C4 3927   4.370   1.847   2.727 -0.2095  0.0885  0.0196
   54CHL1   H4A 3928   4.458   1.791   2.688 -2.5890 -2.5138 -2.0093
   54CHL1   H4B 3929   4.380   1.934   2.658  1.1086  0.1386  0.2318
   54CHL1    C5 3930   4.395   1.896   2.868 -0.1076  0.7410  0.4559
   54CHL1    C6 3931   4.425   2.024   2.902 -0.7410 -0.8191 -0.2001
   54CHL1    H6 3932   4.450   2.092   2.819  1.5563 -1.6814 -0.2766
   54CHL1    C7 3933   4.442   2.068   3.044 -0.1590  0.4038  0.0604
   54CHL1   H7A 3934   4.529   2.137   3.049  1.6629 -1.4588 -2.7918
   54CHL1   H7B 3935   4.345   2.117   3.065 -0.5419  0.5610 -1.8658
   54CHL1    C8 3936   4.460   1.956   3.142 -0.3700  0.1064  0.4500
   54CHL1    H8 3937   4.564   1.922   3.125 -0.1644  0.9207  0.0360
   54CHL1   C14 3938   4.433   2.007   3.283  0.2426  0.5654  0.2285
   54CHL1   H14 3939   4.331   2.051   3.286  0.5061  1.1406  0.8294
   54CHL1   C15 3940   4.519   2.124   3.326 -0.2290 -1.1494 -0.2988
   54CHL1  H15A 3941   4.617   2.125   3.274  1.0613  0.9295  1.9502
   54CHL1  H15B 3942   4.454   2.208   3.294 -1.8305 -1.9410  0.7506
   54CHL1   C16 3943   4.520   2.118   3.481  0.6447 -0.3567 -0.2341
   54CHL1  H16A 3944   4.627   2.112   3.512  0.3145  1.3919  1.4166
   54CHL1  H16B 3945   4.491   2.215   3.526 -1.1955 -0.6514 -0.7380
   54CHL1   C17 3946   4.430   1.993   3.515 -0.9533 -0.6775 -0.2524
   54CHL1   H17 3947   4.325   2.030   3.521 -0.8829 -0.6814  3.8755
   54CHL1   C13 3948   4.446   1.903   3.395  0.2671  0.4545  0.2328
   54CHL1   C18 3949   4.590   1.843   3.397  0.3082 -1.0186 -0.0097
   54CHL1  H18A 3950   4.611   1.798   3.298 -2.8716 -2.6770 -0.0524
   54CHL1  H18B 3951   4.667   1.913   3.435 -0.8410  0.4616 -0.3247
   54CHL1  H18C 3952   4.594   1.750   3.458 -0.4909 -3.3376 -3.2099
   54CHL1   C12 3953   4.342   1.796   3.376  0.5190  0.5993 -0.4287
   54CHL1  H12A 3954   4.343   1.707   3.443  1.5078 -0.4624 -1.7956
   54CHL1  H12B 3955   4.244   1.841   3.402  0.3399 -0.5118  0.9558
   54CHL1   C11 3956   4.352   1.738   3.235 -0.0519  0.4106 -0.0394
   54CHL1  H11A 3957   4.439   1.670   3.240 -0.0355  0.3609 -0.8947
   54CHL1  H11B 3958   4.261   1.677   3.218  2.2033 -3.0630 -0.6474
   54CHL1    C9 3959   4.358   1.849   3.123  0.4141 -0.1025 -0.0899
   54CHL1    H9 3960   4.259   1.899   3.130  1.2191  1.2746  2.2377
   54CHL1   C10 3961   4.372   1.787   2.981  0.3673  0.0670 -0.2635
   54CHL1   C19 3962   4.504   1.706   2.963 -0.2889  0.2331  0.3793
   54CHL1  H19A 3963   4.594   1.770   2.974  0.7722 -0.7110 -2.2581
   54CHL1  H19B 3964   4.513   1.633   3.047  0.7578  0.5456  0.5435
   54CHL1  H19C 3965   4.522   1.654   2.867  2.0891 -0.5855  1.2181
   54CHL1    C1 3966   4.250   1.700   2.949  0.3584  0.2749 -0.1651
   54CHL1   H1A 3967   4.239   1.609   3.011 -2.5578  0.3145 -0.4668
   54CHL1   H1B 3968   4.153   1.750   2.969  0.1674 -0.3698  0.5417
   54CHL1    C2 3969   4.234   1.651   2.804  0.0841  0.2021 -0.1668
   54CHL1   H2A 3970   4.136   1.598   2.801 -0.3689  1.0805 -1.3895
   54CHL1   H2B 3971   4.313   1.579   2.775  2.7287  3.5733 -2.1114
   54CHL1   C20 3972   4.468   1.940   3.654  0.4799 -0.0615  0.0806
   54CHL1   H20 3973   4.564   1.885   3.650 -0.1263 -1.0886 -1.1636
   54CHL1   C21 3974   4.361   1.840   3.707 -0.3989 -0.5443  0.1146
   54CHL1  H21A 3975   4.265   1.892   3.684 -0.0279 -0.0705 -0.3958
   54CHL1  H21B 3976   4.359   1.805   3.813  0.0119  1.1423  0.7142
   54CHL1  H21C 3977   4.362   1.751   3.641 -0.3060 -3.2260  3.4674
   54CHL1   C22 3978   4.475   2.061   3.755 -0.3443  0.6536 -0.3632
   54CHL1  H22A 3979   4.546   2.140   3.722 -0.8615  0.1899 -2.7786
   54CHL1  H22B 3980   4.378   2.115   3.760 -1.1542 -0.7699  0.0264
   54CHL1   C23 3981   4.527   2.009   3.887  0.2889  0.0393  0.5748
   54CHL1  H23A 3982   4.453   1.939   3.931 -0.5714  1.3249  1.2365
   54CHL1  H23B 3983   4.620   1.952   3.869 -0.8234 -1.3676 -0.9735
   54CHL1   C24 3984   4.543   2.116   3.994 -0.1078 -0.4096  0.0074
   54CHL1  H24A 3985   4.641   2.167   3.976 -1.0192  1.3202 -0.2783
   54CHL1  H24B 3986   4.461   2.191   3.987 -2.0599 -2.4271  0.3207
   54CHL1   C25 3987   4.551   2.076   4.144  0.1773 -1.2119 -0.1188
   54CHL1   H25 3988   4.460   2.017   4.169 -1.4910  0.3202 -2.2227
   54CHL1   C26 3989   4.678   1.987   4.168  0.2103 -0.8659 -0.3039
   54CHL1  H26A 3990   4.669   1.959   4.275 -0.8399 -2.2181 -0.7220
   54CHL1  H26B 3991   4.689   1.894   4.109  1.3910 -1.5425  0.9363
   54CHL1  H26C 3992   4.771   2.043   4.144 -0.5603  1.5904  2.0369
   54CHL1   C27 3993   4.539   2.199   4.236 -0.0441 -0.1159 -0.0594
   54CHL1  H27A 3994   4.458   2.265   4.196  0.0143 -1.8548 -3.3234
   54CHL1  H27B 3995   4.511   2.164   4.338 -0.4161  0.3961  0.0193
   54CHL1  H27C 3996   4.634   2.254   4.249 -0.2239 -0.0421  1.1020
   55CHL1    C3 3997   1.443   4.455   3.020 -0.3240  0.2311 -0.2674
   55CHL1    H3 3998   1.514   4.538   2.999  0.7231 -0.5324  0.1314
   55CHL1    O3 3999   1.429   4.390   2.897  0.1623  0.3540  0.1208
   55CHL1   H3' 4000   1.389   4.305   2.918 -1.1828  0.7024 -0.8785
   55CHL1    C4 4001   1.504   4.362   3.127  0.3642 -0.3614  0.3999
   55CHL1   H4A 4002   1.448   4.266   3.118 -1.2008  0.6483 -1.3144
   55CHL1   H4B 4003   1.611   4.358   3.099  0.8766  3.0759  1.4847
   55CHL1    C5 4004   1.498   4.399   3.268  0.0051 -0.1391 -0.0170
   55CHL1    C6 4005   1.614   4.398   3.342  0.3390  0.8407  0.2176
   55CHL1    H6 4006   1.711   4.356   3.314 -0.6239 -0.8557 -0.6923
   55CHL1    C7 4007   1.620   4.428   3.484 -0.5397  0.2474 -0.4525
   55CHL1   H7A 4008   1.682   4.356   3.540  1.1190  2.4540  0.7175
   55CHL1   H7B 4009   1.680   4.521   3.496  1.9503 -1.4652  1.0042
   55CHL1    C8 4010   1.479   4.449   3.545  0.6677 -0.0389  0.9177
   55CHL1    H8 4011   1.431   4.350   3.564 -1.9539  1.5232  3.1066
   55CHL1   C14 4012   1.484   4.528   3.675  0.1290 -0.1494 -0.7431
   55CHL1   H14 4013   1.526   4.626   3.643  1.1524 -0.6349 -0.9390
   55CHL1   C15 4014   1.580   4.474   3.778 -0.0215 -0.7805  0.0197
   55CHL1  H15A 4015   1.566   4.364   3.782 -0.3723 -0.7105  0.9181
   55CHL1  H15B 4016   1.685   4.500   3.751 -0.1307  1.1812  1.3028
   55CHL1   C16 4017   1.536   4.548   3.905  0.1532 -0.8556 -0.2161
   55CHL1  H16A 4018   1.508   4.469   3.979 -0.2867 -2.0590 -1.6275
   55CHL1  H16B 4019   1.624   4.603   3.944  0.9721 -1.2332 -1.4926
   55CHL1   C17 4020   1.410   4.632   3.879 -0.0174 -0.1668 -0.2125
   55CHL1   H17 4021   1.448   4.730   3.845 -2.2946  0.9342  0.2922
   55CHL1   C13 4022   1.354   4.556   3.756  0.1809  0.9181  0.3123
   55CHL1   C18 4023   1.282   4.421   3.791 -0.0483  0.3393  0.3076
   55CHL1  H18A 4024   1.248   4.371   3.698 -0.6786  0.6039  0.3889
   55CHL1  H18B 4025   1.346   4.358   3.857  1.7453  1.4731 -0.2722
   55CHL1  H18C 4026   1.194   4.444   3.855  0.6678  1.6946  0.8424
   55CHL1   C12 4027   1.274   4.645   3.662 -0.9726  0.2478  0.6718
   55CHL1  H12A 4028   1.176   4.657   3.714 -1.5894 -0.7090 -0.2195
   55CHL1  H12B 4029   1.322   4.745   3.664  0.4667 -0.3964 -0.4043
   55CHL1   C11 4030   1.256   4.588   3.519 -0.0274  0.0257 -0.6264
   55CHL1  H11A 4031   1.181   4.506   3.530  0.6956 -0.4799  0.7432
   55CHL1  H11B 4032   1.208   4.664   3.454 -0.0524  1.2802  0.7935
   55CHL1    C9 4033   1.385   4.530   3.447  0.2751 -0.0436 -0.2171
   55CHL1    H9 4034   1.442   4.623   3.430  1.3412 -0.3234  1.5397
   55CHL1   C10 4035   1.361   4.454   3.315 -0.0452 -0.0958 -0.2932
   55CHL1   C19 4036   1.275   4.326   3.335 -0.1776  0.0447  1.1406
   55CHL1  H19A 4037   1.263   4.255   3.250  0.4326  1.8601 -0.5272
   55CHL1  H19B 4038   1.309   4.254   3.412  0.4578 -1.4718 -0.5043
   55CHL1  H19C 4039   1.173   4.363   3.362  0.0836  0.9077  0.9612
   55CHL1    C1 4040   1.308   4.556   3.207 -0.6281  0.7317 -0.5876
   55CHL1   H1A 4041   1.206   4.579   3.244 -0.0139  1.2230  0.8841
   55CHL1   H1B 4042   1.366   4.649   3.223 -1.6196  1.0351  1.7064
   55CHL1    C2 4043   1.307   4.511   3.063 -0.0009 -0.0971 -0.1719
   55CHL1   H2A 4044   1.289   4.602   3.002  0.2867  1.3345  1.7673
   55CHL1   H2B 4045   1.240   4.425   3.044  0.6244 -0.2467 -1.8410
   55CHL1   C20 4046   1.326   4.649   4.006  1.2183 -0.2152  0.6664
   55CHL1   H20 4047   1.305   4.548   4.047  0.5000  0.3456  1.7200
   55CHL1   C21 4048   1.187   4.723   3.974 -0.5592 -1.0423  0.0431
   55CHL1  H21A 4049   1.127   4.666   3.900 -0.3678 -0.0718 -0.8873
   55CHL1  H21B 4050   1.222   4.813   3.919  1.3418 -1.9462 -0.3019
   55CHL1  H21C 4051   1.124   4.739   4.064 -0.5984 -0.7380 -0.0348
   55CHL1   C22 4052   1.409   4.731   4.107  0.0157  0.5232 -0.1315
   55CHL1  H22A 4053   1.515   4.699   4.111 -0.7331 -2.1244  1.6787
   55CHL1  H22B 4054   1.415   4.831   4.058 -2.0226 -0.3123 -2.3041
   55CHL1   C23 4055   1.358   4.737   4.246 -1.0342  1.4177 -0.9265
   55CHL1  H23A 4056   1.257   4.784   4.247 -1.9276 -0.4025  0.5457
   55CHL1  H23B 4057   1.354   4.633   4.284 -0.4918  1.4645 -0.7353
   55CHL1   C24 4058   1.442   4.818   4.345  0.3396 -0.6287  0.9053
   55CHL1  H24A 4059   1.539   4.767   4.365  0.4909 -0.3741  0.8243
   55CHL1  H24B 4060   1.466   4.917   4.302  2.0195 -1.2616  0.3229
   55CHL1   C25 4061   1.374   4.842   4.478  0.0535 -0.2756  0.3192
   55CHL1   H25 4062   1.280   4.895   4.453 -0.4517 -1.3995 -0.2438
   55CHL1   C26 4063   1.337   4.710   4.554 -0.1245 -0.1545 -0.1534
   55CHL1  H26A 4064   1.287   4.635   4.489 -1.4974  1.8509 -1.5171
   55CHL1  H26B 4065   1.431   4.659   4.584  0.7054  0.3840 -1.7392
   55CHL1  H26C 4066   1.283   4.739   4.647 -0.5707 -2.6138  0.4204
   55CHL1   C27 4067   1.460   4.929   4.573  0.6326 -0.7515  0.6087
   55CHL1  H27A 4068   1.548   4.872   4.608 -0.9989 -3.0171  1.2342
   55CHL1  H27B 4069   1.495   5.016   4.513  1.7463 -1.9015 -0.4749
   55CHL1  H27C 4070   1.395   4.963   4.656  0.3598 -2.4979  1.1408
   56CHL1    C3 4071   3.118   3.827   3.213 -0.4616 -0.0624  1.1790
   56CHL1    H3 4072   3.010   3.819   3.189 -0.1689  0.6397 -0.5459
   56CHL1    O3 4073   3.190   3.789   3.093  0.4978  0.1485  0.6085
   56CHL1   H3' 4074   3.285   3.797   3.100  0.7335 -0.3809 -1.3586
   56CHL1    C4 4075   3.148   3.973   3.260 -0.0495 -0.6111  0.6096
   56CHL1   H4A 4076   3.255   3.991   3.283  0.1535 -0.9733 -0.0211
   56CHL1   H4B 4077   3.123   4.041   3.176  2.1855 -1.3468 -0.7407
   56CHL1    C5 4078   3.089   4.011   3.394  0.0578 -0.7629 -0.2519
   56CHL1    C6 4079   3.007   4.117   3.417  0.1726  0.3899  0.5747
   56CHL1    H6 4080   2.984   4.180   3.331  1.5635 -0.0268 -0.1237
   56CHL1    C7 4081   2.967   4.167   3.557 -0.2917 -0.3711 -0.0826
   56CHL1   H7A 4082   3.006   4.271   3.573 -1.0929 -0.2442  1.2244
   56CHL1   H7B 4083   2.857   4.176   3.563 -0.2143  3.4567 -1.4659
   56CHL1    C8 4084   3.027   4.081   3.676 -0.4017 -0.9601 -0.1876
   56CHL1    H8 4085   3.126   4.121   3.707 -1.4438  0.0546  2.0128
   56CHL1   C14 4086   2.942   4.098   3.803  0.2221 -0.4237 -0.3250
   56CHL1   H14 4087   2.842   4.053   3.780  1.0802 -1.5500 -2.1638
   56CHL1   C15 4088   2.915   4.242   3.848 -0.2500 -0.2018 -0.5133
   56CHL1  H15A 4089   3.009   4.298   3.827 -1.0866  1.3225 -0.3000
   56CHL1  H15B 4090   2.837   4.291   3.786 -0.8564  2.5734  2.2455
   56CHL1   C16 4091   2.883   4.224   4.001  0.0202 -0.1396 -0.3977
   56CHL1  H16A 4092   2.964   4.275   4.058 -1.2901  1.9232 -0.2909
   56CHL1  H16B 4093   2.780   4.262   4.017 -0.0459 -0.7543  0.7032
   56CHL1   C17 4094   2.890   4.070   4.019 -0.2380  0.2891  0.2998
   56CHL1   H17 4095   2.786   4.047   3.984 -0.3870 -0.3610  1.1456
   56CHL1   C13 4096   2.991   4.021   3.920 -0.2039  0.0493  0.2605
   56CHL1   C18 4097   3.134   4.070   3.963  0.7496  0.4276  0.5469
   56CHL1  H18A 4098   3.218   4.021   3.910  3.0561  0.5067  3.7988
   56CHL1  H18B 4099   3.149   4.180   3.953  0.8456  0.3647  0.0065
   56CHL1  H18C 4100   3.161   4.049   4.069  0.2775  1.3848  0.8756
   56CHL1   C12 4101   2.998   3.871   3.889  0.1832 -0.1496 -0.5620
   56CHL1  H12A 4102   3.051   3.828   3.977 -0.1785 -0.7804 -0.6437
   56CHL1  H12B 4103   2.893   3.835   3.882 -0.2324  0.8600  0.3315
   56CHL1   C11 4104   3.074   3.841   3.758  0.9331 -0.2385  0.4620
   56CHL1  H11A 4105   3.183   3.853   3.776  0.8866  1.7544 -0.3005
   56CHL1  H11B 4106   3.033   3.744   3.724 -0.7208  0.7585 -0.5456
   56CHL1    C9 4107   3.028   3.931   3.639  0.1695 -0.0344 -0.0485
   56CHL1    H9 4108   2.923   3.900   3.623 -0.1296  0.8369  0.1226
   56CHL1   C10 4109   3.112   3.916   3.510  0.3304  0.5316 -0.0160
   56CHL1   C19 4110   3.265   3.934   3.552  0.1054  0.4409  0.5313
   56CHL1  H19A 4111   3.283   4.036   3.592  1.1903  0.2208  0.6443
   56CHL1  H19B 4112   3.300   3.847   3.611  1.7176  1.3064  0.8983
   56CHL1  H19C 4113   3.330   3.936   3.463  2.0034 -0.0410  1.8474
   56CHL1    C1 4114   3.082   3.766   3.454  0.0637  0.2599  0.2882
   56CHL1   H1A 4115   3.117   3.694   3.531 -0.8479  0.2371  0.6881
   56CHL1   H1B 4116   2.973   3.743   3.450 -0.2947  0.8145  3.7738
   56CHL1    C2 4117   3.159   3.738   3.321 -0.0516  0.6394 -0.2529
   56CHL1   H2A 4118   3.137   3.634   3.289  0.8028  0.4271 -0.2003
   56CHL1   H2B 4119   3.269   3.738   3.341 -0.5794  1.0640  3.1731
   56CHL1   C20 4120   2.902   4.015   4.166 -0.0873 -0.1262  0.8908
   56CHL1   H20 4121   3.005   3.981   4.191  1.2326  1.7622 -1.5691
   56CHL1   C21 4122   2.807   3.888   4.179  0.6139  0.2997  0.8285
   56CHL1  H21A 4123   2.834   3.814   4.101 -1.7389  1.6448 -1.4030
   56CHL1  H21B 4124   2.705   3.933   4.173  1.1455  1.3373 -0.8133
   56CHL1  H21C 4125   2.798   3.846   4.282 -0.1374 -0.2977  0.5262
   56CHL1   C22 4126   2.860   4.121   4.271 -0.1970 -0.5984 -0.7172
   56CHL1  H22A 4127   2.937   4.201   4.274  0.1442 -0.9460  1.3924
   56CHL1  H22B 4128   2.757   4.156   4.252  0.0659 -0.2415 -1.5217
   56CHL1   C23 4129   2.849   4.069   4.418 -0.6578 -0.1310  0.0714
   56CHL1  H23A 4130   2.740   4.055   4.436 -1.0554 -0.6668 -2.4402
   56CHL1  H23B 4131   2.912   3.983   4.449 -0.3847  0.1426  0.2766
   56CHL1   C24 4132   2.904   4.181   4.512  0.5067 -0.3197  0.5699
   56CHL1  H24A 4133   3.007   4.203   4.477  0.1422 -1.9203 -1.8364
   56CHL1  H24B 4134   2.848   4.276   4.498  2.3048  0.9790  1.7865
   56CHL1   C25 4135   2.892   4.151   4.667  0.0144  0.4052 -0.2483
   56CHL1   H25 4136   2.916   4.043   4.669 -1.3756 -0.1323 -4.1319
   56CHL1   C26 4137   3.000   4.211   4.752  0.1841 -0.1986 -0.2872
   56CHL1  H26A 4138   2.998   4.322   4.750 -1.2395 -0.1919 -3.1514
   56CHL1  H26B 4139   2.989   4.196   4.862  0.2127  2.4901  0.1574
   56CHL1  H26C 4140   3.101   4.176   4.722  0.4832 -0.7357  1.2512
   56CHL1   C27 4141   2.750   4.184   4.719 -0.2790  0.1877  0.0559
   56CHL1  H27A 4142   2.749   4.295   4.720  0.4923  0.3860 -4.1665
   56CHL1  H27B 4143   2.669   4.149   4.652  0.8453 -2.7180  0.0356
   56CHL1  H27C 4144   2.742   4.147   4.824  0.9819  1.0765  0.5008
   57SAPC     N 4145   3.012   6.048   6.915  0.0627  0.1730  0.3089
   57SAPC   C12 4146   3.007   6.000   6.770  0.3414 -0.4463  0.5470
   57SAPC  H12A 4147   2.911   5.954   6.750  0.3389  0.5102 -2.0093
   57SAPC  H12B 4148   3.072   5.915   6.755  2.8600  0.7146  3.7686
   57SAPC   C13 4149   3.006   5.928   7.018 -0.0561 -0.1036  0.2025
   57SAPC  H13A 4150   3.090   5.863   6.997 -1.1090 -2.1019  1.8831
   57SAPC  H13B 4151   3.016   5.954   7.122 -0.0919 -0.7790  0.3789
   57SAPC  H13C 4152   2.913   5.874   7.014  0.3620 -1.1782  2.9054
   57SAPC   C14 4153   3.137   6.132   6.936  0.3459  0.1470  0.0905
   57SAPC  H14A 4154   3.144   6.178   7.034 -2.1714  1.0277 -0.0639
   57SAPC  H14B 4155   3.219   6.067   6.909  0.1388  0.5859 -1.7004
   57SAPC  H14C 4156   3.141   6.216   6.869 -1.2345  0.9658  0.9650
   57SAPC   C15 4157   2.902   6.131   6.950  0.2332  0.3241  0.1096
   57SAPC  H15A 4158   2.900   6.150   7.057  1.0609 -0.1704  0.2146
   57SAPC  H15B 4159   2.900   6.222   6.892 -0.0770 -1.1898 -2.3728
   57SAPC  H15C 4160   2.811   6.083   6.917  0.9165 -0.3179 -0.8569
   57SAPC   C11 4161   3.026   6.103   6.658  0.4471 -0.3510  0.3149
   57SAPC  H11A 4162   2.975   6.199   6.680  1.7396  0.2005  0.9921
   57SAPC  H11B 4163   2.986   6.072   6.559  0.8005  0.1300  0.0167
   57SAPC     P 4164   3.255   6.031   6.559 -0.4658  0.2582 -0.0474
   57SAPC   O13 4165   3.391   6.086   6.546 -0.5046 -0.0093  0.1690
   57SAPC   O14 4166   3.241   5.899   6.624  0.1800  0.2956 -0.2874
   57SAPC   O12 4167   3.168   6.132   6.642  0.4838 -0.0996  0.1947
   57SAPC   O11 4168   3.178   6.032   6.421  0.3100  0.2878  0.1534
   57SAPC    C1 4169   3.142   6.152   6.353  0.2183 -0.4486  0.9572
   57SAPC    HA 4170   3.048   6.133   6.296  1.2649  1.5634 -1.6540
   57SAPC    HB 4171   3.111   6.234   6.421  1.8953  1.1630 -0.1209
   57SAPC    C2 4172   3.247   6.201   6.248 -0.1209 -1.2988 -0.1180
   57SAPC    HS 4173   3.315   6.273   6.298 -0.8596  0.0067 -0.9042
   57SAPC   O21 4174   3.180   6.257   6.133  0.0286 -0.6391  0.2341
   57SAPC   C21 4175   3.262   6.342   6.054  0.1754 -0.4812  0.6136
   57SAPC   O22 4176   3.361   6.394   6.091 -0.7073  0.0533 -0.1073
   57SAPC   C22 4177   3.176   6.375   5.933 -0.1927  0.0295  0.1495
   57SAPC   H2R 4178   3.121   6.282   5.908  0.1729 -1.0269  2.9097
   57SAPC   H2S 4179   3.095   6.448   5.952  0.4465  0.4207  1.4708
   57SAPC    C3 4180   3.336   6.088   6.189  0.4223  0.2159  0.3642
   57SAPC    HX 4181   3.273   5.997   6.185  0.5055  0.1733 -0.1397
   57SAPC    HY 4182   3.424   6.078   6.256  1.8309  3.7213 -0.7066
   57SAPC   O31 4183   3.380   6.116   6.052  0.1976  0.1054  0.1236
   57SAPC   C31 4184   3.444   6.007   5.995 -0.0651 -0.8145  0.5239
   57SAPC   O32 4185   3.470   5.904   6.049  0.3316  0.0408  0.7249
   57SAPC   C32 4186   3.507   6.064   5.869 -0.4755 -0.1613  0.6246
   57SAPC   H2X 4187   3.600   6.117   5.900 -0.0473  0.6297 -1.8076
   57SAPC   H2Y 4188   3.434   6.134   5.822 -0.0731 -0.4020 -0.3919
   57SAPC   C23 4189   3.257   6.416   5.808 -0.0205 -0.0960 -0.5225
   57SAPC   H3R 4190   3.320   6.333   5.770  0.5396 -0.4057  1.0115
   57SAPC   H3S 4191   3.329   6.496   5.835 -0.3332 -0.5369  1.8910
   57SAPC   C24 4192   3.166   6.472   5.694  0.2334  0.0918  0.2105
   57SAPC   H4R 4193   3.113   6.560   5.738  0.4319  1.5808 -2.3187
   57SAPC   H4S 4194   3.108   6.382   5.667  1.5780 -0.7480  0.0462
   57SAPC   C25 4195   3.236   6.525   5.569  0.2639 -0.7231  0.0807
   57SAPC   H5R 4196   3.324   6.588   5.589  1.1006 -2.3524  1.8709
   57SAPC   C26 4197   3.206   6.499   5.442 -0.5341  0.1681 -0.1030
   57SAPC   H6R 4198   3.283   6.536   5.373  1.5880  0.5949  2.3717
   57SAPC   C27 4199   3.098   6.401   5.397  0.5640  0.2934 -0.1412
   57SAPC   H7R 4200   3.030   6.374   5.481 -0.1421  0.1573 -0.7454
   57SAPC   H7S 4201   3.159   6.312   5.371  3.1923  1.7903  0.5549
   57SAPC   C28 4202   3.008   6.435   5.278  0.2988  0.0003 -0.1654
   57SAPC   H8R 4203   2.913   6.482   5.309 -0.0547 -1.4837  1.1128
   57SAPC   C29 4204   3.020   6.413   5.148 -0.4311 -0.3301  0.8709
   57SAPC   H9R 4205   2.937   6.440   5.081 -0.8259  0.3595  1.6211
   57SAPC  C210 4206   3.132   6.345   5.073 -0.3595 -0.1338 -0.0129
   57SAPC  H10R 4207   3.084   6.266   5.011 -1.3314  0.2551  0.2282
   57SAPC  H10S 4208   3.184   6.271   5.138  2.2253 -2.4395 -4.1944
   57SAPC  C211 4209   3.242   6.422   5.001 -0.1817  0.1927 -0.2472
   57SAPC  H11R 4210   3.268   6.512   5.058  1.6011 -0.0398 -0.6429
   57SAPC  C212 4211   3.301   6.399   4.881 -0.3066 -0.1086 -0.4271
   57SAPC  H12R 4212   3.392   6.449   4.845 -0.3744  0.5276  0.2643
   57SAPC  C213 4213   3.257   6.285   4.795  1.4342 -0.6419 -0.1423
   57SAPC  H13R 4214   3.217   6.325   4.699 -2.4630 -1.9790  0.7175
   57SAPC  H13S 4215   3.163   6.229   4.816  0.1300  0.6592 -2.1052
   57SAPC  C214 4216   3.378   6.191   4.780  0.7225 -0.5286  0.0826
   57SAPC  H14R 4217   3.458   6.217   4.851  2.3974  1.7742 -2.4539
   57SAPC  C215 4218   3.394   6.111   4.675 -0.6566 -0.2071  0.0878
   57SAPC  H15R 4219   3.473   6.035   4.687 -1.8933 -2.0152 -2.2641
   57SAPC  C216 4220   3.304   6.089   4.560 -0.0655 -0.1632 -0.2174
   57SAPC  H16R 4221   3.235   6.173   4.542 -1.1131 -1.3126 -1.8246
   57SAPC  H16S 4222   3.240   6.002   4.585 -0.5996  0.4126  0.4595
   57SAPC  C217 4223   3.366   6.061   4.424 -0.2320  0.4709 -0.1115
   57SAPC  H17R 4224   3.428   5.970   4.440 -1.8046 -0.4489  1.0503
   57SAPC  H17S 4225   3.420   6.150   4.387 -2.7092  2.0648 -0.0965
   57SAPC  C218 4226   3.253   6.031   4.322  0.0096  0.0524  0.4000
   57SAPC  H18R 4227   3.178   6.112   4.318 -0.1426  0.1004  2.8805
   57SAPC  H18S 4228   3.211   5.935   4.360 -0.7560  0.0192 -0.4851
   57SAPC  C219 4229   3.303   5.997   4.178  0.1963 -0.4883 -0.3751
   57SAPC  H19R 4230   3.381   5.919   4.182  0.5255 -0.2180 -1.1486
   57SAPC  H19S 4231   3.353   6.088   4.137  1.0439  0.5623  2.7197
   57SAPC  C220 4232   3.187   5.940   4.093 -0.7614  0.4528  0.2955
   57SAPC  H20R 4233   3.225   5.929   3.989  0.3064  2.1167  0.4651
   57SAPC  H20S 4234   3.102   6.010   4.090 -0.3252  1.0078  0.7798
   57SAPC  H20T 4235   3.154   5.839   4.127 -2.6293  0.7135 -0.6585
   57SAPC   C33 4236   3.531   5.956   5.770  0.5498  0.3841  0.3464
   57SAPC   H3X 4237   3.430   5.918   5.744  0.9630  0.6261 -1.7814
   57SAPC   H3Y 4238   3.604   5.884   5.813  2.4502  1.5868 -0.6998
   57SAPC   C34 4239   3.590   6.017   5.645  0.2388 -0.0609  0.3080
   57SAPC   H4X 4240   3.644   5.942   5.584 -0.4388 -0.5162  0.2586
   57SAPC   H4Y 4241   3.667   6.096   5.662  0.3017 -0.1036  0.2205
   57SAPC   C35 4242   3.482   6.059   5.536 -0.4375  0.0389 -0.5163
   57SAPC   H5X 4243   3.425   6.147   5.572  1.7118  2.1046 -1.8445
   57SAPC   H5Y 4244   3.417   5.971   5.520  1.1361 -0.9169 -2.0215
   57SAPC   C36 4245   3.554   6.094   5.404  1.1826 -0.0125  0.2372
   57SAPC   H6X 4246   3.631   6.017   5.384  0.1107 -0.6592 -1.6708
   57SAPC   H6Y 4247   3.607   6.191   5.417  0.1697  0.4868  0.7838
   57SAPC   C37 4248   3.472   6.094   5.283  0.8416  0.0026  0.1973
   57SAPC   H7X 4249   3.383   6.159   5.286 -0.0528 -1.2099  1.8085
   57SAPC   H7Y 4250   3.435   5.990   5.273  0.5602  0.0394  0.8190
   57SAPC   C38 4251   3.553   6.117   5.154 -0.4363  0.0948  0.3304
   57SAPC   H8X 4252   3.628   6.195   5.180  0.2265 -0.5144  0.2906
   57SAPC   H8Y 4253   3.488   6.164   5.076 -1.4273  0.1872  1.1973
   57SAPC   C39 4254   3.642   6.002   5.104 -0.2009 -0.5909 -0.1780
   57SAPC   H9X 4255   3.572   5.916   5.091  0.2141 -1.0732  0.7031
   57SAPC   H9Y 4256   3.710   5.967   5.184 -0.5483 -1.8569 -0.4043
   57SAPC  C310 4257   3.704   6.032   4.969  0.5302  0.6853 -0.0477
   57SAPC  H10X 4258   3.809   6.065   4.977  0.8355 -0.4374  0.8365
   57SAPC  H10Y 4259   3.648   6.108   4.910 -0.9555 -1.0129 -0.9360
   57SAPC  C311 4260   3.708   5.905   4.883 -0.0673 -0.1758 -0.2374
   57SAPC  H11X 4261   3.603   5.888   4.850 -1.5240  3.3292  2.0088
   57SAPC  H11Y 4262   3.740   5.813   4.936 -0.2790  0.4007  0.9217
   57SAPC  C312 4263   3.804   5.916   4.765 -0.2690  0.1359  0.2371
   57SAPC  H12X 4264   3.898   5.945   4.818 -0.2192  1.6457 -0.6199
   57SAPC  H12Y 4265   3.768   5.993   4.693 -2.4922 -2.7193 -1.9433
   57SAPC  C313 4266   3.836   5.792   4.680 -0.0935 -0.0029  0.2053
   57SAPC  H13X 4267   3.818   5.812   4.573 -0.1113  0.9284  0.3747
   57SAPC  H13Y 4268   3.758   5.718   4.710  0.0751 -0.5754 -0.7261
   57SAPC  C314 4269   3.981   5.741   4.711 -0.2190  0.1427  0.3191
   57SAPC  H14X 4270   3.975   5.700   4.814 -2.4138 -2.3532 -0.6949
   57SAPC  H14Y 4271   4.052   5.826   4.701 -1.2753  1.3018  1.9469
   57SAPC  C315 4272   4.035   5.630   4.614  0.7585 -0.3970 -0.9656
   57SAPC  H15X 4273   3.971   5.539   4.619  1.7058 -1.0636 -0.6851
   57SAPC  H15Y 4274   4.137   5.598   4.643  0.3134 -0.3169  0.8693
   57SAPC  C316 4275   4.039   5.676   4.465  0.1987  0.0602  0.1889
   57SAPC  H16X 4276   4.082   5.779   4.466  0.0454  0.1225  0.6394
   57SAPC  H16Y 4277   3.932   5.674   4.434 -0.0045 -0.3640  0.9015
   57SAPC  C317 4278   4.118   5.584   4.371  0.0864 -0.2012 -0.5986
   57SAPC  H17X 4279   4.097   5.478   4.398  0.1670  0.0699  0.5821
   57SAPC  H17Y 4280   4.227   5.602   4.390 -0.2898  1.6633  0.0181
   57SAPC  C318 4281   4.092   5.605   4.219  0.3424  0.1708  0.3417
   57SAPC  H18X 4282   3.982   5.602   4.201  0.6584  0.8826 -1.9822
   57SAPC  H18Y 4283   4.149   5.527   4.165  0.1516  1.4519 -1.8019
   57SAPC  H18Z 4284   4.131   5.703   4.185  0.9081  0.2381  1.1597
   58SAPC     N 4285   0.670   5.720   7.153  0.1419  0.3167 -0.5926
   58SAPC   C12 4286   0.655   5.650   7.019 -0.3343 -0.4684  0.4842
   58SAPC  H12A 4287   0.743   5.591   7.001  0.2942  0.8585 -1.0785
   58SAPC  H12B 4288   0.673   5.727   6.945 -1.6422  0.1676  0.7939
   58SAPC   C13 4289   0.568   5.824   7.174  0.3954 -0.0629 -0.3909
   58SAPC  H13A 4290   0.571   5.897   7.094 -1.5612  1.4138  0.7931
   58SAPC  H13B 4291   0.466   5.790   7.175  0.2171  0.3394  2.4315
   58SAPC  H13C 4292   0.589   5.878   7.265  0.0587 -1.9647  0.8502
   58SAPC   C14 4293   0.655   5.619   7.266 -0.0894  0.6066  0.5418
   58SAPC  H14A 4294   0.630   5.662   7.361  0.7687  0.5022  0.8211
   58SAPC  H14B 4295   0.572   5.552   7.253  1.2935 -1.4114  1.7124
   58SAPC  H14C 4296   0.742   5.557   7.277 -0.9511 -0.9228 -0.7954
   58SAPC   C15 4297   0.802   5.783   7.171 -0.0764  0.1759  0.6392
   58SAPC  H15A 4298   0.807   5.846   7.258  2.0196  0.6595  0.2492
   58SAPC  H15B 4299   0.876   5.709   7.196  0.2496 -0.8865 -2.8810
   58SAPC  H15C 4300   0.828   5.844   7.085  0.9654  0.5575  1.1962
   58SAPC   C11 4301   0.522   5.580   6.991  0.3386  0.1297 -0.3144
   58SAPC  H11A 4302   0.490   5.506   7.067  0.3284  0.0878 -0.3595
   58SAPC  H11B 4303   0.539   5.510   6.906 -1.2279 -2.0144  1.0275
   58SAPC     P 4304   0.265   5.621   6.991 -0.2036 -0.1045 -0.1265
   58SAPC   O13 4305   0.250   5.471   6.978 -0.2710  0.1729  0.4514
   58SAPC   O14 4306   0.221   5.682   7.113  0.0262  0.1706  0.2940
   58SAPC   O12 4307   0.416   5.665   6.951  0.2570  0.4824 -0.2177
   58SAPC   O11 4308   0.175   5.676   6.880 -1.0456 -0.6458  0.3554
   58SAPC    C1 4309   0.216   5.782   6.794  0.3068  0.2893 -0.8821
   58SAPC    HA 4310   0.139   5.862   6.801 -0.1790 -0.1920 -0.5824
   58SAPC    HB 4311   0.303   5.836   6.837  0.4485  0.8734 -1.8528
   58SAPC    C2 4312   0.258   5.755   6.649 -0.0768  0.7578  0.9270
   58SAPC    HS 4313   0.169   5.716   6.596  0.2236 -0.3420  1.2058
   58SAPC   O21 4314   0.366   5.656   6.647 -0.0382 -0.3156  0.5090
   58SAPC   C21 4315   0.325   5.533   6.625  0.1701 -0.1693 -0.6580
   58SAPC   O22 4316   0.215   5.497   6.593  0.3198 -0.3187  0.1639
   58SAPC   C22 4317   0.438   5.430   6.656  0.2009 -1.0985 -0.1163
   58SAPC   H2R 4318   0.535   5.483   6.658  1.3403 -3.1259  0.6804
   58SAPC   H2S 4319   0.420   5.394   6.759 -1.9890  1.5188  0.5321
   58SAPC    C3 4320   0.309   5.884   6.578 -0.3491  0.1786 -0.5328
   58SAPC    HX 4321   0.404   5.915   6.625 -0.3332 -0.2328 -0.2889
   58SAPC    HY 4322   0.238   5.968   6.597 -0.3959 -0.0081  0.1235
   58SAPC   O31 4323   0.330   5.874   6.436 -0.1028  0.3216  0.0518
   58SAPC   C31 4324   0.220   5.901   6.357 -0.1883  0.2547 -0.4247
   58SAPC   O32 4325   0.121   5.951   6.396  0.1120  0.0975  0.4196
   58SAPC   C32 4326   0.255   5.843   6.220  0.2037  0.5514 -0.3448
   58SAPC   H2X 4327   0.188   5.755   6.213  0.3411  0.5708 -2.7229
   58SAPC   H2Y 4328   0.361   5.808   6.221  0.4910  1.3779  1.0105
   58SAPC   C23 4329   0.470   5.312   6.550 -0.9593 -0.2190 -0.7132
   58SAPC   H3R 4330   0.378   5.255   6.522 -0.3000 -1.1392 -1.0724
   58SAPC   H3S 4331   0.533   5.238   6.605  0.5948  0.7028 -1.2075
   58SAPC   C24 4332   0.541   5.339   6.417  0.6133 -0.1449 -0.5436
   58SAPC   H4R 4333   0.574   5.255   6.352  2.0143 -0.3150  0.3395
   58SAPC   H4S 4334   0.632   5.399   6.441  1.3940 -1.4800 -0.0614
   58SAPC   C25 4335   0.465   5.441   6.339  0.3344  0.3225 -0.2152
   58SAPC   H5R 4336   0.480   5.547   6.366 -0.1318  0.4162 -0.3091
   58SAPC   C26 4337   0.396   5.406   6.228  0.1831  0.2802 -0.8032
   58SAPC   H6R 4338   0.337   5.484   6.178  0.2952 -0.0052 -1.3812
   58SAPC   C27 4339   0.365   5.269   6.177 -0.0256 -0.4230 -0.1635
   58SAPC   H7R 4340   0.255   5.251   6.172 -0.1978  0.2487  0.9892
   58SAPC   H7S 4341   0.404   5.185   6.239 -0.0323 -1.2196 -1.2053
   58SAPC   C28 4342   0.425   5.253   6.038  0.1724 -0.0563 -0.5185
   58SAPC   H8R 4343   0.531   5.275   6.022  0.2343 -0.1392 -0.2361
   58SAPC   C29 4344   0.351   5.225   5.925 -0.0909 -0.1092  0.0469
   58SAPC   H9R 4345   0.401   5.224   5.827  1.4542  1.1148  0.7861
   58SAPC  C210 4346   0.197   5.201   5.924 -0.0225 -0.2150  0.2329
   58SAPC  H10R 4347   0.153   5.303   5.925 -0.2745 -0.3132  2.4139
   58SAPC  H10S 4348   0.156   5.152   6.014 -0.8475  0.0532  0.0171
   58SAPC  C211 4349   0.154   5.105   5.814 -0.6410 -0.7097  0.2964
   58SAPC  H11R 4350   0.116   5.005   5.837 -0.1192 -0.4317  2.5177
   58SAPC  C212 4351   0.167   5.134   5.680  0.1707 -0.9098 -0.1637
   58SAPC  H12R 4352   0.157   5.058   5.601  1.7566 -0.3949 -0.8991
   58SAPC  C213 4353   0.217   5.260   5.628 -0.5497 -0.3247  0.6084
   58SAPC  H13R 4354   0.235   5.335   5.708 -0.8154 -1.6791  1.9966
   58SAPC  H13S 4355   0.135   5.311   5.573  0.6959  1.9785  0.7907
   58SAPC  C214 4356   0.340   5.248   5.531 -0.1590  0.3199  0.1947
   58SAPC  H14R 4357   0.437   5.257   5.581 -0.7858 -3.9763  2.7133
   58SAPC  C215 4358   0.342   5.230   5.402 -0.2940  0.5115  0.7060
   58SAPC  H15R 4359   0.434   5.219   5.343 -1.5985 -0.6540 -1.2140
   58SAPC  C216 4360   0.214   5.196   5.329 -0.0912  0.5885  0.2001
   58SAPC  H16R 4361   0.229   5.238   5.227  0.4822 -0.8903 -0.3622
   58SAPC  H16S 4362   0.124   5.243   5.373 -1.4814  0.2139 -2.0539
   58SAPC  C217 4363   0.190   5.043   5.322  0.0406 -0.1940 -0.2517
   58SAPC  H17R 4364   0.083   5.019   5.301  0.3151  0.5147 -2.7368
   58SAPC  H17S 4365   0.223   4.996   5.417 -0.6965 -3.3962 -1.4212
   58SAPC  C218 4366   0.264   4.984   5.200 -0.3809 -0.5839 -0.7877
   58SAPC  H18R 4367   0.370   5.012   5.215 -1.0554  1.0992  1.4235
   58SAPC  H18S 4368   0.226   5.019   5.101  1.6079 -1.0213 -1.7560
   58SAPC  C219 4369   0.247   4.826   5.193 -0.5405  0.1886 -0.1704
   58SAPC  H19R 4370   0.148   4.792   5.154 -0.5913  0.7405 -0.5418
   58SAPC  H19S 4371   0.271   4.787   5.294  1.9258  1.2347 -0.2904
   58SAPC  C220 4372   0.356   4.787   5.097 -0.2790  0.6495  0.1732
   58SAPC  H20R 4373   0.313   4.806   4.996 -1.1231 -1.2984  0.1245
   58SAPC  H20S 4374   0.375   4.678   5.106 -1.1159  0.5260  0.5366
   58SAPC  H20T 4375   0.450   4.843   5.119 -0.0053 -0.0617  0.8360
   58SAPC   C33 4376   0.224   5.955   6.113  0.0935 -0.2489 -0.2459
   58SAPC   H3X 4377   0.296   6.031   6.150  0.1406 -1.0549  1.4095
   58SAPC   H3Y 4378   0.119   5.989   6.126  0.4134  1.8777 -2.4795
   58SAPC   C34 4379   0.239   5.905   5.971 -0.9696 -0.0696  0.7492
   58SAPC   H4X 4380   0.171   5.818   5.955 -0.3482 -0.7498  1.6692
   58SAPC   H4Y 4381   0.345   5.883   5.945 -1.3063  1.1066 -1.9498
   58SAPC   C35 4382   0.197   6.011   5.872 -0.3281  0.0387  0.0353
   58SAPC   H5X 4383   0.251   6.108   5.878 -0.1742  0.2371 -3.0227
   58SAPC   H5Y 4384   0.089   6.034   5.883 -0.3313 -0.7628  2.0942
   58SAPC   C36 4385   0.220   5.967   5.727  0.0084  0.8741 -0.2728
   58SAPC   H6X 4386   0.164   5.873   5.707 -1.4011  1.2430  1.6102
   58SAPC   H6Y 4387   0.329   5.951   5.712 -0.1813  0.2830 -1.0993
   58SAPC   C37 4388   0.168   6.076   5.627 -0.1759  0.4551  0.0069
   58SAPC   H7X 4389   0.204   6.171   5.670 -1.6169  1.0499 -0.0489
   58SAPC   H7Y 4390   0.057   6.080   5.626 -0.1657  0.6492 -0.2388
   58SAPC   C38 4391   0.231   6.055   5.492  0.2021 -0.3418 -0.4138
   58SAPC   H8X 4392   0.341   6.071   5.500  0.2897 -1.6490  3.5597
   58SAPC   H8Y 4393   0.195   6.142   5.433 -0.5300  0.2738  0.9016
   58SAPC   C39 4394   0.191   5.930   5.420 -0.8541  0.4136  0.3360
   58SAPC   H9X 4395   0.080   5.921   5.426 -0.8875  1.3273  1.4616
   58SAPC   H9Y 4396   0.228   5.831   5.455 -1.1566  0.2107  0.0928
   58SAPC  C310 4397   0.218   5.948   5.269 -0.0146 -0.1108  0.2210
   58SAPC  H10X 4398   0.325   5.933   5.243  0.1142 -0.7354  1.0693
   58SAPC  H10Y 4399   0.168   6.038   5.228 -1.8468 -0.5045  1.4732
   58SAPC  C311 4400   0.162   5.826   5.192  0.3112  1.0166 -0.1035
   58SAPC  H11X 4401   0.053   5.825   5.216  0.6435 -2.3051  1.8049
   58SAPC  H11Y 4402   0.205   5.727   5.217 -0.9504  0.3299 -0.5288
   58SAPC  C312 4403   0.164   5.859   5.042 -0.0218  0.6276 -0.3873
   58SAPC  H12X 4404   0.131   5.964   5.028  1.0994  0.6680 -3.2698
   58SAPC  H12Y 4405   0.092   5.804   4.978 -3.1582  1.4347  2.1302
   58SAPC  C313 4406   0.297   5.866   4.971 -0.2826  0.1946  0.0111
   58SAPC  H13X 4407   0.384   5.901   5.031  0.2346 -2.5244  0.9594
   58SAPC  H13Y 4408   0.278   5.934   4.885 -0.7003  0.0635 -0.0012
   58SAPC  C314 4409   0.350   5.729   4.921  0.6868  0.0125 -0.3771
   58SAPC  H14X 4410   0.275   5.692   4.847  1.7467 -0.5336 -1.2025
   58SAPC  H14Y 4411   0.356   5.658   5.006 -3.6083  0.1543  0.2696
   58SAPC  C315 4412   0.478   5.731   4.840 -0.6135 -1.0914 -0.2010
   58SAPC  H15X 4413   0.505   5.629   4.805  2.6197 -0.3786 -0.1046
   58SAPC  H15Y 4414   0.573   5.758   4.890 -0.7660  0.1915 -0.5723
   58SAPC  C316 4415   0.483   5.833   4.723 -0.1077  0.3198 -0.0950
   58SAPC  H16X 4416   0.396   5.816   4.656 -0.2647 -0.0595  0.2022
   58SAPC  H16Y 4417   0.572   5.809   4.662 -0.7892  0.6378 -1.2551
   58SAPC  C317 4418   0.510   5.982   4.751 -0.4133  0.7688 -0.6594
   58SAPC  H17X 4419   0.606   5.990   4.807 -0.9103 -0.6293  0.4447
   58SAPC  H17Y 4420   0.427   6.034   4.803 -1.9131 -0.8810 -1.3060
   58SAPC  C318 4421   0.516   6.052   4.613  0.5487 -0.2272 -0.2565
   58SAPC  H18X 4422   0.419   6.098   4.587  1.4841  1.9785 -0.1348
   58SAPC  H18Y 4423   0.555   5.980   4.538 -0.8267 -2.5652  1.1688
   58SAPC  H18Z 4424   0.595   6.131   4.620 -1.3940  1.9029 -1.0652
   59SAPC     N 4425   6.140   2.100   7.088  0.0030  0.1762 -0.3246
   59SAPC   C12 4426   6.027   2.007   7.028  0.1982  0.3461 -0.0717
   59SAPC  H12A 4427   5.926   2.032   7.057 -0.1440  0.7619 -1.5321
   59SAPC  H12B 4428   6.038   1.911   7.076 -1.5322  0.8379  1.4187
   59SAPC   C13 4429   6.119   2.123   7.236  0.0550 -0.9712 -0.3563
   59SAPC  H13A 4430   6.177   2.201   7.283  0.8361 -1.0373 -1.1770
   59SAPC  H13B 4431   6.020   2.163   7.247  0.0534 -0.5407 -1.7589
   59SAPC  H13C 4432   6.129   2.035   7.298 -1.0988  0.0311  1.3276
   59SAPC   C14 4433   6.270   2.038   7.060 -0.4714 -0.0140  0.6078
   59SAPC  H14A 4434   6.278   1.939   7.101  0.7532 -0.8683 -1.4948
   59SAPC  H14B 4435   6.290   2.030   6.954  3.0044 -0.9828  1.2055
   59SAPC  H14C 4436   6.343   2.113   7.089 -2.4644  2.5699 -0.6270
   59SAPC   C15 4437   6.130   2.234   7.027  0.2887 -0.0868  0.4700
   59SAPC  H15A 4438   6.137   2.217   6.920  0.9675  1.0261  0.3150
   59SAPC  H15B 4439   6.036   2.283   7.047  0.5280  0.9262 -0.7631
   59SAPC  H15C 4440   6.209   2.305   7.048 -0.2538  0.7963 -0.3727
   59SAPC   C11 4441   6.027   1.984   6.868  0.1435 -0.2522 -0.5984
   59SAPC  H11A 4442   5.964   1.894   6.859 -1.2969  0.7664 -1.1134
   59SAPC  H11B 4443   6.131   1.962   6.837 -0.0679 -1.3345 -0.5841
   59SAPC     P 4444   5.819   2.108   6.767 -0.0711  0.1205 -0.3062
   59SAPC   O13 4445   5.745   2.121   6.898  0.1076  0.5918  0.0180
   59SAPC   O14 4446   5.804   2.223   6.681  0.3033  0.6087 -0.0962
   59SAPC   O12 4447   5.976   2.089   6.785 -0.2348 -0.0190 -0.2760
   59SAPC   O11 4448   5.759   1.976   6.691  0.3465 -0.5770 -1.0584
   59SAPC    C1 4449   5.840   1.930   6.582  0.1342 -0.4996 -0.5948
   59SAPC    HA 4450   5.950   1.919   6.598  0.2631 -0.3019 -1.3290
   59SAPC    HB 4451   5.807   1.826   6.560  1.7274 -1.0534 -0.5068
   59SAPC    C2 4452   5.806   1.999   6.451  0.4637  0.0755 -0.0642
   59SAPC    HS 4453   5.865   2.093   6.463 -0.5708  0.7379 -0.1128
   59SAPC   O21 4454   5.662   2.020   6.427  0.0660 -0.1603 -0.1398
   59SAPC   C21 4455   5.647   2.122   6.345  0.9540 -0.1220  0.1771
   59SAPC   O22 4456   5.738   2.198   6.327 -0.3869 -0.1614 -0.1849
   59SAPC   C22 4457   5.508   2.140   6.288  0.0135 -0.5451 -0.0135
   59SAPC   H2R 4458   5.438   2.119   6.372 -3.1380 -1.2729 -2.6037
   59SAPC   H2S 4459   5.496   2.244   6.250  0.3128 -0.1554  0.9283
   59SAPC    C3 4460   5.857   1.914   6.333  0.4431 -0.1534  0.9264
   59SAPC    HX 4461   5.786   1.828   6.332 -0.1096  0.2931  0.7562
   59SAPC    HY 4462   5.956   1.870   6.355  0.3627 -1.9082 -1.7642
   59SAPC   O31 4463   5.855   1.981   6.208 -0.3702  0.0830 -0.0286
   59SAPC   C31 4464   5.960   2.051   6.175  0.4499  0.2161 -0.6514
   59SAPC   O32 4465   6.065   2.065   6.234  0.3151  0.3656  0.6252
   59SAPC   C32 4466   5.931   2.114   6.039 -0.4292 -0.4078  0.1003
   59SAPC   H2X 4467   5.849   2.183   6.066  1.6446  1.5236  1.8915
   59SAPC   H2Y 4468   5.888   2.050   5.959 -0.8282  0.4169 -0.3476
   59SAPC   C23 4469   5.463   2.033   6.181  0.0486  0.1463 -0.4224
   59SAPC   H3R 4470   5.353   2.043   6.164 -0.5698  1.5612  3.3751
   59SAPC   H3S 4471   5.469   1.940   6.241  0.0727  1.8385  2.3981
   59SAPC   C24 4472   5.535   2.027   6.049 -0.0710  0.7638  0.0851
   59SAPC   H4R 4473   5.502   1.928   6.012 -0.3921  0.2087  1.7688
   59SAPC   H4S 4474   5.646   2.025   6.057 -0.2094 -0.7696  2.3841
   59SAPC   C25 4475   5.502   2.139   5.963  0.7567  0.2582 -0.0945
   59SAPC   H5R 4476   5.541   2.233   6.005  0.6672  0.3320 -0.1756
   59SAPC   C26 4477   5.428   2.143   5.853 -0.6432  0.2206  0.3153
   59SAPC   H6R 4478   5.402   2.234   5.796 -1.0085 -0.1088 -0.0501
   59SAPC   C27 4479   5.352   2.023   5.783 -0.0172  0.2374 -0.0040
   59SAPC   H7R 4480   5.400   1.923   5.793 -0.8342 -0.2344 -0.7436
   59SAPC   H7S 4481   5.362   2.042   5.674  3.7471 -1.1101 -0.0537
   59SAPC   C28 4482   5.212   2.025   5.841  0.1934 -0.2324  0.0996
   59SAPC   H8R 4483   5.208   2.078   5.937  0.1039 -0.7451  0.3784
   59SAPC   C29 4484   5.103   1.988   5.767  0.2817 -0.1509  0.0802
   59SAPC   H9R 4485   5.005   1.994   5.816  0.9892  0.0915  1.5292
   59SAPC  C210 4486   5.099   1.935   5.624  0.0617 -0.0342  0.1962
   59SAPC  H10R 4487   5.057   1.832   5.632  0.1917  0.0251  2.4228
   59SAPC  H10S 4488   5.203   1.933   5.585  0.4818  0.1275  1.2681
   59SAPC  C211 4489   5.015   2.020   5.538  0.0355 -0.3492  0.4044
   59SAPC  H11R 4490   4.938   2.088   5.577  1.0408  0.3040  1.3150
   59SAPC  C212 4491   5.012   2.004   5.401 -0.0045  0.1637  0.4326
   59SAPC  H12R 4492   4.975   2.085   5.337  1.3312 -0.4526 -1.2034
   59SAPC  C213 4493   5.109   1.909   5.333 -0.3891 -0.2441  0.2715
   59SAPC  H13R 4494   5.068   1.842   5.255  5.5873 -1.2770 -2.4841
   59SAPC  H13S 4495   5.132   1.822   5.397  0.1339  0.1489  0.6289
   59SAPC  C214 4496   5.236   1.966   5.271 -0.0401  0.2473  0.2980
   59SAPC  H14R 4497   5.318   1.966   5.345 -0.7544 -1.7368  1.1693
   59SAPC  C215 4498   5.247   2.008   5.146  0.0926 -0.5461  0.0595
   59SAPC  H15R 4499   5.347   2.032   5.107 -0.0745 -0.4357 -0.3110
   59SAPC  C216 4500   5.134   2.011   5.053 -0.1731  0.6912  0.4636
   59SAPC  H16R 4501   5.105   2.114   5.022  1.6051  0.5947 -1.7845
   59SAPC  H16S 4502   5.046   1.966   5.102 -0.4815  1.4743  0.6397
   59SAPC  C217 4503   5.153   1.945   4.911  0.5603 -0.5326  0.5754
   59SAPC  H17R 4504   5.222   2.012   4.856 -0.6026 -1.5595 -2.3726
   59SAPC  H17S 4505   5.058   1.951   4.853  0.6948 -0.9943  0.3042
   59SAPC  C218 4506   5.209   1.794   4.917  0.2064 -0.2211 -0.5395
   59SAPC  H18R 4507   5.131   1.729   4.871  0.7078 -2.3859  1.4744
   59SAPC  H18S 4508   5.222   1.764   5.023 -0.1102  2.0631  0.2153
   59SAPC  C219 4509   5.335   1.789   4.835  0.2683  0.3222 -0.2030
   59SAPC  H19R 4510   5.407   1.844   4.899 -2.5174  1.0374  2.5974
   59SAPC  H19S 4511   5.310   1.847   4.744  0.8536  0.8088 -0.0556
   59SAPC  C220 4512   5.398   1.658   4.783  0.2143  0.1956 -1.0289
   59SAPC  H20R 4513   5.396   1.577   4.859 -0.9750 -0.1313 -1.3868
   59SAPC  H20S 4514   5.501   1.676   4.746 -0.3290  2.0643 -1.7430
   59SAPC  H20T 4515   5.344   1.616   4.696  2.5325 -0.7708 -2.0907
   59SAPC   C33 4516   6.036   2.208   5.963  0.2753  0.3252  0.5636
   59SAPC   H3X 4517   6.090   2.265   6.042  0.9345 -1.0174  1.1123
   59SAPC   H3Y 4518   5.978   2.286   5.909 -0.4443 -0.3314  0.3761
   59SAPC   C34 4519   6.135   2.140   5.878  0.0248  0.3257  0.1892
   59SAPC   H4X 4520   6.192   2.067   5.939 -2.3244 -0.6595  1.3103
   59SAPC   H4Y 4521   6.206   2.212   5.833  1.2733 -0.3386  1.0351
   59SAPC   C35 4522   6.069   2.062   5.762  0.0706  0.0897  0.4437
   59SAPC   H5X 4523   6.017   1.971   5.799  0.6683 -0.4083  0.0662
   59SAPC   H5Y 4524   6.145   2.020   5.693 -1.5330 -0.5628 -0.9775
   59SAPC   C36 4525   5.963   2.147   5.685  0.3886 -0.4742 -0.0267
   59SAPC   H6X 4526   6.006   2.250   5.682  0.6858 -0.3443  3.5705
   59SAPC   H6Y 4527   5.866   2.150   5.739  0.7384 -0.7393  0.6398
   59SAPC   C37 4528   5.946   2.074   5.546 -0.4612 -0.2435  0.1234
   59SAPC   H7X 4529   5.908   1.970   5.556 -3.4622  0.5668 -1.3964
   59SAPC   H7Y 4530   6.044   2.048   5.500  0.1881 -0.0468  1.3607
   59SAPC   C38 4531   5.855   2.151   5.452 -0.2271 -0.4411  0.7827
   59SAPC   H8X 4532   5.883   2.259   5.446 -0.5226 -0.4086 -0.0652
   59SAPC   H8Y 4533   5.752   2.149   5.493 -0.3645 -0.5423  0.4266
   59SAPC   C39 4534   5.845   2.104   5.304 -0.4747  0.0139 -0.1419
   59SAPC   H9X 4535   5.844   1.993   5.307 -2.2963  0.0123  1.2179
   59SAPC   H9Y 4536   5.942   2.139   5.263  0.0322 -0.5342  0.5660
   59SAPC  C310 4537   5.722   2.159   5.235 -0.0138  0.1608  0.8754
   59SAPC  H10X 4538   5.727   2.270   5.238 -1.9620  0.3221 -0.1762
   59SAPC  H10Y 4539   5.635   2.119   5.292  0.3091 -0.5920  0.8425
   59SAPC  C311 4540   5.703   2.114   5.090  0.0628  1.2555  0.4154
   59SAPC  H11X 4541   5.638   2.024   5.096  2.4920 -0.5046  2.9862
   59SAPC  H11Y 4542   5.805   2.092   5.051 -0.8061  2.4490 -2.7967
   59SAPC  C312 4543   5.657   2.234   4.994 -0.3747  0.2289  0.5680
   59SAPC  H12X 4544   5.557   2.273   5.021 -1.9375 -2.1922 -1.3522
   59SAPC  H12Y 4545   5.644   2.193   4.892 -0.3624  0.6982  0.3751
   59SAPC  C313 4546   5.760   2.338   4.984 -0.3449 -0.0057 -0.9652
   59SAPC  H13X 4547   5.854   2.283   4.962 -0.3993 -0.8899  0.8851
   59SAPC  H13Y 4548   5.783   2.383   5.083  0.2121 -2.3492  0.0271
   59SAPC  C314 4549   5.722   2.449   4.876 -0.3305 -0.0432 -0.3744
   59SAPC  H14X 4550   5.634   2.498   4.922 -1.1736 -1.6637 -0.1996
   59SAPC  H14Y 4551   5.689   2.395   4.785 -0.5324  0.4912 -0.6212
   59SAPC  C315 4552   5.829   2.548   4.840  0.0950 -0.0413  0.3974
   59SAPC  H15X 4553   5.885   2.517   4.750 -0.8287 -2.3082  0.5451
   59SAPC  H15Y 4554   5.900   2.554   4.926  0.1616  0.0592  0.3357
   59SAPC  C316 4555   5.770   2.689   4.819  0.7325 -0.2194  0.4226
   59SAPC  H16X 4556   5.747   2.735   4.917  1.2246  0.0886  0.3982
   59SAPC  H16Y 4557   5.679   2.684   4.754 -0.5097  1.1319  1.9844
   59SAPC  C317 4558   5.876   2.779   4.755  0.5195 -0.4724 -0.0401
   59SAPC  H17X 4559   5.912   2.738   4.658 -1.7701 -0.2846 -1.0399
   59SAPC  H17Y 4560   5.956   2.782   4.832 -1.3158 -0.6515  1.9403
   59SAPC  C318 4561   5.821   2.923   4.740 -0.0225  0.0816  0.0505
   59SAPC  H18X 4562   5.738   2.930   4.666  0.9994  0.0401 -1.1472
   59SAPC  H18Y 4563   5.900   2.992   4.704  0.1814 -0.3493 -0.3477
   59SAPC  H18Z 4564   5.785   2.957   4.839  2.6230 -1.6626  1.7252
   60SAPC     N 4565   5.327   3.373   7.141 -0.4393 -0.2854 -0.2863
   60SAPC   C12 4566   5.418   3.263   7.208 -1.2219  0.4351  0.1473
   60SAPC  H12A 4567   5.376   3.214   7.294  0.2117 -1.9438 -0.3969
   60SAPC  H12B 4568   5.510   3.306   7.243 -0.5767 -0.7111 -0.0651
   60SAPC   C13 4569   5.293   3.484   7.241 -0.1675  0.5348  0.1137
   60SAPC  H13A 4570   5.242   3.571   7.201 -0.1322  0.3045 -0.4334
   60SAPC  H13B 4571   5.227   3.454   7.321 -1.1103  1.5427 -0.2641
   60SAPC  H13C 4572   5.389   3.513   7.281  0.6749 -2.1959  0.2804
   60SAPC   C14 4573   5.399   3.448   7.025 -0.3557  0.6304 -0.4424
   60SAPC  H14A 4574   5.411   3.373   6.948 -1.3118 -2.0869  1.8905
   60SAPC  H14B 4575   5.338   3.532   6.995  1.8805  2.9038  0.9084
   60SAPC  H14C 4576   5.495   3.489   7.052  1.4230 -1.8756 -2.4689
   60SAPC   C15 4577   5.201   3.310   7.092 -0.3434 -0.2242 -0.3610
   60SAPC  H15A 4578   5.146   3.254   7.166  0.1165 -0.6879 -0.3675
   60SAPC  H15B 4579   5.136   3.383   7.044  1.0878  1.6792  0.4873
   60SAPC  H15C 4580   5.223   3.245   7.009 -1.1462  0.7323 -1.3554
   60SAPC   C11 4581   5.458   3.144   7.109 -0.3605 -1.0587 -0.9511
   60SAPC  H11A 4582   5.367   3.095   7.069 -1.0625  1.5731 -2.8980
   60SAPC  H11B 4583   5.526   3.074   7.161  0.1088  0.8446  1.1867
   60SAPC     P 4584   5.581   3.114   6.882  0.1477 -0.0552  0.4007
   60SAPC   O13 4585   5.700   3.180   6.816  0.3895  0.2644  0.9841
   60SAPC   O14 4586   5.598   2.976   6.924  0.4115  0.0422  0.7480
   60SAPC   O12 4587   5.532   3.199   7.001  0.0679  0.1619  0.5948
   60SAPC   O11 4588   5.451   3.119   6.790 -0.1460  0.4813 -0.5128
   60SAPC    C1 4589   5.407   3.244   6.741 -0.0632  1.0178 -0.3381
   60SAPC    HA 4590   5.312   3.264   6.794  0.3479  3.2791 -0.3679
   60SAPC    HB 4591   5.461   3.333   6.777 -0.4353  0.3853  1.8939
   60SAPC    C2 4592   5.401   3.250   6.582 -0.1135 -0.0959  0.4649
   60SAPC    HS 4593   5.324   3.327   6.560 -0.9430 -1.0467  0.0162
   60SAPC   O21 4594   5.367   3.128   6.523  0.3063 -0.4740  0.6859
   60SAPC   C21 4595   5.243   3.077   6.541 -0.0104 -0.0683  0.2613
   60SAPC   O22 4596   5.143   3.136   6.583 -0.6385 -0.1593 -0.0452
   60SAPC   C22 4597   5.238   2.937   6.492 -0.0210  0.3702  0.1084
   60SAPC   H2R 4598   5.329   2.910   6.435  0.1090 -0.9497  0.8897
   60SAPC   H2S 4599   5.243   2.875   6.584 -0.2524  1.6370  0.9977
   60SAPC    C3 4600   5.542   3.294   6.533  0.1082  0.3033 -0.1114
   60SAPC    HX 4601   5.599   3.201   6.552 -2.3125 -0.7574  2.6755
   60SAPC    HY 4602   5.582   3.375   6.598  0.1621  0.3393 -0.1886
   60SAPC   O31 4603   5.521   3.336   6.399  0.2767 -0.2803 -0.0674
   60SAPC   C31 4604   5.627   3.304   6.321 -0.4819  1.0111 -0.3878
   60SAPC   O32 4605   5.730   3.253   6.362  0.2920 -0.7298 -0.3566
   60SAPC   C32 4606   5.600   3.336   6.172  0.7667  0.0924 -0.3797
   60SAPC   H2X 4607   5.572   3.444   6.171 -0.5469 -0.2133 -2.8784
   60SAPC   H2Y 4608   5.529   3.262   6.131  2.7179 -0.9464 -2.0587
   60SAPC   C23 4609   5.111   2.900   6.409  0.3183  0.0986 -0.2336
   60SAPC   H3R 4610   5.020   2.931   6.465 -0.4124  0.8886 -1.7757
   60SAPC   H3S 4611   5.091   2.791   6.401 -0.9500  0.1485  1.6063
   60SAPC   C24 4612   5.096   2.973   6.274 -0.2914 -0.7856  0.9624
   60SAPC   H4R 4613   5.127   3.077   6.295  1.0202 -1.4398  2.5212
   60SAPC   H4S 4614   4.993   2.982   6.235 -0.0082  2.1365  0.6766
   60SAPC   C25 4615   5.188   2.903   6.173  0.2972  0.6397  0.3666
   60SAPC   H5R 4616   5.193   2.798   6.205  1.6623  1.2734  2.4222
   60SAPC   C26 4617   5.268   2.950   6.078 -0.0636 -0.2357  0.4976
   60SAPC   H6R 4618   5.326   2.872   6.026 -2.0188 -1.9129  0.6802
   60SAPC   C27 4619   5.300   3.088   6.018  0.0455 -0.1876  0.2786
   60SAPC   H7R 4620   5.314   3.154   6.106 -0.5290  2.3619 -1.4292
   60SAPC   H7S 4621   5.208   3.132   5.974  1.6089  0.4605 -2.5825
   60SAPC   C28 4622   5.416   3.114   5.919 -0.3698 -0.0323  0.0684
   60SAPC   H8R 4623   5.513   3.134   5.967 -1.3717  1.2970  1.6483
   60SAPC   C29 4624   5.404   3.101   5.790  0.0997  0.8366 -0.4674
   60SAPC   H9R 4625   5.493   3.101   5.725  0.3132  1.7001 -0.1992
   60SAPC  C210 4626   5.285   3.064   5.716  0.0615  0.9954  0.9818
   60SAPC  H10R 4627   5.261   3.149   5.649 -4.1230 -0.1998  0.7073
   60SAPC  H10S 4628   5.200   3.036   5.781 -2.1604 -1.0475 -2.4504
   60SAPC  C211 4629   5.277   2.949   5.621 -1.0436 -0.1712  0.7889
   60SAPC  H11R 4630   5.226   2.860   5.660 -1.6692  0.0242  0.4373
   60SAPC  C212 4631   5.335   2.935   5.495 -0.5640  0.7873 -0.2555
   60SAPC  H12R 4632   5.301   2.840   5.449 -2.2309  1.2031  0.0484
   60SAPC  C213 4633   5.429   3.038   5.423  0.5684 -0.0153 -0.5030
   60SAPC  H13R 4634   5.499   2.979   5.361  0.5318 -1.1859  0.5291
   60SAPC  H13S 4635   5.488   3.092   5.499  1.4403  0.1008 -1.2464
   60SAPC  C214 4636   5.352   3.127   5.329 -0.3051 -0.4812 -0.1335
   60SAPC  H14R 4637   5.284   3.200   5.375 -0.1992  0.6710 -1.7554
   60SAPC  C215 4638   5.371   3.145   5.193  0.3791 -0.1751 -1.1399
   60SAPC  H15R 4639   5.304   3.207   5.131  0.8783 -0.1665 -1.6817
   60SAPC  C216 4640   5.469   3.071   5.103 -0.2794 -0.1510 -0.5419
   60SAPC  H16R 4641   5.476   2.972   5.152 -1.6359  0.9200  2.0218
   60SAPC  H16S 4642   5.571   3.112   5.117 -0.2934 -0.8381  2.2054
   60SAPC  C217 4643   5.442   3.087   4.949  0.1316  0.3687  0.2981
   60SAPC  H17R 4644   5.532   3.053   4.894  1.3233  1.8861  1.2411
   60SAPC  H17S 4645   5.431   3.193   4.921  0.2261  0.2906 -0.0470
   60SAPC  C218 4646   5.312   3.018   4.900  0.5390  0.0352  0.4082
   60SAPC  H18R 4647   5.311   3.043   4.792 -0.3750 -3.8981 -0.6564
   60SAPC  H18S 4648   5.223   3.063   4.949  1.1150  2.1612 -0.3839
   60SAPC  C219 4649   5.314   2.869   4.915 -0.2028 -0.7465  0.1944
   60SAPC  H19R 4650   5.314   2.826   5.017 -1.1337 -1.0103  0.0958
   60SAPC  H19S 4651   5.406   2.828   4.869  2.1467  3.3090  0.8289
   60SAPC  C220 4652   5.195   2.812   4.839  0.0213 -0.1110  0.7318
   60SAPC  H20R 4653   5.095   2.827   4.886 -0.0400  0.2313  0.4926
   60SAPC  H20S 4654   5.211   2.702   4.830 -1.8623 -0.2325 -2.8694
   60SAPC  H20T 4655   5.202   2.867   4.743 -0.0359  2.9292  2.3549
   60SAPC   C33 4656   5.723   3.312   6.091 -0.3506 -0.0348 -0.2175
   60SAPC   H3X 4657   5.745   3.203   6.094 -0.8159 -0.1589 -1.0316
   60SAPC   H3Y 4658   5.811   3.369   6.130 -0.1552 -0.4739 -0.0089
   60SAPC   C34 4659   5.700   3.343   5.941 -0.3064 -0.8401  0.0223
   60SAPC   H4X 4660   5.693   3.453   5.932 -1.1646 -1.0467 -3.0433
   60SAPC   H4Y 4661   5.601   3.299   5.915 -1.5391  1.5806  0.3314
   60SAPC   C35 4662   5.806   3.298   5.842 -0.4325  0.1260  0.0943
   60SAPC   H5X 4663   5.797   3.189   5.823  0.5875 -0.3893  2.2284
   60SAPC   H5Y 4664   5.898   3.316   5.902 -1.5912 -1.0575  2.3731
   60SAPC   C36 4665   5.795   3.384   5.718 -0.3794  0.3759  0.1557
   60SAPC   H6X 4666   5.884   3.361   5.656 -1.9085 -0.8086 -1.7390
   60SAPC   H6Y 4667   5.796   3.493   5.740 -0.2341  0.0660  1.8390
   60SAPC   C37 4668   5.675   3.352   5.631  0.1223  0.0861 -0.0592
   60SAPC   H7X 4669   5.573   3.364   5.673 -0.8508 -0.2259 -2.2029
   60SAPC   H7Y 4670   5.684   3.241   5.635 -1.5847 -0.0813 -0.2132
   60SAPC   C38 4671   5.670   3.420   5.491  0.7053  0.2067 -0.3874
   60SAPC   H8X 4672   5.630   3.523   5.507  0.1162  0.0326 -0.7279
   60SAPC   H8Y 4673   5.598   3.371   5.422  0.7247  0.3883 -0.5412
   60SAPC   C39 4674   5.803   3.441   5.419  0.3011  0.2643  0.4757
   60SAPC   H9X 4675   5.874   3.358   5.437 -0.3026 -0.4120 -0.1887
   60SAPC   H9Y 4676   5.861   3.526   5.462  0.4993 -0.0991  0.9341
   60SAPC  C310 4677   5.783   3.467   5.270 -0.4173  0.2473 -0.1138
   60SAPC  H10X 4678   5.877   3.489   5.215  0.1243 -2.6112 -0.4714
   60SAPC  H10Y 4679   5.718   3.557   5.261 -1.0177  0.0244  1.6398
   60SAPC  C311 4680   5.727   3.352   5.188 -0.3867 -0.4198  0.3385
   60SAPC  H11X 4681   5.621   3.334   5.215 -0.6516 -0.0664 -0.4405
   60SAPC  H11Y 4682   5.773   3.254   5.211 -1.6951 -0.9488  0.7624
   60SAPC  C312 4683   5.731   3.359   5.032  0.5202  0.0231 -0.2296
   60SAPC  H12X 4684   5.703   3.261   4.988  1.7307  0.5780 -2.3604
   60SAPC  H12Y 4685   5.838   3.373   5.006  0.1432 -0.7140 -2.4158
   60SAPC  C313 4686   5.653   3.476   4.968 -0.0933 -0.0148  0.0110
   60SAPC  H13X 4687   5.695   3.571   5.007 -1.2538  0.3953  0.3032
   60SAPC  H13Y 4688   5.545   3.465   4.995 -0.8205  2.1729 -1.7569
   60SAPC  C314 4689   5.653   3.459   4.817 -0.3886  0.0380 -0.1076
   60SAPC  H14X 4690   5.601   3.552   4.785  0.1509  0.0047 -1.1104
   60SAPC  H14Y 4691   5.589   3.379   4.774 -0.5444  1.5297 -2.8725
   60SAPC  C315 4692   5.791   3.441   4.751  0.0452  0.1281 -0.0463
   60SAPC  H15X 4693   5.836   3.341   4.770 -0.6877 -0.3178 -0.6085
   60SAPC  H15Y 4694   5.863   3.519   4.784 -1.2859  1.1402  0.5815
   60SAPC  C316 4695   5.790   3.441   4.597 -0.1925 -0.5461  0.3703
   60SAPC  H16X 4696   5.708   3.381   4.550 -1.8123  3.1131 -1.8743
   60SAPC  H16Y 4697   5.886   3.392   4.572 -0.9611 -2.5862  1.1167
   60SAPC  C317 4698   5.778   3.580   4.529 -0.5405 -0.4103  0.2236
   60SAPC  H17X 4699   5.871   3.640   4.534 -0.9582  0.4206 -1.2869
   60SAPC  H17Y 4700   5.692   3.639   4.568 -0.5846 -0.4396  0.1706
   60SAPC  C318 4701   5.744   3.553   4.377 -0.4163 -0.2406  0.1350
   60SAPC  H18X 4702   5.827   3.495   4.330  0.3792  1.8826 -1.2029
   60SAPC  H18Y 4703   5.737   3.643   4.312  2.6773 -0.1173 -0.2029
   60SAPC  H18Z 4704   5.649   3.496   4.371  0.0002 -1.0724  1.0350
   61SAPC     N 4705   4.777   1.797   7.075 -1.0068 -0.2334 -0.1871
   61SAPC   C12 4706   4.724   1.938   7.092 -0.6770  0.0412  0.3047
   61SAPC  H12A 4707   4.800   2.013   7.077 -1.8578  1.1536 -0.4016
   61SAPC  H12B 4708   4.679   1.955   7.189  1.0503  2.8894  0.7228
   61SAPC   C13 4709   4.676   1.695   7.098 -0.0535 -0.1458 -0.1907
   61SAPC  H13A 4710   4.584   1.723   7.048 -1.0611  0.0238  1.6485
   61SAPC  H13B 4711   4.705   1.597   7.063  1.0793 -0.4404  1.4844
   61SAPC  H13C 4712   4.656   1.684   7.204 -1.9614  1.3319 -0.3335
   61SAPC   C14 4713   4.833   1.781   6.930 -0.1224 -0.3644  0.1421
   61SAPC  H14A 4714   4.873   1.682   6.913  0.3635 -0.0845 -0.3908
   61SAPC  H14B 4715   4.742   1.797   6.875 -0.1482 -1.1443 -0.0584
   61SAPC  H14C 4716   4.913   1.850   6.908 -1.5762  1.3709  0.1132
   61SAPC   C15 4717   4.894   1.781   7.165 -1.1313  0.1596 -0.2304
   61SAPC  H15A 4718   4.945   1.689   7.138  0.6936  1.3143 -0.9091
   61SAPC  H15B 4719   4.964   1.860   7.142  2.0773 -1.7570  1.9653
   61SAPC  H15C 4720   4.870   1.791   7.270  0.4045  0.6363  0.1088
   61SAPC   C11 4721   4.620   1.992   6.989  0.7612 -0.0780  0.1206
   61SAPC  H11A 4722   4.662   2.008   6.888 -2.9496 -0.9928 -1.7238
   61SAPC  H11B 4723   4.597   2.099   7.007  0.0640  0.2956 -2.5502
   61SAPC     P 4724   4.361   1.954   7.026 -0.0066  0.3081  0.1888
   61SAPC   O13 4725   4.259   1.849   7.005 -0.0711  0.8376  0.8131
   61SAPC   O14 4726   4.370   2.010   7.164 -0.0065 -0.0672  0.2113
   61SAPC   O12 4727   4.505   1.907   6.974 -0.4598  0.3544  0.6224
   61SAPC   O11 4728   4.314   2.079   6.934 -0.2334  0.2996  0.6563
   61SAPC    C1 4729   4.241   2.071   6.810  1.3039  0.5083 -0.1163
   61SAPC    HA 4730   4.155   2.002   6.819  1.5801  0.2686  0.6724
   61SAPC    HB 4731   4.198   2.170   6.783  1.4297  0.4343 -0.5976
   61SAPC    C2 4732   4.323   2.027   6.687  0.3215  0.2330 -0.7447
   61SAPC    HS 4733   4.357   1.921   6.694 -0.6021  0.0140  1.2684
   61SAPC   O21 4734   4.441   2.106   6.671 -0.0602 -0.4600 -0.1745
   61SAPC   C21 4735   4.555   2.053   6.625  0.1400  0.2230 -0.2890
   61SAPC   O22 4736   4.575   1.937   6.608  0.3128  0.8366  0.4770
   61SAPC   C22 4737   4.647   2.167   6.583 -0.2292  0.2003  0.0013
   61SAPC   H2R 4738   4.599   2.215   6.495 -2.3375  0.7715  1.3969
   61SAPC   H2S 4739   4.635   2.236   6.669 -1.4095  2.0169 -1.5572
   61SAPC    C3 4740   4.224   2.026   6.562 -0.4162  0.0321 -0.3782
   61SAPC    HX 4741   4.184   2.129   6.559  0.7273  0.4821 -0.7154
   61SAPC    HY 4742   4.145   1.950   6.583  0.7920 -0.9216  0.8209
   61SAPC   O31 4743   4.302   2.004   6.443  0.2907 -0.2877  0.1905
   61SAPC   C31 4744   4.325   1.882   6.409  0.1836 -0.0699  0.5394
   61SAPC   O32 4745   4.288   1.780   6.462 -0.5206  0.2852 -0.1466
   61SAPC   C32 4746   4.431   1.882   6.300 -0.5335  0.2727 -0.0821
   61SAPC   H2X 4747   4.529   1.870   6.351 -0.4309  0.5280 -0.2182
   61SAPC   H2Y 4748   4.426   1.985   6.260  0.2244  0.6094  0.6596
   61SAPC   C23 4749   4.795   2.125   6.554 -0.6600  0.8741 -0.2068
   61SAPC   H3R 4750   4.789   2.043   6.479 -1.1577  1.2486 -0.5880
   61SAPC   H3S 4751   4.840   2.088   6.648  1.0065 -0.0499 -1.3198
   61SAPC   C24 4752   4.890   2.237   6.499  0.1765  0.6747  0.3139
   61SAPC   H4R 4753   4.824   2.325   6.516 -1.4542 -0.7342  1.5470
   61SAPC   H4S 4754   4.883   2.239   6.388 -0.7059  0.6990  0.3634
   61SAPC   C25 4755   5.036   2.235   6.541  0.8282  0.0981  0.9520
   61SAPC   H5R 4756   5.063   2.322   6.603 -1.6770 -0.5548  3.1510
   61SAPC   C26 4757   5.137   2.156   6.506  0.0743  0.3031 -0.0732
   61SAPC   H6R 4758   5.233   2.183   6.555 -0.5897  1.0801  0.8401
   61SAPC   C27 4759   5.134   2.034   6.417  0.4589 -0.2095  0.0323
   61SAPC   H7R 4760   5.147   2.057   6.309 -1.0893  1.4134  0.1454
   61SAPC   H7S 4761   5.027   2.003   6.423  0.0453  1.2621  1.0996
   61SAPC   C28 4762   5.226   1.920   6.451  0.4099 -1.1237 -0.3161
   61SAPC   H8R 4763   5.304   1.942   6.526  1.2904 -0.7443 -1.3076
   61SAPC   C29 4764   5.220   1.800   6.396  0.0499 -0.4994  0.5953
   61SAPC   H9R 4765   5.294   1.728   6.432 -0.0756 -0.8237  0.2084
   61SAPC  C210 4766   5.121   1.761   6.295  0.6274 -0.0111 -0.4148
   61SAPC  H10R 4767   5.023   1.802   6.325  0.1553 -1.4822  0.1777
   61SAPC  H10S 4768   5.115   1.650   6.302 -0.4332  0.1391  2.1984
   61SAPC  C211 4769   5.172   1.807   6.162 -0.9183 -0.1236  0.2234
   61SAPC  H11R 4770   5.175   1.917   6.156  0.3839 -0.2373 -1.8575
   61SAPC  C212 4771   5.227   1.733   6.065 -0.0460 -0.1070 -0.5431
   61SAPC  H12R 4772   5.252   1.788   5.973  3.1658  0.9768  0.8452
   61SAPC  C213 4773   5.237   1.577   6.064  0.1723 -0.2660 -0.6002
   61SAPC  H13R 4774   5.139   1.530   6.039  0.5074 -1.3976  0.1562
   61SAPC  H13S 4775   5.252   1.548   6.170 -1.2625  1.1043  0.0192
   61SAPC  C214 4776   5.347   1.535   5.964  0.0223 -0.1891 -0.0674
   61SAPC  H14R 4777   5.437   1.480   5.997  0.6958  1.6079  1.2014
   61SAPC  C215 4778   5.345   1.563   5.830 -0.6760 -0.0560  0.3177
   61SAPC  H15R 4779   5.425   1.529   5.764 -1.6810  0.1744 -1.0661
   61SAPC  C216 4780   5.229   1.624   5.758 -0.3796  0.1351 -0.1914
   61SAPC  H16R 4781   5.270   1.726   5.742 -1.1829  0.2568 -1.6456
   61SAPC  H16S 4782   5.139   1.633   5.822 -0.5273  0.4847 -0.4448
   61SAPC  C217 4783   5.191   1.558   5.627 -0.6668 -0.5805  0.5850
   61SAPC  H17R 4784   5.088   1.591   5.600 -0.4812 -0.2882  0.2228
   61SAPC  H17S 4785   5.172   1.449   5.637 -1.1627 -0.4178  1.4682
   61SAPC  C218 4786   5.279   1.592   5.509 -0.3362  0.3272 -0.4673
   61SAPC  H18R 4787   5.374   1.540   5.530  0.1531  0.8762 -1.2840
   61SAPC  H18S 4788   5.290   1.703   5.514 -1.8766  0.5263 -0.8726
   61SAPC  C219 4789   5.215   1.538   5.379  0.2781 -0.2520 -0.2596
   61SAPC  H19R 4790   5.106   1.559   5.380  0.0306 -1.2238 -2.4740
   61SAPC  H19S 4791   5.222   1.428   5.365 -1.2975  0.0041 -4.6981
   61SAPC  C220 4792   5.272   1.592   5.246  0.0390 -0.1584 -0.0315
   61SAPC  H20R 4793   5.383   1.593   5.244  0.0350 -0.6332 -0.6925
   61SAPC  H20S 4794   5.245   1.697   5.220  1.7266 -0.1069 -1.7751
   61SAPC  H20T 4795   5.239   1.526   5.163 -1.8232  0.2353  0.3515
   61SAPC   C33 4796   4.407   1.774   6.195  0.4827 -0.1244 -0.1517
   61SAPC   H3X 4797   4.381   1.677   6.242  4.8070 -0.1574  2.7682
   61SAPC   H3Y 4798   4.507   1.761   6.148  1.1338  0.2243  1.0886
   61SAPC   C34 4799   4.306   1.819   6.088  0.4996 -0.0808 -0.7258
   61SAPC   H4X 4800   4.321   1.927   6.068  0.8465  0.0023 -0.0181
   61SAPC   H4Y 4801   4.200   1.803   6.119 -0.1057  2.1968 -1.4698
   61SAPC   C35 4802   4.321   1.749   5.949  0.2144  0.2465 -0.5078
   61SAPC   H5X 4803   4.269   1.652   5.938  2.2905 -0.6544 -3.4169
   61SAPC   H5Y 4804   4.425   1.712   5.936  0.6134  1.4458 -0.8462
   61SAPC   C36 4805   4.285   1.824   5.822 -0.1715 -0.3806 -0.2226
   61SAPC   H6X 4806   4.344   1.918   5.822  0.3097 -0.6059  2.4708
   61SAPC   H6Y 4807   4.178   1.852   5.812  0.6244  3.1230 -0.1852
   61SAPC   C37 4808   4.333   1.758   5.692 -0.8040 -0.0034 -0.5569
   61SAPC   H7X 4809   4.265   1.672   5.673 -2.7490  1.7835 -2.2099
   61SAPC   H7Y 4810   4.441   1.733   5.687 -0.4470  1.2503  0.3001
   61SAPC   C38 4811   4.292   1.856   5.575 -0.0382 -0.4139 -0.8217
   61SAPC   H8X 4812   4.323   1.958   5.607 -2.1562 -0.5177  1.9830
   61SAPC   H8Y 4813   4.181   1.858   5.576 -0.0447  0.8037 -1.4696
   61SAPC   C39 4814   4.346   1.821   5.434 -0.7252 -0.5352  0.0316
   61SAPC   H9X 4815   4.342   1.710   5.422  0.8180 -0.4836 -1.4042
   61SAPC   H9Y 4816   4.449   1.863   5.435 -1.1528  0.8996  4.2181
   61SAPC  C310 4817   4.257   1.877   5.320 -0.0679 -0.1608 -0.4736
   61SAPC  H10X 4818   4.235   1.984   5.341 -2.7802 -0.7782  0.3154
   61SAPC  H10Y 4819   4.158   1.828   5.329 -0.1173 -0.1356 -0.8557
   61SAPC  C311 4820   4.321   1.845   5.187  0.2203  0.4168  0.2080
   61SAPC  H11X 4821   4.325   1.736   5.167  0.7830  0.4964 -0.1463
   61SAPC  H11Y 4822   4.427   1.876   5.173 -0.3686  1.9195 -1.1906
   61SAPC  C312 4823   4.234   1.895   5.077 -0.2015  0.3385  0.4741
   61SAPC  H12X 4824   4.237   2.006   5.068 -0.5020  0.2953 -0.2870
   61SAPC  H12Y 4825   4.129   1.863   5.094 -0.6902  1.0622 -0.9385
   61SAPC  C313 4826   4.265   1.850   4.934  0.2476 -0.0939 -0.0212
   61SAPC  H13X 4827   4.247   1.741   4.924  2.8657 -0.7293  1.3335
   61SAPC  H13Y 4828   4.369   1.868   4.900  1.0088  0.7290  2.5026
   61SAPC  C314 4829   4.185   1.935   4.830  0.8971 -0.3721 -0.0001
   61SAPC  H14X 4830   4.181   2.041   4.862 -3.0383 -0.6288  0.8911
   61SAPC  H14Y 4831   4.080   1.898   4.826  0.8478 -0.1281 -1.1669
   61SAPC  C315 4832   4.244   1.932   4.685  0.1129  0.0671  0.2292
   61SAPC  H15X 4833   4.268   1.828   4.654  1.9948  0.6756 -0.5574
   61SAPC  H15Y 4834   4.333   1.997   4.701 -0.3313  0.7164  0.0545
   61SAPC  C316 4835   4.167   1.996   4.573  0.1326 -0.9188  0.3624
   61SAPC  H16X 4836   4.067   1.947   4.572 -1.0037  1.3056 -0.0304
   61SAPC  H16Y 4837   4.214   1.971   4.476 -2.8906 -0.7835 -1.2767
   61SAPC  C317 4838   4.148   2.146   4.587 -0.4079  0.5338  0.6184
   61SAPC  H17X 4839   4.249   2.188   4.606  0.3096 -0.2919 -1.0786
   61SAPC  H17Y 4840   4.085   2.171   4.675 -1.0692  0.9058  0.0448
   61SAPC  C318 4841   4.103   2.215   4.455 -0.1608  0.2010 -0.0045
   61SAPC  H18X 4842   4.168   2.205   4.365 -1.4371  0.8792 -1.0467
   61SAPC  H18Y 4843   4.094   2.324   4.475  0.1941  0.3419 -0.5801
   61SAPC  H18Z 4844   4.003   2.181   4.420  0.4475 -1.0593 -0.5765
   62SAPC     N 4845   5.620   0.007   7.058  0.0350  0.3517  0.0087
   62SAPC   C12 4846   5.665   0.016   6.908  0.6862 -0.5244 -0.6146
   62SAPC  H12A 4847   5.701  -0.082   6.884  2.6361 -0.6877  2.4887
   62SAPC  H12B 4848   5.756   0.074   6.900  0.6759 -0.5215 -0.7103
   62SAPC   C13 4849   5.513  -0.099   7.068 -0.5260 -0.4475 -0.8118
   62SAPC  H13A 4850   5.540  -0.200   7.043  1.5019  0.0303 -0.6931
   62SAPC  H13B 4851   5.473  -0.106   7.168 -0.4837 -2.7900 -0.9113
   62SAPC  H13C 4852   5.428  -0.078   7.004 -0.4690 -0.1677 -0.7990
   62SAPC   C14 4853   5.742  -0.015   7.139 -0.2932  0.6777  0.0871
   62SAPC  H14A 4854   5.770  -0.118   7.122 -0.4625  0.9133 -1.8437
   62SAPC  H14B 4855   5.815   0.055   7.101  0.8116 -0.0394  0.8434
   62SAPC  H14C 4856   5.719  -0.006   7.244  2.7249 -0.7392  0.9569
   62SAPC   C15 4857   5.561   0.133   7.104  0.7863  0.1437  0.5466
   62SAPC  H15A 4858   5.515   0.119   7.200  0.7291 -0.5618  0.4245
   62SAPC  H15B 4859   5.636   0.209   7.117  2.2954 -0.7049 -2.2665
   62SAPC  H15C 4860   5.491   0.170   7.030  1.3253  0.9681  0.4378
   62SAPC   C11 4861   5.565   0.080   6.807 -0.0287  0.9132 -0.0641
   62SAPC  H11A 4862   5.475   0.015   6.810  0.5322  0.1386  0.9028
   62SAPC  H11B 4863   5.603   0.083   6.703 -0.4726  2.0258 -0.2022
   62SAPC     P 4864   5.368   0.255   6.806  0.0774  0.2230  0.1055
   62SAPC   O13 4865   5.282   0.165   6.883  0.1607 -0.0272 -0.5254
   62SAPC   O14 4866   5.350   0.404   6.819 -0.1434 -0.5905  0.8421
   62SAPC   O12 4867   5.517   0.215   6.838 -0.7470 -0.3356  0.0568
   62SAPC   O11 4868   5.354   0.221   6.651  0.3724  0.3708  0.1268
   62SAPC    C1 4869   5.427   0.294   6.545 -0.2344 -0.0581  0.0741
   62SAPC    HA 4870   5.380   0.394   6.530 -0.3533 -0.3254 -1.5157
   62SAPC    HB 4871   5.535   0.302   6.568 -0.1529  0.2497 -0.4054
   62SAPC    C2 4872   5.419   0.214   6.416  0.7940  0.2824 -0.7988
   62SAPC    HS 4873   5.311   0.213   6.387  0.6275  1.5685 -0.2862
   62SAPC   O21 4874   5.475   0.083   6.430 -0.5903  0.1703  0.3330
   62SAPC   C21 4875   5.396  -0.013   6.463 -0.4419 -0.4610 -0.1393
   62SAPC   O22 4876   5.275  -0.004   6.481  0.1617  0.3259  0.2448
   62SAPC   C22 4877   5.480  -0.125   6.521  0.1383 -0.4863  0.2598
   62SAPC   H2R 4878   5.581  -0.114   6.475  0.5123 -3.1411  0.2863
   62SAPC   H2S 4879   5.501  -0.125   6.630 -1.0700 -1.4923  0.5146
   62SAPC    C3 4880   5.487   0.284   6.302  1.3068 -0.0621  0.2070
   62SAPC    HX 4881   5.584   0.331   6.329  1.2697  1.4458 -2.0653
   62SAPC    HY 4882   5.431   0.376   6.274  0.1400 -0.9802 -0.6105
   62SAPC   O31 4883   5.503   0.200   6.181  0.1545 -0.1921 -0.3779
   62SAPC   C31 4884   5.619   0.153   6.147  0.5981 -0.7675 -0.3605
   62SAPC   O32 4885   5.725   0.160   6.208  0.6920 -0.1997 -0.1082
   62SAPC   C32 4886   5.601   0.093   6.006  0.0431 -0.1221  0.1200
   62SAPC   H2X 4887   5.508   0.033   6.012  0.2105 -0.3426  0.4864
   62SAPC   H2Y 4888   5.681   0.018   5.987  1.2864  1.1321  0.2280
   62SAPC   C23 4889   5.422  -0.268   6.471  0.3709 -0.3451 -0.3497
   62SAPC   H3R 4890   5.335  -0.245   6.407  0.3159  0.1622 -0.0969
   62SAPC   H3S 4891   5.378  -0.323   6.557  1.6224 -2.3080 -0.8831
   62SAPC   C24 4892   5.531  -0.355   6.412  0.2330 -0.0226  0.3224
   62SAPC   H4R 4893   5.633  -0.340   6.452  0.8401  0.3486 -1.2994
   62SAPC   H4S 4894   5.539  -0.298   6.317 -1.6209  1.3413  0.9078
   62SAPC   C25 4895   5.485  -0.502   6.394  0.0703  0.3259  0.1454
   62SAPC   H5R 4896   5.501  -0.555   6.489 -2.8745  1.4254  1.3952
   62SAPC   C26 4897   5.434  -0.560   6.285 -0.1866 -0.7395  0.6856
   62SAPC   H6R 4898   5.413  -0.668   6.274 -0.3272 -0.5340 -1.4474
   62SAPC   C27 4899   5.418  -0.494   6.149  0.2546  0.4673  0.4854
   62SAPC   H7R 4900   5.422  -0.578   6.077  2.0186  1.8491 -1.1747
   62SAPC   H7S 4901   5.505  -0.427   6.128 -0.1436  1.3342  1.5357
   62SAPC   C28 4902   5.295  -0.402   6.141  0.1743  0.4786 -0.1092
   62SAPC   H8R 4903   5.235  -0.385   6.232 -0.4449  2.0070 -0.7629
   62SAPC   C29 4904   5.257  -0.340   6.030  0.9215  0.5660 -0.1436
   62SAPC   H9R 4905   5.167  -0.278   6.047  0.1064 -1.0238  1.7429
   62SAPC  C210 4906   5.311  -0.335   5.892  0.4666  0.0986  0.5356
   62SAPC  H10R 4907   5.261  -0.413   5.831  1.4530  1.3924 -2.0865
   62SAPC  H10S 4908   5.422  -0.345   5.899  0.4614 -0.0806  0.3740
   62SAPC  C211 4909   5.281  -0.204   5.826  0.4689  0.1223  0.2593
   62SAPC  H11R 4910   5.278  -0.126   5.904 -0.2613 -0.9131  1.3035
   62SAPC  C212 4911   5.260  -0.183   5.695 -0.5546  0.2829 -0.7103
   62SAPC  H12R 4912   5.256  -0.077   5.667  0.8777  0.2131 -1.2673
   62SAPC  C213 4913   5.262  -0.287   5.589 -0.6959  0.2083 -0.8084
   62SAPC  H13R 4914   5.156  -0.294   5.555 -1.5004 -2.1974  1.7982
   62SAPC  H13S 4915   5.281  -0.392   5.617  1.5244  0.5151 -0.9810
   62SAPC  C214 4916   5.362  -0.248   5.482 -0.6677 -0.6204 -0.9218
   62SAPC  H14R 4917   5.465  -0.269   5.515 -0.0494  1.3271 -1.4493
   62SAPC  C215 4918   5.346  -0.201   5.355  0.3957 -0.1724 -0.9109
   62SAPC  H15R 4919   5.436  -0.170   5.301  2.5649 -4.3800 -0.0962
   62SAPC  C216 4920   5.207  -0.182   5.290  0.2362 -0.3858 -0.3664
   62SAPC  H16R 4921   5.185  -0.075   5.305  0.3897 -0.6705  2.6436
   62SAPC  H16S 4922   5.131  -0.248   5.338  0.7971 -0.6080  0.2521
   62SAPC  C217 4923   5.208  -0.201   5.134  0.7715  0.1336 -0.2315
   62SAPC  H17R 4924   5.280  -0.129   5.089  0.1797  0.8867  0.0141
   62SAPC  H17S 4925   5.111  -0.161   5.099  1.2650  3.0246  1.3340
   62SAPC  C218 4926   5.242  -0.347   5.086  0.1901 -0.4198  0.1087
   62SAPC  H18R 4927   5.184  -0.419   5.147  1.0437  1.1335  2.9008
   62SAPC  H18S 4928   5.347  -0.364   5.116 -0.1356 -0.3700  1.2977
   62SAPC  C219 4929   5.244  -0.355   4.933  0.3781 -0.5323 -0.4575
   62SAPC  H19R 4930   5.286  -0.454   4.907  1.1767 -0.1558 -0.6323
   62SAPC  H19S 4931   5.311  -0.268   4.915 -0.9134  0.7732  0.7649
   62SAPC  C220 4932   5.102  -0.347   4.872 -0.5382  0.4511 -0.8485
   62SAPC  H20R 4933   5.040  -0.428   4.917  1.5993  0.2024  1.8951
   62SAPC  H20S 4934   5.114  -0.373   4.764  0.5290 -3.6517  0.0906
   62SAPC  H20T 4935   5.050  -0.252   4.896 -0.6045  0.9643 -2.7969
   62SAPC   C33 4936   5.583   0.200   5.894 -0.6376 -0.0630 -0.0043
   62SAPC   H3X 4937   5.682   0.229   5.853 -1.1147 -0.4349 -1.4700
   62SAPC   H3Y 4938   5.534   0.283   5.949  0.0399  0.1303  0.3175
   62SAPC   C34 4939   5.505   0.152   5.775  0.0950 -0.3332 -0.0075
   62SAPC   H4X 4940   5.397   0.152   5.802  0.2944 -0.0364  0.8268
   62SAPC   H4Y 4941   5.525   0.045   5.752  0.1166 -0.3087 -0.1055
   62SAPC   C35 4942   5.540   0.234   5.647 -0.2474  0.3959  0.1786
   62SAPC   H5X 4943   5.645   0.229   5.613 -0.3283 -0.2733  0.0204
   62SAPC   H5Y 4944   5.527   0.344   5.657 -1.6592  0.3946 -1.1958
   62SAPC   C36 4945   5.455   0.176   5.536  0.6892 -0.5045 -0.2934
   62SAPC   H6X 4946   5.347   0.201   5.544  0.9589  1.5021 -1.9267
   62SAPC   H6Y 4947   5.460   0.065   5.539  0.2232 -0.5132  0.2581
   62SAPC   C37 4948   5.504   0.232   5.401  0.4513  0.1034 -0.1160
   62SAPC   H7X 4949   5.606   0.192   5.383  0.1663 -1.6421  1.8200
   62SAPC   H7Y 4950   5.503   0.343   5.410  0.8490  0.0340  0.8648
   62SAPC   C38 4951   5.418   0.185   5.284 -0.1926  0.2413 -0.5694
   62SAPC   H8X 4952   5.311   0.212   5.295  0.2414  1.3763  1.2544
   62SAPC   H8Y 4953   5.420   0.074   5.286 -1.9695  0.1693  2.2474
   62SAPC   C39 4954   5.476   0.230   5.154  0.3689  0.5188 -0.2572
   62SAPC   H9X 4955   5.581   0.193   5.150 -0.2253 -1.2088 -0.3973
   62SAPC   H9Y 4956   5.485   0.341   5.152  0.1992  0.5806 -3.4910
   62SAPC  C310 4957   5.389   0.179   5.035  1.0138  0.2962 -0.1029
   62SAPC  H10X 4958   5.290   0.229   5.040  2.0269  2.3676  0.6664
   62SAPC  H10Y 4959   5.379   0.069   5.044  0.0309  0.1485 -2.4923
   62SAPC  C311 4960   5.449   0.204   4.897  0.7011 -0.1118 -0.4214
   62SAPC  H11X 4961   5.557   0.177   4.888  1.2334  1.5294  0.5779
   62SAPC  H11Y 4962   5.449   0.314   4.881 -1.6952  0.4933  2.8441
   62SAPC  C312 4963   5.366   0.129   4.788 -0.4280  0.5647 -0.0553
   62SAPC  H12X 4964   5.259   0.147   4.809 -1.2985 -2.0428 -1.7180
   62SAPC  H12Y 4965   5.381   0.019   4.799  0.7663  0.4480 -2.2391
   62SAPC  C313 4966   5.420   0.175   4.651  0.5855  0.1997  0.4772
   62SAPC  H13X 4967   5.528   0.153   4.642  0.3392 -2.2669  2.3398
   62SAPC  H13Y 4968   5.415   0.285   4.640 -1.6917  0.3960  2.6248
   62SAPC  C314 4969   5.365   0.110   4.527 -0.2231 -0.0232 -0.2266
   62SAPC  H14X 4970   5.433   0.143   4.445  0.8254  1.1574  1.0716
   62SAPC  H14Y 4971   5.266   0.157   4.510  0.1535  1.4695  1.4217
   62SAPC  C315 4972   5.349  -0.042   4.538  0.4244  0.0638 -0.5341
   62SAPC  H15X 4973   5.318  -0.074   4.436  1.5596 -2.6336 -0.1350
   62SAPC  H15Y 4974   5.275  -0.068   4.616  0.9556  0.9233  0.2847
   62SAPC  C316 4975   5.483  -0.117   4.575 -0.9197  0.4032  0.6685
   62SAPC  H16X 4976   5.527  -0.062   4.661  0.6907  0.9682 -0.4649
   62SAPC  H16Y 4977   5.552  -0.110   4.488 -1.9448 -2.2087 -0.4806
   62SAPC  C317 4978   5.463  -0.264   4.613 -0.1437 -0.1143  0.1556
   62SAPC  H17X 4979   5.394  -0.272   4.699 -0.8521 -1.4719 -0.5097
   62SAPC  H17Y 4980   5.561  -0.312   4.637  0.8941  0.3952 -2.6252
   62SAPC  C318 4981   5.409  -0.362   4.501  0.2938 -1.0372 -0.2193
   62SAPC  H18X 4982   5.395  -0.459   4.555 -2.7721  0.5388  2.1705
   62SAPC  H18Y 4983   5.474  -0.362   4.411  0.9936 -1.6727  0.2708
   62SAPC  H18Z 4984   5.307  -0.333   4.468  0.3236 -1.3266 -0.5760
   63SAPC     N 4985   6.507   2.578   6.795 -0.5810 -0.0897 -0.3358
   63SAPC   C12 4986   6.477   2.627   6.652 -0.6680 -1.2795 -0.3760
   63SAPC  H12A 4987   6.456   2.549   6.579 -2.9956 -1.4011  0.3509
   63SAPC  H12B 4988   6.566   2.674   6.612 -0.5165 -0.4968  0.8503
   63SAPC   C13 4989   6.532   2.692   6.893 -0.1539  0.1964 -0.1168
   63SAPC  H13A 4990   6.450   2.762   6.884 -0.5892  0.1481  2.5046
   63SAPC  H13B 4991   6.527   2.652   6.993  1.4817 -0.0906 -0.1246
   63SAPC  H13C 4992   6.628   2.736   6.871 -0.4259 -0.4882 -3.1384
   63SAPC   C14 4993   6.401   2.479   6.840 -0.6744 -0.5545  1.1543
   63SAPC  H14A 4994   6.401   2.397   6.769  2.0531 -1.1330  1.7324
   63SAPC  H14B 4995   6.420   2.443   6.940  1.2781 -1.7631  0.3882
   63SAPC  H14C 4996   6.302   2.523   6.845 -1.5306 -2.4877  2.2349
   63SAPC   C15 4997   6.633   2.502   6.798 -0.0364  0.0732  0.0232
   63SAPC  H15A 4998   6.646   2.443   6.887 -0.2619  0.8010  0.5453
   63SAPC  H15B 4999   6.629   2.430   6.718 -3.3944  0.2716 -0.1285
   63SAPC  H15C 5000   6.727   2.554   6.785  0.5793 -1.1856 -0.7386
   63SAPC   C11 5001   6.370   2.743   6.640 -0.4343 -0.5764  0.3545
   63SAPC  H11A 5002   6.279   2.719   6.698 -0.1220  0.5447  1.3305
   63SAPC  H11B 5003   6.346   2.758   6.532 -2.3474  0.7511  0.9289
   63SAPC     P 5004   6.538   2.944   6.632  0.2409 -0.5295  0.1954
   63SAPC   O13 5005   6.523   3.088   6.661  0.6874 -0.4480  0.1042
   63SAPC   O14 5006   6.664   2.874   6.657 -0.4087 -0.3204  0.5192
   63SAPC   O12 5007   6.426   2.862   6.707 -0.7196  0.3781  0.5427
   63SAPC   O11 5008   6.498   2.932   6.480  0.5655 -0.5044  0.1175
   63SAPC    C1 5009   6.483   3.043   6.391  0.1597 -0.4052  0.0355
   63SAPC    HA 5010   6.535   3.135   6.424 -1.9769  0.8287  0.1251
   63SAPC    HB 5011   6.526   3.012   6.293  0.9008 -2.4543  0.9520
   63SAPC    C2 5012   6.333   3.092   6.365  0.4332 -0.9429 -0.5720
   63SAPC    HS 5013   6.299   3.133   6.462  3.3277  1.7108 -0.5021
   63SAPC   O21 5014   6.259   2.979   6.320  0.1807  0.0402  0.0579
   63SAPC   C21 5015   6.133   2.984   6.338  0.2235 -0.1807 -0.1534
   63SAPC   O22 5016   6.072   3.078   6.392 -0.4798  0.1345 -0.2497
   63SAPC   C22 5017   6.059   2.862   6.276  0.7162  0.0349  0.1486
   63SAPC   H2R 5018   5.955   2.875   6.313  0.2134 -1.5820 -0.5996
   63SAPC   H2S 5019   6.066   2.882   6.167  0.3623  0.6574  0.2389
   63SAPC    C3 5020   6.322   3.211   6.264 -0.1970  0.3347  0.0717
   63SAPC    HX 5021   6.367   3.302   6.310 -2.1019  2.4021 -1.8412
   63SAPC    HY 5022   6.217   3.245   6.256  0.0055  0.7302 -1.1761
   63SAPC   O31 5023   6.367   3.173   6.130  0.1519 -0.3700  0.8583
   63SAPC   C31 5024   6.271   3.135   6.047 -0.2699 -0.3919 -0.4915
   63SAPC   O32 5025   6.151   3.120   6.069 -0.1411  0.5436 -0.1031
   63SAPC   C32 5026   6.337   3.132   5.908  0.4858  0.4507  1.3132
   63SAPC   H2X 5027   6.362   3.025   5.891  1.9323  1.4332 -5.3597
   63SAPC   H2Y 5028   6.420   3.205   5.898  1.1175 -0.3080  0.9127
   63SAPC   C23 5029   6.101   2.720   6.319  0.2414 -0.3623 -0.0165
   63SAPC   H3R 5030   6.053   2.695   6.416  0.1122  0.9316  0.2753
   63SAPC   H3S 5031   6.208   2.723   6.349 -0.3319  0.2665  2.0863
   63SAPC   C24 5032   6.080   2.607   6.212  0.4405 -0.3385  0.5313
   63SAPC   H4R 5033   5.994   2.636   6.149  1.2134  0.6886 -0.0950
   63SAPC   H4S 5034   6.043   2.517   6.265 -2.9064  1.6201  1.8480
   63SAPC   C25 5035   6.202   2.586   6.125 -0.0914 -0.9127 -0.1343
   63SAPC   H5R 5036   6.282   2.546   6.189 -1.3396  0.4203  2.4362
   63SAPC   C26 5037   6.205   2.623   5.998  0.3518 -0.1353  0.6976
   63SAPC   H6R 5038   6.297   2.607   5.939  0.1736 -1.1544  0.6728
   63SAPC   C27 5039   6.086   2.685   5.910  0.3873  0.3784 -0.2517
   63SAPC   H7R 5040   6.031   2.759   5.972  2.1961  3.0478 -1.6502
   63SAPC   H7S 5041   6.013   2.604   5.888  1.5028 -0.7878  0.1810
   63SAPC   C28 5042   6.124   2.750   5.784  0.3979  0.0427  0.2456
   63SAPC   H8R 5043   6.110   2.858   5.797  3.3118  0.5629 -0.3485
   63SAPC   C29 5044   6.166   2.700   5.666  0.7005  0.3127  0.3879
   63SAPC   H9R 5045   6.194   2.766   5.582 -0.6070 -0.6825 -0.8811
   63SAPC  C210 5046   6.190   2.551   5.641 -0.4425  0.0803 -0.0049
   63SAPC  H10R 5047   6.091   2.512   5.606  0.0354 -0.1709 -1.1088
   63SAPC  H10S 5048   6.215   2.499   5.736 -0.7846 -3.5850 -1.7237
   63SAPC  C211 5049   6.289   2.514   5.530  0.3575 -0.3899  0.2615
   63SAPC  H11R 5050   6.391   2.533   5.565  0.0129 -0.3681  1.2840
   63SAPC  C212 5051   6.272   2.470   5.405  0.0860  0.0569  0.5236
   63SAPC  H12R 5052   6.364   2.452   5.348 -0.4902 -3.0494  0.4093
   63SAPC  C213 5053   6.142   2.447   5.338 -0.2277  0.1822 -0.3413
   63SAPC  H13R 5054   6.057   2.498   5.389 -0.1511 -0.8857  0.9147
   63SAPC  H13S 5055   6.106   2.342   5.332 -1.7330  0.7609 -2.3762
   63SAPC  C214 5056   6.154   2.481   5.194  0.2793  0.2659  1.0931
   63SAPC  H14R 5057   6.232   2.427   5.138 -1.0080  0.2323 -0.7393
   63SAPC  C215 5058   6.093   2.581   5.129  0.7306  0.4619  0.7857
   63SAPC  H15R 5059   6.102   2.591   5.020 -0.5139 -1.2294  0.4874
   63SAPC  C216 5060   5.967   2.639   5.187 -0.1255 -0.5252  0.3310
   63SAPC  H16R 5061   5.962   2.628   5.297 -1.1603 -2.0989  0.1655
   63SAPC  H16S 5062   5.871   2.604   5.143 -0.9332  3.0680 -1.0946
   63SAPC  C217 5063   5.970   2.794   5.151 -0.8221  0.6749  1.0285
   63SAPC  H17R 5064   5.980   2.820   5.043 -0.6422 -0.2404  0.8149
   63SAPC  H17S 5065   6.073   2.822   5.181  0.3414  0.1035 -2.0028
   63SAPC  C218 5066   5.867   2.878   5.217  0.1466 -0.3233 -0.0334
   63SAPC  H18R 5067   5.769   2.832   5.192 -0.5412  0.1643  1.5822
   63SAPC  H18S 5068   5.881   2.982   5.181 -1.2899  0.7724  2.3349
   63SAPC  C219 5069   5.880   2.887   5.375  0.7561 -0.0933  0.0841
   63SAPC  H19R 5070   5.988   2.900   5.398  1.3939  3.6765 -3.6985
   63SAPC  H19S 5071   5.853   2.798   5.436  0.0618  0.6568  0.9111
   63SAPC  C220 5072   5.816   3.012   5.439 -0.3322  0.1885 -0.1912
   63SAPC  H20R 5073   5.860   3.095   5.381 -1.5308  0.7587 -0.3156
   63SAPC  H20S 5074   5.857   3.018   5.542  0.5154 -1.0498 -0.4306
   63SAPC  H20T 5075   5.705   3.012   5.430 -0.5968  2.8848  1.8460
   63SAPC   C33 5076   6.233   3.170   5.803 -0.7108  0.1905 -0.0029
   63SAPC   H3X 5077   6.199   3.275   5.817  0.8007  0.2682  4.3623
   63SAPC   H3Y 5078   6.143   3.105   5.807 -0.0373 -0.7638 -0.1176
   63SAPC   C34 5079   6.294   3.161   5.663 -0.1415  0.6605  0.2925
   63SAPC   H4X 5080   6.333   3.058   5.646  1.4352  1.6318 -2.9308
   63SAPC   H4Y 5081   6.385   3.224   5.652  0.9456 -1.0035 -0.6140
   63SAPC   C35 5082   6.203   3.188   5.547  0.3488 -0.6059 -0.0424
   63SAPC   H5X 5083   6.168   3.293   5.535  1.7154 -0.1386 -0.1945
   63SAPC   H5Y 5084   6.111   3.130   5.570  0.2199 -0.8470 -1.1070
   63SAPC   C36 5085   6.269   3.150   5.412  0.7793 -0.2989  0.0987
   63SAPC   H6X 5086   6.280   3.040   5.413 -2.5079 -0.7977 -2.2472
   63SAPC   H6Y 5087   6.371   3.194   5.403  0.6416 -0.0620 -0.3515
   63SAPC   C37 5088   6.184   3.180   5.294 -0.4272  0.5888 -0.7467
   63SAPC   H7X 5089   6.140   3.280   5.311 -0.3211  0.2818  1.6961
   63SAPC   H7Y 5090   6.096   3.111   5.296 -0.6768  0.7333 -3.2674
   63SAPC   C38 5091   6.254   3.188   5.163  0.2239  0.6030 -0.5006
   63SAPC   H8X 5092   6.312   3.094   5.152 -1.7386 -0.6301 -0.7911
   63SAPC   H8Y 5093   6.323   3.275   5.161  1.0795  0.0342  1.9754
   63SAPC   C39 5094   6.160   3.190   5.046  0.2021 -0.0280  0.0317
   63SAPC   H9X 5095   6.088   3.272   5.064 -1.3084 -1.0511 -1.0834
   63SAPC   H9Y 5096   6.106   3.093   5.037 -0.7684  0.2985  1.8927
   63SAPC  C310 5097   6.222   3.237   4.917  0.3031 -0.1710 -0.0550
   63SAPC  H10X 5098   6.285   3.149   4.889  1.5813  0.9198 -0.7785
   63SAPC  H10Y 5099   6.289   3.323   4.941  0.0793 -0.4402  1.6119
   63SAPC  C311 5100   6.117   3.285   4.807 -0.5470 -0.0564  0.5007
   63SAPC  H11X 5101   6.082   3.381   4.850  0.3704 -0.7743  3.0351
   63SAPC  H11Y 5102   6.035   3.212   4.792  0.2768 -1.1174  1.0389
   63SAPC  C312 5103   6.176   3.344   4.670  0.2996  0.9959 -0.0663
   63SAPC  H12X 5104   6.267   3.401   4.699  2.4952 -1.7321 -1.1212
   63SAPC  H12Y 5105   6.095   3.405   4.624 -1.3218 -0.7094  0.3869
   63SAPC  C313 5106   6.220   3.234   4.567 -0.6681 -0.1508  0.5021
   63SAPC  H13X 5107   6.129   3.181   4.533 -1.7173  1.7937  0.1065
   63SAPC  H13Y 5108   6.294   3.167   4.615 -0.8344 -2.6148 -2.4337
   63SAPC  C314 5109   6.277   3.296   4.443  0.6232 -0.4364  0.1337
   63SAPC  H14X 5110   6.288   3.209   4.376 -1.8188 -0.7198  0.0228
   63SAPC  H14Y 5111   6.375   3.349   4.456  0.9281 -1.4625  2.5881
   63SAPC  C315 5112   6.166   3.375   4.372 -0.3929 -0.2426  0.0275
   63SAPC  H15X 5113   6.167   3.475   4.420  1.3394 -0.5811  0.7738
   63SAPC  H15Y 5114   6.066   3.327   4.383 -0.4543 -0.4212 -1.2255
   63SAPC  C316 5115   6.192   3.381   4.216 -0.2047 -0.2994  0.0157
   63SAPC  H16X 5116   6.159   3.282   4.176  2.5996 -1.2130 -0.2108
   63SAPC  H16Y 5117   6.299   3.393   4.192 -0.3165  4.1438  0.9421
   63SAPC  C317 5118   6.124   3.496   4.142  0.4653  0.2557 -0.1898
   63SAPC  H17X 5119   6.163   3.598   4.162 -3.0960  2.1563 -2.0994
   63SAPC  H17Y 5120   6.016   3.497   4.167  0.6162  2.6616  0.5886
   63SAPC  C318 5121   6.143   3.480   3.999 -0.2749 -0.1171 -0.0966
   63SAPC  H18X 5122   6.073   3.407   3.953  1.1923 -1.0840 -0.8568
   63SAPC  H18Y 5123   6.244   3.445   3.970  0.0190 -1.0796  1.9325
   63SAPC  H18Z 5124   6.126   3.574   3.941  3.5571  1.0922  0.4546
   64SAPC     N 5125   6.151   4.352   7.335  0.3620 -0.0173 -0.0837
   64SAPC   C12 5126   6.165   4.508   7.322  0.9858  0.4765  0.1196
   64SAPC  H12A 5127   6.203   4.541   7.417 -0.2799 -1.0575  1.2110
   64SAPC  H12B 5128   6.069   4.551   7.299  0.9804  1.3135  1.5468
   64SAPC   C13 5129   6.072   4.329   7.462  0.0459 -0.1581  0.0989
   64SAPC  H13A 5130   5.994   4.402   7.481 -0.0443  0.2073 -1.4979
   64SAPC  H13B 5131   6.025   4.232   7.461  3.2228 -1.8199 -0.7894
   64SAPC  H13C 5132   6.133   4.346   7.549 -1.4117  1.5413  0.8610
   64SAPC   C14 5133   6.090   4.301   7.214  0.2064 -0.3263  0.1631
   64SAPC  H14A 5134   5.989   4.339   7.206 -0.0024 -0.6786  1.0083
   64SAPC  H14B 5135   6.155   4.320   7.130 -0.8848  2.4273 -0.1687
   64SAPC  H14C 5136   6.071   4.195   7.217 -2.0906 -0.0058 -0.6953
   64SAPC   C15 5137   6.282   4.279   7.354  0.1525 -0.5992  0.0232
   64SAPC  H15A 5138   6.344   4.330   7.426 -1.1275  0.3823  0.4693
   64SAPC  H15B 5139   6.265   4.174   7.372  0.2589 -0.1483  3.2333
   64SAPC  H15C 5140   6.343   4.282   7.265  0.3264 -1.1949  0.1166
   64SAPC   C11 5141   6.258   4.568   7.211 -0.3066  0.0038 -0.7909
   64SAPC  H11A 5142   6.360   4.528   7.224 -0.5379 -0.5857 -0.7363
   64SAPC  H11B 5143   6.271   4.677   7.222  2.1154 -0.0611 -2.2652
   64SAPC     P 5144   6.099   4.632   7.018  0.1676  0.5148  0.2023
   64SAPC   O13 5145   6.023   4.548   6.924  0.0970 -0.3069  0.5066
   64SAPC   O14 5146   6.023   4.690   7.132 -0.1973 -0.7663 -0.5434
   64SAPC   O12 5147   6.211   4.537   7.078 -0.2925  0.1556 -0.2954
   64SAPC   O11 5148   6.180   4.756   6.955 -0.1204  0.3704  0.2639
   64SAPC    C1 5149   6.281   4.738   6.854 -0.6820  0.2465 -0.2045
   64SAPC    HA 5150   6.380   4.765   6.898 -0.4161  3.5076 -2.4053
   64SAPC    HB 5151   6.291   4.637   6.809  0.9671  1.0641 -1.8291
   64SAPC    C2 5152   6.274   4.842   6.737 -0.0092 -0.6318 -0.4309
   64SAPC    HS 5153   6.280   4.937   6.794  1.4086 -0.5030 -0.7538
   64SAPC   O21 5154   6.151   4.820   6.664 -0.3775  0.4974 -0.8398
   64SAPC   C21 5155   6.104   4.931   6.608 -0.3883 -0.0437  0.2086
   64SAPC   O22 5156   6.153   5.040   6.602  0.0733  0.3037 -0.5176
   64SAPC   C22 5157   5.979   4.899   6.531  0.6293  0.4726  0.3052
   64SAPC   H2R 5158   5.908   4.853   6.602  1.1229 -1.3796 -0.3226
   64SAPC   H2S 5159   5.930   4.995   6.505 -1.6252 -0.5008  0.7100
   64SAPC    C3 5160   6.406   4.853   6.652  0.5033  0.4821 -0.2021
   64SAPC    HX 5161   6.495   4.871   6.716  1.3931 -0.6447 -1.0745
   64SAPC    HY 5162   6.414   4.951   6.599  1.8442  1.4603  1.6985
   64SAPC   O31 5163   6.441   4.740   6.571 -0.3333  0.0110  0.7628
   64SAPC   C31 5164   6.409   4.745   6.448 -0.6704 -0.3866 -0.3860
   64SAPC   O32 5165   6.349   4.834   6.391  0.4795  0.3316  0.1927
   64SAPC   C32 5166   6.441   4.606   6.379 -0.3456  0.1789  0.1372
   64SAPC   H2X 5167   6.345   4.553   6.397 -0.2582  1.0056  3.6033
   64SAPC   H2Y 5168   6.514   4.554   6.444  0.9403  0.1210 -1.2784
   64SAPC   C23 5169   6.007   4.811   6.409  0.1814 -0.3209 -0.0577
   64SAPC   H3R 5170   6.004   4.707   6.448 -4.0448 -0.9791 -1.6069
   64SAPC   H3S 5171   6.105   4.837   6.362 -0.0058  0.8328  0.1721
   64SAPC   C24 5172   5.906   4.811   6.294 -0.9503  0.8256  0.2025
   64SAPC   H4R 5173   5.802   4.785   6.325 -0.6044 -1.8656 -0.6322
   64SAPC   H4S 5174   5.930   4.730   6.222 -1.3152  2.3246 -1.7033
   64SAPC   C25 5175   5.913   4.932   6.210 -0.6684 -0.0249  0.1751
   64SAPC   H5R 5176   5.891   5.024   6.265 -0.9667  0.1293 -0.2016
   64SAPC   C26 5177   5.955   4.943   6.081  0.0401 -0.6273  0.6922
   64SAPC   H6R 5178   5.963   5.044   6.040  1.8343 -1.6597 -1.7856
   64SAPC   C27 5179   5.995   4.833   5.988 -0.6562  0.4250 -0.4180
   64SAPC   H7R 5180   5.959   4.852   5.885  1.6513 -0.7665 -1.5146
   64SAPC   H7S 5181   5.945   4.742   6.025  0.5713  0.5530  1.7183
   64SAPC   C28 5182   6.141   4.805   5.978  0.4038 -0.4171  0.1935
   64SAPC   H8R 5183   6.194   4.781   6.072 -1.1077 -0.6849  1.0044
   64SAPC   C29 5184   6.225   4.822   5.873  0.1757 -0.3003 -0.0874
   64SAPC   H9R 5185   6.330   4.820   5.904 -0.0379 -0.7903  0.6421
   64SAPC  C210 5186   6.207   4.861   5.726 -0.6549  0.4062 -0.2653
   64SAPC  H10R 5187   6.135   4.788   5.683 -0.1588 -0.6288  0.6425
   64SAPC  H10S 5188   6.308   4.848   5.683 -0.0803 -2.1255  1.6426
   64SAPC  C211 5189   6.144   4.993   5.706 -0.0668  0.1273 -0.0645
   64SAPC  H11R 5190   6.117   5.037   5.803  1.8540 -1.7680  1.4250
   64SAPC  C212 5191   6.134   5.059   5.589 -0.5370  0.8723  0.1973
   64SAPC  H12R 5192   6.099   5.164   5.592  1.4721  1.6747 -1.7564
   64SAPC  C213 5193   6.184   4.996   5.457  0.4076 -0.1293 -0.6343
   64SAPC  H13R 5194   6.232   4.896   5.471  2.2432  0.3833 -2.6634
   64SAPC  H13S 5195   6.263   5.067   5.423  2.5366 -2.2896 -0.4885
   64SAPC  C214 5196   6.090   4.976   5.342 -0.3898  0.0169  0.0050
   64SAPC  H14R 5197   6.069   4.872   5.313  1.7882 -0.5660  0.3664
   64SAPC  C215 5198   6.035   5.075   5.269  0.7612 -0.6160  0.3557
   64SAPC  H15R 5199   5.956   5.047   5.198 -1.3503 -0.5232  2.4953
   64SAPC  C216 5200   6.062   5.221   5.286  0.0695  0.0003  0.5680
   64SAPC  H16R 5201   6.123   5.228   5.379  0.6619  0.9450  0.1176
   64SAPC  H16S 5202   5.964   5.269   5.310 -0.6546 -1.1033 -0.0977
   64SAPC  C217 5203   6.116   5.293   5.162 -0.4512 -0.1591 -0.6006
   64SAPC  H17R 5204   6.214   5.255   5.126 -0.0763  0.7149 -0.5493
   64SAPC  H17S 5205   6.140   5.395   5.201 -1.5142  0.1237 -0.6661
   64SAPC  C218 5206   6.019   5.297   5.052  0.3127  0.4396 -0.0841
   64SAPC  H18R 5207   5.924   5.346   5.082 -0.2891 -0.0370 -1.1747
   64SAPC  H18S 5208   6.009   5.193   5.013  2.6224  0.1757 -0.1496
   64SAPC  C219 5209   6.076   5.374   4.929  0.2638  0.2193 -0.4654
   64SAPC  H19R 5210   6.137   5.446   4.989  4.4099 -3.4612  0.2690
   64SAPC  H19S 5211   5.997   5.423   4.868 -0.2681 -0.7936 -0.6122
   64SAPC  C220 5212   6.172   5.288   4.842 -0.0788 -0.1402  0.1786
   64SAPC  H20R 5213   6.212   5.349   4.759  2.6040 -2.2367 -0.2205
   64SAPC  H20S 5214   6.122   5.199   4.800  1.0678 -0.9316  0.4427
   64SAPC  H20T 5215   6.260   5.265   4.906  0.5052  0.3950 -0.4199
   64SAPC   C33 5216   6.487   4.617   6.232  0.3788  0.3869  0.2327
   64SAPC   H3X 5217   6.409   4.670   6.171  0.8615  0.2499 -0.5104
   64SAPC   H3Y 5218   6.484   4.514   6.192  0.9673  0.4485  0.0267
   64SAPC   C34 5219   6.627   4.673   6.206 -0.0511  0.5520 -0.1884
   64SAPC   H4X 5220   6.698   4.622   6.275 -1.0384 -2.2387 -1.1024
   64SAPC   H4Y 5221   6.628   4.780   6.233 -1.3761  0.4936  0.1725
   64SAPC   C35 5222   6.693   4.669   6.065  0.0196  0.0932  0.5896
   64SAPC   H5X 5223   6.720   4.569   6.024 -0.1267  0.1703  0.3036
   64SAPC   H5Y 5224   6.783   4.733   6.074 -0.7251  1.3057 -0.3839
   64SAPC   C36 5225   6.604   4.741   5.954  0.1708 -0.1562  0.5542
   64SAPC   H6X 5226   6.601   4.851   5.963 -1.7417  0.2751 -3.2533
   64SAPC   H6Y 5227   6.503   4.695   5.958  0.3221 -0.4731  0.8227
   64SAPC   C37 5228   6.659   4.701   5.807 -0.0969 -0.4504  0.2128
   64SAPC   H7X 5229   6.663   4.590   5.808  0.8645 -0.4249 -0.1926
   64SAPC   H7Y 5230   6.750   4.761   5.785 -1.2391  1.1826 -0.2951
   64SAPC   C38 5231   6.552   4.736   5.697 -0.0693  0.8416 -0.1033
   64SAPC   H8X 5232   6.523   4.843   5.692 -1.2997  0.5108 -0.7071
   64SAPC   H8Y 5233   6.459   4.676   5.710  0.5323 -0.3699 -1.1360
   64SAPC   C39 5234   6.585   4.707   5.549 -0.4340  0.8236 -0.4740
   64SAPC   H9X 5235   6.625   4.604   5.535 -0.8357  0.8602 -2.1365
   64SAPC   H9Y 5236   6.677   4.755   5.511  0.0458 -1.5163 -2.5587
   64SAPC  C310 5237   6.474   4.737   5.449 -0.3056 -0.4227  0.0974
   64SAPC  H10X 5238   6.443   4.841   5.470  1.0622 -0.0530  0.3991
   64SAPC  H10Y 5239   6.387   4.675   5.479  0.7934 -2.1891 -0.2428
   64SAPC  C311 5240   6.517   4.729   5.300  0.3830  0.0066 -0.0955
   64SAPC  H11X 5241   6.628   4.724   5.295  0.3984 -1.6462  0.9338
   64SAPC  H11Y 5242   6.491   4.826   5.253  3.1215  1.4842  1.2122
   64SAPC  C312 5243   6.459   4.612   5.226 -0.6140  0.0059 -0.3113
   64SAPC  H12X 5244   6.351   4.629   5.207 -0.9879  0.7013  2.1278
   64SAPC  H12Y 5245   6.463   4.518   5.285 -1.6062 -0.1881 -0.5294
   64SAPC  C313 5246   6.527   4.587   5.087  0.4694  0.2718  0.5953
   64SAPC  H13X 5247   6.534   4.682   5.030 -1.1352  1.3874  2.1666
   64SAPC  H13Y 5248   6.464   4.509   5.039  3.0663 -0.5694 -1.7531
   64SAPC  C314 5249   6.667   4.527   5.106 -0.2571 -0.2775  1.1668
   64SAPC  H14X 5250   6.653   4.423   5.142  0.4947 -0.7008  0.2999
   64SAPC  H14Y 5251   6.718   4.573   5.193 -0.6464  0.8680  0.8048
   64SAPC  C315 5252   6.751   4.515   4.978 -0.1156 -0.1263 -0.1411
   64SAPC  H15X 5253   6.714   4.432   4.915 -1.1294  1.0655 -1.1837
   64SAPC  H15Y 5254   6.852   4.479   5.005 -0.5200 -0.4144  1.0726
   64SAPC  C316 5255   6.776   4.641   4.897 -0.1348 -0.4667 -0.1516
   64SAPC  H16X 5256   6.788   4.726   4.968 -2.4369  0.0315 -0.2755
   64SAPC  H16Y 5257   6.685   4.670   4.839  0.0400 -2.7483 -1.7141
   64SAPC  C317 5258   6.885   4.628   4.791  0.2366  0.1869 -0.1057
   64SAPC  H17X 5259   6.985   4.606   4.835  0.8272  0.1523 -1.4325
   64SAPC  H17Y 5260   6.907   4.726   4.745  1.7078 -0.0560  0.0020
   64SAPC  C318 5261   6.847   4.518   4.691  0.1178  0.0072  0.3822
   64SAPC  H18X 5262   6.902   4.541   4.597  3.3109  1.3802  2.4114
   64SAPC  H18Y 5263   6.738   4.506   4.674  0.4878 -0.8822 -1.7361
   64SAPC  H18Z 5264   6.875   4.416   4.725 -1.0095  0.2298  2.0795
   65SAPC     N 5265   4.264   4.176   2.446 -0.0443  1.0965  0.3272
   65SAPC   C12 5266   4.414   4.199   2.443  0.2600  0.1553 -0.2289
   65SAPC  H12A 5267   4.437   4.259   2.356 -1.1125  1.4280  0.2412
   65SAPC  H12B 5268   4.466   4.107   2.420 -1.4335 -0.4807 -1.7346
   65SAPC   C13 5269   4.177   4.294   2.472  0.7732  0.1134  0.1799
   65SAPC  H13A 5270   4.087   4.263   2.524  0.2107  1.3175 -0.0517
   65SAPC  H13B 5271   4.227   4.359   2.542  0.2159 -0.0100  0.7024
   65SAPC  H13C 5272   4.147   4.338   2.378  0.1976  0.2740  0.4373
   65SAPC   C14 5273   4.223   4.104   2.327  0.0444  0.1669  0.2917
   65SAPC  H14A 5274   4.232   4.165   2.238  2.4792  0.0477  0.3974
   65SAPC  H14B 5275   4.266   4.007   2.308  0.3100  0.5894 -1.4509
   65SAPC  H14C 5276   4.118   4.077   2.328  0.1433 -0.2168  1.5071
   65SAPC   C15 5277   4.244   4.073   2.561 -0.1204 -0.4684  0.1990
   65SAPC  H15A 5278   4.283   4.113   2.653  0.2499  1.1891 -0.6466
   65SAPC  H15B 5279   4.136   4.063   2.560 -0.0898 -0.8621  0.5901
   65SAPC  H15C 5280   4.281   3.972   2.551 -2.5204 -1.4420  0.4903
   65SAPC   C11 5281   4.469   4.265   2.574 -0.2937  0.4703  0.2906
   65SAPC  H11A 5282   4.580   4.268   2.574 -0.2892  0.7118  1.5740
   65SAPC  H11B 5283   4.462   4.195   2.660  0.6052  1.3525  1.0928
   65SAPC     P 5284   4.462   4.524   2.538 -0.4297  0.2257 -0.1407
   65SAPC   O13 5285   4.606   4.506   2.513  0.6495  0.0668 -0.1580
   65SAPC   O14 5286   4.372   4.562   2.429 -0.5820  0.5625 -0.2620
   65SAPC   O12 5287   4.413   4.390   2.608  0.5092 -1.1703  0.0688
   65SAPC   O11 5288   4.450   4.633   2.654 -0.2352  0.4443 -0.1599
   65SAPC    C1 5289   4.344   4.628   2.751  0.1320 -0.2002 -0.1762
   65SAPC    HA 5290   4.261   4.694   2.718 -0.4521 -0.6411  0.3972
   65SAPC    HB 5291   4.303   4.528   2.777  0.5177 -0.2867  0.1006
   65SAPC    C2 5292   4.380   4.707   2.880  0.3916 -0.1347 -0.2599
   65SAPC    HS 5293   4.476   4.659   2.909  0.5348 -0.1087 -0.6913
   65SAPC   O21 5294   4.273   4.678   2.983 -0.1802 -0.5548 -0.3759
   65SAPC   C21 5295   4.316   4.708   3.110  0.2929 -0.4958  0.2939
   65SAPC   O22 5296   4.431   4.738   3.141 -0.6514  0.2649 -0.2620
   65SAPC   C22 5297   4.207   4.675   3.208  0.3996  0.3114 -0.3614
   65SAPC   H2R 5298   4.129   4.749   3.181  0.9248  0.3163 -1.9714
   65SAPC   H2S 5299   4.172   4.577   3.168 -1.9390  1.4347 -1.2210
   65SAPC    C3 5300   4.388   4.858   2.837 -0.1718  0.4100  0.5710
   65SAPC    HX 5301   4.286   4.900   2.834 -0.2122  0.3477  1.0302
   65SAPC    HY 5302   4.440   4.855   2.738 -0.1888 -1.2100  0.5845
   65SAPC   O31 5303   4.465   4.935   2.929 -0.2705 -0.3369  0.2949
   65SAPC   C31 5304   4.593   4.917   2.926  0.1762 -1.1379  0.4186
   65SAPC   O32 5305   4.655   4.834   2.857  0.6779  0.0638  0.6175
   65SAPC   C32 5306   4.664   5.038   3.000  0.2792  0.0870 -0.0998
   65SAPC   H2X 5307   4.605   5.116   3.052  0.7272 -0.2423  0.9298
   65SAPC   H2Y 5308   4.712   5.082   2.910  1.2208 -1.2755 -0.3082
   65SAPC   C23 5309   4.235   4.686   3.357  0.4622  0.3320 -0.1727
   65SAPC   H3R 5310   4.139   4.730   3.392  0.5172  0.8208 -0.6210
   65SAPC   H3S 5311   4.319   4.756   3.378  0.2797  0.9402 -1.3513
   65SAPC   C24 5312   4.248   4.548   3.430 -0.9236  0.1482 -0.7316
   65SAPC   H4R 5313   4.156   4.490   3.408  0.6414 -2.5046 -0.5805
   65SAPC   H4S 5314   4.247   4.563   3.540  1.8930 -1.1997 -0.4593
   65SAPC   C25 5315   4.379   4.490   3.382 -0.1507  0.1320  0.1321
   65SAPC   H5R 5316   4.381   4.462   3.276  0.2398 -0.6732  0.3456
   65SAPC   C26 5317   4.481   4.453   3.469  0.3161 -0.0735  0.0987
   65SAPC   H6R 5318   4.572   4.410   3.425  1.1731  0.9626  0.7976
   65SAPC   C27 5319   4.479   4.471   3.623 -0.5500  1.2746 -0.1629
   65SAPC   H7R 5320   4.382   4.511   3.659 -1.0305  2.2236 -2.3529
   65SAPC   H7S 5321   4.563   4.540   3.645  0.0184  1.4004 -2.4494
   65SAPC   C28 5322   4.502   4.333   3.700 -0.0243 -0.5688  0.0186
   65SAPC   H8R 5323   4.484   4.240   3.645  0.9952 -0.9464  0.3117
   65SAPC   C29 5324   4.541   4.316   3.824 -0.0206 -0.5883 -0.8043
   65SAPC   H9R 5325   4.576   4.218   3.858 -0.6826 -0.4619  0.2670
   65SAPC  C210 5326   4.565   4.429   3.925  0.0761 -0.2559 -0.6184
   65SAPC  H10R 5327   4.518   4.393   4.019  0.2188  0.2432 -0.3506
   65SAPC  H10S 5328   4.504   4.518   3.899  0.2244 -0.2105 -0.8137
   65SAPC  C211 5329   4.708   4.489   3.935  0.3728 -0.0823  1.0920
   65SAPC  H11R 5330   4.771   4.482   3.846 -1.4763  1.0181 -0.3800
   65SAPC  C212 5331   4.764   4.543   4.043 -0.1953 -0.1719  0.6094
   65SAPC  H12R 5332   4.868   4.578   4.032  0.0817 -0.7859  1.2869
   65SAPC  C213 5333   4.699   4.586   4.174 -0.0600  0.1567 -0.0450
   65SAPC  H13R 5334   4.753   4.534   4.257  0.9361  0.4075 -0.5188
   65SAPC  H13S 5335   4.595   4.546   4.180  0.5611 -1.9591 -2.0686
   65SAPC  C214 5336   4.705   4.732   4.204  0.0146  0.5927  0.1959
   65SAPC  H14R 5337   4.688   4.787   4.110  0.1030  1.7222  0.8208
   65SAPC  C215 5338   4.738   4.803   4.307  0.0196 -0.5386  0.0110
   65SAPC  H15R 5339   4.732   4.911   4.287 -0.6098 -0.7176 -0.8390
   65SAPC  C216 5340   4.768   4.770   4.452  0.1189  0.1872  0.1006
   65SAPC  H16R 5341   4.876   4.742   4.457  0.2726  0.7432 -0.0610
   65SAPC  H16S 5342   4.712   4.678   4.477  0.2376 -0.3396 -1.4447
   65SAPC  C217 5343   4.747   4.885   4.557  0.4863 -0.0911 -0.2100
   65SAPC  H17R 5344   4.639   4.907   4.552  0.4047 -0.6897 -1.1925
   65SAPC  H17S 5345   4.784   4.984   4.523 -0.3056 -0.5038 -2.3769
   65SAPC  C218 5346   4.787   4.852   4.700  0.1062 -0.8165  0.2499
   65SAPC  H18R 5347   4.729   4.762   4.729  0.0063 -0.5450  0.9122
   65SAPC  H18S 5348   4.752   4.930   4.772 -1.7548 -1.2777 -0.0974
   65SAPC  C219 5349   4.928   4.813   4.722 -0.0030 -0.3845  0.5043
   65SAPC  H19R 5350   4.964   4.731   4.657 -0.3162 -1.1724  1.2981
   65SAPC  H19S 5351   4.930   4.772   4.826  2.2953 -0.2319  0.5795
   65SAPC  C220 5352   5.025   4.930   4.696  0.9088 -0.4363 -0.5106
   65SAPC  H20R 5353   5.008   5.017   4.764  0.2996 -1.4065  0.6359
   65SAPC  H20S 5354   5.010   4.957   4.590 -0.1783 -1.1848 -0.5681
   65SAPC  H20T 5355   5.127   4.893   4.721  1.6905  1.6637 -0.4216
   65SAPC   C33 5356   4.785   4.998   3.090  0.5360 -0.4288 -0.1513
   65SAPC   H3X 5357   4.827   5.083   3.148 -1.2045  0.1730  0.2729
   65SAPC   H3Y 5358   4.867   4.951   3.032  1.0485  0.6477 -0.3198
   65SAPC   C34 5359   4.731   4.904   3.198  0.8975  0.0452 -0.2815
   65SAPC   H4X 5360   4.808   4.880   3.274 -0.1094  1.6108  1.3116
   65SAPC   H4Y 5361   4.692   4.812   3.148  0.5210  0.0267  0.0383
   65SAPC   C35 5362   4.617   4.945   3.282 -0.0878  0.0978  0.8281
   65SAPC   H5X 5363   4.585   4.856   3.339 -0.4359 -0.0395  0.4208
   65SAPC   H5Y 5364   4.529   4.974   3.221  0.1758  1.0654  0.8859
   65SAPC   C36 5365   4.640   5.062   3.377  0.1623  0.3436 -0.1256
   65SAPC   H6X 5366   4.637   5.157   3.320 -0.3977 -0.5496 -1.6344
   65SAPC   H6Y 5367   4.736   5.040   3.429 -1.3841 -0.5573  2.5901
   65SAPC   C37 5368   4.548   5.082   3.500  0.2216  0.2019  0.1064
   65SAPC   H7X 5369   4.442   5.077   3.468  0.5260 -1.6203 -0.7496
   65SAPC   H7Y 5370   4.563   5.178   3.553  1.3454  1.7539 -2.8209
   65SAPC   C38 5371   4.561   4.977   3.612 -0.6423 -0.4480 -1.1261
   65SAPC   H8X 5372   4.546   4.875   3.572 -2.9628 -0.3547 -0.6016
   65SAPC   H8Y 5373   4.485   4.998   3.690  1.5206 -2.5165  1.7638
   65SAPC   C39 5374   4.692   5.008   3.687  0.5882  0.3948 -0.6096
   65SAPC   H9X 5375   4.710   5.116   3.702 -0.8684  0.5044  0.5741
   65SAPC   H9Y 5376   4.771   4.975   3.617 -0.3986  1.3909 -2.2295
   65SAPC  C310 5377   4.688   4.938   3.824  0.8407 -0.6680  0.7161
   65SAPC  H10X 5378   4.643   4.837   3.827 -2.5348  0.7173  3.7565
   65SAPC  H10Y 5379   4.612   4.987   3.888  1.3929  0.8117  0.2784
   65SAPC  C311 5380   4.824   4.961   3.902 -0.2042 -0.3349  0.6707
   65SAPC  H11X 5381   4.905   4.905   3.850 -2.4905 -3.6701  0.3871
   65SAPC  H11Y 5382   4.808   4.908   3.998 -0.6358 -0.6779  0.4093
   65SAPC  C312 5383   4.867   5.102   3.911  0.1443 -0.3884 -0.3726
   65SAPC  H12X 5384   4.768   5.153   3.909  0.3365 -0.0132 -0.5434
   65SAPC  H12Y 5385   4.910   5.138   3.816 -2.8930  3.8175 -0.4857
   65SAPC  C313 5386   4.936   5.154   4.044  0.0263 -0.1462  0.7326
   65SAPC  H13X 5387   4.916   5.262   4.059 -1.6856 -0.3161 -0.0606
   65SAPC  H13Y 5388   5.045   5.144   4.022 -0.0798  0.2091  0.0314
   65SAPC  C314 5389   4.898   5.087   4.174  0.7950 -0.5339 -0.5146
   65SAPC  H14X 5390   4.921   4.978   4.165  0.3426 -0.6789  0.0553
   65SAPC  H14Y 5391   4.789   5.082   4.196  0.9219 -2.8235 -0.1117
   65SAPC  C315 5392   4.966   5.136   4.303  0.0080 -0.2357  0.4163
   65SAPC  H15X 5393   5.076   5.119   4.308  0.1355 -1.5220 -3.5635
   65SAPC  H15Y 5394   4.928   5.076   4.388 -0.5629 -0.3007  0.1150
   65SAPC  C316 5395   4.935   5.294   4.327 -0.3219  0.4194  0.6656
   65SAPC  H16X 5396   4.829   5.310   4.297 -0.5007 -2.9398 -0.8587
   65SAPC  H16Y 5397   5.002   5.355   4.262  0.7550 -0.7376  0.6651
   65SAPC  C317 5398   4.951   5.335   4.474 -0.0928 -0.0742 -0.6418
   65SAPC  H17X 5399   5.042   5.298   4.526 -1.7303 -0.4125  2.2180
   65SAPC  H17Y 5400   4.872   5.273   4.522 -0.3566  0.4316 -0.4182
   65SAPC  C318 5401   4.927   5.484   4.488  0.0455  0.0895  0.1022
   65SAPC  H18X 5402   4.848   5.516   4.416 -0.7796 -2.3856 -0.1852
   65SAPC  H18Y 5403   5.017   5.538   4.451 -1.7091  1.2719 -2.7877
   65SAPC  H18Z 5404   4.919   5.518   4.594 -1.5008  1.1848 -0.3279
   66SAPC     N 5405   0.050   0.594   1.674  0.3649  0.1706  0.2326
   66SAPC   C12 5406   0.152   0.501   1.617 -1.0732  0.4750  0.2641
   66SAPC  H12A 5407   0.152   0.494   1.509 -1.5050 -1.0429  0.3456
   66SAPC  H12B 5408   0.134   0.406   1.664 -2.5364 -0.1483 -1.4266
   66SAPC   C13 5409   0.092   0.631   1.808  0.0110 -0.5684  0.2542
   66SAPC  H13A 5410   0.019   0.694   1.856  2.6759  1.2661  2.2159
   66SAPC  H13B 5411   0.115   0.546   1.872  3.4591 -0.9346 -1.2584
   66SAPC  H13C 5412   0.179   0.692   1.791 -1.7611  2.4793  1.3103
   66SAPC   C14 5413   0.029   0.717   1.578  0.1940  0.0801 -0.4674
   66SAPC  H14A 5414  -0.040   0.788   1.620  1.1591 -0.1991  1.7390
   66SAPC  H14B 5415   0.122   0.767   1.555 -0.5991  2.2288  0.8184
   66SAPC  H14C 5416  -0.004   0.676   1.483  1.2696 -0.2425 -0.7152
   66SAPC   C15 5417  -0.087   0.530   1.674  0.8164 -0.1426  0.4187
   66SAPC  H15A 5418  -0.088   0.437   1.729  0.8520  0.6815  1.8614
   66SAPC  H15B 5419  -0.166   0.589   1.718 -0.6772 -1.6385 -0.1130
   66SAPC  H15C 5420  -0.113   0.518   1.570  3.9695 -1.9736 -0.2861
   66SAPC   C11 5421   0.302   0.524   1.649 -0.0700 -0.9699 -0.4522
   66SAPC  H11A 5422   0.323   0.633   1.642 -1.5743 -0.6353 -0.0715
   66SAPC  H11B 5423   0.381   0.468   1.594  2.0750  2.9955 -1.8064
   66SAPC     P 5424   0.317   0.330   1.829 -0.1671 -0.0689  0.0982
   66SAPC   O13 5425   0.195   0.267   1.774 -0.1789 -0.2240 -0.1125
   66SAPC   O14 5426   0.442   0.273   1.780  0.2922  0.1162  0.1544
   66SAPC   O12 5427   0.326   0.487   1.788  0.1834 -0.2806 -0.4518
   66SAPC   O11 5428   0.317   0.330   1.986 -0.7970 -0.0887 -0.2417
   66SAPC    C1 5429   0.403   0.430   2.051 -0.3634  0.6677  0.4428
   66SAPC    HA 5430   0.496   0.447   1.992 -0.3164  2.1055  0.8937
   66SAPC    HB 5431   0.342   0.523   2.056  0.6774  1.5551 -1.8426
   66SAPC    C2 5432   0.433   0.384   2.193 -0.5558  0.5461  0.7616
   66SAPC    HS 5433   0.475   0.282   2.185 -3.4754 -0.6487 -0.5943
   66SAPC   O21 5434   0.302   0.388   2.259  0.0900  0.6108  0.2170
   66SAPC   C21 5435   0.285   0.299   2.365  0.1208  0.6118  0.5173
   66SAPC   O22 5436   0.371   0.232   2.413 -0.2173  0.4925  0.1083
   66SAPC   C22 5437   0.149   0.319   2.432 -0.1415 -0.0939 -0.0908
   66SAPC   H2R 5438   0.126   0.428   2.440 -2.3944 -0.4695 -0.7087
   66SAPC   H2S 5439   0.072   0.286   2.360 -0.0832  1.2401 -0.7880
   66SAPC    C3 5440   0.540   0.479   2.256 -0.2772  0.1991 -0.3721
   66SAPC    HX 5441   0.505   0.580   2.228  0.8491  1.1997  1.5827
   66SAPC    HY 5442   0.643   0.463   2.219 -0.4253  1.4362 -1.3821
   66SAPC   O31 5443   0.540   0.490   2.394  0.6284  0.4102 -0.3108
   66SAPC   C31 5444   0.605   0.399   2.464 -0.4043 -0.6300  0.7103
   66SAPC   O32 5445   0.682   0.319   2.419 -0.3809 -0.0357  0.4561
   66SAPC   C32 5446   0.576   0.422   2.615 -0.2738 -0.0641 -0.0971
   66SAPC   H2X 5447   0.477   0.472   2.620 -0.5898 -0.1815 -3.1505
   66SAPC   H2Y 5448   0.650   0.489   2.664 -0.3067  0.9769 -1.4126
   66SAPC   C23 5449   0.129   0.271   2.581 -0.3451 -0.0205  1.2225
   66SAPC   H3R 5450   0.214   0.300   2.647 -1.2043 -0.9306  2.7882
   66SAPC   H3S 5451   0.136   0.160   2.577  1.6647  0.0937 -1.6784
   66SAPC   C24 5452  -0.003   0.329   2.650  0.2438  0.5278  1.3131
   66SAPC   H4R 5453  -0.020   0.432   2.612  2.9474  0.6109  0.1013
   66SAPC   H4S 5454   0.014   0.334   2.760  1.0772  2.5503  1.1391
   66SAPC   C25 5455  -0.117   0.252   2.595  0.0573 -0.2396 -0.0784
   66SAPC   H5R 5456  -0.126   0.235   2.487  1.4049  2.7782 -0.7820
   66SAPC   C26 5457  -0.209   0.191   2.670  0.7473 -0.1522  0.9541
   66SAPC   H6R 5458  -0.286   0.128   2.626 -0.7506  2.7180 -0.8536
   66SAPC   C27 5459  -0.223   0.204   2.818  0.8247 -0.1213  0.4400
   66SAPC   H7R 5460  -0.227   0.312   2.846 -0.4899  0.5043 -1.8416
   66SAPC   H7S 5461  -0.130   0.167   2.866  2.3762  1.1455 -1.4426
   66SAPC   C28 5462  -0.355   0.144   2.865 -0.1932 -0.4173 -0.6589
   66SAPC   H8R 5463  -0.427   0.144   2.782  0.2083  0.2036 -1.0162
   66SAPC   C29 5464  -0.369   0.099   2.991  0.3554  0.2493  0.1544
   66SAPC   H9R 5465  -0.468   0.062   3.022  0.0445 -1.6409 -2.6745
   66SAPC  C210 5466  -0.269   0.080   3.101 -0.2942 -0.2571 -0.1058
   66SAPC  H10R 5467  -0.165   0.100   3.067 -0.1829 -2.1445 -0.9893
   66SAPC  H10S 5468  -0.265  -0.030   3.117  0.4045 -0.3219 -0.6670
   66SAPC  C211 5469  -0.308   0.162   3.224  0.5491  0.3998 -1.0021
   66SAPC  H11R 5470  -0.369   0.252   3.209  1.3393  0.6047 -3.4729
   66SAPC  C212 5471  -0.280   0.115   3.347  0.6218 -0.0114 -0.1431
   66SAPC  H12R 5472  -0.297   0.184   3.430  3.7443  2.7381 -1.5564
   66SAPC  C213 5473  -0.201  -0.005   3.389 -0.0686  0.3862  0.2090
   66SAPC  H13R 5474  -0.205  -0.088   3.315  1.3858 -0.4209  0.9970
   66SAPC  H13S 5475  -0.245  -0.053   3.479 -2.3544  0.1073 -0.9797
   66SAPC  C214 5476  -0.060   0.019   3.434  0.1250  0.1933  0.7540
   66SAPC  H14R 5477   0.012   0.038   3.353  0.0876  0.3434  0.7560
   66SAPC  C215 5478  -0.017   0.015   3.566 -0.0053  0.0184  0.3300
   66SAPC  H15R 5479   0.091   0.005   3.584  0.2016 -4.5323 -2.0537
   66SAPC  C216 5480  -0.109   0.006   3.690 -0.2289  0.2267 -0.3521
   66SAPC  H16R 5481  -0.184  -0.076   3.683  1.0560 -1.3271  2.3683
   66SAPC  H16S 5482  -0.157   0.104   3.711 -2.4947 -0.8889 -0.1175
   66SAPC  C217 5483  -0.013  -0.029   3.797 -0.6125  0.0951 -0.3283
   66SAPC  H17R 5484   0.083   0.026   3.799  0.9141 -2.3474 -1.7120
   66SAPC  H17S 5485   0.018  -0.136   3.796 -0.6950  0.0428  0.8900
   66SAPC  C218 5486  -0.081   0.003   3.935  0.2140  0.3740 -0.3784
   66SAPC  H18R 5487  -0.180  -0.047   3.934  1.2012 -1.7091  0.4961
   66SAPC  H18S 5488  -0.100   0.110   3.958 -1.9930  0.1393 -0.8201
   66SAPC  C219 5489  -0.007  -0.062   4.053 -0.0194 -0.0959 -0.6766
   66SAPC  H19R 5490   0.102  -0.038   4.052 -0.0216  1.2243  3.8470
   66SAPC  H19S 5491  -0.014  -0.173   4.055  1.0160 -0.1785  0.6999
   66SAPC  C220 5492  -0.060  -0.016   4.189 -0.6969  0.0738  0.5865
   66SAPC  H20R 5493  -0.064   0.095   4.191 -0.3903  0.2386 -2.5065
   66SAPC  H20S 5494   0.002  -0.046   4.276 -1.5335  0.9835  1.5004
   66SAPC  H20T 5495  -0.166  -0.049   4.196 -1.0664  0.7194 -1.3426
   66SAPC   C33 5496   0.575   0.285   2.687  0.0316 -0.7115  0.6902
   66SAPC   H3X 5497   0.680   0.250   2.676  0.2532  0.3010 -0.4852
   66SAPC   H3Y 5498   0.513   0.208   2.636 -0.0905 -1.2914  1.6816
   66SAPC   C34 5499   0.519   0.299   2.835  0.3805  0.6287 -0.0534
   66SAPC   H4X 5500   0.533   0.198   2.878 -2.2100  0.3341  0.2772
   66SAPC   H4Y 5501   0.409   0.307   2.826  0.1803 -0.7100  0.8604
   66SAPC   C35 5502   0.588   0.398   2.915  0.4120 -0.1014  0.1817
   66SAPC   H5X 5503   0.546   0.497   2.887 -1.9360 -1.1142 -0.1529
   66SAPC   H5Y 5504   0.698   0.388   2.906  0.7610  1.9841  1.4264
   66SAPC   C36 5505   0.549   0.378   3.062  0.0328  0.4274 -0.4288
   66SAPC   H6X 5506   0.580   0.275   3.089  0.1027  0.3795 -0.6870
   66SAPC   H6Y 5507   0.439   0.379   3.075  0.0636  1.4687 -0.1689
   66SAPC   C37 5508   0.617   0.479   3.153  0.0370  0.4259  0.8674
   66SAPC   H7X 5509   0.594   0.579   3.111 -0.1701  0.0786  0.1347
   66SAPC   H7Y 5510   0.725   0.456   3.139 -0.4539 -0.7517 -1.3856
   66SAPC   C38 5511   0.575   0.459   3.301  0.7284 -0.3431 -0.5570
   66SAPC   H8X 5512   0.637   0.377   3.344  0.6946 -1.6231 -2.7910
   66SAPC   H8Y 5513   0.469   0.427   3.297  0.9187 -1.1835  0.6223
   66SAPC   C39 5514   0.601   0.587   3.381 -0.1766 -0.0880  1.1617
   66SAPC   H9X 5515   0.569   0.676   3.321 -0.6949 -0.7545  0.4255
   66SAPC   H9Y 5516   0.710   0.584   3.397 -0.4285  1.7455  3.9221
   66SAPC  C310 5517   0.536   0.598   3.516  0.6164  0.1656 -0.4607
   66SAPC  H10X 5518   0.432   0.635   3.510 -0.0461 -1.4372  0.4348
   66SAPC  H10Y 5519   0.592   0.680   3.566  0.2024  0.1348  0.0623
   66SAPC  C311 5520   0.541   0.463   3.595  0.6402 -0.7812  0.4599
   66SAPC  H11X 5521   0.651   0.452   3.603  1.0446  1.8098 -0.5422
   66SAPC  H11Y 5522   0.491   0.376   3.548 -1.2277 -0.3239  1.4935
   66SAPC  C312 5523   0.480   0.481   3.733  0.3966  0.1109 -0.2401
   66SAPC  H12X 5524   0.369   0.481   3.735  0.3775 -1.3126  1.1988
   66SAPC  H12Y 5525   0.521   0.573   3.779 -0.5822 -1.3637  4.1500
   66SAPC  C313 5526   0.515   0.361   3.820  0.4316  0.6800  0.2006
   66SAPC  H13X 5527   0.622   0.331   3.823  0.1738 -0.2596  0.3093
   66SAPC  H13Y 5528   0.464   0.276   3.770  0.9177  0.9561 -0.7884
   66SAPC  C314 5529   0.474   0.384   3.961 -1.1218 -0.2079  0.0849
   66SAPC  H14X 5530   0.363   0.397   3.959 -0.9704  1.3201 -0.0065
   66SAPC  H14Y 5531   0.507   0.481   4.003 -0.3250  0.5349 -2.1206
   66SAPC  C315 5532   0.513   0.274   4.061  0.2942  0.4083 -0.0546
   66SAPC  H15X 5533   0.624   0.283   4.061  0.2360  1.6397  1.7178
   66SAPC  H15Y 5534   0.472   0.178   4.022 -1.4326  0.8638  0.5881
   66SAPC  C316 5535   0.468   0.318   4.205 -0.4763  0.0158 -0.1010
   66SAPC  H16X 5536   0.366   0.280   4.227 -0.7650  1.2223  0.7019
   66SAPC  H16Y 5537   0.464   0.426   4.231  0.4603  0.0920 -0.2527
   66SAPC  C317 5538   0.562   0.254   4.300 -0.1359  0.0824  0.0644
   66SAPC  H17X 5539   0.661   0.303   4.308  0.0185 -0.2257  0.0241
   66SAPC  H17Y 5540   0.583   0.152   4.261  0.0796 -0.0819  0.6032
   66SAPC  C318 5541   0.519   0.249   4.449 -0.2219  0.0745 -0.9517
   66SAPC  H18X 5542   0.602   0.270   4.519 -2.0210  1.8628  0.8147
   66SAPC  H18Y 5543   0.462   0.155   4.466 -2.0428  1.0492 -1.3410
   66SAPC  H18Z 5544   0.445   0.332   4.460  0.5518  0.6212  0.3245
   67SAPC     N 5545   4.657   5.768   2.039  0.3862  0.4533 -0.5662
   67SAPC   C12 5546   4.608   5.634   2.101  0.6441 -0.1149 -0.4537
   67SAPC  H12A 5547   4.579   5.568   2.020 -0.1430  2.0241 -2.0309
   67SAPC  H12B 5548   4.511   5.651   2.147 -0.6071  0.3990 -3.0809
   67SAPC   C13 5549   4.772   5.738   1.954 -0.0670  0.5970  0.5022
   67SAPC  H13A 5550   4.825   5.828   1.926 -2.0373  0.9807 -2.4029
   67SAPC  H13B 5551   4.831   5.676   2.020 -1.6856 -1.3129  0.2256
   67SAPC  H13C 5552   4.753   5.679   1.866  0.9997 -1.5294  1.6283
   67SAPC   C14 5553   4.556   5.831   1.952 -0.3101  0.5919  0.3701
   67SAPC  H14A 5554   4.582   5.932   1.923 -1.5936  1.0641  0.7925
   67SAPC  H14B 5555   4.528   5.771   1.867 -1.9540  1.1740  0.4785
   67SAPC  H14C 5556   4.467   5.829   2.012 -0.2959  1.0533  0.4128
   67SAPC   C15 5557   4.700   5.854   2.154  0.0023  0.1709 -0.2646
   67SAPC  H15A 5558   4.773   5.803   2.216 -1.1171 -1.6210 -0.3347
   67SAPC  H15B 5559   4.757   5.942   2.130  0.0037  0.5972  1.2306
   67SAPC  H15C 5560   4.619   5.889   2.217  2.3674  0.4592  2.8557
   67SAPC   C11 5561   4.693   5.577   2.218 -0.2099 -0.3445 -0.0458
   67SAPC  H11A 5562   4.648   5.482   2.254  0.3014 -0.1698  1.1050
   67SAPC  H11B 5563   4.699   5.639   2.310  3.8379 -0.4715 -0.0223
   67SAPC     P 5564   4.917   5.443   2.230  0.4100 -0.4127  0.2299
   67SAPC   O13 5565   4.840   5.320   2.196 -0.5534  0.2063  0.1776
   67SAPC   O14 5566   5.049   5.460   2.170  0.1607  0.4206 -0.1544
   67SAPC   O12 5567   4.826   5.564   2.180 -0.0794  0.2876 -0.0541
   67SAPC   O11 5568   4.918   5.460   2.389  0.4540  0.7696  0.6544
   67SAPC    C1 5569   4.995   5.570   2.441  0.2213 -0.4970 -0.4157
   67SAPC    HA 5570   5.041   5.642   2.370  1.0921  0.9253  1.5034
   67SAPC    HB 5571   4.935   5.627   2.515  0.6371 -1.7605  0.9413
   67SAPC    C2 5572   5.118   5.528   2.530 -0.3334  0.6327  0.0948
   67SAPC    HS 5573   5.184   5.465   2.467 -0.3855  1.2655 -0.6089
   67SAPC   O21 5574   5.072   5.469   2.646  0.3464 -0.2007  0.1184
   67SAPC   C21 5575   5.132   5.360   2.689  0.1647  0.0450 -0.3611
   67SAPC   O22 5576   5.232   5.310   2.638  0.0476  0.5831  0.2938
   67SAPC   C22 5577   5.073   5.319   2.825 -0.0095  1.4385  0.4763
   67SAPC   H2R 5578   5.075   5.406   2.894 -0.0990 -0.0883  2.4818
   67SAPC   H2S 5579   4.965   5.296   2.813  0.1966  1.0570 -0.7427
   67SAPC    C3 5580   5.197   5.647   2.574  0.4234  0.3948  0.4617
   67SAPC    HX 5581   5.128   5.724   2.615 -1.9934 -1.2394 -0.3040
   67SAPC    HY 5582   5.247   5.677   2.480 -1.1905 -1.4466 -1.0581
   67SAPC   O31 5583   5.283   5.610   2.687  0.1049 -0.3293  0.2840
   67SAPC   C31 5584   5.406   5.573   2.662  0.1923 -0.9737 -0.2966
   67SAPC   O32 5585   5.464   5.587   2.557  0.4888 -0.1225 -0.0711
   67SAPC   C32 5586   5.470   5.509   2.784 -0.7164  0.1875  0.3961
   67SAPC   H2X 5587   5.578   5.499   2.760 -0.7310  0.4579  0.2177
   67SAPC   H2Y 5588   5.417   5.413   2.802  1.9412 -1.2680  0.9302
   67SAPC   C23 5589   5.153   5.194   2.879 -0.1062  0.2986  0.2446
   67SAPC   H3R 5590   5.263   5.213   2.884 -0.0975  0.1552  0.7136
   67SAPC   H3S 5591   5.132   5.113   2.807 -0.4700  1.1437 -0.6288
   67SAPC   C24 5592   5.111   5.148   3.022 -0.1002  0.0441 -0.4893
   67SAPC   H4R 5593   5.006   5.113   3.027  0.0058 -0.1410  3.4338
   67SAPC   H4S 5594   5.116   5.233   3.094 -1.4946 -0.1345 -0.1663
   67SAPC   C25 5595   5.189   5.027   3.066 -0.2294  0.0356  0.2288
   67SAPC   H5R 5596   5.175   4.930   3.015  0.7668  0.5133 -0.9845
   67SAPC   C26 5597   5.274   5.028   3.171  0.4754  0.0112 -0.2022
   67SAPC   H6R 5598   5.327   4.933   3.185  3.0002  1.2566 -0.7571
   67SAPC   C27 5599   5.307   5.146   3.262 -0.3586 -0.0872  0.0374
   67SAPC   H7R 5600   5.220   5.169   3.328  1.3327  2.9208  1.4383
   67SAPC   H7S 5601   5.325   5.236   3.200  1.8265 -0.9660 -0.6994
   67SAPC   C28 5602   5.442   5.128   3.336  0.2821  0.1119  0.5846
   67SAPC   H8R 5603   5.533   5.131   3.274  0.5598 -0.0821  0.9773
   67SAPC   C29 5604   5.474   5.134   3.467  0.2522  0.5321 -0.4403
   67SAPC   H9R 5605   5.578   5.119   3.500 -0.1682  2.2905  1.9530
   67SAPC  C210 5606   5.377   5.117   3.584 -0.4059 -1.1191 -0.3300
   67SAPC  H10R 5607   5.425   5.049   3.658 -2.3259 -0.8697  1.2120
   67SAPC  H10S 5608   5.281   5.069   3.554  0.1511 -0.7763 -2.8113
   67SAPC  C211 5609   5.360   5.248   3.666  0.0503 -0.3149  0.1755
   67SAPC  H11R 5610   5.338   5.335   3.602 -3.5756 -1.8915 -0.9469
   67SAPC  C212 5611   5.347   5.255   3.800  0.1157  0.5100 -0.2763
   67SAPC  H12R 5612   5.347   5.351   3.854 -0.3533  0.4983 -0.2532
   67SAPC  C213 5613   5.346   5.135   3.892  0.0732 -0.6233 -0.0561
   67SAPC  H13R 5614   5.354   5.035   3.843 -0.7575 -0.4650 -0.5392
   67SAPC  H13S 5615   5.251   5.120   3.948 -0.9914 -1.7167 -2.0259
   67SAPC  C214 5616   5.466   5.158   3.977 -0.1267  0.2709  1.1288
   67SAPC  H14R 5617   5.558   5.113   3.936 -0.6901 -0.1285  0.2815
   67SAPC  C215 5618   5.471   5.223   4.093 -0.3726  0.6306 -0.6007
   67SAPC  H15R 5619   5.568   5.228   4.145 -0.2129  0.5987 -0.8946
   67SAPC  C216 5620   5.360   5.291   4.179 -0.0351  0.5907  0.5645
   67SAPC  H16R 5621   5.265   5.286   4.121 -0.2562 -1.2835  1.0282
   67SAPC  H16S 5622   5.383   5.400   4.179 -0.6277  0.7758 -1.7530
   67SAPC  C217 5623   5.338   5.221   4.313 -0.1161 -0.5889 -0.2753
   67SAPC  H17R 5624   5.310   5.118   4.280  0.4454 -0.9189  0.2570
   67SAPC  H17S 5625   5.244   5.259   4.357 -0.8970 -2.2840 -0.4045
   67SAPC  C218 5626   5.450   5.231   4.418 -0.1391  0.4682 -0.1734
   67SAPC  H18R 5627   5.493   5.333   4.431  0.5938  0.0919  0.4435
   67SAPC  H18S 5628   5.539   5.170   4.393 -0.5043 -0.5197  0.8483
   67SAPC  C219 5629   5.398   5.173   4.558 -0.8153  0.9982 -0.6165
   67SAPC  H19R 5630   5.292   5.203   4.574 -1.1290  0.1405 -1.0153
   67SAPC  H19S 5631   5.465   5.201   4.642  0.4201  1.5984 -1.7614
   67SAPC  C220 5632   5.396   5.018   4.581 -0.3007  0.6570 -0.1485
   67SAPC  H20R 5633   5.332   4.984   4.664 -1.2535  0.6561 -0.8691
   67SAPC  H20S 5634   5.500   4.980   4.597 -0.7483 -1.4550 -1.7291
   67SAPC  H20T 5635   5.362   4.966   4.489  0.2104  1.0158 -0.5446
   67SAPC   C33 5636   5.464   5.601   2.913  0.0420 -0.0360  0.0694
   67SAPC   H3X 5637   5.356   5.628   2.921 -0.3024 -1.5469  0.9360
   67SAPC   H3Y 5638   5.540   5.680   2.894  3.4910 -3.0554  0.3350
   67SAPC   C34 5639   5.511   5.517   3.043 -0.6972 -0.6417 -0.8769
   67SAPC   H4X 5640   5.604   5.464   3.013 -0.9130 -0.3913 -2.0229
   67SAPC   H4Y 5641   5.440   5.435   3.068  0.3227 -1.1830  0.4041
   67SAPC   C35 5642   5.532   5.597   3.171  0.1610  0.7165 -0.7485
   67SAPC   H5X 5643   5.441   5.653   3.199 -0.0633 -0.0739  0.1737
   67SAPC   H5Y 5644   5.603   5.679   3.149  0.5287  1.0360  1.4497
   67SAPC   C36 5645   5.575   5.511   3.286 -0.0091  0.4355 -0.4804
   67SAPC   H6X 5646   5.685   5.504   3.275  0.1768  2.1815 -0.0241
   67SAPC   H6Y 5647   5.525   5.412   3.285 -0.1905  0.5234 -0.2348
   67SAPC   C37 5648   5.542   5.584   3.419  0.7062 -0.5502  0.1490
   67SAPC   H7X 5649   5.432   5.586   3.429  0.6131 -0.3503 -0.7841
   67SAPC   H7Y 5650   5.585   5.686   3.409  0.8209 -0.6917 -0.8893
   67SAPC   C38 5651   5.612   5.523   3.538 -0.0156 -0.8946 -0.7247
   67SAPC   H8X 5652   5.719   5.535   3.509  0.3576  0.9133  1.1454
   67SAPC   H8Y 5653   5.588   5.414   3.541 -0.4503 -0.7812  1.0538
   67SAPC   C39 5654   5.589   5.603   3.667  0.8881  0.1276  0.1347
   67SAPC   H9X 5655   5.482   5.591   3.694  1.5373 -1.6525  2.1673
   67SAPC   H9Y 5656   5.605   5.712   3.650 -1.7596  0.5460 -0.1551
   67SAPC  C310 5657   5.668   5.547   3.784  0.2349  0.7005  0.2766
   67SAPC  H10X 5658   5.774   5.541   3.750 -0.1668 -1.3122 -0.7269
   67SAPC  H10Y 5659   5.643   5.441   3.807  1.1531  0.9805  2.9262
   67SAPC  C311 5660   5.641   5.618   3.911 -0.9048  0.1294 -0.2014
   67SAPC  H11X 5661   5.534   5.596   3.932 -0.3314 -1.8715  0.9553
   67SAPC  H11Y 5662   5.666   5.726   3.908 -0.8154  0.0892 -0.9120
   67SAPC  C312 5663   5.724   5.561   4.028 -0.5083  0.2588  0.4705
   67SAPC  H12X 5664   5.833   5.583   4.022 -0.1529 -0.9056  1.9519
   67SAPC  H12Y 5665   5.712   5.450   4.020  0.9872  0.1284 -0.5150
   67SAPC  C313 5666   5.686   5.602   4.169  0.0745 -0.1531  0.3461
   67SAPC  H13X 5667   5.748   5.542   4.239 -0.1071 -0.2649  0.4098
   67SAPC  H13Y 5668   5.580   5.570   4.178 -0.0497  0.1005 -0.1792
   67SAPC  C314 5669   5.688   5.752   4.192 -0.2957 -0.1306 -0.4140
   67SAPC  H14X 5670   5.606   5.798   4.132 -0.4468 -0.5279 -0.5176
   67SAPC  H14Y 5671   5.784   5.776   4.142 -0.8468  0.3304 -1.2766
   67SAPC  C315 5672   5.679   5.796   4.339 -0.3284  0.9295  0.3868
   67SAPC  H15X 5673   5.758   5.736   4.390 -1.1611  0.9301  1.7493
   67SAPC  H15Y 5674   5.578   5.771   4.379 -0.6576 -1.1382 -1.5598
   67SAPC  C316 5675   5.721   5.943   4.368 -0.3581  0.0593 -1.0656
   67SAPC  H16X 5676   5.665   6.011   4.301 -1.7512  1.1744  1.1226
   67SAPC  H16Y 5677   5.829   5.957   4.348 -0.0951  0.9191  0.8150
   67SAPC  C317 5678   5.692   5.983   4.515  0.1914  0.3651  0.2566
   67SAPC  H17X 5679   5.609   5.915   4.545  1.3605 -1.1698  0.1404
   67SAPC  H17Y 5680   5.659   6.088   4.527 -0.5014  0.3036 -0.9296
   67SAPC  C318 5681   5.804   5.953   4.612 -0.4946 -0.2556 -0.8153
   67SAPC  H18X 5682   5.893   6.016   4.590 -1.1844  1.8161  1.8100
   67SAPC  H18Y 5683   5.833   5.846   4.621 -0.3807 -0.1003  1.4278
   67SAPC  H18Z 5684   5.776   5.970   4.718 -0.5915 -1.3389 -0.6565
   68SAPC     N 5685   0.049   6.594   1.798  0.0630  0.3805 -0.4683
   68SAPC   C12 5686   0.175   6.544   1.863 -0.3891  0.0223 -0.1164
   68SAPC  H12A 5687   0.262   6.598   1.828  0.5473 -0.2698  1.6715
   68SAPC  H12B 5688   0.195   6.441   1.836 -2.7234 -0.4283 -0.3493
   68SAPC   C13 5689  -0.075   6.518   1.831  0.5444  0.5669  0.1312
   68SAPC  H13A 5690  -0.158   6.560   1.775  1.7653  1.1102 -1.3459
   68SAPC  H13B 5691  -0.071   6.418   1.791  0.0521  0.8784 -0.7302
   68SAPC  H13C 5692  -0.093   6.519   1.938  2.2911  1.2482  0.4502
   68SAPC   C14 5693   0.026   6.739   1.830 -0.3308  0.1128 -0.7555
   68SAPC  H14A 5694   0.113   6.800   1.813 -1.1572  1.1459 -1.4162
   68SAPC  H14B 5695  -0.051   6.776   1.764 -0.9043 -0.4501 -0.4144
   68SAPC  H14C 5696  -0.004   6.746   1.934  3.3478 -0.2257  0.4710
   68SAPC   C15 5697   0.073   6.595   1.654 -0.1638  0.2004  0.0937
   68SAPC  H15A 5698   0.173   6.635   1.643  0.1514 -0.4171  0.6564
   68SAPC  H15B 5699   0.066   6.496   1.613 -1.3573 -0.6294  2.1798
   68SAPC  H15C 5700   0.003   6.657   1.601 -0.1577  0.4315  0.3517
   68SAPC   C11 5701   0.194   6.565   2.013 -0.2442 -0.2167 -0.4614
   68SAPC  H11A 5702   0.203   6.673   2.037 -1.6065 -0.0632 -0.5556
   68SAPC  H11B 5703   0.296   6.535   2.045  0.3040  1.9589  0.0053
   68SAPC     P 5704   0.108   6.358   2.139 -0.2952  0.0131  0.2187
   68SAPC   O13 5705  -0.025   6.302   2.164 -0.5463  0.2182  0.2092
   68SAPC   O14 5706   0.199   6.280   2.047 -0.3845  0.7435 -0.4444
   68SAPC   O12 5707   0.087   6.503   2.084  0.0259  0.6834 -0.1895
   68SAPC   O11 5708   0.176   6.386   2.279 -0.4998  0.2754  0.2603
   68SAPC    C1 5709   0.162   6.512   2.352  0.1259 -0.4445 -0.3850
   68SAPC    HA 5710   0.181   6.594   2.280 -1.3596 -1.6165 -2.2131
   68SAPC    HB 5711   0.061   6.526   2.396  1.6551  2.7661  2.5700
   68SAPC    C2 5712   0.274   6.525   2.459 -0.6417  0.2398 -0.0742
   68SAPC    HS 5713   0.371   6.496   2.413  0.5242  1.5372  1.4069
   68SAPC   O21 5714   0.241   6.450   2.580  0.0306 -0.2016 -0.2804
   68SAPC   C21 5715   0.343   6.401   2.648 -0.0329  0.7648  0.1191
   68SAPC   O22 5716   0.459   6.399   2.614 -0.1635 -0.1808  0.1347
   68SAPC   C22 5717   0.293   6.352   2.795  0.0052  0.1741  0.7882
   68SAPC   H2R 5718   0.228   6.433   2.835  1.1274  1.8848 -0.7139
   68SAPC   H2S 5719   0.226   6.269   2.763 -0.7661  0.8173  0.6987
   68SAPC    C3 5720   0.302   6.678   2.479  0.6500 -0.0040 -0.2541
   68SAPC    HX 5721   0.215   6.715   2.537  1.8222 -1.5205  2.6755
   68SAPC    HY 5722   0.303   6.737   2.385  0.7837 -0.3561 -0.4742
   68SAPC   O31 5723   0.406   6.706   2.568 -0.4128 -0.8310  0.0395
   68SAPC   C31 5724   0.536   6.701   2.505  0.6998 -0.6721 -0.4673
   68SAPC   O32 5725   0.549   6.688   2.385  0.2595  0.0161  0.3525
   68SAPC   C32 5726   0.645   6.694   2.611 -0.2955  0.5626 -0.2184
   68SAPC   H2X 5727   0.712   6.779   2.587 -1.9051  2.5211  1.8315
   68SAPC   H2Y 5728   0.698   6.599   2.591  0.2315  0.8674 -0.2816
   68SAPC   C23 5729   0.401   6.296   2.888  0.1603 -0.1895  0.2940
   68SAPC   H3R 5730   0.491   6.284   2.824  0.7360  2.0429  0.5844
   68SAPC   H3S 5731   0.369   6.198   2.929  0.4402  0.4461  2.1368
   68SAPC   C24 5732   0.426   6.400   3.007 -0.0388  0.2967 -0.0479
   68SAPC   H4R 5733   0.324   6.428   3.041  0.5632  2.1751  0.3065
   68SAPC   H4S 5734   0.466   6.492   2.958 -1.5987  1.1734  0.2467
   68SAPC   C25 5735   0.513   6.338   3.114  0.2137  0.8702 -0.1322
   68SAPC   H5R 5736   0.590   6.264   3.092  0.0352  0.7439 -0.3324
   68SAPC   C26 5737   0.496   6.367   3.246 -0.4140  0.0179 -0.3633
   68SAPC   H6R 5738   0.551   6.308   3.321 -1.1128  0.8707  0.8520
   68SAPC   C27 5739   0.399   6.460   3.318  0.4584 -0.1667  0.1418
   68SAPC   H7R 5740   0.307   6.450   3.257  1.0479 -3.0536 -0.3962
   68SAPC   H7S 5741   0.448   6.560   3.308  0.5144 -0.1882  0.2056
   68SAPC   C28 5742   0.362   6.426   3.457 -0.8323  0.0190  0.3168
   68SAPC   H8R 5743   0.451   6.398   3.515  0.2727 -0.2363 -1.4127
   68SAPC   C29 5744   0.250   6.408   3.518  0.1142 -0.3456  0.6647
   68SAPC   H9R 5745   0.248   6.407   3.628  1.1113 -0.5780  0.6947
   68SAPC  C210 5746   0.117   6.419   3.450 -0.5506 -0.0680  0.0473
   68SAPC  H10R 5747   0.115   6.497   3.371  1.0306  1.1094  1.1065
   68SAPC  H10S 5748   0.038   6.440   3.526 -1.1916 -3.1562  0.3391
   68SAPC  C211 5749   0.072   6.293   3.379 -0.3102  0.7518  0.3312
   68SAPC  H11R 5750   0.157   6.228   3.354 -1.1447  0.1634 -1.0256
   68SAPC  C212 5751  -0.045   6.267   3.321  0.4526 -0.0196  0.3830
   68SAPC  H12R 5752  -0.049   6.171   3.269 -0.4468 -0.0008  0.4072
   68SAPC  C213 5753  -0.174   6.357   3.308 -0.3991 -0.4586 -0.0015
   68SAPC  H13R 5754  -0.173   6.436   3.387  1.5059 -0.0174 -0.4154
   68SAPC  H13S 5755  -0.266   6.299   3.330 -0.3753 -0.0803  1.1731
   68SAPC  C214 5756  -0.189   6.439   3.180  0.3819  0.0063  0.3175
   68SAPC  H14R 5757  -0.174   6.548   3.188 -0.0665  0.1390 -0.5406
   68SAPC  C215 5758  -0.201   6.387   3.055 -0.1687 -0.3023  0.2034
   68SAPC  H15R 5759  -0.212   6.456   2.970  0.3426 -1.0899 -0.5147
   68SAPC  C216 5760  -0.202   6.244   3.021 -0.3977 -0.0344  0.2549
   68SAPC  H16R 5761  -0.296   6.228   2.965 -0.8382  0.9855  0.6749
   68SAPC  H16S 5762  -0.217   6.178   3.110  2.7405  0.9314  1.6559
   68SAPC  C217 5763  -0.077   6.198   2.944  0.0667  0.6749  0.3663
   68SAPC  H17R 5764   0.021   6.213   2.996  0.6279 -0.4629 -0.3239
   68SAPC  H17S 5765  -0.073   6.271   2.861 -1.0098  0.7748  0.3917
   68SAPC  C218 5766  -0.081   6.046   2.895 -0.0917 -0.0657 -0.6963
   68SAPC  H18R 5767  -0.171   6.003   2.944  0.1332 -0.0880 -0.3027
   68SAPC  H18S 5768   0.005   5.993   2.940  0.7002  2.6181  1.1927
   68SAPC  C219 5769  -0.078   6.044   2.743  0.3115  0.7239 -0.4669
   68SAPC  H19R 5770  -0.008   6.124   2.711  0.3117  0.4924 -1.0741
   68SAPC  H19S 5771  -0.175   6.073   2.697  0.1928  0.3209 -0.4717
   68SAPC  C220 5772  -0.024   5.905   2.691  0.4833 -0.1944  0.4123
   68SAPC  H20R 5773  -0.012   5.906   2.580 -1.8037  1.3267  0.1211
   68SAPC  H20S 5774  -0.095   5.824   2.718 -1.1442  0.8417 -0.6308
   68SAPC  H20T 5775   0.073   5.877   2.738  1.4297 -0.1509 -1.4160
   68SAPC   C33 5776   0.607   6.687   2.764  0.1572  0.4964  0.4323
   68SAPC   H3X 5777   0.587   6.586   2.805  1.5439  0.2851  0.6178
   68SAPC   H3Y 5778   0.519   6.754   2.780  0.2838  0.5107  1.0828
   68SAPC   C34 5779   0.710   6.732   2.856  0.2631  0.0177 -0.1001
   68SAPC   H4X 5780   0.741   6.836   2.828  0.7856  0.1258  0.8477
   68SAPC   H4Y 5781   0.789   6.658   2.833  0.9867  1.0035 -0.9173
   68SAPC   C35 5782   0.675   6.738   3.003  0.0875  0.0947  0.0112
   68SAPC   H5X 5783   0.649   6.633   3.027 -0.8617 -0.4167 -2.8388
   68SAPC   H5Y 5784   0.578   6.789   3.025  0.7995  0.6214  2.2074
   68SAPC   C36 5785   0.791   6.793   3.090 -0.3776  0.6352  0.3868
   68SAPC   H6X 5786   0.809   6.896   3.052 -0.3692  1.1791  1.8291
   68SAPC   H6Y 5787   0.877   6.724   3.076 -1.4505 -0.5030 -0.9304
   68SAPC   C37 5788   0.748   6.793   3.233 -0.0344 -0.7662 -0.5005
   68SAPC   H7X 5789   0.700   6.699   3.267  0.4160 -0.8708 -0.1415
   68SAPC   H7Y 5790   0.672   6.874   3.236 -1.7843 -2.3394 -0.6998
   68SAPC   C38 5791   0.865   6.838   3.318  0.1058  0.9328  0.1490
   68SAPC   H8X 5792   0.918   6.920   3.265  2.0442  0.3222  1.0468
   68SAPC   H8Y 5793   0.937   6.754   3.327 -1.5499 -0.3336  2.9734
   68SAPC   C39 5794   0.814   6.874   3.454 -0.7319  0.0359  0.2234
   68SAPC   H9X 5795   0.786   6.780   3.506 -0.3478  0.5811  1.4583
   68SAPC   H9Y 5796   0.719   6.931   3.446  1.1179  3.8749  2.3976
   68SAPC  C310 5797   0.919   6.943   3.542  0.0578 -0.3274  0.5626
   68SAPC  H10X 5798   0.929   7.046   3.501 -0.1401 -0.6125 -0.2250
   68SAPC  H10Y 5799   1.011   6.881   3.535 -0.9775 -1.8959  0.3151
   68SAPC  C311 5800   0.872   6.947   3.686 -0.3175 -0.0009  0.4345
   68SAPC  H11X 5801   0.853   6.843   3.720 -0.3745  0.0281  0.4898
   68SAPC  H11Y 5802   0.787   7.015   3.705 -0.5513 -0.0214 -0.4615
   68SAPC  C312 5803   0.990   6.984   3.779  0.7440 -0.3626 -0.3421
   68SAPC  H12X 5804   0.990   7.095   3.770 -1.4753 -0.2299  0.7975
   68SAPC  H12Y 5805   1.082   6.944   3.731 -0.0139 -3.1540  0.4044
   68SAPC  C313 5806   0.979   6.952   3.931  0.3482 -0.1566 -0.0320
   68SAPC  H13X 5807   1.011   6.846   3.938 -3.5487 -1.4563  0.6633
   68SAPC  H13Y 5808   0.870   6.964   3.948  0.1090 -0.0000 -1.5262
   68SAPC  C314 5809   1.059   7.060   4.012  0.0174  0.0439  0.0817
   68SAPC  H14X 5810   1.014   7.161   4.003 -1.1290 -0.6083 -2.2810
   68SAPC  H14Y 5811   1.163   7.070   3.972  0.0818  0.0867  0.2577
   68SAPC  C315 5812   1.071   7.011   4.155  0.0351 -0.3249 -0.4255
   68SAPC  H15X 5813   1.000   6.927   4.165 -1.0397  0.4630 -1.1951
   68SAPC  H15Y 5814   1.035   7.094   4.219 -1.0133 -0.3395 -0.9776
   68SAPC  C316 5815   1.217   6.978   4.195 -0.2257 -0.5512  0.6532
   68SAPC  H16X 5816   1.285   7.057   4.156 -0.5932  0.5362  2.1084
   68SAPC  H16Y 5817   1.237   6.883   4.142  0.6956 -1.2967  2.2425
   68SAPC  C317 5818   1.262   6.955   4.341 -1.1398 -0.1590 -0.5879
   68SAPC  H17X 5819   1.373   6.955   4.349 -1.1096  1.8144 -0.6975
   68SAPC  H17Y 5820   1.225   6.853   4.363 -1.9253 -0.4284 -2.8563
   68SAPC  C318 5821   1.213   7.053   4.453 -0.5916 -0.4248  0.3580
   68SAPC  H18X 5822   1.103   7.044   4.466 -0.9586  0.8970 -1.3586
   68SAPC  H18Y 5823   1.253   7.156   4.444  2.1401 -1.2128  2.3700
   68SAPC  H18Z 5824   1.263   7.014   4.544  1.0281 -0.8324 -0.6704
   69SAPC     N 5825   5.201   2.835   2.314 -0.1166  0.2391  0.0624
   69SAPC   C12 5826   5.214   2.764   2.449 -0.3543 -0.0809  0.1857
   69SAPC  H12A 5827   5.137   2.690   2.465 -1.5719  0.4131 -2.7792
   69SAPC  H12B 5828   5.211   2.840   2.526 -0.2333 -0.1558  0.2648
   69SAPC   C13 5829   5.288   2.955   2.315  0.4317 -0.7269 -0.4129
   69SAPC  H13A 5830   5.389   2.940   2.351  0.2215  0.6068  0.8060
   69SAPC  H13B 5831   5.289   3.011   2.223  0.9924 -0.7226 -0.4071
   69SAPC  H13C 5832   5.237   3.013   2.390 -1.7411 -3.4810  0.4178
   69SAPC   C14 5833   5.235   2.745   2.201 -0.3953  0.0570  0.0472
   69SAPC  H14A 5834   5.187   2.649   2.188 -0.3594 -0.0101  0.4001
   69SAPC  H14B 5835   5.214   2.800   2.111 -0.2090 -0.1258 -0.1071
   69SAPC  H14C 5836   5.340   2.719   2.206 -0.2126  0.6250 -0.7165
   69SAPC   C15 5837   5.052   2.872   2.310 -0.3479 -0.3675 -0.0135
   69SAPC  H15A 5838   5.024   2.916   2.215 -2.6204  0.5008  0.9819
   69SAPC  H15B 5839   4.995   2.781   2.322  0.3698 -0.6950  1.1530
   69SAPC  H15C 5840   5.028   2.941   2.389  0.7102 -1.0624  0.9544
   69SAPC   C11 5841   5.345   2.692   2.491 -0.2418 -0.3412  0.7944
   69SAPC  H11A 5842   5.338   2.596   2.435 -0.5151 -0.4991  1.0949
   69SAPC  H11B 5843   5.348   2.674   2.600  0.5531 -2.8901  0.4304
   69SAPC     P 5844   5.587   2.707   2.396  0.2793 -0.0756 -0.1496
   69SAPC   O13 5845   5.545   2.632   2.275  0.4044  0.4257  0.4007
   69SAPC   O14 5846   5.693   2.815   2.385  0.0693  0.5154 -0.2520
   69SAPC   O12 5847   5.462   2.774   2.473 -0.0630 -0.0765  0.1206
   69SAPC   O11 5848   5.651   2.591   2.488  0.0297  0.3700  0.1795
   69SAPC    C1 5849   5.741   2.628   2.597  0.3710 -0.0469 -0.5308
   69SAPC    HA 5850   5.846   2.634   2.559  0.2104 -0.8892 -1.1342
   69SAPC    HB 5851   5.712   2.722   2.649  0.0951  0.1107 -0.9643
   69SAPC    C2 5852   5.728   2.521   2.707  0.1688  0.5831 -0.4656
   69SAPC    HS 5853   5.737   2.419   2.665  0.9751 -0.7369  2.6653
   69SAPC   O21 5854   5.595   2.539   2.759  0.2823 -0.1158 -0.5374
   69SAPC   C21 5855   5.539   2.430   2.812  0.8012  0.4818 -0.2046
   69SAPC   O22 5856   5.593   2.320   2.815  0.3170  0.2321 -0.0008
   69SAPC   C22 5857   5.401   2.463   2.880 -0.3900  0.7366  0.0355
   69SAPC   H2R 5858   5.405   2.565   2.924 -0.6211 -0.1672  2.2412
   69SAPC   H2S 5859   5.333   2.483   2.794 -0.3364  3.8973  0.6256
   69SAPC    C3 5860   5.839   2.551   2.816 -0.5597 -0.2353 -0.4564
   69SAPC    HX 5861   5.810   2.643   2.871 -1.1215 -0.8099  0.2298
   69SAPC    HY 5862   5.930   2.568   2.755 -2.0435  1.8993 -2.2499
   69SAPC   O31 5863   5.859   2.444   2.907 -0.3157 -0.4487  0.2150
   69SAPC   C31 5864   5.931   2.345   2.868  0.0769 -0.1718 -0.1825
   69SAPC   O32 5865   6.001   2.346   2.767  0.2855  0.4323  0.0897
   69SAPC   C32 5866   5.915   2.226   2.966  0.3377  0.4200  0.2975
   69SAPC   H2X 5867   5.884   2.137   2.907 -0.4621  0.0256  1.2785
   69SAPC   H2Y 5868   5.841   2.258   3.043  1.5742  2.1150  0.8480
   69SAPC   C23 5869   5.349   2.358   2.975 -0.7689  0.0837  0.7876
   69SAPC   H3R 5870   5.348   2.263   2.918 -1.8902  0.3115  0.3942
   69SAPC   H3S 5871   5.243   2.384   2.994 -0.4913  1.2316  0.8570
   69SAPC   C24 5872   5.437   2.353   3.100  0.1904  0.6228  0.6077
   69SAPC   H4R 5873   5.414   2.438   3.168 -0.3984 -0.1918  1.4471
   69SAPC   H4S 5874   5.545   2.367   3.076 -0.0507 -1.0033 -1.6190
   69SAPC   C25 5875   5.450   2.228   3.183  0.1540  0.1668  0.1224
   69SAPC   H5R 5876   5.426   2.132   3.135  0.0722 -0.4014  1.2730
   69SAPC   C26 5877   5.475   2.222   3.317  0.5645 -0.7314  0.3927
   69SAPC   H6R 5878   5.481   2.121   3.362  1.3107 -0.7712  0.2185
   69SAPC   C27 5879   5.492   2.346   3.402  1.0358 -0.5406 -0.3365
   69SAPC   H7R 5880   5.526   2.429   3.337  1.3975 -0.1858  0.2972
   69SAPC   H7S 5881   5.578   2.327   3.470  1.3005  1.8710  0.0721
   69SAPC   C28 5882   5.369   2.390   3.475  0.3944 -0.4501  0.4303
   69SAPC   H8R 5883   5.305   2.465   3.429 -1.3453 -1.0593  1.7425
   69SAPC   C29 5884   5.321   2.343   3.590  0.0646 -0.2784 -0.5491
   69SAPC   H9R 5885   5.245   2.400   3.645  0.2895  0.4843 -1.0182
   69SAPC  C210 5886   5.369   2.225   3.668 -0.2517 -0.0248 -0.2252
   69SAPC  H10R 5887   5.480   2.217   3.662 -0.2057  0.3275  0.1964
   69SAPC  H10S 5888   5.337   2.130   3.619  0.1629  0.2886 -1.1210
   69SAPC  C211 5889   5.335   2.236   3.811  0.4621 -0.2976 -0.4446
   69SAPC  H11R 5890   5.236   2.192   3.834  0.7657 -0.3688  0.7860
   69SAPC  C212 5891   5.416   2.252   3.923 -0.0596  0.0518  0.4025
   69SAPC  H12R 5892   5.371   2.245   4.023  0.5204  0.8836  0.7335
   69SAPC  C213 5893   5.562   2.277   3.915 -0.2627 -0.2551  0.2466
   69SAPC  H13R 5894   5.601   2.264   3.812  3.3872 -0.3607  1.4721
   69SAPC  H13S 5895   5.639   2.211   3.962  1.8185  1.0881 -1.1157
   69SAPC  C214 5896   5.601   2.419   3.957  0.5758 -0.1255 -0.6936
   69SAPC  H14R 5897   5.562   2.437   4.058  2.1358 -0.2184 -0.0326
   69SAPC  C215 5898   5.694   2.506   3.906 -0.0634  0.1700  0.3017
   69SAPC  H15R 5899   5.701   2.606   3.953 -2.0652  0.2682  0.4778
   69SAPC  C216 5900   5.783   2.479   3.785  0.4445  0.2028 -0.4284
   69SAPC  H16R 5901   5.756   2.383   3.736  0.2581 -0.5052  1.0188
   69SAPC  H16S 5902   5.890   2.479   3.815  0.3673  0.4299 -0.1414
   69SAPC  C217 5903   5.774   2.587   3.680  0.5294  0.0260  0.3609
   69SAPC  H17R 5904   5.781   2.692   3.716  1.2255  0.2153 -0.3016
   69SAPC  H17S 5905   5.686   2.567   3.615  2.1042 -1.7149 -1.3972
   69SAPC  C218 5906   5.892   2.585   3.584 -0.2083  0.1865  0.3784
   69SAPC  H18R 5907   5.982   2.637   3.623  0.5588  0.3982 -1.5322
   69SAPC  H18S 5908   5.871   2.629   3.484  3.0795 -0.9734 -0.9806
   69SAPC  C219 5909   5.934   2.443   3.542 -0.5620  0.1693  0.0990
   69SAPC  H19R 5910   5.847   2.379   3.517  0.3437 -1.0355 -0.0783
   69SAPC  H19S 5911   5.977   2.389   3.629 -3.5609 -3.0060 -0.2053
   69SAPC  C220 5912   6.043   2.439   3.436 -0.1330 -0.1231  0.6710
   69SAPC  H20R 5913   6.065   2.335   3.406  0.0541  0.0758  0.1139
   69SAPC  H20S 5914   6.140   2.471   3.479  0.2470  1.1519 -1.0568
   69SAPC  H20T 5915   6.017   2.511   3.356  0.8748 -1.1541 -0.6211
   69SAPC   C33 5916   6.050   2.199   3.033  0.3084  0.1456 -0.1364
   69SAPC   H3X 5917   6.075   2.268   3.116  0.6260 -0.8416  0.5982
   69SAPC   H3Y 5918   6.124   2.209   2.950  0.1656 -1.0836 -0.4298
   69SAPC   C34 5919   6.067   2.053   3.072 -0.2439  0.4603 -0.0876
   69SAPC   H4X 5920   6.171   2.055   3.112 -0.2079  3.1747 -0.1164
   69SAPC   H4Y 5921   6.068   1.989   2.981  1.9293 -1.2499  1.0346
   69SAPC   C35 5922   5.963   1.994   3.178 -0.4389 -0.7542 -0.2236
   69SAPC   H5X 5923   5.989   1.887   3.198  1.1005 -0.3260  0.2498
   69SAPC   H5Y 5924   5.865   2.014   3.130 -0.6432  0.1161  0.5191
   69SAPC   C36 5925   5.963   2.069   3.312 -0.1739 -0.0607 -0.5226
   69SAPC   H6X 5926   5.900   2.159   3.293 -3.6348 -2.5561 -1.9249
   69SAPC   H6Y 5927   6.063   2.083   3.358 -0.1987 -1.2979 -0.0509
   69SAPC   C37 5928   5.886   1.991   3.422 -0.1843  0.0390  0.2359
   69SAPC   H7X 5929   5.933   1.893   3.442  0.2110  0.2356  0.2756
   69SAPC   H7Y 5930   5.780   1.978   3.390  0.4169 -0.4736 -1.6541
   69SAPC   C38 5931   5.881   2.063   3.555 -0.3148 -0.1069 -0.7124
   69SAPC   H8X 5932   5.804   2.142   3.542 -1.5509 -1.1527 -0.0155
   69SAPC   H8Y 5933   5.983   2.092   3.588 -1.1045 -0.6539  2.6439
   69SAPC   C39 5934   5.828   1.966   3.668 -0.4692 -0.4835 -0.0146
   69SAPC   H9X 5935   5.882   1.869   3.666 -1.4585 -1.0554  0.2773
   69SAPC   H9Y 5936   5.718   1.956   3.652 -1.0633 -0.7948  3.4969
   69SAPC  C310 5937   5.842   2.027   3.813  0.3573 -0.0669 -0.3677
   69SAPC  H10X 5938   5.804   1.951   3.884 -1.0388 -0.0926 -1.1052
   69SAPC  H10Y 5939   5.790   2.124   3.807  0.7582  0.1033 -1.4843
   69SAPC  C311 5940   5.983   2.056   3.865  0.0760  0.5554 -0.6209
   69SAPC  H11X 5941   6.044   2.129   3.807 -1.4028  0.6845 -2.0809
   69SAPC  H11Y 5942   6.036   1.959   3.854 -0.5931  0.0992  0.0351
   69SAPC  C312 5943   5.980   2.114   4.006  0.2941  0.5127  0.4881
   69SAPC  H12X 5944   6.072   2.078   4.056 -0.2452  0.4773  1.4781
   69SAPC  H12Y 5945   5.894   2.087   4.072 -0.9816 -0.5873 -1.5157
   69SAPC  C313 5946   5.985   2.269   4.016 -0.6214 -0.0410  0.2122
   69SAPC  H13X 5947   5.903   2.307   3.952  1.2613  1.9834 -1.1055
   69SAPC  H13Y 5948   6.078   2.316   3.978  1.9649 -3.2566  1.9997
   69SAPC  C314 5949   5.956   2.324   4.150  0.0396 -0.3018 -0.3506
   69SAPC  H14X 5950   6.019   2.264   4.219 -0.9639 -0.2229  0.6524
   69SAPC  H14Y 5951   5.852   2.292   4.175 -0.6811  2.1230  0.0163
   69SAPC  C315 5952   5.984   2.472   4.160  0.3217  0.3059 -0.6200
   69SAPC  H15X 5953   5.923   2.530   4.088 -0.1201 -0.1364 -0.6019
   69SAPC  H15Y 5954   6.091   2.484   4.133  0.7089  0.4162  0.8711
   69SAPC  C316 5955   5.958   2.531   4.302 -0.3829  0.3178  0.3038
   69SAPC  H16X 5956   5.990   2.637   4.298 -0.9871  0.5356  1.0060
   69SAPC  H16Y 5957   6.022   2.481   4.378  1.1434  0.3913 -0.8928
   69SAPC  C317 5958   5.812   2.520   4.348  0.2773 -0.5542  0.0539
   69SAPC  H17X 5959   5.781   2.414   4.339 -2.3464  0.2978 -2.5701
   69SAPC  H17Y 5960   5.747   2.578   4.278  0.9314  2.3021  1.6480
   69SAPC  C318 5961   5.783   2.589   4.484 -0.5558 -0.3679  0.2112
   69SAPC  H18X 5962   5.840   2.539   4.564 -1.4353 -3.1242 -0.7871
   69SAPC  H18Y 5963   5.677   2.597   4.516 -0.3310  2.6460  0.5230
   69SAPC  H18Z 5964   5.820   2.693   4.469 -0.2471 -0.5308 -0.1594
   70SAPC     N 5965   1.525   1.595   2.163  0.4718  0.9385 -0.9491
   70SAPC   C12 5966   1.613   1.671   2.258  0.8422  0.2169 -0.1670
   70SAPC  H12A 5967   1.691   1.701   2.190  0.4984 -0.0691 -0.6860
   70SAPC  H12B 5968   1.651   1.608   2.338  1.2121  0.9319  0.2334
   70SAPC   C13 5969   1.595   1.480   2.100 -0.5447 -0.3700 -0.2653
   70SAPC  H13A 5970   1.616   1.411   2.180  1.1204 -0.2174 -0.5244
   70SAPC  H13B 5971   1.553   1.431   2.014  2.7875 -2.1867 -1.0312
   70SAPC  H13C 5972   1.690   1.517   2.064 -0.3644  2.0304  2.3143
   70SAPC   C14 5973   1.401   1.536   2.228 -0.6162  0.0113 -0.0536
   70SAPC  H14A 5974   1.428   1.459   2.299  2.5429 -1.4400 -2.5464
   70SAPC  H14B 5975   1.332   1.610   2.265 -2.3977 -2.1116  1.1004
   70SAPC  H14C 5976   1.355   1.483   2.146  1.2081  0.0856 -1.1855
   70SAPC   C15 5977   1.479   1.679   2.050  0.3183 -0.2587 -0.6883
   70SAPC  H15A 5978   1.436   1.767   2.094 -0.7643 -0.6288 -0.9746
   70SAPC  H15B 5979   1.556   1.724   1.989 -0.7086  1.5828 -0.6772
   70SAPC  H15C 5980   1.409   1.633   1.982 -0.6459 -0.4743  0.4190
   70SAPC   C11 5981   1.551   1.793   2.324  0.0999  0.0548 -0.3304
   70SAPC  H11A 5982   1.517   1.857   2.240 -4.0116  0.2254  1.2225
   70SAPC  H11B 5983   1.632   1.839   2.384  0.6335 -0.0368 -0.9757
   70SAPC     P 5984   1.334   1.858   2.451  0.1442 -0.0676 -0.1148
   70SAPC   O13 5985   1.404   1.973   2.507  0.3913 -0.0383  0.0261
   70SAPC   O14 5986   1.243   1.885   2.342 -0.0498 -0.1826  0.0935
   70SAPC   O12 5987   1.436   1.752   2.406  0.2656 -0.0777 -0.5425
   70SAPC   O11 5988   1.257   1.780   2.571 -0.7740 -0.5056 -0.2603
   70SAPC    C1 5989   1.169   1.677   2.543 -0.1347 -0.1625 -0.3877
   70SAPC    HA 5990   1.175   1.614   2.452 -2.6433 -0.9236 -0.1144
   70SAPC    HB 5991   1.181   1.597   2.620  1.2786  0.0883 -0.3335
   70SAPC    C2 5992   1.023   1.736   2.551 -0.7946  0.4159  0.3520
   70SAPC    HS 5993   1.006   1.793   2.458 -1.7169 -0.9499 -0.3376
   70SAPC   O21 5994   1.018   1.820   2.668  0.2774  0.4957 -0.5135
   70SAPC   C21 5995   0.917   1.899   2.681 -0.4008  0.2578  0.2904
   70SAPC   O22 5996   0.820   1.909   2.605 -0.3780  0.2656 -0.0893
   70SAPC   C22 5997   0.942   1.976   2.816 -0.0843  0.2611 -0.2551
   70SAPC   H2R 5998   1.005   1.916   2.884  1.4280  0.2511 -1.5969
   70SAPC   H2S 5999   1.010   2.060   2.790  0.8040 -1.3096 -3.6843
   70SAPC    C3 6000   0.916   1.621   2.543 -0.9986  0.2509  0.6763
   70SAPC    HX 6001   0.918   1.589   2.436 -1.0570  1.5444  0.2772
   70SAPC    HY 6002   0.821   1.670   2.570 -1.0885  0.0862  0.6625
   70SAPC   O31 6003   0.948   1.506   2.627  0.2493  0.9411  0.4485
   70SAPC   C31 6004   0.881   1.512   2.748 -0.1957 -0.2777  1.0586
   70SAPC   O32 6005   0.808   1.601   2.784 -1.0907 -0.6767  0.3950
   70SAPC   C32 6006   0.888   1.379   2.819  0.2796  0.6059 -0.1061
   70SAPC   H2X 6007   0.992   1.361   2.856  0.2450  0.2465 -0.1744
   70SAPC   H2Y 6008   0.867   1.303   2.740 -1.7899 -0.7549  1.6340
   70SAPC   C23 6009   0.819   2.033   2.894 -0.2779  0.0349  0.4304
   70SAPC   H3R 6010   0.767   2.106   2.827 -1.5146  0.3228  1.6473
   70SAPC   H3S 6011   0.846   2.076   2.992 -0.4918 -1.4453  1.1665
   70SAPC   C24 6012   0.721   1.918   2.922 -0.3945  0.4770 -0.2648
   70SAPC   H4R 6013   0.708   1.859   2.829  1.3472 -0.0361 -0.2223
   70SAPC   H4S 6014   0.622   1.954   2.955 -0.0321 -0.4868  2.1170
   70SAPC   C25 6015   0.768   1.833   3.033 -0.1838 -0.1999  0.2021
   70SAPC   H5R 6016   0.841   1.758   2.999  2.1153  1.2713  1.6016
   70SAPC   C26 6017   0.742   1.856   3.164 -0.7493 -0.2029  0.2420
   70SAPC   H6R 6018   0.759   1.779   3.240 -0.7007  0.5165  0.9774
   70SAPC   C27 6019   0.667   1.975   3.219 -0.2373  0.6666 -0.5090
   70SAPC   H7R 6020   0.574   1.937   3.267 -0.7975  1.9676 -0.5111
   70SAPC   H7S 6021   0.632   2.038   3.135 -2.9869 -3.8797 -3.2282
   70SAPC   C28 6022   0.757   2.042   3.320  0.7549  0.3010 -0.5026
   70SAPC   H8R 6023   0.838   2.102   3.277 -0.5826  1.4272 -1.5523
   70SAPC   C29 6024   0.743   2.042   3.455  0.3059  0.1306  0.1294
   70SAPC   H9R 6025   0.803   2.106   3.521 -2.7121  1.4536  1.8284
   70SAPC  C210 6026   0.638   1.974   3.538 -0.0895 -0.0989  0.3681
   70SAPC  H10R 6027   0.561   1.938   3.466  0.0023  3.6470 -1.8291
   70SAPC  H10S 6028   0.577   2.052   3.588 -0.7011  0.6001 -1.3905
   70SAPC  C211 6029   0.702   1.875   3.643 -0.4433  0.7232 -0.0921
   70SAPC  H11R 6030   0.731   1.775   3.608  0.1452  0.5141  0.9538
   70SAPC  C212 6031   0.703   1.901   3.779 -0.9158  0.1935  0.4110
   70SAPC  H12R 6032   0.759   1.830   3.842 -1.1302 -1.3957 -1.1081
   70SAPC  C213 6033   0.664   2.026   3.851 -0.1541 -0.7644 -0.1549
   70SAPC  H13R 6034   0.559   2.024   3.889 -0.2824  2.8302 -0.0298
   70SAPC  H13S 6035   0.675   2.121   3.795 -0.3346 -0.0578  0.9843
   70SAPC  C214 6036   0.750   2.028   3.977  0.4688 -0.5568 -0.4402
   70SAPC  H14R 6037   0.856   2.002   3.961  0.1924 -1.9573 -0.1567
   70SAPC  C215 6038   0.704   2.057   4.103 -0.1681  0.0414  0.5295
   70SAPC  H15R 6039   0.775   2.052   4.186  2.0180  0.1476 -1.2503
   70SAPC  C216 6040   0.564   2.099   4.143  0.0591  0.6411 -0.4188
   70SAPC  H16R 6041   0.510   2.008   4.179  0.7643 -0.1364 -1.2675
   70SAPC  H16S 6042   0.498   2.133   4.061  0.7967  0.5602 -1.0666
   70SAPC  C217 6043   0.562   2.186   4.267  0.5815 -0.5464 -0.1049
   70SAPC  H17R 6044   0.632   2.147   4.344  0.4125 -1.4494 -0.4015
   70SAPC  H17S 6045   0.465   2.182   4.319 -0.9060  1.3047 -2.5038
   70SAPC  C218 6046   0.607   2.333   4.252  0.9517 -0.1749 -0.0219
   70SAPC  H18R 6047   0.540   2.384   4.180 -1.2706  0.9778  2.6674
   70SAPC  H18S 6048   0.705   2.332   4.200  1.5947 -1.6554  1.1402
   70SAPC  C219 6049   0.629   2.408   4.388  1.0930  0.3318 -0.1056
   70SAPC  H19R 6050   0.680   2.504   4.369  0.3458  0.4584 -1.5674
   70SAPC  H19S 6051   0.701   2.345   4.446  0.9369 -0.1684 -0.4451
   70SAPC  C220 6052   0.493   2.422   4.469 -0.6091 -0.9398  0.2694
   70SAPC  H20R 6053   0.455   2.321   4.493  1.5627 -1.7931  0.3635
   70SAPC  H20S 6054   0.433   2.489   4.404 -0.8091 -0.9882  0.4040
   70SAPC  H20T 6055   0.502   2.479   4.565 -0.4876  0.5626 -0.6032
   70SAPC   C33 6056   0.791   1.358   2.939 -0.5677  0.0179 -0.5311
   70SAPC   H3X 6057   0.772   1.249   2.944 -1.6161  0.2463  1.8098
   70SAPC   H3Y 6058   0.690   1.401   2.917 -0.2381  2.9149  2.7663
   70SAPC   C34 6059   0.831   1.426   3.074  0.4142  0.1591 -0.6123
   70SAPC   H4X 6060   0.849   1.530   3.039  1.8173 -0.6733 -2.5623
   70SAPC   H4Y 6061   0.928   1.381   3.106  0.0494 -1.3562 -1.5372
   70SAPC   C35 6062   0.714   1.422   3.180  0.5945  0.5769 -0.1562
   70SAPC   H5X 6063   0.675   1.319   3.197 -0.8590  1.2145  0.5133
   70SAPC   H5Y 6064   0.636   1.484   3.132 -0.9868 -0.5045  0.9093
   70SAPC   C36 6065   0.736   1.486   3.319 -0.0035  0.2022 -0.3421
   70SAPC   H6X 6066   0.775   1.589   3.317  0.8773 -0.0746  1.2130
   70SAPC   H6Y 6067   0.815   1.418   3.358  1.4363  1.2438 -1.3795
   70SAPC   C37 6068   0.612   1.460   3.412  0.3964 -0.0480 -0.0097
   70SAPC   H7X 6069   0.520   1.475   3.352  0.4347 -0.2354 -0.1119
   70SAPC   H7Y 6070   0.617   1.353   3.439  1.5254  0.0728  0.2970
   70SAPC   C38 6071   0.623   1.542   3.543 -0.5039  0.2426 -0.2448
   70SAPC   H8X 6072   0.610   1.650   3.524 -1.7255  0.2475  0.5025
   70SAPC   H8Y 6073   0.723   1.517   3.586 -0.4165  0.6889 -0.1900
   70SAPC   C39 6074   0.519   1.490   3.648  0.5165 -0.0399 -0.3733
   70SAPC   H9X 6075   0.540   1.382   3.668  2.1650  0.4371  0.6423
   70SAPC   H9Y 6076   0.414   1.489   3.611  0.8962 -1.2485 -1.5419
   70SAPC  C310 6077   0.527   1.563   3.780  0.7436  0.0279 -0.0987
   70SAPC  H10X 6078   0.522   1.673   3.765  1.6026  0.0969  0.0444
   70SAPC  H10Y 6079   0.627   1.544   3.825  0.8179  0.2949 -0.1464
   70SAPC  C311 6080   0.426   1.512   3.887  0.2777 -0.7607 -0.2404
   70SAPC  H11X 6081   0.423   1.402   3.904  0.6591 -0.4313  2.3781
   70SAPC  H11Y 6082   0.320   1.541   3.870  0.3722  0.7197  1.3406
   70SAPC  C312 6083   0.455   1.583   4.020  0.3064  0.1342 -0.0807
   70SAPC  H12X 6084   0.472   1.687   3.987  0.3606 -0.1885 -1.1162
   70SAPC  H12Y 6085   0.551   1.536   4.050 -0.3057 -0.7054  0.6182
   70SAPC  C313 6086   0.349   1.564   4.128  0.3228 -0.0271  0.1236
   70SAPC  H13X 6087   0.329   1.455   4.143 -0.0859 -0.0115 -0.2991
   70SAPC  H13Y 6088   0.255   1.610   4.091  0.2881  0.4558  0.7874
   70SAPC  C314 6089   0.399   1.621   4.267 -0.4731 -0.6189  0.5638
   70SAPC  H14X 6090   0.410   1.731   4.252 -1.6171 -0.6800 -1.0224
   70SAPC  H14Y 6091   0.502   1.587   4.291  0.7879  2.3513 -0.1289
   70SAPC  C315 6092   0.310   1.568   4.389  0.3484 -0.0371 -0.3754
   70SAPC  H15X 6093   0.288   1.463   4.360  2.7770  0.0717 -3.0709
   70SAPC  H15Y 6094   0.222   1.634   4.398  1.3158  1.2689 -0.1604
   70SAPC  C316 6095   0.388   1.582   4.525 -0.4799 -0.2249  0.2852
   70SAPC  H16X 6096   0.390   1.693   4.527 -1.7329 -0.1161 -1.4470
   70SAPC  H16Y 6097   0.490   1.541   4.514  0.1174  1.5489 -1.4923
   70SAPC  C317 6098   0.327   1.511   4.647  0.8251 -0.3352 -0.5049
   70SAPC  H17X 6099   0.226   1.552   4.671  0.1653 -1.6921 -0.8720
   70SAPC  H17Y 6100   0.388   1.527   4.739  0.6789 -0.7169 -0.3385
   70SAPC  C318 6101   0.307   1.361   4.626  0.3097 -0.2035  0.0437
   70SAPC  H18X 6102   0.387   1.317   4.562 -0.2758  1.5855 -2.0638
   70SAPC  H18Y 6103   0.210   1.346   4.574  0.2991 -0.8942  0.2542
   70SAPC  H18Z 6104   0.305   1.304   4.721 -1.0395  1.4509  1.0806
   71SAPC     N 6105   1.749   5.890   2.070  0.1365 -0.9319  0.7432
   71SAPC   C12 6106   1.648   5.958   2.167 -0.0525 -0.3581 -0.0654
   71SAPC  H12A 6107   1.677   6.051   2.214 -1.7560  0.7540 -1.0911
   71SAPC  H12B 6108   1.657   5.895   2.254 -1.1474  0.2257  0.4896
   71SAPC   C13 6109   1.704   5.757   2.029  0.5379 -0.2093  0.0856
   71SAPC  H13A 6110   1.601   5.756   1.997  0.4235  2.6811  0.1263
   71SAPC  H13B 6111   1.765   5.705   1.957 -0.3780 -0.5350 -0.4821
   71SAPC  H13C 6112   1.707   5.683   2.108  0.3106  0.1636  0.4469
   71SAPC   C14 6113   1.742   5.990   1.949 -0.1605  0.4284  0.3097
   71SAPC  H14A 6114   1.775   6.084   1.991 -0.8910  0.4696  0.8073
   71SAPC  H14B 6115   1.801   5.960   1.864 -2.1566  3.8221 -2.5290
   71SAPC  H14C 6116   1.643   5.991   1.907  0.4013 -0.0813 -1.1014
   71SAPC   C15 6117   1.881   5.878   2.135 -0.0595 -0.2779  0.0079
   71SAPC  H15A 6118   1.937   5.802   2.083  0.0148  0.3448 -0.8437
   71SAPC  H15B 6119   1.936   5.969   2.154  0.1540 -0.1974 -0.9501
   71SAPC  H15C 6120   1.858   5.831   2.229 -0.6088 -1.4776 -0.7087
   71SAPC   C11 6121   1.498   5.963   2.124 -0.2586 -0.8942  0.3239
   71SAPC  H11A 6122   1.458   5.859   2.114 -1.1657 -0.5084 -0.1835
   71SAPC  H11B 6123   1.494   6.018   2.028  0.3501  0.1797  0.8972
   71SAPC     P 6124   1.269   6.049   2.213 -0.0971  0.8638  0.0545
   71SAPC   O13 6125   1.250   6.110   2.076 -0.0259 -0.3436  0.0323
   71SAPC   O14 6126   1.199   5.920   2.238 -0.2492  0.1571 -0.1969
   71SAPC   O12 6127   1.427   6.031   2.230  0.0595 -0.0118 -0.3324
   71SAPC   O11 6128   1.225   6.153   2.318  0.1939 -0.4522 -0.1088
   71SAPC    C1 6129   1.286   6.279   2.336 -0.2111 -0.3854 -0.0223
   71SAPC    HA 6130   1.370   6.289   2.265  0.5926 -1.2127  0.7825
   71SAPC    HB 6131   1.208   6.356   2.321  0.2170 -0.1639 -1.2008
   71SAPC    C2 6132   1.336   6.303   2.485 -0.0609  0.7723  0.3192
   71SAPC    HS 6133   1.388   6.400   2.499 -0.0414  0.8324 -0.1516
   71SAPC   O21 6134   1.431   6.199   2.527 -0.0153  0.4554 -0.0425
   71SAPC   C21 6135   1.553   6.221   2.490 -0.3440  0.1795 -0.1099
   71SAPC   O22 6136   1.598   6.328   2.457  0.0943 -0.1765 -0.0181
   71SAPC   C22 6137   1.634   6.090   2.486 -0.0981 -0.6301  0.1460
   71SAPC   H2R 6138   1.571   6.019   2.429  1.4427 -1.3259 -0.7505
   71SAPC   H2S 6139   1.722   6.117   2.423 -0.0853 -1.0048  0.0024
   71SAPC    C3 6140   1.213   6.299   2.587 -0.4555 -0.2914  0.2514
   71SAPC    HX 6141   1.151   6.210   2.567 -1.3661  0.1353  1.0689
   71SAPC    HY 6142   1.148   6.386   2.563 -0.1350 -0.4585 -1.3474
   71SAPC   O31 6143   1.249   6.300   2.728  0.1907 -0.1955  0.0660
   71SAPC   C31 6144   1.206   6.395   2.804  0.5647 -0.4431  0.0474
   71SAPC   O32 6145   1.114   6.476   2.781 -0.4502  0.1223  0.6442
   71SAPC   C32 6146   1.271   6.384   2.944 -0.6359 -0.5299  0.9078
   71SAPC   H2X 6147   1.376   6.417   2.929 -0.5755 -0.9720  0.3224
   71SAPC   H2Y 6148   1.255   6.275   2.962 -0.9361 -1.0064 -1.7840
   71SAPC   C23 6149   1.673   6.044   2.628 -0.7126 -0.4530  0.7206
   71SAPC   H3R 6150   1.706   5.938   2.623 -0.1400 -0.2179 -1.0702
   71SAPC   H3S 6151   1.589   6.065   2.698  0.2577 -0.8730  2.0575
   71SAPC   C24 6152   1.803   6.122   2.691 -0.0720  0.4178  0.6484
   71SAPC   H4R 6153   1.880   6.141   2.613 -1.2541  0.6593 -0.5006
   71SAPC   H4S 6154   1.845   6.045   2.759  2.0424 -0.6137 -1.6718
   71SAPC   C25 6155   1.769   6.241   2.774  0.4117 -0.2020  0.7621
   71SAPC   H5R 6156   1.801   6.342   2.744 -0.4996  0.1285  0.8630
   71SAPC   C26 6157   1.711   6.251   2.897 -0.4527  0.4613  0.2053
   71SAPC   H6R 6158   1.689   6.352   2.934 -1.3992 -0.4593  2.3574
   71SAPC   C27 6159   1.656   6.130   2.974 -0.2615 -0.0155  0.1438
   71SAPC   H7R 6160   1.696   6.035   2.932  0.5436 -0.6480  2.2401
   71SAPC   H7S 6161   1.546   6.126   2.957 -0.4323  0.0933  1.1986
   71SAPC   C28 6162   1.672   6.123   3.126 -0.1538 -0.0008  0.1175
   71SAPC   H8R 6163   1.736   6.039   3.158 -1.0019  0.1744  2.4761
   71SAPC   C29 6164   1.636   6.217   3.217 -0.9383 -0.4224 -0.7442
   71SAPC   H9R 6165   1.654   6.198   3.324  0.3657 -1.2597 -1.0926
   71SAPC  C210 6166   1.549   6.344   3.193  0.4430 -0.6617 -0.2984
   71SAPC  H10R 6167   1.452   6.321   3.241 -0.4607  1.6561 -0.9052
   71SAPC  H10S 6168   1.532   6.358   3.084 -0.1778  0.4875 -0.0737
   71SAPC  C211 6169   1.596   6.477   3.246 -0.5819  0.1407  0.4212
   71SAPC  H11R 6170   1.668   6.530   3.181 -0.4983  0.4894  0.7941
   71SAPC  C212 6171   1.583   6.532   3.369 -0.2583 -0.5234  0.4793
   71SAPC  H12R 6172   1.633   6.623   3.405 -1.5362  0.6671 -0.6384
   71SAPC  C213 6173   1.489   6.477   3.475 -0.2341 -0.3243 -1.0554
   71SAPC  H13R 6174   1.445   6.376   3.455 -1.3887  0.4190 -2.4666
   71SAPC  H13S 6175   1.400   6.543   3.484  1.3666  1.9893 -1.5763
   71SAPC  C214 6176   1.555   6.465   3.617  0.6621 -0.2181  0.3929
   71SAPC  H14R 6177   1.655   6.419   3.612  1.1181  0.6855  0.9014
   71SAPC  C215 6178   1.505   6.522   3.725  0.1019 -0.1022  0.1866
   71SAPC  H15R 6179   1.561   6.501   3.817  1.5389  1.0634 -0.3763
   71SAPC  C216 6180   1.380   6.614   3.737  0.3252  0.8476 -0.4047
   71SAPC  H16R 6181   1.313   6.552   3.801  1.9812 -0.0151  0.5746
   71SAPC  H16S 6182   1.325   6.645   3.646 -1.1926  2.1037  0.8919
   71SAPC  C217 6183   1.419   6.752   3.799  0.3491 -0.6287 -0.8285
   71SAPC  H17R 6184   1.327   6.815   3.801 -0.0423 -1.1983  0.4045
   71SAPC  H17S 6185   1.493   6.816   3.747 -0.1556 -1.2428 -2.3676
   71SAPC  C218 6186   1.482   6.724   3.938  0.3337  0.3331 -0.5762
   71SAPC  H18R 6187   1.581   6.674   3.939  0.3703  0.3096  2.1043
   71SAPC  H18S 6188   1.417   6.660   4.002 -0.4261  1.2329 -0.4352
   71SAPC  C219 6189   1.519   6.857   4.010 -0.5949 -0.0593 -0.0463
   71SAPC  H19R 6190   1.540   6.842   4.118  1.5872  0.0477 -0.4118
   71SAPC  H19S 6191   1.426   6.916   3.993  0.4376  1.3075 -1.1675
   71SAPC  C220 6192   1.640   6.937   3.956  0.6322 -0.4528  0.4199
   71SAPC  H20R 6193   1.602   6.972   3.857  0.0121  2.2099  1.5099
   71SAPC  H20S 6194   1.732   6.877   3.941  0.9021 -0.0630  0.4907
   71SAPC  H20T 6195   1.657   7.024   4.023 -2.2443  0.5156  0.0440
   71SAPC   C33 6196   1.207   6.478   3.055  0.1245  0.3481  0.3156
   71SAPC   H3X 6197   1.132   6.545   3.008  0.2433  0.6925  0.6198
   71SAPC   H3Y 6198   1.286   6.547   3.092 -1.9167  2.3672  1.1145
   71SAPC   C34 6199   1.144   6.406   3.177  0.6690  0.3347  0.4453
   71SAPC   H4X 6200   1.213   6.340   3.234  0.7245  1.0564  1.2511
   71SAPC   H4Y 6201   1.058   6.343   3.147 -0.8781  2.0454  1.0669
   71SAPC   C35 6202   1.088   6.506   3.285  0.0851 -0.1431 -0.0675
   71SAPC   H5X 6203   0.995   6.546   3.240  2.3382  2.7032 -2.6053
   71SAPC   H5Y 6204   1.152   6.593   3.307 -1.9365  1.3883  0.0122
   71SAPC   C36 6205   1.061   6.429   3.415  0.4380  0.0504  0.4674
   71SAPC   H6X 6206   1.157   6.381   3.443  0.9572 -0.0348 -1.3497
   71SAPC   H6Y 6207   0.989   6.344   3.415 -1.5641  1.6762  0.2112
   71SAPC   C37 6208   1.016   6.524   3.526  0.2859 -0.3619 -0.1497
   71SAPC   H7X 6209   0.936   6.589   3.486 -0.0436  0.2110  1.3621
   71SAPC   H7Y 6210   1.095   6.601   3.540 -1.3266  0.9995  2.0554
   71SAPC   C38 6211   0.977   6.454   3.657 -0.7906  0.6364  0.5096
   71SAPC   H8X 6212   1.068   6.396   3.685 -1.3819 -0.6980 -0.2660
   71SAPC   H8Y 6213   0.894   6.381   3.653 -0.4517 -0.1663  4.4343
   71SAPC   C39 6214   0.942   6.555   3.767  0.2213 -0.3761  0.4742
   71SAPC   H9X 6215   0.860   6.623   3.737  1.5743  0.5494 -1.3525
   71SAPC   H9Y 6216   1.026   6.622   3.796 -0.0334  0.6425 -1.0342
   71SAPC  C310 6217   0.905   6.479   3.899 -0.1854  0.6704 -0.0409
   71SAPC  H10X 6218   0.987   6.411   3.931 -1.5654 -0.1643  1.9236
   71SAPC  H10Y 6219   0.813   6.423   3.872 -0.9534  1.3504  1.0404
   71SAPC  C311 6220   0.865   6.572   4.010  0.2993 -0.1395 -0.5461
   71SAPC  H11X 6221   0.786   6.643   3.977 -0.2674  0.6202  2.1999
   71SAPC  H11Y 6222   0.956   6.628   4.041  0.9806 -2.1606  1.4265
   71SAPC  C312 6223   0.818   6.486   4.125 -0.3025 -0.2517  0.1270
   71SAPC  H12X 6224   0.881   6.397   4.144  0.0225  0.1908  1.1863
   71SAPC  H12Y 6225   0.721   6.435   4.104 -0.0874  0.4551 -3.1207
   71SAPC  C313 6226   0.806   6.570   4.246  0.4972 -0.7288  0.0260
   71SAPC  H13X 6227   0.735   6.522   4.318 -0.7023  2.3469  1.0392
   71SAPC  H13Y 6228   0.766   6.670   4.221  0.8871  0.2233  2.8487
   71SAPC  C314 6229   0.937   6.598   4.332  0.5953 -0.4831 -0.4723
   71SAPC  H14X 6230   0.918   6.629   4.437  0.2282 -0.5787 -0.5120
   71SAPC  H14Y 6231   1.001   6.680   4.293  0.4930 -0.5164 -0.7109
   71SAPC  C315 6232   1.025   6.475   4.338  0.2290  0.3466 -0.3007
   71SAPC  H15X 6233   1.116   6.504   4.393 -0.2159  0.1350  0.5736
   71SAPC  H15Y 6234   1.060   6.457   4.234 -0.3289 -0.4075 -0.3652
   71SAPC  C316 6235   0.957   6.360   4.417  0.6508 -0.3576 -0.3966
   71SAPC  H16X 6236   0.882   6.318   4.347  0.0116 -1.1712  0.7435
   71SAPC  H16Y 6237   0.894   6.389   4.504  0.3844 -0.2661 -0.6182
   71SAPC  C317 6238   1.050   6.240   4.453  0.4244  0.2343  0.1089
   71SAPC  H17X 6239   1.148   6.283   4.481  0.8606  0.5965 -1.8380
   71SAPC  H17Y 6240   1.061   6.182   4.359 -0.7528 -0.2629  0.2582
   71SAPC  C318 6241   0.989   6.153   4.563  0.5642  0.7236  0.1393
   71SAPC  H18X 6242   0.892   6.120   4.520  1.6982  0.0500 -2.0485
   71SAPC  H18Y 6243   0.971   6.208   4.658 -0.9328 -0.4389  0.5662
   71SAPC  H18Z 6244   1.053   6.065   4.584  1.4330  1.1357 -0.6862
   72SAPC     N 6245   0.542   4.843   1.909  0.0069  0.2977 -0.1387
   72SAPC   C12 6246   0.568   4.816   2.062 -0.1535  0.5288  0.3001
   72SAPC  H12A 6247   0.623   4.905   2.092  0.4117  0.9707 -1.8345
   72SAPC  H12B 6248   0.637   4.733   2.062 -0.0026  0.6500  0.5706
   72SAPC   C13 6249   0.675   4.863   1.839  0.7227  0.5875  0.1466
   72SAPC  H13A 6250   0.667   4.940   1.763 -1.4504 -0.6261 -0.9526
   72SAPC  H13B 6251   0.751   4.893   1.910 -1.4311  2.7190  1.7408
   72SAPC  H13C 6252   0.705   4.766   1.805 -0.3582 -0.7780  2.8084
   72SAPC   C14 6253   0.482   4.724   1.836  0.6291  0.0525  0.4380
   72SAPC  H14A 6254   0.455   4.739   1.733 -1.5354 -0.3572  0.8845
   72SAPC  H14B 6255   0.540   4.634   1.849 -1.9543 -1.8306 -0.2267
   72SAPC  H14C 6256   0.396   4.696   1.896 -0.3496  2.5866  0.3441
   72SAPC   C15 6257   0.455   4.958   1.897  0.0069  0.4518  0.1422
   72SAPC  H15A 6258   0.491   5.038   1.960 -0.2345  0.6619  0.0152
   72SAPC  H15B 6259   0.442   4.998   1.798  2.6885  1.0689 -0.0544
   72SAPC  H15C 6260   0.362   4.937   1.947  0.6411 -0.0560  1.1614
   72SAPC   C11 6261   0.445   4.779   2.150  0.3621 -0.6002  0.5248
   72SAPC  H11A 6262   0.393   4.876   2.162  1.6363 -0.0037  1.3621
   72SAPC  H11B 6263   0.487   4.749   2.249  1.1573 -0.5007  0.2193
   72SAPC     P 6264   0.391   4.533   2.122  0.4504  0.4080 -0.3217
   72SAPC   O13 6265   0.319   4.436   2.034 -0.3645 -0.3820 -0.3797
   72SAPC   O14 6266   0.540   4.521   2.129 -0.0923 -0.4744 -0.5229
   72SAPC   O12 6267   0.362   4.685   2.083  0.6017  0.7253  0.3624
   72SAPC   O11 6268   0.328   4.518   2.266 -0.2128  0.1102 -0.1210
   72SAPC    C1 6269   0.194   4.561   2.293 -0.7969  0.3346 -0.2239
   72SAPC    HA 6270   0.142   4.615   2.212 -4.0517 -1.3051  0.5929
   72SAPC    HB 6271   0.139   4.466   2.312 -2.2524  0.8281 -1.7318
   72SAPC    C2 6272   0.182   4.656   2.414 -0.0140  0.3356  0.3829
   72SAPC    HS 6273   0.227   4.752   2.380 -1.1042 -0.3287 -3.4080
   72SAPC   O21 6274   0.248   4.591   2.527  0.2347 -0.0213  0.3121
   72SAPC   C21 6275   0.321   4.665   2.605  0.0761  0.2759  0.2752
   72SAPC   O22 6276   0.335   4.786   2.599  0.2116  0.4958  0.2424
   72SAPC   C22 6277   0.411   4.566   2.689 -0.5186  0.0790 -0.1215
   72SAPC   H2R 6278   0.358   4.468   2.697  0.0367 -0.3700 -1.5844
   72SAPC   H2S 6279   0.509   4.546   2.641 -0.2621 -2.4644  1.2879
   72SAPC    C3 6280   0.032   4.681   2.451 -0.2594  0.1806 -0.9621
   72SAPC    HX 6281  -0.007   4.582   2.484  0.6072  0.0910 -0.1370
   72SAPC    HY 6282  -0.027   4.723   2.368 -0.2780  0.5021 -0.7869
   72SAPC   O31 6283   0.023   4.768   2.569  0.0770  0.6833 -0.2804
   72SAPC   C31 6284   0.031   4.892   2.543 -0.1997  0.0160 -0.1281
   72SAPC   O32 6285   0.048   4.946   2.434 -1.3246  0.6196 -0.3487
   72SAPC   C32 6286   0.019   4.974   2.672  0.4261 -0.1420  0.4871
   72SAPC   H2X 6287  -0.079   4.951   2.719 -0.6040 -0.7763 -1.8072
   72SAPC   H2Y 6288   0.024   5.082   2.644 -0.1079 -0.0742  0.6489
   72SAPC   C23 6289   0.437   4.606   2.840 -0.1725 -0.0601  0.0598
   72SAPC   H3R 6290   0.334   4.588   2.879  0.1885 -1.6281  0.3782
   72SAPC   H3S 6291   0.460   4.714   2.850  1.6841 -0.5143  1.1587
   72SAPC   C24 6292   0.526   4.507   2.910 -0.3918 -0.6510  0.8795
   72SAPC   H4R 6293   0.502   4.403   2.878  0.3791 -1.1366  1.8309
   72SAPC   H4S 6294   0.500   4.521   3.017 -0.6374  0.1354  0.7213
   72SAPC   C25 6295   0.682   4.517   2.893  0.1131 -0.0326  0.0882
   72SAPC   H5R 6296   0.718   4.560   2.798  3.9134  1.2583  1.9004
   72SAPC   C26 6297   0.780   4.504   2.986  0.7070 -0.2276 -0.3961
   72SAPC   H6R 6298   0.885   4.529   2.965  1.7675 -3.2482  0.8026
   72SAPC   C27 6299   0.754   4.471   3.128  0.6841  0.1774 -0.7830
   72SAPC   H7R 6300   0.647   4.440   3.135  0.0916  1.7556 -2.1731
   72SAPC   H7S 6301   0.762   4.567   3.183 -0.8809 -0.2923  0.3650
   72SAPC   C28 6302   0.831   4.368   3.206 -0.6937 -0.0750  0.3288
   72SAPC   H8R 6303   0.861   4.277   3.152  1.2801  0.0998  1.0563
   72SAPC   C29 6304   0.879   4.376   3.336  0.3237  0.0548  0.1859
   72SAPC   H9R 6305   0.935   4.287   3.368  2.6140  1.9658  1.7970
   72SAPC  C210 6306   0.872   4.487   3.435 -0.3374 -0.2185  0.0074
   72SAPC  H10R 6307   0.889   4.587   3.388  1.5651 -0.5196 -0.0033
   72SAPC  H10S 6308   0.945   4.483   3.518 -3.1199  0.8950  2.7032
   72SAPC  C211 6309   0.734   4.483   3.496 -0.2198 -0.2765 -0.1362
   72SAPC  H11R 6310   0.650   4.459   3.429  0.1859  0.2812 -0.8510
   72SAPC  C212 6311   0.708   4.514   3.626  0.0603  0.8603  0.1814
   72SAPC  H12R 6312   0.602   4.537   3.645  0.5405  3.4767  0.1394
   72SAPC  C213 6313   0.808   4.557   3.731 -0.1655  0.6501 -0.1312
   72SAPC  H13R 6314   0.892   4.612   3.684  0.6359  0.1949  0.7531
   72SAPC  H13S 6315   0.844   4.471   3.790  1.6477  2.0096  0.8592
   72SAPC  C214 6316   0.742   4.643   3.839  0.3269  0.3932  0.3923
   72SAPC  H14R 6317   0.668   4.715   3.802 -0.9905 -0.6995  0.8271
   72SAPC  C215 6318   0.766   4.633   3.974  0.2005 -0.1809  0.4357
   72SAPC  H15R 6319   0.699   4.701   4.029  0.7468  2.6229 -2.0790
   72SAPC  C216 6320   0.867   4.555   4.049 -0.9461  0.5855 -0.2545
   72SAPC  H16R 6321   0.973   4.567   4.018 -0.2744  0.3887  1.7770
   72SAPC  H16S 6322   0.844   4.447   4.037  0.2725  0.2521  0.2964
   72SAPC  C217 6323   0.860   4.592   4.195  0.6776 -0.4153  0.1224
   72SAPC  H17R 6324   0.757   4.615   4.232  0.3966  0.8780 -1.3647
   72SAPC  H17S 6325   0.928   4.679   4.207  0.2847 -0.3458  2.2379
   72SAPC  C218 6326   0.913   4.492   4.292  0.0036  0.1443 -0.0226
   72SAPC  H18R 6327   0.862   4.396   4.271  0.0186 -0.4038  2.1560
   72SAPC  H18S 6328   0.892   4.528   4.395 -0.2158  2.5230 -0.8429
   72SAPC  C219 6329   1.064   4.480   4.282 -0.4094 -0.2782  0.3439
   72SAPC  H19R 6330   1.100   4.581   4.312 -2.2158  0.9902 -1.4688
   72SAPC  H19S 6331   1.092   4.453   4.178  0.3135 -2.6852  1.1055
   72SAPC  C220 6332   1.132   4.371   4.364  0.1862  0.7133 -0.1621
   72SAPC  H20R 6333   1.062   4.284   4.363  0.8233  0.1928 -0.3122
   72SAPC  H20S 6334   1.139   4.394   4.472 -0.0499 -0.6349  0.1633
   72SAPC  H20T 6335   1.237   4.350   4.333  0.5974 -1.9825  2.4879
   72SAPC   C33 6336   0.132   4.935   2.764 -0.3570 -0.0818 -0.3701
   72SAPC   H3X 6337   0.230   4.973   2.728  0.6598  0.3592  2.5647
   72SAPC   H3Y 6338   0.147   4.826   2.773 -0.9740 -0.1897 -0.5787
   72SAPC   C34 6339   0.110   4.981   2.909 -0.1365  0.1421  0.2878
   72SAPC   H4X 6340   0.022   4.925   2.946  0.9720 -2.4324 -0.7695
   72SAPC   H4Y 6341   0.091   5.090   2.922 -1.2900 -0.1638  1.3262
   72SAPC   C35 6342   0.223   4.967   3.012 -0.2523 -0.1440 -0.5543
   72SAPC   H5X 6343   0.305   5.024   2.963  1.0663 -1.9101 -0.4942
   72SAPC   H5Y 6344   0.268   4.867   3.028  1.2019  0.6114  0.2977
   72SAPC   C36 6345   0.176   5.033   3.147  0.1631 -0.0273  0.7847
   72SAPC   H6X 6346   0.100   4.965   3.191  2.2406 -0.4666  4.1832
   72SAPC   H6Y 6347   0.133   5.135   3.134  2.2550  0.7838 -0.2501
   72SAPC   C37 6348   0.280   5.039   3.266 -0.4572 -0.0309  0.2140
   72SAPC   H7X 6349   0.353   5.113   3.228 -3.4010  1.8443 -2.2617
   72SAPC   H7Y 6350   0.334   4.943   3.272  1.2607  0.8867 -0.1239
   72SAPC   C38 6351   0.221   5.076   3.404  0.1112 -0.3545  0.3422
   72SAPC   H8X 6352   0.161   4.984   3.419  1.0763 -1.1129 -0.2392
   72SAPC   H8Y 6353   0.154   5.163   3.388  0.8304 -0.0499 -1.2169
   72SAPC   C39 6354   0.319   5.111   3.513 -0.4388  0.3464  0.1826
   72SAPC   H9X 6355   0.380   5.189   3.464 -1.2983  0.0274 -1.4546
   72SAPC   H9Y 6356   0.385   5.024   3.536 -0.5798 -0.1747 -1.3012
   72SAPC  C310 6357   0.251   5.167   3.637  0.6269 -0.4402  0.1586
   72SAPC  H10X 6358   0.166   5.103   3.668  1.0838 -1.0219  0.2333
   72SAPC  H10Y 6359   0.214   5.268   3.610  0.1068 -0.6856 -0.0534
   72SAPC  C311 6360   0.340   5.163   3.763 -0.3925  0.2283  0.3744
   72SAPC  H11X 6361   0.428   5.231   3.761 -1.5310  1.7570  0.4999
   72SAPC  H11Y 6362   0.372   5.060   3.788 -0.7686  0.2466  0.9428
   72SAPC  C312 6363   0.251   5.197   3.884  0.2475  0.3621  0.3421
   72SAPC  H12X 6364   0.191   5.105   3.900 -1.5528  1.6107  1.0721
   72SAPC  H12Y 6365   0.184   5.283   3.865 -1.2275 -0.6152  0.9120
   72SAPC  C313 6366   0.339   5.227   4.002 -1.4154  0.2260 -0.1652
   72SAPC  H13X 6367   0.395   5.323   3.991 -0.7654 -0.0363  0.6887
   72SAPC  H13Y 6368   0.412   5.143   3.996 -0.9960  0.6172 -0.6651
   72SAPC  C314 6369   0.282   5.219   4.146  1.1001  0.5031 -0.3922
   72SAPC  H14X 6370   0.365   5.228   4.219 -0.8248  2.8663  1.6696
   72SAPC  H14Y 6371   0.248   5.114   4.158 -1.5368  1.4328  1.1498
   72SAPC  C315 6372   0.168   5.321   4.179  0.3845 -0.8536  0.3231
   72SAPC  H15X 6373   0.070   5.307   4.128 -1.5174 -0.5251  3.6196
   72SAPC  H15Y 6374   0.222   5.416   4.160  2.0427 -1.8399 -0.1271
   72SAPC  C316 6375   0.131   5.321   4.327 -0.1072 -0.4344  0.3909
   72SAPC  H16X 6376   0.223   5.323   4.389 -0.5115 -0.6467  1.0023
   72SAPC  H16Y 6377   0.093   5.220   4.351  0.0506 -0.4133  0.7322
   72SAPC  C317 6378   0.035   5.438   4.363  0.4007  0.3047  0.0976
   72SAPC  H17X 6379  -0.047   5.416   4.290 -1.2315 -0.0026  1.9431
   72SAPC  H17Y 6380   0.096   5.528   4.343  2.3833 -0.9932 -0.0428
   72SAPC  C318 6381  -0.033   5.431   4.499 -0.3554 -0.2762 -0.2537
   72SAPC  H18X 6382   0.048   5.405   4.570  1.6586 -1.5659 -2.8312
   72SAPC  H18Y 6383  -0.109   5.350   4.504 -0.9703  0.3231  0.4008
   72SAPC  H18Z 6384  -0.082   5.526   4.530 -1.4011 -0.6743 -0.6465
   73SLPC     N 6385   0.624   1.024   7.180  0.4506 -0.0710 -0.2347
   73SLPC   C13 6386   0.684   0.953   7.295 -1.2592 -0.5837 -0.0443
   73SLPC  H13A 6387   0.787   0.924   7.282 -1.2104  0.3796 -2.1433
   73SLPC  H13B 6388   0.674   1.007   7.388  1.7532  3.1377 -1.6445
   73SLPC  H13C 6389   0.640   0.856   7.315 -0.0539 -0.8606  1.4882
   73SLPC   C14 6390   0.485   1.069   7.209  0.5724 -0.0129  0.4745
   73SLPC  H14A 6391   0.415   0.986   7.206 -0.8267  1.0353  2.1800
   73SLPC  H14B 6392   0.475   1.127   7.299 -0.2907  1.0828 -0.2932
   73SLPC  H14C 6393   0.465   1.134   7.125 -2.0107 -0.0470  0.9597
   73SLPC   C15 6394   0.615   0.931   7.066 -0.3805  0.9531  0.4488
   73SLPC  H15A 6395   0.553   0.842   7.067  2.0564 -0.8446  1.4072
   73SLPC  H15B 6396   0.592   0.975   6.970 -0.9174  0.9692  0.5843
   73SLPC  H15C 6397   0.713   0.884   7.059 -0.3545  0.9274  0.9879
   73SLPC   C12 6398   0.701   1.148   7.154 -0.1351  0.7500 -1.0031
   73SLPC  H12A 6399   0.807   1.134   7.141 -0.2754  0.2771 -1.6996
   73SLPC  H12B 6400   0.688   1.201   7.247  1.5873 -2.0681  0.9720
   73SLPC   C11 6401   0.643   1.249   7.047 -0.1125  0.1888  0.5621
   73SLPC  H11A 6402   0.715   1.334   7.047 -0.6785  0.6791 -0.0985
   73SLPC  H11B 6403   0.541   1.285   7.074 -0.8550 -0.3276 -1.3728
   73SLPC     P 6404   0.749   1.202   6.810 -0.2126 -0.8226 -0.2381
   73SLPC   O13 6405   0.883   1.175   6.871 -0.0058  0.0074 -0.0427
   73SLPC   O14 6406   0.712   1.120   6.688  0.3425  0.4329 -0.1816
   73SLPC   O12 6407   0.635   1.179   6.922  0.0810 -0.4676  0.4359
   73SLPC   O11 6408   0.740   1.358   6.783  0.1371 -0.8179  0.1171
   73SLPC    C1 6409   0.642   1.417   6.696 -0.4290 -0.2266  0.4686
   73SLPC    HA 6410   0.564   1.351   6.652 -0.1509 -0.2657  0.0328
   73SLPC    HB 6411   0.594   1.508   6.738  1.5256  2.0721 -1.9018
   73SLPC    C2 6412   0.716   1.479   6.569  0.1571 -0.6685  0.0118
   73SLPC    HS 6413   0.632   1.525   6.511 -1.5092 -2.3848  0.9469
   73SLPC   O21 6414   0.776   1.366   6.504 -0.0504 -0.1116 -0.0220
   73SLPC   C21 6415   0.693   1.287   6.432  0.0224 -0.0078  0.2143
   73SLPC   O22 6416   0.570   1.304   6.419  0.1214  0.2092 -0.2807
   73SLPC   C22 6417   0.775   1.173   6.371  0.2724  0.7894 -0.0920
   73SLPC   H2R 6418   0.791   1.099   6.452 -0.1532 -1.8290 -2.2602
   73SLPC   H2S 6419   0.710   1.123   6.296  4.0980 -0.0325 -3.2134
   73SLPC    C3 6420   0.822   1.575   6.616 -0.1424  0.5336  0.3890
   73SLPC    HX 6421   0.896   1.527   6.684  0.4753  2.3874  1.1071
   73SLPC    HY 6422   0.779   1.662   6.671  1.0321  2.1483 -1.1803
   73SLPC   O31 6423   0.875   1.647   6.498  0.3857 -0.1446  0.2403
   73SLPC   C31 6424   0.994   1.607   6.460  0.0063 -0.5153  0.4681
   73SLPC   O32 6425   1.063   1.526   6.524  0.9536  0.7643  0.2995
   73SLPC   C32 6426   1.036   1.691   6.345 -0.6754  0.0360 -0.8574
   73SLPC   H2X 6427   1.123   1.749   6.384 -0.7353 -0.2325 -0.3214
   73SLPC   H2Y 6428   0.953   1.757   6.311 -0.9535  0.2294  0.1729
   73SLPC   C23 6429   0.908   1.202   6.293  0.1603 -0.6366  0.5930
   73SLPC   H3R 6430   0.959   1.104   6.303  1.6953  0.0219 -0.3072
   73SLPC   H3S 6431   0.977   1.282   6.327  0.3884  0.1186 -1.5028
   73SLPC   C24 6432   0.882   1.207   6.136  0.5614 -0.8407 -0.5602
   73SLPC   H4R 6433   0.859   1.309   6.099 -1.5388 -1.0296  0.1048
   73SLPC   H4S 6434   0.795   1.141   6.113  0.4391 -1.8200  2.3224
   73SLPC   C25 6435   1.003   1.163   6.056  0.0337 -0.9632  0.2368
   73SLPC   H5R 6436   1.038   1.070   6.107  2.3520 -0.2564  0.0501
   73SLPC   H5S 6437   1.077   1.246   6.054  0.2877 -1.1100 -3.4347
   73SLPC   C26 6438   0.957   1.140   5.910 -0.0797  0.1178  0.3975
   73SLPC   H6R 6439   0.896   1.047   5.905  1.7707 -1.1764  0.6182
   73SLPC   H6S 6440   1.042   1.119   5.842 -0.9484  1.0717 -1.0298
   73SLPC   C27 6441   0.880   1.258   5.848 -0.0699 -0.3560 -0.6406
   73SLPC   H7R 6442   0.933   1.354   5.866 -0.1700 -0.3053 -0.6131
   73SLPC   H7S 6443   0.780   1.276   5.892  0.0591  0.5343 -0.6997
   73SLPC   C28 6444   0.872   1.251   5.692  0.4694  0.6968  0.5391
   73SLPC   H8R 6445   0.972   1.276   5.651  0.4287 -1.6736 -1.2382
   73SLPC   H8S 6446   0.801   1.327   5.650  1.4863 -0.7685 -4.5529
   73SLPC   C29 6447   0.804   1.114   5.663 -0.3237 -0.1470  0.4880
   73SLPC   H9R 6448   0.695   1.107   5.678 -0.5092 -2.6013 -1.3578
   73SLPC  C210 6449   0.864   1.018   5.599 -0.3114 -0.6352 -0.3214
   73SLPC  H10R 6450   0.817   0.920   5.585  1.2011 -1.3723 -0.5400
   73SLPC  C211 6451   1.006   1.014   5.557 -1.1040 -0.7582 -0.0637
   73SLPC  H11R 6452   1.072   1.059   5.634 -1.4313  0.4634 -0.4727
   73SLPC  H11S 6453   1.021   1.067   5.461 -1.0309  1.8129  1.2796
   73SLPC  C212 6454   1.072   0.880   5.525 -0.3995 -0.4543 -0.1757
   73SLPC  H12R 6455   1.141   0.853   5.606 -0.3752  0.3100  0.0685
   73SLPC  C213 6456   1.037   0.795   5.427 -0.4238  0.2595 -0.0510
   73SLPC  H13R 6457   1.113   0.717   5.409  0.9383  1.4481  0.3221
   73SLPC  C214 6458   0.932   0.804   5.322  0.4038  0.2951 -0.4327
   73SLPC  H14R 6459   0.853   0.868   5.368  0.3228  0.0837 -0.2735
   73SLPC  H14S 6460   0.876   0.712   5.293 -3.1489  3.0719 -3.3711
   73SLPC  C215 6461   0.995   0.859   5.191 -0.1348 -0.5591 -0.0312
   73SLPC  H15R 6462   1.064   0.778   5.161 -0.1026 -0.7072  0.4375
   73SLPC  H15S 6463   1.045   0.956   5.213 -1.3196 -0.2715  1.5700
   73SLPC  C216 6464   0.881   0.875   5.087 -0.4577  0.0502  0.6315
   73SLPC  H16R 6465   0.798   0.940   5.122 -0.3153 -0.2293  1.5286
   73SLPC  H16S 6466   0.845   0.770   5.090  1.8536 -0.8011  1.4138
   73SLPC  C217 6467   0.923   0.893   4.938  0.1945  0.7657  0.2945
   73SLPC  H17R 6468   0.834   0.901   4.872  0.3808 -2.2453 -0.4356
   73SLPC  H17S 6469   0.966   0.796   4.906 -0.4534  0.1832  1.1360
   73SLPC  C218 6470   1.020   1.008   4.913  0.2888 -0.8198 -0.8143
   73SLPC  H18R 6471   0.961   1.097   4.942 -1.3600 -1.9359 -0.5819
   73SLPC  H18S 6472   1.052   1.026   4.809  0.3868 -4.3422 -1.5269
   73SLPC  H18T 6473   1.101   0.995   4.988 -0.5690  1.2011  0.5485
   73SLPC   C33 6474   1.085   1.607   6.222 -0.2707 -0.0983  0.3445
   73SLPC   H3X 6475   1.151   1.527   6.261  1.3465  1.3256  0.5879
   73SLPC   H3Y 6476   1.136   1.678   6.154 -1.4230 -0.5211 -1.0182
   73SLPC   C34 6477   0.963   1.553   6.140 -0.3099  0.1758 -0.7433
   73SLPC   H4X 6478   0.892   1.502   6.207  0.5934 -3.4477 -2.3170
   73SLPC   H4Y 6479   0.990   1.470   6.071 -2.5503 -0.1328 -1.3248
   73SLPC   C35 6480   0.882   1.655   6.050  0.4415 -0.0069  0.1847
   73SLPC   H5X 6481   0.840   1.720   6.130 -1.5546 -0.8557 -0.1182
   73SLPC   H5Y 6482   0.802   1.604   5.993  0.9336 -2.3609  1.4789
   73SLPC   C36 6483   0.965   1.722   5.941 -0.4595  0.1468  0.1747
   73SLPC   H6X 6484   1.076   1.722   5.955 -0.2774 -0.9058 -1.0683
   73SLPC   H6Y 6485   0.930   1.827   5.934  1.3944  0.8527  0.8448
   73SLPC   C37 6486   0.939   1.658   5.809 -0.7871 -0.5022  0.3371
   73SLPC   H7X 6487   0.829   1.654   5.794 -0.8847  0.5882  0.6484
   73SLPC   H7Y 6488   0.984   1.557   5.814 -0.5472 -0.3685  0.8825
   73SLPC   C38 6489   1.019   1.733   5.701 -0.3131 -0.0623 -0.2735
   73SLPC   H8X 6490   1.127   1.741   5.725 -0.2708  0.8706 -0.6969
   73SLPC   H8Y 6491   0.981   1.837   5.696 -1.0747 -0.2132  1.7555
   73SLPC   C39 6492   0.990   1.678   5.564 -0.8987 -0.3219 -0.4463
   73SLPC   H9X 6493   0.879   1.676   5.563 -0.9125  0.3214 -0.4996
   73SLPC   H9Y 6494   1.032   1.576   5.549  0.2057  0.2288 -1.2781
   73SLPC  C310 6495   1.048   1.760   5.452  0.2827 -0.5681 -0.5636
   73SLPC  H10X 6496   1.155   1.772   5.479  0.0100 -0.5822  0.5739
   73SLPC  H10Y 6497   0.989   1.855   5.451  2.2657  0.7339 -1.5174
   73SLPC  C311 6498   1.028   1.700   5.311 -0.0471  0.1983 -1.1546
   73SLPC  H11X 6499   0.926   1.657   5.304 -0.1834  0.5003 -1.0435
   73SLPC  H11Y 6500   1.102   1.618   5.306 -1.0055 -0.6368 -2.0892
   73SLPC  C312 6501   1.060   1.791   5.195  0.3005  0.2934 -0.6858
   73SLPC  H12X 6502   0.991   1.877   5.210 -0.8942 -0.8731  0.7721
   73SLPC  H12Y 6503   1.021   1.735   5.107  1.4598  0.5254 -1.3657
   73SLPC  C313 6504   1.204   1.827   5.191  0.7039  0.0456  0.2239
   73SLPC  H13X 6505   1.266   1.735   5.178 -1.3183 -1.2913 -0.3846
   73SLPC  H13Y 6506   1.232   1.875   5.288  1.7072 -0.2158  0.0794
   73SLPC  C314 6507   1.213   1.928   5.078 -0.1221 -0.3052 -0.2660
   73SLPC  H14X 6508   1.133   2.004   5.085 -0.0698 -0.2550 -0.2216
   73SLPC  H14Y 6509   1.199   1.884   4.976  3.4217  2.3078 -2.0689
   73SLPC  C315 6510   1.342   2.005   5.074 -1.0906  0.1402 -0.7943
   73SLPC  H15X 6511   1.429   1.936   5.066 -0.4487  0.9038 -0.6049
   73SLPC  H15Y 6512   1.358   2.058   5.170 -4.3802 -0.9949  0.5202
   73SLPC  C316 6513   1.347   2.087   4.947 -1.1126 -0.3058 -0.0144
   73SLPC  H16X 6514   1.270   2.167   4.959  2.2744  3.4664 -0.9257
   73SLPC  H16Y 6515   1.331   2.028   4.854  0.8855  0.3854 -0.8447
   73SLPC  C317 6516   1.483   2.170   4.935  0.0701  0.3601 -0.3993
   73SLPC  H17X 6517   1.474   2.243   4.852  1.1204  0.6107 -0.3057
   73SLPC  H17Y 6518   1.565   2.100   4.911  0.8438  0.1802  2.4018
   73SLPC  C318 6519   1.525   2.258   5.055  0.4867  0.0437  0.1933
   73SLPC  H18X 6520   1.442   2.332   5.069  0.9033  0.9368 -1.7045
   73SLPC  H18Y 6521   1.623   2.308   5.044  0.2764  0.3834 -0.1969
   73SLPC  H18Z 6522   1.533   2.193   5.145  1.7028  1.1377  0.9025
   74SLPC     N 6523   0.162   0.335   6.871 -0.9096 -0.2158 -0.3023
   74SLPC   C13 6524   0.079   0.228   6.917 -0.1187  0.0516  0.7106
   74SLPC  H13A 6525   0.061   0.150   6.845 -1.6396  1.2993 -0.3440
   74SLPC  H13B 6526   0.129   0.177   6.997  2.2941 -0.5087 -1.0652
   74SLPC  H13C 6527  -0.013   0.277   6.948 -0.2786  1.6314 -1.9524
   74SLPC   C14 6528   0.193   0.413   7.003 -0.4313 -0.9314 -0.5302
   74SLPC  H14A 6529   0.271   0.483   6.976 -1.9414  0.4703 -1.4697
   74SLPC  H14B 6530   0.109   0.469   7.043 -0.1249  0.0909 -1.2502
   74SLPC  H14C 6531   0.224   0.338   7.073  0.8056  0.0844  0.0403
   74SLPC   C15 6532   0.091   0.427   6.775 -0.0826  0.2576 -0.6699
   74SLPC  H15A 6533   0.159   0.496   6.727  0.1440 -0.1884 -0.9841
   74SLPC  H15B 6534   0.044   0.365   6.701 -0.2144  0.0110 -0.3837
   74SLPC  H15C 6535   0.014   0.479   6.830 -0.1618  0.9314 -1.3965
   74SLPC   C12 6536   0.291   0.292   6.813 -0.0674 -0.7850  0.2299
   74SLPC  H12A 6537   0.351   0.226   6.875  0.4426 -2.6997 -2.1678
   74SLPC  H12B 6538   0.344   0.383   6.790 -1.0034 -0.1509  0.5191
   74SLPC   C11 6539   0.283   0.198   6.687  0.3989 -0.5549  0.1014
   74SLPC  H11A 6540   0.387   0.204   6.647  0.3879  0.3775  0.1765
   74SLPC  H11B 6541   0.212   0.244   6.615 -1.1353 -0.6214  1.5190
   74SLPC     P 6542   0.355  -0.032   6.778  0.1646  0.2313  0.2961
   74SLPC   O13 6543   0.416   0.045   6.889  0.4898  0.0202  0.2180
   74SLPC   O14 6544   0.288  -0.160   6.808 -0.0162 -0.5767 -0.4663
   74SLPC   O12 6545   0.246   0.060   6.711 -0.3368 -1.0154 -0.5736
   74SLPC   O11 6546   0.456  -0.040   6.655  0.5487  0.0697  0.3935
   74SLPC    C1 6547   0.454  -0.152   6.567  0.2803  0.4632 -0.2871
   74SLPC    HA 6548   0.485  -0.244   6.620  1.6203  1.1576  0.2023
   74SLPC    HB 6549   0.350  -0.172   6.535  0.0391 -1.2564  1.3613
   74SLPC    C2 6550   0.546  -0.144   6.447 -0.3689 -0.5122  0.0545
   74SLPC    HS 6551   0.645  -0.132   6.496 -0.7129  1.2268  0.4100
   74SLPC   O21 6552   0.532  -0.025   6.365 -0.4275  0.1166  0.2398
   74SLPC   C21 6553   0.400  -0.006   6.321 -0.7646 -0.4240  0.5072
   74SLPC   O22 6554   0.306  -0.080   6.334 -0.5569  0.0114 -0.2951
   74SLPC   C22 6555   0.384   0.124   6.242 -0.8972  0.2353 -1.2541
   74SLPC   H2R 6556   0.279   0.143   6.211 -0.9593 -0.3626 -1.4287
   74SLPC   H2S 6557   0.407   0.207   6.312  0.0211 -0.2891 -0.9049
   74SLPC    C3 6558   0.555  -0.278   6.369 -0.3549 -0.0272 -0.2774
   74SLPC    HX 6559   0.457  -0.318   6.336 -1.3539 -0.0085  2.4338
   74SLPC    HY 6560   0.574  -0.357   6.445 -2.6461 -1.0473 -0.6819
   74SLPC   O31 6561   0.645  -0.282   6.255  0.3869 -0.4811  0.7516
   74SLPC   C31 6562   0.775  -0.311   6.288 -0.7186  0.6566 -0.1370
   74SLPC   O32 6563   0.815  -0.355   6.393 -0.5080  0.0779  0.1067
   74SLPC   C32 6564   0.862  -0.300   6.161  0.0945  0.1410  0.2179
   74SLPC   H2X 6565   0.805  -0.344   6.077  1.2245 -1.9302  0.4463
   74SLPC   H2Y 6566   0.956  -0.359   6.173 -0.8519 -1.3911  0.3608
   74SLPC   C23 6567   0.468   0.126   6.115 -0.1395 -0.0352  0.3581
   74SLPC   H3R 6568   0.573   0.104   6.144 -0.1645 -0.8039 -0.1126
   74SLPC   H3S 6569   0.472   0.232   6.080 -0.2479 -0.2776 -0.4011
   74SLPC   C24 6570   0.409   0.045   6.004 -1.0680 -0.1779 -0.6481
   74SLPC   H4R 6571   0.305   0.077   5.980 -0.8976  0.3143 -0.7489
   74SLPC   H4S 6572   0.400  -0.061   6.033  2.4050 -1.1157 -2.4443
   74SLPC   C25 6573   0.501   0.052   5.880 -0.5771 -0.0562 -0.2690
   74SLPC   H5R 6574   0.595  -0.005   5.895  1.0740  2.7608  0.6706
   74SLPC   H5S 6575   0.529   0.156   5.856  0.2535 -0.0398  0.7189
   74SLPC   C26 6576   0.428   0.004   5.753 -0.0353  0.9846 -0.2398
   74SLPC   H6R 6577   0.353   0.082   5.727  1.9453  2.8950 -0.4894
   74SLPC   H6S 6578   0.367  -0.088   5.769  1.2567 -0.1706 -1.6189
   74SLPC   C27 6579   0.517  -0.021   5.624 -0.1335 -0.5667  0.0663
   74SLPC   H7R 6580   0.471  -0.102   5.564 -0.5434  0.8416 -1.5952
   74SLPC   H7S 6581   0.613  -0.060   5.663 -0.4664  0.4046  2.0274
   74SLPC   C28 6582   0.543   0.104   5.537 -0.1822  0.2607  0.3112
   74SLPC   H8R 6583   0.572   0.183   5.609  0.2983  0.0879  0.3082
   74SLPC   H8S 6584   0.447   0.139   5.494  0.2095  1.5109  0.4253
   74SLPC   C29 6585   0.647   0.076   5.428 -0.1568  0.4112 -0.4161
   74SLPC   H9R 6586   0.752   0.083   5.460 -0.6741  0.3491  1.4023
   74SLPC  C210 6587   0.621   0.041   5.297  0.0515  0.1594 -0.2779
   74SLPC  H10R 6588   0.712   0.028   5.237 -0.9079 -0.5645 -1.6215
   74SLPC  C211 6589   0.491   0.008   5.240 -0.3362  0.7140  0.3083
   74SLPC  H11R 6590   0.422  -0.015   5.323 -0.9890 -3.7679 -1.1663
   74SLPC  H11S 6591   0.498  -0.089   5.184  0.4199 -0.4809  2.3826
   74SLPC  C212 6592   0.420   0.103   5.148 -0.2308  0.5218  0.5713
   74SLPC  H12R 6593   0.348   0.165   5.204  0.9290  0.0193  2.7017
   74SLPC  C213 6594   0.430   0.116   5.014 -0.5173 -0.2533  0.1852
   74SLPC  H13R 6595   0.388   0.206   4.965 -1.0443 -1.2027 -1.1808
   74SLPC  C214 6596   0.515   0.033   4.917  1.0603 -0.1833  0.1900
   74SLPC  H14R 6597   0.563  -0.046   4.979  0.8641  1.7446  2.9711
   74SLPC  H14S 6598   0.589   0.103   4.872  0.4882  1.3927  1.5840
   74SLPC  C215 6599   0.438  -0.018   4.793  0.5417  0.7131 -0.0243
   74SLPC  H15R 6600   0.419   0.072   4.730 -1.5718  0.4619  0.1689
   74SLPC  H15S 6601   0.339  -0.055   4.828  0.1014  0.1205 -1.7827
   74SLPC  C216 6602   0.507  -0.137   4.725  0.6360  0.4996  0.1203
   74SLPC  H16R 6603   0.518  -0.215   4.804  0.9211  1.3900  0.9710
   74SLPC  H16S 6604   0.605  -0.118   4.676 -0.1820 -1.9289 -2.8079
   74SLPC  C217 6605   0.407  -0.189   4.621 -0.4666 -0.4367  0.0897
   74SLPC  H17R 6606   0.401  -0.109   4.544  2.4788 -1.4827 -1.3537
   74SLPC  H17S 6607   0.305  -0.198   4.664 -0.0716  2.1508  1.8201
   74SLPC  C218 6608   0.453  -0.324   4.573 -0.5264 -0.0660  0.0326
   74SLPC  H18R 6609   0.554  -0.321   4.528  0.0153  1.0650  1.2677
   74SLPC  H18S 6610   0.377  -0.360   4.501 -1.0271 -0.9856  0.9938
   74SLPC  H18T 6611   0.458  -0.396   4.657 -0.3441 -0.0878  0.0024
   74SLPC   C33 6612   0.896  -0.157   6.123  0.1161  0.2463 -0.1878
   74SLPC   H3X 6613   0.974  -0.115   6.191 -1.8221  3.6905  0.1504
   74SLPC   H3Y 6614   0.806  -0.093   6.126  1.2730  1.9484  2.1494
   74SLPC   C34 6615   0.972  -0.144   5.986 -0.6570 -0.1820  0.6663
   74SLPC   H4X 6616   0.920  -0.204   5.909  0.6340  1.3424 -1.4761
   74SLPC   H4Y 6617   1.076  -0.177   6.004 -0.4477 -0.0251 -0.2396
   74SLPC   C35 6618   0.968  -0.005   5.931 -0.0376  0.2698 -0.1233
   74SLPC   H5X 6619   0.993   0.067   6.012  1.0909  1.5480 -1.5294
   74SLPC   H5Y 6620   0.866   0.027   5.903 -0.7160 -1.5928  0.0937
   74SLPC   C36 6621   1.056   0.029   5.813 -0.5114  0.2623  0.2383
   74SLPC   H6X 6622   1.160  -0.004   5.833 -0.5696 -1.1414 -1.5379
   74SLPC   H6Y 6623   1.062   0.139   5.801 -1.4379  0.3330  0.3177
   74SLPC   C37 6624   0.996  -0.019   5.681 -0.7816  0.3339  0.7168
   74SLPC   H7X 6625   1.023   0.046   5.594 -1.3982 -2.1508 -1.4591
   74SLPC   H7Y 6626   0.886  -0.022   5.666 -0.5717 -0.0500 -0.9050
   74SLPC   C38 6627   1.051  -0.161   5.636  0.5504 -0.0436 -0.1542
   74SLPC   H8X 6628   1.011  -0.239   5.704 -0.4552  0.1395 -0.5208
   74SLPC   H8Y 6629   1.160  -0.143   5.647  0.6176  0.2959 -1.2576
   74SLPC   C39 6630   1.000  -0.194   5.501 -0.0314 -0.2423  0.5835
   74SLPC   H9X 6631   0.890  -0.205   5.487 -0.0381 -0.4911  0.8172
   74SLPC   H9Y 6632   1.029  -0.299   5.478 -0.7713 -1.2319  3.6767
   74SLPC  C310 6633   1.052  -0.108   5.378 -0.3593 -0.1567 -0.0552
   74SLPC  H10X 6634   1.161  -0.119   5.358 -0.7479  1.3160 -3.5559
   74SLPC  H10Y 6635   1.019  -0.006   5.405  0.8312 -0.1904  1.6785
   74SLPC  C311 6636   0.976  -0.155   5.256  0.4614  0.0682 -0.2801
   74SLPC  H11X 6637   0.874  -0.185   5.287 -0.0310  0.9971 -0.9273
   74SLPC  H11Y 6638   1.021  -0.247   5.212 -3.6972 -0.6798 -3.6757
   74SLPC  C312 6639   0.959  -0.055   5.141 -0.3310 -0.4494  0.2724
   74SLPC  H12X 6640   1.059  -0.020   5.107 -0.1158 -1.6801 -0.4296
   74SLPC  H12Y 6641   0.897   0.032   5.172 -1.5955 -0.2491 -2.4779
   74SLPC  C313 6642   0.887  -0.119   5.016 -0.2652  0.4810 -0.2768
   74SLPC  H13X 6643   0.803  -0.171   5.067 -0.5299 -0.2872 -1.4381
   74SLPC  H13Y 6644   0.966  -0.182   4.970  0.7364  0.7276  1.0603
   74SLPC  C314 6645   0.845  -0.009   4.917 -0.2295  0.1156  0.0995
   74SLPC  H14X 6646   0.797   0.075   4.972 -1.2676  0.4348 -1.2265
   74SLPC  H14Y 6647   0.768  -0.055   4.851  0.1982  2.7506 -2.4215
   74SLPC  C315 6648   0.957   0.039   4.822  0.2332 -0.1437 -0.7411
   74SLPC  H15X 6649   0.965  -0.034   4.739  1.7775 -1.9307  0.8855
   74SLPC  H15Y 6650   1.060   0.023   4.859  0.1093 -0.0960 -0.3721
   74SLPC  C316 6651   0.942   0.187   4.779 -0.1278 -0.3046  0.4506
   74SLPC  H16X 6652   1.040   0.206   4.732 -0.4359  0.5601  0.1334
   74SLPC  H16Y 6653   0.914   0.259   4.859  1.4109  0.5517  0.2494
   74SLPC  C317 6654   0.831   0.211   4.669  0.2757  0.3567  0.8327
   74SLPC  H17X 6655   0.839   0.315   4.631 -1.3170  0.0612 -0.4274
   74SLPC  H17Y 6656   0.735   0.206   4.724 -0.4473 -1.0611 -0.4878
   74SLPC  C318 6657   0.830   0.114   4.553 -0.1758  0.2540 -0.4164
   74SLPC  H18X 6658   0.817   0.010   4.589 -3.4900  0.8970  0.5558
   74SLPC  H18Y 6659   0.924   0.122   4.493  0.5373 -1.2855  0.4342
   74SLPC  H18Z 6660   0.740   0.120   4.489 -1.4083 -0.1920  1.2241
   75SLPC     N 6661   2.697   1.957   6.956 -0.1014 -0.2921  0.0376
   75SLPC   C13 6662   2.582   2.033   6.896  0.2755 -0.1874 -0.4516
   75SLPC  H13A 6663   2.501   2.043   6.967  0.6718  0.0306 -0.0192
   75SLPC  H13B 6664   2.602   2.135   6.868  0.2572  0.7628  2.6066
   75SLPC  H13C 6665   2.542   1.975   6.814 -2.8718  3.3375 -1.6987
   75SLPC   C14 6666   2.636   1.852   7.039 -0.2728  0.1809  0.1173
   75SLPC  H14A 6667   2.699   1.799   7.108  1.2110  0.5997 -0.8701
   75SLPC  H14B 6668   2.547   1.889   7.089 -0.4316  2.0195 -1.4125
   75SLPC  H14C 6669   2.597   1.777   6.972 -0.3286 -0.1900  0.5559
   75SLPC   C15 6670   2.774   2.052   7.050  0.6662  0.1241  0.1909
   75SLPC  H15A 6671   2.710   2.116   7.110  0.4659 -0.4171  0.5688
   75SLPC  H15B 6672   2.827   1.984   7.116 -1.7464 -2.4331 -0.2668
   75SLPC  H15C 6673   2.840   2.115   6.993 -3.1473  3.3316 -1.1075
   75SLPC   C12 6674   2.794   1.916   6.852  0.4647 -0.2682 -0.2155
   75SLPC  H12A 6675   2.877   1.872   6.905  0.2275 -0.6248 -0.1362
   75SLPC  H12B 6676   2.834   2.001   6.799  2.1155  0.1120  1.5295
   75SLPC   C11 6677   2.744   1.815   6.744  0.1075 -0.0516 -1.1245
   75SLPC  H11A 6678   2.829   1.808   6.672  1.3355  0.2401  0.2639
   75SLPC  H11B 6679   2.655   1.850   6.687  1.6882  0.6361 -3.3324
   75SLPC     P 6680   2.840   1.600   6.865  0.4312  0.0871 -0.1475
   75SLPC   O13 6681   2.883   1.673   6.991 -0.2430  0.4474  0.2887
   75SLPC   O14 6682   2.788   1.463   6.889 -0.3756 -0.6162  0.7621
   75SLPC   O12 6683   2.720   1.688   6.802 -0.1264  0.3317  0.0434
   75SLPC   O11 6684   2.943   1.614   6.748 -0.3050 -0.0601 -1.0030
   75SLPC    C1 6685   2.984   1.495   6.671 -0.1113 -0.7109 -0.0140
   75SLPC    HA 6686   3.085   1.464   6.705  0.2179  1.7591  1.5147
   75SLPC    HB 6687   2.920   1.405   6.680 -1.0560 -0.0294  0.1752
   75SLPC    C2 6688   2.998   1.524   6.521  0.1032  0.9573  0.3541
   75SLPC    HS 6689   3.037   1.434   6.470 -0.3442  0.3188  1.1219
   75SLPC   O21 6690   3.092   1.631   6.495  0.0331  0.1068  0.2126
   75SLPC   C21 6691   3.219   1.594   6.479 -1.0868  0.0677 -0.0798
   75SLPC   O22 6692   3.256   1.478   6.486  0.5233  0.2429  0.2077
   75SLPC   C22 6693   3.319   1.706   6.438  0.7620 -1.2189  0.2734
   75SLPC   H2R 6694   3.264   1.795   6.475 -1.6582 -1.5033 -2.2725
   75SLPC   H2S 6695   3.424   1.680   6.463  0.5340 -1.8452  0.5957
   75SLPC    C3 6696   2.855   1.562   6.466 -0.1955  0.0872  0.3085
   75SLPC    HX 6697   2.819   1.663   6.495  0.4740  1.2553 -2.5903
   75SLPC    HY 6698   2.778   1.493   6.508 -0.5365  0.9814  1.1854
   75SLPC   O31 6699   2.857   1.546   6.320  0.2117  0.1462  0.4324
   75SLPC   C31 6700   2.873   1.660   6.252  0.2462  0.5676  0.3386
   75SLPC   O32 6701   2.879   1.770   6.300  0.2923 -0.1625 -0.1580
   75SLPC   C32 6702   2.907   1.615   6.103 -0.0765 -0.3510 -0.1671
   75SLPC   H2X 6703   2.838   1.532   6.075  0.7114 -0.5470 -1.6721
   75SLPC   H2Y 6704   3.009   1.573   6.092  0.2003  0.1256  0.4937
   75SLPC   C23 6705   3.315   1.709   6.290 -0.4542 -0.7757  0.3104
   75SLPC   H3R 6706   3.214   1.731   6.247  0.0497  1.7142  0.2601
   75SLPC   H3S 6707   3.339   1.612   6.241  0.7495  0.9671 -2.8470
   75SLPC   C24 6708   3.411   1.809   6.228 -0.6712 -0.2245  0.0262
   75SLPC   H4R 6709   3.514   1.781   6.258 -0.0838  2.0162  0.2793
   75SLPC   H4S 6710   3.394   1.910   6.271 -1.2030 -0.4540  0.3604
   75SLPC   C25 6711   3.395   1.818   6.065 -0.5168 -0.4951  0.4811
   75SLPC   H5R 6712   3.328   1.905   6.049 -1.3857 -1.6071 -2.6989
   75SLPC   H5S 6713   3.342   1.726   6.031 -1.9318  0.0415  1.1348
   75SLPC   C26 6714   3.533   1.840   6.002  0.5453 -0.0693 -1.1412
   75SLPC   H6R 6715   3.613   1.782   6.054 -0.5158  2.0882  3.3445
   75SLPC   H6S 6716   3.565   1.945   6.017 -1.4147  0.4303 -0.1586
   75SLPC   C27 6717   3.535   1.828   5.856 -0.6609  0.2995  0.4550
   75SLPC   H7R 6718   3.442   1.870   5.812 -0.2641 -0.9807 -1.7621
   75SLPC   H7S 6719   3.539   1.720   5.829  0.4926  0.1813  1.0419
   75SLPC   C28 6720   3.657   1.885   5.775 -0.1627 -0.5419 -0.0365
   75SLPC   H8R 6721   3.663   1.988   5.815  3.9436 -0.8102  0.4894
   75SLPC   H8S 6722   3.631   1.899   5.668  2.1845 -1.9664 -0.8779
   75SLPC   C29 6723   3.784   1.802   5.795 -0.2161  0.3335  0.5694
   75SLPC   H9R 6724   3.823   1.798   5.897  0.9080  1.7835  0.2231
   75SLPC  C210 6725   3.846   1.727   5.700  0.3657 -0.1493  0.5181
   75SLPC  H10R 6726   3.926   1.657   5.729  0.4943 -0.0491  0.4090
   75SLPC  C211 6727   3.800   1.719   5.554  0.5831 -0.5181  0.0546
   75SLPC  H11R 6728   3.692   1.691   5.555  0.8824 -1.7399 -0.1198
   75SLPC  H11S 6729   3.848   1.639   5.494 -0.5551 -0.6320 -0.7325
   75SLPC  C212 6730   3.822   1.846   5.482  0.6620 -0.1443 -0.3793
   75SLPC  H12R 6731   3.874   1.926   5.537  0.7274  0.2481 -0.9911
   75SLPC  C213 6732   3.791   1.867   5.351 -0.1443 -0.7038 -0.7235
   75SLPC  H13R 6733   3.815   1.962   5.301 -2.7472  0.5081  0.1646
   75SLPC  C214 6734   3.728   1.767   5.264  0.4778  0.4539 -0.2009
   75SLPC  H14R 6735   3.668   1.801   5.177  1.9449 -0.2491 -1.5445
   75SLPC  H14S 6736   3.667   1.692   5.319  0.1205  1.4506  0.8073
   75SLPC  C215 6737   3.837   1.681   5.197 -0.0086 -0.1358 -0.5835
   75SLPC  H15R 6738   3.917   1.649   5.267  1.4151  0.0597 -2.0575
   75SLPC  H15S 6739   3.880   1.745   5.117 -1.1394  1.6126  0.1684
   75SLPC  C216 6740   3.775   1.560   5.118 -0.0559  0.3756  0.5434
   75SLPC  H16R 6741   3.702   1.603   5.047  0.7999  0.4656 -0.2997
   75SLPC  H16S 6742   3.714   1.504   5.192  0.4647 -0.4078  0.3966
   75SLPC  C217 6743   3.890   1.464   5.078 -0.0349 -0.0574  0.5416
   75SLPC  H17R 6744   3.940   1.427   5.170 -1.3502 -1.1373  0.8571
   75SLPC  H17S 6745   3.967   1.522   5.023  0.0549  1.3399  2.0312
   75SLPC  C218 6746   3.834   1.334   5.011 -0.0418  0.1517 -0.8068
   75SLPC  H18R 6747   3.913   1.264   4.977  1.3279  0.0392  2.3319
   75SLPC  H18S 6748   3.769   1.377   4.931 -0.1329  2.4493  0.4131
   75SLPC  H18T 6749   3.777   1.281   5.090  0.0678  0.6906 -0.3582
   75SLPC   C33 6750   2.877   1.731   5.998  0.2053 -0.0837 -0.2423
   75SLPC   H3X 6751   2.905   1.832   6.034 -1.2797  0.2341  0.0917
   75SLPC   H3Y 6752   2.766   1.732   5.991  0.0509 -0.0026  1.6658
   75SLPC   C34 6753   2.933   1.707   5.859  0.5077  0.3862  0.8647
   75SLPC   H4X 6754   2.903   1.781   5.781 -1.3064 -2.8156 -1.6981
   75SLPC   H4Y 6755   2.894   1.608   5.828  0.1740  0.5191  0.8573
   75SLPC   C35 6756   3.084   1.697   5.838 -0.2791  0.1729 -0.7884
   75SLPC   H5X 6757   3.125   1.627   5.914 -2.2667 -0.0353  0.1480
   75SLPC   H5Y 6758   3.139   1.793   5.852  1.1201 -0.7287  0.2131
   75SLPC   C36 6759   3.121   1.652   5.697  1.0053  0.3529 -0.2076
   75SLPC   H6X 6760   3.079   1.722   5.621  1.3143 -0.0387 -0.7493
   75SLPC   H6Y 6761   3.063   1.558   5.683  0.2423  0.6065  1.1365
   75SLPC   C37 6762   3.269   1.632   5.684 -0.5233  0.0338  0.0991
   75SLPC   H7X 6763   3.301   1.552   5.755  0.5978  0.5671  0.2064
   75SLPC   H7Y 6764   3.319   1.728   5.707 -1.4820  0.8211 -0.9777
   75SLPC   C38 6765   3.316   1.591   5.540 -0.1118  0.0901 -0.3157
   75SLPC   H8X 6766   3.424   1.572   5.558  0.0288 -1.8057 -2.6229
   75SLPC   H8Y 6767   3.299   1.685   5.483  0.4663  0.6090  0.3506
   75SLPC   C39 6768   3.242   1.471   5.482 -0.1262 -0.4367  1.3098
   75SLPC   H9X 6769   3.136   1.498   5.460  0.7967  1.6584 -1.1346
   75SLPC   H9Y 6770   3.245   1.393   5.560 -1.5208  0.5972  2.4598
   75SLPC  C310 6771   3.308   1.431   5.343 -0.0151 -0.4502 -0.0080
   75SLPC  H10X 6772   3.341   1.523   5.288  0.0661 -1.7052 -2.1905
   75SLPC  H10Y 6773   3.225   1.405   5.274 -1.6219  1.8809  0.8907
   75SLPC  C311 6774   3.404   1.316   5.355  0.4103  0.2682 -0.6294
   75SLPC  H11X 6775   3.343   1.236   5.402  1.2112 -0.1681 -0.3127
   75SLPC  H11Y 6776   3.488   1.342   5.423 -0.2739  0.1593  0.2727
   75SLPC  C312 6777   3.481   1.270   5.230  0.3117  0.3599  0.1726
   75SLPC  H12X 6778   3.541   1.181   5.258  0.2192  0.1749 -0.2119
   75SLPC  H12Y 6779   3.536   1.360   5.194  1.0454 -0.4007 -0.6557
   75SLPC  C313 6780   3.379   1.209   5.126 -0.5073  0.1232  0.1475
   75SLPC  H13X 6781   3.306   1.287   5.094  1.0813  1.8952  0.6745
   75SLPC  H13Y 6782   3.310   1.136   5.173 -2.6738  3.1051  1.9522
   75SLPC  C314 6783   3.462   1.161   5.008 -0.5090  0.3119  0.1435
   75SLPC  H14X 6784   3.547   1.096   5.039 -0.6354  1.2932  2.7045
   75SLPC  H14Y 6785   3.515   1.246   4.961  1.1614 -0.4086  0.6288
   75SLPC  C315 6786   3.385   1.090   4.900  0.4510 -0.3148 -0.4136
   75SLPC  H15X 6787   3.297   1.151   4.867 -1.0936 -0.8629  2.3730
   75SLPC  H15Y 6788   3.336   1.001   4.945 -4.2674  1.5405 -1.2097
   75SLPC  C316 6789   3.474   1.045   4.784 -0.4932 -0.3357  0.2531
   75SLPC  H16X 6790   3.548   0.977   4.832 -1.2632 -0.6468  1.0371
   75SLPC  H16Y 6791   3.532   1.131   4.745 -1.4640  0.0554 -0.3799
   75SLPC  C317 6792   3.396   0.986   4.668 -0.1292 -0.0168 -0.5486
   75SLPC  H17X 6793   3.307   1.048   4.647 -0.6917 -1.1959 -1.7760
   75SLPC  H17Y 6794   3.357   0.887   4.700 -0.9066  0.0262 -1.3339
   75SLPC  C318 6795   3.465   0.980   4.534  0.4291 -0.3974  0.1760
   75SLPC  H18X 6796   3.476   1.084   4.498 -0.8056  0.0926  1.1415
   75SLPC  H18Y 6797   3.405   0.919   4.463  1.8510 -1.7943  0.1054
   75SLPC  H18Z 6798   3.566   0.939   4.554  1.0093  0.9237  0.0624
   76SLPC     N 6799   4.832   0.932   6.790 -0.0830 -0.0529  0.0451
   76SLPC   C13 6800   4.966   0.865   6.795  0.4307  1.1224  0.2849
   76SLPC  H13A 6801   4.989   0.849   6.691 -1.2602  1.0763 -0.1045
   76SLPC  H13B 6802   5.044   0.921   6.846  1.0049  1.1151 -0.5723
   76SLPC  H13C 6803   4.955   0.770   6.846  2.6375  1.1604  0.9398
   76SLPC   C14 6804   4.793   1.000   6.916  0.3382  0.3106  0.3143
   76SLPC  H14A 6805   4.879   1.040   6.967  0.4435 -0.3622  0.6857
   76SLPC  H14B 6806   4.722   1.080   6.901 -0.4735 -0.5341 -0.5525
   76SLPC  H14C 6807   4.752   0.924   6.981  0.9285 -0.5294 -0.2658
   76SLPC   C15 6808   4.721   0.836   6.754  0.4988 -0.6598 -1.1767
   76SLPC  H15A 6809   4.749   0.770   6.673 -1.2436  1.2589 -3.4980
   76SLPC  H15B 6810   4.699   0.772   6.838 -1.4263  0.9867 -0.3409
   76SLPC  H15C 6811   4.630   0.889   6.728  0.1418 -1.8696 -2.5332
   76SLPC   C12 6812   4.845   1.043   6.683  1.1601  0.0784  0.3278
   76SLPC  H12A 6813   4.855   1.003   6.583 -0.5638 -1.2122  0.6230
   76SLPC  H12B 6814   4.928   1.111   6.697  0.7510  0.6447  0.0829
   76SLPC   C11 6815   4.721   1.140   6.677 -0.2486 -0.0955 -0.1606
   76SLPC  H11A 6816   4.624   1.088   6.697 -0.5638  0.3354 -0.5661
   76SLPC  H11B 6817   4.715   1.182   6.575  1.6563 -3.4116 -1.7983
   76SLPC     P 6818   4.838   1.363   6.744  0.0113 -0.4998 -0.1300
   76SLPC   O13 6819   4.832   1.458   6.858 -0.3813  0.2114 -0.3299
   76SLPC   O14 6820   4.972   1.308   6.723 -1.1503 -0.4870  0.4823
   76SLPC   O12 6821   4.733   1.246   6.770 -1.2838  0.0079 -0.1656
   76SLPC   O11 6822   4.790   1.424   6.607  0.1728  0.2889 -0.4123
   76SLPC    C1 6823   4.683   1.510   6.602  0.1376 -0.8158  0.1086
   76SLPC    HA 6824   4.583   1.464   6.623 -0.9310  2.5402  3.5647
   76SLPC    HB 6825   4.706   1.602   6.660  1.0125 -1.0801  0.1906
   76SLPC    C2 6826   4.662   1.570   6.455 -0.7516 -0.6258 -0.0918
   76SLPC    HS 6827   4.577   1.641   6.452 -2.3062 -2.3656  0.3488
   76SLPC   O21 6828   4.650   1.459   6.369  0.4058  0.0283  0.4184
   76SLPC   C21 6829   4.535   1.384   6.381 -0.0666  0.2641  0.0939
   76SLPC   O22 6830   4.434   1.428   6.437  0.0996  0.1145  0.4739
   76SLPC   C22 6831   4.564   1.244   6.331  0.5402  0.5007  0.1512
   76SLPC   H2R 6832   4.673   1.224   6.318  0.0094 -2.0279 -1.0276
   76SLPC   H2S 6833   4.510   1.172   6.396 -0.1870 -0.0413 -1.0118
   76SLPC    C3 6834   4.788   1.654   6.416  0.4793  0.0027 -0.3064
   76SLPC    HX 6835   4.879   1.594   6.437 -1.5232 -2.8111  0.9953
   76SLPC    HY 6836   4.790   1.735   6.492 -0.2507 -1.6949  1.6400
   76SLPC   O31 6837   4.770   1.707   6.283 -0.1343  0.3462 -0.3667
   76SLPC   C31 6838   4.818   1.635   6.183 -0.5680 -0.7996 -0.2912
   76SLPC   O32 6839   4.864   1.524   6.195 -1.1208 -0.1325  0.5401
   76SLPC   C32 6840   4.803   1.718   6.048  0.5492 -0.3572 -0.0492
   76SLPC   H2X 6841   4.906   1.739   6.012  0.4844 -2.5476 -1.7314
   76SLPC   H2Y 6842   4.756   1.813   6.083  1.1872 -0.4366  1.0649
   76SLPC   C23 6843   4.506   1.221   6.194 -0.0833 -0.0536  0.5118
   76SLPC   H3R 6844   4.405   1.267   6.200  0.6349  2.1569 -2.1817
   76SLPC   H3S 6845   4.481   1.116   6.171 -2.0019  0.6950 -1.0945
   76SLPC   C24 6846   4.594   1.275   6.079  0.6986  0.0881  0.2601
   76SLPC   H4R 6847   4.697   1.232   6.087  1.1287  0.7073 -1.5114
   76SLPC   H4S 6848   4.601   1.383   6.104 -1.9315  0.2987  0.3488
   76SLPC   C25 6849   4.540   1.261   5.940 -0.3600 -0.2247  0.2611
   76SLPC   H5R 6850   4.596   1.331   5.875 -2.1305  1.0906  0.0970
   76SLPC   H5S 6851   4.440   1.308   5.946 -0.2285  0.3874 -1.7057
   76SLPC   C26 6852   4.548   1.115   5.886 -0.1323 -0.5798 -0.1179
   76SLPC   H6R 6853   4.489   1.040   5.943 -1.5288 -0.0440 -0.8139
   76SLPC   H6S 6854   4.652   1.079   5.873 -0.4392 -1.0813 -1.3756
   76SLPC   C27 6855   4.473   1.107   5.744 -0.1493  0.7804 -0.6209
   76SLPC   H7R 6856   4.515   1.192   5.685 -0.0405  1.1793  0.0179
   76SLPC   H7S 6857   4.362   1.113   5.756 -0.3081 -1.3247 -0.7360
   76SLPC   C28 6858   4.504   0.984   5.656 -0.3258 -0.1673  0.1250
   76SLPC   H8R 6859   4.497   0.889   5.713  0.3810 -1.6380 -2.1375
   76SLPC   H8S 6860   4.609   0.992   5.623 -0.2344 -0.5328  0.3199
   76SLPC   C29 6861   4.400   0.974   5.546 -0.8546  0.3008 -0.7076
   76SLPC   H9R 6862   4.296   0.980   5.584  0.3471 -0.3505  3.1145
   76SLPC  C210 6863   4.422   0.968   5.416  0.4557  0.1863  0.4091
   76SLPC  H10R 6864   4.339   0.952   5.346  1.6955 -1.1147 -0.8152
   76SLPC  C211 6865   4.555   0.983   5.343  0.3280  0.2831 -0.3176
   76SLPC  H11R 6866   4.633   0.954   5.415 -1.4080 -0.3761  1.3732
   76SLPC  H11S 6867   4.562   1.094   5.331 -2.5131  0.6571  0.7213
   76SLPC  C212 6868   4.564   0.902   5.215 -0.6865  0.3373 -0.3627
   76SLPC  H12R 6869   4.614   0.805   5.227 -0.7039  0.4954  1.2039
   76SLPC  C213 6870   4.522   0.956   5.096  0.4557 -0.2117 -0.2356
   76SLPC  H13R 6871   4.534   0.903   5.001 -2.0465 -1.3264 -0.0177
   76SLPC  C214 6872   4.460   1.086   5.078 -0.0189 -0.1102 -0.1586
   76SLPC  H14R 6873   4.466   1.143   5.173  0.8401 -0.3680 -0.0544
   76SLPC  H14S 6874   4.351   1.071   5.061 -0.0082  0.2824 -0.6112
   76SLPC  C215 6875   4.527   1.174   4.966 -0.1345  0.3668  0.2804
   76SLPC  H15R 6876   4.506   1.115   4.874 -0.9503  1.1114 -0.0233
   76SLPC  H15S 6877   4.636   1.187   4.983  0.0149 -0.4547 -0.0032
   76SLPC  C216 6878   4.461   1.317   4.955 -0.7075 -0.2924  0.0567
   76SLPC  H16R 6879   4.473   1.347   5.061 -1.4265 -0.2883  0.1433
   76SLPC  H16S 6880   4.351   1.310   4.944 -0.6145 -1.2758 -0.2911
   76SLPC  C217 6881   4.533   1.416   4.859 -0.5365  0.0265  0.1043
   76SLPC  H17R 6882   4.509   1.376   4.759 -0.8957  2.1794 -0.7259
   76SLPC  H17S 6883   4.642   1.410   4.877 -0.7559 -2.4264  1.0610
   76SLPC  C218 6884   4.481   1.564   4.859  0.5957  0.3885  0.1620
   76SLPC  H18R 6885   4.517   1.620   4.770 -1.7326 -0.9282 -1.7280
   76SLPC  H18S 6886   4.494   1.605   4.961  0.9824  0.6653 -0.0004
   76SLPC  H18T 6887   4.371   1.558   4.841  0.6197 -2.3928  0.3828
   76SLPC   C33 6888   4.727   1.633   5.945  0.3936  0.1855 -0.6148
   76SLPC   H3X 6889   4.625   1.608   5.982  0.7363 -0.0325  0.2211
   76SLPC   H3Y 6890   4.788   1.539   5.941 -0.5523 -0.4100 -1.6773
   76SLPC   C34 6891   4.718   1.699   5.812  0.7768 -0.3653 -0.7074
   76SLPC   H4X 6892   4.805   1.767   5.795  1.5783 -1.1861  0.0038
   76SLPC   H4Y 6893   4.621   1.752   5.805  1.1566  0.5595  0.7181
   76SLPC   C35 6894   4.733   1.598   5.693  0.2289 -0.2130 -0.5948
   76SLPC   H5X 6895   4.650   1.524   5.701  0.7495 -0.9046 -1.3498
   76SLPC   H5Y 6896   4.836   1.557   5.683 -0.3533 -1.5580 -1.4640
   76SLPC   C36 6897   4.705   1.664   5.561 -0.4530  0.4636 -0.2262
   76SLPC   H6X 6898   4.784   1.733   5.526 -0.1743 -0.5256 -1.6115
   76SLPC   H6Y 6899   4.621   1.738   5.563 -0.2056  0.7363  1.2471
   76SLPC   C37 6900   4.671   1.573   5.444 -0.0763 -0.0025 -0.1766
   76SLPC   H7X 6901   4.579   1.518   5.473 -0.2491  0.4599  0.1483
   76SLPC   H7Y 6902   4.761   1.508   5.454  0.4409  1.0513  3.2095
   76SLPC   C38 6903   4.666   1.641   5.308 -0.0606  0.3578 -0.3583
   76SLPC   H8X 6904   4.588   1.719   5.305 -1.3671 -0.9317 -1.1645
   76SLPC   H8Y 6905   4.634   1.565   5.234  1.8957 -1.7898  0.8210
   76SLPC   C39 6906   4.801   1.717   5.258 -0.0632  0.8372  1.1317
   76SLPC   H9X 6907   4.881   1.644   5.283  2.2630  2.5529 -0.7948
   76SLPC   H9Y 6908   4.819   1.815   5.307  0.5651  1.5895 -0.5509
   76SLPC  C310 6909   4.806   1.740   5.105  0.7400 -0.1077  0.2333
   76SLPC  H10X 6910   4.766   1.650   5.054  1.4900 -0.3838  0.1066
   76SLPC  H10Y 6911   4.913   1.737   5.075  0.4632  1.6818 -1.1151
   76SLPC  C311 6912   4.751   1.878   5.073  0.4411 -0.1279  0.3381
   76SLPC  H11X 6913   4.807   1.945   5.141 -0.5210  0.3844  0.6438
   76SLPC  H11Y 6914   4.646   1.870   5.109 -0.8334  1.3514 -2.7219
   76SLPC  C312 6915   4.745   1.923   4.933 -0.4948  0.4045  0.3341
   76SLPC  H12X 6916   4.673   1.854   4.883  1.7965 -3.4068  1.8138
   76SLPC  H12Y 6917   4.839   1.898   4.879 -0.3696  1.6282 -0.0447
   76SLPC  C313 6918   4.728   2.072   4.904  0.2017 -0.8121 -0.7687
   76SLPC  H13X 6919   4.783   2.108   4.815 -0.9071  2.4939 -0.2494
   76SLPC  H13Y 6920   4.787   2.135   4.974  1.1393 -1.4475 -0.9617
   76SLPC  C314 6921   4.574   2.110   4.907 -0.5058  0.1990  0.1627
   76SLPC  H14X 6922   4.526   2.089   5.005 -2.6073 -1.0502 -1.0472
   76SLPC  H14Y 6923   4.536   2.048   4.823  0.8898  1.2964 -1.3714
   76SLPC  C315 6924   4.558   2.263   4.884  0.1315  0.1044  0.0924
   76SLPC  H15X 6925   4.596   2.283   4.781 -0.3600 -1.1290 -0.3501
   76SLPC  H15Y 6926   4.607   2.322   4.964  0.2819 -0.1002  0.1528
   76SLPC  C316 6927   4.406   2.299   4.873 -0.7239  0.1680 -0.7636
   76SLPC  H16X 6928   4.351   2.235   4.801 -0.4489 -0.7355 -0.1867
   76SLPC  H16Y 6929   4.405   2.401   4.829  0.7776 -0.1725 -1.6574
   76SLPC  C317 6930   4.341   2.305   5.004  0.1455  0.0995 -0.0147
   76SLPC  H17X 6931   4.394   2.388   5.054  0.1348  0.5643 -0.7655
   76SLPC  H17Y 6932   4.373   2.217   5.065  2.7592  1.4623  0.7204
   76SLPC  C318 6933   4.188   2.315   5.013  0.0098  0.0540  0.3203
   76SLPC  H18X 6934   4.150   2.414   4.982 -2.2210 -2.1604 -5.5165
   76SLPC  H18Y 6935   4.155   2.287   5.116  2.7898 -2.5723  0.6633
   76SLPC  H18Z 6936   4.133   2.257   4.936  0.3064 -0.3679  0.4234
   77SLPC     N 6937   3.878   0.769   7.468  0.3267 -0.2209 -0.2012
   77SLPC   C13 6938   3.934   0.770   7.604  0.5329 -0.0608  0.6307
   77SLPC  H13A 6939   3.994   0.856   7.628 -0.6939  0.6145  1.3829
   77SLPC  H13B 6940   3.855   0.774   7.678  2.6118  1.2667  2.9258
   77SLPC  H13C 6941   4.000   0.688   7.629  1.8249  1.2685  1.8037
   77SLPC   C14 6942   3.792   0.889   7.454  0.3689  0.4021 -0.0612
   77SLPC  H14A 6943   3.846   0.982   7.458 -0.0752  0.6349  0.7268
   77SLPC  H14B 6944   3.739   0.872   7.361  2.1213  0.9421 -1.1998
   77SLPC  H14C 6945   3.722   0.887   7.537  1.2496 -2.5239  0.7097
   77SLPC   C15 6946   3.799   0.647   7.455  0.3506 -0.7171  0.4332
   77SLPC  H15A 6947   3.728   0.630   7.535 -0.5037  1.5780  0.2281
   77SLPC  H15B 6948   3.734   0.649   7.368 -0.7855  1.8979  1.2483
   77SLPC  H15C 6949   3.853   0.554   7.440  3.2865  1.1932 -2.0577
   77SLPC   C12 6950   3.994   0.769   7.370  0.2116 -0.7011  0.2913
   77SLPC  H12A 6951   4.050   0.678   7.388  1.0793 -0.8804 -2.6318
   77SLPC  H12B 6952   4.068   0.847   7.380  0.5172 -0.8487 -0.6386
   77SLPC   C11 6953   3.966   0.767   7.217  0.0693 -0.4862  0.1975
   77SLPC  H11A 6954   4.057   0.781   7.155  0.3715 -4.0494 -0.3493
   77SLPC  H11B 6955   3.908   0.857   7.188 -1.3513 -1.0063  1.3120
   77SLPC     P 6956   3.969   0.526   7.136 -0.3210 -0.2316  0.1243
   77SLPC   O13 6957   4.115   0.527   7.163  0.1452  0.1019  0.0394
   77SLPC   O14 6958   3.893   0.407   7.183  0.2338  0.0611 -0.6517
   77SLPC   O12 6959   3.894   0.658   7.175  0.2305 -0.1236  0.2189
   77SLPC   O11 6960   3.945   0.518   6.981  0.1526  0.2760  0.2755
   77SLPC    C1 6961   3.876   0.619   6.910  0.1297 -0.0801  0.4699
   77SLPC    HA 6962   3.767   0.594   6.911  0.0899 -0.3807  4.4629
   77SLPC    HB 6963   3.884   0.723   6.949 -0.7931  0.2311 -0.1087
   77SLPC    C2 6964   3.932   0.627   6.770  0.5555 -0.3105  1.4184
   77SLPC    HS 6965   4.016   0.698   6.784  0.1467  0.1528  1.5221
   77SLPC   O21 6966   3.826   0.674   6.687  0.1300  0.6268  0.3413
   77SLPC   C21 6967   3.851   0.737   6.571  0.5570 -0.0327 -0.1799
   77SLPC   O22 6968   3.957   0.792   6.542 -0.2601 -0.4178  0.3478
   77SLPC   C22 6969   3.728   0.718   6.480  0.4338 -0.8904  1.0417
   77SLPC   H2R 6970   3.669   0.630   6.513 -0.7512 -0.0922  1.0922
   77SLPC   H2S 6971   3.669   0.808   6.506  0.4688 -0.3297 -0.6947
   77SLPC    C3 6972   3.984   0.486   6.721  0.6117  0.0278 -0.0722
   77SLPC    HX 6973   3.891   0.429   6.742  0.7553 -0.4050 -0.5883
   77SLPC    HY 6974   4.069   0.455   6.785  1.5717 -0.1056 -1.3773
   77SLPC   O31 6975   4.010   0.481   6.581 -0.1336 -0.6041 -0.0415
   77SLPC   C31 6976   4.135   0.491   6.549  0.5802 -0.0910  0.0166
   77SLPC   O32 6977   4.221   0.514   6.628 -1.0991  0.2397  0.3096
   77SLPC   C32 6978   4.138   0.482   6.394 -0.1756  0.0660 -0.7277
   77SLPC   H2X 6979   4.129   0.588   6.362 -2.1589 -0.3438 -1.6770
   77SLPC   H2Y 6980   4.045   0.430   6.364 -0.7303  0.3494  0.4660
   77SLPC   C23 6981   3.769   0.723   6.332  0.3667 -0.1016 -0.1018
   77SLPC   H3R 6982   3.812   0.623   6.308 -0.5822 -0.5052 -0.1836
   77SLPC   H3S 6983   3.844   0.801   6.309  1.1635 -0.9305 -0.3608
   77SLPC   C24 6984   3.653   0.761   6.238  0.2131  0.1149  0.5708
   77SLPC   H4R 6985   3.594   0.846   6.280  0.9774 -0.4251  2.8695
   77SLPC   H4S 6986   3.583   0.675   6.229 -0.8750  1.0012  0.2473
   77SLPC   C25 6987   3.716   0.784   6.093 -0.7674  0.2000  0.3440
   77SLPC   H5R 6988   3.801   0.854   6.105 -1.0930  0.8300 -0.9266
   77SLPC   H5S 6989   3.636   0.843   6.044 -2.1179 -1.1569  0.8484
   77SLPC   C26 6990   3.749   0.653   6.017 -0.8951 -0.1293 -0.3984
   77SLPC   H6R 6991   3.812   0.588   6.082 -0.9562  1.5061  1.3615
   77SLPC   H6S 6992   3.813   0.671   5.928 -1.8770  0.7389 -0.9442
   77SLPC   C27 6993   3.637   0.577   5.963  0.0421 -0.5362  0.0309
   77SLPC   H7R 6994   3.571   0.647   5.908  2.5388  1.7632 -0.2483
   77SLPC   H7S 6995   3.573   0.547   6.048 -0.5707 -0.0714 -0.2624
   77SLPC   C28 6996   3.683   0.443   5.891 -0.2835 -0.9610 -0.7377
   77SLPC   H8R 6997   3.744   0.388   5.965 -1.5404  1.3070  2.1841
   77SLPC   H8S 6998   3.750   0.474   5.808 -1.2203 -1.2739 -1.6332
   77SLPC   C29 6999   3.565   0.368   5.837  0.7007  0.4593  0.0301
   77SLPC   H9R 7000   3.517   0.309   5.916 -0.2784 -0.0753 -0.9463
   77SLPC  C210 7001   3.525   0.344   5.706  0.3378 -0.7427 -0.1405
   77SLPC  H10R 7002   3.436   0.279   5.694  0.6664 -1.3406  0.5633
   77SLPC  C211 7003   3.575   0.423   5.593 -0.8138  0.1084  0.1577
   77SLPC  H11R 7004   3.584   0.528   5.628  0.1946  0.4178 -0.9543
   77SLPC  H11S 7005   3.494   0.431   5.517  1.1185  0.5532 -1.9731
   77SLPC  C212 7006   3.717   0.385   5.544  0.6119  0.0107  0.2197
   77SLPC  H12R 7007   3.792   0.348   5.615  2.3449  1.8126 -0.5570
   77SLPC  C213 7008   3.755   0.372   5.417  0.1820 -0.0075 -0.4148
   77SLPC  H13R 7009   3.862   0.362   5.392 -0.1360 -1.1273 -1.3997
   77SLPC  C214 7010   3.668   0.405   5.295  0.9908  0.5134 -0.1499
   77SLPC  H14R 7011   3.571   0.454   5.317  0.2961  0.9474 -3.5109
   77SLPC  H14S 7012   3.659   0.313   5.233  4.6005  0.0815 -0.2326
   77SLPC  C215 7013   3.731   0.509   5.196  0.5452  0.8364  0.1182
   77SLPC  H15R 7014   3.825   0.463   5.158  0.8947  1.0967  0.6495
   77SLPC  H15S 7015   3.754   0.605   5.247  0.2196  1.5779 -1.0998
   77SLPC  C216 7016   3.639   0.542   5.082  0.5121  0.8204 -0.0413
   77SLPC  H16R 7017   3.569   0.620   5.118  0.1464  0.0250  1.0324
   77SLPC  H16S 7018   3.572   0.455   5.063 -1.1843  2.0497  0.1781
   77SLPC  C217 7019   3.698   0.587   4.948 -0.3462 -0.2967  0.4793
   77SLPC  H17R 7020   3.751   0.502   4.902 -1.0757 -0.7574  0.4674
   77SLPC  H17S 7021   3.769   0.672   4.959  0.0339 -0.4019 -0.9446
   77SLPC  C218 7022   3.579   0.617   4.858 -0.6734 -0.0951  0.0131
   77SLPC  H18R 7023   3.604   0.609   4.750 -4.0510  1.0954 -1.0037
   77SLPC  H18S 7024   3.537   0.718   4.882  1.5069  0.3553  2.3272
   77SLPC  H18T 7025   3.504   0.537   4.874 -0.7752 -0.0417 -0.1872
   77SLPC   C33 7026   4.268   0.421   6.331 -0.3978  0.1430 -0.5207
   77SLPC   H3X 7027   4.358   0.448   6.390 -0.2840  2.0518 -1.5120
   77SLPC   H3Y 7028   4.286   0.455   6.227 -0.6601  2.1261  0.0388
   77SLPC   C34 7029   4.250   0.263   6.336  0.7516 -0.9837  0.5645
   77SLPC   H4X 7030   4.155   0.232   6.287  1.6034 -1.8095 -0.6350
   77SLPC   H4Y 7031   4.232   0.245   6.444 -1.2241 -0.6346  0.3294
   77SLPC   C35 7032   4.375   0.191   6.298  0.0884 -0.4258 -0.1050
   77SLPC   H5X 7033   4.365   0.094   6.352  0.1787  0.7700  2.1889
   77SLPC   H5Y 7034   4.461   0.232   6.355 -1.1209 -0.7234  2.0374
   77SLPC   C36 7035   4.406   0.190   6.147  0.7611 -0.3333  0.1477
   77SLPC   H6X 7036   4.393   0.291   6.104 -1.2094 -0.3624  0.6099
   77SLPC   H6Y 7037   4.323   0.131   6.104  0.6982 -2.5247  2.9741
   77SLPC   C37 7038   4.546   0.139   6.105  0.6700  0.1146  0.0020
   77SLPC   H7X 7039   4.548   0.028   6.113 -3.0262  0.0261  1.4863
   77SLPC   H7Y 7040   4.616   0.180   6.181 -0.3166 -0.9482  1.5530
   77SLPC   C38 7041   4.587   0.194   5.967  0.4303 -0.5651 -0.2992
   77SLPC   H8X 7042   4.697   0.211   5.969  0.3050  0.3012 -0.5009
   77SLPC   H8Y 7043   4.540   0.292   5.946  2.3026  0.1819 -1.2648
   77SLPC   C39 7044   4.555   0.106   5.839  0.4076 -0.4334 -0.3193
   77SLPC   H9X 7045   4.446   0.085   5.837  0.0039  1.5484 -1.7349
   77SLPC   H9Y 7046   4.592   0.001   5.843  1.8595  0.0785  0.1535
   77SLPC  C310 7047   4.592   0.180   5.712 -0.3564 -0.3110  0.7266
   77SLPC  H10X 7048   4.702   0.184   5.703 -0.4422 -0.5248 -0.6619
   77SLPC  H10Y 7049   4.551   0.283   5.713  0.0776 -0.1268 -0.1051
   77SLPC  C311 7050   4.530   0.104   5.599 -0.2903  0.2322  0.4733
   77SLPC  H11X 7051   4.429   0.067   5.627 -1.0191  0.8500 -1.2524
   77SLPC  H11Y 7052   4.598   0.018   5.582  0.4884  0.3884  2.4987
   77SLPC  C312 7053   4.512   0.178   5.466  0.2663 -0.5694 -0.3167
   77SLPC  H12X 7054   4.613   0.217   5.440 -0.4071  3.6601  2.4266
   77SLPC  H12Y 7055   4.437   0.258   5.487  0.4425 -1.1756  3.3221
   77SLPC  C313 7056   4.476   0.087   5.352 -0.3335 -0.1917 -0.6130
   77SLPC  H13X 7057   4.384   0.040   5.392  0.8000  1.0710  4.0809
   77SLPC  H13Y 7058   4.559   0.013   5.349 -1.2343 -1.3685  1.4483
   77SLPC  C314 7059   4.462   0.161   5.221  0.3393  0.3701 -0.5442
   77SLPC  H14X 7060   4.555   0.222   5.219 -1.6954  4.0457  2.3673
   77SLPC  H14Y 7061   4.373   0.228   5.220 -0.8345 -1.1416 -0.8649
   77SLPC  C315 7062   4.458   0.055   5.107  0.1539 -0.3148 -0.7821
   77SLPC  H15X 7063   4.353   0.020   5.118  0.4360 -0.3849  3.0323
   77SLPC  H15Y 7064   4.522  -0.034   5.130 -2.1462 -1.4524  1.8216
   77SLPC  C316 7065   4.471   0.113   4.966  0.1167  0.4413 -0.1521
   77SLPC  H16X 7066   4.574   0.156   4.964  0.2503  0.2551  1.2648
   77SLPC  H16Y 7067   4.390   0.188   4.949 -1.7807 -1.9757 -2.6368
   77SLPC  C317 7068   4.464   0.012   4.850 -0.1259 -0.3747  0.0187
   77SLPC  H17X 7069   4.372  -0.050   4.847 -1.5131  1.5978 -1.7099
   77SLPC  H17Y 7070   4.555  -0.052   4.855  0.8208  1.0189  1.2229
   77SLPC  C318 7071   4.486   0.079   4.716  0.0274  0.2844  0.0880
   77SLPC  H18X 7072   4.588   0.123   4.708  0.4091 -0.5461  0.3125
   77SLPC  H18Y 7073   4.414   0.159   4.686 -0.0037  1.0382  1.9841
   77SLPC  H18Z 7074   4.472   0.006   4.634 -0.1755  1.2859 -0.7809
   78SLPC     N 7075   6.680   5.218   7.010  0.1175  0.2022 -0.0744
   78SLPC   C13 7076   6.601   5.287   6.905  0.2870 -0.1226  0.0436
   78SLPC  H13A 7077   6.533   5.218   6.857 -0.0154 -0.1543  0.5177
   78SLPC  H13B 7078   6.536   5.363   6.944  0.2679 -0.4130  0.5941
   78SLPC  H13C 7079   6.671   5.318   6.829 -0.3600  0.8021 -0.1807
   78SLPC   C14 7080   6.580   5.162   7.107  0.3212  0.5188 -0.6936
   78SLPC  H14A 7081   6.533   5.078   7.056  1.6451 -0.9774  0.4504
   78SLPC  H14B 7082   6.637   5.124   7.190  0.7468  1.9277 -0.3177
   78SLPC  H14C 7083   6.505   5.229   7.146  0.7826  0.3804  0.4546
   78SLPC   C15 7084   6.755   5.328   7.080 -0.2640 -0.2910 -0.4851
   78SLPC  H15A 7085   6.822   5.286   7.154 -2.2896 -4.2107 -0.5872
   78SLPC  H15B 7086   6.810   5.383   7.005 -1.9236 -1.0552 -2.3490
   78SLPC  H15C 7087   6.689   5.401   7.122  0.2432 -0.2639  0.2790
   78SLPC   C12 7088   6.759   5.099   6.966  0.2583  0.2798 -0.4879
   78SLPC  H12A 7089   6.799   5.038   7.045  1.1293  0.5900 -0.6759
   78SLPC  H12B 7090   6.852   5.125   6.916  0.7124 -1.8907 -0.8818
   78SLPC   C11 7091   6.681   5.005   6.873  0.2463 -0.0712 -0.0127
   78SLPC  H11A 7092   6.745   4.951   6.800 -1.4148 -0.5847 -1.1502
   78SLPC  H11B 7093   6.607   5.059   6.810  0.8587  1.1428  0.2780
   78SLPC     P 7094   6.681   4.781   7.019  0.4734  0.4521  0.3521
   78SLPC   O13 7095   6.787   4.826   7.114 -0.2597 -0.3387 -0.2107
   78SLPC   O14 7096   6.585   4.689   7.084  0.3827  0.2624 -0.0151
   78SLPC   O12 7097   6.607   4.914   6.960  0.2739  0.7558  0.8547
   78SLPC   O11 7098   6.747   4.705   6.888  0.3946  0.6755  0.1982
   78SLPC    C1 7099   6.678   4.628   6.787 -0.7660 -0.1062  0.0745
   78SLPC    HA 7100   6.645   4.526   6.816  0.8814 -0.5286  0.5265
   78SLPC    HB 7101   6.587   4.679   6.748 -0.7503 -0.2379 -0.1415
   78SLPC    C2 7102   6.771   4.625   6.661 -0.6497 -0.1343 -0.3486
   78SLPC    HS 7103   6.702   4.578   6.588  0.7934 -2.3623 -0.3587
   78SLPC   O21 7104   6.880   4.530   6.685 -0.0544 -0.0188 -0.3803
   78SLPC   C21 7105   6.856   4.402   6.669  0.7646 -0.5425  0.7610
   78SLPC   O22 7106   6.745   4.355   6.663 -0.0235 -0.0800 -0.1268
   78SLPC   C22 7107   6.997   4.335   6.655  0.5023 -0.4884  0.1138
   78SLPC   H2R 7108   7.072   4.409   6.690 -0.4288 -0.0135  1.1332
   78SLPC   H2S 7109   6.994   4.253   6.729 -1.6671 -0.9046 -0.3700
   78SLPC    C3 7110   6.836   4.753   6.613  0.0436  0.0261  0.2690
   78SLPC    HX 7111   6.924   4.722   6.553 -0.4054 -0.6392 -0.0470
   78SLPC    HY 7112   6.879   4.806   6.701  0.2175 -3.7239  2.6330
   78SLPC   O31 7113   6.740   4.839   6.542  0.2340  0.1839 -0.2517
   78SLPC   C31 7114   6.795   4.952   6.486  0.3986  0.2319 -0.5397
   78SLPC   O32 7115   6.912   4.975   6.485 -0.3612  0.1777  0.4866
   78SLPC   C32 7116   6.689   5.019   6.404  0.5956 -0.0953 -0.8497
   78SLPC   H2X 7117   6.621   5.074   6.472  0.6081 -1.2947  0.1746
   78SLPC   H2Y 7118   6.614   4.946   6.369 -0.7722  0.3351  1.0287
   78SLPC   C23 7119   7.027   4.290   6.510 -0.8098  0.2049 -0.4283
   78SLPC   H3R 7120   6.940   4.229   6.477 -1.4960  2.6751 -3.7040
   78SLPC   H3S 7121   7.120   4.229   6.514 -0.6904  0.4486  1.2108
   78SLPC   C24 7122   7.046   4.412   6.413 -0.0133  0.7666 -0.7538
   78SLPC   H4R 7123   6.945   4.458   6.419 -1.1781 -1.7283  0.3657
   78SLPC   H4S 7124   7.052   4.362   6.314  2.0874 -2.3416  0.7523
   78SLPC   C25 7125   7.164   4.506   6.444 -0.2946  0.4697  0.2912
   78SLPC   H5R 7126   7.266   4.464   6.430 -0.2979  1.3384 -3.0682
   78SLPC   H5S 7127   7.162   4.547   6.547 -0.7613  2.9680 -0.6481
   78SLPC   C26 7128   7.139   4.624   6.348 -0.0760 -0.5250  0.0018
   78SLPC   H6R 7129   7.035   4.653   6.374  0.3639 -1.9941  4.0275
   78SLPC   H6S 7130   7.167   4.592   6.245  0.3212  0.2995 -0.1519
   78SLPC   C27 7131   7.235   4.735   6.389 -0.0866 -0.0366  0.1833
   78SLPC   H7R 7132   7.333   4.698   6.426  1.0716  2.2423 -0.4085
   78SLPC   H7S 7133   7.187   4.790   6.473 -0.8933  0.6644 -0.7072
   78SLPC   C28 7134   7.248   4.847   6.284 -0.9180 -0.1567  0.3242
   78SLPC   H8R 7135   7.311   4.800   6.206 -0.8353  1.0314 -0.3581
   78SLPC   H8S 7136   7.313   4.930   6.319 -1.9369  1.0792 -0.5967
   78SLPC   C29 7137   7.115   4.898   6.223 -0.2525 -0.3054 -0.0569
   78SLPC   H9R 7138   7.056   4.963   6.290 -1.3358 -1.1822 -0.1303
   78SLPC  C210 7139   7.062   4.870   6.101  0.1243  0.7874 -0.3733
   78SLPC  H10R 7140   6.978   4.939   6.081 -0.2533  1.1044  2.0206
   78SLPC  C211 7141   7.116   4.782   5.988 -0.2391 -0.1934 -0.1582
   78SLPC  H11R 7142   7.208   4.730   6.025 -0.9845 -2.7542 -1.6463
   78SLPC  H11S 7143   7.148   4.839   5.899  0.5668 -1.5944 -0.8017
   78SLPC  C212 7144   7.041   4.658   5.952  0.6862 -0.2265  0.4353
   78SLPC  H12R 7145   7.011   4.591   6.034 -0.6092 -0.7750 -0.4458
   78SLPC  C213 7146   7.011   4.624   5.831 -0.1938 -0.9597  0.0293
   78SLPC  H13R 7147   6.944   4.538   5.821  1.3801 -2.4275  1.5336
   78SLPC  C214 7148   7.039   4.704   5.707  0.2912 -0.5067 -0.2414
   78SLPC  H14R 7149   7.149   4.717   5.703  0.3402 -0.6787  0.4826
   78SLPC  H14S 7150   6.980   4.798   5.717 -0.4978 -1.1648  1.7028
   78SLPC  C215 7151   6.988   4.638   5.578 -0.0069 -0.1757 -0.3511
   78SLPC  H15R 7152   6.995   4.710   5.494  3.7915 -1.9083 -1.7433
   78SLPC  H15S 7153   6.886   4.598   5.599  0.4864 -1.6753 -0.6745
   78SLPC  C216 7154   7.075   4.520   5.532 -0.1361  0.4571 -0.0079
   78SLPC  H16R 7155   7.070   4.454   5.622  1.3839  0.5955  0.2171
   78SLPC  H16S 7156   7.179   4.560   5.527  0.2491 -0.3033  1.3008
   78SLPC  C217 7157   7.020   4.464   5.396  0.3516  0.1250  0.1516
   78SLPC  H17R 7158   7.091   4.403   5.335  1.5846  1.6524 -0.0108
   78SLPC  H17S 7159   7.000   4.552   5.331 -1.2657  1.0761  1.8465
   78SLPC  C218 7160   6.886   4.389   5.407 -0.1942  0.1675 -0.4873
   78SLPC  H18R 7161   6.808   4.464   5.434 -0.1506 -0.2951  0.9787
   78SLPC  H18S 7162   6.897   4.314   5.488 -2.0654  1.0132  0.6114
   78SLPC  H18T 7163   6.861   4.334   5.314 -0.9481 -0.0006 -0.1901
   78SLPC   C33 7164   6.735   5.107   6.286  0.1578 -0.1244 -0.8783
   78SLPC   H3X 7165   6.750   5.047   6.194  1.0471  1.4645 -1.8012
   78SLPC   H3Y 7166   6.825   5.158   6.327 -0.6178  0.5447  0.0454
   78SLPC   C34 7167   6.646   5.226   6.247  0.2548  0.3411  0.0545
   78SLPC   H4X 7168   6.703   5.287   6.174 -3.4530  2.8028 -1.0287
   78SLPC   H4Y 7169   6.639   5.291   6.337 -2.2963 -1.1930  1.0775
   78SLPC   C35 7170   6.501   5.188   6.199 -0.0565 -0.1992  0.6286
   78SLPC   H5X 7171   6.454   5.286   6.178 -1.2341 -0.9428 -0.3882
   78SLPC   H5Y 7172   6.459   5.118   6.274  0.2847 -1.2531 -0.1200
   78SLPC   C36 7173   6.489   5.113   6.064  0.1670 -0.6382 -0.6688
   78SLPC   H6X 7174   6.381   5.090   6.066 -0.1390  0.7553  0.5128
   78SLPC   H6Y 7175   6.545   5.019   6.081  1.0725 -0.0261 -0.1568
   78SLPC   C37 7176   6.549   5.177   5.941 -0.4140  0.2504  0.1405
   78SLPC   H7X 7177   6.659   5.187   5.954 -0.5783  0.1129  1.8490
   78SLPC   H7Y 7178   6.515   5.282   5.945 -0.2431  0.2879  0.7038
   78SLPC   C38 7179   6.503   5.114   5.807  0.3179 -0.3362  0.5569
   78SLPC   H8X 7180   6.392   5.121   5.814  0.2055 -2.4143  1.5401
   78SLPC   H8Y 7181   6.527   5.006   5.819 -0.3452 -0.6581 -0.7367
   78SLPC   C39 7182   6.562   5.190   5.679  0.3710 -0.0610 -0.2504
   78SLPC   H9X 7183   6.672   5.178   5.687  0.2038 -1.3962  0.3006
   78SLPC   H9Y 7184   6.528   5.296   5.684 -0.6983 -0.4370  1.6510
   78SLPC  C310 7185   6.503   5.142   5.550 -0.3791 -0.3568 -0.3595
   78SLPC  H10X 7186   6.393   5.142   5.559 -0.3734  1.4547 -0.0768
   78SLPC  H10Y 7187   6.539   5.037   5.541 -1.4164 -0.5818 -2.6191
   78SLPC  C311 7188   6.558   5.207   5.428 -0.2637  0.3922 -0.2477
   78SLPC  H11X 7189   6.667   5.185   5.431  0.1866  2.3633 -0.9082
   78SLPC  H11Y 7190   6.543   5.316   5.440  0.2425  0.4064  0.2855
   78SLPC  C312 7191   6.493   5.162   5.298 -0.1364  0.7996  0.1150
   78SLPC  H12X 7192   6.389   5.196   5.278 -1.0745 -0.0807  2.8908
   78SLPC  H12Y 7193   6.476   5.052   5.293 -0.6726  0.8683  0.3021
   78SLPC  C313 7194   6.579   5.200   5.181 -0.3272  0.1127  0.4955
   78SLPC  H13X 7195   6.676   5.147   5.193  0.1374  0.9048  0.3119
   78SLPC  H13Y 7196   6.601   5.308   5.166  0.3960  0.0118  0.8001
   78SLPC  C314 7197   6.513   5.147   5.053 -0.1016 -0.4301 -0.0437
   78SLPC  H14X 7198   6.421   5.209   5.046  2.1160  3.3676  1.4624
   78SLPC  H14Y 7199   6.483   5.041   5.067 -4.8363  0.8700  1.5118
   78SLPC  C315 7200   6.585   5.169   4.917  0.1892  0.7379  0.6180
   78SLPC  H15X 7201   6.627   5.271   4.926 -0.4625  0.9293  1.7367
   78SLPC  H15Y 7202   6.505   5.163   4.839 -0.1253  1.1092  0.9036
   78SLPC  C316 7203   6.712   5.085   4.890 -0.7916  0.0066 -0.2045
   78SLPC  H16X 7204   6.680   4.979   4.905  0.5685 -0.2588  1.0803
   78SLPC  H16Y 7205   6.788   5.120   4.963 -0.2339  2.1957 -1.7443
   78SLPC  C317 7206   6.773   5.110   4.754 -0.8068 -0.0258  0.4867
   78SLPC  H17X 7207   6.853   5.187   4.764 -0.2098 -0.3713 -1.2872
   78SLPC  H17Y 7208   6.693   5.160   4.696 -1.5262  3.0926  3.7434
   78SLPC  C318 7209   6.831   4.984   4.702 -0.0007  0.3129  0.0799
   78SLPC  H18X 7210   6.908   4.937   4.766  0.1359 -2.6191 -2.0318
   78SLPC  H18Y 7211   6.888   5.012   4.610  3.5317 -2.7242  1.1151
   78SLPC  H18Z 7212   6.752   4.909   4.682  2.4624 -2.2712 -0.6514
   79SLPC     N 7213   5.109   0.681   7.163  0.2434 -0.1255  0.1033
   79SLPC   C13 7214   5.200   0.763   7.249 -0.2335  0.5827 -0.3441
   79SLPC  H13A 7215   5.272   0.695   7.291 -1.1938  0.0875  0.5586
   79SLPC  H13B 7216   5.243   0.839   7.185  2.8696  0.6402  1.5968
   79SLPC  H13C 7217   5.150   0.793   7.340  0.9808 -0.2817  0.6288
   79SLPC   C14 7218   4.984   0.761   7.136 -0.2812  0.6013  0.0492
   79SLPC  H14A 7219   5.006   0.859   7.096 -1.0333  1.1075  0.8489
   79SLPC  H14B 7220   4.932   0.706   7.059  2.2089 -1.3809 -0.3531
   79SLPC  H14C 7221   4.915   0.764   7.219 -0.0054 -0.7552  0.3472
   79SLPC   C15 7222   5.058   0.568   7.248  0.5151 -0.6546  0.2673
   79SLPC  H15A 7223   5.145   0.525   7.297  0.0510 -0.3257  1.4058
   79SLPC  H15B 7224   4.987   0.613   7.315  0.7397  1.6195 -0.9585
   79SLPC  H15C 7225   5.019   0.483   7.194 -1.1710 -0.2350  0.7874
   79SLPC   C12 7226   5.172   0.632   7.037  0.6338  0.1864  0.3332
   79SLPC  H12A 7227   5.276   0.604   7.049 -0.1010 -1.8508  3.0246
   79SLPC  H12B 7228   5.167   0.720   6.974  0.3923 -1.0705 -1.5045
   79SLPC   C11 7229   5.105   0.511   6.963  0.2676  0.4236 -0.0669
   79SLPC  H11A 7230   5.138   0.413   7.003  1.0967  0.3871 -0.8102
   79SLPC  H11B 7231   5.149   0.509   6.861  0.6194 -1.2471  0.0858
   79SLPC     P 7232   4.861   0.416   6.993 -0.1373 -0.1437  0.1260
   79SLPC   O13 7233   4.919   0.338   7.103  0.5619  0.2590 -0.2367
   79SLPC   O14 7234   4.731   0.479   7.020  0.3457 -0.4885  0.7720
   79SLPC   O12 7235   4.967   0.523   6.950  0.3555 -0.2078  1.1490
   79SLPC   O11 7236   4.840   0.323   6.868  0.2453  0.6183 -0.6239
   79SLPC    C1 7237   4.946   0.289   6.780  0.0029 -0.1838 -0.0440
   79SLPC    HA 7238   5.043   0.271   6.831  0.0606 -0.9531 -0.4068
   79SLPC    HB 7239   4.933   0.183   6.748 -1.0844 -0.6397  1.7309
   79SLPC    C2 7240   4.945   0.392   6.668  0.4820 -0.0736  0.3325
   79SLPC    HS 7241   4.961   0.484   6.727 -1.1728  0.4727 -0.0188
   79SLPC   O21 7242   4.815   0.395   6.602  0.3887  0.1864 -0.3845
   79SLPC   C21 7243   4.792   0.508   6.538  0.7964 -0.9787 -0.0314
   79SLPC   O22 7244   4.846   0.613   6.572  0.0166  0.5572  0.0075
   79SLPC   C22 7245   4.678   0.503   6.440  0.3340  0.4523  0.2509
   79SLPC   H2R 7246   4.664   0.395   6.418  2.2956 -0.1348  1.6954
   79SLPC   H2S 7247   4.589   0.539   6.497  0.2529  0.6199  0.0225
   79SLPC    C3 7248   5.073   0.389   6.573  0.2706 -0.4616  0.0007
   79SLPC    HX 7249   5.068   0.299   6.509 -0.2895  2.2518 -4.2019
   79SLPC    HY 7250   5.155   0.377   6.646  0.5744 -0.4025 -0.3276
   79SLPC   O31 7251   5.087   0.503   6.483 -0.2147 -0.1138  0.0668
   79SLPC   C31 7252   5.142   0.607   6.531 -0.3250 -0.1297 -0.2976
   79SLPC   O32 7253   5.181   0.617   6.646  0.2195 -0.9249 -0.0996
   79SLPC   C32 7254   5.138   0.714   6.425 -0.3404 -0.4792 -0.0169
   79SLPC   H2X 7255   5.087   0.803   6.469 -0.1897  0.0100 -0.8165
   79SLPC   H2Y 7256   5.077   0.673   6.342 -1.5445 -0.9806  1.0831
   79SLPC   C23 7257   4.715   0.584   6.314 -0.4344 -0.3233  0.5789
   79SLPC   H3R 7258   4.757   0.687   6.320 -1.0247  0.1966 -2.4563
   79SLPC   H3S 7259   4.627   0.585   6.246 -0.0405  0.1757  0.0532
   79SLPC   C24 7260   4.818   0.511   6.225 -0.3861 -0.1285  0.7590
   79SLPC   H4R 7261   4.792   0.404   6.210  3.3734 -1.0566 -0.1218
   79SLPC   H4S 7262   4.911   0.509   6.285  0.4968  1.4753 -0.4790
   79SLPC   C25 7263   4.855   0.584   6.094  0.3472 -0.5035 -0.0481
   79SLPC   H5R 7264   4.937   0.527   6.046 -0.4359 -0.9439 -0.8762
   79SLPC   H5S 7265   4.904   0.683   6.107  0.5376 -0.1490 -2.8899
   79SLPC   C26 7266   4.750   0.605   5.980  0.5949  0.3002 -0.6176
   79SLPC   H6R 7267   4.666   0.666   6.020 -1.8828 -3.3927  0.3957
   79SLPC   H6S 7268   4.713   0.506   5.945  0.1337  0.6088 -1.0095
   79SLPC   C27 7269   4.822   0.675   5.869 -0.1637 -0.4549 -0.6794
   79SLPC   H7R 7270   4.905   0.624   5.816  0.8842 -0.0052  0.4918
   79SLPC   H7S 7271   4.874   0.761   5.915  0.2542 -1.4580  0.7825
   79SLPC   C28 7272   4.721   0.740   5.767 -0.4190  0.2597 -0.5343
   79SLPC   H8R 7273   4.674   0.813   5.835 -1.7431 -1.1058  0.0709
   79SLPC   H8S 7274   4.647   0.662   5.739  0.1506  0.0223 -1.4356
   79SLPC   C29 7275   4.793   0.805   5.646 -0.2121  0.6768 -0.6379
   79SLPC   H9R 7276   4.801   0.914   5.657 -0.3008  0.5782  0.4850
   79SLPC  C210 7277   4.833   0.752   5.531  0.8332  0.1121  0.5647
   79SLPC  H10R 7278   4.898   0.817   5.471  0.2940  1.9864  1.9032
   79SLPC  C211 7279   4.822   0.605   5.496 -0.0764  0.3717  0.4067
   79SLPC  H11R 7280   4.840   0.544   5.588 -2.2137 -0.3729  0.3933
   79SLPC  H11S 7281   4.905   0.576   5.429  0.2413  0.8285  0.6015
   79SLPC  C212 7282   4.685   0.573   5.445  0.1198  0.3586 -0.4900
   79SLPC  H12R 7283   4.600   0.594   5.511 -0.1246 -3.4387  0.6412
   79SLPC  C213 7284   4.655   0.497   5.341 -0.2491 -0.7344  0.2232
   79SLPC  H13R 7285   4.546   0.500   5.326 -0.6270 -0.5689  2.5724
   79SLPC  C214 7286   4.750   0.435   5.244 -0.9179  0.4923  0.0523
   79SLPC  H14R 7287   4.742   0.324   5.248 -0.9687  0.3444 -2.5742
   79SLPC  H14S 7288   4.854   0.470   5.259 -0.7762 -0.0082  0.2806
   79SLPC  C215 7289   4.709   0.481   5.100 -0.0252 -0.3902 -0.4747
   79SLPC  H15R 7290   4.702   0.591   5.098  1.3045 -0.2861 -0.2011
   79SLPC  H15S 7291   4.611   0.435   5.073 -0.3721 -0.7033  1.1878
   79SLPC  C216 7292   4.817   0.445   4.999 -0.5094  0.2104 -0.3681
   79SLPC  H16R 7293   4.837   0.336   5.004  0.1841  0.2170 -2.1756
   79SLPC  H16S 7294   4.915   0.495   5.013  0.3476 -0.5952 -2.9740
   79SLPC  C217 7295   4.775   0.480   4.848 -0.2669 -0.1874 -1.5793
   79SLPC  H17R 7296   4.806   0.586   4.842 -2.1278  0.5851  0.8169
   79SLPC  H17S 7297   4.665   0.470   4.841 -0.2744 -0.5793 -0.9510
   79SLPC  C218 7298   4.844   0.403   4.733 -0.4043 -0.6413  0.2485
   79SLPC  H18R 7299   4.853   0.296   4.762  0.9692 -0.6092 -0.0028
   79SLPC  H18S 7300   4.942   0.453   4.717  0.0389 -1.1428  1.2990
   79SLPC  H18T 7301   4.772   0.389   4.650 -2.2146  0.2724  1.6003
   79SLPC   C33 7302   5.271   0.760   6.370  0.0808 -0.4488  0.2890
   79SLPC   H3X 7303   5.344   0.799   6.444  0.5824 -2.3232  0.8297
   79SLPC   H3Y 7304   5.253   0.839   6.294  2.7102 -1.6799 -1.8314
   79SLPC   C34 7305   5.342   0.662   6.278 -0.1630  0.7337 -0.0696
   79SLPC   H4X 7306   5.387   0.593   6.353 -3.0429 -1.0433  0.1740
   79SLPC   H4Y 7307   5.430   0.712   6.234  0.6361 -0.3216  0.2928
   79SLPC   C35 7308   5.264   0.598   6.162 -0.2876 -0.1645  0.6466
   79SLPC   H5X 7309   5.156   0.583   6.182 -0.1362 -1.7920  0.4153
   79SLPC   H5Y 7310   5.315   0.504   6.130  0.9727  0.8819 -0.5410
   79SLPC   C36 7311   5.246   0.692   6.039  0.2190 -0.6542  0.3288
   79SLPC   H6X 7312   5.336   0.756   6.030  0.9975 -1.6556  0.8047
   79SLPC   H6Y 7313   5.162   0.765   6.041  0.7600 -0.0396  1.0742
   79SLPC   C37 7314   5.231   0.618   5.902 -0.1300 -0.3360  0.6485
   79SLPC   H7X 7315   5.143   0.551   5.901 -1.2490  1.0810 -0.9034
   79SLPC   H7Y 7316   5.329   0.571   5.875  0.7216  0.3052  2.4456
   79SLPC   C38 7317   5.200   0.717   5.788 -0.4232 -0.2946 -1.5653
   79SLPC   H8X 7318   5.265   0.806   5.797  1.4196 -1.7083  0.0345
   79SLPC   H8Y 7319   5.093   0.747   5.801 -0.8425 -2.7121  2.3868
   79SLPC   C39 7320   5.222   0.655   5.653  0.0410  0.7144  0.1961
   79SLPC   H9X 7321   5.150   0.572   5.636 -0.5425  1.2214  0.1807
   79SLPC   H9Y 7322   5.325   0.613   5.659  0.8274  2.0994 -2.1976
   79SLPC  C310 7323   5.217   0.764   5.537  0.4296  0.2590 -0.4879
   79SLPC  H10X 7324   5.293   0.844   5.545 -0.0346  1.0002 -2.7314
   79SLPC  H10Y 7325   5.118   0.816   5.535 -1.1133 -2.5039 -0.8459
   79SLPC  C311 7326   5.244   0.695   5.404  0.1862 -0.8100  0.2168
   79SLPC  H11X 7327   5.354   0.695   5.392  0.2677  0.2265  0.8114
   79SLPC  H11Y 7328   5.196   0.764   5.330 -0.7976 -1.3255  0.3684
   79SLPC  C312 7329   5.189   0.564   5.372  0.3054 -0.3672  0.9330
   79SLPC  H12X 7330   5.081   0.586   5.356  0.5424 -0.3450 -0.7632
   79SLPC  H12Y 7331   5.200   0.496   5.460 -1.2267 -0.0129  1.4378
   79SLPC  C313 7332   5.235   0.503   5.243  0.1922  0.5384 -0.0268
   79SLPC  H13X 7333   5.180   0.407   5.226  0.6827  0.3578 -0.6266
   79SLPC  H13Y 7334   5.336   0.470   5.274 -0.2814 -0.5533  0.4300
   79SLPC  C314 7335   5.232   0.592   5.128 -0.0306 -0.1859  0.8179
   79SLPC  H14X 7336   5.319   0.661   5.129  0.4459 -0.5001 -3.1152
   79SLPC  H14Y 7337   5.147   0.663   5.129  1.0445  1.1442  1.9004
   79SLPC  C315 7338   5.248   0.516   5.002 -0.7463  0.1013  0.0065
   79SLPC  H15X 7339   5.167   0.440   5.001 -0.8929  0.2600 -0.3416
   79SLPC  H15Y 7340   5.346   0.466   5.017 -0.4804  0.5607 -0.1872
   79SLPC  C316 7341   5.263   0.618   4.877 -0.1441  0.4702  0.0007
   79SLPC  H16X 7342   5.358   0.675   4.889  1.9682 -2.6381 -0.7182
   79SLPC  H16Y 7343   5.174   0.684   4.885 -2.0007 -2.0048  0.8649
   79SLPC  C317 7344   5.248   0.549   4.738 -0.7516  0.1367 -0.8440
   79SLPC  H17X 7345   5.144   0.509   4.741 -0.7107  0.0783  0.6414
   79SLPC  H17Y 7346   5.318   0.463   4.728 -0.7923  0.0675 -0.5407
   79SLPC  C318 7347   5.254   0.662   4.636 -0.0186  0.0768  0.0632
   79SLPC  H18X 7348   5.171   0.734   4.656 -0.0422 -0.6552  3.1838
   79SLPC  H18Y 7349   5.238   0.618   4.535 -2.4976  1.5039 -0.2574
   79SLPC  H18Z 7350   5.354   0.710   4.647  0.0932  0.1792 -1.2230
   80SLPC     N 7351   3.149   3.615   7.075 -0.1794 -0.2579 -0.8769
   80SLPC   C13 7352   3.200   3.750   7.063  0.1300 -0.1590 -0.3831
   80SLPC  H13A 7353   3.306   3.755   7.043  0.1843  1.9564  0.2085
   80SLPC  H13B 7354   3.141   3.814   6.998 -0.4305  1.1944  1.3790
   80SLPC  H13C 7355   3.193   3.802   7.158 -0.9974  1.3221 -1.2271
   80SLPC   C14 7356   3.007   3.610   7.123 -0.0843 -0.2964 -0.6409
   80SLPC  H14A 7357   2.938   3.652   7.051 -0.2185 -0.2876 -0.5080
   80SLPC  H14B 7358   2.982   3.507   7.145  2.2970 -1.5094 -2.9863
   80SLPC  H14C 7359   2.991   3.657   7.219  0.6941 -0.5280 -0.3912
   80SLPC   C15 7360   3.235   3.541   7.179 -0.5352 -0.4116  0.2770
   80SLPC  H15A 7361   3.260   3.604   7.263 -1.8784 -0.1284  0.4812
   80SLPC  H15B 7362   3.191   3.445   7.200 -2.9218  0.6165  0.2884
   80SLPC  H15C 7363   3.328   3.519   7.127 -1.0421 -0.2813 -0.7162
   80SLPC   C12 7364   3.163   3.549   6.937  0.6818  1.0465 -0.4981
   80SLPC  H12A 7365   3.091   3.591   6.868 -0.4438 -2.0584 -1.3737
   80SLPC  H12B 7366   3.130   3.446   6.937 -0.6305  1.4473  0.4122
   80SLPC   C11 7367   3.296   3.528   6.860  0.5942  0.3091 -0.2625
   80SLPC  H11A 7368   3.338   3.630   6.861  0.2552  0.4858 -1.6404
   80SLPC  H11B 7369   3.279   3.493   6.756 -0.9114 -0.6149  0.2602
   80SLPC     P 7370   3.347   3.282   6.927 -0.4002 -0.6531 -0.0117
   80SLPC   O13 7371   3.433   3.215   7.028  0.3874 -0.5122  0.0823
   80SLPC   O14 7372   3.198   3.265   6.931  0.3754 -0.0380  0.9074
   80SLPC   O12 7373   3.378   3.444   6.940  0.2914 -0.0354  0.1016
   80SLPC   O11 7374   3.401   3.247   6.781 -0.2884 -0.3291  0.0555
   80SLPC    C1 7375   3.532   3.265   6.738 -0.0525 -0.1975 -0.5224
   80SLPC    HA 7376   3.555   3.373   6.733  0.9646 -0.3296  0.8476
   80SLPC    HB 7377   3.608   3.223   6.807 -0.2471  0.7413  0.2854
   80SLPC    C2 7378   3.540   3.185   6.601  0.3909 -0.3568 -0.5693
   80SLPC    HS 7379   3.632   3.210   6.543 -0.2099  1.4984 -0.7938
   80SLPC   O21 7380   3.428   3.205   6.506 -0.2231 -0.2166 -0.1078
   80SLPC   C21 7381   3.424   3.328   6.464  0.7406  0.1792 -0.1849
   80SLPC   O22 7382   3.529   3.395   6.465 -0.2028 -0.3212  0.9135
   80SLPC   C22 7383   3.281   3.378   6.437 -0.0284  0.3182  0.8071
   80SLPC   H2R 7384   3.216   3.293   6.405  0.5636 -0.3792  1.4155
   80SLPC   H2S 7385   3.246   3.414   6.535 -2.4534  0.0789  0.0820
   80SLPC    C3 7386   3.557   3.028   6.629 -0.0718 -1.0191  0.3506
   80SLPC    HX 7387   3.482   2.990   6.702  0.9136 -0.6981  1.5714
   80SLPC    HY 7388   3.653   3.028   6.685  0.7431  0.2662 -0.9506
   80SLPC   O31 7389   3.577   2.955   6.508  0.1728 -0.4597 -0.1768
   80SLPC   C31 7390   3.484   2.873   6.473  0.3519 -1.0362  1.0207
   80SLPC   O32 7391   3.388   2.848   6.543  0.1417 -0.4989 -0.6051
   80SLPC   C32 7392   3.506   2.806   6.340  0.3459 -0.1354 -0.6685
   80SLPC   H2X 7393   3.519   2.699   6.366  1.5070  0.4413  1.2758
   80SLPC   H2Y 7394   3.603   2.838   6.297  1.8405 -2.9500  0.3859
   80SLPC   C23 7395   3.295   3.492   6.337  0.2037 -0.7395 -0.3853
   80SLPC   H3R 7396   3.374   3.563   6.371 -0.7151  0.3029 -0.3834
   80SLPC   H3S 7397   3.200   3.548   6.337  0.4404 -0.3226 -1.2031
   80SLPC   C24 7398   3.336   3.463   6.194 -0.1966  0.1648  0.3932
   80SLPC   H4R 7399   3.263   3.401   6.139  0.6197  0.4642 -1.0628
   80SLPC   H4S 7400   3.428   3.400   6.197  0.4063  0.9362 -1.0726
   80SLPC   C25 7401   3.352   3.588   6.109 -0.5616 -0.8416 -0.8040
   80SLPC   H5R 7402   3.433   3.657   6.140 -1.5201 -0.8604  2.0234
   80SLPC   H5S 7403   3.259   3.647   6.123 -0.0773  0.2036 -1.7950
   80SLPC   C26 7404   3.374   3.552   5.957 -0.4808 -0.0308  0.2863
   80SLPC   H6R 7405   3.287   3.484   5.947 -0.5756 -0.2624  2.2122
   80SLPC   H6S 7406   3.472   3.503   5.937 -0.6952 -0.1719 -0.4442
   80SLPC   C27 7407   3.366   3.668   5.862  0.2480  0.6442 -0.1841
   80SLPC   H7R 7408   3.460   3.727   5.864  0.2289  0.6441  1.0645
   80SLPC   H7S 7409   3.291   3.744   5.894  2.0212  2.2110  0.4714
   80SLPC   C28 7410   3.328   3.642   5.710  0.1211 -0.3778  0.0985
   80SLPC   H8R 7411   3.327   3.742   5.662 -1.1475 -0.3154  0.2272
   80SLPC   H8S 7412   3.228   3.594   5.706 -0.0411  0.0242 -1.5863
   80SLPC   C29 7413   3.440   3.564   5.643  0.1520 -0.2060  0.8128
   80SLPC   H9R 7414   3.482   3.490   5.711 -1.0506 -1.8733 -0.1979
   80SLPC  C210 7415   3.470   3.565   5.508  0.5865 -1.0101  0.4061
   80SLPC  H10R 7416   3.533   3.484   5.469  0.8329 -0.9605  0.6926
   80SLPC  C211 7417   3.412   3.659   5.403 -0.1060 -0.2073 -0.3071
   80SLPC  H11R 7418   3.498   3.700   5.345  0.4210  1.1912  1.3892
   80SLPC  H11S 7419   3.354   3.735   5.460  2.8849  0.0917  2.5896
   80SLPC  C212 7420   3.320   3.584   5.311 -0.2645 -0.3704  0.4487
   80SLPC  H12R 7421   3.225   3.551   5.356 -2.5188  1.5537 -2.4977
   80SLPC  C213 7422   3.342   3.543   5.183  0.4465 -0.0936 -0.4042
   80SLPC  H13R 7423   3.271   3.471   5.141 -0.9233  0.2865  1.1424
   80SLPC  C214 7424   3.467   3.563   5.101  0.4409 -0.2757  0.5801
   80SLPC  H14R 7425   3.516   3.661   5.122 -0.2415  0.9250 -2.8528
   80SLPC  H14S 7426   3.439   3.572   4.994  0.8018 -1.3152  0.3882
   80SLPC  C215 7427   3.564   3.444   5.104  0.1881  0.9811 -1.1984
   80SLPC  H15R 7428   3.512   3.366   5.044 -1.2006 -1.6574  2.9821
   80SLPC  H15S 7429   3.580   3.411   5.209 -1.2199  3.1082 -0.2636
   80SLPC  C216 7430   3.693   3.482   5.038 -0.5594  0.2808  0.2694
   80SLPC  H16R 7431   3.747   3.560   5.097 -0.8949  0.6034  0.1542
   80SLPC  H16S 7432   3.675   3.514   4.933  3.0387 -1.3865 -1.0422
   80SLPC  C217 7433   3.795   3.359   5.039 -0.2487 -0.7189  0.0170
   80SLPC  H17R 7434   3.814   3.327   5.144 -0.0089  0.4305  0.3375
   80SLPC  H17S 7435   3.892   3.394   4.999 -0.5284  1.1056  0.8432
   80SLPC  C218 7436   3.747   3.238   4.963  0.1960 -0.5072 -0.3723
   80SLPC  H18R 7437   3.718   3.279   4.864  1.3117 -0.1373 -0.5623
   80SLPC  H18S 7438   3.660   3.183   5.004 -1.6169  2.2458 -0.2037
   80SLPC  H18T 7439   3.831   3.168   4.947  1.4873  1.0009 -0.4667
   80SLPC   C33 7440   3.377   2.826   6.251  0.2905 -0.1852 -1.0312
   80SLPC   H3X 7441   3.292   2.769   6.295  1.8701 -2.6093 -0.8920
   80SLPC   H3Y 7442   3.392   2.776   6.152 -0.3491 -2.6333  0.0203
   80SLPC   C34 7443   3.334   2.971   6.233 -0.4615 -0.0440  0.5497
   80SLPC   H4X 7444   3.278   3.004   6.323  1.2543 -0.6481  1.8901
   80SLPC   H4Y 7445   3.266   2.980   6.145  0.4632  2.1981 -0.0278
   80SLPC   C35 7446   3.446   3.071   6.208 -0.6627 -0.7602  0.2524
   80SLPC   H5X 7447   3.524   3.064   6.287  0.2951 -4.0988 -0.8208
   80SLPC   H5Y 7448   3.402   3.172   6.194 -0.0593 -0.7625 -2.0987
   80SLPC   C36 7449   3.513   3.028   6.078  0.7250  0.4520 -0.2026
   80SLPC   H6X 7450   3.438   3.020   5.997  1.1044 -1.5697 -0.4142
   80SLPC   H6Y 7451   3.563   2.932   6.103 -1.2048 -0.4248  0.4024
   80SLPC   C37 7452   3.597   3.146   6.020  0.0109  0.1367  0.0384
   80SLPC   H7X 7453   3.670   3.158   6.103  0.5632  2.1910 -0.6722
   80SLPC   H7Y 7454   3.549   3.247   6.022  1.9731  1.1189  0.1012
   80SLPC   C38 7455   3.673   3.128   5.891 -0.1929 -0.5342  0.4169
   80SLPC   H8X 7456   3.739   3.038   5.891  0.5392 -0.1488 -3.2060
   80SLPC   H8Y 7457   3.744   3.212   5.882  1.2492 -1.7520 -0.1287
   80SLPC   C39 7458   3.586   3.122   5.765 -0.0527  0.0852 -0.0666
   80SLPC   H9X 7459   3.496   3.184   5.781 -0.0011 -0.2434  1.6948
   80SLPC   H9Y 7460   3.551   3.017   5.766  1.2903 -0.4065 -1.6333
   80SLPC  C310 7461   3.662   3.155   5.636  0.2805  0.3787 -0.1212
   80SLPC  H10X 7462   3.769   3.127   5.637  0.8386  2.3025  1.4115
   80SLPC  H10Y 7463   3.686   3.263   5.643  3.6365 -0.1223 -1.8879
   80SLPC  C311 7464   3.589   3.107   5.506 -0.3098  0.5783 -0.1251
   80SLPC  H11X 7465   3.594   2.997   5.513  2.1369  0.6226 -0.3860
   80SLPC  H11Y 7466   3.654   3.142   5.423 -3.5780  3.8811 -1.6079
   80SLPC  C312 7467   3.442   3.157   5.485  0.0399 -0.2264  0.2597
   80SLPC  H12X 7468   3.429   3.259   5.526  2.2547  0.7082 -1.1369
   80SLPC  H12Y 7469   3.369   3.089   5.535 -2.4355  2.3153  0.3200
   80SLPC  C313 7470   3.418   3.161   5.331  0.1605 -0.3849 -0.1916
   80SLPC  H13X 7471   3.446   3.063   5.288 -1.7445 -1.1906  0.2909
   80SLPC  H13Y 7472   3.482   3.243   5.291 -0.7648  0.9093  0.8921
   80SLPC  C314 7473   3.265   3.188   5.307  0.9808  0.3047 -0.4382
   80SLPC  H14X 7474   3.224   3.286   5.339 -0.5696  0.6294 -3.1218
   80SLPC  H14Y 7475   3.211   3.105   5.357 -1.7947  1.5619 -1.1394
   80SLPC  C315 7476   3.238   3.177   5.152 -0.2569  0.0317 -0.9055
   80SLPC  H15X 7477   3.257   3.070   5.129 -1.7555 -0.5632  0.3706
   80SLPC  H15Y 7478   3.308   3.249   5.106 -1.2729  0.4680 -1.8034
   80SLPC  C316 7479   3.090   3.199   5.121 -0.0332  0.0900  0.9483
   80SLPC  H16X 7480   3.051   3.303   5.127 -1.6079 -0.2221 -1.9928
   80SLPC  H16Y 7481   3.030   3.129   5.183 -1.1444 -0.7519 -1.0092
   80SLPC  C317 7482   3.063   3.160   4.972  0.3412 -0.9829 -0.6384
   80SLPC  H17X 7483   3.107   3.065   4.937  3.5645  0.7417 -1.6508
   80SLPC  H17Y 7484   3.121   3.236   4.915 -0.3817  1.5773  1.7739
   80SLPC  C318 7485   2.919   3.158   4.938 -0.2294  0.1321 -0.0098
   80SLPC  H18X 7486   2.856   3.079   4.983  0.0862 -0.2070 -0.1573
   80SLPC  H18Y 7487   2.919   3.139   4.828  3.0690  1.9453 -0.4438
   80SLPC  H18Z 7488   2.870   3.256   4.959  0.1515  0.2537  0.3214
   81SLPC     N 7489   0.785   1.212   1.799 -0.0544  0.3326 -0.3775
   81SLPC   C13 7490   0.725   1.340   1.847  0.4104 -0.0179 -0.4465
   81SLPC  H13A 7491   0.623   1.359   1.818  0.0464 -1.4086 -0.1459
   81SLPC  H13B 7492   0.711   1.332   1.954 -0.9323 -0.9092 -0.6720
   81SLPC  H13C 7493   0.785   1.426   1.824  0.8286 -0.2167 -0.1222
   81SLPC   C14 7494   0.934   1.212   1.847  0.3302 -0.3102 -0.7025
   81SLPC  H14A 7495   0.985   1.307   1.833  1.8249 -0.7891  1.1548
   81SLPC  H14B 7496   0.933   1.195   1.953 -1.7356 -0.0598 -0.6468
   81SLPC  H14C 7497   0.992   1.126   1.817  1.4517 -1.5696  4.1829
   81SLPC   C15 7498   0.800   1.213   1.646 -0.2175  0.0916  0.4434
   81SLPC  H15A 7499   0.706   1.237   1.600  0.3749  1.9223  0.0839
   81SLPC  H15B 7500   0.877   1.286   1.622  0.3593 -0.9052 -0.8580
   81SLPC  H15C 7501   0.856   1.131   1.604 -0.8230  0.0818 -0.3427
   81SLPC   C12 7502   0.707   1.088   1.841 -1.0830  0.3637 -0.2629
   81SLPC  H12A 7503   0.763   1.001   1.812  2.3627  2.0079  0.9529
   81SLPC  H12B 7504   0.609   1.082   1.794 -1.2800 -0.7034  0.2591
   81SLPC   C11 7505   0.685   1.072   1.994 -0.1312  0.1612 -0.1433
   81SLPC  H11A 7506   0.634   0.974   2.009 -0.5939  0.7512  3.0447
   81SLPC  H11B 7507   0.612   1.149   2.025  1.0962  1.5220 -0.5462
   81SLPC     P 7508   0.903   0.972   2.112 -0.0989 -0.3344 -0.3891
   81SLPC   O13 7509   0.926   0.878   1.999 -0.2292  0.3538 -0.1903
   81SLPC   O14 7510   1.019   1.048   2.166  0.4090  0.0137  0.3587
   81SLPC   O12 7511   0.794   1.086   2.082 -0.0912  0.1250  0.3825
   81SLPC   O11 7512   0.850   0.893   2.233 -0.0303 -0.3356  0.4759
   81SLPC    C1 7513   0.742   0.802   2.242 -0.6681 -0.7556 -0.2314
   81SLPC    HA 7514   0.662   0.834   2.171  1.0016  0.3957 -1.6888
   81SLPC    HB 7515   0.779   0.709   2.195 -0.0178  1.2541 -4.1503
   81SLPC    C2 7516   0.695   0.781   2.389  0.1517 -0.1048  0.7379
   81SLPC    HS 7517   0.606   0.715   2.387  1.3567 -1.8012 -0.9572
   81SLPC   O21 7518   0.653   0.906   2.449 -0.4051 -0.2766  0.2152
   81SLPC   C21 7519   0.548   0.975   2.389 -0.4467  0.8649 -0.0881
   81SLPC   O22 7520   0.482   0.927   2.299  0.7960  0.7777 -0.1420
   81SLPC   C22 7521   0.503   1.086   2.476  0.1035  0.3519 -1.1482
   81SLPC   H2R 7522   0.579   1.166   2.461  2.8739 -1.5085  1.6476
   81SLPC   H2S 7523   0.399   1.117   2.454  0.0924  0.6938 -0.6321
   81SLPC    C3 7524   0.803   0.712   2.479  0.3168 -0.6682  0.1741
   81SLPC    HX 7525   0.895   0.772   2.464 -1.1273  1.4348 -0.9082
   81SLPC    HY 7526   0.827   0.608   2.450  2.1129 -0.0433 -0.7655
   81SLPC   O31 7527   0.755   0.711   2.618 -0.0268  0.1563  0.0685
   81SLPC   C31 7528   0.804   0.805   2.702  0.3003  0.3912  0.0128
   81SLPC   O32 7529   0.883   0.896   2.670 -0.1836 -0.1812  0.0607
   81SLPC   C32 7530   0.743   0.802   2.840 -0.1122 -0.4648  0.3028
   81SLPC   H2X 7531   0.740   0.705   2.893 -0.8981  0.9240  2.9606
   81SLPC   H2Y 7532   0.636   0.830   2.830 -0.5310 -1.7274  1.0828
   81SLPC   C23 7533   0.515   1.036   2.625 -0.2542  0.1623 -0.7751
   81SLPC   H3R 7534   0.621   1.025   2.658 -0.6474 -1.0681  0.1365
   81SLPC   H3S 7535   0.481   0.930   2.620  1.7839 -0.6222  0.3725
   81SLPC   C24 7536   0.422   1.100   2.732 -0.9574  0.6098 -0.8053
   81SLPC   H4R 7537   0.424   1.025   2.815  0.2356 -0.7099 -1.9736
   81SLPC   H4S 7538   0.316   1.120   2.706 -2.0582  0.0201  2.6922
   81SLPC   C25 7539   0.478   1.229   2.792 -0.4239  0.0128  0.6414
   81SLPC   H5R 7540   0.489   1.302   2.708  1.7760  2.8804  3.1862
   81SLPC   H5S 7541   0.576   1.216   2.843 -0.3294  0.6718  0.6371
   81SLPC   C26 7542   0.378   1.292   2.887 -0.1183 -0.3086  0.2387
   81SLPC   H6R 7543   0.276   1.279   2.843 -0.0600  1.2144 -0.4094
   81SLPC   H6S 7544   0.391   1.402   2.897  1.6966 -0.3992 -0.7895
   81SLPC   C27 7545   0.372   1.230   3.027  0.0835  0.2982  0.6890
   81SLPC   H7R 7546   0.477   1.225   3.064  0.9764  1.3359 -1.5326
   81SLPC   H7S 7547   0.326   1.129   3.021 -2.3255  1.3418  0.5308
   81SLPC   C28 7548   0.286   1.317   3.121  0.2949 -0.3902  0.1192
   81SLPC   H8R 7549   0.183   1.285   3.096  0.0588 -1.3993  2.1560
   81SLPC   H8S 7550   0.293   1.425   3.094  1.5392  0.4130  3.1363
   81SLPC   C29 7551   0.327   1.290   3.264  0.5308 -0.4764  0.3015
   81SLPC   H9R 7552   0.402   1.210   3.275 -0.8813 -1.9461 -0.4044
   81SLPC  C210 7553   0.263   1.337   3.373 -0.7766 -0.2422 -0.1190
   81SLPC  H10R 7554   0.293   1.305   3.474 -0.7823 -1.7886 -0.5679
   81SLPC  C211 7555   0.139   1.425   3.363 -0.1676  0.0311  0.1735
   81SLPC  H11R 7556   0.060   1.367   3.311 -0.4698  0.3040  0.3186
   81SLPC  H11S 7557   0.164   1.505   3.290  0.2440 -0.1638  0.1009
   81SLPC  C212 7558   0.076   1.476   3.491  0.3003  0.3694  0.3460
   81SLPC  H12R 7559   0.023   1.569   3.467 -3.2418 -1.3708  0.8247
   81SLPC  C213 7560   0.063   1.417   3.608  0.5155 -0.2049 -0.7244
   81SLPC  H13R 7561   0.018   1.487   3.681  0.5617 -0.1904 -0.7092
   81SLPC  C214 7562   0.106   1.275   3.645 -0.5956  0.3182  0.7632
   81SLPC  H14R 7563   0.217   1.270   3.649 -0.4907  2.2345  1.1341
   81SLPC  H14S 7564   0.078   1.201   3.568 -0.9189 -1.4414  2.4832
   81SLPC  C215 7565   0.055   1.226   3.782  0.0832  0.4136  0.2410
   81SLPC  H15R 7566   0.080   1.118   3.788  1.5367  0.6727 -0.5579
   81SLPC  H15S 7567  -0.056   1.224   3.776  0.0340 -2.3612  0.9138
   81SLPC  C216 7568   0.122   1.291   3.906 -0.6086 -0.1066  0.1111
   81SLPC  H16R 7569   0.099   1.400   3.907  0.9971  0.2995 -1.3963
   81SLPC  H16S 7570   0.232   1.279   3.917 -0.8224 -1.6877  0.6705
   81SLPC  C217 7571   0.064   1.226   4.040  0.5652  0.7541 -0.1039
   81SLPC  H17R 7572   0.096   1.120   4.044 -0.6909  0.2803 -1.7193
   81SLPC  H17S 7573  -0.047   1.232   4.035  0.5250  0.6192  0.4794
   81SLPC  C218 7574   0.093   1.303   4.165 -0.3405  0.5207  0.1903
   81SLPC  H18R 7575   0.051   1.257   4.257 -2.3457  1.2229 -0.3280
   81SLPC  H18S 7576   0.064   1.410   4.169  2.5950  1.4056  0.3717
   81SLPC  H18T 7577   0.203   1.301   4.178 -0.2652  0.8930 -0.3466
   81SLPC   C33 7578   0.813   0.910   2.919 -0.5624 -0.0299  0.3786
   81SLPC   H3X 7579   0.797   1.008   2.870 -0.7953 -0.3229 -0.1407
   81SLPC   H3Y 7580   0.922   0.887   2.920 -0.6560 -0.6939 -1.3548
   81SLPC   C34 7581   0.757   0.922   3.065  0.8563  0.2739  0.1318
   81SLPC   H4X 7582   0.829   0.974   3.132  1.0887 -0.7133  0.6647
   81SLPC   H4Y 7583   0.761   0.817   3.100  3.9886  0.2814  0.0579
   81SLPC   C35 7584   0.621   0.992   3.073 -0.3529 -0.0094 -0.3296
   81SLPC   H5X 7585   0.555   0.963   2.989  0.9146 -2.2276 -0.6402
   81SLPC   H5Y 7586   0.630   1.102   3.063  0.7067 -0.1915 -1.6289
   81SLPC   C36 7587   0.545   0.941   3.196 -0.2600 -0.0006  0.2103
   81SLPC   H6X 7588   0.553   0.831   3.185 -0.3725  0.1082 -1.2636
   81SLPC   H6Y 7589   0.435   0.955   3.194 -0.3743 -0.9112 -0.9325
   81SLPC   C37 7590   0.604   0.994   3.326  0.4769 -0.2136 -0.0022
   81SLPC   H7X 7591   0.605   1.104   3.312  2.1878 -0.0711  0.9879
   81SLPC   H7Y 7592   0.704   0.948   3.343 -0.1199 -3.0022 -3.0861
   81SLPC   C38 7593   0.500   0.973   3.439 -0.6879 -0.4838  0.8645
   81SLPC   H8X 7594   0.494   0.865   3.463  0.3007 -0.6372  0.4757
   81SLPC   H8Y 7595   0.401   1.006   3.400  0.2586 -1.9920 -3.4063
   81SLPC   C39 7596   0.537   1.047   3.569  0.0343  0.1862 -0.0651
   81SLPC   H9X 7597   0.540   1.157   3.554 -0.2955  0.1069 -0.7793
   81SLPC   H9Y 7598   0.640   1.011   3.587 -0.5935 -2.3585 -1.2028
   81SLPC  C310 7599   0.445   1.019   3.691 -0.4865 -0.0102 -1.0172
   81SLPC  H10X 7600   0.424   0.910   3.684  1.7776 -0.4243 -2.4430
   81SLPC  H10Y 7601   0.362   1.090   3.678  0.1165  1.0169  0.4370
   81SLPC  C311 7602   0.524   1.065   3.819 -0.3823 -0.0642 -0.3768
   81SLPC  H11X 7603   0.559   1.168   3.797 -0.3010 -0.3556 -1.7018
   81SLPC  H11Y 7604   0.608   0.994   3.826 -0.7113 -0.5109 -0.8947
   81SLPC  C312 7605   0.443   1.074   3.951 -0.0223 -0.1372  0.2224
   81SLPC  H12X 7606   0.342   1.032   3.931 -0.0964  0.0063  0.2923
   81SLPC  H12Y 7607   0.422   1.182   3.966  0.5290 -0.1188  0.9012
   81SLPC  C313 7608   0.509   1.016   4.074 -0.0505  0.2391 -0.6878
   81SLPC  H13X 7609   0.611   1.056   4.090 -0.0649 -0.0258  0.1026
   81SLPC  H13Y 7610   0.509   0.907   4.055  0.4294  0.3701 -1.4464
   81SLPC  C314 7611   0.435   1.035   4.211 -0.4576  0.1842  0.4543
   81SLPC  H14X 7612   0.328   1.010   4.196 -0.6305  1.7260 -1.3767
   81SLPC  H14Y 7613   0.448   1.143   4.232 -0.9282  0.2283  0.5218
   81SLPC  C315 7614   0.501   0.954   4.327  0.7456  0.3862  0.5758
   81SLPC  H15X 7615   0.612   0.957   4.325  0.7740  2.1140 -2.9572
   81SLPC  H15Y 7616   0.472   0.848   4.313  1.8688  0.0047  1.0776
   81SLPC  C316 7617   0.445   0.993   4.455  0.0505 -0.7938  0.3099
   81SLPC  H16X 7618   0.335   1.005   4.439  0.1777  0.3536  0.2654
   81SLPC  H16Y 7619   0.495   1.088   4.483  1.3306 -0.7532 -1.8979
   81SLPC  C317 7620   0.465   0.886   4.566  0.2625 -0.0304 -0.2068
   81SLPC  H17X 7621   0.572   0.862   4.578 -0.3927 -2.5049  1.5548
   81SLPC  H17Y 7622   0.409   0.791   4.549  0.3440  0.0534 -0.9377
   81SLPC  C318 7623   0.430   0.931   4.709  0.2068  0.0029 -0.4407
   81SLPC  H18X 7624   0.323   0.958   4.725  0.7745  0.8132  2.4390
   81SLPC  H18Y 7625   0.494   1.020   4.729 -0.1274 -0.2894  2.1818
   81SLPC  H18Z 7626   0.458   0.854   4.784 -1.3188  0.3691  0.5503
   82SLPC     N 7627   2.893   0.961   2.579 -0.0729  0.2413 -0.7432
   82SLPC   C13 7628   2.996   1.019   2.498 -0.2202  0.3971 -0.1139
   82SLPC  H13A 7629   3.094   0.976   2.513  0.2348  1.4758  0.1006
   82SLPC  H13B 7630   2.969   1.016   2.393 -0.5607 -0.2184 -0.0159
   82SLPC  H13C 7631   3.002   1.123   2.525  0.2295  0.1883  0.6193
   82SLPC   C14 7632   2.865   0.827   2.515  0.1771 -0.4970  0.5092
   82SLPC  H14A 7633   2.842   0.836   2.410  1.4829  1.4571  0.3448
   82SLPC  H14B 7634   2.954   0.767   2.512  0.3958 -0.1589  0.2589
   82SLPC  H14C 7635   2.776   0.784   2.560 -0.9098  1.5263  0.4112
   82SLPC   C15 7636   2.772   1.043   2.583 -0.6883  0.3078 -0.3775
   82SLPC  H15A 7637   2.788   1.143   2.621  0.5602  0.0784 -0.2330
   82SLPC  H15B 7638   2.736   1.061   2.483 -0.5448 -0.4395 -0.5727
   82SLPC  H15C 7639   2.700   0.994   2.647  0.7754  0.3484  1.4014
   82SLPC   C12 7640   2.951   0.922   2.724  0.4970  0.2965  0.2636
   82SLPC  H12A 7641   3.041   0.867   2.701  0.2579 -0.2450  0.5979
   82SLPC  H12B 7642   2.879   0.862   2.777  0.3576 -0.1929 -0.4717
   82SLPC   C11 7643   2.987   1.039   2.815 -0.2083 -0.5634  0.2806
   82SLPC  H11A 7644   3.004   1.007   2.919 -0.3469  1.9982  1.1693
   82SLPC  H11B 7645   2.898   1.105   2.821 -0.1764  0.0598 -3.4691
   82SLPC     P 7646   3.251   1.046   2.803  0.2384  0.0555 -0.1291
   82SLPC   O13 7647   3.268   0.905   2.755 -0.2935  0.2277 -0.3061
   82SLPC   O14 7648   3.340   1.147   2.743 -0.2989  0.0397  0.3959
   82SLPC   O12 7649   3.106   1.105   2.762  0.0623 -0.0713  0.0182
   82SLPC   O11 7650   3.240   1.046   2.959  0.1659  0.3475  0.2193
   82SLPC    C1 7651   3.337   0.980   3.038  0.5039 -0.2939 -0.4882
   82SLPC    HA 7652   3.429   0.946   2.986  1.3286 -1.5847  1.6984
   82SLPC    HB 7653   3.385   1.048   3.112  3.7601 -1.2481 -1.5598
   82SLPC    C2 7654   3.282   0.865   3.125 -0.6806  0.0124  0.2677
   82SLPC    HS 7655   3.242   0.783   3.062 -0.0315  1.6156 -2.4000
   82SLPC   O21 7656   3.188   0.922   3.219  0.3783  0.2255 -0.0795
   82SLPC   C21 7657   3.089   0.849   3.260  0.1876 -0.6084  0.3477
   82SLPC   O22 7658   3.054   0.741   3.217 -0.3382  0.8946  0.0509
   82SLPC   C22 7659   3.008   0.932   3.374  0.5716 -0.3025 -0.0861
   82SLPC   H2R 7660   3.006   1.036   3.336 -0.2051 -0.2031  0.1968
   82SLPC   H2S 7661   2.910   0.883   3.394 -0.9637  3.3673  2.3139
   82SLPC    C3 7662   3.397   0.805   3.217  0.0142  0.3183  0.1751
   82SLPC    HX 7663   3.435   0.889   3.279 -0.2890 -0.4538  1.4263
   82SLPC    HY 7664   3.481   0.778   3.149 -0.3469  1.5886 -0.8134
   82SLPC   O31 7665   3.362   0.692   3.296 -0.0502 -0.6883  0.2978
   82SLPC   C31 7666   3.347   0.578   3.221 -0.0247 -0.1430 -0.4653
   82SLPC   O32 7667   3.380   0.568   3.105  0.6481  0.4428 -0.0784
   82SLPC   C32 7668   3.308   0.460   3.314 -0.0161 -0.0629 -0.0961
   82SLPC   H2X 7669   3.213   0.501   3.356 -2.2105 -0.5841 -4.0274
   82SLPC   H2Y 7670   3.381   0.451   3.397 -2.6491 -0.3240  2.3281
   82SLPC   C23 7671   3.079   0.926   3.507  0.1931 -0.4102 -0.2762
   82SLPC   H3R 7672   3.129   0.827   3.514 -1.0585 -1.0860 -0.5036
   82SLPC   H3S 7673   2.992   0.928   3.576 -0.9662 -2.2527 -1.5776
   82SLPC   C24 7674   3.185   1.041   3.524 -0.6578 -0.6804  0.6909
   82SLPC   H4R 7675   3.151   1.146   3.510 -2.0346 -1.3725 -1.6198
   82SLPC   H4S 7676   3.261   1.031   3.445  0.5624 -1.2506  1.8938
   82SLPC   C25 7677   3.254   1.028   3.658 -0.3961  0.6265  0.2146
   82SLPC   H5R 7678   3.347   1.086   3.668  0.7865 -1.1080 -0.1984
   82SLPC   H5S 7679   3.286   0.922   3.671 -0.9271  0.6294  1.7918
   82SLPC   C26 7680   3.162   1.052   3.777  0.4022 -0.0813  0.5078
   82SLPC   H6R 7681   3.077   0.980   3.780  0.7589 -0.4764  2.2395
   82SLPC   H6S 7682   3.115   1.152   3.770  0.6408 -0.0139 -0.2089
   82SLPC   C27 7683   3.240   1.044   3.908 -0.1489  0.0385  0.0634
   82SLPC   H7R 7684   3.322   1.118   3.913 -0.0551 -0.1344  1.9729
   82SLPC   H7S 7685   3.282   0.941   3.914  0.2404  0.2795  2.3180
   82SLPC   C28 7686   3.159   1.054   4.040 -0.0908 -0.3256 -0.2747
   82SLPC   H8R 7687   3.098   0.962   4.031 -0.8339  0.2157 -0.9632
   82SLPC   H8S 7688   3.101   1.148   4.029  1.0960  0.4609  0.0193
   82SLPC   C29 7689   3.227   1.051   4.173 -0.3585  0.6407  0.2136
   82SLPC   H9R 7690   3.310   1.122   4.184  1.2082 -1.1288  0.3549
   82SLPC  C210 7691   3.184   0.994   4.284  0.2844  0.3195 -0.0520
   82SLPC  H10R 7692   3.244   0.995   4.377 -1.0013 -1.5536  0.8418
   82SLPC  C211 7693   3.062   0.919   4.313  0.3461  0.4809  0.7810
   82SLPC  H11R 7694   3.087   0.810   4.309 -0.2329  0.3210  1.2524
   82SLPC  H11S 7695   2.986   0.910   4.233  0.8605 -1.2231  0.4484
   82SLPC  C212 7696   3.000   0.962   4.444 -1.0738 -0.4993 -0.1993
   82SLPC  H12R 7697   2.952   1.059   4.426 -1.2039 -0.9442 -2.5224
   82SLPC  C213 7698   2.999   0.902   4.565 -0.7170 -0.0889 -0.0944
   82SLPC  H13R 7699   2.948   0.955   4.646 -0.3449  0.3794 -0.1652
   82SLPC  C214 7700   3.045   0.762   4.595 -0.1212 -0.1571 -0.3500
   82SLPC  H14R 7701   3.098   0.758   4.692 -0.1492 -1.0213 -0.3639
   82SLPC  H14S 7702   3.109   0.727   4.511 -0.5167  0.4442 -0.9137
   82SLPC  C215 7703   2.927   0.676   4.610 -0.1480  1.1297 -0.1813
   82SLPC  H15R 7704   2.864   0.671   4.518 -2.2144  0.4647  1.1959
   82SLPC  H15S 7705   2.861   0.715   4.690 -1.2104 -1.2535  0.1993
   82SLPC  C216 7706   2.951   0.532   4.655 -0.6137 -0.0050  0.1995
   82SLPC  H16R 7707   3.009   0.537   4.750  0.5315  1.1293 -0.5308
   82SLPC  H16S 7708   3.017   0.479   4.582  0.6817  0.1459  1.2118
   82SLPC  C217 7709   2.832   0.453   4.676  0.5830  0.0180  0.4978
   82SLPC  H17R 7710   2.778   0.427   4.582  0.4725 -0.8755  0.7981
   82SLPC  H17S 7711   2.766   0.521   4.734  2.8095  2.4714  0.3259
   82SLPC  C218 7712   2.851   0.322   4.748  0.1328  0.2478  0.3388
   82SLPC  H18R 7713   2.884   0.349   4.851  1.6698  1.8100 -0.5307
   82SLPC  H18S 7714   2.923   0.255   4.697  0.7184  0.2465  1.1492
   82SLPC  H18T 7715   2.756   0.264   4.756 -0.5918  1.4591  0.7843
   82SLPC   C33 7716   3.288   0.318   3.252  0.0120  0.1539  0.3815
   82SLPC   H3X 7717   3.383   0.277   3.210  0.6698  2.5787 -0.6947
   82SLPC   H3Y 7718   3.220   0.311   3.164  0.5311  2.8854 -0.3477
   82SLPC   C34 7719   3.257   0.216   3.363 -0.1409 -0.1076  0.2219
   82SLPC   H4X 7720   3.332   0.219   3.445  0.9366  2.8435 -0.7189
   82SLPC   H4Y 7721   3.259   0.115   3.318 -1.5757 -0.3674  0.6918
   82SLPC   C35 7722   3.121   0.227   3.422 -0.1629  0.7595  0.0355
   82SLPC   H5X 7723   3.045   0.224   3.342 -0.0024 -1.2098 -0.0904
   82SLPC   H5Y 7724   3.110   0.330   3.462 -1.9789  0.7684 -0.3880
   82SLPC   C36 7725   3.091   0.127   3.540 -0.3060 -0.4734 -0.4561
   82SLPC   H6X 7726   3.173   0.144   3.614  0.6821  0.2895 -1.6902
   82SLPC   H6Y 7727   3.102   0.026   3.494  0.6175  0.0419 -1.4144
   82SLPC   C37 7728   2.951   0.142   3.596 -0.5834 -0.6073  0.1604
   82SLPC   H7X 7729   2.881   0.134   3.510  1.3440  0.3684 -1.5640
   82SLPC   H7Y 7730   2.928   0.244   3.634 -1.2213 -1.2887  1.7046
   82SLPC   C38 7731   2.913   0.037   3.705  0.0999 -0.4133 -0.6917
   82SLPC   H8X 7732   2.933   0.074   3.808 -0.8168 -0.4737 -0.4900
   82SLPC   H8Y 7733   2.989  -0.044   3.697  1.8167  1.1203 -0.4956
   82SLPC   C39 7734   2.778  -0.023   3.684  0.5954  0.5062  0.5637
   82SLPC   H9X 7735   2.782  -0.132   3.706  1.6680  0.3334 -0.3797
   82SLPC   H9Y 7736   2.761  -0.035   3.575  1.4474  1.3673  0.3176
   82SLPC  C310 7737   2.660   0.052   3.742 -0.5051 -0.4363 -0.2870
   82SLPC  H10X 7738   2.568   0.021   3.688  0.6909 -3.3272 -0.8899
   82SLPC  H10Y 7739   2.673   0.162   3.740 -1.0043 -0.3892 -1.5805
   82SLPC  C311 7740   2.625   0.006   3.884 -0.2678  0.0872 -0.0263
   82SLPC  H11X 7741   2.719   0.022   3.942 -0.9396 -1.9167  1.7471
   82SLPC  H11Y 7742   2.588  -0.099   3.889 -2.6811  0.9189  0.8644
   82SLPC  C312 7743   2.519   0.094   3.947  0.2809 -0.3730 -0.1384
   82SLPC  H12X 7744   2.430   0.073   3.884  0.7397 -3.8833  0.1932
   82SLPC  H12Y 7745   2.535   0.203   3.930 -1.6399 -0.4754 -3.4596
   82SLPC  C313 7746   2.489   0.063   4.095 -0.1008 -0.1958  0.7260
   82SLPC  H13X 7747   2.523  -0.040   4.117  1.8388  0.4727  0.9865
   82SLPC  H13Y 7748   2.379   0.055   4.113  0.1613 -2.0241  1.8003
   82SLPC  C314 7749   2.563   0.149   4.202 -0.5190  0.3860  0.9524
   82SLPC  H14X 7750   2.669   0.156   4.170 -0.7995  2.0313  0.2847
   82SLPC  H14Y 7751   2.561   0.090   4.296 -1.5383  0.2646  0.8747
   82SLPC  C315 7752   2.511   0.292   4.227 -1.4949  0.3649  0.3025
   82SLPC  H15X 7753   2.408   0.272   4.261 -1.5862 -2.8619 -1.4223
   82SLPC  H15Y 7754   2.494   0.345   4.131  0.2023 -1.8701 -1.3599
   82SLPC  C316 7755   2.595   0.377   4.316 -0.2111 -0.3288  0.3900
   82SLPC  H16X 7756   2.677   0.420   4.254 -0.7999  0.5188  0.1778
   82SLPC  H16Y 7757   2.641   0.309   4.391  0.3287  0.5921  0.9152
   82SLPC  C317 7758   2.513   0.486   4.390 -0.9209 -0.3869 -0.6234
   82SLPC  H17X 7759   2.576   0.529   4.471 -1.9239  0.1727 -0.1151
   82SLPC  H17Y 7760   2.426   0.439   4.442 -1.5436 -1.9831 -2.9740
   82SLPC  C318 7761   2.457   0.587   4.298 -0.5094  0.0104 -0.2389
   82SLPC  H18X 7762   2.377   0.542   4.236 -0.4051  0.4126 -0.6689
   82SLPC  H18Y 7763   2.530   0.630   4.227  0.0789 -0.3508  0.1347
   82SLPC  H18Z 7764   2.405   0.672   4.347  0.6945  1.1809 -0.9258
   83SLPC     N 7765   4.818   0.048   1.987  0.0197  0.0106 -0.2433
   83SLPC   C13 7766   4.692   0.032   1.919  0.3710  0.7598  0.0065
   83SLPC  H13A 7767   4.614   0.007   1.990 -0.6224  2.2677 -0.5026
   83SLPC  H13B 7768   4.670   0.110   1.849 -0.3804  0.4365 -0.1251
   83SLPC  H13C 7769   4.703  -0.056   1.858  2.6990  0.2047  1.1090
   83SLPC   C14 7770   4.923   0.043   1.877 -0.1217 -0.3152  0.1841
   83SLPC  H14A 7771   5.021   0.067   1.916 -0.1923  0.4022 -0.0674
   83SLPC  H14B 7772   4.931  -0.059   1.840  1.9508 -1.1626  2.6787
   83SLPC  H14C 7773   4.893   0.113   1.801 -0.2108 -0.7557 -0.1960
   83SLPC   C15 7774   4.848  -0.068   2.082 -0.1339  0.2128 -0.0312
   83SLPC  H15A 7775   4.862  -0.164   2.034 -1.0202  0.6143 -1.1257
   83SLPC  H15B 7776   4.948  -0.061   2.122 -0.5182  0.3883  0.9373
   83SLPC  H15C 7777   4.783  -0.063   2.168 -1.4358  0.1805 -0.9897
   83SLPC   C12 7778   4.839   0.177   2.056  0.5600  0.0863 -0.4124
   83SLPC  H12A 7779   4.749   0.194   2.113 -0.7317  0.7621 -2.5200
   83SLPC  H12B 7780   4.845   0.263   1.992 -2.4458 -0.0884 -1.0713
   83SLPC   C11 7781   4.959   0.184   2.163  0.2757  0.4201  0.0353
   83SLPC  H11A 7782   4.928   0.131   2.256 -2.4404  0.6420 -0.6700
   83SLPC  H11B 7783   4.978   0.286   2.204 -2.4292  2.0599 -2.4485
   83SLPC     P 7784   5.201   0.205   2.059 -0.0279  0.1991 -0.3763
   83SLPC   O13 7785   5.303   0.097   2.028  0.2013 -0.3798  0.7209
   83SLPC   O14 7786   5.154   0.298   1.955  0.0677 -0.1840 -0.2491
   83SLPC   O12 7787   5.078   0.122   2.114  0.4127  0.4977  0.0234
   83SLPC   O11 7788   5.246   0.290   2.190  0.3852 -0.4216 -0.1161
   83SLPC    C1 7789   5.332   0.217   2.275  0.6372  0.0923 -0.0888
   83SLPC    HA 7790   5.417   0.169   2.222  2.1121  0.9278  1.4255
   83SLPC    HB 7791   5.382   0.291   2.341  0.6302  1.0380 -1.0974
   83SLPC    C2 7792   5.265   0.123   2.374  1.0735 -0.1652 -0.4895
   83SLPC    HS 7793   5.194   0.053   2.326 -1.7466  1.4453  1.0800
   83SLPC   O21 7794   5.191   0.207   2.462 -0.1475 -0.1600  0.0992
   83SLPC   C21 7795   5.084   0.156   2.515 -0.0982  0.3248 -0.7249
   83SLPC   O22 7796   5.041   0.042   2.502  0.3944  0.3292 -0.4631
   83SLPC   C22 7797   5.028   0.259   2.610 -0.2556  0.3097 -0.5041
   83SLPC   H2R 7798   5.104   0.306   2.678 -0.7483  3.0758 -1.7059
   83SLPC   H2S 7799   4.992   0.339   2.541 -0.1076  0.3401 -0.5462
   83SLPC    C3 7800   5.365   0.041   2.450 -0.2228  0.3785 -0.0645
   83SLPC    HX 7801   5.415  -0.039   2.391  0.8907  1.3066 -0.4142
   83SLPC    HY 7802   5.308  -0.011   2.530  0.9449 -0.4121  0.2780
   83SLPC   O31 7803   5.480   0.123   2.508  0.6161  1.4764 -0.3104
   83SLPC   C31 7804   5.486   0.134   2.638 -0.4281 -0.3577  0.4150
   83SLPC   O32 7805   5.407   0.094   2.719  0.2533 -0.3326 -0.5721
   83SLPC   C32 7806   5.618   0.216   2.676 -0.5010  0.2393 -0.2432
   83SLPC   H2X 7807   5.587   0.319   2.649 -0.5293  0.7216  1.5246
   83SLPC   H2Y 7808   5.708   0.187   2.616 -2.0899  1.9037 -3.7207
   83SLPC   C23 7809   4.912   0.205   2.702  0.7711  0.3870  0.3286
   83SLPC   H3R 7810   4.936   0.102   2.738  0.8239  0.0389 -0.6617
   83SLPC   H3S 7811   4.826   0.185   2.634 -0.6177  0.0923  2.1247
   83SLPC   C24 7812   4.862   0.294   2.821 -0.5456 -0.3618 -0.2506
   83SLPC   H4R 7813   4.773   0.249   2.871  0.3017 -1.3866  0.3800
   83SLPC   H4S 7814   4.823   0.390   2.781 -2.2098 -0.7678  0.2990
   83SLPC   C25 7815   4.959   0.311   2.944  0.4185 -0.6546 -0.2826
   83SLPC   H5R 7816   5.059   0.343   2.907 -0.4894 -0.5581 -2.7781
   83SLPC   H5S 7817   4.968   0.215   3.000 -0.4009  0.2168  1.4237
   83SLPC   C26 7818   4.909   0.416   3.047  0.5020  0.6719  0.6656
   83SLPC   H6R 7819   4.803   0.395   3.075  0.5004 -1.4634 -0.6721
   83SLPC   H6S 7820   4.928   0.506   2.985  2.1574 -1.2971 -1.9402
   83SLPC   C27 7821   4.990   0.425   3.174 -0.3457  0.9732 -0.2419
   83SLPC   H7R 7822   5.100   0.422   3.154  0.0892  0.4398  1.9966
   83SLPC   H7S 7823   4.973   0.334   3.235  2.5453 -0.1441 -0.9222
   83SLPC   C28 7824   4.967   0.552   3.261 -0.5571 -0.0880 -0.0235
   83SLPC   H8R 7825   4.856   0.563   3.264 -0.3722  2.8111 -0.8260
   83SLPC   H8S 7826   5.011   0.643   3.214 -1.3799 -0.7414 -2.2071
   83SLPC   C29 7827   5.042   0.540   3.393  0.1810 -0.5214 -0.3336
   83SLPC   H9R 7828   5.142   0.584   3.404 -0.7972  1.4828  1.3089
   83SLPC  C210 7829   5.009   0.463   3.502 -0.4287  0.1618 -0.2342
   83SLPC  H10R 7830   5.075   0.465   3.590 -0.6771  0.8445 -0.0574
   83SLPC  C211 7831   4.886   0.371   3.519 -0.2306 -0.3488  0.5656
   83SLPC  H11R 7832   4.809   0.425   3.459 -2.0810 -2.6547  0.7044
   83SLPC  H11S 7833   4.843   0.375   3.621  2.2862 -1.9495  1.7573
   83SLPC  C212 7834   4.913   0.227   3.488  0.0652 -0.0173  0.6056
   83SLPC  H12R 7835   5.020   0.201   3.478 -0.1284  0.0599 -3.3251
   83SLPC  C213 7836   4.814   0.138   3.481 -0.9794 -0.0421 -0.2412
   83SLPC  H13R 7837   4.837   0.036   3.449  3.0542  0.9974 -1.2543
   83SLPC  C214 7838   4.666   0.163   3.505  0.0041  1.5608 -0.2528
   83SLPC  H14R 7839   4.590   0.127   3.431  0.0015  0.5858  0.2153
   83SLPC  H14S 7840   4.647   0.272   3.514  0.9278  1.6782  0.3339
   83SLPC  C215 7841   4.616   0.095   3.639  0.6326  0.1834 -0.6637
   83SLPC  H15R 7842   4.626  -0.016   3.642  1.1832  0.2201 -1.0131
   83SLPC  H15S 7843   4.506   0.105   3.650  0.8993  1.7817  0.8901
   83SLPC  C216 7844   4.688   0.151   3.764 -0.9567  0.2134 -0.5446
   83SLPC  H16R 7845   4.698   0.261   3.753  0.3683  0.4735  2.2733
   83SLPC  H16S 7846   4.794   0.117   3.763 -0.8352  0.5857 -1.3015
   83SLPC  C217 7847   4.613   0.133   3.896  0.6856 -0.0690  0.4003
   83SLPC  H17R 7848   4.521   0.195   3.886 -0.1358 -1.5441 -1.8664
   83SLPC  H17S 7849   4.678   0.175   3.975  0.5392 -0.5560  0.7800
   83SLPC  C218 7850   4.585  -0.006   3.930  0.5780 -0.0705  0.6977
   83SLPC  H18R 7851   4.683  -0.049   3.960 -0.3532  0.4945  5.3544
   83SLPC  H18S 7852   4.534  -0.062   3.849  0.0950  0.7403  0.4304
   83SLPC  H18T 7853   4.526  -0.005   4.024  0.2505  0.0649  0.4899
   83SLPC   C33 7854   5.638   0.221   2.827 -0.2100 -0.0860  0.1743
   83SLPC   H3X 7855   5.542   0.253   2.872  0.3883  1.2198  0.5775
   83SLPC   H3Y 7856   5.697   0.312   2.849 -0.3690 -0.1728  0.9714
   83SLPC   C34 7857   5.692   0.093   2.896 -0.5320 -0.3386 -0.2337
   83SLPC   H4X 7858   5.793   0.068   2.857  1.0966  1.8124  2.2559
   83SLPC   H4Y 7859   5.621   0.011   2.874 -1.3486  0.4086 -0.4384
   83SLPC   C35 7860   5.707   0.108   3.046 -0.0464 -0.1747 -0.7362
   83SLPC   H5X 7861   5.606   0.130   3.086  0.6615  1.4251  0.2618
   83SLPC   H5Y 7862   5.763   0.202   3.066 -0.0886 -0.8026  3.0366
   83SLPC   C36 7863   5.765  -0.015   3.113  0.1773 -0.1312 -0.0436
   83SLPC   H6X 7864   5.861  -0.029   3.060 -0.2508 -0.7068 -0.6770
   83SLPC   H6Y 7865   5.699  -0.102   3.092 -0.0335  0.3181 -1.3164
   83SLPC   C37 7866   5.782  -0.006   3.263  0.3240 -0.1987 -0.1856
   83SLPC   H7X 7867   5.835   0.085   3.297  1.5330 -0.6104 -0.9076
   83SLPC   H7Y 7868   5.850  -0.088   3.294  0.2439 -0.7479 -1.3895
   83SLPC   C38 7869   5.647   0.001   3.342 -0.3867 -0.1065  0.3871
   83SLPC   H8X 7870   5.564  -0.050   3.288 -1.7432  3.1253 -0.8023
   83SLPC   H8Y 7871   5.608   0.105   3.340  0.2165  0.1234  0.4995
   83SLPC   C39 7872   5.660  -0.050   3.483  0.1709  0.0299  0.4384
   83SLPC   H9X 7873   5.695  -0.155   3.478 -2.1411 -0.7878  0.3505
   83SLPC   H9Y 7874   5.555  -0.051   3.519 -0.2157  1.5441 -0.5398
   83SLPC  C310 7875   5.744   0.038   3.581 -0.1852  0.2819 -0.2571
   83SLPC  H10X 7876   5.704   0.141   3.594 -1.3920 -0.4717  3.1450
   83SLPC  H10Y 7877   5.848   0.037   3.543  0.1268 -0.3153  0.5850
   83SLPC  C311 7878   5.729  -0.022   3.722 -0.6097 -0.8930 -0.3779
   83SLPC  H11X 7879   5.779  -0.121   3.730  0.2526 -0.4108  0.4001
   83SLPC  H11Y 7880   5.619  -0.033   3.732 -1.1635  2.3737 -1.6470
   83SLPC  C312 7881   5.782   0.059   3.836 -0.0554 -0.0788 -0.6916
   83SLPC  H12X 7882   5.745   0.162   3.817  0.2017  0.0033 -0.7587
   83SLPC  H12Y 7883   5.893   0.060   3.830 -0.0320 -2.2470 -1.4053
   83SLPC  C313 7884   5.743   0.021   3.980 -0.2903 -0.1407  0.6838
   83SLPC  H13X 7885   5.635  -0.005   3.976 -0.2243 -0.7433  2.1573
   83SLPC  H13Y 7886   5.757   0.111   4.044 -1.8107  1.1167 -0.6455
   83SLPC  C314 7887   5.830  -0.102   4.029  0.0012  0.6655  0.2408
   83SLPC  H14X 7888   5.934  -0.066   4.041 -0.0296  1.3437 -1.2553
   83SLPC  H14Y 7889   5.828  -0.178   3.948 -1.1146 -0.4855  1.3029
   83SLPC  C315 7890   5.783  -0.162   4.159  0.1128  0.5636  1.0918
   83SLPC  H15X 7891   5.684  -0.204   4.131  0.6766 -0.1479  0.0729
   83SLPC  H15Y 7892   5.766  -0.084   4.237 -0.9404  1.1958  0.2609
   83SLPC  C316 7893   5.867  -0.278   4.205  0.1513 -0.8356 -0.5665
   83SLPC  H16X 7894   5.968  -0.235   4.220 -0.0773  0.2430 -1.9339
   83SLPC  H16Y 7895   5.863  -0.364   4.134 -0.8050 -2.6592  1.5925
   83SLPC  C317 7896   5.805  -0.338   4.333  0.1536  0.1753  0.8949
   83SLPC  H17X 7897   5.724  -0.406   4.299 -0.6683  0.1884  2.7307
   83SLPC  H17Y 7898   5.768  -0.252   4.392 -1.1114  1.0263 -1.0289
   83SLPC  C318 7899   5.912  -0.429   4.408 -0.1707  0.6190 -0.1929
   83SLPC  H18X 7900   5.856  -0.491   4.481 -0.8130  0.6436 -0.6634
   83SLPC  H18Y 7901   5.970  -0.351   4.461 -0.7821  1.5677 -0.8731
   83SLPC  H18Z 7902   5.967  -0.498   4.340 -0.5021 -0.5775  0.7095
   84SLPC     N 7903   5.542   3.621   2.298  0.2445 -0.3880 -0.4914
   84SLPC   C13 7904   5.618   3.730   2.376  0.7394 -0.1118 -0.3493
   84SLPC  H13A 7905   5.687   3.783   2.312 -0.6703  0.9914 -1.0067
   84SLPC  H13B 7906   5.555   3.807   2.419 -0.2780 -0.4780 -1.1461
   84SLPC  H13C 7907   5.666   3.684   2.461 -1.8480 -1.1023  0.6824
   84SLPC   C14 7908   5.644   3.520   2.259  0.2727  0.2806  0.1177
   84SLPC  H14A 7909   5.722   3.554   2.192  0.9690 -0.7769  0.3566
   84SLPC  H14B 7910   5.680   3.484   2.355 -0.2855 -1.0419 -0.1422
   84SLPC  H14C 7911   5.595   3.435   2.213 -1.1636  0.0626  1.9164
   84SLPC   C15 7912   5.484   3.685   2.177 -0.3062  0.0345  0.0773
   84SLPC  H15A 7913   5.449   3.615   2.103  1.4253 -0.0967 -0.6356
   84SLPC  H15B 7914   5.407   3.757   2.204 -0.1365 -0.6759  2.7327
   84SLPC  H15C 7915   5.559   3.746   2.129  1.8735 -1.6198  1.2281
   84SLPC   C12 7916   5.431   3.560   2.384  1.2945 -0.3352 -0.2664
   84SLPC  H12A 7917   5.382   3.482   2.328  0.0407 -0.3320  0.7898
   84SLPC  H12B 7918   5.353   3.634   2.392  2.8151  1.6750 -2.4182
   84SLPC   C11 7919   5.454   3.514   2.527  0.0915 -0.4419 -0.1040
   84SLPC  H11A 7920   5.352   3.506   2.570  0.1254  2.8765  0.8588
   84SLPC  H11B 7921   5.494   3.593   2.594  0.0131 -2.2073  2.1527
   84SLPC     P 7922   5.455   3.250   2.518 -0.1184  0.0776  0.1557
   84SLPC   O13 7923   5.314   3.287   2.491 -0.1031  0.0589  0.2215
   84SLPC   O14 7924   5.525   3.165   2.420 -0.8435  0.1373  0.2975
   84SLPC   O12 7925   5.535   3.390   2.541 -0.4272 -0.0542 -0.3084
   84SLPC   O11 7926   5.479   3.184   2.655 -0.0200  0.5558  0.1805
   84SLPC    C1 7927   5.423   3.243   2.773 -0.8027 -0.3378 -0.1862
   84SLPC    HA 7928   5.411   3.353   2.767  0.6011 -0.0148  2.0887
   84SLPC    HB 7929   5.325   3.192   2.780 -0.1971 -2.0990 -2.7903
   84SLPC    C2 7930   5.515   3.216   2.902 -0.0375 -0.4429  0.2188
   84SLPC    HS 7931   5.548   3.110   2.900  1.3097 -0.0206 -0.5380
   84SLPC   O21 7932   5.452   3.259   3.023 -1.2544  0.2088 -0.0419
   84SLPC   C21 7933   5.513   3.216   3.137 -0.2157 -0.1216 -0.2770
   84SLPC   O22 7934   5.611   3.147   3.146  0.3106 -0.1681  0.5393
   84SLPC   C22 7935   5.442   3.264   3.267  0.0851 -0.4982  0.8127
   84SLPC   H2R 7936   5.464   3.373   3.275 -1.0676 -0.0689 -1.1988
   84SLPC   H2S 7937   5.335   3.245   3.244  0.1523 -1.3307  1.1700
   84SLPC    C3 7938   5.647   3.297   2.882  0.8498  0.6183  0.1392
   84SLPC    HX 7939   5.692   3.254   2.790 -1.9012  3.4104 -2.7434
   84SLPC    HY 7940   5.715   3.278   2.968  2.6000 -0.4631 -1.3919
   84SLPC   O31 7941   5.630   3.441   2.852  0.4083  0.0453 -0.2667
   84SLPC   C31 7942   5.608   3.512   2.959  0.3917  0.3101 -0.2963
   84SLPC   O32 7943   5.625   3.479   3.073 -0.1178 -0.4835  0.2843
   84SLPC   C32 7944   5.580   3.653   2.918 -0.0051  0.9409  1.1806
   84SLPC   H2X 7945   5.504   3.641   2.837 -1.9767  0.0753  3.0745
   84SLPC   H2Y 7946   5.670   3.700   2.872 -0.0874  0.3537  0.4071
   84SLPC   C23 7947   5.511   3.192   3.383  0.4393 -0.8983 -0.4150
   84SLPC   H3R 7948   5.614   3.233   3.393  0.1731 -0.6151  1.6045
   84SLPC   H3S 7949   5.513   3.085   3.354 -1.3551 -0.5015 -2.1777
   84SLPC   C24 7950   5.446   3.208   3.519  0.0787 -0.6957  0.2206
   84SLPC   H4R 7951   5.490   3.131   3.587  0.2354  0.4561  1.4608
   84SLPC   H4S 7952   5.340   3.176   3.513  0.0097 -0.4138 -0.0870
   84SLPC   C25 7953   5.457   3.352   3.582 -0.2342  0.5154  0.3107
   84SLPC   H5R 7954   5.395   3.424   3.525 -0.2042 -0.2904 -0.7717
   84SLPC   H5S 7955   5.560   3.391   3.576 -0.0355  0.3087  1.9500
   84SLPC   C26 7956   5.413   3.358   3.727 -0.3281  0.4001 -0.8625
   84SLPC   H6R 7957   5.325   3.291   3.733  0.4317 -0.6235 -0.9113
   84SLPC   H6S 7958   5.384   3.461   3.757  3.0673  1.1654  0.2873
   84SLPC   C27 7959   5.512   3.316   3.840 -0.5230 -0.1674 -0.7628
   84SLPC   H7R 7960   5.559   3.407   3.882  2.2278 -2.3925  1.3435
   84SLPC   H7S 7961   5.594   3.257   3.796 -0.1901 -0.9198  0.8260
   84SLPC   C28 7962   5.443   3.235   3.951 -0.6100 -0.5375  0.1584
   84SLPC   H8R 7963   5.518   3.199   4.025 -2.4886 -2.8385  1.0284
   84SLPC   H8S 7964   5.405   3.143   3.902 -1.0540  0.0589 -0.6469
   84SLPC   C29 7965   5.328   3.303   4.020  0.0530 -0.1441  0.6282
   84SLPC   H9R 7966   5.245   3.329   3.952 -0.4097 -1.1582  0.7849
   84SLPC  C210 7967   5.324   3.337   4.148  0.3226 -0.3998  0.2363
   84SLPC  H10R 7968   5.236   3.393   4.182  0.5574 -0.6227  1.2444
   84SLPC  C211 7969   5.422   3.299   4.252 -0.5316  0.5065 -0.5123
   84SLPC  H11R 7970   5.509   3.368   4.247 -0.7725  0.8257 -0.3323
   84SLPC  H11S 7971   5.461   3.195   4.239  0.1573  0.8541 -1.3569
   84SLPC  C212 7972   5.364   3.319   4.391  0.0495 -0.1427 -0.0778
   84SLPC  H12R 7973   5.370   3.423   4.426  3.8240 -0.7350  1.5334
   84SLPC  C213 7974   5.333   3.220   4.471  0.7625  0.4548 -0.2970
   84SLPC  H13R 7975   5.295   3.257   4.567  0.7019 -0.2127 -0.0628
   84SLPC  C214 7976   5.314   3.075   4.435  0.6580 -0.3342  0.1128
   84SLPC  H14R 7977   5.305   3.074   4.325  0.6829 -2.1085  0.0891
   84SLPC  H14S 7978   5.220   3.029   4.474  0.6401 -0.6559 -0.3046
   84SLPC  C215 7979   5.442   2.994   4.467  0.0609  0.0061 -0.2332
   84SLPC  H15R 7980   5.473   3.010   4.572 -4.2713  0.4371  1.1513
   84SLPC  H15S 7981   5.527   3.040   4.412  0.8638 -0.9874  0.1595
   84SLPC  C216 7982   5.432   2.848   4.447 -0.6288  0.2633 -0.4585
   84SLPC  H16R 7983   5.359   2.791   4.509 -0.4895 -0.2490 -0.7581
   84SLPC  H16S 7984   5.531   2.805   4.474 -1.0751 -2.2213 -2.3593
   84SLPC  C217 7985   5.420   2.805   4.306 -0.5881 -0.4731 -0.0947
   84SLPC  H17R 7986   5.503   2.851   4.249 -0.6010  1.7090  1.5167
   84SLPC  H17S 7987   5.328   2.844   4.257 -0.6082  0.9615  1.0139
   84SLPC  C218 7988   5.421   2.649   4.286  0.0911  0.1122  0.3125
   84SLPC  H18R 7989   5.516   2.612   4.329 -0.2335 -0.8049  0.2650
   84SLPC  H18S 7990   5.421   2.622   4.179 -0.6175 -0.4614  0.4486
   84SLPC  H18T 7991   5.338   2.598   4.341  2.1546 -2.2765  1.3881
   84SLPC   C33 7992   5.538   3.734   3.035 -0.2335 -0.2070 -0.1850
   84SLPC   H3X 7993   5.530   3.841   3.008  0.3930 -0.1299 -0.0866
   84SLPC   H3Y 7994   5.612   3.723   3.118  1.1127 -0.8377 -1.4261
   84SLPC   C34 7995   5.403   3.687   3.088 -0.0844 -0.4141  0.2465
   84SLPC   H4X 7996   5.412   3.579   3.112  1.1609 -0.4614 -0.3664
   84SLPC   H4Y 7997   5.341   3.700   2.997  2.6780  1.4227 -1.5254
   84SLPC   C35 7998   5.358   3.773   3.204  0.3895  0.3492 -0.6059
   84SLPC   H5X 7999   5.249   3.755   3.206  0.4024  0.1966 -1.1100
   84SLPC   H5Y 8000   5.387   3.875   3.172  0.8202  0.7721  1.0696
   84SLPC   C36 8001   5.414   3.724   3.339  0.1298 -0.4614 -0.3685
   84SLPC   H6X 8002   5.524   3.742   3.335 -0.0073  0.2192 -2.6086
   84SLPC   H6Y 8003   5.392   3.615   3.348  1.9408 -0.7361  1.7290
   84SLPC   C37 8004   5.356   3.797   3.462 -1.0074 -0.0069  0.0969
   84SLPC   H7X 8005   5.247   3.777   3.459 -0.6188 -2.3162 -2.2179
   84SLPC   H7Y 8006   5.357   3.907   3.443  3.0855 -0.0120 -0.5822
   84SLPC   C38 8007   5.426   3.762   3.596  0.2034 -0.0907  0.0766
   84SLPC   H8X 8008   5.528   3.806   3.590 -0.3795  1.2235 -0.6501
   84SLPC   H8Y 8009   5.436   3.655   3.624 -0.4312 -0.6022 -1.5122
   84SLPC   C39 8010   5.358   3.815   3.724  0.2718  0.3021  0.1259
   84SLPC   H9X 8011   5.255   3.773   3.717  0.2597  0.0825  1.3694
   84SLPC   H9Y 8012   5.352   3.924   3.748 -0.8884  0.2235  0.2696
   84SLPC  C310 8013   5.422   3.748   3.851 -0.0260  0.2310 -0.4279
   84SLPC  H10X 8014   5.528   3.780   3.853  0.1093 -0.1261 -1.4708
   84SLPC  H10Y 8015   5.415   3.639   3.833  1.4438  0.0777 -0.1526
   84SLPC  C311 8016   5.356   3.784   3.983 -0.2110  0.0996 -0.4943
   84SLPC  H11X 8017   5.253   3.743   3.976  0.2081 -1.0269 -0.2001
   84SLPC  H11Y 8018   5.333   3.893   3.984 -1.4466 -0.0848 -2.5279
   84SLPC  C312 8019   5.430   3.747   4.106 -0.2994 -0.0172 -0.2590
   84SLPC  H12X 8020   5.517   3.816   4.112 -0.8170  0.5753  0.6076
   84SLPC  H12Y 8021   5.473   3.644   4.103  1.1470  0.5308  0.5949
   84SLPC  C313 8022   5.348   3.754   4.240  0.3184 -0.6539  0.2644
   84SLPC  H13X 8023   5.323   3.651   4.274 -0.4616 -0.1929  1.1508
   84SLPC  H13Y 8024   5.244   3.788   4.221  0.3577  1.0726  2.6127
   84SLPC  C314 8025   5.402   3.839   4.360 -0.4600  0.0181 -0.0220
   84SLPC  H14X 8026   5.336   3.928   4.376 -0.4672 -0.1614  1.0528
   84SLPC  H14Y 8027   5.501   3.877   4.326 -0.2562 -0.0969  0.4335
   84SLPC  C315 8028   5.428   3.767   4.499 -0.6501 -0.0624  0.4710
   84SLPC  H15X 8029   5.482   3.846   4.556  0.1576 -0.0805 -0.2529
   84SLPC  H15Y 8030   5.497   3.683   4.474 -1.3342 -0.5608  0.2318
   84SLPC  C316 8031   5.308   3.719   4.571 -0.2274 -0.5167  0.0864
   84SLPC  H16X 8032   5.346   3.665   4.660  0.0129 -0.9063 -0.2493
   84SLPC  H16Y 8033   5.252   3.642   4.513 -0.0184 -2.7519  2.6471
   84SLPC  C317 8034   5.217   3.833   4.616  0.0032  0.0502 -0.3144
   84SLPC  H17X 8035   5.192   3.911   4.541 -0.2037  0.6636  0.3816
   84SLPC  H17Y 8036   5.280   3.894   4.685  2.2030  0.2938 -2.3757
   84SLPC  C318 8037   5.088   3.790   4.681 -0.3451  0.7731 -0.0155
   84SLPC  H18X 8038   5.034   3.711   4.624  0.6378  0.2915 -0.3051
   84SLPC  H18Y 8039   5.014   3.873   4.684  1.5371  2.6935 -1.9421
   84SLPC  H18Z 8040   5.106   3.762   4.787  1.9645  3.3882  0.3952
   85SLPC     N 8041   3.220   2.193   2.289 -0.1966  0.1654  0.6881
   85SLPC   C13 8042   3.161   2.322   2.259 -0.2918  0.0190  0.1792
   85SLPC  H13A 8043   3.216   2.397   2.315  1.1947 -1.1994  0.4168
   85SLPC  H13B 8044   3.162   2.345   2.153 -0.8337 -0.6943  0.0126
   85SLPC  H13C 8045   3.058   2.327   2.291 -0.6959  0.1579 -1.1008
   85SLPC   C14 8046   3.361   2.185   2.224  0.3719  0.6557  0.2516
   85SLPC  H14A 8047   3.410   2.097   2.264  3.1640  1.9163 -0.1624
   85SLPC  H14B 8048   3.357   2.177   2.116  0.7038 -1.9200  0.3507
   85SLPC  H14C 8049   3.423   2.268   2.255 -0.4981  1.3996  0.0386
   85SLPC   C15 8050   3.148   2.087   2.221 -0.8394 -0.5263 -0.2962
   85SLPC  H15A 8051   3.048   2.089   2.264 -0.3448 -0.0599  0.8869
   85SLPC  H15B 8052   3.143   2.107   2.115 -0.6621 -0.3883 -0.2783
   85SLPC  H15C 8053   3.185   1.989   2.245 -0.8030 -0.5634 -0.5051
   85SLPC   C12 8054   3.222   2.175   2.438  0.2040 -0.1250 -0.2582
   85SLPC  H12A 8055   3.118   2.173   2.470 -0.3267 -3.0476 -1.8031
   85SLPC  H12B 8056   3.258   2.269   2.477 -0.8683  0.1778  0.0652
   85SLPC   C11 8057   3.305   2.062   2.500  1.3454 -0.2396  0.2350
   85SLPC  H11A 8058   3.299   2.066   2.611 -0.7750 -1.9773  0.2315
   85SLPC  H11B 8059   3.412   2.075   2.473  0.9491  0.5940 -1.0180
   85SLPC     P 8060   3.124   1.878   2.526 -0.1376 -0.0119  0.6044
   85SLPC   O13 8061   3.032   1.991   2.555  0.1761 -0.7567 -0.0807
   85SLPC   O14 8062   3.074   1.765   2.445  0.1691 -0.5946  0.2630
   85SLPC   O12 8063   3.258   1.937   2.457 -0.1764  0.5021  0.6460
   85SLPC   O11 8064   3.175   1.811   2.657 -0.9138  0.0687  0.0684
   85SLPC    C1 8065   3.310   1.766   2.669  0.9297 -0.1458 -0.0285
   85SLPC    HA 8066   3.318   1.678   2.602 -1.5058 -0.5088  0.0852
   85SLPC    HB 8067   3.376   1.841   2.620  1.7578 -0.5224  0.4849
   85SLPC    C2 8068   3.365   1.752   2.810 -0.6027 -0.4898  0.0506
   85SLPC    HS 8069   3.474   1.729   2.804 -0.6597 -0.5275 -0.9330
   85SLPC   O21 8070   3.289   1.652   2.881  0.4862 -0.3935 -1.1736
   85SLPC   C21 8071   3.313   1.534   2.841 -0.1095 -0.2436 -0.9423
   85SLPC   O22 8072   3.391   1.499   2.758 -0.4367 -0.1336 -0.1873
   85SLPC   C22 8073   3.232   1.439   2.922  0.5700 -0.0468 -0.8088
   85SLPC   H2R 8074   3.125   1.466   2.933  0.3664  0.0173 -2.6001
   85SLPC   H2S 8075   3.213   1.356   2.850 -3.6192  1.3657 -1.6355
   85SLPC    C3 8076   3.359   1.898   2.880 -0.3113 -0.4405 -1.1974
   85SLPC    HX 8077   3.259   1.946   2.885 -0.2274 -0.3800  1.2001
   85SLPC    HY 8078   3.429   1.957   2.818  0.0613  0.0555 -0.3201
   85SLPC   O31 8079   3.409   1.895   3.008 -0.3641  0.2134 -0.3627
   85SLPC   C31 8080   3.322   1.863   3.110 -0.5510  0.3443 -0.1123
   85SLPC   O32 8081   3.208   1.833   3.090  0.6727  0.0968 -0.2285
   85SLPC   C32 8082   3.409   1.854   3.238  0.4376  0.3111  0.6351
   85SLPC   H2X 8083   3.513   1.890   3.226  0.7767 -0.5243  1.0534
   85SLPC   H2Y 8084   3.416   1.748   3.268  1.9723  0.3239  0.3737
   85SLPC   C23 8085   3.294   1.389   3.056  0.1254  0.0750  0.5121
   85SLPC   H3R 8086   3.398   1.352   3.040 -0.2061 -0.4909 -0.3565
   85SLPC   H3S 8087   3.230   1.303   3.084 -0.8487  0.7932  0.5340
   85SLPC   C24 8088   3.293   1.487   3.168 -0.3849 -0.2311 -0.6729
   85SLPC   H4R 8089   3.192   1.521   3.196  0.0106  0.3861  0.0447
   85SLPC   H4S 8090   3.337   1.584   3.134 -0.2178 -0.2928 -0.6361
   85SLPC   C25 8091   3.374   1.417   3.276 -0.1476 -0.3155 -0.9081
   85SLPC   H5R 8092   3.340   1.311   3.276 -0.7855 -0.1660  1.3270
   85SLPC   H5S 8093   3.483   1.427   3.258  0.2112  0.7947  1.5384
   85SLPC   C26 8094   3.345   1.476   3.406 -0.2788 -0.6945 -0.1782
   85SLPC   H6R 8095   3.234   1.474   3.415 -0.2925  1.3685  0.6394
   85SLPC   H6S 8096   3.378   1.582   3.412  1.3170 -1.0867 -1.4810
   85SLPC   C27 8097   3.406   1.392   3.517 -0.4668  1.0456 -0.6774
   85SLPC   H7R 8098   3.517   1.390   3.522 -0.5185  0.7137  2.3348
   85SLPC   H7S 8099   3.378   1.286   3.498 -0.5507  0.9825 -0.2278
   85SLPC   C28 8100   3.352   1.423   3.656  0.0189 -0.4166 -0.3178
   85SLPC   H8R 8101   3.367   1.331   3.717 -0.9455 -0.6242 -0.3818
   85SLPC   H8S 8102   3.242   1.436   3.646 -0.0821 -0.2667  0.7886
   85SLPC   C29 8103   3.420   1.538   3.723 -0.1566  0.6323 -0.0375
   85SLPC   H9R 8104   3.465   1.610   3.653  1.8847 -0.3771  0.1655
   85SLPC  C210 8105   3.458   1.535   3.855 -0.5590 -1.0026 -0.3520
   85SLPC  H10R 8106   3.512   1.624   3.891 -1.0498 -0.7562 -0.2090
   85SLPC  C211 8107   3.434   1.437   3.965 -0.0200  0.0766  0.7835
   85SLPC  H11R 8108   3.493   1.346   3.941  1.8392  1.8351 -1.8425
   85SLPC  H11S 8109   3.329   1.400   3.965 -0.4496  1.1069 -2.1355
   85SLPC  C212 8110   3.462   1.484   4.105 -0.3424 -0.4576  0.2370
   85SLPC  H12R 8111   3.415   1.582   4.119 -0.2331 -0.6993  2.7832
   85SLPC  C213 8112   3.517   1.417   4.205 -0.4717  0.2479  0.2208
   85SLPC  H13R 8113   3.540   1.475   4.296 -2.1201 -0.0556  0.8615
   85SLPC  C214 8114   3.566   1.275   4.199 -0.6266 -1.1288  0.2304
   85SLPC  H14R 8115   3.534   1.222   4.107  0.5540 -0.9398 -0.3062
   85SLPC  H14S 8116   3.512   1.227   4.283  0.4941 -0.4237  1.3889
   85SLPC  C215 8117   3.723   1.267   4.214 -0.0153  0.4077 -0.6772
   85SLPC  H15R 8118   3.749   1.161   4.232  0.9504  0.8918  0.8901
   85SLPC  H15S 8119   3.749   1.315   4.310 -0.1412 -0.7484 -0.0479
   85SLPC  C216 8120   3.800   1.320   4.095 -0.4663  0.6332 -0.2802
   85SLPC  H16R 8121   3.763   1.425   4.085 -0.0350  0.7832 -0.3013
   85SLPC  H16S 8122   3.772   1.270   4.000 -1.3690 -0.4389  0.5285
   85SLPC  C217 8123   3.949   1.317   4.115  0.0605 -0.4132  0.0983
   85SLPC  H17R 8124   3.990   1.215   4.130  2.7919  0.4925 -0.5388
   85SLPC  H17S 8125   3.982   1.370   4.207 -0.8601  0.4029 -0.0248
   85SLPC  C218 8126   4.041   1.387   4.012 -0.5481 -1.0748 -0.5933
   85SLPC  H18R 8127   3.989   1.438   3.928 -0.8080  2.8031  1.6775
   85SLPC  H18S 8128   4.111   1.314   3.966 -0.1108  0.0610 -1.7703
   85SLPC  H18T 8129   4.105   1.456   4.071 -2.2936 -0.3521  0.5356
   85SLPC   C33 8130   3.339   1.912   3.356  0.5916 -0.5662  0.3038
   85SLPC   H3X 8131   3.239   1.871   3.383  0.6070 -2.4590 -2.1819
   85SLPC   H3Y 8132   3.332   2.022   3.337  1.6258 -0.8263 -1.9013
   85SLPC   C34 8133   3.434   1.896   3.479  0.2486 -0.4136  0.3487
   85SLPC   H4X 8134   3.520   1.966   3.475 -0.6018  0.7448  1.4849
   85SLPC   H4Y 8135   3.471   1.794   3.501  0.5098 -0.5386 -0.6119
   85SLPC   C35 8136   3.355   1.923   3.608  0.0689 -0.1950  0.0738
   85SLPC   H5X 8137   3.280   1.845   3.629  0.0572  0.2718  1.9328
   85SLPC   H5Y 8138   3.314   2.026   3.605 -0.8731 -0.4915  1.7805
   85SLPC   C36 8139   3.444   1.908   3.735  0.4073  0.2664 -0.6157
   85SLPC   H6X 8140   3.508   1.998   3.745  0.8673 -0.2169  1.2627
   85SLPC   H6Y 8141   3.508   1.817   3.728 -1.0643 -0.6895 -2.4632
   85SLPC   C37 8142   3.363   1.900   3.862 -0.5831 -0.3112 -0.1182
   85SLPC   H7X 8143   3.298   1.810   3.856 -0.3605 -0.5134  0.4156
   85SLPC   H7Y 8144   3.291   1.983   3.847 -1.6961 -0.9181  1.6072
   85SLPC   C38 8145   3.456   1.913   3.986 -0.2460  0.5314 -0.0939
   85SLPC   H8X 8146   3.512   2.007   3.969  2.4165 -0.5870  1.8756
   85SLPC   H8Y 8147   3.530   1.831   3.993 -0.2954  0.4787 -0.1878
   85SLPC   C39 8148   3.372   1.926   4.118  0.0102 -0.3422  0.2641
   85SLPC   H9X 8149   3.330   1.829   4.151  0.4310  0.7454  4.5878
   85SLPC   H9Y 8150   3.288   1.994   4.089  1.6348  1.5261 -0.2422
   85SLPC  C310 8151   3.463   1.994   4.224 -0.1231 -0.3765 -0.3241
   85SLPC  H10X 8152   3.406   2.012   4.318  1.2774 -2.2190  0.9613
   85SLPC  H10Y 8153   3.497   2.095   4.195 -1.0347  0.0108 -0.0460
   85SLPC  C311 8154   3.584   1.911   4.269  0.0006 -0.9876 -0.1070
   85SLPC  H11X 8155   3.650   1.913   4.180 -1.0436 -0.2792 -0.8991
   85SLPC  H11Y 8156   3.541   1.811   4.293 -2.1454  0.6797  3.8527
   85SLPC  C312 8157   3.660   1.948   4.400 -0.6490 -0.0410  1.0957
   85SLPC  H12X 8158   3.596   1.950   4.491  0.7015  0.8452  2.0577
   85SLPC  H12Y 8159   3.692   2.054   4.390  1.8815 -0.9101 -1.1457
   85SLPC  C313 8160   3.779   1.858   4.443 -0.3088 -0.5820  0.3586
   85SLPC  H13X 8161   3.834   1.923   4.514  0.0946 -0.1430 -0.3474
   85SLPC  H13Y 8162   3.849   1.824   4.363  1.4780 -2.0274  2.4123
   85SLPC  C314 8163   3.740   1.730   4.525 -0.0001  0.0365  0.2086
   85SLPC  H14X 8164   3.657   1.678   4.472 -1.6394  1.0323  1.6473
   85SLPC  H14Y 8165   3.706   1.761   4.626  0.4889  0.3330  0.2822
   85SLPC  C315 8166   3.856   1.629   4.547  0.3985 -0.0638 -0.6205
   85SLPC  H15X 8167   3.945   1.691   4.572 -0.0673  0.0814  0.7306
   85SLPC  H15Y 8168   3.877   1.585   4.447 -1.7336 -1.0894 -0.6556
   85SLPC  C316 8169   3.851   1.509   4.646  0.2614 -0.2687  0.3400
   85SLPC  H16X 8170   3.751   1.461   4.645  0.5842 -0.9681 -0.9449
   85SLPC  H16Y 8171   3.877   1.540   4.750 -1.0655 -3.0524  1.5841
   85SLPC  C317 8172   3.959   1.403   4.618  0.3283 -0.0424  0.5592
   85SLPC  H17X 8173   3.917   1.329   4.547 -0.2821  2.4726 -1.9079
   85SLPC  H17Y 8174   3.971   1.346   4.713  1.7575  0.3096  0.6042
   85SLPC  C318 8175   4.097   1.447   4.567 -0.4829 -0.0404 -0.0103
   85SLPC  H18X 8176   4.072   1.500   4.473 -1.8142 -0.3704  0.1279
   85SLPC  H18Y 8177   4.155   1.354   4.547 -1.4999 -1.5535  3.3423
   85SLPC  H18Z 8178   4.135   1.519   4.643 -0.2344 -0.1120 -0.0658
   86SLPC     N 8179   3.868   5.729   2.060 -0.3238 -0.1890  0.2055
   86SLPC   C13 8180   3.721   5.746   2.099  0.0193 -0.2057 -0.0274
   86SLPC  H13A 8181   3.664   5.772   2.012 -0.9445 -1.3622  0.2343
   86SLPC  H13B 8182   3.683   5.659   2.151  0.9049  0.3267  1.6122
   86SLPC  H13C 8183   3.710   5.833   2.162  1.4866 -0.0933  0.1020
   86SLPC   C14 8184   3.906   5.835   1.966 -0.1550  0.1666  0.2159
   86SLPC  H14A 8185   3.854   5.819   1.873 -3.0522 -1.0832  1.9157
   86SLPC  H14B 8186   3.887   5.935   2.002 -2.0402 -0.3518  0.7812
   86SLPC  H14C 8187   4.012   5.829   1.948  0.1484 -0.2175  1.9582
   86SLPC   C15 8188   3.875   5.599   1.991 -0.2327  0.2557 -0.1132
   86SLPC  H15A 8189   3.956   5.576   1.924 -0.9228 -0.4827 -0.7280
   86SLPC  H15B 8190   3.878   5.513   2.057 -0.1758  1.6992  1.8247
   86SLPC  H15C 8191   3.799   5.584   1.915  2.7337 -3.8365 -2.7467
   86SLPC   C12 8192   3.948   5.740   2.191 -0.1322  0.4507  0.8645
   86SLPC  H12A 8193   4.053   5.722   2.171 -0.6264  0.6054 -2.6036
   86SLPC  H12B 8194   3.908   5.663   2.254  1.5339 -0.2489  1.1344
   86SLPC   C11 8195   3.936   5.868   2.271  0.2760  0.7031 -0.1546
   86SLPC  H11A 8196   3.992   5.867   2.367  2.8260  2.9613 -1.4815
   86SLPC  H11B 8197   3.827   5.881   2.287  0.2946  1.4723 -0.5758
   86SLPC     P 8198   4.137   6.033   2.214 -0.0612 -0.3362  0.7235
   86SLPC   O13 8199   4.232   5.963   2.117  0.2905 -0.0327 -0.1241
   86SLPC   O14 8200   4.131   6.180   2.209 -0.5617  0.4190  0.0951
   86SLPC   O12 8201   3.992   5.976   2.188  0.6835  0.0512  0.1864
   86SLPC   O11 8202   4.174   5.982   2.368  0.1557 -0.0557  0.4792
   86SLPC    C1 8203   4.277   5.894   2.406 -0.1727 -0.0719 -0.0198
   86SLPC    HA 8204   4.259   5.791   2.368 -0.3504 -0.3724  0.8489
   86SLPC    HB 8205   4.376   5.933   2.375  0.6135 -0.5534  1.7439
   86SLPC    C2 8206   4.279   5.881   2.564 -0.4232 -0.3505  0.6752
   86SLPC    HS 8207   4.364   5.813   2.586  0.4979 -0.5754 -3.0073
   86SLPC   O21 8208   4.162   5.821   2.618  0.3584  0.4161  0.3502
   86SLPC   C21 8209   4.150   5.685   2.605  0.0152 -0.2825  0.1715
   86SLPC   O22 8210   4.236   5.617   2.547  0.6927  0.0401  0.4416
   86SLPC   C22 8211   4.029   5.639   2.679  0.0204 -0.1896  0.2322
   86SLPC   H2R 8212   3.945   5.705   2.647 -0.9564 -1.2600  0.5006
   86SLPC   H2S 8213   4.007   5.533   2.657 -0.9282  0.2483 -1.0975
   86SLPC    C3 8214   4.326   6.013   2.642  0.3921 -0.1184 -0.5961
   86SLPC    HX 8215   4.248   6.084   2.607 -0.9322 -1.6458 -0.8727
   86SLPC    HY 8216   4.430   6.031   2.609  0.3917 -0.4499 -0.7873
   86SLPC   O31 8217   4.339   5.993   2.788 -0.4070 -0.5546  0.1671
   86SLPC   C31 8218   4.280   6.073   2.867 -0.3429 -0.1130  0.0978
   86SLPC   O32 8219   4.205   6.163   2.845  0.1357 -0.0426  0.1084
   86SLPC   C32 8220   4.315   6.035   3.014  0.0581  0.3917 -0.3407
   86SLPC   H2X 8221   4.424   6.018   3.030 -0.2230 -1.2660 -0.0845
   86SLPC   H2Y 8222   4.270   5.935   3.027  0.5639  0.1644 -0.2970
   86SLPC   C23 8223   4.046   5.653   2.830  0.0708 -0.5919 -0.3173
   86SLPC   H3R 8224   3.949   5.618   2.871 -0.8401 -0.2333 -2.0369
   86SLPC   H3S 8225   4.052   5.761   2.856 -1.7835 -0.2174 -1.2490
   86SLPC   C24 8226   4.153   5.571   2.902  0.3877  0.0626  0.1445
   86SLPC   H4R 8227   4.244   5.595   2.842  0.5492 -1.0448 -0.0794
   86SLPC   H4S 8228   4.122   5.464   2.900  0.5802  0.0134 -0.6122
   86SLPC   C25 8229   4.173   5.631   3.042  0.5037  0.0385 -0.7087
   86SLPC   H5R 8230   4.155   5.740   3.033 -0.0197  0.5163  3.9112
   86SLPC   H5S 8231   4.275   5.620   3.084 -0.0441 -0.1626  0.6168
   86SLPC   C26 8232   4.067   5.573   3.131  0.1245 -0.3869  0.1734
   86SLPC   H6R 8233   4.070   5.462   3.127  1.3730 -0.3655  0.2944
   86SLPC   H6S 8234   3.962   5.600   3.107  0.2919 -0.2975 -0.4856
   86SLPC   C27 8235   4.092   5.614   3.275  0.5973  0.3901 -0.0394
   86SLPC   H7R 8236   4.116   5.723   3.269  1.8819  0.0802 -0.9788
   86SLPC   H7S 8237   4.183   5.561   3.310 -0.4764 -1.3085  0.2759
   86SLPC   C28 8238   3.972   5.582   3.366 -0.3302 -0.3053 -0.5178
   86SLPC   H8R 8239   3.958   5.472   3.354 -0.3067 -0.1147 -2.9695
   86SLPC   H8S 8240   3.883   5.636   3.327 -0.4106  1.8907  2.3830
   86SLPC   C29 8241   4.008   5.630   3.503  0.6530 -1.0549  0.1405
   86SLPC   H9R 8242   4.073   5.719   3.515  0.4722 -0.7996 -0.7100
   86SLPC  C210 8243   3.967   5.567   3.617  0.6488 -0.3069  0.2787
   86SLPC  H10R 8244   3.991   5.606   3.717 -2.0144 -1.1940  1.3448
   86SLPC  C211 8245   3.893   5.434   3.613  0.0139  0.0976 -0.0917
   86SLPC  H11R 8246   3.962   5.348   3.606  0.3635  0.2534  1.1077
   86SLPC  H11S 8247   3.827   5.425   3.524  2.2689 -0.8044 -1.7648
   86SLPC  C212 8248   3.805   5.430   3.743 -0.0128 -0.7404  1.1588
   86SLPC  H12R 8249   3.698   5.450   3.729  0.0454 -0.6247  0.8742
   86SLPC  C213 8250   3.852   5.404   3.863 -0.0531  0.6063  0.8298
   86SLPC  H13R 8251   3.777   5.403   3.943  0.9011 -0.7823  1.7555
   86SLPC  C214 8252   3.989   5.353   3.902  0.3272 -0.0295  0.3304
   86SLPC  H14R 8253   4.045   5.421   3.969  2.0003  0.6238 -1.6310
   86SLPC  H14S 8254   4.055   5.320   3.818 -0.2765 -2.9814  0.8890
   86SLPC  C215 8255   3.974   5.227   3.995  0.2367  0.2136 -1.5301
   86SLPC  H15R 8256   3.937   5.138   3.942  0.3950 -1.1468  0.5350
   86SLPC  H15S 8257   3.909   5.262   4.078  2.2603 -2.0726  1.2167
   86SLPC  C216 8258   4.100   5.170   4.061  0.3699  0.5125 -0.1233
   86SLPC  H16R 8259   4.144   5.240   4.135  0.6889 -1.2683  1.4507
   86SLPC  H16S 8260   4.184   5.162   3.987  1.1608  0.3641  0.7698
   86SLPC  C217 8261   4.077   5.030   4.116  0.0892  0.7370 -0.1237
   86SLPC  H17R 8262   4.036   4.956   4.045 -0.8024  0.4367  0.6950
   86SLPC  H17S 8263   4.002   5.028   4.198 -0.7344 -3.7099 -0.7256
   86SLPC  C218 8264   4.207   4.975   4.162  0.0885 -0.3199  0.3166
   86SLPC  H18R 8265   4.269   4.936   4.079 -0.2415  0.1902 -0.1723
   86SLPC  H18S 8266   4.189   4.892   4.234  1.6526  0.2067  1.3692
   86SLPC  H18T 8267   4.256   5.053   4.224 -0.8570  1.3850 -0.9841
   86SLPC   C33 8268   4.249   6.135   3.114 -0.3922 -0.0579  0.1762
   86SLPC   H3X 8269   4.161   6.188   3.072  0.6498  1.9738  0.4547
   86SLPC   H3Y 8270   4.312   6.225   3.130  1.3165 -1.4401  1.6404
   86SLPC   C34 8271   4.223   6.066   3.247  0.4108 -0.2269 -0.3322
   86SLPC   H4X 8272   4.145   5.992   3.222 -0.7596  1.0658 -0.6474
   86SLPC   H4Y 8273   4.182   6.140   3.319 -0.6604  0.0593 -1.2148
   86SLPC   C35 8274   4.355   6.011   3.309 -0.4702  0.7003  0.5689
   86SLPC   H5X 8275   4.427   6.095   3.316 -0.8958  0.9931  1.8414
   86SLPC   H5Y 8276   4.402   5.934   3.245  1.4673  1.9687  0.3872
   86SLPC   C36 8277   4.339   5.953   3.448  0.2396 -0.3198  0.1697
   86SLPC   H6X 8278   4.243   5.899   3.458  0.4658 -0.9600 -0.9466
   86SLPC   H6Y 8279   4.344   6.042   3.514  0.6892  0.9392 -1.5194
   86SLPC   C37 8280   4.449   5.847   3.476  0.1653 -0.2504 -0.7677
   86SLPC   H7X 8281   4.535   5.864   3.407 -0.5831  0.4400 -1.5426
   86SLPC   H7Y 8282   4.404   5.752   3.439  2.1399 -1.5335 -0.0759
   86SLPC   C38 8283   4.497   5.832   3.619 -0.4424  0.3919  0.1101
   86SLPC   H8X 8284   4.561   5.921   3.638 -1.1866  0.6134  1.8326
   86SLPC   H8Y 8285   4.571   5.749   3.624 -1.7616 -0.7449  1.4910
   86SLPC   C39 8286   4.396   5.813   3.729  0.2089  1.1772  0.0042
   86SLPC   H9X 8287   4.371   5.706   3.745  1.7415  1.0556  1.9862
   86SLPC   H9Y 8288   4.304   5.872   3.706  0.6757  1.4778 -1.1490
   86SLPC  C310 8289   4.453   5.863   3.864 -0.2889  0.1008  0.0143
   86SLPC  H10X 8290   4.493   5.966   3.854 -0.8326  0.4700  1.4670
   86SLPC  H10Y 8291   4.528   5.790   3.899  0.9788  1.9956  1.4183
   86SLPC  C311 8292   4.343   5.870   3.967 -0.1584  0.1867 -0.3657
   86SLPC  H11X 8293   4.288   5.773   3.968 -1.6994  1.0215 -0.2866
   86SLPC  H11Y 8294   4.276   5.956   3.945  0.1254  0.2772 -0.8920
   86SLPC  C312 8295   4.393   5.884   4.105  0.6137  0.3830 -0.0170
   86SLPC  H12X 8296   4.303   5.894   4.170 -0.4951  3.1250 -1.7854
   86SLPC  H12Y 8297   4.448   5.980   4.114  1.4512 -0.0702 -0.2631
   86SLPC  C313 8298   4.479   5.770   4.161  0.4683 -0.0101 -0.7776
   86SLPC  H13X 8299   4.576   5.765   4.107  0.9981 -3.8373  0.2339
   86SLPC  H13Y 8300   4.427   5.673   4.146  0.6398 -0.1740 -0.3217
   86SLPC  C314 8301   4.493   5.774   4.317 -0.5040 -0.0349 -0.5000
   86SLPC  H14X 8302   4.551   5.686   4.352  0.3731 -0.0367 -1.8563
   86SLPC  H14Y 8303   4.393   5.769   4.365 -0.8696 -2.1911 -1.3750
   86SLPC  C315 8304   4.574   5.897   4.363 -0.6259 -0.3219  0.4517
   86SLPC  H15X 8305   4.530   5.990   4.322  1.1733  0.5842  0.4504
   86SLPC  H15Y 8306   4.673   5.895   4.312 -1.8061 -2.9312 -2.0378
   86SLPC  C316 8307   4.566   5.916   4.514 -0.7791  0.0008  0.2007
   86SLPC  H16X 8308   4.639   5.999   4.531 -1.4992  0.5954  0.4813
   86SLPC  H16Y 8309   4.605   5.831   4.573  0.7186 -0.7208 -1.7489
   86SLPC  C317 8310   4.428   5.961   4.569  0.6467  0.4112 -0.3577
   86SLPC  H17X 8311   4.364   5.870   4.569  1.6237 -0.3665 -2.8408
   86SLPC  H17Y 8312   4.387   6.047   4.511  0.7941  1.5166  1.1250
   86SLPC  C318 8313   4.432   5.999   4.719 -0.7259 -0.2007 -0.1318
   86SLPC  H18X 8314   4.479   5.923   4.785  0.6456  0.1334 -0.7056
   86SLPC  H18Y 8315   4.330   6.027   4.755 -0.2027  0.0100  1.2350
   86SLPC  H18Z 8316   4.493   6.092   4.724  0.1366 -0.6583 -1.4801
   87SLPC     N 8317   1.554   4.923   2.310 -0.1351  0.2580 -0.3253
   87SLPC   C13 8318   1.430   4.947   2.387 -0.5481 -0.1699 -0.1419
   87SLPC  H13A 8319   1.416   5.049   2.419  2.1107  0.4649 -0.7580
   87SLPC  H13B 8320   1.347   4.926   2.321  0.5573 -1.0605 -1.2938
   87SLPC  H13C 8321   1.420   4.887   2.476  0.6623 -0.3671 -0.1187
   87SLPC   C14 8322   1.548   5.010   2.196 -0.5191 -0.4114  0.2973
   87SLPC  H14A 8323   1.636   4.993   2.137 -0.2590 -2.0946  1.1279
   87SLPC  H14B 8324   1.457   4.986   2.143 -0.2733  0.7546 -0.7029
   87SLPC  H14C 8325   1.548   5.115   2.224  1.4905 -0.5456  0.9457
   87SLPC   C15 8326   1.560   4.784   2.254 -0.0028  0.1466  0.2080
   87SLPC  H15A 8327   1.509   4.751   2.165 -0.7772 -1.3353  1.1609
   87SLPC  H15B 8328   1.663   4.765   2.225 -0.7117 -1.7408 -1.2579
   87SLPC  H15C 8329   1.554   4.706   2.328  0.9544 -0.5856 -0.4504
   87SLPC   C12 8330   1.669   4.952   2.402  0.2891 -0.3103  0.7746
   87SLPC  H12A 8331   1.671   4.881   2.483  0.6775 -2.0136 -0.6706
   87SLPC  H12B 8332   1.651   5.044   2.455  0.2038 -0.3654  0.8421
   87SLPC   C11 8333   1.815   4.966   2.343 -1.1982 -0.0915  0.5644
   87SLPC  H11A 8334   1.873   5.026   2.416 -2.8394  2.7642 -0.3378
   87SLPC  H11B 8335   1.807   5.025   2.250  0.3652 -0.9264 -0.1397
   87SLPC     P 8336   1.971   4.757   2.397 -0.0715 -0.2548 -0.3199
   87SLPC   O13 8337   1.956   4.618   2.361  0.2739  0.0837  0.8352
   87SLPC   O14 8338   2.102   4.816   2.384 -0.6857 -0.0120 -0.4786
   87SLPC   O12 8339   1.868   4.837   2.303  0.4327  0.6205  0.8185
   87SLPC   O11 8340   1.913   4.780   2.540 -0.0595 -0.0166 -0.3511
   87SLPC    C1 8341   2.004   4.806   2.646  0.8942  0.0337 -0.1898
   87SLPC    HA 8342   2.042   4.709   2.684  1.4229 -0.1605 -1.1872
   87SLPC    HB 8343   2.097   4.864   2.632  1.8150 -1.0582  1.0914
   87SLPC    C2 8344   1.939   4.871   2.775  0.1372  0.3398  0.3833
   87SLPC    HS 8345   2.022   4.903   2.841  0.3848  0.3853  0.0565
   87SLPC   O21 8346   1.846   4.794   2.845 -0.0138  0.7143 -0.2251
   87SLPC   C21 8347   1.894   4.685   2.903 -0.4849  0.6732 -0.6342
   87SLPC   O22 8348   2.011   4.650   2.900 -0.0314 -1.0855  0.1893
   87SLPC   C22 8349   1.781   4.602   2.974  0.3147  0.0463 -0.8151
   87SLPC   H2R 8350   1.694   4.616   2.906 -0.2815  1.2418  0.1523
   87SLPC   H2S 8351   1.808   4.495   2.985  0.7512  0.3732  1.7447
   87SLPC    C3 8352   1.859   5.002   2.737  0.1160 -0.5272  0.0116
   87SLPC    HX 8353   1.753   4.968   2.729  0.6576 -2.3959  0.3107
   87SLPC    HY 8354   1.902   5.049   2.646  1.2446  0.4869  1.0352
   87SLPC   O31 8355   1.877   5.110   2.831  0.0075  0.2103 -0.3405
   87SLPC   C31 8356   1.799   5.217   2.818  0.2671 -0.4529  0.4538
   87SLPC   O32 8357   1.693   5.223   2.753 -0.0248 -0.4327 -0.3060
   87SLPC   C32 8358   1.865   5.337   2.891 -0.4421  0.5072 -0.6197
   87SLPC   H2X 8359   1.831   5.434   2.851 -2.0071 -0.0201 -0.6484
   87SLPC   H2Y 8360   1.974   5.322   2.878 -0.6409 -0.4808 -1.2305
   87SLPC   C23 8361   1.746   4.661   3.118  0.3148  0.1579 -0.4153
   87SLPC   H3R 8362   1.656   4.605   3.150  0.5812 -0.9067 -1.4537
   87SLPC   H3S 8363   1.720   4.769   3.108 -2.4893 -0.4184 -0.0041
   87SLPC   C24 8364   1.849   4.644   3.224  0.6105  0.2528  0.1584
   87SLPC   H4R 8365   1.950   4.662   3.181  0.9786  0.1137  0.9520
   87SLPC   H4S 8366   1.856   4.540   3.264  0.8827  0.1664 -0.1058
   87SLPC   C25 8367   1.813   4.736   3.345  0.3636  0.1779  0.0676
   87SLPC   H5R 8368   1.703   4.722   3.347  0.2168  1.0432 -0.8871
   87SLPC   H5S 8369   1.835   4.842   3.322  1.7937 -0.1435 -0.1684
   87SLPC   C26 8370   1.877   4.718   3.480  0.0292  0.9098 -0.5475
   87SLPC   H6R 8371   1.984   4.747   3.480  0.9662 -2.1871  0.2965
   87SLPC   H6S 8372   1.876   4.611   3.511  1.6458  1.4281  1.5245
   87SLPC   C27 8373   1.803   4.799   3.590  0.2050  0.1089 -0.6581
   87SLPC   H7R 8374   1.701   4.757   3.599  1.1634 -2.5568 -1.3402
   87SLPC   H7S 8375   1.793   4.905   3.558  1.0457  0.1362 -0.8717
   87SLPC   C28 8376   1.890   4.822   3.718  0.3661  0.0295  0.0349
   87SLPC   H8R 8377   1.841   4.909   3.766 -1.4795 -1.4401  0.9164
   87SLPC   H8S 8378   1.991   4.857   3.687 -0.5533 -0.2989 -3.8539
   87SLPC   C29 8379   1.903   4.704   3.811 -0.2616 -0.2791 -0.6373
   87SLPC   H9R 8380   1.922   4.612   3.755  0.8355 -0.6703  0.3437
   87SLPC  C210 8381   1.874   4.704   3.944 -0.6544 -0.1712 -0.1166
   87SLPC  H10R 8382   1.880   4.606   3.993 -0.9052  0.0535  0.3696
   87SLPC  C211 8383   1.841   4.826   4.030  0.7281  0.5887 -0.4179
   87SLPC  H11R 8384   1.747   4.800   4.083  1.2390 -1.6780 -0.5128
   87SLPC  H11S 8385   1.820   4.914   3.966  0.0899  0.9390  0.2594
   87SLPC  C212 8386   1.948   4.879   4.123 -0.5826  1.0048 -0.2974
   87SLPC  H12R 8387   2.002   4.969   4.090 -0.5788  1.1767  0.1766
   87SLPC  C213 8388   1.975   4.844   4.249  0.1211  0.3484 -0.9871
   87SLPC  H13R 8389   2.047   4.897   4.314  0.6890 -0.1570 -1.1880
   87SLPC  C214 8390   1.896   4.742   4.332  0.1979  0.5875  0.7664
   87SLPC  H14R 8391   1.937   4.640   4.320 -1.3624 -0.2780  2.3931
   87SLPC  H14S 8392   1.797   4.725   4.285  0.5747  0.1590  0.1227
   87SLPC  C215 8393   1.885   4.781   4.477  0.1378  0.5782 -0.0782
   87SLPC  H15R 8394   1.804   4.722   4.527  0.2531 -0.4417 -1.0599
   87SLPC  H15S 8395   1.851   4.886   4.486  0.0303  0.6041 -0.7512
   87SLPC  C216 8396   2.017   4.771   4.552  0.4463 -0.3909 -0.3404
   87SLPC  H16R 8397   2.000   4.810   4.654  0.1700  0.0647 -0.5601
   87SLPC  H16S 8398   2.098   4.830   4.505 -1.3125 -1.1071 -4.7316
   87SLPC  C217 8399   2.058   4.624   4.570 -0.5930  0.1784 -0.3271
   87SLPC  H17R 8400   2.068   4.575   4.472  1.9747 -1.3212  0.5867
   87SLPC  H17S 8401   1.982   4.575   4.635  0.2836 -0.0292  0.5631
   87SLPC  C218 8402   2.193   4.607   4.628  0.1151 -0.1761  0.3307
   87SLPC  H18R 8403   2.202   4.505   4.670 -2.2522 -0.1905  0.9472
   87SLPC  H18S 8404   2.208   4.679   4.711  1.7181  0.4278 -0.4426
   87SLPC  H18T 8405   2.277   4.621   4.557 -0.1700 -0.9071 -0.1544
   87SLPC   C33 8406   1.840   5.348   3.044 -0.1717 -0.5408 -0.5747
   87SLPC   H3X 8407   1.734   5.334   3.073 -0.4028  0.6432 -0.7892
   87SLPC   H3Y 8408   1.865   5.454   3.070 -0.8879  0.2195 -2.7695
   87SLPC   C34 8409   1.948   5.276   3.124 -0.0460  0.0553 -0.3822
   87SLPC   H4X 8410   2.045   5.330   3.112  0.6616 -1.1912 -0.4813
   87SLPC   H4Y 8411   1.966   5.170   3.097  1.3494  0.0842  0.3054
   87SLPC   C35 8412   1.909   5.284   3.272 -1.4883  0.5215 -0.2547
   87SLPC   H5X 8413   1.807   5.238   3.276 -0.2525 -2.5250 -0.7235
   87SLPC   H5Y 8414   1.912   5.391   3.301 -0.9876  0.0568  1.4982
   87SLPC   C36 8415   2.001   5.208   3.366  0.6616  0.2299  0.2652
   87SLPC   H6X 8416   2.105   5.205   3.327  0.9284  0.7892  0.9213
   87SLPC   H6Y 8417   1.957   5.106   3.371 -2.9664  1.5401 -1.5176
   87SLPC   C37 8418   2.030   5.271   3.504 -0.5668 -0.0650  0.5154
   87SLPC   H7X 8419   2.038   5.382   3.494 -0.8207  0.0413  1.3876
   87SLPC   H7Y 8420   2.121   5.223   3.544 -0.0568 -0.6448 -1.2372
   87SLPC   C38 8421   1.917   5.242   3.599  0.2180  0.3270 -0.1376
   87SLPC   H8X 8422   1.913   5.132   3.618 -2.6205  0.7524  2.4155
   87SLPC   H8Y 8423   1.819   5.276   3.561 -1.0561 -0.7053  2.0438
   87SLPC   C39 8424   1.939   5.308   3.735  0.1743 -0.4778  0.1297
   87SLPC   H9X 8425   1.966   5.416   3.727  0.8141 -0.7184 -1.1311
   87SLPC   H9Y 8426   2.033   5.269   3.780  1.0173  2.5442  1.2918
   87SLPC  C310 8427   1.817   5.292   3.830 -0.1762 -0.4204 -0.0144
   87SLPC  H10X 8428   1.806   5.186   3.862  0.2658 -1.1918 -2.2367
   87SLPC  H10Y 8429   1.727   5.318   3.770  0.2246  2.3873  0.4442
   87SLPC  C311 8430   1.844   5.382   3.955 -0.5068  0.1978  0.3669
   87SLPC  H11X 8431   1.748   5.394   4.010  0.4592  1.6662  1.8290
   87SLPC  H11Y 8432   1.895   5.476   3.923  3.0018 -1.2419  1.3389
   87SLPC  C312 8433   1.935   5.304   4.052  0.4404 -0.5924 -1.0699
   87SLPC  H12X 8434   2.035   5.290   4.005  0.4885 -0.6103 -0.9630
   87SLPC  H12Y 8435   1.891   5.202   4.061 -2.0537  0.2743 -2.5260
   87SLPC  C313 8436   1.959   5.381   4.189 -0.2634  0.6077  0.3727
   87SLPC  H13X 8437   1.862   5.407   4.236 -0.6309 -0.4900  0.2518
   87SLPC  H13Y 8438   2.021   5.469   4.161 -0.3591  0.5223 -0.1228
   87SLPC  C314 8439   2.051   5.294   4.274  0.8760 -0.3881  1.2680
   87SLPC  H14X 8440   2.158   5.299   4.245  0.4429  2.1157 -0.1677
   87SLPC  H14Y 8441   2.012   5.190   4.264 -2.5501  0.8897 -0.0627
   87SLPC  C315 8442   2.035   5.334   4.422 -0.6312  0.5074  0.4037
   87SLPC  H15X 8443   1.961   5.415   4.440 -1.8908 -0.5203  0.0076
   87SLPC  H15Y 8444   2.131   5.382   4.453 -0.5658  0.0710  0.9024
   87SLPC  C316 8445   1.998   5.208   4.512 -0.2422  0.0886  0.0186
   87SLPC  H16X 8446   1.908   5.159   4.468 -0.4953 -0.9577  1.6189
   87SLPC  H16Y 8447   1.980   5.239   4.617 -0.3170  1.8080 -0.4694
   87SLPC  C317 8448   2.114   5.107   4.538  0.1993  0.0679 -0.4094
   87SLPC  H17X 8449   2.135   5.072   4.434 -0.1860  0.1590 -0.5221
   87SLPC  H17Y 8450   2.076   5.016   4.590  1.2387 -0.3646 -0.3859
   87SLPC  C318 8451   2.236   5.158   4.619  0.1947 -0.0252  0.2568
   87SLPC  H18X 8452   2.207   5.176   4.725  1.0633 -0.4171  0.5777
   87SLPC  H18Y 8453   2.270   5.259   4.589 -0.8160  0.0549 -0.6774
   87SLPC  H18Z 8454   2.324   5.091   4.612 -0.2935 -0.4982 -2.0610
   88SLPC     N 8455   2.623   5.368   2.327 -0.4738 -0.7655 -0.6851
   88SLPC   C13 8456   2.604   5.454   2.448 -0.2516 -0.2109  0.0863
   88SLPC  H13A 8457   2.550   5.543   2.420 -1.5829 -0.5493  1.4551
   88SLPC  H13B 8458   2.554   5.403   2.529 -1.1955 -1.6608 -1.3473
   88SLPC  H13C 8459   2.697   5.496   2.484  0.0038  0.8158 -1.6523
   88SLPC   C14 8460   2.678   5.444   2.214 -0.1115 -0.5273  0.0719
   88SLPC  H14A 8461   2.611   5.511   2.162  1.8621  0.4324 -1.3085
   88SLPC  H14B 8462   2.765   5.504   2.237  1.7928 -1.5320 -3.8502
   88SLPC  H14C 8463   2.709   5.373   2.140 -0.4783 -1.4274  0.7637
   88SLPC   C15 8464   2.483   5.327   2.294  0.5011 -0.4480 -0.3761
   88SLPC  H15A 8465   2.447   5.256   2.368 -0.1313  0.0783 -0.1726
   88SLPC  H15B 8466   2.416   5.411   2.282  0.0096 -0.8133 -0.2519
   88SLPC  H15C 8467   2.486   5.274   2.200 -2.1983 -0.1325 -0.7393
   88SLPC   C12 8468   2.706   5.254   2.370 -0.6194  0.4010  0.1348
   88SLPC  H12A 8469   2.663   5.213   2.460 -2.2264  0.9281 -0.3488
   88SLPC  H12B 8470   2.804   5.290   2.394 -0.3981 -0.0423 -0.0970
   88SLPC   C11 8471   2.724   5.138   2.271  0.6398 -0.6342  0.2282
   88SLPC  H11A 8472   2.622   5.112   2.235  1.1234 -0.1000 -1.6346
   88SLPC  H11B 8473   2.755   5.048   2.327  0.3244 -0.5594  0.5298
   88SLPC     P 8474   2.971   5.149   2.188 -0.1290 -0.4490 -0.0022
   88SLPC   O13 8475   2.998   5.003   2.179 -0.1661 -0.0289  0.7747
   88SLPC   O14 8476   3.042   5.233   2.093  0.3429 -0.6815  0.0635
   88SLPC   O12 8477   2.817   5.173   2.167 -0.4113 -0.5631  0.1459
   88SLPC   O11 8478   2.998   5.201   2.331  0.1794 -0.3187  0.3913
   88SLPC    C1 8479   3.040   5.339   2.342 -1.1479  0.1839 -0.0551
   88SLPC    HA 8480   3.140   5.362   2.300 -0.8420 -1.2209 -0.1628
   88SLPC    HB 8481   2.972   5.412   2.292  1.5948  2.0458 -1.3070
   88SLPC    C2 8482   3.061   5.373   2.492  0.0125  0.3215 -0.0849
   88SLPC    HS 8483   3.127   5.292   2.530  0.3133  0.4746 -0.2700
   88SLPC   O21 8484   2.929   5.365   2.560 -0.3382  0.0502 -0.1004
   88SLPC   C21 8485   2.929   5.323   2.688 -0.6174  0.6873 -0.2717
   88SLPC   O22 8486   3.022   5.271   2.741 -0.3069  0.6158  0.3679
   88SLPC   C22 8487   2.797   5.358   2.754  0.4439 -0.9626 -0.2902
   88SLPC   H2R 8488   2.780   5.463   2.724 -0.3816 -1.3467 -1.2117
   88SLPC   H2S 8489   2.715   5.305   2.701  1.7824  0.3458 -3.9343
   88SLPC    C3 8490   3.131   5.516   2.508  0.2771 -0.6083 -0.0106
   88SLPC    HX 8491   3.062   5.598   2.482  1.6358  0.9006  0.9543
   88SLPC    HY 8492   3.211   5.524   2.430 -0.0443  1.0287 -0.2125
   88SLPC   O31 8493   3.182   5.547   2.639  0.3243 -0.0159 -0.0697
   88SLPC   C31 8494   3.108   5.598   2.733 -0.0632 -0.6376 -0.2242
   88SLPC   O32 8495   2.990   5.626   2.721 -0.0965  1.1791  0.1167
   88SLPC   C32 8496   3.183   5.625   2.868  0.4027 -0.6657  0.1040
   88SLPC   H2X 8497   3.253   5.709   2.849  0.8260 -1.3347 -1.3920
   88SLPC   H2Y 8498   3.241   5.533   2.890  1.0067 -0.3667 -0.2150
   88SLPC   C23 8499   2.802   5.347   2.907 -0.3809  0.9956  0.2990
   88SLPC   H3R 8500   2.895   5.396   2.943  0.9728  0.6776 -2.4727
   88SLPC   H3S 8501   2.796   5.240   2.938 -1.2647  1.3904  1.5874
   88SLPC   C24 8502   2.680   5.410   2.965  0.7948 -0.0973  0.3990
   88SLPC   H4R 8503   2.594   5.364   2.913 -0.9954  3.7381 -0.3773
   88SLPC   H4S 8504   2.683   5.519   2.945 -1.9334  0.1435  1.0227
   88SLPC   C25 8505   2.666   5.386   3.113 -0.0353  0.1050  0.1982
   88SLPC   H5R 8506   2.689   5.278   3.127 -1.5125 -0.4096 -1.1201
   88SLPC   H5S 8507   2.562   5.405   3.147  0.1731  2.0992 -0.1344
   88SLPC   C26 8508   2.762   5.462   3.197 -0.4319  0.0969 -0.8165
   88SLPC   H6R 8509   2.752   5.569   3.168  1.4669  0.1061 -1.6054
   88SLPC   H6S 8510   2.867   5.437   3.167 -0.6665 -0.8509 -0.8905
   88SLPC   C27 8511   2.752   5.442   3.349  0.2315  0.6740 -0.5525
   88SLPC   H7R 8512   2.844   5.471   3.404 -0.1071  1.5649 -0.4306
   88SLPC   H7S 8513   2.726   5.337   3.373  0.7591  0.9039  1.1397
   88SLPC   C28 8514   2.640   5.531   3.407 -0.0607  0.6479 -0.2040
   88SLPC   H8R 8515   2.544   5.500   3.362  0.3174  0.3121 -0.7863
   88SLPC   H8S 8516   2.648   5.634   3.366 -0.8355  0.9549  0.3707
   88SLPC   C29 8517   2.651   5.532   3.564  1.1900 -0.4208 -0.1269
   88SLPC   H9R 8518   2.753   5.542   3.602  1.8612  1.0763 -2.1443
   88SLPC  C210 8519   2.554   5.503   3.657  0.0737 -0.9092  0.5082
   88SLPC  H10R 8520   2.580   5.505   3.764 -2.0346  1.3840  1.0712
   88SLPC  C211 8521   2.413   5.458   3.618  0.1061 -0.8123  0.1668
   88SLPC  H11R 8522   2.368   5.403   3.703 -0.6840 -0.2572  0.1240
   88SLPC  H11S 8523   2.417   5.390   3.531  0.4986  1.5794 -1.7901
   88SLPC  C212 8524   2.318   5.572   3.586  0.0106 -0.0206 -0.3426
   88SLPC  H12R 8525   2.296   5.635   3.673 -0.6021  0.5436 -0.8918
   88SLPC  C213 8526   2.244   5.590   3.479 -0.1419  0.8526  0.3074
   88SLPC  H13R 8527   2.173   5.673   3.468  0.4052  1.2306 -0.5699
   88SLPC  C214 8528   2.236   5.503   3.353  0.0213 -0.9266  0.6929
   88SLPC  H14R 8529   2.130   5.477   3.337  0.4848 -2.2510 -0.4057
   88SLPC  H14S 8530   2.281   5.402   3.364  0.1145 -1.1346 -1.2231
   88SLPC  C215 8531   2.292   5.563   3.225 -0.1333 -0.2831  0.4254
   88SLPC  H15R 8532   2.296   5.482   3.150  0.2063  0.0581  0.0742
   88SLPC  H15S 8533   2.390   5.605   3.256 -0.7966  2.2383 -0.6365
   88SLPC  C216 8534   2.215   5.685   3.173  0.2719  0.0851 -0.0687
   88SLPC  H16R 8535   2.286   5.723   3.097  1.5430 -0.3553  0.8451
   88SLPC  H16S 8536   2.204   5.759   3.256 -3.0702 -0.4401  0.0967
   88SLPC  C217 8537   2.080   5.654   3.108  0.0468  0.8020 -0.2230
   88SLPC  H17R 8538   2.028   5.570   3.158  0.0502  0.3773 -0.9179
   88SLPC  H17S 8539   2.095   5.614   3.005 -2.5125  1.1749 -0.8285
   88SLPC  C218 8540   1.982   5.771   3.097 -0.0580  0.5190  0.1464
   88SLPC  H18R 8541   1.961   5.823   3.193  2.3364  2.1031 -0.0898
   88SLPC  H18S 8542   1.883   5.741   3.059  0.4699 -0.8872 -0.1901
   88SLPC  H18T 8543   2.020   5.850   3.030  1.2245  2.0592  2.5350
   88SLPC   C33 8544   3.087   5.657   2.986 -0.0530 -0.0542 -0.0610
   88SLPC   H3X 8545   3.005   5.583   3.002  0.5447 -0.3333  2.1361
   88SLPC   H3Y 8546   3.033   5.751   2.961  0.4959 -0.0552 -1.3260
   88SLPC   C34 8547   3.159   5.648   3.122  0.1187 -0.5982  0.2050
   88SLPC   H4X 8548   3.235   5.729   3.122 -1.5021  0.9952 -0.0415
   88SLPC   H4Y 8549   3.212   5.552   3.136  1.7941  0.4064  1.1530
   88SLPC   C35 8550   3.057   5.685   3.235 -0.5070 -0.0565 -0.0320
   88SLPC   H5X 8551   2.970   5.617   3.226 -0.2939 -0.5272  1.2651
   88SLPC   H5Y 8552   3.027   5.792   3.239 -3.4587 -0.8072  0.2298
   88SLPC   C36 8553   3.113   5.665   3.380 -0.2263 -0.4262  0.8367
   88SLPC   H6X 8554   3.208   5.722   3.390  0.4508 -0.7643 -2.5491
   88SLPC   H6Y 8555   3.138   5.559   3.404  0.6182 -0.3132  0.4839
   88SLPC   C37 8556   3.002   5.713   3.475 -0.4509 -0.0906 -0.5368
   88SLPC   H7X 8557   2.912   5.648   3.482  0.7937 -1.7978  0.3470
   88SLPC   H7Y 8558   2.972   5.817   3.450 -1.9080 -1.0888 -3.3131
   88SLPC   C38 8559   3.039   5.698   3.622 -0.3611  0.4194  0.4559
   88SLPC   H8X 8560   3.136   5.752   3.633 -0.4901  0.7663 -0.0592
   88SLPC   H8Y 8561   3.041   5.591   3.649 -1.2338  0.2309 -0.1805
   88SLPC   C39 8562   2.932   5.761   3.718 -0.2538  0.3915  0.3673
   88SLPC   H9X 8563   2.834   5.716   3.692  0.4687 -1.6686  1.0189
   88SLPC   H9Y 8564   2.923   5.870   3.703 -1.7644  0.2320 -0.0032
   88SLPC  C310 8565   2.962   5.719   3.862  0.1667  0.3330  0.0744
   88SLPC  H10X 8566   3.064   5.757   3.885 -0.1437  0.9542  0.4529
   88SLPC  H10Y 8567   2.944   5.610   3.868  0.2465  0.2213 -1.3331
   88SLPC  C311 8568   2.884   5.795   3.975 -0.5123  0.1133  0.8220
   88SLPC  H11X 8569   2.922   5.899   3.990 -0.5054  0.5153 -1.6142
   88SLPC  H11Y 8570   2.911   5.737   4.066 -1.1657 -2.2678 -0.4427
   88SLPC  C312 8571   2.731   5.793   3.955  0.3263  0.2719 -0.2000
   88SLPC  H12X 8572   2.705   5.693   3.912 -0.6852  0.1663  0.6208
   88SLPC  H12Y 8573   2.691   5.869   3.885  0.7612  0.0014 -0.7477
   88SLPC  C313 8574   2.657   5.797   4.092  0.7016 -0.2427 -0.0655
   88SLPC  H13X 8575   2.684   5.709   4.154 -2.0939 -1.4677 -0.4281
   88SLPC  H13Y 8576   2.548   5.781   4.073  0.4376  0.4795  0.7852
   88SLPC  C314 8577   2.670   5.923   4.175 -0.6778  0.5592 -0.4705
   88SLPC  H14X 8578   2.620   6.006   4.122 -0.6820 -0.8141 -2.7723
   88SLPC  H14Y 8579   2.778   5.942   4.196 -0.4960 -0.8817  0.0680
   88SLPC  C315 8580   2.604   5.904   4.313 -0.6726 -0.2669 -0.5150
   88SLPC  H15X 8581   2.630   5.989   4.379  1.9104 -2.0163  0.8589
   88SLPC  H15Y 8582   2.646   5.814   4.361  0.9634 -0.4616 -2.2067
   88SLPC  C316 8583   2.451   5.896   4.303  0.5624  0.7909  0.0487
   88SLPC  H16X 8584   2.431   5.796   4.258  0.1200  0.4332  0.9962
   88SLPC  H16Y 8585   2.404   5.967   4.232 -0.9728  2.3088  2.4363
   88SLPC  C317 8586   2.386   5.904   4.441 -0.5445 -0.4721  0.3213
   88SLPC  H17X 8587   2.468   5.882   4.514  1.1746  1.2066 -0.9868
   88SLPC  H17Y 8588   2.300   5.839   4.466 -1.3543  0.9245  1.3025
   88SLPC  C318 8589   2.341   6.048   4.478 -0.2757  0.1017  0.1300
   88SLPC  H18X 8590   2.381   6.117   4.400  0.0427  1.7598  1.6964
   88SLPC  H18Y 8591   2.376   6.077   4.579 -1.8005  2.2455  0.1104
   88SLPC  H18Z 8592   2.231   6.046   4.485 -0.2610 -2.1953  0.5621
   89SAPE     N 8593   1.342   6.276   7.268  0.1902  0.0656 -0.0986
   89SAPE   HN1 8594   1.392   6.188   7.245  1.5594  0.6732  0.4474
   89SAPE   HN2 8595   1.402   6.351   7.307 -0.8489  0.0273  1.7004
   89SAPE   HN3 8596   1.271   6.264   7.342 -0.6760  2.5262 -0.4172
   89SAPE   C12 8597   1.283   6.335   7.149  0.2466 -0.1864 -0.4433
   89SAPE  H12A 8598   1.225   6.421   7.188 -0.5004 -1.2175  0.8300
   89SAPE  H12B 8599   1.203   6.269   7.110 -0.9191  0.8361  0.1473
   89SAPE   C11 8600   1.393   6.371   7.049 -0.0735  0.0049 -0.3164
   89SAPE  H11A 8601   1.343   6.437   6.976 -0.8406  1.0346  1.0833
   89SAPE  H11B 8602   1.422   6.276   7.001 -1.4448 -0.3622 -0.4550
   89SAPE     P 8603   1.541   6.583   7.070  0.1218 -0.0979 -0.9676
   89SAPE   O13 8604   1.420   6.664   7.102 -0.0190  0.2325  0.8870
   89SAPE   O14 8605   1.673   6.628   7.128 -0.3030 -0.3407  0.0515
   89SAPE   O12 8606   1.504   6.433   7.111  0.6517 -0.0877  0.2016
   89SAPE   O11 8607   1.559   6.575   6.916  0.3463 -0.5285  0.0661
   89SAPE    C1 8608   1.522   6.694   6.841 -0.3183 -0.3862 -0.4768
   89SAPE    HA 8609   1.530   6.787   6.900 -0.7045  0.1235 -1.2145
   89SAPE    HB 8610   1.606   6.710   6.769  1.9339 -1.9799  1.6150
   89SAPE    C2 8611   1.388   6.685   6.764  0.0861  0.0359  0.5525
   89SAPE    HS 8612   1.317   6.624   6.823 -1.8437  0.4370 -1.2315
   89SAPE   O21 8613   1.418   6.627   6.628 -0.0543  0.0625  0.1082
   89SAPE   C21 8614   1.338   6.537   6.580  0.4159 -0.0880 -0.0508
   89SAPE   O22 8615   1.241   6.487   6.634 -0.3602  0.3011  0.0083
   89SAPE   C22 8616   1.384   6.498   6.440  0.3091 -0.3537 -0.2055
   89SAPE   H2R 8617   1.471   6.562   6.414  1.1861 -1.8247 -1.0317
   89SAPE   H2S 8618   1.421   6.394   6.453 -0.7365 -0.5140  2.0563
   89SAPE    C3 8619   1.318   6.824   6.750 -0.3219 -0.5258  0.6224
   89SAPE    HX 8620   1.390   6.897   6.706  0.0361 -0.5436  1.1711
   89SAPE    HY 8621   1.278   6.860   6.848  0.0427 -2.8808  1.7011
   89SAPE   O31 8622   1.209   6.803   6.661  0.2514  0.2137 -0.6315
   89SAPE   C31 8623   1.083   6.822   6.693  0.0291  0.0895 -0.3754
   89SAPE   O32 8624   1.042   6.867   6.800  0.1202 -0.0834 -0.0087
   89SAPE   C32 8625   1.001   6.768   6.571 -0.4721  0.1980  0.1466
   89SAPE   H2X 8626   0.895   6.756   6.601 -1.1590  2.0609 -1.2845
   89SAPE   H2Y 8627   1.047   6.671   6.544  0.2416  0.1017  1.6354
   89SAPE   C23 8628   1.269   6.503   6.339  0.1819  0.2918 -0.4177
   89SAPE   H3R 8629   1.212   6.597   6.353  0.4626  0.7434 -2.1181
   89SAPE   H3S 8630   1.190   6.427   6.357 -0.2861  1.4323  3.0177
   89SAPE   C24 8631   1.308   6.500   6.190  0.6901 -0.0282 -0.3835
   89SAPE   H4R 8632   1.211   6.498   6.137  0.6634  1.4526 -0.4288
   89SAPE   H4S 8633   1.360   6.407   6.157  1.2281 -0.0587  0.5128
   89SAPE   C25 8634   1.385   6.625   6.151  0.0586  0.3530  0.2063
   89SAPE   H5R 8635   1.403   6.691   6.237  0.8838 -0.3836  0.6168
   89SAPE   C26 8636   1.431   6.654   6.027  0.4171  0.1170  0.5280
   89SAPE   H6R 8637   1.488   6.745   6.004 -0.0231  0.4337  0.6832
   89SAPE   C27 8638   1.401   6.575   5.902 -0.3164  1.0543  0.1947
   89SAPE   H7R 8639   1.386   6.650   5.822 -1.8017  0.9284  0.3301
   89SAPE   H7S 8640   1.310   6.513   5.915  1.0848 -1.4868 -1.4006
   89SAPE   C28 8641   1.500   6.469   5.867  0.3108 -0.1623 -0.9826
   89SAPE   H8R 8642   1.516   6.393   5.945  0.4465  2.7339  2.0391
   89SAPE   C29 8643   1.561   6.465   5.755 -0.7194  0.0908  0.5014
   89SAPE   H9R 8644   1.637   6.387   5.744 -2.3727 -1.6950  1.0535
   89SAPE  C210 8645   1.538   6.544   5.629  1.2190  0.4959 -0.2020
   89SAPE  H10R 8646   1.434   6.583   5.625  0.7052 -0.7444  0.4446
   89SAPE  H10S 8647   1.543   6.469   5.547  0.1453  0.8837 -0.6402
   89SAPE  C211 8648   1.626   6.666   5.611  0.4511  0.9995  0.3297
   89SAPE  H11R 8649   1.630   6.732   5.699  0.6993  1.8078 -0.2778
   89SAPE  C212 8650   1.678   6.715   5.495 -0.0292  0.5034 -0.1058
   89SAPE  H12R 8651   1.725   6.814   5.510 -0.9287  0.5661  2.9498
   89SAPE  C213 8652   1.662   6.654   5.360 -0.0740 -0.1537  0.6568
   89SAPE  H13R 8653   1.617   6.553   5.366  0.1471 -0.6535 -3.2145
   89SAPE  H13S 8654   1.758   6.635   5.307 -0.9140 -0.5502 -0.7664
   89SAPE  C214 8655   1.563   6.733   5.272 -0.1033  0.3008  0.1964
   89SAPE  H14R 8656   1.460   6.706   5.297  0.4799 -2.3069  0.0257
   89SAPE  C215 8657   1.581   6.806   5.163  0.4267  0.2278  1.0355
   89SAPE  H15R 8658   1.502   6.877   5.132  0.0484 -0.4047  0.5454
   89SAPE  C216 8659   1.713   6.816   5.094 -0.7909  0.3839  0.2439
   89SAPE  H16R 8660   1.775   6.728   5.122 -0.3997  0.5091 -0.2026
   89SAPE  H16S 8661   1.767   6.902   5.139  0.6213 -0.6667  0.6294
   89SAPE  C217 8662   1.715   6.819   4.944  0.3502 -0.0578  0.1967
   89SAPE  H17R 8663   1.684   6.727   4.890 -0.2421  0.2088  0.0686
   89SAPE  H17S 8664   1.820   6.836   4.911  0.5585  1.5178  1.5251
   89SAPE  C218 8665   1.636   6.937   4.881 -0.3201  0.0668 -1.3318
   89SAPE  H18R 8666   1.640   7.021   4.954  0.7771 -0.7575 -0.3984
   89SAPE  H18S 8667   1.533   6.896   4.885  0.2533 -1.3644 -0.2936
   89SAPE  C219 8668   1.694   6.976   4.744  0.1133 -0.3035  0.3828
   89SAPE  H19R 8669   1.713   6.880   4.691 -2.0778 -1.7078  1.9775
   89SAPE  H19S 8670   1.795   7.023   4.746  0.1492  0.1785 -3.7549
   89SAPE  C220 8671   1.590   7.052   4.671 -0.1191 -0.0640  0.0445
   89SAPE  H20R 8672   1.592   7.060   4.560 -4.4833  1.8162 -0.1454
   89SAPE  H20S 8673   1.599   7.155   4.712 -0.1690 -0.1259  0.2131
   89SAPE  H20T 8674   1.485   7.024   4.693 -0.4302  1.3195  0.4489
   89SAPE   C33 8675   0.987   6.864   6.453 -0.6485  0.2409 -0.3756
   89SAPE   H3X 8676   0.955   6.811   6.360 -1.0387  1.6449 -1.0570
   89SAPE   H3Y 8677   1.081   6.909   6.415 -0.8054  0.6860 -0.2324
   89SAPE   C34 8678   0.883   6.980   6.480 -0.2219 -1.0153  0.9067
   89SAPE   H4X 8679   0.912   7.035   6.572  0.8985 -1.6533  0.9522
   89SAPE   H4Y 8680   0.782   6.938   6.499 -0.4245 -0.8266  0.2535
   89SAPE   C35 8681   0.872   7.080   6.364 -0.0267 -0.2802 -0.3277
   89SAPE   H5X 8682   0.980   7.103   6.352  0.1196  0.0925  1.4076
   89SAPE   H5Y 8683   0.827   7.176   6.396  0.9314  0.1794 -0.3473
   89SAPE   C36 8684   0.828   7.028   6.229 -0.3465  0.2667 -0.7909
   89SAPE   H6X 8685   0.724   6.990   6.242 -0.4886  0.3471 -1.6710
   89SAPE   H6Y 8686   0.889   6.943   6.195  3.0754  2.3068 -0.2020
   89SAPE   C37 8687   0.824   7.141   6.128 -0.3689  0.4283 -0.0528
   89SAPE   H7X 8688   0.893   7.225   6.152 -0.4641  0.5371 -0.1595
   89SAPE   H7Y 8689   0.724   7.187   6.144 -1.1462 -0.4822 -2.0040
   89SAPE   C38 8690   0.823   7.096   5.982 -0.3368  0.3133  0.4711
   89SAPE   H8X 8691   0.740   7.028   5.956  1.2908 -0.4362 -3.3505
   89SAPE   H8Y 8692   0.917   7.038   5.978 -0.9651 -0.6252 -2.3242
   89SAPE   C39 8693   0.831   7.222   5.892 -0.1104 -0.2460  0.8314
   89SAPE   H9X 8694   0.927   7.278   5.893  0.0021 -0.2266 -1.8373
   89SAPE   H9Y 8695   0.750   7.291   5.923  0.2805  0.7600 -0.2944
   89SAPE  C310 8696   0.812   7.203   5.741  0.4297 -0.1662  0.3064
   89SAPE  H10X 8697   0.797   7.305   5.701 -0.0437 -0.4835 -0.3556
   89SAPE  H10Y 8698   0.722   7.137   5.733  2.6569 -3.3760 -0.4043
   89SAPE  C311 8699   0.931   7.140   5.668  0.6249 -0.3364  0.1103
   89SAPE  H11X 8700   0.982   7.062   5.729  2.9493  2.5922  2.2216
   89SAPE  H11Y 8701   1.015   7.212   5.655 -0.2660  0.3228 -2.6838
   89SAPE  C312 8702   0.898   7.090   5.528 -0.1900 -0.5027 -0.3670
   89SAPE  H12X 8703   0.809   7.023   5.530  0.0327 -0.8255  2.1417
   89SAPE  H12Y 8704   0.981   7.024   5.492 -0.7560 -1.3979 -0.0705
   89SAPE  C313 8705   0.880   7.210   5.429  0.3524 -0.0049  0.4653
   89SAPE  H13X 8706   0.980   7.252   5.406  0.7382 -1.4276 -0.6561
   89SAPE  H13Y 8707   0.818   7.288   5.477  0.3166 -0.9810  2.0704
   89SAPE  C314 8708   0.806   7.171   5.301  0.0831 -0.9507 -0.1092
   89SAPE  H14X 8709   0.807   7.063   5.274 -2.0050 -0.6382 -1.6442
   89SAPE  H14Y 8710   0.856   7.219   5.214  1.9036 -1.8378  0.4045
   89SAPE  C315 8711   0.663   7.213   5.312 -0.2858  0.4097  1.3935
   89SAPE  H15X 8712   0.645   7.322   5.330 -0.2520  0.6663  0.0055
   89SAPE  H15Y 8713   0.612   7.151   5.389  0.1210 -2.2864 -0.3632
   89SAPE  C316 8714   0.580   7.194   5.177 -0.1442  0.7989  0.0150
   89SAPE  H16X 8715   0.481   7.146   5.188  0.0971 -0.5601 -2.8595
   89SAPE  H16Y 8716   0.632   7.119   5.113 -0.1377  1.6775 -1.0484
   89SAPE  C317 8717   0.561   7.328   5.100  0.2917  0.2846 -0.7056
   89SAPE  H17X 8718   0.635   7.402   5.136 -1.5761  2.3648 -0.9628
   89SAPE  H17Y 8719   0.463   7.377   5.120 -0.8667 -1.1068 -2.6130
   89SAPE  C318 8720   0.579   7.302   4.952  0.0787  0.2704  0.5422
   89SAPE  H18X 8721   0.561   7.396   4.896  2.9088 -0.0724 -1.1565
   89SAPE  H18Y 8722   0.513   7.222   4.911 -0.0730 -0.2963  1.8205
   89SAPE  H18Z 8723   0.685   7.268   4.941 -0.3204 -0.8554 -0.0831
   90SAPE     N 8724   2.600   0.037   7.572  0.5652  0.1805  1.2727
   90SAPE   HN1 8725   2.597   0.141   7.581 -2.9916  0.3520  0.0791
   90SAPE   HN2 8726   2.610  -0.016   7.661 -1.7544 -1.3606  0.7155
   90SAPE   HN3 8727   2.683   0.006   7.517 -0.6805  0.9006 -1.1790
   90SAPE   C12 8728   2.480  -0.007   7.495  0.0283 -0.8234 -0.0235
   90SAPE  H12A 8729   2.391   0.052   7.526  1.4979  0.0762  2.8204
   90SAPE  H12B 8730   2.465  -0.115   7.516 -0.0437 -0.9303 -0.6130
   90SAPE   C11 8731   2.513   0.004   7.345 -0.2792  0.0881 -0.1087
   90SAPE  H11A 8732   2.541   0.110   7.330  3.2781 -0.7181  0.0484
   90SAPE  H11B 8733   2.420  -0.006   7.285  0.2451  0.5030 -1.0145
   90SAPE     P 8734   2.581  -0.218   7.236  0.1131  0.0384  0.1194
   90SAPE   O13 8735   2.697  -0.310   7.230  0.3348  0.3291  0.0512
   90SAPE   O14 8736   2.449  -0.266   7.297 -0.2572 -0.3468  0.0369
   90SAPE   O12 8737   2.620  -0.086   7.305 -0.3538 -0.4583  0.9714
   90SAPE   O11 8738   2.549  -0.160   7.093 -0.4522  0.1090  0.1580
   90SAPE    C1 8739   2.613  -0.046   7.035 -0.4146  0.0682 -0.3385
   90SAPE    HA 8740   2.565   0.049   7.067 -2.4339 -1.5382  1.7199
   90SAPE    HB 8741   2.721  -0.035   7.058 -0.4620 -4.2185  3.5870
   90SAPE    C2 8742   2.584  -0.055   6.880  0.2638 -0.3505 -0.0664
   90SAPE    HS 8743   2.474  -0.060   6.865  0.2042  0.1631  0.1686
   90SAPE   O21 8744   2.652  -0.174   6.822 -0.3456 -0.5036 -0.1770
   90SAPE   C21 8745   2.587  -0.220   6.718 -0.5309 -0.2146 -0.0478
   90SAPE   O22 8746   2.484  -0.181   6.672  0.1052  0.2260 -0.4054
   90SAPE   C22 8747   2.661  -0.350   6.679  0.4643 -0.4077  0.1118
   90SAPE   H2R 8748   2.687  -0.403   6.773  1.6142  1.0306  0.6435
   90SAPE   H2S 8749   2.585  -0.400   6.615 -0.2437 -0.1318  0.7275
   90SAPE    C3 8750   2.638   0.078   6.817 -0.0193  0.4606  0.3929
   90SAPE    HX 8751   2.741   0.085   6.858  0.4020  0.2877 -0.6221
   90SAPE    HY 8752   2.589   0.172   6.851 -0.7445  0.3841 -0.4227
   90SAPE   O31 8753   2.634   0.068   6.674  0.8686 -0.1059  0.4942
   90SAPE   C31 8754   2.513   0.100   6.612 -0.7524  0.0433  0.3969
   90SAPE   O32 8755   2.412   0.124   6.680 -0.7924 -0.6378 -0.8613
   90SAPE   C32 8756   2.516   0.101   6.458  0.5524 -0.1243  0.3533
   90SAPE   H2X 8757   2.568   0.009   6.425 -0.9121 -0.6313 -0.6416
   90SAPE   H2Y 8758   2.568   0.193   6.424  1.4534 -0.7028  0.1520
   90SAPE   C23 8759   2.790  -0.324   6.609 -0.2577  0.1703 -0.0363
   90SAPE   H3R 8760   2.843  -0.420   6.589 -0.1685 -0.1901  1.7971
   90SAPE   H3S 8761   2.858  -0.258   6.667  0.3792 -0.7536  0.2998
   90SAPE   C24 8762   2.762  -0.268   6.467 -0.0894 -0.5571  0.0930
   90SAPE   H4R 8763   2.729  -0.163   6.481 -1.0288 -0.9863  1.2292
   90SAPE   H4S 8764   2.687  -0.335   6.421 -1.8042 -0.8650  3.1499
   90SAPE   C25 8765   2.886  -0.253   6.378 -0.0581 -0.4389  0.4113
   90SAPE   H5R 8766   2.970  -0.211   6.435 -2.4351  1.9041  2.5084
   90SAPE   C26 8767   2.898  -0.280   6.245 -0.1515 -0.2988  0.5514
   90SAPE   H6R 8768   2.998  -0.275   6.199 -0.3010 -0.8464  0.1553
   90SAPE   C27 8769   2.797  -0.337   6.150  0.3520 -0.2903  0.2098
   90SAPE   H7R 8770   2.703  -0.351   6.207  0.7488  2.2107  1.6080
   90SAPE   H7S 8771   2.830  -0.437   6.114 -1.2908  0.6137 -4.6262
   90SAPE   C28 8772   2.781  -0.230   6.044 -0.3154  0.2621  0.1394
   90SAPE   H8R 8773   2.800  -0.127   6.078 -0.4580  0.2939  0.1241
   90SAPE   C29 8774   2.740  -0.263   5.916 -0.3390 -0.6890 -0.3386
   90SAPE   H9R 8775   2.729  -0.182   5.843  0.8730  0.1151  0.3312
   90SAPE  C210 8776   2.729  -0.399   5.859  0.3084  0.8911 -0.1209
   90SAPE  H10R 8777   2.776  -0.474   5.926  0.1492 -1.1387 -2.1455
   90SAPE  H10S 8778   2.771  -0.401   5.756  0.2159 -1.8592 -0.1737
   90SAPE  C211 8779   2.590  -0.451   5.847 -0.6689  0.4112 -0.1561
   90SAPE  H11R 8780   2.515  -0.397   5.907 -1.3643  1.5094 -1.9293
   90SAPE  C212 8781   2.545  -0.552   5.772 -0.0058  0.6605  0.4805
   90SAPE  H12R 8782   2.444  -0.591   5.794  0.5471 -1.4210 -0.3748
   90SAPE  C213 8783   2.630  -0.640   5.684 -0.4183  0.2882  1.2153
   90SAPE  H13R 8784   2.732  -0.601   5.666 -0.0318 -0.7001  1.2060
   90SAPE  H13S 8785   2.586  -0.634   5.582  1.9680 -1.1423  0.0204
   90SAPE  C214 8786   2.655  -0.783   5.730  0.3297  0.8640 -0.3076
   90SAPE  H14R 8787   2.706  -0.793   5.827 -0.0197 -0.0190 -0.2087
   90SAPE  C215 8788   2.632  -0.893   5.655  0.2692  0.1484  0.8480
   90SAPE  H15R 8789   2.664  -0.988   5.701 -2.1679  0.0630  2.5386
   90SAPE  C216 8790   2.566  -0.899   5.517  0.8299  0.7572 -0.2961
   90SAPE  H16R 8791   2.512  -0.804   5.498 -0.5284 -0.1014 -0.9207
   90SAPE  H16S 8792   2.485  -0.974   5.529  0.8364  0.7138 -0.5157
   90SAPE  C217 8793   2.658  -0.935   5.393  0.0011 -0.0515 -0.4598
   90SAPE  H17R 8794   2.717  -1.024   5.422  0.0965  0.2622  0.3426
   90SAPE  H17S 8795   2.734  -0.858   5.371  0.5007 -0.0017  1.2651
   90SAPE  C218 8796   2.582  -0.972   5.267  0.7814  0.1123 -0.3562
   90SAPE  H18R 8797   2.547  -0.879   5.216 -2.7139 -0.1497  1.2525
   90SAPE  H18S 8798   2.490  -1.030   5.291  0.6319  0.4063 -0.2185
   90SAPE  C219 8799   2.672  -1.045   5.160  0.0110 -0.2277 -0.0440
   90SAPE  H19R 8800   2.721  -1.129   5.214  0.4237  2.0800  3.4540
   90SAPE  H19S 8801   2.743  -0.975   5.111  1.2575 -1.9733 -0.8220
   90SAPE  C220 8802   2.574  -1.094   5.056  0.4773  0.0258 -0.0621
   90SAPE  H20R 8803   2.531  -1.012   4.993  1.1140 -0.0603 -0.6213
   90SAPE  H20S 8804   2.497  -1.155   5.107  1.2509 -0.7807  0.1469
   90SAPE  H20T 8805   2.634  -1.152   4.983 -0.2951  0.2761 -0.9137
   90SAPE   C33 8806   2.374   0.084   6.395 -0.2762  0.1357  0.2713
   90SAPE   H3X 8807   2.315   0.174   6.422 -0.4556  0.5080 -1.2902
   90SAPE   H3Y 8808   2.334  -0.010   6.438  1.2080  0.4554  2.5686
   90SAPE   C34 8809   2.384   0.078   6.246 -0.3114  1.0104  0.4903
   90SAPE   H4X 8810   2.449   0.154   6.198 -1.0554  0.3352 -1.7017
   90SAPE   H4Y 8811   2.287   0.087   6.193  0.6822 -1.4079 -1.9468
   90SAPE   C35 8812   2.431  -0.061   6.189  0.4453  0.0230 -0.3106
   90SAPE   H5X 8813   2.365  -0.141   6.229 -0.9086  2.1154  1.9401
   90SAPE   H5Y 8814   2.537  -0.080   6.219  0.4722  1.6792  0.8203
   90SAPE   C36 8815   2.416  -0.070   6.036  0.2191 -0.1550 -0.5443
   90SAPE   H6X 8816   2.308  -0.049   6.022 -0.3591 -2.7915 -0.6253
   90SAPE   H6Y 8817   2.453  -0.167   5.996  2.6421 -0.1440  1.4456
   90SAPE   C37 8818   2.493   0.035   5.952 -0.1733  0.5501  0.0016
   90SAPE   H7X 8819   2.602   0.020   5.960 -0.4742 -0.6704  4.9579
   90SAPE   H7Y 8820   2.484   0.140   5.987  0.1090  1.0385 -1.3203
   90SAPE   C38 8821   2.449   0.023   5.798 -0.6305  0.4329  0.1280
   90SAPE   H8X 8822   2.339   0.012   5.787 -0.5370 -1.6702  0.7620
   90SAPE   H8Y 8823   2.489  -0.076   5.766 -0.9099 -0.3222  1.9478
   90SAPE   C39 8824   2.506   0.137   5.709 -0.2861  0.3225 -0.2703
   90SAPE   H9X 8825   2.611   0.159   5.739  1.7530 -1.2826 -5.1407
   90SAPE   H9Y 8826   2.451   0.232   5.728 -2.0423 -0.3511 -1.7154
   90SAPE  C310 8827   2.510   0.107   5.557 -0.4957  0.0075  0.1124
   90SAPE  H10X 8828   2.410   0.113   5.509 -0.1938 -0.5955 -0.6129
   90SAPE  H10Y 8829   2.544   0.003   5.538 -1.3983 -0.1043 -0.9848
   90SAPE  C311 8830   2.618   0.203   5.491  0.4483 -0.1527 -0.1089
   90SAPE  H11X 8831   2.723   0.177   5.521  0.8639  0.1965 -1.2350
   90SAPE  H11Y 8832   2.607   0.309   5.520  3.6706  0.0488  0.8764
   90SAPE  C312 8833   2.620   0.196   5.342  0.0233  0.3420 -0.3533
   90SAPE  H12X 8834   2.681   0.287   5.320  0.0178  0.7031  1.0633
   90SAPE  H12Y 8835   2.522   0.211   5.292  0.0221  3.0564  0.2894
   90SAPE  C313 8836   2.696   0.075   5.280 -0.1729  0.2438  0.0038
   90SAPE  H13X 8837   2.668  -0.021   5.328  1.6153  0.0489  0.7261
   90SAPE  H13Y 8838   2.806   0.085   5.292  0.0634  0.9549 -2.2798
   90SAPE  C314 8839   2.663   0.059   5.131  0.0058  0.3988  0.5983
   90SAPE  H14X 8840   2.690   0.154   5.080  0.4179 -0.0149  0.0270
   90SAPE  H14Y 8841   2.553   0.046   5.122  0.2462 -2.2536  0.8700
   90SAPE  C315 8842   2.726  -0.062   5.061  0.5021 -0.1644 -0.2658
   90SAPE  H15X 8843   2.696  -0.150   5.121  3.1163  0.7488  2.6291
   90SAPE  H15Y 8844   2.837  -0.059   5.068  0.7616 -1.5769 -2.6519
   90SAPE  C316 8845   2.691  -0.061   4.913 -0.7058  0.2534 -0.8994
   90SAPE  H16X 8846   2.722   0.028   4.854 -0.9241  0.1596 -1.1616
   90SAPE  H16Y 8847   2.581  -0.078   4.912 -0.8337  0.9327 -2.6145
   90SAPE  C317 8848   2.770  -0.177   4.846  0.0606 -0.0884  0.3958
   90SAPE  H17X 8849   2.714  -0.200   4.753 -0.5918  1.3483  0.4132
   90SAPE  H17Y 8850   2.758  -0.256   4.923  0.7556 -0.7676 -0.1739
   90SAPE  C318 8851   2.920  -0.159   4.804  0.3154 -0.0712  0.2517
   90SAPE  H18X 8852   2.919  -0.110   4.704  0.8034  0.7490  0.6447
   90SAPE  H18Y 8853   2.964  -0.259   4.783  1.7228  0.7097 -0.6464
   90SAPE  H18Z 8854   2.992  -0.119   4.879 -1.1973 -1.9140  2.8730
   91SAPE     N 8855   0.451   1.053   6.710  1.1693  0.1694  0.6420
   91SAPE   HN1 8856   0.551   1.081   6.705  0.8830  1.1397  0.0938
   91SAPE   HN2 8857   0.441   0.967   6.767 -2.1324 -0.0253 -0.0531
   91SAPE   HN3 8858   0.423   1.039   6.610 -0.2145 -0.0969  1.0485
   91SAPE   C12 8859   0.359   1.140   6.778  0.0652 -0.2505 -0.3814
   91SAPE  H12A 8860   0.364   1.242   6.736 -1.9331 -0.6693 -1.8020
   91SAPE  H12B 8861   0.364   1.147   6.889 -2.4224  1.0087 -0.2864
   91SAPE   C11 8862   0.215   1.109   6.730 -0.2324 -0.3931 -0.1368
   91SAPE  H11A 8863   0.211   1.123   6.620 -2.8643  1.6843  0.1250
   91SAPE  H11B 8864   0.155   1.190   6.776  2.3851 -0.4033  3.7037
   91SAPE     P 8865   0.036   0.944   6.850  0.1042  0.3674 -0.6107
   91SAPE   O13 8866   0.050   0.808   6.901 -0.3067  0.6635 -0.6466
   91SAPE   O14 8867   0.009   1.051   6.950 -0.5377 -0.1033  0.7102
   91SAPE   O12 8868   0.175   0.979   6.777 -0.1672  0.6631  0.7641
   91SAPE   O11 8869  -0.061   0.957   6.727  0.3708 -0.3240 -0.1541
   91SAPE    C1 8870  -0.096   0.833   6.661  0.0588 -0.4430 -0.2523
   91SAPE    HA 8871  -0.025   0.749   6.677  1.6769  0.2492 -3.0862
   91SAPE    HB 8872  -0.196   0.806   6.701  1.0699 -2.4845  1.0874
   91SAPE    C2 8873  -0.095   0.851   6.502 -0.3830 -0.2304 -0.0712
   91SAPE    HS 8874   0.010   0.874   6.477  0.2292  0.6194  2.9038
   91SAPE   O21 8875  -0.184   0.961   6.468 -0.2690  0.0228 -0.2258
   91SAPE   C21 8876  -0.152   1.025   6.356 -0.2121 -0.2902  0.4143
   91SAPE   O22 8877  -0.056   1.009   6.284 -0.2213 -0.3800  0.3476
   91SAPE   C22 8878  -0.245   1.142   6.336  0.2650 -0.0144 -0.0978
   91SAPE   H2R 8879  -0.343   1.090   6.323 -0.7789  1.0245  2.8106
   91SAPE   H2S 8880  -0.261   1.207   6.425 -0.4419  0.2177 -0.3893
   91SAPE    C3 8881  -0.144   0.722   6.426  0.0070  0.4841  0.4156
   91SAPE    HX 8882  -0.242   0.694   6.471  0.6278 -1.4320  0.6495
   91SAPE    HY 8883  -0.085   0.630   6.441 -0.7990  0.1693  1.8704
   91SAPE   O31 8884  -0.147   0.734   6.282 -0.7536  0.1536 -0.5650
   91SAPE   C31 8885  -0.034   0.715   6.202  0.3733  0.0551  0.8707
   91SAPE   O32 8886   0.074   0.674   6.236  0.2052  0.0940  0.0935
   91SAPE   C32 8887  -0.073   0.769   6.062 -0.2322  0.0128 -0.2957
   91SAPE   H2X 8888  -0.116   0.871   6.075  1.0882  0.4208  1.0916
   91SAPE   H2Y 8889  -0.140   0.694   6.014 -0.8089  1.5111 -1.9718
   91SAPE   C23 8890  -0.201   1.229   6.218 -0.2989  0.0418  0.1010
   91SAPE   H3R 8891  -0.222   1.173   6.124  1.8346  0.8571 -0.9299
   91SAPE   H3S 8892  -0.091   1.240   6.210 -0.3589 -0.5836 -3.0976
   91SAPE   C24 8893  -0.272   1.365   6.213 -0.0487  0.3779 -0.2491
   91SAPE   H4R 8894  -0.245   1.418   6.307  0.9780 -0.9892  0.2547
   91SAPE   H4S 8895  -0.379   1.334   6.211  0.6518 -2.3392  0.7046
   91SAPE   C25 8896  -0.221   1.435   6.087  0.7600  0.3631 -0.5198
   91SAPE   H5R 8897  -0.112   1.450   6.085  0.6927  1.0407  0.2033
   91SAPE   C26 8898  -0.299   1.478   5.990  0.1000 -0.2165  0.7772
   91SAPE   H6R 8899  -0.250   1.534   5.909 -0.6103 -0.6695  0.0151
   91SAPE   C27 8900  -0.450   1.465   5.980 -0.1060 -0.5316  0.2209
   91SAPE   H7R 8901  -0.483   1.363   6.012  0.7540 -0.6265  0.8320
   91SAPE   H7S 8902  -0.483   1.486   5.876 -0.6835  0.5138  0.6019
   91SAPE   C28 8903  -0.518   1.559   6.075  0.3387  1.0455  0.2550
   91SAPE   H8R 8904  -0.512   1.521   6.179 -0.0926 -0.9567 -0.4052
   91SAPE   C29 8905  -0.583   1.675   6.053  0.0360 -0.3350 -0.5233
   91SAPE   H9R 8906  -0.629   1.726   6.139  0.4072 -0.4695 -0.2431
   91SAPE  C210 8907  -0.586   1.745   5.922  0.0080  0.0520  0.3288
   91SAPE  H10R 8908  -0.664   1.823   5.906 -0.1235 -0.4786 -2.0007
   91SAPE  H10S 8909  -0.620   1.673   5.845 -0.8100  1.3929 -0.6143
   91SAPE  C211 8910  -0.457   1.809   5.881 -0.0668 -0.3226  0.5096
   91SAPE  H11R 8911  -0.424   1.884   5.954 -0.8547  1.1582 -0.6117
   91SAPE  C212 8912  -0.409   1.810   5.755  0.4450  0.4824 -0.5079
   91SAPE  H12R 8913  -0.330   1.884   5.736  2.9003 -2.0308 -0.7706
   91SAPE  C213 8914  -0.435   1.717   5.636  0.0546  0.3868 -0.1276
   91SAPE  H13R 8915  -0.458   1.780   5.548 -0.9543  1.4200  0.8361
   91SAPE  H13S 8916  -0.528   1.658   5.652  0.9024 -1.0324 -0.2505
   91SAPE  C214 8917  -0.317   1.624   5.596  0.7601  0.4445 -0.8597
   91SAPE  H14R 8918  -0.341   1.517   5.601  0.6726  0.3732 -2.3579
   91SAPE  C215 8919  -0.206   1.658   5.531 -0.2453  0.2306  0.5128
   91SAPE  H15R 8920  -0.130   1.579   5.525 -0.4514  0.0218  0.6334
   91SAPE  C216 8921  -0.149   1.793   5.485 -0.2936  0.7156  0.2536
   91SAPE  H16R 8922  -0.244   1.848   5.464 -1.0361 -1.1452 -1.6737
   91SAPE  H16S 8923  -0.105   1.788   5.383  3.3927 -1.7711  1.7415
   91SAPE  C217 8924  -0.063   1.857   5.588  0.0080 -0.3572  0.3163
   91SAPE  H17R 8925  -0.100   1.839   5.691  0.0708 -2.2432  0.0413
   91SAPE  H17S 8926  -0.060   1.967   5.572 -0.2719 -0.4228 -0.1945
   91SAPE  C218 8927   0.077   1.808   5.562 -0.5695  0.8135  0.4041
   91SAPE  H18R 8928   0.099   1.844   5.460 -1.0406  2.4030  0.8389
   91SAPE  H18S 8929   0.083   1.697   5.556 -0.6110  0.7284  1.5694
   91SAPE  C219 8930   0.184   1.839   5.660  0.1520 -0.4369  0.0281
   91SAPE  H19R 8931   0.206   1.947   5.650 -1.1967 -0.3590 -3.3098
   91SAPE  H19S 8932   0.268   1.774   5.626 -0.1652  0.1830 -2.0266
   91SAPE  C220 8933   0.154   1.806   5.809  0.1740 -0.4724 -0.2974
   91SAPE  H20R 8934   0.246   1.831   5.864 -0.5247  0.1220  0.6248
   91SAPE  H20S 8935   0.132   1.697   5.816  0.0749 -0.3851  1.0680
   91SAPE  H20T 8936   0.069   1.869   5.844 -0.3993 -1.1613 -0.4015
   91SAPE   C33 8937   0.056   0.781   5.974  0.8632 -0.0107 -0.5101
   91SAPE   H3X 8938   0.101   0.683   5.948 -1.6320 -1.9019  1.7132
   91SAPE   H3Y 8939   0.131   0.837   6.034 -2.1579  2.7634  0.9654
   91SAPE   C34 8940   0.019   0.861   5.842  0.0907 -0.0114  0.1492
   91SAPE   H4X 8941   0.114   0.894   5.796 -0.1106 -1.0582 -1.0733
   91SAPE   H4Y 8942  -0.025   0.958   5.874  0.4932  2.2811 -5.1612
   91SAPE   C35 8943  -0.076   0.776   5.756 -0.3905 -0.7889  0.1485
   91SAPE   H5X 8944  -0.179   0.757   5.794 -1.1183  0.3990 -1.1671
   91SAPE   H5Y 8945  -0.030   0.677   5.739 -1.6659 -1.2975 -0.4994
   91SAPE   C36 8946  -0.105   0.857   5.633  0.1609 -0.8709 -0.3108
   91SAPE   H6X 8947  -0.017   0.902   5.582  0.1219 -0.9741 -0.4714
   91SAPE   H6Y 8948  -0.167   0.943   5.664  1.0633 -0.0752 -0.6675
   91SAPE   C37 8949  -0.202   0.788   5.532  1.1644  0.3196 -0.7506
   91SAPE   H7X 8950  -0.295   0.758   5.585  1.0448  0.8750 -0.6399
   91SAPE   H7Y 8951  -0.147   0.697   5.502 -2.1659 -1.3482 -2.3407
   91SAPE   C38 8952  -0.235   0.874   5.412 -0.2065  0.3172  0.0106
   91SAPE   H8X 8953  -0.147   0.906   5.351 -0.7840  0.1069 -0.9529
   91SAPE   H8Y 8954  -0.290   0.969   5.430 -0.0042  0.7813 -1.6359
   91SAPE   C39 8955  -0.327   0.804   5.312 -0.0438  0.0232  0.2220
   91SAPE   H9X 8956  -0.426   0.788   5.360 -0.2291  3.6650  1.3744
   91SAPE   H9Y 8957  -0.276   0.707   5.294 -0.7619 -0.3134 -0.0350
   91SAPE  C310 8958  -0.342   0.891   5.184  0.4653 -0.5367 -0.2106
   91SAPE  H10X 8959  -0.270   0.856   5.107  1.9954  0.6581  0.6099
   91SAPE  H10Y 8960  -0.304   0.994   5.200  0.3199 -0.5885  0.5155
   91SAPE  C311 8961  -0.484   0.895   5.129  0.0635  0.1792 -0.6976
   91SAPE  H11X 8962  -0.552   0.924   5.213 -1.0894  0.0984 -1.5758
   91SAPE  H11Y 8963  -0.522   0.793   5.104  0.1211 -0.3772  1.2972
   91SAPE  C312 8964  -0.517   0.991   5.008 -0.4704 -0.1717  0.5084
   91SAPE  H12X 8965  -0.488   1.096   5.031 -0.4535 -0.3268  1.2025
   91SAPE  H12Y 8966  -0.627   0.991   4.994 -0.3701 -1.9963 -0.6489
   91SAPE  C313 8967  -0.458   0.957   4.870  0.2494  0.2088  0.4739
   91SAPE  H13X 8968  -0.465   0.849   4.846  0.1343  0.3712 -0.2586
   91SAPE  H13Y 8969  -0.354   0.993   4.861 -0.7675  3.0274 -1.7508
   91SAPE  C314 8970  -0.537   1.031   4.760 -0.1060 -0.0999  0.3438
   91SAPE  H14X 8971  -0.535   1.143   4.759 -1.2334 -0.0264 -2.8703
   91SAPE  H14Y 8972  -0.643   1.018   4.789 -0.6582  2.1748 -0.4304
   91SAPE  C315 8973  -0.524   0.984   4.610  0.0300 -0.0605  0.2142
   91SAPE  H15X 8974  -0.430   1.020   4.565  1.0969 -0.3934  2.0709
   91SAPE  H15Y 8975  -0.617   1.028   4.567 -0.0718 -0.7729 -0.3157
   91SAPE  C316 8976  -0.540   0.830   4.583 -0.3206 -0.0211 -0.7311
   91SAPE  H16X 8977  -0.626   0.786   4.639 -1.5846  0.3111 -2.3450
   91SAPE  H16Y 8978  -0.446   0.776   4.611  1.2357  3.7586  2.2220
   91SAPE  C317 8979  -0.571   0.797   4.436  0.6701 -0.5351  0.6158
   91SAPE  H17X 8980  -0.500   0.873   4.396  1.3969 -1.7848 -0.5600
   91SAPE  H17Y 8981  -0.668   0.813   4.385 -0.8346 -3.5106  2.2644
   91SAPE  C318 8982  -0.523   0.659   4.394  0.1330  0.1992 -0.0487
   91SAPE  H18X 8983  -0.606   0.585   4.396 -0.9209  1.3121 -0.5226
   91SAPE  H18Y 8984  -0.434   0.625   4.451  0.5127  1.2425  0.0069
   91SAPE  H18Z 8985  -0.490   0.663   4.288 -1.6385 -1.2538 -0.7039
   92SAPE     N 8986   6.214   1.657   6.579 -0.3868 -0.0390 -0.1846
   92SAPE   HN1 8987   6.215   1.761   6.578  1.0538  0.0041 -2.3333
   92SAPE   HN2 8988   6.134   1.632   6.516 -0.7121  3.2233 -1.2309
   92SAPE   HN3 8989   6.194   1.607   6.668 -0.4491 -1.9139 -1.1978
   92SAPE   C12 8990   6.342   1.609   6.520  0.0267  0.2653 -0.5430
   92SAPE  H12A 8991   6.354   1.647   6.416  0.1802  1.8868  0.0470
   92SAPE  H12B 8992   6.323   1.499   6.516 -0.2207  0.1427  2.3577
   92SAPE   C11 8993   6.454   1.635   6.629 -0.4109  0.5556 -0.6624
   92SAPE  H11A 8994   6.546   1.580   6.599 -0.0008  0.7424  0.2417
   92SAPE  H11B 8995   6.415   1.596   6.725 -1.2988 -2.0385 -1.9521
   92SAPE     P 8996   6.570   1.849   6.531 -0.3767  0.2567  0.3372
   92SAPE   O13 8997   6.543   1.992   6.539  0.0446 -0.4663 -0.2778
   92SAPE   O14 8998   6.710   1.802   6.546  0.1813  0.0429  0.2782
   92SAPE   O12 8999   6.483   1.777   6.641  0.0967  0.4292  0.2158
   92SAPE   O11 9000   6.511   1.794   6.397  0.2675 -0.0931  0.1869
   92SAPE    C1 9001   6.584   1.736   6.292  0.1847 -0.1185 -0.2822
   92SAPE    HA 9002   6.649   1.651   6.324  1.2363  0.5841 -0.5060
   92SAPE    HB 9003   6.504   1.707   6.220 -0.6838 -0.2126  0.6887
   92SAPE    C2 9004   6.668   1.838   6.208  0.0108 -0.4045  0.3755
   92SAPE    HS 9005   6.729   1.893   6.283 -1.0115  0.0301  0.9220
   92SAPE   O21 9006   6.568   1.927   6.151 -0.6715  0.4743  0.2062
   92SAPE   C21 9007   6.603   2.063   6.155 -0.2551  0.1465 -0.3539
   92SAPE   O22 9008   6.711   2.107   6.188 -0.3867  0.8900  0.2913
   92SAPE   C22 9009   6.483   2.143   6.140 -0.4789 -0.0699 -0.2957
   92SAPE   H2R 9010   6.408   2.115   6.063  0.3421 -0.3454 -1.0136
   92SAPE   H2S 9011   6.431   2.134   6.238 -0.3145 -1.0806 -0.2823
   92SAPE    C3 9012   6.749   1.769   6.097  0.0098  0.3121  0.3798
   92SAPE    HX 9013   6.799   1.856   6.050  0.4145  0.3458  0.8608
   92SAPE    HY 9014   6.682   1.716   6.026  1.2827  1.2661 -1.5945
   92SAPE   O31 9015   6.839   1.675   6.153 -0.3166  0.2759 -0.3452
   92SAPE   C31 9016   6.961   1.719   6.187  0.4031  0.6190  0.3425
   92SAPE   O32 9017   7.011   1.822   6.155  0.7083 -0.4130  0.1350
   92SAPE   C32 9018   7.035   1.613   6.269 -0.3339  0.3594 -0.0590
   92SAPE   H2X 9019   6.997   1.513   6.237  0.4544  0.6718 -2.1296
   92SAPE   H2Y 9020   7.015   1.636   6.376 -1.3234  0.1421 -0.1888
   92SAPE   C23 9021   6.502   2.303   6.130  0.7339 -0.1274 -0.1935
   92SAPE   H3R 9022   6.586   2.332   6.195  0.4432  0.6671 -0.1670
   92SAPE   H3S 9023   6.410   2.348   6.174  0.7240 -0.6399  0.3308
   92SAPE   C24 9024   6.510   2.358   5.986  0.6670 -0.2290  0.1139
   92SAPE   H4R 9025   6.503   2.469   5.987  0.3644 -0.2286 -1.1333
   92SAPE   H4S 9026   6.428   2.316   5.924  0.7577  0.3425 -0.4041
   92SAPE   C25 9027   6.647   2.307   5.936 -0.6402 -0.0167  0.2833
   92SAPE   H5R 9028   6.729   2.296   6.009  2.6130  1.9350 -2.7314
   92SAPE   C26 9029   6.672   2.278   5.804 -0.1918  0.0153 -0.2367
   92SAPE   H6R 9030   6.764   2.225   5.775  0.1854  1.8920 -2.8884
   92SAPE   C27 9031   6.579   2.290   5.687  0.4889 -0.3892 -0.1364
   92SAPE   H7R 9032   6.640   2.318   5.598 -1.5718  4.3110 -0.3788
   92SAPE   H7S 9033   6.516   2.380   5.699 -3.4871 -2.4205 -3.2168
   92SAPE   C28 9034   6.480   2.182   5.656  0.2701 -0.2136  0.1729
   92SAPE   H8R 9035   6.431   2.151   5.749 -0.5820  1.5715  0.3663
   92SAPE   C29 9036   6.439   2.131   5.541 -0.1358 -0.1967  0.5572
   92SAPE   H9R 9037   6.378   2.040   5.550  1.1938 -1.2096 -0.1870
   92SAPE  C210 9038   6.505   2.154   5.409  0.0291  0.3391  0.0769
   92SAPE  H10R 9039   6.572   2.067   5.393 -1.7246 -1.6024  2.5826
   92SAPE  H10S 9040   6.568   2.245   5.408  2.5792 -1.2996  1.5815
   92SAPE  C211 9041   6.399   2.179   5.306 -0.0110 -0.6968 -1.0638
   92SAPE  H11R 9042   6.315   2.246   5.329 -0.3881 -1.2900 -0.6815
   92SAPE  C212 9043   6.400   2.138   5.180  0.6660  0.2775  0.3001
   92SAPE  H12R 9044   6.323   2.180   5.115 -0.5574  1.7345  2.5753
   92SAPE  C213 9045   6.504   2.049   5.114  0.0468 -0.3586 -0.5042
   92SAPE  H13R 9046   6.600   2.047   5.170  0.0451  0.6906 -0.4413
   92SAPE  H13S 9047   6.537   2.107   5.025  0.2736  0.4657  0.0970
   92SAPE  C214 9048   6.461   1.912   5.075 -0.1208  0.0418 -0.0348
   92SAPE  H14R 9049   6.482   1.824   5.139  3.1851  0.3941 -0.4271
   92SAPE  C215 9050   6.407   1.882   4.956  0.1278 -0.2318 -0.3915
   92SAPE  H15R 9051   6.360   1.784   4.941 -0.3635  0.1395 -1.3951
   92SAPE  C216 9052   6.368   1.974   4.845  0.1738 -0.3920  0.1878
   92SAPE  H16R 9053   6.396   1.921   4.751 -0.7850 -3.2573  1.4206
   92SAPE  H16S 9054   6.417   2.074   4.853 -0.9817  0.2649 -0.5691
   92SAPE  C217 9055   6.213   1.986   4.834 -0.2370  0.1157 -0.3648
   92SAPE  H17R 9056   6.175   2.036   4.926  1.2088 -0.9955  0.8755
   92SAPE  H17S 9057   6.171   1.883   4.831 -0.1376  0.0397  0.4401
   92SAPE  C218 9058   6.163   2.057   4.706 -0.4345 -0.8132 -0.1496
   92SAPE  H18R 9059   6.171   1.993   4.616 -1.1525 -0.6534 -0.3336
   92SAPE  H18S 9060   6.250   2.124   4.687 -1.0349 -0.3214 -1.2262
   92SAPE  C219 9061   6.035   2.144   4.720 -1.1676 -0.2182  0.7117
   92SAPE  H19R 9062   6.061   2.220   4.797  0.1765  1.5205 -1.3440
   92SAPE  H19S 9063   5.947   2.083   4.749 -1.4475  0.4376  1.2692
   92SAPE  C220 9064   5.997   2.218   4.589  0.1108 -0.2428 -0.1251
   92SAPE  H20R 9065   5.903   2.273   4.614  1.0231  0.3559  2.2511
   92SAPE  H20S 9066   5.980   2.140   4.512 -1.6397  0.9526 -1.0258
   92SAPE  H20T 9067   6.071   2.297   4.563  1.1944  0.3685  3.9985
   92SAPE   C33 9068   7.193   1.623   6.263  0.1145 -0.0585  0.0412
   92SAPE   H3X 9069   7.234   1.603   6.364  1.5044 -2.3718 -0.9046
   92SAPE   H3Y 9070   7.221   1.728   6.238  0.1650 -0.5210 -2.0742
   92SAPE   C34 9071   7.256   1.528   6.158  0.0867  0.6429  0.2879
   92SAPE   H4X 9072   7.236   1.428   6.202 -1.6212  0.1096 -1.5481
   92SAPE   H4Y 9073   7.364   1.554   6.167  0.1481  0.5543 -0.2084
   92SAPE   C35 9074   7.199   1.533   6.011  0.4287  0.0435 -0.1821
   92SAPE   H5X 9075   7.200   1.642   5.991  2.4987 -0.0491 -0.8707
   92SAPE   H5Y 9076   7.094   1.500   6.020  0.5995 -0.0705  2.2476
   92SAPE   C36 9077   7.292   1.463   5.908  0.3998 -0.2271 -0.2616
   92SAPE   H6X 9078   7.283   1.352   5.917  5.0789 -0.9293 -1.7878
   92SAPE   H6Y 9079   7.401   1.478   5.925  0.8649 -1.1106 -2.2339
   92SAPE   C37 9080   7.259   1.513   5.771 -0.7316 -0.0413  0.0781
   92SAPE   H7X 9081   7.262   1.624   5.775 -0.3686 -0.0173 -0.7283
   92SAPE   H7Y 9082   7.156   1.487   5.740 -1.2536 -0.1041  1.7332
   92SAPE   C38 9083   7.356   1.469   5.662 -1.0157  0.0883 -0.0491
   92SAPE   H8X 9084   7.346   1.358   5.655  0.1813 -0.0430  0.1826
   92SAPE   H8Y 9085   7.458   1.507   5.683 -1.0922  1.0051 -1.2332
   92SAPE   C39 9086   7.320   1.516   5.520  0.4139 -0.0686  0.3262
   92SAPE   H9X 9087   7.383   1.464   5.445 -0.1508 -0.5378  0.1758
   92SAPE   H9Y 9088   7.351   1.623   5.508  0.5543 -0.3483 -2.6939
   92SAPE  C310 9089   7.173   1.495   5.480  0.2741  0.0206  0.8050
   92SAPE  H10X 9090   7.094   1.528   5.550 -1.6264 -1.9087 -0.3237
   92SAPE  H10Y 9091   7.157   1.387   5.458  0.2784  0.4867 -1.8655
   92SAPE  C311 9092   7.142   1.571   5.346  0.8581  0.7738  0.2771
   92SAPE  H11X 9093   7.214   1.557   5.263  1.8130  0.3540  1.1477
   92SAPE  H11Y 9094   7.154   1.679   5.367 -0.6063  1.2337 -1.1053
   92SAPE  C312 9095   6.999   1.535   5.297  0.0977  0.0765 -0.1520
   92SAPE  H12X 9096   6.927   1.576   5.371 -0.8320 -0.7892 -0.5407
   92SAPE  H12Y 9097   6.990   1.424   5.295  0.6741  0.0164  0.2701
   92SAPE  C313 9098   6.975   1.590   5.151 -0.4044 -0.1661  0.4725
   92SAPE  H13X 9099   6.868   1.575   5.122 -0.3521  1.0439 -0.3876
   92SAPE  H13Y 9100   7.035   1.532   5.078 -1.6223 -0.5555 -0.2456
   92SAPE  C314 9101   6.991   1.740   5.125  0.3793 -0.4929  0.6160
   92SAPE  H14X 9102   7.097   1.766   5.146  0.3918 -1.2570  1.5394
   92SAPE  H14Y 9103   6.926   1.798   5.193  2.0856 -0.3762  2.2442
   92SAPE  C315 9104   6.961   1.781   4.981 -0.2128 -0.3084  0.7208
   92SAPE  H15X 9105   7.017   1.702   4.926  0.1903  0.2514  0.3125
   92SAPE  H15Y 9106   7.000   1.883   4.961 -0.7557 -0.0703  0.8457
   92SAPE  C316 9107   6.811   1.778   4.941 -0.5065  0.0489 -0.1300
   92SAPE  H16X 9108   6.759   1.871   4.973 -1.0205 -0.3892  0.3338
   92SAPE  H16Y 9109   6.761   1.690   4.987  0.4564  0.0166  0.9162
   92SAPE  C317 9110   6.799   1.768   4.790 -0.8567 -0.4164 -0.6111
   92SAPE  H17X 9111   6.853   1.680   4.749 -2.9096 -1.3867 -1.3530
   92SAPE  H17Y 9112   6.853   1.855   4.746 -0.5767  0.1172  0.7489
   92SAPE  C318 9113   6.658   1.764   4.747  0.3743 -0.2435  0.4244
   92SAPE  H18X 9114   6.593   1.706   4.816 -0.8359 -1.4501 -1.6008
   92SAPE  H18Y 9115   6.645   1.715   4.648 -0.3055  1.0718 -0.1492
   92SAPE  H18Z 9116   6.629   1.870   4.734 -2.6482 -1.3448 -3.9162
   93SAPE     N 9117   3.598   1.165   7.024 -0.9631  0.6798 -0.1196
   93SAPE   HN1 9118   3.618   1.065   7.000  0.4671  0.8214  0.3824
   93SAPE   HN2 9119   3.650   1.198   7.108 -1.6211  1.8674 -0.1646
   93SAPE   HN3 9120   3.496   1.174   7.042 -1.3821 -2.9237  0.0411
   93SAPE   C12 9121   3.639   1.245   6.902  0.3910  0.1931 -0.0846
   93SAPE  H12A 9122   3.554   1.315   6.886  0.0173 -0.1901  0.2288
   93SAPE  H12B 9123   3.638   1.175   6.816  2.2483 -0.7963  0.6432
   93SAPE   C11 9124   3.773   1.324   6.909 -0.0256 -0.0391 -0.6383
   93SAPE  H11A 9125   3.783   1.382   6.815  1.7916 -0.6249 -0.8521
   93SAPE  H11B 9126   3.863   1.259   6.913  0.9589  1.1999 -1.7561
   93SAPE     P 9127   3.730   1.551   7.040  0.0184  0.0683  0.0630
   93SAPE   O13 9128   3.604   1.568   7.113  0.6662  0.7984 -0.3814
   93SAPE   O14 9129   3.838   1.634   7.096 -0.4435  0.3679 -0.3447
   93SAPE   O12 9130   3.775   1.403   7.031 -0.2683 -0.0232  0.4534
   93SAPE   O11 9131   3.704   1.609   6.895 -0.2227 -0.3235  0.4640
   93SAPE    C1 9132   3.571   1.603   6.836  0.4642 -0.5805 -0.7523
   93SAPE    HA 9133   3.560   1.496   6.806  1.0831 -0.3894 -1.7113
   93SAPE    HB 9134   3.491   1.618   6.912 -0.2651  1.0146 -1.7833
   93SAPE    C2 9135   3.543   1.703   6.721  0.0690  0.5201  0.0939
   93SAPE    HS 9136   3.455   1.663   6.667  0.4293 -1.9566  1.1990
   93SAPE   O21 9137   3.665   1.719   6.641  0.1330 -0.5710  0.0338
   93SAPE   C21 9138   3.688   1.607   6.571 -0.1345 -0.5663  0.0015
   93SAPE   O22 9139   3.614   1.515   6.555  0.1539 -0.2061  0.0474
   93SAPE   C22 9140   3.833   1.605   6.511  0.5566  0.3228 -0.2698
   93SAPE   H2R 9141   3.868   1.710   6.522 -0.1432  0.7055 -1.4482
   93SAPE   H2S 9142   3.888   1.529   6.569 -1.5172  0.9428  2.7286
   93SAPE    C3 9143   3.501   1.842   6.778 -0.3294  0.2287  0.3987
   93SAPE    HX 9144   3.598   1.885   6.812 -1.0081  1.7425  0.5118
   93SAPE    HY 9145   3.430   1.830   6.861  0.3998 -0.0176  0.9984
   93SAPE   O31 9146   3.438   1.912   6.667  0.2766 -1.1797 -0.0068
   93SAPE   C31 9147   3.417   2.034   6.706  0.4953  0.0962 -0.0508
   93SAPE   O32 9148   3.449   2.081   6.814 -0.5000 -0.2300 -0.8094
   93SAPE   C32 9149   3.347   2.111   6.597 -0.2746 -0.4135  0.4362
   93SAPE   H2X 9150   3.285   2.195   6.634  0.3336 -1.4278  4.0984
   93SAPE   H2Y 9151   3.274   2.039   6.554  0.5456 -1.2873  0.4831
   93SAPE   C23 9152   3.826   1.572   6.356  0.7914 -0.2272 -0.0375
   93SAPE   H3R 9153   3.753   1.639   6.307  0.6470  0.1754  0.7103
   93SAPE   H3S 9154   3.778   1.473   6.344  0.3878 -0.2664  1.6753
   93SAPE   C24 9155   3.953   1.596   6.280  0.8696 -0.6513 -0.0631
   93SAPE   H4R 9156   3.977   1.705   6.277  2.1716 -0.8487  1.6660
   93SAPE   H4S 9157   3.939   1.566   6.174 -0.2090  1.1168 -0.4633
   93SAPE   C25 9158   4.067   1.526   6.348 -0.0121 -0.0194 -0.0197
   93SAPE   H5R 9159   4.122   1.585   6.422  1.0719  0.4151 -1.1417
   93SAPE   C26 9160   4.118   1.408   6.316  0.0725  0.6298 -0.0888
   93SAPE   H6R 9161   4.208   1.371   6.367  1.0431  0.6113 -1.7279
   93SAPE   C27 9162   4.072   1.308   6.214  0.6095  0.3801  0.5685
   93SAPE   H7R 9163   4.117   1.340   6.117 -0.0126 -1.6081 -0.4215
   93SAPE   H7S 9164   3.966   1.333   6.191  0.5155 -1.3448 -1.1329
   93SAPE   C28 9165   4.085   1.160   6.232  0.2417 -0.2624  0.3149
   93SAPE   H8R 9166   4.114   1.135   6.335 -2.5554  0.6389  1.4379
   93SAPE   C29 9167   4.050   1.062   6.148  0.9500 -0.3877 -0.5950
   93SAPE   H9R 9168   4.075   0.960   6.180 -0.0493 -0.2690  0.6633
   93SAPE  C210 9169   3.984   1.076   6.015 -0.2600 -0.0566  0.6167
   93SAPE  H10R 9170   3.973   1.182   5.984 -1.3871 -1.0433 -2.8963
   93SAPE  H10S 9171   3.878   1.042   6.023 -0.1231 -0.6407  0.0279
   93SAPE  C211 9172   4.055   1.001   5.904 -0.0091  0.5432 -0.0969
   93SAPE  H11R 9173   4.164   1.016   5.897 -0.3140  2.4610 -2.0743
   93SAPE  C212 9174   3.996   0.916   5.814 -0.3004  0.7331 -0.3734
   93SAPE  H12R 9175   4.067   0.881   5.737  1.6228  2.3155  0.5969
   93SAPE  C213 9176   3.847   0.901   5.783 -0.2758 -0.2280 -0.3169
   93SAPE  H13R 9177   3.802   0.994   5.744 -1.4758 -0.7518 -0.2283
   93SAPE  H13S 9178   3.795   0.887   5.881  0.4847 -3.7119 -0.2671
   93SAPE  C214 9179   3.825   0.784   5.687 -0.3025  0.0990  0.8860
   93SAPE  H14R 9180   3.874   0.687   5.705 -0.4029 -0.6614 -2.2890
   93SAPE  C215 9181   3.735   0.783   5.579 -0.6382  1.0551  0.1122
   93SAPE  H15R 9182   3.734   0.692   5.517 -2.0821 -0.1731  1.8215
   93SAPE  C216 9183   3.642   0.897   5.541 -0.0193 -0.0397  0.3431
   93SAPE  H16R 9184   3.665   1.004   5.563 -2.1466 -0.0876  3.5172
   93SAPE  H16S 9185   3.545   0.880   5.593  1.3188 -0.1746  2.9500
   93SAPE  C217 9186   3.634   0.884   5.386 -0.0967 -0.2908  0.2075
   93SAPE  H17R 9187   3.559   0.954   5.345  1.5293  0.2606 -1.9928
   93SAPE  H17S 9188   3.594   0.782   5.367 -0.5248 -0.5695  2.3554
   93SAPE  C218 9189   3.769   0.910   5.309 -0.3403 -0.2049  0.0222
   93SAPE  H18R 9190   3.854   0.847   5.340  0.4417 -0.1078 -1.8175
   93SAPE  H18S 9191   3.800   1.016   5.324  0.3313 -0.3641 -0.2461
   93SAPE  C219 9192   3.754   0.900   5.158  0.1247  0.6704 -0.0858
   93SAPE  H19R 9193   3.654   0.934   5.126  1.0989  2.9119 -0.9482
   93SAPE  H19S 9194   3.770   0.793   5.133 -1.7132  0.7917 -2.0665
   93SAPE  C220 9195   3.866   0.971   5.083  0.0037  0.3026 -0.1829
   93SAPE  H20R 9196   3.867   1.082   5.077 -0.9463  0.3565  0.4345
   93SAPE  H20S 9197   3.878   0.922   4.984 -0.1961  1.0406 -0.5830
   93SAPE  H20T 9198   3.959   0.952   5.141  0.3619 -0.3999 -0.9632
   93SAPE   C33 9199   3.443   2.172   6.490  0.2328 -0.0566 -0.2760
   93SAPE   H3X 9200   3.515   2.090   6.470  1.3828 -0.0548  3.1670
   93SAPE   H3Y 9201   3.502   2.257   6.531 -1.7239  1.3398 -0.2124
   93SAPE   C34 9202   3.371   2.226   6.365  0.1756 -0.0758 -0.6694
   93SAPE   H4X 9203   3.331   2.329   6.378  3.4915  1.3844 -1.1065
   93SAPE   H4Y 9204   3.280   2.166   6.343  0.3703 -0.1850 -1.1802
   93SAPE   C35 9205   3.473   2.233   6.249 -0.9846 -0.3810  0.2419
   93SAPE   H5X 9206   3.484   2.130   6.207 -1.1941 -0.5915  0.6970
   93SAPE   H5Y 9207   3.570   2.275   6.284 -1.9710  1.0164  1.4067
   93SAPE   C36 9208   3.428   2.325   6.130  0.5709 -0.7235  0.0830
   93SAPE   H6X 9209   3.426   2.430   6.167  1.1287 -0.2641 -1.1541
   93SAPE   H6Y 9210   3.325   2.295   6.104  1.0257 -0.1519 -2.7499
   93SAPE   C37 9211   3.523   2.313   6.006 -0.2025 -0.2695 -0.4884
   93SAPE   H7X 9212   3.509   2.221   5.945 -1.1148  0.1140 -0.8823
   93SAPE   H7Y 9213   3.628   2.314   6.042 -0.5468 -1.1864  0.5901
   93SAPE   C38 9214   3.517   2.433   5.910 -0.4165 -0.4343  1.2926
   93SAPE   H8X 9215   3.551   2.530   5.953  0.9511  0.5893 -1.8219
   93SAPE   H8Y 9216   3.417   2.457   5.869  0.3093 -1.8069 -1.5159
   93SAPE   C39 9217   3.598   2.410   5.783 -0.2658 -0.1714 -0.0111
   93SAPE   H9X 9218   3.698   2.377   5.816  1.1332  2.0459 -1.6828
   93SAPE   H9Y 9219   3.602   2.508   5.730  2.2008  0.2942  0.9311
   93SAPE  C310 9220   3.530   2.305   5.686 -0.2424  0.0355 -1.1484
   93SAPE  H10X 9221   3.437   2.345   5.639 -0.9847 -1.1186 -0.7302
   93SAPE  H10Y 9222   3.508   2.203   5.726  1.2533  0.0485 -0.2405
   93SAPE  C311 9223   3.621   2.284   5.567  0.0647  0.4707  0.2012
   93SAPE  H11X 9224   3.708   2.224   5.603 -0.1870  0.3486  0.6148
   93SAPE  H11Y 9225   3.664   2.383   5.540  1.5312 -0.2879 -0.3411
   93SAPE  C312 9226   3.550   2.220   5.447  0.1521  0.2302  0.0897
   93SAPE  H12X 9227   3.469   2.280   5.402  0.2951  0.4622  0.1405
   93SAPE  H12Y 9228   3.502   2.128   5.487 -1.1774 -0.3991 -2.7279
   93SAPE  C313 9229   3.646   2.191   5.331 -0.0202  0.1885 -0.7431
   93SAPE  H13X 9230   3.578   2.128   5.270 -1.6299  0.6660  0.5085
   93SAPE  H13Y 9231   3.731   2.132   5.372  0.3824 -0.0320 -1.8485
   93SAPE  C314 9232   3.675   2.310   5.234 -0.0439  0.0889 -0.4859
   93SAPE  H14X 9233   3.708   2.398   5.293  1.0116  0.1666 -1.1623
   93SAPE  H14Y 9234   3.577   2.341   5.194  0.1817  0.6992 -0.5720
   93SAPE  C315 9235   3.784   2.266   5.132 -0.1313 -0.4209  0.0824
   93SAPE  H15X 9236   3.873   2.230   5.188 -0.5848 -0.0983  1.0363
   93SAPE  H15Y 9237   3.825   2.357   5.084 -3.2526  1.0676 -0.0142
   93SAPE  C316 9238   3.727   2.170   5.026  0.3551 -0.1686 -0.5116
   93SAPE  H16X 9239   3.651   2.222   4.964 -1.4379 -1.7440  0.2334
   93SAPE  H16Y 9240   3.689   2.081   5.082  1.2296 -0.3271 -0.1569
   93SAPE  C317 9241   3.824   2.132   4.910  0.0736 -0.4138  0.8553
   93SAPE  H17X 9242   3.890   2.054   4.955  1.7011  1.6865  2.2825
   93SAPE  H17Y 9243   3.890   2.215   4.880  0.2769 -1.5241 -2.1293
   93SAPE  C318 9244   3.759   2.071   4.782  0.1165 -0.2568 -0.5988
   93SAPE  H18X 9245   3.829   2.040   4.702 -0.5260 -1.1987 -0.8197
   93SAPE  H18Y 9246   3.689   2.143   4.736  1.4551  1.4631 -0.0603
   93SAPE  H18Z 9247   3.705   1.976   4.802  1.3506 -1.5511 -3.0128
   94SAPE     N 9248   1.661   1.415   6.808  0.8357 -0.7482 -0.5686
   94SAPE   HN1 9249   1.662   1.367   6.716 -0.8867 -1.6022 -0.1883
   94SAPE   HN2 9250   1.674   1.517   6.792  0.0672  0.3494  4.1359
   94SAPE   HN3 9251   1.742   1.388   6.867 -0.0431 -0.6134  0.7513
   94SAPE   C12 9252   1.532   1.398   6.882  0.1950  0.1046  0.2410
   94SAPE  H12A 9253   1.531   1.293   6.918  3.3199 -0.1914 -0.3129
   94SAPE  H12B 9254   1.445   1.425   6.818 -1.3956 -1.1729  1.7580
   94SAPE   C11 9255   1.532   1.478   7.010  0.1677 -0.3133 -0.0641
   94SAPE  H11A 9256   1.614   1.441   7.075 -0.8345 -0.9689  0.8641
   94SAPE  H11B 9257   1.446   1.442   7.070  0.1053 -0.2267 -0.1010
   94SAPE     P 9258   1.654   1.699   7.027  0.0371 -0.4698  0.0855
   94SAPE   O13 9259   1.639   1.720   7.170 -0.0795  0.4648  0.5561
   94SAPE   O14 9260   1.780   1.641   6.983  0.1433  0.3435  0.5515
   94SAPE   O12 9261   1.525   1.620   6.986  0.1556 -0.2354  0.2133
   94SAPE   O11 9262   1.628   1.835   6.951  0.4439  0.2564 -0.2315
   94SAPE    C1 9263   1.506   1.854   6.876 -0.7604  0.2363 -0.3961
   94SAPE    HA 9264   1.410   1.823   6.922 -0.4127 -2.0518 -1.0747
   94SAPE    HB 9265   1.495   1.964   6.867  3.5185  0.8943  0.6879
   94SAPE    C2 9266   1.524   1.794   6.729  0.2939 -0.0234  0.3110
   94SAPE    HS 9267   1.531   1.686   6.753  0.3793  0.1250  0.9757
   94SAPE   O21 9268   1.629   1.854   6.659 -0.2475  0.3356 -0.4255
   94SAPE   C21 9269   1.725   1.766   6.625 -0.2592  0.2515  0.5100
   94SAPE   O22 9270   1.713   1.648   6.639  0.1438  0.5444 -0.5921
   94SAPE   C22 9271   1.849   1.836   6.571  0.7068  0.2555 -0.3304
   94SAPE   H2R 9272   1.860   1.939   6.610  1.0002  0.1223 -0.0582
   94SAPE   H2S 9273   1.937   1.783   6.612 -0.7531 -1.0664  1.2603
   94SAPE    C3 9274   1.393   1.791   6.641  0.1233  0.0473  0.7209
   94SAPE    HX 9275   1.349   1.893   6.634  0.1610 -0.0374 -1.3107
   94SAPE    HY 9276   1.314   1.724   6.682  0.2239 -1.3438 -1.2248
   94SAPE   O31 9277   1.424   1.736   6.511  0.1438  0.3042  0.1952
   94SAPE   C31 9278   1.429   1.602   6.508 -0.8201 -0.7891  0.4456
   94SAPE   O32 9279   1.417   1.523   6.598 -0.3759 -0.3573 -0.2228
   94SAPE   C32 9280   1.495   1.568   6.377  0.5023 -0.3475 -0.2784
   94SAPE   H2X 9281   1.603   1.584   6.398  0.6475 -2.5291  0.9079
   94SAPE   H2Y 9282   1.456   1.643   6.305  0.3083 -1.9595 -1.9095
   94SAPE   C23 9283   1.860   1.831   6.414  0.2726 -0.9552 -0.0092
   94SAPE   H3R 9284   1.761   1.849   6.365  1.0432 -2.7227 -2.4328
   94SAPE   H3S 9285   1.879   1.724   6.391 -2.7158 -2.0409  1.9509
   94SAPE   C24 9286   1.965   1.919   6.349  0.4175 -0.3310  0.0423
   94SAPE   H4R 9287   1.963   2.026   6.380 -1.3760 -0.0672 -0.8327
   94SAPE   H4S 9288   1.921   1.932   6.248 -1.5662  0.2609  0.9237
   94SAPE   C25 9289   2.112   1.876   6.339  0.3298  0.8070  0.0874
   94SAPE   H5R 9290   2.147   1.837   6.436  2.4771  1.4816 -0.3586
   94SAPE   C26 9291   2.193   1.864   6.239  0.2533  0.0954  0.7753
   94SAPE   H6R 9292   2.300   1.839   6.242 -0.0862 -2.2764 -2.0986
   94SAPE   C27 9293   2.136   1.898   6.098 -0.1307 -0.4206 -0.3495
   94SAPE   H7R 9294   2.052   1.971   6.100 -1.8454 -2.3004 -0.6434
   94SAPE   H7S 9295   2.103   1.804   6.049 -4.7636  1.0799 -0.5252
   94SAPE   C28 9296   2.249   1.944   6.006  0.3815 -0.3408  0.4153
   94SAPE   H8R 9297   2.326   1.997   6.065  0.8508 -0.3552 -0.1829
   94SAPE   C29 9298   2.254   1.923   5.871 -0.5091 -0.2211 -0.6458
   94SAPE   H9R 9299   2.348   1.945   5.818 -0.5291  0.2877 -0.4789
   94SAPE  C210 9300   2.139   1.874   5.785  0.1181 -0.3471 -0.0007
   94SAPE  H10R 9301   2.046   1.881   5.845  1.1067 -0.1599  1.5487
   94SAPE  H10S 9302   2.163   1.767   5.766  0.8954  0.1831 -2.3855
   94SAPE  C211 9303   2.112   1.953   5.661 -0.3325  0.4344  0.4093
   94SAPE  H11R 9304   2.023   2.017   5.668 -0.5769  0.1783 -0.3274
   94SAPE  C212 9305   2.174   1.940   5.544 -0.0193 -0.3909  0.2944
   94SAPE  H12R 9306   2.135   2.001   5.461 -1.7566  0.9509  1.9860
   94SAPE  C213 9307   2.292   1.851   5.507  0.2707  0.5376 -0.6124
   94SAPE  H13R 9308   2.368   1.854   5.587  1.8688 -1.4141 -1.9630
   94SAPE  H13S 9309   2.343   1.881   5.413  2.6601 -0.1897  0.3674
   94SAPE  C214 9310   2.251   1.715   5.499  0.5547  0.8673  0.4432
   94SAPE  H14R 9311   2.261   1.666   5.597  1.0890 -1.3958 -0.6723
   94SAPE  C215 9312   2.226   1.648   5.377  0.1805 -0.2074 -0.2474
   94SAPE  H15R 9313   2.195   1.543   5.368  0.8264 -0.2385 -2.8016
   94SAPE  C216 9314   2.199   1.724   5.251 -0.1455  0.0657 -1.0350
   94SAPE  H16R 9315   2.179   1.832   5.272  0.1410 -0.4704  2.5359
   94SAPE  H16S 9316   2.109   1.691   5.194 -1.0796  0.5667  0.0958
   94SAPE  C217 9317   2.324   1.709   5.153  0.4050 -0.5271 -1.3821
   94SAPE  H17R 9318   2.375   1.611   5.153 -0.6563 -1.0986 -2.2322
   94SAPE  H17S 9319   2.399   1.783   5.189  0.0967 -2.5873  4.4771
   94SAPE  C218 9320   2.280   1.742   5.011 -0.0312 -0.0063 -0.0567
   94SAPE  H18R 9321   2.223   1.656   4.970 -1.3375  0.9461 -0.2793
   94SAPE  H18S 9322   2.371   1.743   4.946  0.2733  1.4580  0.3452
   94SAPE  C219 9323   2.209   1.876   4.997 -0.2062  0.3962  0.0054
   94SAPE  H19R 9324   2.249   1.952   5.068 -3.3766 -0.1540  2.6533
   94SAPE  H19S 9325   2.107   1.855   5.038  0.1689 -0.1983  0.6466
   94SAPE  C220 9326   2.206   1.934   4.858  0.4919 -0.2585  0.5221
   94SAPE  H20R 9327   2.167   1.860   4.785  2.3479  0.3906 -1.2233
   94SAPE  H20S 9328   2.309   1.949   4.819  0.2623 -0.7201 -0.2890
   94SAPE  H20T 9329   2.144   2.025   4.859  1.2569  0.3142  2.8005
   94SAPE   C33 9330   1.456   1.431   6.326  0.2353  0.1825  0.2563
   94SAPE   H3X 9331   1.346   1.419   6.324  0.2673 -0.0985  0.0869
   94SAPE   H3Y 9332   1.494   1.356   6.399 -1.9937  0.1509  1.4711
   94SAPE   C34 9333   1.497   1.408   6.180 -0.3418  0.2153  0.4132
   94SAPE   H4X 9334   1.606   1.392   6.173 -0.5272 -0.3604 -2.0580
   94SAPE   H4Y 9335   1.472   1.504   6.129  2.3488  2.1139  2.3829
   94SAPE   C35 9336   1.417   1.300   6.121  0.0593  0.9246 -0.5800
   94SAPE   H5X 9337   1.308   1.319   6.136  0.3025  2.3303 -0.4688
   94SAPE   H5Y 9338   1.447   1.207   6.173  2.9978  1.2092 -1.5558
   94SAPE   C36 9339   1.444   1.285   5.973  0.5376  0.0439  0.0117
   94SAPE   H6X 9340   1.407   1.183   5.949  0.0415  0.4395 -1.0199
   94SAPE   H6Y 9341   1.553   1.285   5.955  0.7541  1.4762  1.1582
   94SAPE   C37 9342   1.378   1.392   5.890  0.2924 -0.1279 -0.0336
   94SAPE   H7X 9343   1.385   1.494   5.933 -1.5281  0.1370 -0.3029
   94SAPE   H7Y 9344   1.269   1.377   5.879  0.3194 -0.9305  0.7006
   94SAPE   C38 9345   1.427   1.392   5.743 -0.1238  0.2221  0.5083
   94SAPE   H8X 9346   1.417   1.290   5.699  0.7828 -0.3630  1.5892
   94SAPE   H8Y 9347   1.532   1.427   5.745 -0.2693  0.8588 -1.2158
   94SAPE   C39 9348   1.344   1.489   5.656  0.1774  0.0711  0.3004
   94SAPE   H9X 9349   1.357   1.589   5.704 -3.2518  0.7936 -0.0446
   94SAPE   H9Y 9350   1.246   1.440   5.639 -0.1426  1.3627 -2.0047
   94SAPE  C310 9351   1.403   1.503   5.513 -0.5096 -0.4691 -0.2669
   94SAPE  H10X 9352   1.511   1.516   5.533 -1.0898  2.9132  1.2352
   94SAPE  H10Y 9353   1.363   1.597   5.470 -1.3614  0.0157  1.4714
   94SAPE  C311 9354   1.370   1.382   5.425  0.6952  0.0287 -0.3282
   94SAPE  H11X 9355   1.262   1.357   5.423  0.8834 -1.8891  3.4010
   94SAPE  H11Y 9356   1.412   1.287   5.465  0.1588 -0.4277 -0.8391
   94SAPE  C312 9357   1.407   1.389   5.274  0.5994  0.4397  0.4084
   94SAPE  H12X 9358   1.511   1.423   5.254  0.3337  0.4110 -1.1799
   94SAPE  H12Y 9359   1.342   1.456   5.214  1.0562 -0.1474 -0.7703
   94SAPE  C313 9360   1.407   1.252   5.199  0.4669  0.4880  0.6135
   94SAPE  H13X 9361   1.476   1.176   5.240  1.5611  1.2420  0.2118
   94SAPE  H13Y 9362   1.452   1.266   5.099  0.2971 -0.4456  0.3991
   94SAPE  C314 9363   1.267   1.179   5.192  0.4546 -0.0690 -0.0480
   94SAPE  H14X 9364   1.225   1.148   5.290 -0.4098  0.7813 -0.1390
   94SAPE  H14Y 9365   1.285   1.091   5.126  0.4988 -0.8024  0.9213
   94SAPE  C315 9366   1.154   1.262   5.127 -0.4027  0.3988  0.3732
   94SAPE  H15X 9367   1.109   1.333   5.199  0.0144 -0.2079  1.2564
   94SAPE  H15Y 9368   1.073   1.189   5.109 -1.0166  1.6121 -2.2462
   94SAPE  C316 9369   1.195   1.324   4.990  1.1545  0.1299 -0.0471
   94SAPE  H16X 9370   1.221   1.239   4.924  1.0083 -1.5626  1.9766
   94SAPE  H16Y 9371   1.283   1.390   5.008  0.8522  1.3612 -2.5580
   94SAPE  C317 9372   1.078   1.403   4.943  0.1979 -0.3248  0.1892
   94SAPE  H17X 9373   1.076   1.500   4.997  1.8786  0.7738 -1.5808
   94SAPE  H17Y 9374   0.986   1.342   4.958 -0.5289  0.9711  1.1698
   94SAPE  C318 9375   1.064   1.428   4.793  0.1644  0.7627 -0.5832
   94SAPE  H18X 9376   1.161   1.469   4.759  1.0970 -0.2182  0.7794
   94SAPE  H18Y 9377   0.980   1.495   4.766  0.3653  1.0776 -0.4245
   94SAPE  H18Z 9378   1.047   1.332   4.740 -1.9362  1.3183 -1.0129
   95SAPE     N 9379   5.843   1.389   7.021  0.6907 -0.2103 -0.2651
   95SAPE   HN1 9380   5.779   1.314   6.988  0.9662  0.3029 -2.1191
   95SAPE   HN2 9381   5.939   1.371   6.985  0.9966 -0.0530  0.4587
   95SAPE   HN3 9382   5.848   1.402   7.124  1.5222  1.2911 -0.4664
   95SAPE   C12 9383   5.794   1.524   6.962 -0.6963  1.0083 -0.2980
   95SAPE  H12A 9384   5.858   1.601   7.010  0.2599  1.1841 -1.7845
   95SAPE  H12B 9385   5.690   1.531   7.000 -0.9894 -1.5615 -0.4437
   95SAPE   C11 9386   5.803   1.528   6.808  0.0331 -0.4307 -1.1114
   95SAPE  H11A 9387   5.910   1.553   6.793 -0.1028 -0.8443 -3.0721
   95SAPE  H11B 9388   5.748   1.617   6.770 -0.1412 -0.9589 -2.1269
   95SAPE     P 9389   5.623   1.360   6.692  0.3245  0.2390  0.0359
   95SAPE   O13 9390   5.637   1.250   6.599  0.3997  0.3333  0.2983
   95SAPE   O14 9391   5.531   1.329   6.800 -0.0838  0.7031 -0.2911
   95SAPE   O12 9392   5.762   1.408   6.740 -0.1966 -0.2004  0.3846
   95SAPE   O11 9393   5.554   1.479   6.616  0.4901  0.2111  0.0628
   95SAPE    C1 9394   5.593   1.536   6.494 -0.7578  0.0854 -0.2377
   95SAPE    HA 9395   5.536   1.629   6.472 -0.7252  0.0184 -0.6161
   95SAPE    HB 9396   5.700   1.564   6.489 -0.5736 -0.6009 -0.1548
   95SAPE    C2 9397   5.562   1.446   6.365 -0.4588 -0.2715 -0.3982
   95SAPE    HS 9398   5.639   1.366   6.359 -1.6428 -1.4729 -0.3309
   95SAPE   O21 9399   5.567   1.514   6.238 -0.2493 -0.1543  0.3964
   95SAPE   C21 9400   5.675   1.584   6.215  0.1391  0.4724 -0.1128
   95SAPE   O22 9401   5.778   1.580   6.279  0.0397  0.3516 -0.3662
   95SAPE   C22 9402   5.649   1.667   6.092  0.4527 -0.6560  0.1453
   95SAPE   H2R 9403   5.541   1.668   6.068  0.2512 -0.5243  1.0337
   95SAPE   H2S 9404   5.686   1.771   6.104 -3.5868  1.1157 -1.1499
   95SAPE    C3 9405   5.428   1.380   6.373  0.2695  0.2205 -0.1644
   95SAPE    HX 9406   5.357   1.466   6.371 -1.5304 -1.1294  1.7182
   95SAPE    HY 9407   5.410   1.332   6.471  1.4487  3.5644  1.8576
   95SAPE   O31 9408   5.406   1.290   6.263  0.3475 -0.4567 -0.4410
   95SAPE   C31 9409   5.305   1.207   6.268  0.5093 -0.3158  0.5651
   95SAPE   O32 9410   5.241   1.181   6.370 -0.1144  0.2217  0.5148
   95SAPE   C32 9411   5.285   1.152   6.121 -0.3387  0.2782  0.0328
   95SAPE   H2X 9412   5.328   1.050   6.116 -1.0463  0.0004 -0.5367
   95SAPE   H2Y 9413   5.337   1.220   6.050  0.2046 -1.7169 -1.5769
   95SAPE   C23 9414   5.718   1.606   5.969  0.1860  0.3193  0.3596
   95SAPE   H3R 9415   5.668   1.509   5.949  0.9602 -0.1354  0.5668
   95SAPE   H3S 9416   5.826   1.584   5.985 -0.2503 -1.7890  0.6290
   95SAPE   C24 9417   5.721   1.687   5.838 -0.4100 -0.1120  0.2883
   95SAPE   H4R 9418   5.757   1.790   5.855 -1.6448  0.3001  0.5108
   95SAPE   H4S 9419   5.616   1.694   5.802  0.3061 -0.7052 -2.0664
   95SAPE   C25 9420   5.797   1.618   5.729 -1.0604 -0.3009 -0.4582
   95SAPE   H5R 9421   5.891   1.568   5.757 -1.0356  0.0039  0.0111
   95SAPE   C26 9422   5.765   1.601   5.601  0.1856 -0.4686  0.4194
   95SAPE   H6R 9423   5.840   1.550   5.540  0.8343  0.0258  0.7840
   95SAPE   C27 9424   5.640   1.658   5.533 -0.8719 -0.0299  0.5686
   95SAPE   H7R 9425   5.579   1.712   5.608 -3.5671  0.8886 -2.0982
   95SAPE   H7S 9426   5.581   1.572   5.495 -0.5556 -0.2146  0.4920
   95SAPE   C28 9427   5.686   1.756   5.423 -0.7877 -0.0822 -0.0569
   95SAPE   H8R 9428   5.699   1.859   5.457  2.5508 -0.2090 -0.6305
   95SAPE   C29 9429   5.728   1.726   5.297  0.2733  0.1578 -0.8420
   95SAPE   H9R 9430   5.734   1.817   5.236  0.7698 -0.3011 -1.4919
   95SAPE  C210 9431   5.732   1.596   5.234  0.3640  0.4157 -0.2344
   95SAPE  H10R 9432   5.687   1.515   5.295  0.3921 -0.3292 -1.1764
   95SAPE  H10S 9433   5.837   1.565   5.214  0.1932 -2.1942  2.3110
   95SAPE  C211 9434   5.667   1.606   5.099  0.1597  0.3351  0.0422
   95SAPE  H11R 9435   5.561   1.581   5.091  0.5287 -0.9704 -1.1342
   95SAPE  C212 9436   5.719   1.655   4.985  0.4550 -0.2937  0.2907
   95SAPE  H12R 9437   5.670   1.628   4.890  4.8445 -0.4830 -2.2075
   95SAPE  C213 9438   5.858   1.698   4.966 -0.3944 -0.0908 -0.0214
   95SAPE  H13R 9439   5.938   1.621   4.976  2.0229  2.3740  0.7979
   95SAPE  H13S 9440   5.896   1.771   5.040 -1.1672  1.9679 -1.5506
   95SAPE  C214 9441   5.880   1.773   4.835  0.8683 -0.8456  0.3656
   95SAPE  H14R 9442   5.882   1.881   4.857 -1.5293 -1.1050  2.2891
   95SAPE  C215 9443   5.889   1.723   4.712  0.4457  0.5549  0.5126
   95SAPE  H15R 9444   5.923   1.796   4.636 -1.4872  1.2549  0.2765
   95SAPE  C216 9445   5.878   1.572   4.669  0.6092 -0.4259  0.3711
   95SAPE  H16R 9446   5.773   1.561   4.632  0.6085 -0.6678  0.4457
   95SAPE  H16S 9447   5.891   1.504   4.755  0.1865  1.2126  1.7847
   95SAPE  C217 9448   5.970   1.528   4.555  0.2356  0.3870 -0.6651
   95SAPE  H17R 9449   6.000   1.619   4.499  1.2722 -0.1634 -1.0341
   95SAPE  H17S 9450   5.913   1.462   4.486 -0.6524 -0.7591  1.0872
   95SAPE  C218 9451   6.100   1.466   4.596 -0.0753 -0.8754  0.4443
   95SAPE  H18R 9452   6.153   1.435   4.504  0.1375 -0.4294  0.4165
   95SAPE  H18S 9453   6.083   1.378   4.662 -0.5036  1.1601  3.2441
   95SAPE  C219 9454   6.196   1.559   4.676 -0.5100 -0.2804 -0.2381
   95SAPE  H19R 9455   6.144   1.594   4.768 -0.3689 -1.2535  0.2281
   95SAPE  H19S 9456   6.209   1.658   4.627 -0.9921  1.0211  2.0999
   95SAPE  C220 9457   6.324   1.485   4.719 -0.4606  0.5836 -0.4265
   95SAPE  H20R 9458   6.366   1.445   4.625  0.4297 -0.9617  0.5833
   95SAPE  H20S 9459   6.306   1.402   4.791  2.5483  1.8973  2.0915
   95SAPE  H20T 9460   6.394   1.560   4.763  1.1352 -1.0026 -0.1528
   95SAPE   C33 9461   5.146   1.144   6.073  0.0165 -0.0966  0.9205
   95SAPE   H3X 9462   5.092   1.237   6.105 -2.4792 -0.7961 -0.9367
   95SAPE   H3Y 9463   5.103   1.058   6.128  3.1152 -2.9869 -0.8353
   95SAPE   C34 9464   5.124   1.126   5.916 -0.8584 -0.5309 -0.1788
   95SAPE   H4X 9465   5.153   1.022   5.889  0.2201  0.3675 -2.8549
   95SAPE   H4Y 9466   5.191   1.195   5.859 -0.7893 -0.2893  0.1884
   95SAPE   C35 9467   4.986   1.153   5.873 -0.3687  0.7148 -0.5789
   95SAPE   H5X 9468   4.933   1.240   5.918  0.6213  0.0921  1.9618
   95SAPE   H5Y 9469   4.926   1.066   5.909  0.3185 -0.5134 -2.2900
   95SAPE   C36 9470   4.974   1.161   5.711  0.6923  0.7904  0.2738
   95SAPE   H6X 9471   4.992   1.055   5.684 -1.9103  0.1475  0.7426
   95SAPE   H6Y 9472   5.057   1.228   5.681  1.5409  0.3537  1.5749
   95SAPE   C37 9473   4.836   1.195   5.658  0.2840 -0.3924  0.0920
   95SAPE   H7X 9474   4.797   1.294   5.689 -1.8873  0.0029 -3.3695
   95SAPE   H7Y 9475   4.771   1.120   5.707  1.2486 -0.7998  0.7763
   95SAPE   C38 9476   4.809   1.165   5.514 -0.0890  0.7337 -0.6843
   95SAPE   H8X 9477   4.705   1.202   5.502 -0.2797  0.9324  1.2820
   95SAPE   H8Y 9478   4.824   1.058   5.491 -0.4443  0.1477  1.5824
   95SAPE   C39 9479   4.912   1.243   5.424 -0.4146  0.1407  0.4616
   95SAPE   H9X 9480   5.016   1.211   5.445 -1.2252 -1.3864  2.5241
   95SAPE   H9Y 9481   4.897   1.350   5.452  0.5029 -0.1156  2.0842
   95SAPE  C310 9482   4.883   1.232   5.272 -0.1780 -0.2203  0.0301
   95SAPE  H10X 9483   4.775   1.249   5.249 -0.3013 -2.3953 -1.2131
   95SAPE  H10Y 9484   4.907   1.126   5.249  2.7186  0.6090 -1.2571
   95SAPE  C311 9485   4.966   1.336   5.193  0.3641  0.2612 -0.9500
   95SAPE  H11X 9486   5.073   1.311   5.213  0.0848  0.2601  0.6232
   95SAPE  H11Y 9487   4.951   1.436   5.239  1.9555  0.8461 -1.6235
   95SAPE  C312 9488   4.927   1.344   5.045 -0.1458  0.0884 -0.3617
   95SAPE  H12X 9489   4.992   1.417   4.992  0.0126 -1.0967 -1.8715
   95SAPE  H12Y 9490   4.821   1.377   5.048  0.1007  0.7939  1.1241
   95SAPE  C313 9491   4.947   1.204   4.978 -0.3938  0.4259  0.8057
   95SAPE  H13X 9492   4.899   1.123   5.037  0.3465 -0.2357  0.5148
   95SAPE  H13Y 9493   5.057   1.184   4.981  0.0496  2.1986 -1.0836
   95SAPE  C314 9494   4.890   1.169   4.841 -0.0684  0.5355  0.0093
   95SAPE  H14X 9495   4.949   1.229   4.768  0.8041  0.7856  0.9124
   95SAPE  H14Y 9496   4.782   1.193   4.831 -0.5542 -0.7853  1.6544
   95SAPE  C315 9497   4.884   1.017   4.820 -0.7805  0.3497  0.1654
   95SAPE  H15X 9498   4.798   0.975   4.877 -3.0268  1.2730 -2.3515
   95SAPE  H15Y 9499   4.981   0.979   4.859  0.2390  2.7031  0.0783
   95SAPE  C316 9500   4.874   0.980   4.672  0.3460 -0.7613 -0.5391
   95SAPE  H16X 9501   4.973   1.003   4.627  0.6716  1.7359  1.2489
   95SAPE  H16Y 9502   4.805   1.042   4.610  0.6842  0.8785  0.6541
   95SAPE  C317 9503   4.855   0.837   4.633 -0.7644  0.3007 -0.0463
   95SAPE  H17X 9504   4.925   0.768   4.684  0.8538  1.3676 -0.7488
   95SAPE  H17Y 9505   4.884   0.812   4.528  1.3610  0.3075  0.4915
   95SAPE  C318 9506   4.711   0.792   4.657 -0.7707 -0.3856 -0.4572
   95SAPE  H18X 9507   4.698   0.686   4.625  1.4445 -1.4418  1.8118
   95SAPE  H18Y 9508   4.647   0.849   4.587  0.9886 -0.0305 -1.8341
   95SAPE  H18Z 9509   4.681   0.802   4.764  0.0593  0.3876 -0.2911
   96SAPE     N 9510   1.121   3.388   6.976 -0.6385  0.4429 -0.4846
   96SAPE   HN1 9511   1.161   3.333   6.897 -0.1132 -0.1319  0.1691
   96SAPE   HN2 9512   1.040   3.328   7.003 -0.1869  0.1491  0.2497
   96SAPE   HN3 9513   1.084   3.483   6.954  1.4272  2.0433  2.3402
   96SAPE   C12 9514   1.221   3.396   7.086  0.3534  0.0189 -0.8102
   96SAPE  H12A 9515   1.162   3.377   7.177 -0.0351 -0.7760 -1.2179
   96SAPE  H12B 9516   1.275   3.493   7.091  0.0480  0.1931 -0.8885
   96SAPE   C11 9517   1.316   3.274   7.074 -0.3932 -0.5444 -0.0423
   96SAPE  H11A 9518   1.262   3.177   7.072  1.7982 -1.8378  0.4228
   96SAPE  H11B 9519   1.396   3.278   7.151  0.3982  0.1189 -0.8718
   96SAPE     P 9520   1.491   3.371   6.887  0.0218 -0.3450  0.0684
   96SAPE   O13 9521   1.492   3.503   6.950 -1.0276  0.0483 -0.7744
   96SAPE   O14 9522   1.622   3.310   6.866 -0.0668  0.0487 -0.1740
   96SAPE   O12 9523   1.377   3.280   6.942  0.0994 -0.8907 -0.7622
   96SAPE   O11 9524   1.438   3.398   6.743 -0.0651 -0.1880  0.2734
   96SAPE    C1 9525   1.435   3.299   6.648  0.6818  0.2383  0.4382
   96SAPE    HA 9526   1.440   3.197   6.692 -1.5029 -0.6137 -1.0934
   96SAPE    HB 9527   1.332   3.289   6.607  0.0492 -0.5793  2.1470
   96SAPE    C2 9528   1.539   3.300   6.547 -0.2816 -0.8630  0.1926
   96SAPE    HS 9529   1.641   3.308   6.590 -0.6715  1.2236  0.8329
   96SAPE   O21 9530   1.517   3.407   6.452 -0.6336 -0.2006  0.6810
   96SAPE   C21 9531   1.610   3.501   6.454 -0.2427  0.3117  0.0749
   96SAPE   O22 9532   1.721   3.491   6.509  0.2464 -0.9380 -0.4059
   96SAPE   C22 9533   1.557   3.625   6.384 -0.0909  0.3987 -0.3491
   96SAPE   H2R 9534   1.452   3.597   6.361 -0.5705  3.0844 -1.7671
   96SAPE   H2S 9535   1.561   3.710   6.455  1.2002  0.3798 -0.3621
   96SAPE    C3 9536   1.540   3.162   6.472  0.1056 -0.2463  0.4519
   96SAPE    HX 9537   1.433   3.144   6.450  0.1686  0.8252 -0.8899
   96SAPE    HY 9538   1.590   3.098   6.547  0.4737  2.0708  2.3081
   96SAPE   O31 9539   1.606   3.168   6.348 -0.0279 -0.6157 -0.7246
   96SAPE   C31 9540   1.602   3.055   6.274  0.8605 -0.8710 -0.0546
   96SAPE   O32 9541   1.554   2.953   6.317  0.1787 -0.2809  0.3667
   96SAPE   C32 9542   1.659   3.080   6.126 -0.2165  0.7496 -0.6486
   96SAPE   H2X 9543   1.753   3.021   6.114  0.0693  1.4005 -1.8350
   96SAPE   H2Y 9544   1.678   3.189   6.109 -0.5512  0.6210 -1.9718
   96SAPE   C23 9545   1.630   3.646   6.244  0.3418  0.0700 -0.5104
   96SAPE   H3R 9546   1.736   3.678   6.250  0.9188 -2.0168  2.7842
   96SAPE   H3S 9547   1.580   3.729   6.190  1.7626 -0.0980 -2.1576
   96SAPE   C24 9548   1.632   3.523   6.151  0.3254 -0.5420  0.5946
   96SAPE   H4R 9549   1.664   3.429   6.200  3.7685  0.7382  1.1477
   96SAPE   H4S 9550   1.696   3.539   6.062 -2.1929  1.8903 -0.9488
   96SAPE   C25 9551   1.494   3.507   6.095  0.0753 -0.2384  1.9902
   96SAPE   H5R 9552   1.419   3.484   6.172  0.7499  0.4071  2.8453
   96SAPE   C26 9553   1.461   3.532   5.961 -0.6738  0.1044  0.4891
   96SAPE   H6R 9554   1.358   3.521   5.924  0.0412 -1.7821 -1.1335
   96SAPE   C27 9555   1.558   3.548   5.845  0.3518  0.2191  0.0381
   96SAPE   H7R 9556   1.551   3.456   5.784 -0.4280  1.1219 -1.2943
   96SAPE   H7S 9557   1.662   3.567   5.879 -0.3454  2.9064  0.8813
   96SAPE   C28 9558   1.521   3.661   5.755 -0.4707 -0.0652  0.6364
   96SAPE   H8R 9559   1.438   3.726   5.788 -1.3057 -0.6146 -0.3491
   96SAPE   C29 9560   1.568   3.680   5.628  0.3450  0.3854  0.7329
   96SAPE   H9R 9561   1.549   3.767   5.564  0.6713 -0.7144 -0.9330
   96SAPE  C210 9562   1.677   3.599   5.563 -0.3722  0.8843  0.9629
   96SAPE  H10R 9563   1.640   3.497   5.541  1.4197  0.1164  1.3336
   96SAPE  H10S 9564   1.764   3.594   5.632  0.1492 -1.0869  0.2280
   96SAPE  C211 9565   1.747   3.647   5.436  0.8604  0.3751 -0.1937
   96SAPE  H11R 9566   1.855   3.668   5.450  1.0546 -0.6948 -0.0266
   96SAPE  C212 9567   1.678   3.663   5.321 -0.5581  0.1478  0.2060
   96SAPE  H12R 9568   1.739   3.699   5.237 -0.0939 -2.9299 -0.9245
   96SAPE  C213 9569   1.535   3.630   5.298 -0.4239  0.1787 -0.2930
   96SAPE  H13R 9570   1.486   3.726   5.269  0.6438  0.9702  0.3984
   96SAPE  H13S 9571   1.487   3.601   5.394 -0.0213  0.4109 -0.0180
   96SAPE  C214 9572   1.519   3.508   5.213  0.1365  0.0546  0.3547
   96SAPE  H14R 9573   1.547   3.412   5.260  0.4058 -0.3113 -0.5122
   96SAPE  C215 9574   1.499   3.502   5.079  0.0800 -0.2615  0.0549
   96SAPE  H15R 9575   1.483   3.402   5.034 -0.7465 -0.0444 -0.1568
   96SAPE  C216 9576   1.469   3.619   4.987 -0.3201 -0.4715  0.8155
   96SAPE  H16R 9577   1.553   3.615   4.914 -0.1083  0.3313  1.0076
   96SAPE  H16S 9578   1.462   3.721   5.029 -0.9407  0.2341 -0.9470
   96SAPE  C217 9579   1.331   3.600   4.909 -0.2530 -0.4996 -1.5310
   96SAPE  H17R 9580   1.297   3.699   4.873  1.5469  1.1385  0.9250
   96SAPE  H17S 9581   1.265   3.578   4.996  0.1115  1.7291 -0.6434
   96SAPE  C218 9582   1.344   3.507   4.790 -0.2275  0.5194  0.0903
   96SAPE  H18R 9583   1.378   3.404   4.815 -0.7802  0.2483 -0.2604
   96SAPE  H18S 9584   1.428   3.549   4.731  0.4415  3.4558  2.8539
   96SAPE  C219 9585   1.228   3.500   4.688 -0.5873  0.2486 -0.3774
   96SAPE  H19R 9586   1.138   3.452   4.733  0.7456 -0.1637  2.0115
   96SAPE  H19S 9587   1.256   3.427   4.610 -2.7766 -1.9842  0.7724
   96SAPE  C220 9588   1.191   3.635   4.632  0.4571 -0.0103  0.2822
   96SAPE  H20R 9589   1.148   3.627   4.530  0.6952 -0.8599  0.2405
   96SAPE  H20S 9590   1.275   3.707   4.624 -0.1614  0.8746  1.3368
   96SAPE  H20T 9591   1.109   3.681   4.692 -0.1222 -1.6641  0.8159
   96SAPE   C33 9592   1.555   3.032   6.017 -0.2258 -0.7712 -0.0681
   96SAPE   H3X 9593   1.466   3.098   6.025  1.9318  2.4532 -0.7021
   96SAPE   H3Y 9594   1.522   2.927   6.034 -1.8065 -0.2356  0.2733
   96SAPE   C34 9595   1.615   3.047   5.877  0.5137  0.1495  0.6695
   96SAPE   H4X 9596   1.719   3.010   5.870  0.7244  0.6314  1.1906
   96SAPE   H4Y 9597   1.628   3.152   5.844 -0.6729  0.1570  0.1741
   96SAPE   C35 9598   1.540   2.954   5.780 -0.1403 -0.4336  0.1233
   96SAPE   H5X 9599   1.433   2.977   5.799  0.1722  0.8268  0.4272
   96SAPE   H5Y 9600   1.559   2.849   5.813 -1.8398 -0.4246  1.2791
   96SAPE   C36 9601   1.577   2.969   5.628  0.3818 -0.1108  0.3570
   96SAPE   H6X 9602   1.686   2.946   5.625  0.6354  1.0590 -1.8161
   96SAPE   H6Y 9603   1.561   3.071   5.585 -1.6826 -0.3744  0.4019
   96SAPE   C37 9604   1.497   2.875   5.534  0.1307  0.5870  0.2238
   96SAPE   H7X 9605   1.392   2.857   5.564  0.6897 -2.5480  0.5971
   96SAPE   H7Y 9606   1.549   2.778   5.548  0.9486  1.2167  1.8574
   96SAPE   C38 9607   1.493   2.928   5.393 -0.7111  0.1392 -1.0126
   96SAPE   H8X 9608   1.596   2.944   5.355  0.0370  2.1170  1.5833
   96SAPE   H8Y 9609   1.445   3.027   5.409  0.3795  0.6796 -0.9863
   96SAPE   C39 9610   1.407   2.844   5.294 -0.6284  0.0510 -0.2719
   96SAPE   H9X 9611   1.387   2.903   5.202 -2.9309 -0.6311 -0.2720
   96SAPE   H9Y 9612   1.309   2.828   5.345  0.2671  0.1681  1.5487
   96SAPE  C310 9613   1.471   2.705   5.258 -0.0110  0.1182  0.3870
   96SAPE  H10X 9614   1.412   2.658   5.177  0.5790 -0.3224  0.2048
   96SAPE  H10Y 9615   1.463   2.642   5.350  1.8854 -0.1565  0.4130
   96SAPE  C311 9616   1.614   2.709   5.202  0.2373 -0.0144  0.0711
   96SAPE  H11X 9617   1.680   2.756   5.278 -0.1971 -0.5839  0.8114
   96SAPE  H11Y 9618   1.611   2.778   5.115  2.1479  2.0668  1.5539
   96SAPE  C312 9619   1.670   2.580   5.140  0.5541  0.6035  0.4938
   96SAPE  H12X 9620   1.596   2.546   5.064 -1.0313 -0.3052  2.3504
   96SAPE  H12Y 9621   1.678   2.514   5.229 -0.3196 -2.1697 -1.3455
   96SAPE  C313 9622   1.806   2.619   5.077  0.2721  0.1044 -0.4782
   96SAPE  H13X 9623   1.864   2.525   5.069 -2.2446 -1.8363  1.8488
   96SAPE  H13Y 9624   1.869   2.685   5.140 -0.0933 -0.5135  0.5558
   96SAPE  C314 9625   1.786   2.678   4.943  0.0730  0.4857 -0.8966
   96SAPE  H14X 9626   1.693   2.738   4.933 -0.1992 -0.1880 -2.8750
   96SAPE  H14Y 9627   1.770   2.602   4.863 -0.2461 -1.6893  1.1117
   96SAPE  C315 9628   1.911   2.756   4.901  0.2399 -0.0915  0.0106
   96SAPE  H15X 9629   2.003   2.695   4.884  1.6153  2.1227 -0.8456
   96SAPE  H15Y 9630   1.943   2.821   4.985 -0.7857 -2.3922  2.3317
   96SAPE  C316 9631   1.888   2.825   4.762  0.0041 -0.6246  0.2958
   96SAPE  H16X 9632   1.802   2.892   4.746  0.8500  0.9810  2.1052
   96SAPE  H16Y 9633   1.882   2.741   4.689  1.3475 -0.4451 -0.0562
   96SAPE  C317 9634   2.014   2.914   4.728  0.1460  0.2275 -0.7231
   96SAPE  H17X 9635   2.101   2.846   4.726  2.2695  2.8052 -2.9929
   96SAPE  H17Y 9636   2.025   2.985   4.813 -2.4915 -0.8406  0.6499
   96SAPE  C318 9637   2.009   2.980   4.592 -0.1415 -0.5368  0.6456
   96SAPE  H18X 9638   1.966   3.083   4.597 -0.2861 -0.6475  2.9188
   96SAPE  H18Y 9639   1.948   2.923   4.519 -2.8879  0.4243  2.0418
   96SAPE  H18Z 9640   2.108   2.991   4.543 -1.3540  0.8863 -1.6931
   97SAPE     N 9641   2.681   5.462   6.476  0.2716 -0.0071 -0.5497
   97SAPE   HN1 9642   2.741   5.518   6.412  2.6879 -1.0873  0.6334
   97SAPE   HN2 9643   2.736   5.380   6.507  0.0136  0.3798  1.0497
   97SAPE   HN3 9644   2.593   5.432   6.430  0.1213 -1.9234  0.8842
   97SAPE   C12 9645   2.653   5.552   6.590 -0.5622 -0.0613 -0.2016
   97SAPE  H12A 9646   2.612   5.486   6.669  0.6780 -0.1473  0.4041
   97SAPE  H12B 9647   2.577   5.619   6.546  0.0490 -0.5896 -2.1614
   97SAPE   C11 9648   2.780   5.626   6.646  0.5207  0.2209 -0.4406
   97SAPE  H11A 9649   2.842   5.667   6.564  1.3835 -0.4583 -0.1529
   97SAPE  H11B 9650   2.842   5.542   6.685  1.9104  1.2214 -0.4238
   97SAPE     P 9651   2.642   5.827   6.752 -0.0834  0.5660  0.1073
   97SAPE   O13 9652   2.529   5.765   6.829 -0.1599 -0.0988 -0.0550
   97SAPE   O14 9653   2.701   5.954   6.803  0.0271  0.1565  0.0519
   97SAPE   O12 9654   2.759   5.719   6.751  0.1086  0.8951  0.3534
   97SAPE   O11 9655   2.597   5.845   6.598 -0.3457  0.3625 -1.4022
   97SAPE    C1 9656   2.683   5.913   6.510  0.1725 -0.1250  0.2425
   97SAPE    HA 9657   2.781   5.939   6.556  1.2962  0.0924 -2.1361
   97SAPE    HB 9658   2.714   5.845   6.428  0.7956  1.2351 -0.6927
   97SAPE    C2 9659   2.623   6.047   6.450  0.3234  0.0299  0.7333
   97SAPE    HS 9660   2.582   6.104   6.537 -0.5463  0.6099 -0.0351
   97SAPE   O21 9661   2.505   6.011   6.373  0.0403 -0.0302  0.0341
   97SAPE   C21 9662   2.430   6.112   6.329 -0.8950 -0.2840 -0.0914
   97SAPE   O22 9663   2.437   6.225   6.376 -0.1730 -0.6143  1.0341
   97SAPE   C22 9664   2.350   6.056   6.207  0.2955  0.6348  0.9019
   97SAPE   H2R 9665   2.413   5.993   6.140 -1.4816  0.8305 -1.0494
   97SAPE   H2S 9666   2.275   5.996   6.262  1.6667 -1.5318  0.5307
   97SAPE    C3 9667   2.727   6.134   6.370  0.2153  0.4048 -0.0325
   97SAPE    HX 9668   2.806   6.183   6.432 -0.5154  1.6208 -0.0316
   97SAPE    HY 9669   2.679   6.215   6.311  2.0890  0.5075 -1.5172
   97SAPE   O31 9670   2.804   6.052   6.275  0.5671  0.1602 -0.8482
   97SAPE   C31 9671   2.740   6.020   6.163 -0.1931  0.2160  0.1666
   97SAPE   O32 9672   2.649   6.079   6.118 -0.7940  0.2948  0.2111
   97SAPE   C32 9673   2.788   5.892   6.102 -0.9064 -0.0691  0.5811
   97SAPE   H2X 9674   2.721   5.862   6.019  1.6681 -1.2439 -1.2004
   97SAPE   H2Y 9675   2.768   5.807   6.171  0.5466 -0.7421  0.2095
   97SAPE   C23 9676   2.291   6.160   6.114  0.3547  0.3688 -0.1286
   97SAPE   H3R 9677   2.373   6.204   6.053  0.2373  0.2193 -0.3957
   97SAPE   H3S 9678   2.247   6.239   6.178 -3.0326 -0.1077 -1.6359
   97SAPE   C24 9679   2.174   6.117   6.018 -0.0314 -0.3937 -0.1252
   97SAPE   H4R 9680   2.140   6.210   5.968 -1.1552 -1.3528 -1.2212
   97SAPE   H4S 9681   2.097   6.073   6.084 -0.1986  0.5741  0.3340
   97SAPE   C25 9682   2.221   6.018   5.912  0.4123 -0.6959  0.1997
   97SAPE   H5R 9683   2.244   5.917   5.950  0.4063 -0.6814  0.2417
   97SAPE   C26 9684   2.224   6.035   5.779 -0.6908 -0.2681  0.2417
   97SAPE   H6R 9685   2.268   5.956   5.716 -1.2085 -0.6922  0.4104
   97SAPE   C27 9686   2.176   6.150   5.693  0.3219 -0.5290  0.1697
   97SAPE   H7R 9687   2.142   6.235   5.756 -0.6251 -0.1125 -0.8615
   97SAPE   H7S 9688   2.085   6.108   5.645 -1.1481 -0.6269  2.8081
   97SAPE   C28 9689   2.267   6.194   5.582  0.4907  0.3736  0.0772
   97SAPE   H8R 9690   2.323   6.282   5.617 -0.2177  1.1215 -0.6337
   97SAPE   C29 9691   2.272   6.152   5.457  0.6794  0.7170  0.8189
   97SAPE   H9R 9692   2.330   6.215   5.387 -0.3646  1.1596  0.3382
   97SAPE  C210 9693   2.192   6.042   5.386 -0.2734 -0.0088 -0.4808
   97SAPE  H10R 9694   2.116   6.092   5.322  0.7330  0.6697 -1.1707
   97SAPE  H10S 9695   2.139   5.980   5.462 -1.5999 -0.2549 -1.5661
   97SAPE  C211 9696   2.273   5.943   5.303 -0.2312  0.1705  0.3760
   97SAPE  H11R 9697   2.354   5.902   5.366  1.0113  1.6066 -0.2228
   97SAPE  C212 9698   2.256   5.915   5.176  0.7474 -0.0384  0.0295
   97SAPE  H12R 9699   2.330   5.844   5.135  0.6039 -0.5421  0.6172
   97SAPE  C213 9700   2.148   5.956   5.078 -0.1957  0.2630  0.1680
   97SAPE  H13R 9701   2.132   6.064   5.100  2.2707  0.7712 -0.2766
   97SAPE  H13S 9702   2.048   5.914   5.103 -0.1416  0.2627  0.3903
   97SAPE  C214 9703   2.190   5.946   4.934 -0.5909 -0.3165  0.2025
   97SAPE  H14R 9704   2.179   5.844   4.894 -0.2881 -0.5993  0.8272
   97SAPE  C215 9705   2.254   6.035   4.856  0.4149  0.6968  0.1440
   97SAPE  H15R 9706   2.284   6.005   4.754  2.4424 -1.9351  1.3773
   97SAPE  C216 9707   2.291   6.169   4.906  0.1870 -0.1381 -0.1116
   97SAPE  H16R 9708   2.219   6.212   4.978 -1.5195  0.1323 -1.8948
   97SAPE  H16S 9709   2.290   6.246   4.825  2.0000 -0.2054 -0.2410
   97SAPE  C217 9710   2.426   6.160   4.980 -0.5724  0.5068 -0.4609
   97SAPE  H17R 9711   2.487   6.107   4.903 -0.7520 -0.7198  0.2300
   97SAPE  H17S 9712   2.412   6.094   5.068  1.6233 -0.3523 -0.6947
   97SAPE  C218 9713   2.496   6.287   5.024  0.7274  0.1459 -0.4976
   97SAPE  H18R 9714   2.426   6.343   5.088  0.6462 -0.2185 -0.2634
   97SAPE  H18S 9715   2.523   6.347   4.935  0.2747 -1.9390 -2.1278
   97SAPE  C219 9716   2.613   6.257   5.116 -0.3701 -0.2478 -0.3072
   97SAPE  H19R 9717   2.581   6.196   5.203  1.6514 -2.0376 -0.7171
   97SAPE  H19S 9718   2.660   6.348   5.159  0.4984 -0.4802 -0.7370
   97SAPE  C220 9719   2.727   6.191   5.045  0.8473  0.3047 -0.1602
   97SAPE  H20R 9720   2.745   6.244   4.949  2.8135  1.2841  0.6890
   97SAPE  H20S 9721   2.702   6.084   5.031 -1.4808  0.9005 -0.9842
   97SAPE  H20T 9722   2.821   6.205   5.102  0.1750 -0.5374  1.1822
   97SAPE   C33 9723   2.937   5.876   6.068  0.1270 -1.1697 -0.6087
   97SAPE   H3X 9724   2.964   5.768   6.063  0.3203 -1.3230  2.0586
   97SAPE   H3Y 9725   3.001   5.932   6.140 -1.6147 -0.2051  0.2565
   97SAPE   C34 9726   2.972   5.932   5.926  0.6640  0.3892  0.2049
   97SAPE   H4X 9727   2.926   6.034   5.926  0.5811  0.4287 -2.7891
   97SAPE   H4Y 9728   2.921   5.866   5.853  0.0142 -1.0046  1.8496
   97SAPE   C35 9729   3.114   5.958   5.893 -0.2606 -0.0338 -0.3215
   97SAPE   H5X 9730   3.166   5.860   5.898  1.1255  0.7049  0.0432
   97SAPE   H5Y 9731   3.158   6.029   5.967  2.5237 -1.9081 -0.0428
   97SAPE   C36 9732   3.139   6.020   5.751  0.5495  0.3501 -0.0456
   97SAPE   H6X 9733   3.248   6.040   5.749  0.9980 -1.5856  1.7516
   97SAPE   H6Y 9734   3.085   6.118   5.747 -1.2154 -0.5181  1.2671
   97SAPE   C37 9735   3.118   5.928   5.641 -0.3355 -0.2449  0.3127
   97SAPE   H7X 9736   3.021   5.877   5.658 -0.4554 -0.3329 -0.6002
   97SAPE   H7Y 9737   3.188   5.843   5.652  0.3676  0.5501  2.3984
   97SAPE   C38 9738   3.124   5.996   5.498 -0.0789 -0.1157  0.3811
   97SAPE   H8X 9739   3.224   6.040   5.482 -0.1020  0.1458  0.9265
   97SAPE   H8Y 9740   3.053   6.081   5.487 -0.8904 -0.7230  0.8058
   97SAPE   C39 9741   3.083   5.895   5.382  0.4196 -0.2999 -0.3931
   97SAPE   H9X 9742   2.986   5.850   5.413  0.0460  0.7684  0.0428
   97SAPE   H9Y 9743   3.156   5.813   5.366  1.0246  0.3371 -0.9559
   97SAPE  C310 9744   3.071   5.956   5.244  0.0108 -0.4955 -0.7430
   97SAPE  H10X 9745   3.162   6.017   5.222 -1.2331  0.9565 -2.1328
   97SAPE  H10Y 9746   2.985   6.026   5.243  1.9696  2.0965 -0.8385
   97SAPE  C311 9747   3.062   5.851   5.136  0.0572 -0.3126 -0.0414
   97SAPE  H11X 9748   2.956   5.820   5.124  0.0932  0.2781 -2.3233
   97SAPE  H11Y 9749   3.128   5.763   5.148  0.5199  0.2351  1.7801
   97SAPE  C312 9750   3.079   5.917   5.004 -0.3171 -0.1676 -0.2200
   97SAPE  H12X 9751   3.182   5.903   4.966  1.4033  1.6886  3.2877
   97SAPE  H12Y 9752   3.071   6.028   5.005 -1.1447 -0.2141 -0.3696
   97SAPE  C313 9753   2.987   5.861   4.894  0.5779 -0.0596 -0.1428
   97SAPE  H13X 9754   2.879   5.848   4.917  0.3192  0.0870 -1.2093
   97SAPE  H13Y 9755   3.030   5.760   4.881  1.5670  0.0584  1.8818
   97SAPE  C314 9756   2.992   5.940   4.768  0.2951  0.2613  0.1784
   97SAPE  H14X 9757   2.977   5.872   4.681  2.0033  0.8155 -0.5943
   97SAPE  H14Y 9758   3.094   5.984   4.766  0.9976 -1.3088 -1.1501
   97SAPE  C315 9759   2.888   6.055   4.764  0.4763 -0.0202  0.3193
   97SAPE  H15X 9760   2.906   6.126   4.848 -0.8629 -0.9097  1.4052
   97SAPE  H15Y 9761   2.788   6.008   4.777 -0.2362  1.8951  2.4645
   97SAPE  C316 9762   2.901   6.131   4.631 -0.2318 -0.6877 -0.0382
   97SAPE  H16X 9763   2.835   6.082   4.557  0.8450 -1.9067 -0.2420
   97SAPE  H16Y 9764   3.008   6.117   4.604 -0.4989  0.5452 -1.8607
   97SAPE  C317 9765   2.876   6.276   4.640 -0.7170  0.1620 -0.4130
   97SAPE  H17X 9766   2.960   6.324   4.696 -1.0068  0.3571 -0.1415
   97SAPE  H17Y 9767   2.784   6.298   4.698 -0.7769 -2.4449  0.6144
   97SAPE  C318 9768   2.869   6.335   4.502  0.4981 -0.3616  0.6796
   97SAPE  H18X 9769   2.843   6.443   4.505  0.5480 -0.3707  1.6768
   97SAPE  H18Y 9770   2.783   6.294   4.443  0.0437  1.5324 -0.0510
   97SAPE  H18Z 9771   2.969   6.323   4.457  0.6334 -0.2977  0.9623
   98SAPE     N 9772   1.389   4.642   6.884  0.2561  0.1622  0.0164
   98SAPE   HN1 9773   1.372   4.560   6.823  0.1986 -0.0385  0.2997
   98SAPE   HN2 9774   1.304   4.658   6.942  0.3709  1.1584 -0.0758
   98SAPE   HN3 9775   1.392   4.736   6.840 -0.3096  0.9122  1.5161
   98SAPE   C12 9776   1.503   4.619   6.975 -0.1418  0.2616  0.6098
   98SAPE  H12A 9777   1.500   4.514   7.011  0.8471 -0.7083 -1.8402
   98SAPE  H12B 9778   1.484   4.679   7.066  1.9594  1.8986  0.0610
   98SAPE   C11 9779   1.640   4.660   6.923  0.3427  0.4715 -0.2736
   98SAPE  H11A 9780   1.670   4.593   6.840  3.6866 -1.5740  2.3459
   98SAPE  H11B 9781   1.716   4.655   7.004 -0.2094  0.3386  0.2404
   98SAPE     P 9782   1.662   4.850   6.742 -0.2631  0.4151 -0.2199
   98SAPE   O13 9783   1.541   4.907   6.680  0.5485 -0.0158 -0.4828
   98SAPE   O14 9784   1.781   4.937   6.751 -0.4223  0.2714 -0.2637
   98SAPE   O12 9785   1.623   4.794   6.883  0.0190 -0.0221 -0.0281
   98SAPE   O11 9786   1.714   4.730   6.651  0.3754  0.5331 -0.2102
   98SAPE    C1 9787   1.618   4.675   6.560 -0.0210  0.5345 -0.0657
   98SAPE    HA 9788   1.525   4.645   6.612  1.0993  2.5931  3.4638
   98SAPE    HB 9789   1.605   4.748   6.477 -1.1365 -0.6090 -0.9275
   98SAPE    C2 9790   1.680   4.549   6.491  0.8312  0.1646  0.3609
   98SAPE    HS 9791   1.730   4.483   6.566 -0.7281 -1.0811  0.3559
   98SAPE   O21 9792   1.781   4.594   6.399  0.4678 -0.4381  0.6573
   98SAPE   C21 9793   1.889   4.524   6.370  0.4165 -0.7326  0.0936
   98SAPE   O22 9794   1.918   4.414   6.422  0.1369  0.0840  0.6291
   98SAPE   C22 9795   1.976   4.611   6.273 -0.4807  0.9993 -0.1579
   98SAPE   H2R 9796   1.913   4.653   6.191  3.5589  2.1861 -2.9632
   98SAPE   H2S 9797   2.027   4.691   6.332 -1.4581  0.8117  0.9724
   98SAPE    C3 9798   1.576   4.466   6.429  0.7202  0.5362  0.0517
   98SAPE    HX 9799   1.494   4.462   6.504 -0.3953  2.7496 -0.9720
   98SAPE    HY 9800   1.605   4.365   6.394 -1.9145 -0.4042  0.3146
   98SAPE   O31 9801   1.522   4.546   6.320  0.0187 -0.0813  0.1976
   98SAPE   C31 9802   1.563   4.530   6.197  0.8208  0.5258 -0.7429
   98SAPE   O32 9803   1.631   4.433   6.159 -0.3842  0.4202  0.8011
   98SAPE   C32 9804   1.498   4.633   6.106 -0.8859  0.6277 -0.3847
   98SAPE   H2X 9805   1.472   4.723   6.166 -0.9705  0.2684  0.1196
   98SAPE   H2Y 9806   1.410   4.587   6.056  1.3754 -2.4736 -1.7920
   98SAPE   C23 9807   2.094   4.526   6.206  0.0497  0.5338  0.7539
   98SAPE   H3R 9808   2.146   4.474   6.289 -2.1518  0.9470  2.4929
   98SAPE   H3S 9809   2.167   4.588   6.151  0.9601  0.3961  1.7713
   98SAPE   C24 9810   2.036   4.416   6.112 -0.4792 -0.0132  0.8494
   98SAPE   H4R 9811   1.973   4.347   6.171 -0.8142  0.2114  0.7559
   98SAPE   H4S 9812   2.128   4.363   6.080  0.4049  1.6687  0.4999
   98SAPE   C25 9813   1.957   4.458   5.993  0.1242 -0.7161  0.2060
   98SAPE   H5R 9814   1.855   4.496   6.010  0.7672  0.7792  0.9504
   98SAPE   C26 9815   1.999   4.453   5.864 -0.2828  0.7290 -0.4137
   98SAPE   H6R 9816   1.932   4.475   5.780 -0.5953  1.9870  0.1515
   98SAPE   C27 9817   2.132   4.399   5.822 -0.2468  0.3899  0.4964
   98SAPE   H7R 9818   2.121   4.344   5.726  2.9414  1.4659 -0.6287
   98SAPE   H7S 9819   2.154   4.311   5.886 -2.6148 -0.6258 -0.0142
   98SAPE   C28 9820   2.243   4.495   5.807 -0.2673 -0.0944  1.0399
   98SAPE   H8R 9821   2.286   4.526   5.903  0.4430 -1.1597  1.0895
   98SAPE   C29 9822   2.308   4.528   5.692 -0.0162  0.4934  0.0896
   98SAPE   H9R 9823   2.385   4.607   5.700  0.8258 -0.0593 -1.8545
   98SAPE  C210 9824   2.271   4.493   5.547 -0.2818  0.1041  0.3878
   98SAPE  H10R 9825   2.218   4.395   5.543 -0.9764  0.3891  1.8948
   98SAPE  H10S 9826   2.366   4.484   5.490  0.9110  1.0845  2.1313
   98SAPE  C211 9827   2.177   4.596   5.491  0.3657  0.0898 -0.5147
   98SAPE  H11R 9828   2.139   4.668   5.565 -0.3867 -1.9843  1.2301
   98SAPE  C212 9829   2.142   4.602   5.358 -0.1387  0.2035 -0.2317
   98SAPE  H12R 9830   2.063   4.670   5.323  0.4635  1.4125  0.6748
   98SAPE  C213 9831   2.200   4.506   5.251  0.1168  0.6291  0.2055
   98SAPE  H13R 9832   2.140   4.414   5.234  1.2207 -0.1788  0.5552
   98SAPE  H13S 9833   2.299   4.469   5.284 -1.0605 -1.8884  1.1552
   98SAPE  C214 9834   2.184   4.569   5.117  0.2053  0.5354 -0.8272
   98SAPE  H14R 9835   2.259   4.640   5.079  0.5170 -0.7311 -2.7204
   98SAPE  C215 9836   2.085   4.548   5.026  0.0329  0.7431  0.7505
   98SAPE  H15R 9837   2.091   4.601   4.929  1.8617  1.4728  1.2249
   98SAPE  C216 9838   1.961   4.456   5.032 -0.2173  0.3348 -0.1270
   98SAPE  H16R 9839   1.932   4.426   5.135  1.5311  0.1953  0.3481
   98SAPE  H16S 9840   1.980   4.368   4.967  0.9450  0.4446  0.0517
   98SAPE  C217 9841   1.846   4.540   4.970  0.0587 -0.1640 -0.5393
   98SAPE  H17R 9842   1.873   4.591   4.875 -0.6783  1.7695  0.2423
   98SAPE  H17S 9843   1.817   4.622   5.039  2.0323 -1.3498  1.9036
   98SAPE  C218 9844   1.729   4.450   4.939 -0.2579 -0.4538  1.1206
   98SAPE  H18R 9845   1.688   4.390   5.023  0.6679 -2.5875  0.1214
   98SAPE  H18S 9846   1.765   4.370   4.871  1.4017  2.4925 -1.7172
   98SAPE  C219 9847   1.616   4.525   4.866 -0.5902  0.3383  0.6532
   98SAPE  H19R 9848   1.653   4.579   4.776 -3.0119  0.0136 -0.6168
   98SAPE  H19S 9849   1.583   4.608   4.933 -1.2194  0.7835 -0.1891
   98SAPE  C220 9850   1.491   4.440   4.828 -0.4493 -0.5420 -0.2909
   98SAPE  H20R 9851   1.514   4.349   4.768 -2.0280 -0.1531 -1.5972
   98SAPE  H20S 9852   1.408   4.487   4.770 -0.4024 -0.2046 -0.0843
   98SAPE  H20T 9853   1.446   4.412   4.925  1.5933 -1.0871  0.5314
   98SAPE   C33 9854   1.584   4.690   5.986  1.0874  0.1557  0.5094
   98SAPE   H3X 9855   1.691   4.698   6.015  1.0831  3.5856 -0.0259
   98SAPE   H3Y 9856   1.551   4.793   5.962  2.2596  0.2178 -0.9870
   98SAPE   C34 9857   1.579   4.594   5.866 -0.4582  0.5100 -0.3163
   98SAPE   H4X 9858   1.632   4.498   5.887 -0.5791  0.4855 -0.1128
   98SAPE   H4Y 9859   1.643   4.644   5.791 -0.7999  2.1256  0.4195
   98SAPE   C35 9860   1.438   4.572   5.806  1.0422 -0.9561  0.2912
   98SAPE   H5X 9861   1.371   4.503   5.861 -2.0903 -0.7824 -2.8967
   98SAPE   H5Y 9862   1.443   4.523   5.706 -1.5222 -0.4044 -0.1748
   98SAPE   C36 9863   1.369   4.709   5.785  0.2168  0.4613  0.1692
   98SAPE   H6X 9864   1.434   4.792   5.750 -1.7668  1.9926 -0.0365
   98SAPE   H6Y 9865   1.334   4.736   5.887 -2.4204 -2.5262  0.1973
   98SAPE   C37 9866   1.248   4.704   5.708 -0.3026  1.0089 -0.5888
   98SAPE   H7X 9867   1.191   4.797   5.729  0.0204  1.1047 -0.1098
   98SAPE   H7Y 9868   1.186   4.627   5.758  2.3508 -0.8044  0.1457
   98SAPE   C38 9869   1.272   4.695   5.556 -0.7718  0.5268  0.3620
   98SAPE   H8X 9870   1.327   4.606   5.519 -2.8233  0.1631 -2.0822
   98SAPE   H8Y 9871   1.330   4.784   5.522 -0.4910 -0.1812 -1.1235
   98SAPE   C39 9872   1.147   4.697   5.455 -0.7425  0.0623 -0.3139
   98SAPE   H9X 9873   1.107   4.800   5.439  1.0023  0.8372 -0.0173
   98SAPE   H9Y 9874   1.070   4.637   5.508 -0.3709 -0.3955 -0.2915
   98SAPE  C310 9875   1.176   4.625   5.327  0.0344 -0.4854  0.3510
   98SAPE  H10X 9876   1.268   4.662   5.276  0.3464  2.1828  2.5811
   98SAPE  H10Y 9877   1.087   4.643   5.264  1.0228 -1.0107 -1.2377
   98SAPE  C311 9878   1.192   4.472   5.335  0.1885  0.7384  0.0300
   98SAPE  H11X 9879   1.099   4.423   5.371  1.5042 -1.0556  1.1939
   98SAPE  H11Y 9880   1.268   4.444   5.412  0.8694  2.4015  0.0149
   98SAPE  C312 9881   1.227   4.401   5.193 -0.9501 -0.2437  0.0878
   98SAPE  H12X 9882   1.248   4.296   5.225  0.8381  0.1722  0.3998
   98SAPE  H12Y 9883   1.313   4.441   5.136 -0.9545  1.2028  1.0520
   98SAPE  C313 9884   1.103   4.392   5.104  0.2873  0.0161 -0.3217
   98SAPE  H13X 9885   1.084   4.496   5.070 -2.0972 -0.0949  0.5373
   98SAPE  H13Y 9886   1.012   4.347   5.148  0.2811 -0.5112 -0.8605
   98SAPE  C314 9887   1.132   4.336   4.966 -0.3564  0.4291 -0.5239
   98SAPE  H14X 9888   1.169   4.232   4.976 -0.6981  0.4383  1.0975
   98SAPE  H14Y 9889   1.213   4.392   4.913  0.5440 -1.4526 -1.2129
   98SAPE  C315 9890   1.009   4.329   4.872 -0.0094 -1.2700 -0.1906
   98SAPE  H15X 9891   0.948   4.247   4.916  0.1058 -2.9366 -2.8865
   98SAPE  H15Y 9892   1.042   4.294   4.772 -2.7052 -1.0478 -1.2437
   98SAPE  C316 9893   0.948   4.467   4.846 -0.2940 -0.2115 -0.5888
   98SAPE  H16X 9894   1.037   4.534   4.836 -0.5996  0.0961 -1.3030
   98SAPE  H16Y 9895   0.885   4.500   4.931 -0.9162 -1.2114 -0.6586
   98SAPE  C317 9896   0.857   4.474   4.726  1.1807  0.1485  0.3860
   98SAPE  H17X 9897   0.781   4.394   4.716  2.0186 -0.7349  0.9780
   98SAPE  H17Y 9898   0.932   4.458   4.645  0.3268 -0.9627 -0.1963
   98SAPE  C318 9899   0.786   4.609   4.701  0.6086  0.1495 -0.6136
   98SAPE  H18X 9900   0.722   4.603   4.610 -1.6759 -0.1277  0.9517
   98SAPE  H18Y 9901   0.869   4.682   4.689  1.5331 -0.7672  0.0733
   98SAPE  H18Z 9902   0.711   4.629   4.781 -1.0368 -2.2483 -1.4460
   99SAPE     N 9903   2.515   2.741   6.890  0.7589  0.0342  0.0199
   99SAPE   HN1 9904   2.591   2.746   6.961  1.3770 -2.0409 -0.4311
   99SAPE   HN2 9905   2.447   2.668   6.922  0.4046  0.4913  0.3307
   99SAPE   HN3 9906   2.569   2.717   6.805  0.7878  3.2389 -0.9842
   99SAPE   C12 9907   2.443   2.875   6.886 -0.6100  0.0277  0.1184
   99SAPE  H12A 9908   2.519   2.955   6.875 -1.4348  0.9031  0.5657
   99SAPE  H12B 9909   2.389   2.880   6.983 -0.4283  0.3214  0.2035
   99SAPE   C11 9910   2.353   2.875   6.762  0.0885  0.3084 -0.0805
   99SAPE  H11A 9911   2.403   2.840   6.669 -1.5581 -0.9914 -0.5445
   99SAPE  H11B 9912   2.338   2.982   6.738  5.0862  1.1149 -0.5431
   99SAPE     P 9913   2.195   2.678   6.702 -0.2068 -0.6247  0.1594
   99SAPE   O13 9914   2.305   2.578   6.695  0.0356  0.5351 -0.2674
   99SAPE   O14 9915   2.058   2.637   6.734  0.1164  0.5591 -0.0886
   99SAPE   O12 9916   2.231   2.801   6.794  0.5962 -0.4166  0.3944
   99SAPE   O11 9917   2.196   2.739   6.554  0.3276 -0.6618  0.0366
   99SAPE    C1 9918   2.097   2.852   6.537  0.0224 -0.0667  0.7119
   99SAPE    HA 9919   2.104   2.926   6.620  0.0541  0.2669  0.4130
   99SAPE    HB 9920   2.123   2.913   6.449 -2.3499  2.0655  1.3586
   99SAPE    C2 9921   1.948   2.805   6.492 -0.3090 -0.3574  0.4859
   99SAPE    HS 9922   1.902   2.746   6.574 -1.3838  2.5514  2.1495
   99SAPE   O21 9923   1.951   2.730   6.372 -0.7064 -1.4762  0.1437
   99SAPE   C21 9924   1.836   2.665   6.335  0.9421  0.0244 -0.6234
   99SAPE   O22 9925   1.735   2.673   6.400  0.7756  0.1257  0.1594
   99SAPE   C22 9926   1.851   2.579   6.210  0.2714  0.4019  0.2262
   99SAPE   H2R 9927   1.960   2.561   6.202  0.1752  0.0160 -0.2537
   99SAPE   H2S 9928   1.801   2.480   6.210 -0.1650  0.6195 -0.1218
   99SAPE    C3 9929   1.857   2.926   6.487  0.5341 -0.0792  0.6725
   99SAPE    HX 9930   1.864   2.979   6.584 -1.7522  2.4802 -0.4463
   99SAPE    HY 9931   1.751   2.892   6.480  0.5802  0.0268 -0.8894
   99SAPE   O31 9932   1.896   3.018   6.386  0.0555  0.1436  0.2563
   99SAPE   C31 9933   1.944   3.137   6.412  0.2918  0.1458 -0.5545
   99SAPE   O32 9934   1.970   3.174   6.527 -0.2038  0.1421  0.3242
   99SAPE   C32 9935   1.947   3.224   6.293  0.0953 -0.1466  0.0241
   99SAPE   H2X 9936   1.860   3.291   6.312 -0.4838 -1.0457  0.5690
   99SAPE   H2Y 9937   1.935   3.170   6.197 -1.6732 -0.0780  0.1705
   99SAPE   C23 9938   1.808   2.656   6.087 -0.0011 -0.0953 -0.2403
   99SAPE   H3R 9939   1.852   2.617   5.993 -0.9665 -2.4418  0.2231
   99SAPE   H3S 9940   1.859   2.755   6.094  0.8520 -0.5278 -0.1792
   99SAPE   C24 9941   1.656   2.674   6.070  0.7536 -0.1875 -0.5212
   99SAPE   H4R 9942   1.637   2.733   5.978  0.2160  1.9063  0.8524
   99SAPE   H4S 9943   1.613   2.742   6.148 -0.3027 -0.3203 -0.9764
   99SAPE   C25 9944   1.587   2.542   6.065 -0.1137 -0.2672 -0.0964
   99SAPE   H5R 9945   1.576   2.482   6.157 -2.0071  2.3988  1.5534
   99SAPE   C26 9946   1.548   2.487   5.954 -0.4681  0.5794  0.3309
   99SAPE   H6R 9947   1.535   2.377   5.955 -1.4237  0.6773 -0.4594
   99SAPE   C27 9948   1.530   2.547   5.818 -0.9079  0.6956  0.2157
   99SAPE   H7R 9949   1.634   2.557   5.781 -0.5912 -1.0190  0.5669
   99SAPE   H7S 9950   1.505   2.656   5.819  0.5899  1.2456 -3.8626
   99SAPE   C28 9951   1.459   2.449   5.727  0.0020 -0.3775 -0.1233
   99SAPE   H8R 9952   1.361   2.417   5.765  0.0752 -0.0186  0.3776
   99SAPE   C29 9953   1.501   2.401   5.610 -0.3259 -0.4227  0.4436
   99SAPE   H9R 9954   1.444   2.328   5.550  0.5268 -2.2280  1.7657
   99SAPE  C210 9955   1.641   2.418   5.544 -0.2471 -0.4991 -0.1965
   99SAPE  H10R 9956   1.683   2.516   5.574 -1.1001 -0.2570  0.2280
   99SAPE  H10S 9957   1.639   2.420   5.433 -1.4237 -2.3537 -0.2487
   99SAPE  C211 9958   1.743   2.317   5.591  0.2165 -0.2600  0.3594
   99SAPE  H11R 9959   1.700   2.241   5.658 -1.1469 -0.4427 -0.6686
   99SAPE  C212 9960   1.866   2.303   5.541 -0.1981  0.1848  0.4007
   99SAPE  H12R 9961   1.940   2.230   5.578 -0.2041  0.4962  1.0422
   99SAPE  C213 9962   1.928   2.383   5.423  0.1075  0.3598  0.0159
   99SAPE  H13R 9963   1.875   2.480   5.410 -1.2148 -0.3033  0.3368
   99SAPE  H13S 9964   1.921   2.319   5.332  1.1110 -3.2406  2.2698
   99SAPE  C214 9965   2.071   2.420   5.458 -0.4785 -0.1318 -0.3045
   99SAPE  H14R 9966   2.098   2.439   5.563 -1.4740 -0.1943 -0.0332
   99SAPE  C215 9967   2.167   2.447   5.366 -0.1793  0.3060  0.1521
   99SAPE  H15R 9968   2.271   2.476   5.386  1.0066 -0.8914 -3.4848
   99SAPE  C216 9969   2.162   2.449   5.213 -0.5562  0.5639 -0.1932
   99SAPE  H16R 9970   2.238   2.518   5.171  1.8177 -1.1827  0.9690
   99SAPE  H16S 9971   2.066   2.487   5.171  0.2892  1.0699 -1.7549
   99SAPE  C217 9972   2.189   2.311   5.138  0.0544  0.5050 -0.4456
   99SAPE  H17R 9973   2.116   2.235   5.172  1.2823 -0.5283 -0.0271
   99SAPE  H17S 9974   2.279   2.265   5.185  0.1839  2.3482  1.2509
   99SAPE  C218 9975   2.206   2.317   4.991 -0.1197  0.9883 -0.2019
   99SAPE  H18R 9976   2.221   2.210   4.966 -1.7459  0.0367  2.4405
   99SAPE  H18S 9977   2.295   2.379   4.970  1.1028  0.6276  3.3027
   99SAPE  C219 9978   2.080   2.346   4.914  0.2542 -0.1572 -0.2101
   99SAPE  H19R 9979   2.029   2.442   4.939 -4.6510 -1.9378 -2.0321
   99SAPE  H19S 9980   2.004   2.271   4.944  0.9654 -0.3294  1.2171
   99SAPE  C220 9981   2.104   2.335   4.762 -0.0374  0.5697 -0.0994
   99SAPE  H20R 9982   2.190   2.401   4.735  0.1488  0.7288  0.8520
   99SAPE  H20S 9983   2.010   2.371   4.714 -0.0629 -0.4302 -0.8228
   99SAPE  H20T 9984   2.138   2.233   4.734  0.8376  0.7272  0.3511
   99SAPE   C33 9985   2.067   3.321   6.300 -0.6863 -1.0000 -0.3953
   99SAPE   H3X 9986   2.157   3.280   6.250  0.0573 -0.6241  0.6165
   99SAPE   H3Y 9987   2.096   3.345   6.404 -1.5336  4.4029 -1.0656
   99SAPE   C34 9988   2.040   3.453   6.232 -0.0400  0.5281 -0.0113
   99SAPE   H4X 9989   2.135   3.510   6.223  0.7831 -0.8176 -0.0143
   99SAPE   H4Y 9990   1.969   3.519   6.286 -0.3454 -1.3464  1.9885
   99SAPE   C35 9991   1.995   3.448   6.078 -0.2626 -0.5389  0.1381
   99SAPE   H5X 9992   1.979   3.555   6.054 -3.4540 -0.9721 -0.1595
   99SAPE   H5Y 9993   1.898   3.394   6.088 -1.3355  1.2172 -0.3980
   99SAPE   C36 9994   2.098   3.385   5.983  0.3279  0.7775  0.5982
   99SAPE   H6X 9995   2.124   3.280   6.009  1.1586  0.8791  0.2347
   99SAPE   H6Y 9996   2.189   3.446   6.004  0.8298  0.4388 -0.5290
   99SAPE   C37 9997   2.071   3.409   5.829  0.1670  0.0307  0.4620
   99SAPE   H7X 9998   2.162   3.388   5.770 -0.0488  0.0959  0.1024
   99SAPE   H7Y 9999   2.043   3.516   5.817  0.8324  0.0635 -0.9744
   99SAPE   C3810000   1.954   3.328   5.778  0.2450  0.7122  0.3292
   99SAPE   H8X10001   1.864   3.367   5.828  0.4421  2.2520 -0.4523
   99SAPE   H8Y10002   1.969   3.220   5.804  0.8218  1.2647  2.5045
   99SAPE   C3910003   1.931   3.356   5.628  0.6675  0.3382 -0.1103
   99SAPE   H9X10004   2.018   3.311   5.576 -0.6895 -3.8459  0.9093
   99SAPE   H9Y10005   1.930   3.466   5.612  4.0128  0.9119  2.4681
   99SAPE  C31010006   1.820   3.271   5.559 -0.1472  0.2829  0.6876
   99SAPE  H10X10007   1.714   3.282   5.591 -0.9410  2.0266 -2.1808
   99SAPE  H10Y10008   1.855   3.168   5.581  0.7693  0.4543  0.0618
   99SAPE  C31110009   1.842   3.264   5.412 -0.6294 -0.4582  0.4411
   99SAPE  H11X10010   1.945   3.268   5.370 -0.5064  0.1729  0.7848
   99SAPE  H11Y10011   1.792   3.346   5.357 -0.1872 -0.0578  0.6224
   99SAPE  C31210012   1.772   3.155   5.344  0.5056 -0.0120 -0.3294
   99SAPE  H12X10013   1.671   3.165   5.388  0.3023 -2.6393 -0.0782
   99SAPE  H12Y10014   1.817   3.062   5.384  1.5056  0.4219 -0.4159
   99SAPE  C31310015   1.767   3.164   5.186  0.9461  0.4576  0.2863
   99SAPE  H13X10016   1.866   3.171   5.135  0.4980 -0.2505 -0.7065
   99SAPE  H13Y10017   1.729   3.265   5.159 -0.4855  0.9581  3.7260
   99SAPE  C31410018   1.672   3.065   5.118  0.0225 -0.3093  0.1153
   99SAPE  H14X10019   1.568   3.093   5.146 -0.0190 -0.0825 -0.2519
   99SAPE  H14Y10020   1.693   2.966   5.163  1.4681 -0.0915 -0.0371
   99SAPE  C31510021   1.688   3.067   4.966 -0.9033  0.7567  0.1095
   99SAPE  H15X10022   1.618   2.989   4.931  2.3402 -1.8794 -1.1279
   99SAPE  H15Y10023   1.788   3.019   4.953 -1.2021 -0.5290  2.2482
   99SAPE  C31610024   1.650   3.190   4.890 -0.0744  0.1602 -0.3236
   99SAPE  H16X10025   1.708   3.277   4.928  0.9833 -0.4140 -0.5820
   99SAPE  H16Y10026   1.546   3.212   4.920  0.3610  1.4779  0.2830
   99SAPE  C31710027   1.673   3.188   4.737 -0.3479 -0.0305 -0.7940
   99SAPE  H17X10028   1.770   3.144   4.709  0.0545  0.0268  0.4743
   99SAPE  H17Y10029   1.676   3.296   4.711  0.4686 -0.1896 -1.3913
   99SAPE  C31810030   1.556   3.114   4.663 -0.4636  0.0790  0.4203
   99SAPE  H18X10031   1.471   3.180   4.632  0.2378  0.9071  0.2202
   99SAPE  H18Y10032   1.507   3.042   4.732 -0.4950  0.8839  1.2679
   99SAPE  H18Z10033   1.596   3.058   4.577  0.8172  0.1622  0.9450
  100SAPE     N10034   5.296   4.635   6.956  0.1694  0.6451 -0.1622
  100SAPE   HN110035   5.355   4.595   6.881  0.2996 -0.3326  0.4553
  100SAPE   HN210036   5.339   4.609   7.047  3.1002  0.0712 -1.5948
  100SAPE   HN310037   5.199   4.600   6.946  0.7795 -0.9531 -0.8230
  100SAPE   C1210038   5.297   4.792   6.952 -0.3840 -0.3968 -0.0911
  100SAPE  H12A10039   5.209   4.820   7.014 -1.1037 -3.3991  0.4119
  100SAPE  H12B10040   5.282   4.808   6.843 -0.5668  0.7417  0.0868
  100SAPE   C1110041   5.438   4.847   7.001 -0.1305  0.4411  0.3489
  100SAPE  H11A10042   5.435   4.824   7.109 -1.0377  1.8281  0.6383
  100SAPE  H11B10043   5.451   4.957   7.001  1.9564  0.2593 -0.8820
  100SAPE     P10044   5.597   4.828   6.798 -0.0122 -0.1110 -0.0871
  100SAPE   O1310045   5.669   4.956   6.823 -0.3944 -0.1747 -0.1739
  100SAPE   O1410046   5.677   4.724   6.741  0.0637  0.3090  0.5349
  100SAPE   O1210047   5.537   4.772   6.932 -0.4480  0.5795  0.5932
  100SAPE   O1110048   5.469   4.844   6.713  0.4990  0.3351  0.2744
  100SAPE    C110049   5.426   4.952   6.637  0.1764 -0.2487 -0.1753
  100SAPE    HA10050   5.315   4.944   6.629  0.2441 -1.9254  0.2653
  100SAPE    HB10051   5.435   5.055   6.678  1.7271 -0.1124 -0.8112
  100SAPE    C210052   5.474   4.963   6.488 -0.2411  0.1905  0.1133
  100SAPE    HS10053   5.391   4.993   6.420  0.5906 -2.2777 -2.1958
  100SAPE   O2110054   5.527   4.833   6.441  0.4923 -0.1088 -0.0787
  100SAPE   C2110055   5.439   4.741   6.415  0.0759  1.3994 -0.3799
  100SAPE   O2210056   5.315   4.747   6.428  0.2194  0.1474 -0.6227
  100SAPE   C2210057   5.514   4.618   6.362 -0.0244  0.4125 -0.0406
  100SAPE   H2R10058   5.614   4.648   6.323 -0.4924  0.3761 -1.3178
  100SAPE   H2S10059   5.523   4.543   6.443 -1.4453 -1.5320 -1.5860
  100SAPE    C310060   5.583   5.074   6.474 -0.2057  0.1571  1.2480
  100SAPE    HX10061   5.676   5.032   6.517  0.9525 -1.1892 -2.2022
  100SAPE    HY10062   5.544   5.156   6.538  1.7733  0.9353  1.5341
  100SAPE   O3110063   5.613   5.127   6.339 -0.0536 -0.5883  0.6991
  100SAPE   C3110064   5.514   5.189   6.274 -0.0652  0.0919 -0.6090
  100SAPE   O3210065   5.409   5.218   6.325  0.1128 -0.6014  0.2457
  100SAPE   C3210066   5.551   5.232   6.129 -0.2914  0.6107 -0.7798
  100SAPE   H2X10067   5.629   5.307   6.154  0.2266  0.1031 -0.8642
  100SAPE   H2Y10068   5.458   5.278   6.089  0.1364  2.4222  0.2003
  100SAPE   C2310069   5.443   4.561   6.239  0.6925  0.1829 -0.1945
  100SAPE   H3R10070   5.346   4.514   6.267  1.2684 -0.8082  0.2009
  100SAPE   H3S10071   5.502   4.476   6.197  0.2895 -0.3464  0.2872
  100SAPE   C2410072   5.415   4.655   6.117  0.3214 -0.9219 -0.2309
  100SAPE   H4R10073   5.344   4.730   6.157  1.6421  0.1400  0.2007
  100SAPE   H4S10074   5.359   4.608   6.033 -1.0292 -0.7162  0.5270
  100SAPE   C2510075   5.543   4.719   6.062 -0.0727 -1.0084 -0.3138
  100SAPE   H5R10076   5.590   4.791   6.130 -1.2330  0.1938 -0.7334
  100SAPE   C2610077   5.606   4.689   5.945  0.0564  0.3846 -0.0851
  100SAPE   H6R10078   5.695   4.745   5.913 -0.9554  0.9769 -2.0520
  100SAPE   C2710079   5.560   4.594   5.839 -0.2475  0.2615  0.2064
  100SAPE   H7R10080   5.516   4.504   5.888  2.5137 -1.6367 -0.5698
  100SAPE   H7S10081   5.653   4.567   5.785  0.0152  0.6308  0.4787
  100SAPE   C2810082   5.453   4.659   5.757  1.1113 -0.7362  1.0635
  100SAPE   H8R10083   5.356   4.687   5.801  0.7951  2.0056 -1.0386
  100SAPE   C2910084   5.468   4.673   5.620 -1.2682 -0.5011 -0.6673
  100SAPE   H9R10085   5.397   4.730   5.558 -2.1374  0.5915  1.2291
  100SAPE  C21010086   5.594   4.644   5.535  0.8956 -0.0169 -0.8403
  100SAPE  H10R10087   5.561   4.633   5.430  0.6176 -1.4462 -0.6154
  100SAPE  H10S10088   5.638   4.549   5.572 -1.2404 -0.5716  0.4508
  100SAPE  C21110089   5.699   4.746   5.534 -0.6176 -0.0489 -0.5999
  100SAPE  H11R10090   5.715   4.809   5.623  3.1177 -1.0037 -0.4367
  100SAPE  C21210091   5.793   4.774   5.445  0.0288 -0.4136 -0.4399
  100SAPE  H12R10092   5.869   4.851   5.462 -1.3634  1.5036 -2.3893
  100SAPE  C21310093   5.818   4.707   5.308 -0.1571 -0.0253 -1.0652
  100SAPE  H13R10094   5.759   4.613   5.309 -1.1674  0.6014  0.0072
  100SAPE  H13S10095   5.924   4.674   5.315 -0.6857 -1.8837 -1.2770
  100SAPE  C21410096   5.777   4.785   5.188 -0.1232 -0.4619  0.8905
  100SAPE  H14R10097   5.695   4.856   5.202  0.1465 -0.3498  1.9479
  100SAPE  C21510098   5.846   4.787   5.067 -0.1970  0.1896  0.2658
  100SAPE  H15R10099   5.809   4.849   4.984  0.3484 -0.9900 -0.8941
  100SAPE  C21610100   5.956   4.694   5.019 -0.5526  0.1942 -0.2400
  100SAPE  H16R10101   5.917   4.648   4.926  0.1882 -0.3691 -0.2783
  100SAPE  H16S10102   5.969   4.610   5.091 -0.4337  0.3927 -0.0256
  100SAPE  C21710103   6.092   4.769   4.988 -0.5164  0.5596  0.7354
  100SAPE  H17R10104   6.147   4.789   5.082 -0.2334  0.2940  0.6276
  100SAPE  H17S10105   6.057   4.865   4.945  1.0159  0.3647 -1.1027
  100SAPE  C21810106   6.184   4.693   4.886 -0.3371  0.0882 -0.0937
  100SAPE  H18R10107   6.122   4.661   4.798  0.5389  1.0699 -1.0940
  100SAPE  H18S10108   6.232   4.600   4.924  0.5846 -0.4888 -2.4967
  100SAPE  C21910109   6.299   4.787   4.853  0.9048  0.7470 -0.1825
  100SAPE  H19R10110   6.383   4.786   4.926  2.2981  3.0955 -1.6197
  100SAPE  H19S10111   6.269   4.893   4.856 -0.1770  0.4578  3.2430
  100SAPE  C22010112   6.366   4.763   4.709  0.0043  0.2950  0.2261
  100SAPE  H20R10113   6.453   4.831   4.695  0.6647 -0.9076 -2.0267
  100SAPE  H20S10114   6.292   4.779   4.628  0.3635  1.0625  0.0363
  100SAPE  H20T10115   6.407   4.660   4.700 -1.8972 -0.3271 -2.9474
  100SAPE   C3310116   5.621   5.118   6.052  0.4507 -0.2431  0.1038
  100SAPE   H3X10117   5.550   5.033   6.051  0.1800 -0.0452 -2.1554
  100SAPE   H3Y10118   5.709   5.074   6.104 -0.0734 -0.7207  0.6020
  100SAPE   C3410119   5.657   5.173   5.915 -0.1312  0.0590  1.7525
  100SAPE   H4X10120   5.734   5.253   5.914 -0.2512  0.1817  0.2998
  100SAPE   H4Y10121   5.566   5.221   5.875  0.2408  0.8944  1.8808
  100SAPE   C3510122   5.702   5.061   5.821  0.4818  0.0412 -0.1434
  100SAPE   H5X10123   5.617   4.993   5.799 -1.9504  2.2534  1.7766
  100SAPE   H5Y10124   5.778   5.001   5.875 -0.8816 -1.4106  0.2324
  100SAPE   C3610125   5.764   5.111   5.686  0.2231 -0.3130  0.5707
  100SAPE   H6X10126   5.822   5.034   5.630 -1.5701  0.3459 -2.3654
  100SAPE   H6Y10127   5.829   5.200   5.696 -0.3258  0.2997 -1.0916
  100SAPE   C3710128   5.658   5.149   5.589 -0.3590  0.2242  0.0409
  100SAPE   H7X10129   5.581   5.224   5.618 -0.9169  0.0680 -0.9872
  100SAPE   H7Y10130   5.605   5.054   5.569  0.0675  0.0338 -0.1986
  100SAPE   C3810131   5.717   5.199   5.448  0.3591 -0.1651 -0.0158
  100SAPE   H8X10132   5.803   5.135   5.418  0.3412  0.1692 -0.7966
  100SAPE   H8Y10133   5.739   5.307   5.457  0.3907 -0.1940  0.2868
  100SAPE   C3910134   5.615   5.200   5.335  0.2170 -0.4736  0.3567
  100SAPE   H9X10135   5.528   5.263   5.362 -0.7735 -1.5209 -0.2910
  100SAPE   H9Y10136   5.577   5.096   5.325 -1.4345  0.1602 -0.1481
  100SAPE  C31010137   5.682   5.249   5.209 -1.0873  0.0731  0.2404
  100SAPE  H10X10138   5.779   5.202   5.186 -0.8257  0.1224  1.2051
  100SAPE  H10Y10139   5.716   5.354   5.206 -0.1275 -0.2548 -0.5064
  100SAPE  C31110140   5.594   5.229   5.088 -0.4307 -0.4213 -0.0163
  100SAPE  H11X10141   5.494   5.276   5.102  0.7133  3.5935 -3.2418
  100SAPE  H11Y10142   5.583   5.119   5.076 -1.8570 -0.6174  2.3040
  100SAPE  C31210143   5.654   5.287   4.963 -0.3292 -0.3363  0.5150
  100SAPE  H12X10144   5.592   5.255   4.877  1.7173 -0.1868 -1.0988
  100SAPE  H12Y10145   5.752   5.237   4.948 -0.8755 -0.8428 -1.7225
  100SAPE  C31310146   5.674   5.438   4.968 -0.0255  0.2647  0.0171
  100SAPE  H13X10147   5.757   5.457   5.040  0.5700  0.5617 -0.7187
  100SAPE  H13Y10148   5.590   5.473   5.031 -0.6456 -0.1171 -0.5834
  100SAPE  C31410149   5.673   5.493   4.825 -0.7712 -0.3046 -0.7693
  100SAPE  H14X10150   5.739   5.436   4.755  1.0005  0.3052  0.3290
  100SAPE  H14Y10151   5.713   5.596   4.837  0.6392 -1.0790  2.3412
  100SAPE  C31510152   5.532   5.499   4.757 -0.1448 -0.0142 -0.3259
  100SAPE  H15X10153   5.461   5.520   4.840 -1.0744  1.6270 -1.4699
  100SAPE  H15Y10154   5.505   5.396   4.728 -1.9999  0.2163  0.4412
  100SAPE  C31610155   5.524   5.587   4.637 -0.3023  0.9146 -0.7024
  100SAPE  H16X10156   5.612   5.559   4.576 -1.6048  1.7585 -3.1171
  100SAPE  H16Y10157   5.528   5.696   4.662  1.4646  0.9116 -0.8470
  100SAPE  C31710158   5.394   5.565   4.540  0.4445 -0.2603  0.0676
  100SAPE  H17X10159   5.367   5.457   4.545  0.5977 -0.3171 -0.3184
  100SAPE  H17Y10160   5.419   5.593   4.436  0.1468  0.6651  0.2403
  100SAPE  C31810161   5.291   5.668   4.585 -1.0597 -0.9941  0.4612
  100SAPE  H18X10162   5.190   5.653   4.541 -1.3895  1.4272  0.2551
  100SAPE  H18Y10163   5.322   5.774   4.572 -2.3587 -0.7136 -0.5227
  100SAPE  H18Z10164   5.276   5.652   4.694  1.3534 -3.0700  0.5785
  101SAPE     N10165   5.310   5.310   6.932 -0.3099 -0.8072 -0.0087
  101SAPE   HN110166   5.247   5.252   6.872 -1.4866 -0.8623  1.2427
  101SAPE   HN210167   5.312   5.408   6.899  0.0642 -1.0414 -0.7186
  101SAPE   HN310168   5.401   5.265   6.911 -1.2131 -3.1227  0.7187
  101SAPE   C1210169   5.274   5.313   7.076  0.4211  0.1807  0.4707
  101SAPE  H12A10170   5.175   5.363   7.079 -0.1800 -0.7729 -1.6714
  101SAPE  H12B10171   5.349   5.379   7.125 -0.0276  1.9130 -1.0603
  101SAPE   C1110172   5.265   5.165   7.118  0.2785 -0.4148  0.5989
  101SAPE  H11A10173   5.243   5.163   7.227  1.3167  1.9951  0.9283
  101SAPE  H11B10174   5.368   5.128   7.104  0.6234  1.3661 -2.4522
  101SAPE     P10175   5.029   5.083   7.100  0.2206  0.0485 -0.6831
  101SAPE   O1310176   5.019   4.953   7.171 -0.3704 -0.0802 -0.2062
  101SAPE   O1410177   5.002   5.210   7.176  0.3036  0.0117 -0.1979
  101SAPE   O1210178   5.174   5.090   7.037  0.3894  0.4897  0.0186
  101SAPE   O1110179   4.929   5.081   6.969  0.3347  0.4663 -0.2751
  101SAPE    C110180   4.922   4.971   6.883  0.2404  0.4618 -0.4607
  101SAPE    HA10181   4.939   4.873   6.934  0.1500  1.1681  0.9672
  101SAPE    HB10182   4.812   4.957   6.874  0.2675 -1.5863  1.3580
  101SAPE    C210183   4.993   4.984   6.744 -0.0248  0.2635  1.2196
  101SAPE    HS10184   5.103   4.984   6.758  0.3240  0.1671 -1.0766
  101SAPE   O2110185   4.954   5.110   6.688 -0.9937 -0.1373 -0.5811
  101SAPE   C2110186   5.052   5.203   6.679 -0.1073  0.2064 -0.0532
  101SAPE   O2210187   5.158   5.191   6.734  0.7281  0.0844 -0.4224
  101SAPE   C2210188   4.997   5.322   6.590 -0.0214  0.0433  0.2831
  101SAPE   H2R10189   4.902   5.280   6.550  0.5291 -1.3513  0.3650
  101SAPE   H2S10190   4.955   5.399   6.658 -1.8864 -0.4168 -0.2811
  101SAPE    C310191   4.951   4.865   6.646  0.1206 -0.3204  0.2649
  101SAPE    HX10192   4.840   4.873   6.642  0.1253 -0.4695 -0.2192
  101SAPE    HY10193   4.969   4.766   6.693  0.8349  0.3175  1.3937
  101SAPE   O3110194   5.010   4.875   6.518  0.0963  0.2191 -0.3708
  101SAPE   C3110195   4.966   4.959   6.423  0.0807  0.1390  0.3721
  101SAPE   O3210196   4.866   5.023   6.430  0.5871 -0.0112  0.0982
  101SAPE   C3210197   5.049   4.968   6.298  0.0689  0.1261  0.0611
  101SAPE   H2X10198   5.127   4.891   6.282  1.1410  0.7278  2.1209
  101SAPE   H2Y10199   5.101   5.066   6.294  1.6563 -0.7076 -0.7522
  101SAPE   C2310200   5.095   5.380   6.489  0.5000 -0.3635  0.4349
  101SAPE   H3R10201   5.146   5.290   6.448 -1.3648 -2.0982  1.7310
  101SAPE   H3S10202   5.169   5.446   6.538 -2.2172  2.4185  1.1410
  101SAPE   C2410203   5.022   5.441   6.362  0.1993 -0.2298  0.3800
  101SAPE   H4R10204   4.957   5.522   6.401  0.0206 -0.2332  0.0880
  101SAPE   H4S10205   4.950   5.375   6.310  0.2350 -1.3339  1.6749
  101SAPE   C2510206   5.117   5.496   6.254  0.2515  1.0048  0.5083
  101SAPE   H5R10207   5.221   5.498   6.288  0.5402  0.7951 -0.3414
  101SAPE   C2610208   5.084   5.534   6.128  0.3153 -0.1000 -0.0994
  101SAPE   H6R10209   5.162   5.576   6.062  1.6213  0.9669  2.0143
  101SAPE   C2710210   4.943   5.522   6.074 -0.2814 -0.5499 -0.0712
  101SAPE   H7R10211   4.913   5.607   6.009  1.7072 -1.2619 -2.0627
  101SAPE   H7S10212   4.875   5.528   6.161 -0.3208 -0.0189 -0.1351
  101SAPE   C2810213   4.915   5.389   6.001  0.2479 -0.7368 -0.7120
  101SAPE   H8R10214   4.911   5.308   6.075 -0.3192 -2.2363 -2.3112
  101SAPE   C2910215   4.914   5.353   5.875 -0.0445  0.7289 -0.1694
  101SAPE   H9R10216   4.895   5.246   5.859  0.9018  0.9337 -3.3890
  101SAPE  C21010217   4.901   5.442   5.754  0.2504 -0.2128  0.6612
  101SAPE  H10R10218   4.984   5.427   5.682  2.3653  1.4903  2.5818
  101SAPE  H10S10219   4.925   5.547   5.781 -0.4030  0.0978  0.0466
  101SAPE  C21110220   4.759   5.436   5.703 -0.2847 -0.2915  0.3039
  101SAPE  H11R10221   4.685   5.469   5.778  0.1531 -0.6896  0.9152
  101SAPE  C21210222   4.718   5.433   5.574 -0.6555 -0.3663  0.2048
  101SAPE  H12R10223   4.611   5.421   5.550 -1.2747  3.4180  0.4831
  101SAPE  C21310224   4.809   5.398   5.459 -0.1636 -0.9662 -0.9177
  101SAPE  H13R10225   4.829   5.289   5.464 -0.3924 -1.0944  5.4793
  101SAPE  H13S10226   4.903   5.454   5.476 -0.9569 -0.0101  0.5594
  101SAPE  C21410227   4.755   5.445   5.326  0.0024  0.1149 -0.5851
  101SAPE  H14R10228   4.648   5.429   5.307 -0.3891  2.1729 -0.3276
  101SAPE  C21510229   4.826   5.488   5.220 -0.4300  0.8105  0.5711
  101SAPE  H15R10230   4.773   5.501   5.124 -0.8508 -0.6715  0.5881
  101SAPE  C21610231   4.973   5.517   5.230 -0.6073 -0.1947 -0.4903
  101SAPE  H16R10232   5.034   5.492   5.320 -0.3275  0.8315 -0.3827
  101SAPE  H16S10233   4.979   5.628   5.224 -0.6107 -0.1433  0.2883
  101SAPE  C21710234   5.066   5.452   5.116  0.2800  0.1935 -0.0731
  101SAPE  H17R10235   5.093   5.349   5.148 -0.6966 -0.2021 -0.4742
  101SAPE  H17S10236   5.165   5.501   5.115  1.4008 -1.9630 -0.9966
  101SAPE  C21810237   5.019   5.454   4.966  0.2690 -0.1392 -0.2632
  101SAPE  H18R10238   5.008   5.558   4.927  0.0342 -0.7993 -2.0780
  101SAPE  H18S10239   4.923   5.401   4.945 -0.5505  1.7841 -1.7007
  101SAPE  C21910240   5.124   5.381   4.873 -0.4297 -0.1879  0.0283
  101SAPE  H19R10241   5.214   5.446   4.875 -2.9207  3.5781  0.3439
  101SAPE  H19S10242   5.082   5.392   4.771  0.7690  1.5671 -0.3327
  101SAPE  C22010243   5.152   5.236   4.905  0.0676 -0.1570 -0.1912
  101SAPE  H20R10244   5.227   5.237   4.987  0.4704  1.2018 -0.5528
  101SAPE  H20S10245   5.194   5.179   4.820  0.1443  0.8916 -0.8733
  101SAPE  H20T10246   5.058   5.192   4.945  0.2251 -0.6673 -0.3807
  101SAPE   C3310247   4.959   4.953   6.167  0.5692 -0.0687 -0.5059
  101SAPE   H3X10248   4.899   5.047   6.157 -1.5875 -1.4107 -0.7092
  101SAPE   H3Y10249   4.895   4.864   6.176  0.0709  0.3375  0.0251
  101SAPE   C3410250   5.047   4.936   6.040 -0.5772  0.3883  0.2061
  101SAPE   H4X10251   4.983   4.925   5.949  1.2514 -2.7531 -0.8568
  101SAPE   H4Y10252   5.107   4.843   6.035  0.8779  1.1226  2.5520
  101SAPE   C3510253   5.138   5.065   6.015  0.4436 -0.1024  0.3402
  101SAPE   H5X10254   5.194   5.079   6.110 -0.7383 -0.7240  1.1551
  101SAPE   H5Y10255   5.076   5.154   5.991 -1.1157 -1.7401 -2.1576
  101SAPE   C3610256   5.240   5.042   5.906 -0.4657 -0.1612 -0.3448
  101SAPE   H6X10257   5.317   4.966   5.931 -3.6236 -2.6225  2.9890
  101SAPE   H6Y10258   5.290   5.140   5.897 -1.3545  0.3020 -0.3013
  101SAPE   C3710259   5.187   5.011   5.769 -0.0410  0.3120 -0.6736
  101SAPE   H7X10260   5.111   5.088   5.746  0.6909  1.1008 -0.5122
  101SAPE   H7Y10261   5.147   4.908   5.776 -0.8555  0.6830  0.3872
  101SAPE   C3810262   5.291   5.027   5.654 -0.2433 -0.6819  0.1706
  101SAPE   H8X10263   5.372   4.953   5.670  0.2351 -0.4995 -1.2577
  101SAPE   H8Y10264   5.333   5.130   5.650 -0.5928 -0.3342  3.1521
  101SAPE   C3910265   5.228   4.981   5.526  0.8363 -0.0357  0.0062
  101SAPE   H9X10266   5.139   5.047   5.517  1.1458  1.1317  3.5775
  101SAPE   H9Y10267   5.170   4.886   5.535 -0.7229  0.9665  1.1280
  101SAPE  C31010268   5.323   4.974   5.409 -0.8738  0.1417  0.1214
  101SAPE  H10X10269   5.411   4.919   5.451 -0.4519  1.9212  1.6692
  101SAPE  H10Y10270   5.370   5.069   5.375  1.4353 -0.9189  0.1181
  101SAPE  C31110271   5.272   4.883   5.297 -0.1978  0.0171  0.2932
  101SAPE  H11X10272   5.198   4.940   5.236  1.7073 -0.0166 -2.2431
  101SAPE  H11Y10273   5.228   4.788   5.334 -1.2642  0.3728 -0.0141
  101SAPE  C31210274   5.376   4.857   5.190 -0.5600  0.0891 -0.3053
  101SAPE  H12X10275   5.469   4.821   5.240 -1.6391 -1.9235  0.3553
  101SAPE  H12Y10276   5.406   4.950   5.137 -0.6107  0.7442  0.7777
  101SAPE  C31310277   5.340   4.747   5.084 -0.1561  0.0384 -0.4922
  101SAPE  H13X10278   5.242   4.767   5.033  0.7923  0.0871 -2.3853
  101SAPE  H13Y10279   5.338   4.652   5.141 -0.2098  1.0129  1.1948
  101SAPE  C31410280   5.454   4.736   4.985  0.3572  0.4282  0.4065
  101SAPE  H14X10281   5.539   4.690   5.041  1.9198  0.9691 -1.3997
  101SAPE  H14Y10282   5.494   4.837   4.962 -0.5007  0.6018 -0.3923
  101SAPE  C31510283   5.411   4.649   4.869  0.7676  1.0402  0.2924
  101SAPE  H15X10284   5.306   4.668   4.839  0.3350 -0.0918  1.0488
  101SAPE  H15Y10285   5.413   4.546   4.911  0.4791  0.4515 -1.0760
  101SAPE  C31610286   5.506   4.657   4.741  0.3272  0.5064  0.1191
  101SAPE  H16X10287   5.609   4.616   4.754  0.7642  1.1132 -1.2681
  101SAPE  H16Y10288   5.515   4.763   4.709  0.0248  0.1376 -1.2355
  101SAPE  C31710289   5.435   4.595   4.626 -0.0150  0.1804 -0.9922
  101SAPE  H17X10290   5.338   4.649   4.630 -0.1326 -0.0955  0.9351
  101SAPE  H17Y10291   5.411   4.492   4.661  0.4697  0.9570  1.9214
  101SAPE  C31810292   5.510   4.599   4.496 -0.3956  0.4879  0.2960
  101SAPE  H18X10293   5.536   4.704   4.473 -0.0746  0.0916 -1.3027
  101SAPE  H18Y10294   5.438   4.564   4.419 -2.2059  0.8704  1.7458
  101SAPE  H18Z10295   5.597   4.532   4.511 -0.8137  0.4849  3.3234
  102SAPE     N10296   3.572   5.292   6.861 -0.5480  0.6647 -0.2937
  102SAPE   HN110297   3.625   5.203   6.863  0.4536  1.2635  0.7346
  102SAPE   HN210298   3.634   5.364   6.902 -0.4966  1.1170 -1.1516
  102SAPE   HN310299   3.481   5.283   6.911 -1.4475  1.1330 -1.7841
  102SAPE   C1210300   3.549   5.321   6.718 -0.0867 -0.0799  0.0620
  102SAPE  H12A10301   3.652   5.327   6.678  0.0890  2.0735  0.6707
  102SAPE  H12B10302   3.502   5.422   6.707 -0.2664  0.3463  3.6303
  102SAPE   C1110303   3.453   5.213   6.666  0.2816  0.4175 -0.0349
  102SAPE  H11A10304   3.494   5.115   6.698  0.7573  0.3465 -0.8256
  102SAPE  H11B10305   3.454   5.224   6.556  2.1362  1.7227  0.0591
  102SAPE     P10306   3.211   5.303   6.641 -0.1423 -0.1783  0.0073
  102SAPE   O1310307   3.090   5.216   6.655  0.7243  0.0819 -0.2634
  102SAPE   O1410308   3.198   5.437   6.702 -0.4295 -0.4737  0.1046
  102SAPE   O1210309   3.327   5.232   6.718  0.0642 -0.4409  0.0407
  102SAPE   O1110310   3.255   5.311   6.488 -0.4454  0.1741 -0.0685
  102SAPE    C110311   3.321   5.431   6.439 -0.3679 -0.2260  0.0448
  102SAPE    HA10312   3.346   5.495   6.526 -0.6597 -1.8555  1.3774
  102SAPE    HB10313   3.426   5.410   6.409  1.1182  2.8198  2.5878
  102SAPE    C210314   3.238   5.508   6.334 -0.0944  0.0883 -0.1091
  102SAPE    HS10315   3.133   5.506   6.371  0.2236 -1.8008  0.8270
  102SAPE   O2110316   3.231   5.426   6.218 -0.4551  0.0158  0.2619
  102SAPE   C2110317   3.137   5.456   6.133  0.3354  0.3041  0.9092
  102SAPE   O2210318   3.045   5.535   6.158  0.1843  0.8243  0.4682
  102SAPE   C2210319   3.157   5.393   6.001  0.5066  1.0587 -0.3930
  102SAPE   H2R10320   3.191   5.289   6.020 -0.1795  0.5380 -1.8606
  102SAPE   H2S10321   3.060   5.406   5.948 -0.0626 -0.2320  0.2669
  102SAPE    C310322   3.274   5.662   6.299 -0.5717  0.1264  0.0370
  102SAPE    HX10323   3.299   5.712   6.395 -0.5500  0.2193 -0.0160
  102SAPE    HY10324   3.175   5.705   6.272 -0.4041  1.0363  0.8314
  102SAPE   O3110325   3.369   5.669   6.188 -0.1993 -0.1402 -0.2988
  102SAPE   C3110326   3.498   5.661   6.236 -0.1561  0.8818  1.0331
  102SAPE   O3210327   3.525   5.653   6.353  0.1770  0.2679 -0.7394
  102SAPE   C3210328   3.592   5.632   6.111 -0.2004 -0.5549 -0.1148
  102SAPE   H2X10329   3.646   5.727   6.090 -1.4250 -0.1522 -1.6619
  102SAPE   H2Y10330   3.532   5.606   6.021 -0.1395 -3.1067  0.5188
  102SAPE   C2310331   3.263   5.463   5.914  0.8341  1.0154  0.0123
  102SAPE   H3R10332   3.357   5.448   5.970  1.5092 -1.0167 -1.5336
  102SAPE   H3S10333   3.247   5.571   5.895 -1.6328  0.7780  0.4094
  102SAPE   C2410334   3.282   5.382   5.786 -1.1041  0.1595  0.0085
  102SAPE   H4R10335   3.301   5.276   5.812  0.2919  0.7799  1.7471
  102SAPE   H4S10336   3.374   5.425   5.742 -2.0021  2.5391  0.2596
  102SAPE   C2510337   3.169   5.390   5.692  0.0083 -0.4687 -0.8298
  102SAPE   H5R10338   3.085   5.328   5.729  0.4279  0.3822  1.7492
  102SAPE   C2610339   3.157   5.449   5.572 -0.1272 -0.0803 -0.2250
  102SAPE   H6R10340   3.059   5.443   5.522 -0.1446  0.9764 -0.3524
  102SAPE   C2710341   3.268   5.523   5.503 -1.3036 -0.4273 -0.2586
  102SAPE   H7R10342   3.332   5.547   5.590 -0.9714 -2.1429  0.0055
  102SAPE   H7S10343   3.237   5.621   5.459 -2.1221 -0.6283 -0.1588
  102SAPE   C2810344   3.350   5.451   5.398  0.4054  0.2934 -0.2343
  102SAPE   H8R10345   3.348   5.342   5.416  0.9428  0.3196 -0.0037
  102SAPE   C2910346   3.411   5.499   5.295  0.3947 -0.7962  0.1477
  102SAPE   H9R10347   3.464   5.424   5.235  1.2115  0.2481 -0.4809
  102SAPE  C21010348   3.428   5.646   5.253  0.1469 -0.3729  0.5624
  102SAPE  H10R10349   3.447   5.714   5.340 -0.7024  1.6831 -0.7861
  102SAPE  H10S10350   3.336   5.678   5.202  0.4320 -1.5659 -0.7425
  102SAPE  C21110351   3.536   5.653   5.145  0.0224 -0.0886 -0.3630
  102SAPE  H11R10352   3.635   5.691   5.174  1.3066 -2.8678 -0.7815
  102SAPE  C21210353   3.524   5.617   5.019 -0.2651  0.6797  0.3218
  102SAPE  H12R10354   3.618   5.624   4.963 -0.7914  2.8150 -0.4228
  102SAPE  C21310355   3.408   5.562   4.942 -0.1663 -0.1589 -0.4396
  102SAPE  H13R10356   3.323   5.534   5.008  0.5281 -1.2144  0.0313
  102SAPE  H13S10357   3.445   5.483   4.873 -0.8078 -0.1944 -0.7493
  102SAPE  C21410358   3.354   5.683   4.864  1.5476  0.3318  0.4671
  102SAPE  H14R10359   3.335   5.769   4.930 -0.4937  0.0817  0.2694
  102SAPE  C21510360   3.322   5.690   4.730 -0.6048  0.2894 -0.3305
  102SAPE  H15R10361   3.284   5.786   4.693  0.5534  0.6131 -0.7000
  102SAPE  C21610362   3.346   5.579   4.637 -0.1600 -0.0206  0.2557
  102SAPE  H16R10363   3.374   5.490   4.697  0.9000  0.2104  0.1124
  102SAPE  H16S10364   3.432   5.605   4.572 -2.0951  2.8754 -1.3937
  102SAPE  C21710365   3.230   5.542   4.534 -0.3118  0.6186 -0.0821
  102SAPE  H17R10366   3.134   5.526   4.588 -0.5807  2.5855  0.1001
  102SAPE  H17S10367   3.251   5.447   4.480 -0.8461  0.9387 -0.8718
  102SAPE  C21810368   3.209   5.649   4.429 -0.8020 -0.3730 -0.4708
  102SAPE  H18R10369   3.307   5.662   4.379  1.0383 -0.7948  2.7977
  102SAPE  H18S10370   3.175   5.747   4.468 -0.3848 -0.4813  0.1779
  102SAPE  C21910371   3.098   5.609   4.327  0.0259  0.1116  0.4818
  102SAPE  H19R10372   3.140   5.523   4.270 -1.9530 -0.9487  0.4999
  102SAPE  H19S10373   3.080   5.694   4.259 -1.4497  1.4709  2.4371
  102SAPE  C22010374   2.962   5.570   4.385  0.2243  0.2491  0.3392
  102SAPE  H20R10375   2.884   5.555   4.307  0.3933 -0.1727  0.2459
  102SAPE  H20S10376   2.933   5.655   4.450  0.4225  0.4946  0.1081
  102SAPE  H20T10377   2.976   5.472   4.434  3.9644 -0.1664 -1.1908
  102SAPE   C3310378   3.688   5.520   6.142 -0.0211  1.0722  0.6271
  102SAPE   H3X10379   3.623   5.430   6.134  0.4642  0.8572 -2.3961
  102SAPE   H3Y10380   3.739   5.542   6.238 -0.9484 -0.6253  1.5656
  102SAPE   C3410381   3.799   5.527   6.038  0.1708 -0.0730  0.4136
  102SAPE   H4X10382   3.888   5.466   6.064 -0.4215 -1.2904 -0.3613
  102SAPE   H4Y10383   3.844   5.629   6.039  0.0112  0.0270 -0.9468
  102SAPE   C3510384   3.759   5.481   5.897 -0.7650 -0.5735 -0.5754
  102SAPE   H5X10385   3.649   5.473   5.887 -0.8457 -1.0313  0.5999
  102SAPE   H5Y10386   3.807   5.381   5.894  0.0301 -0.2504  0.7443
  102SAPE   C3610387   3.813   5.565   5.782 -0.1984 -0.3385  0.0758
  102SAPE   H6X10388   3.920   5.590   5.796  0.3627 -2.7360  0.3922
  102SAPE   H6Y10389   3.748   5.656   5.783 -0.7576 -0.7266  1.4486
  102SAPE   C3710390   3.794   5.490   5.654 -0.4847  0.0638  1.0140
  102SAPE   H7X10391   3.693   5.476   5.610 -0.3056  1.2150  0.1725
  102SAPE   H7Y10392   3.840   5.389   5.656 -1.6796 -0.4963  1.1464
  102SAPE   C3810393   3.873   5.562   5.534 -0.1863  0.1721 -0.4150
  102SAPE   H8X10394   3.978   5.580   5.566  0.0411  1.0011 -1.5764
  102SAPE   H8Y10395   3.819   5.659   5.537 -0.1507  0.1934  2.5016
  102SAPE   C3910396   3.864   5.488   5.397  0.8954 -0.4053  0.1004
  102SAPE   H9X10397   3.758   5.476   5.366  2.0618 -2.9046 -3.6657
  102SAPE   H9Y10398   3.911   5.387   5.399  1.2249 -0.2399  1.2353
  102SAPE  C31010399   3.934   5.568   5.287  0.7954 -0.5245 -0.5542
  102SAPE  H10X10400   4.044   5.575   5.299  0.4261  0.7319  4.2473
  102SAPE  H10Y10401   3.893   5.671   5.290 -2.2207 -1.6326  2.2980
  102SAPE  C31110402   3.904   5.503   5.151 -0.2528 -0.1290 -0.3854
  102SAPE  H11X10403   3.934   5.582   5.079  0.4716 -0.4070 -0.4015
  102SAPE  H11Y10404   3.794   5.491   5.141 -0.3513  1.0460 -0.7610
  102SAPE  C31210405   3.979   5.367   5.127 -0.3796 -0.4171  0.2403
  102SAPE  H12X10406   3.925   5.294   5.190 -2.5277  1.5117  0.7673
  102SAPE  H12Y10407   4.084   5.368   5.163 -0.9219  0.1202  1.9052
  102SAPE  C31310408   3.969   5.326   4.981  0.1474  0.3068 -0.4900
  102SAPE  H13X10409   3.970   5.412   4.910 -1.8336  2.2424  1.6868
  102SAPE  H13Y10410   3.866   5.290   4.964  0.9632 -1.4980 -2.1013
  102SAPE  C31410411   4.068   5.215   4.935 -1.1607 -0.4114 -0.0625
  102SAPE  H14X10412   4.078   5.139   5.016 -2.1040  1.1051  1.5509
  102SAPE  H14Y10413   4.173   5.250   4.934 -0.5635 -2.0824  0.6843
  102SAPE  C31510414   4.029   5.160   4.795 -0.3358  0.1307  0.6636
  102SAPE  H15X10415   3.947   5.087   4.807  1.4737 -2.2533 -0.5892
  102SAPE  H15Y10416   4.119   5.107   4.756 -0.8541  0.0697 -0.4975
  102SAPE  C31610417   3.991   5.264   4.691  0.2548  0.1419 -0.1701
  102SAPE  H16X10418   4.066   5.346   4.688  1.5361 -1.0210 -2.9773
  102SAPE  H16Y10419   3.896   5.301   4.736  0.0702 -0.6725  0.1229
  102SAPE  C31710420   3.968   5.217   4.548  0.4588 -0.6124 -0.8176
  102SAPE  H17X10421   3.981   5.297   4.472  1.3701  0.5041  0.4457
  102SAPE  H17Y10422   3.868   5.173   4.531  0.0102  0.3340 -0.7117
  102SAPE  C31810423   4.077   5.119   4.517 -0.6225 -0.9707 -0.1594
  102SAPE  H18X10424   4.064   5.017   4.558 -1.3332  0.1238  2.5316
  102SAPE  H18Y10425   4.181   5.143   4.547 -0.1638 -2.2616 -0.6554
  102SAPE  H18Z10426   4.086   5.110   4.406  0.0010 -0.0528 -0.1934
  103SAPE     N10427   3.654   1.348   2.163  0.1382 -0.1148 -0.1348
  103SAPE   HN110428   3.583   1.308   2.228  1.4444 -2.4906 -0.0407
  103SAPE   HN210429   3.740   1.369   2.217  1.8627 -0.5432 -2.5398
  103SAPE   HN310430   3.620   1.438   2.123 -0.4816 -0.1858  0.2139
  103SAPE   C1210431   3.679   1.253   2.053 -0.4363  0.3753  0.3297
  103SAPE  H12A10432   3.786   1.255   2.023 -0.9763  1.3540 -1.7069
  103SAPE  H12B10433   3.612   1.279   1.968 -0.8284 -0.3258  0.4133
  103SAPE   C1110434   3.652   1.105   2.081  0.2234  0.2536 -0.4785
  103SAPE  H11A10435   3.687   1.041   1.997  0.6336 -0.3511  0.1416
  103SAPE  H11B10436   3.542   1.104   2.094  0.3491 -2.4186  1.1085
  103SAPE     P10437   3.857   1.011   2.214 -0.2018 -0.0558 -0.0445
  103SAPE   O1310438   3.872   0.881   2.143  0.4384  0.4937 -0.5097
  103SAPE   O1410439   3.941   1.126   2.172 -0.5005  0.3118 -0.3590
  103SAPE   O1210440   3.705   1.057   2.207  0.3139  0.4967 -0.0651
  103SAPE   O1110441   3.885   0.981   2.373  0.8651 -0.3441 -0.1259
  103SAPE    C110442   3.786   1.022   2.475  0.4354 -0.5874 -0.1535
  103SAPE    HA10443   3.820   1.114   2.527  0.3657  0.0657 -1.2189
  103SAPE    HB10444   3.686   1.055   2.439  1.9269  2.9215 -1.5454
  103SAPE    C210445   3.771   0.927   2.594 -0.1447 -0.2014 -0.2738
  103SAPE    HS10446   3.661   0.908   2.598 -0.2167 -0.0746 -1.4816
  103SAPE   O2110447   3.821   0.987   2.723 -0.8006 -0.5546  0.1497
  103SAPE   C2110448   3.754   0.946   2.829 -0.1081  0.2609  0.0127
  103SAPE   O2210449   3.657   0.871   2.829  0.0260  0.2461 -0.5244
  103SAPE   C2210450   3.807   1.011   2.961  0.1934  0.2817  0.2565
  103SAPE   H2R10451   3.909   0.976   2.987  0.6235  0.8437 -0.6082
  103SAPE   H2S10452   3.816   1.120   2.941  0.1253 -0.0105 -1.6022
  103SAPE    C310453   3.837   0.788   2.567 -0.1650 -0.0159  0.4417
  103SAPE    HX10454   3.941   0.815   2.539 -0.1064 -0.8705 -0.2224
  103SAPE    HY10455   3.792   0.735   2.481 -2.0632  0.9880  0.7639
  103SAPE   O3110456   3.824   0.697   2.679 -0.3432 -0.4147  0.1514
  103SAPE   C3110457   3.931   0.616   2.691  0.6203  0.1817  1.0471
  103SAPE   O3210458   4.028   0.616   2.616  0.3948  0.5807 -0.2243
  103SAPE   C3210459   3.912   0.521   2.813 -0.0567 -0.2842 -0.3950
  103SAPE   H2X10460   3.978   0.435   2.791 -1.7391 -1.3957 -1.3279
  103SAPE   H2Y10461   3.804   0.494   2.819  0.0131 -0.9518 -1.7957
  103SAPE   C2310462   3.706   0.998   3.085  0.0463 -0.2356  0.2209
  103SAPE   H3R10463   3.702   0.893   3.120  1.0801 -0.3779 -0.0619
  103SAPE   H3S10464   3.604   1.028   3.054  0.4726  2.3884  1.0758
  103SAPE   C2410465   3.749   1.102   3.192  0.2049 -0.0048  0.1058
  103SAPE   H4R10466   3.770   1.191   3.130 -3.6659  1.6369  0.9044
  103SAPE   H4S10467   3.850   1.073   3.228  0.2444 -0.7806 -0.5924
  103SAPE   C2510468   3.656   1.133   3.308  0.4986  0.1849 -0.0598
  103SAPE   H5R10469   3.557   1.172   3.280 -0.3062 -1.5047  0.2647
  103SAPE   C2610470   3.684   1.111   3.436  0.3042  0.4093 -0.0272
  103SAPE   H6R10471   3.613   1.143   3.513  0.6853  1.4896 -0.1061
  103SAPE   C2710472   3.805   1.043   3.493 -0.1741  0.7728  0.5358
  103SAPE   H7R10473   3.887   1.029   3.420 -0.9896  1.3205 -0.5121
  103SAPE   H7S10474   3.778   0.937   3.514  1.0900  0.2452 -0.4277
  103SAPE   C2810475   3.852   1.118   3.618  0.2932 -0.6010  0.2053
  103SAPE   H8R10476   3.919   1.204   3.605 -1.0097  0.6342  1.3092
  103SAPE   C2910477   3.815   1.091   3.748 -0.1409 -0.0625 -0.7688
  103SAPE   H9R10478   3.858   1.148   3.832  0.9795 -0.2860 -1.1752
  103SAPE  C21010479   3.711   0.989   3.781  0.6229 -0.2685  0.0032
  103SAPE  H10R10480   3.775   0.904   3.813  2.0755  1.1406  1.0399
  103SAPE  H10S10481   3.648   0.952   3.698 -1.8195  1.2672  1.0594
  103SAPE  C21110482   3.619   1.037   3.894 -0.1007  0.1731  0.3404
  103SAPE  H11R10483   3.573   1.136   3.903 -0.9055 -0.3582  2.6805
  103SAPE  C21210484   3.593   0.972   4.009 -0.3650  0.6204 -0.7775
  103SAPE  H12R10485   3.543   1.031   4.087 -0.5288 -0.0105 -0.3977
  103SAPE  C21310486   3.640   0.840   4.055  0.0068  1.0091 -0.1589
  103SAPE  H13R10487   3.737   0.859   4.105  0.6064  0.8671 -1.2322
  103SAPE  H13S10488   3.665   0.770   3.972 -1.8002 -1.7621  1.4522
  103SAPE  C21410489   3.550   0.773   4.159 -0.0123 -0.1158 -0.6307
  103SAPE  H14R10490   3.572   0.802   4.262 -1.1564  0.4925 -0.5397
  103SAPE  C21510491   3.444   0.694   4.135  0.5555  0.0544 -0.5610
  103SAPE  H15R10492   3.390   0.644   4.215 -0.2502 -2.3019 -2.4636
  103SAPE  C21610493   3.391   0.651   4.005 -0.4115 -0.1263  0.6720
  103SAPE  H16R10494   3.404   0.728   3.926 -2.1591  3.3792  3.5419
  103SAPE  H16S10495   3.280   0.641   4.009 -0.4998 -1.1277 -2.1036
  103SAPE  C21710496   3.421   0.519   3.936  0.0415  0.4165  0.4748
  103SAPE  H17R10497   3.428   0.434   4.007  0.3310 -0.8160 -0.9740
  103SAPE  H17S10498   3.518   0.516   3.882 -0.0799  0.1319  0.2681
  103SAPE  C21810499   3.333   0.468   3.820  0.4415  0.1803 -0.7585
  103SAPE  H18R10500   3.245   0.420   3.867 -0.1265 -0.3446 -2.3001
  103SAPE  H18S10501   3.385   0.388   3.762 -0.7368 -1.3770  0.2682
  103SAPE  C21910502   3.288   0.561   3.710 -0.2896 -0.0482  1.1102
  103SAPE  H19R10503   3.203   0.628   3.734 -0.1527  1.5074 -2.2320
  103SAPE  H19S10504   3.245   0.502   3.626  1.1730 -0.4932  0.6455
  103SAPE  C22010505   3.394   0.645   3.641  0.8503 -0.1859  0.7693
  103SAPE  H20R10506   3.450   0.710   3.713  2.0437  1.1618 -1.2474
  103SAPE  H20S10507   3.358   0.715   3.562  1.1067  2.4999  2.8683
  103SAPE  H20T10508   3.453   0.568   3.588 -1.5731 -3.4453  2.4885
  103SAPE   C3310509   3.966   0.594   2.942 -0.6316  0.3483 -0.2204
  103SAPE   H3X10510   3.892   0.674   2.961 -0.2674  0.0159  3.1881
  103SAPE   H3Y10511   4.071   0.624   2.924  0.0318 -1.7863 -0.2114
  103SAPE   C3410512   3.965   0.490   3.054  0.0487  1.0152 -0.4733
  103SAPE   H4X10513   4.014   0.535   3.143 -0.8499 -3.5498  2.6450
  103SAPE   H4Y10514   4.015   0.394   3.032 -0.3732  0.0171  2.5248
  103SAPE   C3510515   3.818   0.458   3.118 -0.1256 -0.4107 -0.1171
  103SAPE   H5X10516   3.834   0.388   3.202 -1.1917 -0.4199  0.0970
  103SAPE   H5Y10517   3.751   0.415   3.040  2.5703 -0.1545 -2.7500
  103SAPE   C3610518   3.734   0.582   3.172 -0.0973 -0.1722  0.0501
  103SAPE   H6X10519   3.636   0.546   3.211  0.1521 -0.1687  0.6933
  103SAPE   H6Y10520   3.709   0.646   3.085  0.5706 -1.1528 -0.9009
  103SAPE   C3710521   3.788   0.663   3.290 -0.4652  0.4031  0.4476
  103SAPE   H7X10522   3.715   0.744   3.311 -2.2592 -1.6922  2.9881
  103SAPE   H7Y10523   3.895   0.692   3.274 -0.1805  0.2699  1.8990
  103SAPE   C3810524   3.782   0.571   3.416 -0.2646 -0.4340 -0.1524
  103SAPE   H8X10525   3.832   0.475   3.391 -0.9963 -0.4456 -1.6457
  103SAPE   H8Y10526   3.684   0.530   3.448 -0.9122 -0.9397 -2.6397
  103SAPE   C3910527   3.877   0.628   3.526 -0.4803  0.0297 -0.6626
  103SAPE   H9X10528   3.829   0.725   3.553 -1.3264 -1.1183  2.2723
  103SAPE   H9Y10529   3.985   0.639   3.503 -0.3864  0.7635  0.0973
  103SAPE  C31010530   3.872   0.534   3.647 -0.1405  0.2780 -0.5911
  103SAPE  H10X10531   3.938   0.446   3.635  1.3185  0.9990  1.6085
  103SAPE  H10Y10532   3.767   0.511   3.676  0.1077  0.4873  0.5221
  103SAPE  C31110533   3.934   0.598   3.770  0.0464 -0.5907 -0.3477
  103SAPE  H11X10534   3.879   0.687   3.807  0.4940 -0.2403 -0.5111
  103SAPE  H11Y10535   4.038   0.632   3.752 -0.1308 -0.4345 -1.1540
  103SAPE  C31210536   3.936   0.496   3.885  0.3534  0.2515 -0.3684
  103SAPE  H12X10537   3.962   0.402   3.833  1.4071 -1.4867  2.9923
  103SAPE  H12Y10538   3.829   0.495   3.917 -0.1971 -0.2280 -2.0952
  103SAPE  C31310539   4.028   0.533   4.005  0.3418 -0.8495 -0.0802
  103SAPE  H13X10540   4.108   0.591   3.954 -1.6653  0.7511 -1.5691
  103SAPE  H13Y10541   4.076   0.439   4.039  1.6251 -0.3175 -0.3355
  103SAPE  C31410542   3.953   0.613   4.112  0.0665  0.5200 -0.5423
  103SAPE  H14X10543   3.882   0.534   4.145  0.1974  0.1640 -1.0982
  103SAPE  H14Y10544   3.885   0.683   4.058  0.6229 -0.3444 -2.4322
  103SAPE  C31510545   4.023   0.684   4.222 -0.3000  0.4909  0.2691
  103SAPE  H15X10546   4.079   0.770   4.181  1.7407 -1.5156 -1.4249
  103SAPE  H15Y10547   4.109   0.618   4.245  0.8880  0.3839 -3.8137
  103SAPE  C31610548   3.935   0.709   4.345 -0.3565 -0.1170  0.8486
  103SAPE  H16X10549   3.858   0.788   4.329 -0.4009  0.1739  2.2888
  103SAPE  H16Y10550   4.006   0.739   4.426  0.5892  1.0054 -0.3539
  103SAPE  C31710551   3.854   0.589   4.410 -0.5621  0.4196  0.2008
  103SAPE  H17X10552   3.919   0.499   4.407 -1.0079  0.1128 -0.8089
  103SAPE  H17Y10553   3.760   0.564   4.355  0.8158 -0.4046 -1.9019
  103SAPE  C31810554   3.817   0.623   4.553  0.4688 -0.1949 -0.9420
  103SAPE  H18X10555   3.738   0.701   4.560 -0.0267 -0.8391  1.4326
  103SAPE  H18Y10556   3.906   0.655   4.611  1.9247 -1.0517 -2.6063
  103SAPE  H18Z10557   3.794   0.530   4.609  3.6230 -1.1250 -1.0142
  104SAPE     N10558   3.353   0.655   2.677  0.4393 -0.0475 -0.0427
  104SAPE   HN110559   3.284   0.590   2.636  1.5741 -0.5079 -1.3233
  104SAPE   HN210560   3.400   0.615   2.761  1.1226  1.9544  0.5842
  104SAPE   HN310561   3.309   0.742   2.713  2.6365  0.5534  1.4621
  104SAPE   C1210562   3.457   0.662   2.571 -0.9480 -0.2171 -0.0061
  104SAPE  H12A10563   3.526   0.744   2.599  2.3380 -2.0190 -2.1857
  104SAPE  H12B10564   3.409   0.702   2.479  1.2590  2.6461 -0.0326
  104SAPE   C1110565   3.539   0.533   2.542 -0.0549 -0.1269  0.6742
  104SAPE  H11A10566   3.474   0.443   2.548 -0.2246  0.0557  1.7468
  104SAPE  H11B10567   3.598   0.526   2.636  0.4185  0.6563  0.4475
  104SAPE     P10568   3.615   0.423   2.316  0.2538 -0.1392  0.4559
  104SAPE   O1310569   3.477   0.368   2.306  0.3319  0.3083 -0.1807
  104SAPE   O1410570   3.667   0.467   2.185 -0.4604 -0.3630  0.7576
  104SAPE   O1210571   3.614   0.546   2.419  0.5373  0.2432  0.6725
  104SAPE   O1110572   3.703   0.321   2.393 -0.0220 -0.1485 -1.0605
  104SAPE    C110573   3.845   0.336   2.403  0.3657  0.3091 -0.0280
  104SAPE    HA10574   3.892   0.316   2.305 -0.1710 -1.2789  0.0109
  104SAPE    HB10575   3.878   0.438   2.432  1.5862  0.2417 -1.0999
  104SAPE    C210576   3.900   0.238   2.519  0.7848 -0.8611  0.3917
  104SAPE    HS10577   3.895   0.135   2.478  0.1439 -1.3482  1.6321
  104SAPE   O2110578   3.819   0.259   2.635  0.4542  0.6391 -0.3046
  104SAPE   C2110579   3.769   0.144   2.689  0.6181  0.0514  0.1813
  104SAPE   O2210580   3.790   0.032   2.651  0.9226  0.9566 -0.5190
  104SAPE   C2210581   3.698   0.182   2.813 -0.2340  0.2548 -0.4154
  104SAPE   H2R10582   3.675   0.290   2.816 -1.8488 -0.0027 -1.7043
  104SAPE   H2S10583   3.604   0.124   2.803  1.3197 -3.3973  3.3966
  104SAPE    C310584   4.049   0.270   2.547 -1.0366 -0.6092 -0.3530
  104SAPE    HX10585   4.061   0.378   2.569 -2.1097 -0.3901 -0.7691
  104SAPE    HY10586   4.106   0.247   2.455  1.0219  0.7241  0.5181
  104SAPE   O3110587   4.089   0.204   2.669 -0.7406  0.1972  0.1014
  104SAPE   C3110588   4.186   0.117   2.661 -0.3509  0.6176 -0.0521
  104SAPE   O3210589   4.249   0.087   2.560  0.1528 -0.8199 -0.3940
  104SAPE   C3210590   4.216   0.056   2.792  0.0460 -0.2920  0.3124
  104SAPE   H2X10591   4.325   0.057   2.814 -0.0819 -0.1412  0.9636
  104SAPE   H2Y10592   4.200  -0.053   2.780  1.7696 -0.4165 -1.1725
  104SAPE   C2310593   3.778   0.124   2.938  0.4678 -0.1862  0.3174
  104SAPE   H3R10594   3.854   0.198   2.970 -0.6150  0.7179  0.8895
  104SAPE   H3S10595   3.838   0.033   2.918  2.5679  0.7971  1.8530
  104SAPE   C2410596   3.683   0.090   3.054  0.1643 -0.2648  0.0825
  104SAPE   H4R10597   3.591   0.047   3.009 -0.7993  1.4600  0.3546
  104SAPE   H4S10598   3.641   0.179   3.104  2.9101  0.5602  1.0877
  104SAPE   C2510599   3.733  -0.008   3.160  0.9192 -0.1818  0.3185
  104SAPE   H5R10600   3.791  -0.090   3.116  1.2112  0.5125 -0.6089
  104SAPE   C2610601   3.703  -0.007   3.294  0.5466 -0.1779 -0.0422
  104SAPE   H6R10602   3.730  -0.097   3.352 -1.9283 -1.2016 -0.3794
  104SAPE   C2710603   3.631   0.100   3.372 -0.1640  0.2301 -0.0377
  104SAPE   H7R10604   3.554   0.046   3.431  1.1259 -0.5147  1.0330
  104SAPE   H7S10605   3.572   0.166   3.306  0.8046  4.3999  2.8677
  104SAPE   C2810606   3.729   0.187   3.444 -0.1030 -0.1704  0.2008
  104SAPE   H8R10607   3.789   0.233   3.365  1.0739  1.9468  2.1992
  104SAPE   C2910608   3.737   0.222   3.576 -0.2922  0.2888 -0.2999
  104SAPE   H9R10609   3.809   0.296   3.613  0.0450 -0.5029  0.6807
  104SAPE  C21010610   3.642   0.172   3.689 -0.5775  0.8985  0.5387
  104SAPE  H10R10611   3.549   0.126   3.650 -0.0316  1.0234 -0.9485
  104SAPE  H10S10612   3.606   0.269   3.731  1.6217  2.3826 -0.8141
  104SAPE  C21110613   3.716   0.089   3.798  0.1318  0.4035  0.3100
  104SAPE  H11R10614   3.725   0.130   3.899  0.5589 -0.8083  0.7899
  104SAPE  C21210615   3.787  -0.029   3.777 -0.4468  0.2826 -0.5412
  104SAPE  H12R10616   3.836  -0.082   3.860 -1.7810  1.8317  1.3286
  104SAPE  C21310617   3.796  -0.102   3.647 -0.3714  0.5756  0.0492
  104SAPE  H13R10618   3.878  -0.056   3.589 -0.2852  1.7346  1.0486
  104SAPE  H13S10619   3.703  -0.086   3.588 -0.5475  2.9337  0.8624
  104SAPE  C21410620   3.818  -0.248   3.660  0.4598  0.6928  0.5077
  104SAPE  H14R10621   3.756  -0.304   3.733 -0.5165  1.2817  0.1563
  104SAPE  C21510622   3.897  -0.328   3.582 -0.5903  0.0085  0.1414
  104SAPE  H15R10623   3.900  -0.438   3.590 -2.2268 -0.2061 -1.6522
  104SAPE  C21610624   3.966  -0.279   3.454 -0.0473 -0.4025  0.4923
  104SAPE  H16R10625   4.074  -0.302   3.470 -0.5474 -1.9756  1.9243
  104SAPE  H16S10626   3.968  -0.171   3.429 -1.7489 -0.8484 -1.8068
  104SAPE  C21710627   3.919  -0.344   3.322  0.7011 -0.4658 -0.2410
  104SAPE  H17R10628   3.810  -0.326   3.318  0.5343 -1.5279 -0.8899
  104SAPE  H17S10629   3.931  -0.454   3.332 -3.0514 -1.0691 -0.9777
  104SAPE  C21810630   3.987  -0.295   3.193  0.8605 -0.0293  0.1360
  104SAPE  H18R10631   4.097  -0.310   3.195  1.0617  1.0612 -1.0349
  104SAPE  H18S10632   3.978  -0.184   3.191 -0.0366 -0.0487  1.6403
  104SAPE  C21910633   3.916  -0.356   3.064 -0.0823  0.4138 -0.6706
  104SAPE  H19R10634   3.810  -0.325   3.057  0.0084  0.7473 -0.5929
  104SAPE  H19S10635   3.929  -0.465   3.083  0.6415  0.8772  1.8480
  104SAPE  C22010636   3.983  -0.315   2.933 -0.2096  0.8874 -0.1944
  104SAPE  H20R10637   4.082  -0.362   2.913 -1.0454 -0.8218 -0.4795
  104SAPE  H20S10638   3.988  -0.205   2.921  0.8582  1.1042  1.7969
  104SAPE  H20T10639   3.930  -0.353   2.843  3.5178  1.0475 -2.6928
  104SAPE   C3310640   4.154   0.132   2.908 -0.0640  0.6050  0.1578
  104SAPE   H3X10641   4.043   0.140   2.907 -0.1924 -0.8991  0.7486
  104SAPE   H3Y10642   4.183   0.239   2.918 -1.2906  0.9299  0.3952
  104SAPE   C3410643   4.201   0.076   3.049 -0.3681  0.3649  0.1522
  104SAPE   H4X10644   4.311   0.081   3.063 -0.1479 -2.9399  0.5247
  104SAPE   H4Y10645   4.177  -0.033   3.050  0.2636  0.2212  0.6314
  104SAPE   C3510646   4.131   0.149   3.167  0.9589  0.0889  0.0287
  104SAPE   H5X10647   4.023   0.126   3.161  1.2538 -1.4541  0.2356
  104SAPE   H5Y10648   4.143   0.259   3.151 -1.9389  0.7214  1.4615
  104SAPE   C3610649   4.184   0.092   3.302  0.3480  0.4697 -0.7412
  104SAPE   H6X10650   4.291   0.121   3.311  0.6090  0.3920 -3.0095
  104SAPE   H6Y10651   4.179  -0.018   3.308 -0.4525  0.5675  1.0311
  104SAPE   C3710652   4.108   0.157   3.429  0.7154  0.1038  0.4183
  104SAPE   H7X10653   4.002   0.125   3.424  0.4292  0.8832  1.2689
  104SAPE   H7Y10654   4.107   0.266   3.406 -0.4516 -0.3313 -1.9516
  104SAPE   C3810655   4.173   0.120   3.567 -0.1712  0.5485  0.7625
  104SAPE   H8X10656   4.282   0.139   3.556 -0.1674 -0.2457 -1.1236
  104SAPE   H8Y10657   4.161   0.010   3.579 -1.0634  0.5261 -0.1821
  104SAPE   C3910658   4.127   0.187   3.691 -0.2973  0.3940 -0.3340
  104SAPE   H9X10659   4.023   0.224   3.679 -0.5670 -0.0493  0.5472
  104SAPE   H9Y10660   4.184   0.282   3.702 -3.1469  2.2006 -0.0234
  104SAPE  C31010661   4.120   0.095   3.807 -0.1440 -0.7961  0.8560
  104SAPE  H10X10662   4.220   0.051   3.827  1.0343  1.7591  0.8582
  104SAPE  H10Y10663   4.046   0.011   3.808  0.2382 -1.1918 -0.7018
  104SAPE  C31110664   4.081   0.172   3.942 -0.0612 -0.8421  0.1903
  104SAPE  H11X10665   3.975   0.203   3.924  0.6216  1.0042 -0.9585
  104SAPE  H11Y10666   4.143   0.264   3.939 -1.1989  0.0038  1.4121
  104SAPE  C31210667   4.093   0.099   4.073 -0.1314  0.5519  0.1313
  104SAPE  H12X10668   4.044  -0.000   4.078  1.9244 -0.8759 -3.7407
  104SAPE  H12Y10669   4.057   0.172   4.149  0.4108  2.8614 -1.7180
  104SAPE  C31310670   4.231   0.060   4.118 -0.7915 -0.6084 -0.2977
  104SAPE  H13X10671   4.295   0.150   4.105 -0.9970 -0.5807 -1.1373
  104SAPE  H13Y10672   4.268  -0.017   4.047 -1.8288  0.8984 -2.5586
  104SAPE  C31410673   4.233  -0.001   4.256 -0.1213  0.5420 -0.7144
  104SAPE  H14X10674   4.335  -0.037   4.280 -1.4355 -0.6091  4.1001
  104SAPE  H14Y10675   4.165  -0.089   4.263  1.8291 -0.8487  2.9224
  104SAPE  C31510676   4.193   0.092   4.368 -0.0847 -1.1401  0.4008
  104SAPE  H15X10677   4.102   0.153   4.352  1.9265  2.0656  0.4267
  104SAPE  H15Y10678   4.271   0.170   4.382 -0.6921  0.0932 -2.3714
  104SAPE  C31610679   4.170   0.032   4.508 -0.2606 -0.7768  0.2644
  104SAPE  H16X10680   4.261  -0.026   4.535 -1.0215 -1.2227  1.9682
  104SAPE  H16Y10681   4.090  -0.044   4.512 -0.1330 -0.9792 -0.7564
  104SAPE  C31710682   4.132   0.144   4.614 -0.2333 -0.1037  0.2976
  104SAPE  H17X10683   4.198   0.232   4.621  0.0001  0.0522 -2.7064
  104SAPE  H17Y10684   4.139   0.085   4.708 -1.0690  0.9630  1.0466
  104SAPE  C31810685   3.994   0.193   4.607  0.5577 -0.2407  0.6193
  104SAPE  H18X10686   3.923   0.108   4.602  0.3388  0.0103 -0.9019
  104SAPE  H18Y10687   3.969   0.253   4.517  0.6265 -1.5144 -0.2701
  104SAPE  H18Z10688   3.964   0.253   4.696  1.2044  0.6056  0.2754
  105SAPE     N10689   1.407   5.181   1.911 -0.3787  0.3369  0.6110
  105SAPE   HN110690   1.497   5.135   1.886 -1.1963 -0.9900  0.0148
  105SAPE   HN210691   1.380   5.146   2.005 -1.9345  0.3686  0.2102
  105SAPE   HN310692   1.336   5.157   1.838  0.3793  1.3725 -0.5222
  105SAPE   C1210693   1.435   5.332   1.928  0.0000 -0.3579 -0.1741
  105SAPE  H12A10694   1.356   5.379   1.990 -1.0433 -0.7272 -1.1874
  105SAPE  H12B10695   1.421   5.388   1.834  0.3443  0.8118  0.4561
  105SAPE   C1110696   1.570   5.358   1.997  0.4603  0.8026 -0.3911
  105SAPE  H11A10697   1.577   5.468   2.003 -0.2515  0.8825 -0.9078
  105SAPE  H11B10698   1.654   5.319   1.935  0.1663  0.4756 -0.5888
  105SAPE     P10699   1.697   5.362   2.215  0.7374 -0.1812  0.0813
  105SAPE   O1310700   1.687   5.303   2.352  0.0410 -0.2817 -0.6095
  105SAPE   O1410701   1.821   5.346   2.139 -0.0563 -0.1133 -0.5636
  105SAPE   O1210702   1.578   5.303   2.134 -0.6032 -0.3984  0.3374
  105SAPE   O1110703   1.663   5.514   2.227 -0.2777 -0.1048 -0.3819
  105SAPE    C110704   1.529   5.551   2.264 -0.5125  0.3088 -0.7137
  105SAPE    HA10705   1.482   5.592   2.172  1.7277  0.3172 -1.9181
  105SAPE    HB10706   1.465   5.466   2.298  1.0662  0.4715  3.2068
  105SAPE    C210707   1.529   5.661   2.373  0.1113 -0.5032 -0.6123
  105SAPE    HS10708   1.561   5.759   2.331  0.4078 -0.0147  0.6961
  105SAPE   O2110709   1.619   5.626   2.473  0.2205  0.4600  0.5904
  105SAPE   C2110710   1.740   5.680   2.482  0.5023  0.1765 -0.7463
  105SAPE   O2210711   1.791   5.761   2.409 -0.1030  0.2146 -0.0661
  105SAPE   C2210712   1.797   5.623   2.614 -0.7232 -0.0065 -0.6269
  105SAPE   H2R10713   1.757   5.521   2.629 -0.0806 -0.2889 -0.8157
  105SAPE   H2S10714   1.903   5.602   2.590 -1.3152 -2.8061 -1.0598
  105SAPE    C310715   1.389   5.692   2.440  0.6761 -0.1531  0.4674
  105SAPE    HX10716   1.329   5.600   2.459  1.1225 -0.7010 -0.6724
  105SAPE    HY10717   1.336   5.740   2.355  3.4464 -0.0593 -1.3171
  105SAPE   O3110718   1.393   5.791   2.552  0.0455 -0.0248  0.0510
  105SAPE   C3110719   1.268   5.832   2.585  0.2922 -0.3546  0.1724
  105SAPE   O3210720   1.169   5.791   2.531  0.4630 -0.5387 -0.3222
  105SAPE   C3210721   1.270   5.928   2.701  0.3034  0.3245 -1.4690
  105SAPE   H2X10722   1.270   6.029   2.654  1.9661  0.7534 -0.6092
  105SAPE   H2Y10723   1.370   5.916   2.747  0.0292 -3.3680 -1.5587
  105SAPE   C2310724   1.781   5.708   2.741  0.0368 -0.3585  0.5963
  105SAPE   H3R10725   1.834   5.806   2.734 -0.9950  0.1727 -0.1411
  105SAPE   H3S10726   1.830   5.651   2.823  1.8438 -0.0191 -0.1895
  105SAPE   C2410727   1.632   5.742   2.781 -0.2127 -0.1252 -0.0003
  105SAPE   H4R10728   1.573   5.786   2.697 -0.5468  0.1616  0.3762
  105SAPE   H4S10729   1.645   5.823   2.855  0.3552  0.2530 -0.5056
  105SAPE   C2510730   1.554   5.626   2.838 -0.5702  0.7698  0.2766
  105SAPE   H5R10731   1.526   5.556   2.758  2.5581 -0.6128  0.2444
  105SAPE   C2610732   1.533   5.587   2.964  0.0091 -0.0980 -0.1627
  105SAPE   H6R10733   1.469   5.499   2.979  0.1651 -0.5515 -1.8843
  105SAPE   C2710734   1.589   5.651   3.085 -0.1815  0.0877  0.2037
  105SAPE   H7R10735   1.556   5.757   3.081 -2.3976 -0.5984 -2.1174
  105SAPE   H7S10736   1.700   5.665   3.082 -0.1021 -0.6185 -0.4640
  105SAPE   C2810737   1.551   5.590   3.221 -0.1924  0.3549  0.4392
  105SAPE   H8R10738   1.512   5.488   3.229 -1.1549  0.7477  0.8633
  105SAPE   C2910739   1.616   5.622   3.333 -0.4600  0.1334 -0.5913
  105SAPE   H9R10740   1.572   5.564   3.416  1.7589  0.9915  1.3209
  105SAPE  C21010741   1.704   5.744   3.362 -0.2228  0.2631 -1.0468
  105SAPE  H10R10742   1.641   5.815   3.420 -0.5684 -0.4491 -0.5374
  105SAPE  H10S10743   1.721   5.793   3.263  1.2898 -0.2358 -1.0495
  105SAPE  C21110744   1.833   5.718   3.432  0.2959 -0.6373  0.0758
  105SAPE  H11R10745   1.916   5.697   3.362  1.2178 -0.1534  0.9939
  105SAPE  C21210746   1.849   5.711   3.566  0.3315  0.5124  0.7396
  105SAPE  H12R10747   1.950   5.687   3.603  0.0057 -0.0152  1.3095
  105SAPE  C21310748   1.745   5.718   3.675 -0.2444 -1.1479  0.6010
  105SAPE  H13R10749   1.671   5.798   3.653  1.1347 -0.5752 -2.4890
  105SAPE  H13S10750   1.780   5.739   3.778  1.8997 -1.5976  0.0080
  105SAPE  C21410751   1.683   5.584   3.698 -0.1762  0.9870 -0.8689
  105SAPE  H14R10752   1.720   5.496   3.644  0.7624  0.6428  0.2995
  105SAPE  C21510753   1.566   5.573   3.765 -0.3083 -0.6984 -0.1562
  105SAPE  H15R10754   1.530   5.470   3.782  0.1280 -0.8581 -0.1882
  105SAPE  C21610755   1.511   5.672   3.856 -0.4404 -0.6448 -0.8413
  105SAPE  H16R10756   1.403   5.652   3.868 -0.2692 -0.2705  1.8660
  105SAPE  H16S10757   1.515   5.776   3.816  0.3755  0.3760  1.7021
  105SAPE  C21710758   1.560   5.684   4.006  0.2382 -0.2731  0.5528
  105SAPE  H17R10759   1.654   5.745   4.004 -2.0507  3.7615 -3.5108
  105SAPE  H17S10760   1.585   5.585   4.049 -1.2034 -0.4656  0.9838
  105SAPE  C21810761   1.458   5.756   4.091 -0.2457 -0.2367 -0.2781
  105SAPE  H18R10762   1.393   5.681   4.142  1.7564 -1.4666  0.5727
  105SAPE  H18S10763   1.401   5.818   4.018  0.2091  0.4445 -0.0599
  105SAPE  C21910764   1.508   5.850   4.198 -0.6046  0.2284 -0.8717
  105SAPE  H19R10765   1.561   5.937   4.153 -0.2260  0.9640  0.9071
  105SAPE  H19S10766   1.590   5.814   4.264  0.3015  0.8485 -1.6342
  105SAPE  C22010767   1.393   5.888   4.295 -0.2274  0.2278 -0.3386
  105SAPE  H20R10768   1.424   5.980   4.349 -1.4557  0.8904 -0.7201
  105SAPE  H20S10769   1.382   5.798   4.359 -0.8018  0.0887 -0.6285
  105SAPE  H20T10770   1.299   5.924   4.248 -0.0835  1.2631  0.1387
  105SAPE   C3310771   1.150   5.897   2.794 -0.5435 -0.6770 -0.0471
  105SAPE   H3X10772   1.132   5.790   2.815 -0.2552 -0.7142  0.0098
  105SAPE   H3Y10773   1.061   5.938   2.741  1.3338  1.9871 -1.3561
  105SAPE   C3410774   1.153   5.971   2.933  0.1493 -0.1067 -0.9004
  105SAPE   H4X10775   1.058   5.943   2.984 -0.2072 -1.6519 -2.3413
  105SAPE   H4Y10776   1.159   6.080   2.911  1.0638 -0.1212 -0.7727
  105SAPE   C3510777   1.278   5.913   3.018  0.4934 -0.0741  0.1602
  105SAPE   H5X10778   1.371   5.946   2.969 -0.0957  1.7193  0.1830
  105SAPE   H5Y10779   1.286   5.803   3.031 -2.1678 -0.7849 -2.9001
  105SAPE   C3610780   1.266   5.969   3.161  0.2497 -0.3576 -0.2551
  105SAPE   H6X10781   1.161   5.944   3.190  0.5578 -1.2892  0.0984
  105SAPE   H6Y10782   1.280   6.079   3.164  1.7149 -0.5287 -0.2945
  105SAPE   C3710783   1.365   5.907   3.256 -0.5321  0.3299 -0.4836
  105SAPE   H7X10784   1.468   5.942   3.232 -0.1558  1.0550  1.9229
  105SAPE   H7Y10785   1.363   5.797   3.248  1.7453  0.3126 -1.4014
  105SAPE   C3810786   1.334   5.936   3.400  0.0670 -0.1232 -0.2695
  105SAPE   H8X10787   1.378   5.866   3.475  0.4585  1.3674  0.9287
  105SAPE   H8Y10788   1.225   5.929   3.419  0.1461  2.6495  1.8589
  105SAPE   C3910789   1.374   6.075   3.437  0.7903 -1.1671 -0.3172
  105SAPE   H9X10790   1.302   6.148   3.394 -1.1055 -0.4393  3.7054
  105SAPE   H9Y10791   1.483   6.086   3.414  0.9200 -1.0748  0.3435
  105SAPE  C31010792   1.345   6.088   3.593 -0.5166 -0.7017  0.6138
  105SAPE  H10X10793   1.253   6.038   3.633  0.0082 -1.9355  0.3433
  105SAPE  H10Y10794   1.330   6.196   3.612 -0.4352 -0.0576 -2.5029
  105SAPE  C31110795   1.462   6.035   3.675  0.1538 -1.6021  0.2226
  105SAPE  H11X10796   1.554   6.092   3.650  0.4021 -2.7550 -1.6832
  105SAPE  H11Y10797   1.490   5.934   3.639  0.9787 -0.9900 -0.9164
  105SAPE  C31210798   1.432   6.057   3.825 -0.1626  0.2345 -1.1500
  105SAPE  H12X10799   1.528   6.024   3.871  1.5918 -1.8048 -5.6746
  105SAPE  H12Y10800   1.352   5.983   3.843 -1.6551  1.5820 -1.9693
  105SAPE  C31310801   1.407   6.197   3.860  0.0922 -0.4428 -0.0532
  105SAPE  H13X10802   1.299   6.222   3.865 -0.0318 -1.1392  1.7079
  105SAPE  H13Y10803   1.468   6.272   3.806 -1.3051  1.7513  1.2222
  105SAPE  C31410804   1.440   6.223   4.013 -0.2318 -0.6662  1.4178
  105SAPE  H14X10805   1.528   6.163   4.042 -0.2562 -0.5398  1.7500
  105SAPE  H14Y10806   1.351   6.177   4.062 -0.2042 -1.2325  0.9602
  105SAPE  C31510807   1.463   6.371   4.058  0.3705  0.8678  0.2509
  105SAPE  H15X10808   1.369   6.424   4.035  0.0583 -0.1419 -0.9134
  105SAPE  H15Y10809   1.545   6.407   3.992  0.8948  1.5668  1.2672
  105SAPE  C31610810   1.504   6.398   4.201 -0.3859  0.3615 -1.0621
  105SAPE  H16X10811   1.527   6.502   4.235 -0.0025 -0.4915  1.4677
  105SAPE  H16Y10812   1.598   6.340   4.210  0.1798  1.3782 -0.1214
  105SAPE  C31710813   1.410   6.346   4.310  0.6718  0.1969 -0.3562
  105SAPE  H17X10814   1.356   6.254   4.278 -0.2166 -0.7981  3.4720
  105SAPE  H17Y10815   1.331   6.420   4.334  0.5285 -0.1829  0.3856
  105SAPE  C31810816   1.474   6.311   4.438 -0.3761 -0.3550 -0.3274
  105SAPE  H18X10817   1.400   6.311   4.522 -1.0212  1.4440 -0.8335
  105SAPE  H18Y10818   1.544   6.389   4.474 -0.9686 -0.4852  1.1900
  105SAPE  H18Z10819   1.524   6.212   4.434  0.6395  0.1098  0.4308
  106SAPE     N10820   0.769   2.838   2.610 -0.1910  0.8108 -0.1411
  106SAPE   HN110821   0.827   2.834   2.697  1.2723  6.3292 -0.4896
  106SAPE   HN210822   0.827   2.813   2.527  0.1141  0.5499  0.1448
  106SAPE   HN310823   0.730   2.934   2.604 -1.7922  0.2297  0.3503
  106SAPE   C1210824   0.656   2.743   2.621 -0.6620  0.0900 -0.0308
  106SAPE  H12A10825   0.591   2.780   2.704 -1.5794  1.8204 -1.4615
  106SAPE  H12B10826   0.703   2.645   2.646  1.1346  0.5335 -1.4594
  106SAPE   C1110827   0.581   2.735   2.486 -0.1457 -0.0531  0.5327
  106SAPE  H11A10828   0.538   2.837   2.473 -1.0965 -0.3855  0.9387
  106SAPE  H11B10829   0.498   2.661   2.488 -1.2059  1.0471 -1.0320
  106SAPE     P10830   0.714   2.579   2.336 -0.0596 -0.2102  0.0938
  106SAPE   O1310831   0.595   2.517   2.279  0.2613  0.7175 -0.0434
  106SAPE   O1410832   0.828   2.578   2.243  0.1738  0.7615 -0.2046
  106SAPE   O1210833   0.677   2.722   2.378 -0.0737 -0.2760 -0.3675
  106SAPE   O1110834   0.753   2.512   2.472 -0.5335 -0.2509  0.4873
  106SAPE    C110835   0.699   2.381   2.500 -0.4546 -0.1496 -0.8267
  106SAPE    HA10836   0.588   2.389   2.500 -0.4361  0.1735 -1.3622
  106SAPE    HB10837   0.735   2.303   2.429 -0.0515 -0.8409  0.1057
  106SAPE    C210838   0.762   2.331   2.633  0.3283  0.1359  0.0953
  106SAPE    HS10839   0.742   2.222   2.644 -0.3094  0.1646 -0.7097
  106SAPE   O2110840   0.713   2.413   2.742 -0.2869  0.3342  0.0766
  106SAPE   C2110841   0.614   2.370   2.811 -0.2962 -0.0841  0.0052
  106SAPE   O2210842   0.555   2.263   2.790 -0.5247 -0.1156  0.1738
  106SAPE   C2210843   0.581   2.472   2.922  0.2948  0.7529 -0.3724
  106SAPE   H2R10844   0.670   2.530   2.951  1.2967 -0.5996 -0.6449
  106SAPE   H2S10845   0.519   2.547   2.868 -0.5213  0.4756  0.1595
  106SAPE    C310846   0.910   2.338   2.619  0.0894 -0.4570 -0.4091
  106SAPE    HX10847   0.942   2.440   2.591 -0.2652  0.1211  1.1547
  106SAPE    HY10848   0.945   2.264   2.544 -0.5122 -0.0366 -1.1154
  106SAPE   O3110849   0.971   2.292   2.739 -0.4133 -0.3061 -0.6481
  106SAPE   C3110850   1.037   2.382   2.818 -0.4385 -0.2055  0.3914
  106SAPE   O3210851   1.070   2.494   2.779  0.3929 -0.1068  0.2924
  106SAPE   C3210852   1.063   2.323   2.954 -0.2456  0.2516 -0.1274
  106SAPE   H2X10853   1.168   2.287   2.957 -0.2741 -0.3421 -3.0308
  106SAPE   H2Y10854   1.015   2.222   2.955  0.7328 -0.2271  1.3992
  106SAPE   C2310855   0.506   2.410   3.042 -0.3640 -0.1957  0.6579
  106SAPE   H3R10856   0.419   2.344   3.019 -1.5147  0.6895  2.2466
  106SAPE   H3S10857   0.458   2.502   3.082 -2.5828 -1.1831  0.4544
  106SAPE   C2410858   0.602   2.353   3.154  0.2486  0.4350 -0.3091
  106SAPE   H4R10859   0.647   2.437   3.211 -1.0873  1.1013 -0.1844
  106SAPE   H4S10860   0.685   2.288   3.118  1.0766  0.6295  1.2033
  106SAPE   C2510861   0.515   2.279   3.252  0.2463 -0.1249  0.0854
  106SAPE   H5R10862   0.491   2.178   3.218 -2.5305  0.3109  0.5672
  106SAPE   C2610863   0.463   2.322   3.371 -0.3308 -0.0647 -0.2235
  106SAPE   H6R10864   0.405   2.257   3.438 -0.0809  2.5606  2.7392
  106SAPE   C2710865   0.506   2.456   3.428 -0.6832 -0.2390 -0.3406
  106SAPE   H7R10866   0.423   2.503   3.484  2.5227  5.0222  0.6600
  106SAPE   H7S10867   0.522   2.518   3.338 -1.8435 -2.0285 -1.8530
  106SAPE   C2810868   0.626   2.446   3.521  0.2625 -1.0274  0.5836
  106SAPE   H8R10869   0.720   2.445   3.463 -1.1260  5.4313 -2.7408
  106SAPE   C2910870   0.622   2.452   3.651 -0.0792  0.1238 -0.4177
  106SAPE   H9R10871   0.711   2.457   3.714 -1.2148  1.0310  1.1931
  106SAPE  C21010872   0.494   2.476   3.739  0.7201 -0.6861 -0.2565
  106SAPE  H10R10873   0.402   2.473   3.677  0.8402  0.2045 -0.4933
  106SAPE  H10S10874   0.500   2.581   3.776 -1.5310 -0.4195 -0.4821
  106SAPE  C21110875   0.477   2.402   3.859  0.5399  0.7393 -1.1112
  106SAPE  H11R10876   0.535   2.309   3.861 -0.1691  0.3018 -0.1961
  106SAPE  C21210877   0.383   2.407   3.951  0.1968  0.4269 -0.4641
  106SAPE  H12R10878   0.384   2.353   4.047  0.0058  2.4998  0.7604
  106SAPE  C21310879   0.272   2.515   3.958 -0.1214  0.3406 -0.3356
  106SAPE  H13R10880   0.259   2.567   3.861  0.6472  1.6356  0.2283
  106SAPE  H13S10881   0.300   2.593   4.032  0.2095  0.5605 -0.6897
  106SAPE  C21410882   0.142   2.442   3.990 -0.0023  0.1508 -0.0674
  106SAPE  H14R10883   0.101   2.387   3.903  0.1169 -0.3387  0.1821
  106SAPE  C21510884   0.075   2.458   4.104 -0.1831  0.8883 -0.2577
  106SAPE  H15R10885  -0.031   2.430   4.090 -0.2467  1.3953 -0.8599
  106SAPE  C21610886   0.109   2.548   4.226 -0.1574  0.7619  0.5989
  106SAPE  H16R10887   0.138   2.647   4.186 -2.7122  2.1900  2.0548
  106SAPE  H16S10888   0.187   2.514   4.298  0.0007  0.8777  0.4848
  106SAPE  C21710889  -0.013   2.562   4.315  0.3009  0.2362  0.0396
  106SAPE  H17R10890  -0.010   2.473   4.382  0.5914 -0.3002 -0.6658
  106SAPE  H17S10891  -0.103   2.567   4.251  0.5465 -0.2708 -0.3542
  106SAPE  C21810892  -0.003   2.682   4.409  0.0171 -0.2610 -0.0492
  106SAPE  H18R10893  -0.014   2.781   4.360 -0.1396 -0.8500 -1.2422
  106SAPE  H18S10894   0.097   2.693   4.455  0.1486  1.5583 -0.6778
  106SAPE  C21910895  -0.111   2.685   4.522  0.4878 -0.2209 -1.1671
  106SAPE  H19R10896  -0.098   2.598   4.590  0.7428  0.5584 -0.1873
  106SAPE  H19S10897  -0.210   2.661   4.479 -1.0653  0.6827  1.7162
  106SAPE  C22010898  -0.111   2.819   4.600  1.1159 -0.0126  0.7835
  106SAPE  H20R10899  -0.014   2.846   4.646  1.1493 -1.3314  1.5589
  106SAPE  H20S10900  -0.190   2.818   4.679 -0.8965  0.5028 -1.1137
  106SAPE  H20T10901  -0.135   2.895   4.523  0.7489 -0.1074  0.8030
  106SAPE   C3310902   1.013   2.413   3.064  0.4728  0.3622  0.6394
  106SAPE   H3X10903   0.915   2.456   3.035  1.2217  1.1994 -0.7396
  106SAPE   H3Y10904   1.076   2.503   3.079 -0.0635  0.9276 -0.3376
  106SAPE   C3410905   1.004   2.349   3.204 -0.2788 -0.1600 -0.2259
  106SAPE   H4X10906   0.952   2.251   3.200  0.6039 -0.6875  0.7491
  106SAPE   H4Y10907   0.951   2.423   3.267 -1.7425 -0.5479 -0.9692
  106SAPE   C3510908   1.141   2.324   3.271 -0.0348  0.2147  0.2457
  106SAPE   H5X10909   1.191   2.422   3.283 -0.3349  1.0125 -3.5797
  106SAPE   H5Y10910   1.205   2.268   3.200  1.4206 -0.2232  1.8414
  106SAPE   C3610911   1.131   2.237   3.396 -0.6165 -0.8905  0.7744
  106SAPE   H6X10912   1.236   2.232   3.433 -0.6970 -0.3205  1.0990
  106SAPE   H6Y10913   1.102   2.133   3.372 -1.1055 -1.1595  2.3835
  106SAPE   C3710914   1.037   2.290   3.504  0.2657  0.0266  0.3270
  106SAPE   H7X10915   0.931   2.263   3.487 -0.3183  2.4633 -0.2755
  106SAPE   H7Y10916   1.044   2.400   3.487  0.3688 -0.2336 -1.5688
  106SAPE   C3810917   1.081   2.273   3.642 -0.2640 -0.6075  0.3808
  106SAPE   H8X10918   1.185   2.310   3.656 -1.3291  2.6218  0.7348
  106SAPE   H8Y10919   1.062   2.166   3.665 -0.9892 -0.5591  0.0081
  106SAPE   C3910920   0.995   2.352   3.748  0.3565  0.5824 -0.0579
  106SAPE   H9X10921   0.892   2.328   3.715 -1.0465 -1.9574  5.0834
  106SAPE   H9Y10922   0.996   2.463   3.745  1.5325  0.5642 -0.6758
  106SAPE  C31010923   1.011   2.295   3.890 -0.1045  0.3925  0.2857
  106SAPE  H10X10924   1.004   2.185   3.880  2.1170 -0.0371  2.5461
  106SAPE  H10Y10925   0.927   2.332   3.954  1.2033  1.2534  1.5674
  106SAPE  C31110926   1.147   2.335   3.952 -0.2865  0.3429 -0.2186
  106SAPE  H11X10927   1.211   2.375   3.871 -0.2279  1.2781  0.2725
  106SAPE  H11Y10928   1.205   2.250   3.995  1.0929  1.8009  0.9683
  106SAPE  C31210929   1.149   2.441   4.066 -0.2514  0.0355 -0.0818
  106SAPE  H12X10930   1.102   2.534   4.027  0.7148  0.2303 -0.8366
  106SAPE  H12Y10931   1.257   2.457   4.088  0.0090 -1.9518  0.2628
  106SAPE  C31310932   1.077   2.404   4.199 -1.2323  0.2505  0.2339
  106SAPE  H13X10933   0.975   2.370   4.169 -0.8507  0.2471 -1.1004
  106SAPE  H13Y10934   1.072   2.492   4.266  1.1287  0.8391 -0.2725
  106SAPE  C31410935   1.142   2.287   4.272  0.1851 -0.3610 -0.7593
  106SAPE  H14X10936   1.192   2.216   4.202  0.5373  0.3662 -1.2558
  106SAPE  H14Y10937   1.059   2.234   4.322 -1.1041  0.5956 -1.8181
  106SAPE  C31510938   1.264   2.318   4.366 -0.0879 -0.1560  0.0293
  106SAPE  H15X10939   1.332   2.394   4.322  0.3245  0.1830  1.2037
  106SAPE  H15Y10940   1.328   2.231   4.391 -0.9878 -0.3957  1.6754
  106SAPE  C31610941   1.214   2.374   4.502 -0.0239  0.5433  0.2258
  106SAPE  H16X10942   1.154   2.293   4.547 -0.0475  2.1670  3.3733
  106SAPE  H16Y10943   1.144   2.459   4.489 -0.4815  0.6177  2.6890
  106SAPE  C31710944   1.319   2.400   4.607 -0.3778  0.0266 -0.7967
  106SAPE  H17X10945   1.391   2.483   4.586 -0.1468 -0.6185 -2.6746
  106SAPE  H17Y10946   1.387   2.313   4.613 -1.5566 -0.8346  2.2251
  106SAPE  C31810947   1.253   2.430   4.737  0.1041 -0.6024  0.0308
  106SAPE  H18X10948   1.205   2.529   4.719  1.7782  0.2502  0.0634
  106SAPE  H18Y10949   1.322   2.443   4.823  0.4281 -0.5080 -0.2421
  106SAPE  H18Z10950   1.168   2.359   4.743  0.7820 -1.5566 -1.3916
  107SAPE     N10951   3.624   5.113   2.089  0.4142  0.5342 -0.5066
  107SAPE   HN110952   3.541   5.143   2.143 -1.4885  0.5147 -3.2357
  107SAPE   HN210953   3.675   5.202   2.072  0.8309  0.3756 -0.1183
  107SAPE   HN310954   3.577   5.068   2.008  0.6900  1.8634 -1.4353
  107SAPE   C1210955   3.710   5.010   2.167 -0.4912  0.0433 -0.3257
  107SAPE  H12A10956   3.803   5.000   2.107  0.0781  0.4087  0.4695
  107SAPE  H12B10957   3.656   4.913   2.165  2.1767 -1.6098 -4.0911
  107SAPE   C1110958   3.732   5.053   2.310 -0.6086  0.3237  0.1661
  107SAPE  H11A10959   3.789   4.973   2.364 -0.0788  0.2912 -0.4252
  107SAPE  H11B10960   3.631   5.058   2.355 -1.0646 -1.6249 -0.5149
  107SAPE     P10961   3.955   5.182   2.290 -0.1471 -0.2833  0.2889
  107SAPE   O1310962   4.011   5.051   2.325  0.4109  0.2254  0.0622
  107SAPE   O1410963   3.992   5.227   2.154 -0.0425 -0.2408 -0.6296
  107SAPE   O1210964   3.800   5.179   2.311  0.0152 -0.1558  0.0086
  107SAPE   O1110965   4.010   5.296   2.384  0.0120 -0.3067 -0.1541
  107SAPE    C110966   4.138   5.294   2.452 -0.6186 -0.8600  0.4050
  107SAPE    HA10967   4.224   5.239   2.408  1.1052  1.0076  1.2978
  107SAPE    HB10968   4.161   5.399   2.480 -3.7690  0.3740 -1.0986
  107SAPE    C210969   4.130   5.229   2.594  0.4730 -0.4529 -0.0341
  107SAPE    HS10970   4.116   5.118   2.589  1.2196 -0.5809  0.5825
  107SAPE   O2110971   4.020   5.291   2.663  0.2124  0.0299  0.2128
  107SAPE   C2110972   3.906   5.232   2.671 -0.1690 -0.1484  0.8744
  107SAPE   O2210973   3.868   5.140   2.598 -0.0868  0.4532  0.7985
  107SAPE   C2210974   3.820   5.305   2.771 -0.2815 -0.1558 -0.1046
  107SAPE   H2R10975   3.870   5.397   2.809 -2.7772  1.5621 -0.7262
  107SAPE   H2S10976   3.732   5.338   2.712  0.4999  1.0822 -0.6176
  107SAPE    C310977   4.260   5.247   2.677 -0.0335 -0.5406  0.1719
  107SAPE    HX10978   4.277   5.356   2.686  0.7565 -0.4775 -1.5808
  107SAPE    HY10979   4.334   5.186   2.621  0.7175 -2.5178  3.1102
  107SAPE   O3110980   4.245   5.187   2.806 -0.5725  0.5703  0.2035
  107SAPE   C3110981   4.337   5.225   2.888 -0.2660  0.1827  0.0844
  107SAPE   O3210982   4.455   5.247   2.865 -0.4938  0.2209 -0.5701
  107SAPE   C3210983   4.281   5.203   3.026  0.1490  0.0384 -0.0159
  107SAPE   H2X10984   4.286   5.097   3.059 -0.8005 -1.0137 -2.9485
  107SAPE   H2Y10985   4.171   5.213   3.016  0.1033 -0.9175 -0.5190
  107SAPE   C2310986   3.774   5.209   2.885 -0.0935  0.0784 -0.1614
  107SAPE   H3R10987   3.723   5.120   2.844  0.4168 -0.6212  0.6972
  107SAPE   H3S10988   3.693   5.265   2.936  1.7546  1.0933  1.8534
  107SAPE   C2410989   3.891   5.183   2.987  0.0798  0.0934 -0.1109
  107SAPE   H4R10990   3.926   5.279   3.032  0.3977  0.5880 -1.3634
  107SAPE   H4S10991   3.985   5.146   2.940  0.5260  1.2284 -0.1465
  107SAPE   C2510992   3.855   5.083   3.084  0.4109  1.1253 -0.5463
  107SAPE   H5R10993   3.867   4.983   3.039  0.0325  1.0785 -0.5433
  107SAPE   C2610994   3.817   5.089   3.210 -0.2905  0.1122 -0.3008
  107SAPE   H6R10995   3.790   5.001   3.270  0.0894  1.1536  1.4778
  107SAPE   C2710996   3.806   5.219   3.285  0.7667  0.4618 -0.6691
  107SAPE   H7R10997   3.849   5.307   3.232  1.6178  0.1221 -0.5621
  107SAPE   H7S10998   3.871   5.210   3.375  0.1460  0.0831 -0.2505
  107SAPE   C2810999   3.666   5.252   3.316 -0.5796 -0.1424 -0.1708
  107SAPE   H8R11000   3.619   5.288   3.223  0.4509 -0.1277 -0.6993
  107SAPE   C2911001   3.590   5.222   3.418  0.2594 -0.2143 -0.2201
  107SAPE   H9R11002   3.482   5.239   3.409 -0.1683 -3.1537 -1.6704
  107SAPE  C21011003   3.628   5.165   3.550 -0.1734 -0.2784  0.3471
  107SAPE  H10R11004   3.573   5.224   3.626 -1.7043 -1.2040  0.0013
  107SAPE  H10S11005   3.739   5.169   3.561  0.2776 -4.2356 -1.2196
  107SAPE  C21111006   3.609   5.019   3.576  0.5535  0.3807 -0.2348
  107SAPE  H11R11007   3.615   4.954   3.488  0.6790  0.3242 -0.1839
  107SAPE  C21211008   3.571   4.968   3.696 -0.7846  0.1275 -0.2259
  107SAPE  H12R11009   3.538   4.864   3.712 -1.5977  0.7501  2.5198
  107SAPE  C21311010   3.563   5.053   3.821  0.6863 -0.1832  0.2460
  107SAPE  H13R11011   3.467   5.107   3.836  0.6543 -0.0774 -0.3355
  107SAPE  H13S11012   3.622   5.146   3.815  0.7650 -0.3103 -1.0937
  107SAPE  C21411013   3.614   4.970   3.940  0.0557 -0.5640  0.1010
  107SAPE  H14R11014   3.713   4.923   3.928  0.8666  1.6270 -2.8563
  107SAPE  C21511015   3.554   4.958   4.059 -0.4137 -0.5517  0.2069
  107SAPE  H15R11016   3.604   4.899   4.137 -0.6879  0.2147  0.9692
  107SAPE  C21611017   3.430   5.038   4.092  0.1480 -0.4348  0.0239
  107SAPE  H16R11018   3.360   5.008   4.011 -1.8444  0.5132  1.3409
  107SAPE  H16S11019   3.450   5.147   4.084 -1.9317  0.0968  1.4592
  107SAPE  C21711020   3.381   5.014   4.234  0.0339  0.3248  0.2614
  107SAPE  H17R11021   3.459   5.033   4.311  0.6848 -0.3915 -0.2138
  107SAPE  H17S11022   3.350   4.909   4.253 -2.8863  0.7482 -1.5354
  107SAPE  C21811023   3.254   5.099   4.263  0.0433 -0.1863 -0.3111
  107SAPE  H18R11024   3.170   5.087   4.191  0.4830  0.7699 -1.0084
  107SAPE  H18S11025   3.276   5.207   4.250 -0.1399 -0.0345  0.5646
  107SAPE  C21911026   3.206   5.085   4.410 -0.6144  0.1028 -0.1094
  107SAPE  H19R11027   3.297   5.093   4.474 -0.9001  0.5482  0.2402
  107SAPE  H19S11028   3.181   4.978   4.432  0.9552  0.1653  2.3358
  107SAPE  C22011029   3.094   5.177   4.449 -0.1012  0.4384  0.3006
  107SAPE  H20R11030   3.067   5.167   4.557  0.1235  0.9999  0.4119
  107SAPE  H20S11031   3.017   5.153   4.373  0.4547  1.4278 -0.6034
  107SAPE  H20T11032   3.126   5.283   4.438  0.5671  0.2073  0.0172
  107SAPE   C3311033   4.348   5.299   3.116  0.0139 -0.9534 -0.0128
  107SAPE   H3X11034   4.320   5.401   3.082 -0.8116  0.2449  3.7859
  107SAPE   H3Y11035   4.458   5.289   3.121  0.1411  0.2139 -0.2943
  107SAPE   C3411036   4.290   5.296   3.259 -0.3097  0.1423 -1.1438
  107SAPE   H4X11037   4.287   5.187   3.277 -1.9016  0.2028 -0.8797
  107SAPE   H4Y11038   4.182   5.324   3.255  0.0238  2.0214  0.8122
  107SAPE   C3511039   4.372   5.376   3.362  0.2115 -0.3304 -0.3391
  107SAPE   H5X11040   4.378   5.478   3.319  0.4735 -0.7166 -1.2308
  107SAPE   H5Y11041   4.477   5.342   3.352 -0.3141 -1.5506 -1.9886
  107SAPE   C3611042   4.321   5.368   3.506  0.0542  0.0125  0.2856
  107SAPE   H6X11043   4.308   5.263   3.540  2.7436 -0.0601  1.3310
  107SAPE   H6Y11044   4.227   5.427   3.508 -1.4391 -2.1937 -0.5161
  107SAPE   C3711045   4.425   5.434   3.603  0.1488  0.0052 -0.1070
  107SAPE   H7X11046   4.442   5.535   3.560  1.2610 -0.5595 -1.0824
  107SAPE   H7Y11047   4.523   5.381   3.595 -0.8282 -2.1069  1.0801
  107SAPE   C3811048   4.373   5.439   3.746 -0.0840  0.0118  1.0366
  107SAPE   H8X11049   4.265   5.465   3.747  0.2632  1.6459  0.0463
  107SAPE   H8Y11050   4.421   5.514   3.812 -1.3506 -0.1272  2.1495
  107SAPE   C3911051   4.395   5.307   3.819  0.2465  0.1209  0.7285
  107SAPE   H9X11052   4.496   5.267   3.796  0.5675  1.5837 -0.5657
  107SAPE   H9Y11053   4.321   5.239   3.772 -0.0381  0.4224  0.7362
  107SAPE  C31011054   4.384   5.326   3.968 -0.1300  0.1176  0.1748
  107SAPE  H10X11055   4.368   5.231   4.024 -0.5029  0.6362  0.9575
  107SAPE  H10Y11056   4.294   5.386   3.993 -0.4457 -0.7718  1.2456
  107SAPE  C31111057   4.519   5.386   4.016 -0.2041 -0.1823 -0.0860
  107SAPE  H11X11058   4.546   5.485   3.974 -0.6349 -0.6184 -1.4198
  107SAPE  H11Y11059   4.599   5.309   4.006 -1.1773 -1.1436 -0.6191
  107SAPE  C31211060   4.510   5.418   4.167 -0.2202  0.0097 -0.2454
  107SAPE  H12X11061   4.409   5.460   4.188 -0.9653 -2.8271  2.5684
  107SAPE  H12Y11062   4.585   5.497   4.189  0.0648  0.1763 -1.7313
  107SAPE  C31311063   4.518   5.298   4.260 -0.2986 -0.0843  0.1580
  107SAPE  H13X11064   4.610   5.245   4.225  0.5316 -0.3471  2.5396
  107SAPE  H13Y11065   4.430   5.231   4.252  0.3561 -1.2331  1.9719
  107SAPE  C31411066   4.534   5.327   4.409  0.0069 -0.3354 -0.8795
  107SAPE  H14X11067   4.451   5.394   4.440 -1.7778 -2.9527  0.3629
  107SAPE  H14Y11068   4.636   5.365   4.433 -0.1359 -0.6396  0.2381
  107SAPE  C31511069   4.510   5.193   4.491 -0.2113  0.1579 -0.2887
  107SAPE  H15X11070   4.597   5.128   4.466  2.3023  1.4834  3.9547
  107SAPE  H15Y11071   4.418   5.149   4.448  0.0338  0.4502 -1.1385
  107SAPE  C31611072   4.504   5.208   4.641 -0.2135  0.3195  0.0056
  107SAPE  H16X11073   4.488   5.117   4.703 -0.5064  0.4919  0.1813
  107SAPE  H16Y11074   4.413   5.260   4.678 -0.4852 -0.7977  0.9661
  107SAPE  C31711075   4.631   5.270   4.698  0.1678  0.4068 -0.0238
  107SAPE  H17X11076   4.626   5.375   4.664 -0.6736  0.1755 -0.6338
  107SAPE  H17Y11077   4.715   5.215   4.651 -1.5939 -2.8036  0.2802
  107SAPE  C31811078   4.638   5.248   4.859 -0.0578  0.0249  0.3614
  107SAPE  H18X11079   4.626   5.137   4.863 -1.4627  0.0026 -2.2190
  107SAPE  H18Y11080   4.548   5.301   4.896 -0.8424 -0.4906 -0.7590
  107SAPE  H18Z11081   4.733   5.288   4.899  0.2686 -1.4765  1.1769
  108SAPE     N11082   2.355   0.012   1.818 -0.1486 -0.1659 -0.2588
  108SAPE   HN111083   2.370   0.112   1.795  0.8330  0.0578  1.2262
  108SAPE   HN211084   2.354  -0.041   1.728  0.3861  1.7858 -1.4938
  108SAPE   HN311085   2.266  -0.005   1.869  1.7987 -3.0179  2.5165
  108SAPE   C1211086   2.479  -0.020   1.904 -0.2529  0.3776  0.5192
  108SAPE  H12A11087   2.573   0.012   1.852  0.9528  0.2775  2.5340
  108SAPE  H12B11088   2.474  -0.127   1.930 -0.4842  0.4485  0.7644
  108SAPE   C1111089   2.470   0.047   2.040  0.5487 -0.9633  0.2470
  108SAPE  H11A11090   2.440   0.153   2.026  0.4905 -1.0682 -0.4438
  108SAPE  H11B11091   2.569   0.058   2.089 -0.0924  1.5970  1.1717
  108SAPE     P11092   2.283   0.061   2.220  0.1357  0.0332 -0.2093
  108SAPE   O1311093   2.209   0.165   2.138  0.3451  0.5802 -0.3302
  108SAPE   O1411094   2.191  -0.034   2.297  0.3297  0.0081  0.1464
  108SAPE   O1211095   2.384  -0.025   2.132 -0.3699 -0.4575  0.4628
  108SAPE   O1111096   2.383   0.132   2.322  0.5286  0.3827 -0.0364
  108SAPE    C111097   2.493   0.059   2.375 -0.2654 -0.0596  0.1776
  108SAPE    HA11098   2.567   0.033   2.296  0.5071 -2.0383  1.4540
  108SAPE    HB11099   2.541   0.132   2.443 -2.9985  0.5855  1.5334
  108SAPE    C211100   2.464  -0.059   2.472 -0.3970 -0.1972  0.2380
  108SAPE    HS11101   2.434  -0.150   2.417  1.6356 -0.5172 -0.4359
  108SAPE   O2111102   2.362  -0.019   2.562 -0.8187 -0.1763 -0.2263
  108SAPE   C2111103   2.287  -0.114   2.617 -0.0828 -0.4088  0.7532
  108SAPE   O2211104   2.291  -0.231   2.591  0.4675 -0.6246  0.1216
  108SAPE   C2211105   2.203  -0.052   2.737 -0.0022 -0.0296  0.6154
  108SAPE   H2R11106   2.280  -0.008   2.804 -0.2913  1.4721  0.0108
  108SAPE   H2S11107   2.141   0.034   2.704  0.5893 -0.1824 -0.9934
  108SAPE    C311108   2.587  -0.103   2.553  0.3555 -0.2075  0.2320
  108SAPE    HX11109   2.628  -0.015   2.608 -2.5920  1.6525 -0.3405
  108SAPE    HY11110   2.660  -0.117   2.471 -0.2892  0.6606 -0.5123
  108SAPE   O3111111   2.569  -0.235   2.628  0.4003 -0.3788 -0.1918
  108SAPE   C3111112   2.569  -0.228   2.761 -0.4436  0.3499  0.0953
  108SAPE   O3211113   2.580  -0.129   2.831  0.1436  0.2684 -0.3090
  108SAPE   C3211114   2.545  -0.374   2.814  0.8774  0.2985  0.8745
  108SAPE   H2X11115   2.617  -0.447   2.771 -0.2305  0.2588 -1.0610
  108SAPE   H2Y11116   2.444  -0.396   2.773  0.4123  0.4153  1.9305
  108SAPE   C2311117   2.127  -0.162   2.813  0.2038 -0.6495  0.1805
  108SAPE   H3R11118   2.195  -0.242   2.848 -0.6155 -0.8885  1.2606
  108SAPE   H3S11119   2.058  -0.206   2.737  0.1308  1.5992 -1.1510
  108SAPE   C2411120   2.045  -0.108   2.928 -0.9714 -0.1777 -0.0515
  108SAPE   H4R11121   1.970  -0.184   2.960 -0.8582 -1.6091 -2.8176
  108SAPE   H4S11122   1.983  -0.029   2.882  2.5134  2.1173 -1.2609
  108SAPE   C2511123   2.131  -0.054   3.042  0.8264  0.9056 -0.4672
  108SAPE   H5R11124   2.211   0.018   3.016 -0.4395  2.6089  0.1426
  108SAPE   C2611125   2.108  -0.071   3.174 -0.2960 -0.5636 -0.3858
  108SAPE   H6R11126   2.182  -0.037   3.246 -1.0165 -2.2224  1.2305
  108SAPE   C2711127   2.011  -0.155   3.246 -0.4412 -0.4750 -0.3330
  108SAPE   H7R11128   2.063  -0.227   3.312 -2.5893 -0.8964  0.9893
  108SAPE   H7S11129   1.959  -0.224   3.176  0.6659 -1.6227 -0.0484
  108SAPE   C2811130   1.906  -0.066   3.320 -0.1817 -0.0990 -0.5899
  108SAPE   H8R11131   1.844  -0.002   3.256  0.8021  1.4064 -0.0849
  108SAPE   C2911132   1.897  -0.043   3.449 -0.5167 -0.5778 -0.2744
  108SAPE   H9R11133   1.820   0.025   3.489 -0.0118 -1.1989  1.9131
  108SAPE  C21011134   1.980  -0.098   3.562  0.0711 -0.2739  0.7284
  108SAPE  H10R11135   2.055  -0.023   3.593  0.5717 -0.0339 -0.9775
  108SAPE  H10S11136   2.035  -0.188   3.526 -1.4790 -0.5408 -1.1706
  108SAPE  C21111137   1.903  -0.161   3.674 -0.1683  0.2484  1.2118
  108SAPE  H11R11138   1.811  -0.212   3.641  1.6720 -3.1563  0.8116
  108SAPE  C21211139   1.917  -0.140   3.806 -0.4860  0.2211 -0.3218
  108SAPE  H12R11140   1.842  -0.188   3.870  0.4635 -1.5547 -0.4794
  108SAPE  C21311141   2.035  -0.073   3.877  0.4456  0.1351 -0.1193
  108SAPE  H13R11142   2.130  -0.109   3.832  1.3973  0.8720  1.1813
  108SAPE  H13S11143   2.041  -0.129   3.973 -0.4595 -3.0897 -1.8215
  108SAPE  C21411144   2.034   0.079   3.889 -0.1238  0.0125  0.4687
  108SAPE  H14R11145   1.999   0.136   3.802 -2.2657 -0.4564  0.9391
  108SAPE  C21511146   2.038   0.142   4.004 -0.3204  0.5112 -0.7525
  108SAPE  H15R11147   2.040   0.252   4.003  2.4934  0.5550  0.8295
  108SAPE  C21611148   2.064   0.086   4.142 -0.1320  0.2562  0.7786
  108SAPE  H16R11149   2.150   0.016   4.140 -0.1878  0.1657 -1.8976
  108SAPE  H16S11150   1.969   0.038   4.173 -0.5457  1.3062  1.1645
  108SAPE  C21711151   2.087   0.202   4.241 -0.1270  0.2570  0.8414
  108SAPE  H17R11152   2.188   0.246   4.224  0.5242 -0.5053  2.5445
  108SAPE  H17S11153   2.090   0.161   4.344 -2.3167  2.6091  1.9623
  108SAPE  C21811154   1.982   0.314   4.237  0.1746 -0.2745  0.9034
  108SAPE  H18R11155   1.884   0.261   4.234 -0.4494  0.8745 -1.7915
  108SAPE  H18S11156   1.989   0.379   4.148  1.8402 -0.4021  0.9139
  108SAPE  C21911157   1.980   0.406   4.359 -0.4086  0.4537 -0.7849
  108SAPE  H19R11158   2.078   0.457   4.368 -0.2370  0.2978 -1.6403
  108SAPE  H19S11159   1.970   0.339   4.447  0.4899  2.3147  0.8119
  108SAPE  C22011160   1.871   0.509   4.352  0.4508  0.1823 -0.1881
  108SAPE  H20R11161   1.898   0.582   4.273 -0.2862  0.2896 -0.3410
  108SAPE  H20S11162   1.863   0.562   4.450 -0.4342 -1.6601  0.7996
  108SAPE  H20T11163   1.769   0.469   4.335 -0.3177  3.0289 -3.1573
  108SAPE   C3311164   2.540  -0.374   2.975  0.8760  0.2816 -0.8001
  108SAPE   H3X11165   2.632  -0.330   3.020  1.1230 -1.3602  0.4046
  108SAPE   H3Y11166   2.534  -0.483   2.998  0.3031  0.1471 -1.5581
  108SAPE   C3411167   2.406  -0.320   3.036 -0.5920 -0.2680  0.8217
  108SAPE   H4X11168   2.325  -0.362   2.973  2.7503 -1.5576 -3.0535
  108SAPE   H4Y11169   2.411  -0.210   3.019 -4.4471 -0.0775  0.1178
  108SAPE   C3511170   2.376  -0.357   3.182  0.2784 -0.8644 -0.0384
  108SAPE   H5X11171   2.280  -0.309   3.212  1.1900  0.4106  0.9460
  108SAPE   H5Y11172   2.374  -0.468   3.186  1.5706 -0.8769  1.2300
  108SAPE   C3611173   2.479  -0.302   3.276 -0.6529  0.2083  0.2013
  108SAPE   H6X11174   2.486  -0.194   3.252  0.9365 -0.1499 -1.0792
  108SAPE   H6Y11175   2.574  -0.352   3.249 -1.1236 -0.1457 -0.8667
  108SAPE   C3711176   2.455  -0.336   3.420  0.1256 -0.9357 -0.1369
  108SAPE   H7X11177   2.548  -0.321   3.479 -0.2969 -1.3355  0.6529
  108SAPE   H7Y11178   2.428  -0.444   3.425 -0.4001 -0.9845 -2.6496
  108SAPE   C3811179   2.331  -0.261   3.480 -0.7282  0.0006  0.0063
  108SAPE   H8X11180   2.241  -0.311   3.437  0.4245 -0.1122 -2.4734
  108SAPE   H8Y11181   2.331  -0.156   3.443  0.3825  0.3526  0.9622
  108SAPE   C3911182   2.335  -0.270   3.632  0.9214 -0.3765  0.1141
  108SAPE   H9X11183   2.257  -0.201   3.671 -0.1811 -0.6568 -1.5074
  108SAPE   H9Y11184   2.430  -0.230   3.673 -0.9718  2.9232  1.6572
  108SAPE  C31011185   2.296  -0.410   3.683 -0.1631 -0.1481 -0.1600
  108SAPE  H10X11186   2.390  -0.467   3.665 -0.2659 -1.3002  2.4659
  108SAPE  H10Y11187   2.220  -0.462   3.621 -0.5334  1.7583 -1.3833
  108SAPE  C31111188   2.276  -0.425   3.839  0.4962 -0.2916 -0.0110
  108SAPE  H11X11189   2.279  -0.531   3.871  1.2303 -0.4532 -0.5893
  108SAPE  H11Y11190   2.179  -0.381   3.871  0.7976 -0.4821  1.2187
  108SAPE  C31211191   2.394  -0.369   3.917 -0.0635  0.1229 -0.4662
  108SAPE  H12X11192   2.375  -0.260   3.916 -1.0030  0.0214  1.2978
  108SAPE  H12Y11193   2.485  -0.390   3.858 -0.7160 -1.2337 -1.0506
  108SAPE  C31311194   2.409  -0.429   4.056  0.5111  0.1725  0.3027
  108SAPE  H13X11195   2.467  -0.522   4.035 -0.7547 -0.4631 -0.5584
  108SAPE  H13Y11196   2.314  -0.469   4.099  0.7274 -2.1263 -1.1320
  108SAPE  C31411197   2.490  -0.349   4.160 -0.4554 -0.3293  0.8642
  108SAPE  H14X11198   2.466  -0.241   4.158  0.9226  0.3633  6.1053
  108SAPE  H14Y11199   2.600  -0.356   4.141 -0.8066 -3.4652 -0.7061
  108SAPE  C31511200   2.463  -0.397   4.304  0.5732  0.2105  0.1781
  108SAPE  H15X11201   2.516  -0.494   4.320 -0.2556 -0.8773 -2.7903
  108SAPE  H15Y11202   2.353  -0.414   4.316  0.4038 -0.9893 -2.2972
  108SAPE  C31611203   2.509  -0.294   4.410 -0.5483  0.5318 -0.4872
  108SAPE  H16X11204   2.619  -0.290   4.397 -0.7084 -0.9880 -3.0800
  108SAPE  H16Y11205   2.479  -0.345   4.504  1.2816  1.2678  0.5325
  108SAPE  C31711206   2.439  -0.157   4.397 -0.2113 -0.3113 -0.3775
  108SAPE  H17X11207   2.348  -0.178   4.336  0.7381  0.7393 -2.2753
  108SAPE  H17Y11208   2.499  -0.099   4.324 -0.5795  1.0547  0.3725
  108SAPE  C31811209   2.414  -0.084   4.523 -0.1345  0.5824 -0.0944
  108SAPE  H18X11210   2.389  -0.157   4.602 -0.1898 -0.8781 -1.3997
  108SAPE  H18Y11211   2.346   0.004   4.518 -0.5584  0.2074 -1.3073
  108SAPE  H18Z11212   2.508  -0.038   4.560  0.1851  0.7262 -1.0474
  109SAPE     N11213   6.317   4.053   2.460 -0.5114 -0.6951 -0.1203
  109SAPE   HN111214   6.343   4.123   2.533 -0.8008 -0.8665  0.1474
  109SAPE   HN211215   6.368   3.964   2.473 -2.3711 -1.7909  0.0311
  109SAPE   HN311216   6.347   4.095   2.370 -0.1797  0.0471  0.3178
  109SAPE   C1211217   6.170   4.029   2.453  0.9072  0.0360  0.2370
  109SAPE  H12A11218   6.157   3.940   2.519  0.8173  0.3581  0.6570
  109SAPE  H12B11219   6.147   4.008   2.346 -0.0784 -0.8450  0.6029
  109SAPE   C1111220   6.087   4.151   2.495  0.2946  0.0726 -0.0820
  109SAPE  H11A11221   6.134   4.191   2.588  0.5188  1.1861 -0.6586
  109SAPE  H11B11222   5.986   4.127   2.533  1.1682 -0.4416  2.0694
  109SAPE     P11223   5.986   4.241   2.279 -0.1572 -0.7479 -0.4551
  109SAPE   O1311224   6.019   4.358   2.190  0.2443  0.1271  0.0506
  109SAPE   O1411225   5.975   4.110   2.224  0.1589  0.0472 -0.7111
  109SAPE   O1211226   6.091   4.248   2.400  0.3049  0.4783  0.0623
  109SAPE   O1111227   5.850   4.268   2.346  0.4678 -1.0912  0.1151
  109SAPE    C111228   5.811   4.398   2.376  1.4235 -0.0616  0.6666
  109SAPE    HA11229   5.825   4.470   2.292 -2.4373  1.3388  0.9886
  109SAPE    HB11230   5.700   4.393   2.385  1.1937  2.5702  0.3541
  109SAPE    C211231   5.871   4.455   2.512  0.3676  0.2472  0.4673
  109SAPE    HS11232   5.977   4.472   2.482 -0.2378  1.5471 -1.1363
  109SAPE   O2111233   5.848   4.369   2.625  0.2185  0.3155  0.1747
  109SAPE   C2111234   5.939   4.373   2.733  0.7366  0.8459  0.0018
  109SAPE   O2211235   6.040   4.443   2.730  0.2232  0.8951 -0.0915
  109SAPE   C2211236   5.890   4.298   2.857 -0.5889  1.8052 -0.3170
  109SAPE   H2R11237   5.825   4.363   2.920 -0.4152  1.4055  0.2880
  109SAPE   H2S11238   5.814   4.221   2.830 -0.6209  0.8496  2.1667
  109SAPE    C311239   5.793   4.591   2.531  0.2880 -0.6132 -0.8181
  109SAPE    HX11240   5.686   4.564   2.542  0.4954 -1.5669 -1.0485
  109SAPE    HY11241   5.809   4.652   2.439  1.2439 -0.3074 -0.4590
  109SAPE   O3111242   5.837   4.653   2.654  0.5438 -0.4991  0.1823
  109SAPE   C3111243   5.947   4.717   2.641 -1.2685 -0.1673  0.2734
  109SAPE   O3211244   6.022   4.721   2.544  0.0033 -0.1287  0.3607
  109SAPE   C3211245   5.979   4.793   2.773  0.0437  0.1997 -0.0857
  109SAPE   H2X11246   5.898   4.868   2.783 -0.1887  0.2785 -2.1130
  109SAPE   H2Y11247   6.078   4.845   2.773  2.0319 -3.2857  1.0445
  109SAPE   C2311248   6.011   4.239   2.937  1.0915  0.2127 -0.0682
  109SAPE   H3R11249   6.083   4.319   2.962 -1.3226  1.7059  2.8687
  109SAPE   H3S11250   6.057   4.166   2.867  1.5124  1.2783 -0.9242
  109SAPE   C2411251   5.962   4.184   3.076 -0.0541  0.1979  0.3175
  109SAPE   H4R11252   5.892   4.259   3.120  0.4142  0.8243  0.0196
  109SAPE   H4S11253   6.052   4.178   3.141 -0.7215 -0.5694  1.1903
  109SAPE   C2511254   5.907   4.046   3.082 -0.8182 -0.4705 -0.2159
  109SAPE   H5R11255   5.923   3.995   2.986  3.1488 -1.5536  0.8193
  109SAPE   C2611256   5.835   3.995   3.179  0.3956 -0.6962 -0.6735
  109SAPE   H6R11257   5.816   3.886   3.175  1.6383 -0.9478 -0.1284
  109SAPE   C2711258   5.794   4.072   3.302 -0.0292  0.9921 -0.0469
  109SAPE   H7R11259   5.690   4.042   3.323  1.2058 -1.8770  2.7237
  109SAPE   H7S11260   5.814   4.181   3.286  3.4932  0.5650  0.5762
  109SAPE   C2811261   5.882   4.035   3.421  0.1445  0.1496  0.0163
  109SAPE   H8R11262   5.957   3.957   3.399 -0.8742 -0.8080 -0.1734
  109SAPE   C2911263   5.888   4.094   3.537  0.7611 -0.0710 -0.4993
  109SAPE   H9R11264   5.960   4.059   3.612 -0.1256 -0.8234  0.0343
  109SAPE  C21011265   5.797   4.202   3.584  0.0472  0.0980  0.2602
  109SAPE  H10R11266   5.750   4.176   3.681  0.0120 -0.1217  0.1860
  109SAPE  H10S11267   5.711   4.215   3.515  1.0488 -1.8000 -1.4710
  109SAPE  C21111268   5.880   4.333   3.595  0.2434  0.5479 -0.3029
  109SAPE  H11R11269   5.895   4.402   3.510  0.9756  1.9562  0.9367
  109SAPE  C21211270   5.925   4.378   3.712 -0.1287 -0.0930 -0.1434
  109SAPE  H12R11271   6.010   4.448   3.710 -0.4933  0.3672  0.0229
  109SAPE  C21311272   5.893   4.310   3.848 -0.6727  0.0730 -0.2207
  109SAPE  H13R11273   5.880   4.200   3.832 -0.5067 -0.1205  0.9360
  109SAPE  H13S11274   5.795   4.331   3.895 -0.0278 -0.5830  1.4614
  109SAPE  C21411275   6.018   4.315   3.937 -0.3066 -0.4801 -0.0299
  109SAPE  H14R11276   6.106   4.265   3.895 -0.8401 -1.3209 -0.1847
  109SAPE  C21511277   6.020   4.364   4.062  0.3151 -0.0726  0.2250
  109SAPE  H15R11278   6.108   4.364   4.128 -0.4294  1.3776  1.2707
  109SAPE  C21611279   5.906   4.426   4.143  1.3382 -0.1067  0.5734
  109SAPE  H16R11280   5.898   4.370   4.238  0.7794 -2.0332 -0.5529
  109SAPE  H16S11281   5.814   4.417   4.082  3.2006 -2.0406 -2.2145
  109SAPE  C21711282   5.942   4.577   4.179 -0.1234  0.4927  0.5347
  109SAPE  H17R11283   5.925   4.641   4.090 -1.8375 -1.0735 -0.3356
  109SAPE  H17S11284   6.049   4.585   4.209 -0.2828  1.2338  0.9439
  109SAPE  C21811285   5.868   4.642   4.298  0.5857 -0.1482  0.4061
  109SAPE  H18R11286   5.759   4.633   4.281  0.2968  1.5012  1.2593
  109SAPE  H18S11287   5.883   4.751   4.306  0.3075 -0.1469  0.9544
  109SAPE  C21911288   5.904   4.577   4.436  0.2355  0.0883  0.5253
  109SAPE  H19R11289   5.941   4.473   4.419  2.2166  0.9886 -1.1759
  109SAPE  H19S11290   5.813   4.569   4.498  0.6649  0.7039  1.2506
  109SAPE  C22011291   6.010   4.662   4.506  0.2671 -0.6041  0.2224
  109SAPE  H20R11292   5.962   4.758   4.535 -2.1869 -1.6901  0.0024
  109SAPE  H20S11293   6.096   4.662   4.436 -1.1945  0.4491 -1.6629
  109SAPE  H20T11294   6.045   4.605   4.594  0.9076 -2.4541 -1.1669
  109SAPE   C3311295   5.990   4.706   2.896 -0.3931  0.7755 -0.2319
  109SAPE   H3X11296   6.085   4.653   2.873 -0.9670 -0.2217 -0.3829
  109SAPE   H3Y11297   5.908   4.631   2.890 -0.1200  0.5634 -3.7750
  109SAPE   C3411298   5.995   4.779   3.028 -0.3473  0.1388  0.1205
  109SAPE   H4X11299   5.894   4.819   3.054  1.5619  3.9845  2.6265
  109SAPE   H4Y11300   6.066   4.865   3.025 -1.0501  0.7364  0.3451
  109SAPE   C3511301   6.044   4.690   3.142  0.2322  0.1421  0.0786
  109SAPE   H5X11302   6.143   4.640   3.130  0.3151  0.4983 -0.8131
  109SAPE   H5Y11303   5.966   4.613   3.159 -0.3358  0.8511  0.7207
  109SAPE   C3611304   6.048   4.775   3.279 -0.8040 -0.8685 -0.1635
  109SAPE   H6X11305   5.946   4.800   3.315 -0.4681  1.0232 -0.4484
  109SAPE   H6Y11306   6.092   4.876   3.265 -0.2642 -0.7695  1.9351
  109SAPE   C3711307   6.140   4.709   3.389  0.4464  0.8727  0.4216
  109SAPE   H7X11308   6.246   4.710   3.358 -0.1860  1.2537 -1.8950
  109SAPE   H7Y11309   6.112   4.602   3.402  1.9568  0.5934  1.6909
  109SAPE   C3811310   6.138   4.780   3.524 -0.4774 -0.0602 -0.1239
  109SAPE   H8X11311   6.033   4.773   3.561 -1.3159 -0.5417 -2.4139
  109SAPE   H8Y11312   6.163   4.888   3.515 -2.1217  0.3488 -0.0756
  109SAPE   C3911313   6.227   4.710   3.622 -0.4854  0.1825  0.0220
  109SAPE   H9X11314   6.322   4.686   3.571 -0.6629  0.4867 -0.4597
  109SAPE   H9Y11315   6.183   4.613   3.654 -0.1028  0.2670  0.8085
  109SAPE  C31011316   6.261   4.778   3.755  0.4707 -0.0145 -0.0325
  109SAPE  H10X11317   6.293   4.882   3.732  0.5200 -0.2785 -1.2288
  109SAPE  H10Y11318   6.345   4.722   3.801 -0.6101 -2.9362 -1.3513
  109SAPE  C31111319   6.142   4.797   3.852  0.0508  0.4274  0.7107
  109SAPE  H11X11320   6.097   4.697   3.872  3.2030 -1.2985 -0.0067
  109SAPE  H11Y11321   6.076   4.874   3.807  0.3984  0.9351  1.0566
  109SAPE  C31211322   6.175   4.854   3.986  0.0106 -0.1104  0.5898
  109SAPE  H12X11323   6.083   4.874   4.044 -0.8874  0.7005 -1.0368
  109SAPE  H12Y11324   6.227   4.951   3.974 -1.0160  0.4806  0.8341
  109SAPE  C31311325   6.257   4.759   4.070  0.2255  0.3797 -0.4507
  109SAPE  H13X11326   6.358   4.752   4.025  0.3372 -2.6485  0.0642
  109SAPE  H13Y11327   6.214   4.658   4.050 -0.1258  0.6146 -0.8998
  109SAPE  C31411328   6.261   4.806   4.214 -0.2209  0.2261 -0.9598
  109SAPE  H14X11329   6.164   4.785   4.264  0.7792 -2.2832  0.1120
  109SAPE  H14Y11330   6.291   4.912   4.220  2.9439 -0.6557  2.5710
  109SAPE  C31511331   6.373   4.735   4.301  0.6836  0.1422  0.3405
  109SAPE  H15X11332   6.360   4.624   4.300 -3.4519  0.4694 -0.2323
  109SAPE  H15Y11333   6.374   4.768   4.407  2.1104  0.4360  0.2584
  109SAPE  C31611334   6.515   4.770   4.257  0.0496 -0.1296  0.1775
  109SAPE  H16X11335   6.532   4.876   4.231 -1.9611  0.3118  0.5167
  109SAPE  H16Y11336   6.543   4.705   4.171 -1.7713 -0.1553 -0.4466
  109SAPE  C31711337   6.608   4.745   4.380  0.5857 -0.0174  0.1083
  109SAPE  H17X11338   6.586   4.642   4.414  0.3902 -1.4370 -3.7912
  109SAPE  H17Y11339   6.578   4.815   4.461  0.8167  0.1889  0.0196
  109SAPE  C31811340   6.753   4.769   4.351 -0.9525  0.2380 -0.0179
  109SAPE  H18X11341   6.770   4.878   4.337  1.2454 -0.1394 -0.6440
  109SAPE  H18Y11342   6.793   4.709   4.266 -0.8291 -2.0652  1.5707
  109SAPE  H18Z11343   6.820   4.745   4.436  0.0666  1.7428 -0.3557
  110SAPE     N11344   6.149   1.663   2.011  0.0658  0.1515 -0.0828
  110SAPE   HN111345   6.153   1.563   2.039  0.1010  0.6632  1.9476
  110SAPE   HN211346   6.097   1.674   1.921 -2.5170 -1.0621  1.1341
  110SAPE   HN311347   6.251   1.682   2.003  0.0172  1.5121  1.7369
  110SAPE   C1211348   6.091   1.747   2.119  0.1617  0.1878  0.4318
  110SAPE  H12A11349   5.981   1.761   2.120  0.0249 -0.6925  2.1229
  110SAPE  H12B11350   6.133   1.849   2.109  1.7428 -0.5513 -0.8341
  110SAPE   C1111351   6.115   1.672   2.253  0.1502 -0.2871 -0.0310
  110SAPE  H11A11352   6.079   1.570   2.230 -1.1704  0.6518 -2.6334
  110SAPE  H11B11353   6.068   1.716   2.343  0.5738  0.2770 -0.0817
  110SAPE     P11354   6.338   1.750   2.373 -0.1929 -0.2872  0.3854
  110SAPE   O1311355   6.477   1.742   2.329  0.0644 -0.4065  0.4188
  110SAPE   O1411356   6.279   1.886   2.381 -0.4441  0.1185 -0.0917
  110SAPE   O1211357   6.262   1.664   2.269 -0.1279 -0.0539  0.2303
  110SAPE   O1111358   6.317   1.679   2.511  0.2918 -0.3419  0.5064
  110SAPE    C111359   6.267   1.546   2.520 -0.2667 -0.3101  0.1669
  110SAPE    HA11360   6.157   1.532   2.519 -0.2946 -0.8453  2.9786
  110SAPE    HB11361   6.318   1.469   2.457 -1.2231 -0.3861 -0.5324
  110SAPE    C211362   6.291   1.491   2.665 -0.2106  0.0051 -0.1461
  110SAPE    HS11363   6.220   1.537   2.737 -0.6703 -0.3021 -0.3962
  110SAPE   O2111364   6.427   1.524   2.701 -0.2829 -0.9518 -0.0145
  110SAPE   C2111365   6.450   1.583   2.816  0.1387  0.5103 -0.1265
  110SAPE   O2211366   6.368   1.636   2.893  0.2070  0.9297  0.2613
  110SAPE   C2211367   6.600   1.574   2.832 -0.3367  0.0220  0.0941
  110SAPE   H2R11368   6.639   1.618   2.738 -0.9782  0.6375  0.1031
  110SAPE   H2S11369   6.627   1.649   2.909 -1.9538  1.0467 -0.2705
  110SAPE    C311370   6.283   1.337   2.653 -0.3932 -0.0947 -0.2414
  110SAPE    HX11371   6.198   1.318   2.583 -0.0940  1.5068 -1.0830
  110SAPE    HY11372   6.368   1.292   2.596 -0.0031 -0.3373  0.5188
  110SAPE   O3111373   6.282   1.269   2.781 -0.2624  0.1388  0.5998
  110SAPE   C3111374   6.207   1.167   2.781  0.7466  0.0160  0.1974
  110SAPE   O3211375   6.151   1.119   2.685  0.3537 -0.1133  0.8150
  110SAPE   C3211376   6.191   1.104   2.923  0.1902 -0.1861  0.9149
  110SAPE   H2X11377   6.205   0.994   2.921 -1.0547 -0.3829  1.6546
  110SAPE   H2Y11378   6.089   1.134   2.956 -0.8756 -1.3458 -1.1151
  110SAPE   C2311379   6.649   1.431   2.865 -0.6805 -0.0296  0.9338
  110SAPE   H3R11380   6.759   1.440   2.860 -0.8309  1.6062 -1.7623
  110SAPE   H3S11381   6.601   1.353   2.802 -0.6933  0.1054  0.7749
  110SAPE   C2411382   6.606   1.384   3.006  0.8812  0.1108  0.2291
  110SAPE   H4R11383   6.641   1.283   3.035  1.1522  0.6064  1.7112
  110SAPE   H4S11384   6.496   1.396   3.000  1.2173  3.6166 -3.0922
  110SAPE   C2511385   6.658   1.480   3.107  0.4800  0.3639 -0.3755
  110SAPE   H5R11386   6.765   1.505   3.109  1.1018 -1.9060  2.8972
  110SAPE   C2611387   6.586   1.548   3.198 -0.5757  0.6240  0.4126
  110SAPE   H6R11388   6.645   1.613   3.264 -2.2042  3.2515 -0.5492
  110SAPE   C2711389   6.433   1.549   3.219  0.6737 -0.0931  0.4619
  110SAPE   H7R11390   6.408   1.511   3.320 -0.6151  0.9379  0.5572
  110SAPE   H7S11391   6.378   1.484   3.148  1.2529  0.9490 -0.9988
  110SAPE   C2811392   6.379   1.684   3.215  0.1022 -0.2105  0.2324
  110SAPE   H8R11393   6.376   1.721   3.111 -1.0918  0.8497  0.6279
  110SAPE   C2911394   6.336   1.775   3.305  0.6943  0.3703 -0.4630
  110SAPE   H9R11395   6.291   1.870   3.273  0.6973 -0.1319 -2.0667
  110SAPE  C21011396   6.331   1.753   3.452  0.1914 -0.1630  0.3462
  110SAPE  H10R11397   6.423   1.799   3.494 -0.1913  0.3529  0.6347
  110SAPE  H10S11398   6.348   1.647   3.483  0.4231 -0.1113  0.3962
  110SAPE  C21111399   6.219   1.814   3.527  0.4402 -0.5682 -0.9927
  110SAPE  H11R11400   6.126   1.828   3.469 -0.5310  0.8398  0.7719
  110SAPE  C21211401   6.214   1.853   3.660 -0.1349  0.0740  0.0966
  110SAPE  H12R11402   6.126   1.915   3.682 -0.0096  0.0978  0.5352
  110SAPE  C21311403   6.318   1.853   3.771 -0.2762  0.4863 -0.3764
  110SAPE  H13R11404   6.327   1.944   3.833  1.7153 -0.1578  0.3774
  110SAPE  H13S11405   6.421   1.855   3.729  0.9036 -1.3994  2.1899
  110SAPE  C21411406   6.307   1.729   3.862 -0.7582  0.5158 -0.1552
  110SAPE  H14R11407   6.210   1.680   3.879 -0.5714 -0.1371 -0.9050
  110SAPE  C21511408   6.407   1.658   3.926 -0.5694  0.3073 -0.0381
  110SAPE  H15R11409   6.377   1.570   3.985 -0.0721 -0.0297 -0.2838
  110SAPE  C21611410   6.558   1.682   3.919  0.8861  0.0566 -0.3306
  110SAPE  H16R11411   6.588   1.778   3.967 -2.5303  0.9675  0.3074
  110SAPE  H16S11412   6.596   1.684   3.815  0.8055 -0.3861 -0.3684
  110SAPE  C21711413   6.636   1.581   4.003  1.1388  0.4513  0.0436
  110SAPE  H17R11414   6.743   1.605   3.983  1.6352 -1.5646  0.0281
  110SAPE  H17S11415   6.610   1.478   3.973  0.4858  0.4166  0.7205
  110SAPE  C21811416   6.608   1.601   4.156 -0.1211  0.2552  0.6710
  110SAPE  H18R11417   6.569   1.703   4.174  2.6780  1.1324  2.3348
  110SAPE  H18S11418   6.706   1.589   4.207  0.5799 -1.3786 -0.9542
  110SAPE  C21911419   6.520   1.494   4.222  0.1607  0.1950  0.3456
  110SAPE  H19R11420   6.533   1.400   4.165 -1.0937 -0.2219  0.7166
  110SAPE  H19S11421   6.412   1.519   4.211  0.0985  0.3434  1.2610
  110SAPE  C22011422   6.558   1.472   4.371 -0.0639  0.2962  0.0135
  110SAPE  H20R11423   6.512   1.555   4.429 -2.6332 -0.8580 -0.2246
  110SAPE  H20S11424   6.668   1.456   4.374  0.4387  3.1100 -0.8190
  110SAPE  H20T11425   6.515   1.380   4.416  0.9377  0.1603  0.7085
  110SAPE   C3311426   6.287   1.176   3.017  0.1301  0.1889  0.6101
  110SAPE   H3X11427   6.246   1.276   3.041 -2.5526 -0.2042 -1.8870
  110SAPE   H3Y11428   6.384   1.200   2.969 -0.3789  0.8323 -0.1026
  110SAPE   C3411429   6.307   1.103   3.149  0.4087 -0.0463  0.0160
  110SAPE   H4X11430   6.367   1.013   3.126  0.7709  0.1749  0.0953
  110SAPE   H4Y11431   6.203   1.068   3.171  1.2006 -2.7394 -0.2421
  110SAPE   C3511432   6.362   1.176   3.274  0.3663  0.1824 -0.3949
  110SAPE   H5X11433   6.308   1.273   3.286  1.1484  0.9689 -2.6729
  110SAPE   H5Y11434   6.467   1.203   3.252  0.1267  1.7894  0.2782
  110SAPE   C3611435   6.367   1.092   3.404 -0.5742 -0.0946 -0.3082
  110SAPE   H6X11436   6.430   1.004   3.378 -1.3847 -0.3196 -1.5984
  110SAPE   H6Y11437   6.268   1.056   3.440 -0.1719 -2.2348 -1.2225
  110SAPE   C3711438   6.436   1.172   3.516 -0.4678  0.9195  0.1258
  110SAPE   H7X11439   6.543   1.183   3.487 -0.5240 -2.4327 -1.8755
  110SAPE   H7Y11440   6.424   1.114   3.610  0.7727  1.0363  0.3785
  110SAPE   C3811441   6.380   1.308   3.558  0.0546  1.1807  0.5281
  110SAPE   H8X11442   6.272   1.307   3.534 -0.0518 -0.6376  0.8958
  110SAPE   H8Y11443   6.426   1.394   3.505 -1.0266  1.0255 -0.7113
  110SAPE   C3911444   6.393   1.317   3.720  0.4659 -0.2507 -0.5066
  110SAPE   H9X11445   6.394   1.423   3.753  1.2640  0.3025 -2.1524
  110SAPE   H9Y11446   6.490   1.272   3.749  1.4963  2.5967  0.8416
  110SAPE  C31011447   6.269   1.248   3.783 -0.3856  0.2179  0.5909
  110SAPE  H10X11448   6.295   1.140   3.782 -0.0291  0.2841  1.5988
  110SAPE  H10Y11449   6.178   1.262   3.721  0.6393 -0.7474 -1.2261
  110SAPE  C31111450   6.251   1.278   3.934 -0.1804 -0.2474  0.5559
  110SAPE  H11X11451   6.233   1.387   3.949 -0.8201 -0.0873 -1.1001
  110SAPE  H11Y11452   6.341   1.253   3.993  1.6011  0.3522 -1.7324
  110SAPE  C31211453   6.136   1.211   4.010 -0.0232  0.0244  0.0054
  110SAPE  H12X11454   6.121   1.119   3.950  0.8173  0.6102 -1.1416
  110SAPE  H12Y11455   6.042   1.269   3.998 -0.2037 -0.5302 -1.4635
  110SAPE  C31311456   6.168   1.178   4.156  0.1963 -0.5027 -0.2288
  110SAPE  H13X11457   6.191   1.264   4.222  0.6524 -2.2424  1.9849
  110SAPE  H13Y11458   6.252   1.106   4.151 -0.7454 -1.5864 -1.5031
  110SAPE  C31411459   6.049   1.110   4.236 -0.3754  0.0145 -0.5269
  110SAPE  H14X11460   6.074   1.064   4.333 -2.8423 -0.2677  0.0561
  110SAPE  H14Y11461   6.022   1.022   4.172 -0.5244 -0.3340  0.0117
  110SAPE  C31511462   5.923   1.196   4.266 -0.1089 -0.1492 -0.3230
  110SAPE  H15X11463   5.908   1.270   4.184 -0.2054 -0.9537 -1.0514
  110SAPE  H15Y11464   5.937   1.264   4.352 -1.7474  0.7710 -0.7475
  110SAPE  C31611465   5.797   1.118   4.304  0.4644 -0.5310 -0.3701
  110SAPE  H16X11466   5.777   1.046   4.222  1.0871  1.6541 -2.5219
  110SAPE  H16Y11467   5.719   1.196   4.316  1.2646  0.3751 -0.9579
  110SAPE  C31711468   5.808   1.056   4.443  0.7302 -0.9220  0.0284
  110SAPE  H17X11469   5.857   1.123   4.517  0.3038  0.8162 -1.1895
  110SAPE  H17Y11470   5.867   0.962   4.447  0.2294 -1.2111  0.8461
  110SAPE  C31811471   5.664   1.031   4.498 -0.2481  0.0618 -0.4710
  110SAPE  H18X11472   5.618   1.128   4.473  1.3525  0.3602 -2.5290
  110SAPE  H18Y11473   5.673   1.006   4.606  3.0003 -0.3784 -0.7455
  110SAPE  H18Z11474   5.634   0.938   4.445 -1.5884 -0.4851  1.1448
  111SAPE     N11475   6.513   2.356   2.509  0.0695  0.0270 -0.1699
  111SAPE   HN111476   6.420   2.361   2.556  0.6622 -1.2553  1.2295
  111SAPE   HN211477   6.531   2.259   2.475 -0.2672  0.0213 -0.3361
  111SAPE   HN311478   6.585   2.362   2.584  0.4772  0.2991 -0.5782
  111SAPE   C1211479   6.545   2.464   2.412  0.3992  0.0743 -0.3651
  111SAPE  H12A11480   6.463   2.463   2.337 -0.2310 -5.2117  0.0049
  111SAPE  H12B11481   6.644   2.441   2.365  1.3971 -0.2638  1.7988
  111SAPE   C1111482   6.546   2.596   2.488  0.1547  0.1988  0.5102
  111SAPE  H11A11483   6.644   2.601   2.540 -0.1599 -0.3557  1.1665
  111SAPE  H11B11484   6.465   2.584   2.562  1.4962  0.8534  2.1421
  111SAPE     P11485   6.536   2.851   2.449 -0.4051  0.1223 -0.2603
  111SAPE   O1311486   6.652   2.901   2.367  0.4771  0.5090 -0.1331
  111SAPE   O1411487   6.409   2.923   2.440  0.0618  0.2944 -0.3832
  111SAPE   O1211488   6.520   2.705   2.403  0.6424 -0.4009  0.5691
  111SAPE   O1111489   6.592   2.846   2.602  0.6682 -0.4847 -0.5121
  111SAPE    C111490   6.498   2.867   2.709  0.2394  0.0076  0.0096
  111SAPE    HA11491   6.463   2.973   2.716  1.1683  0.3333 -0.1440
  111SAPE    HB11492   6.406   2.806   2.697 -0.3377  1.1173 -1.6996
  111SAPE    C211493   6.560   2.835   2.842  0.3971  0.6818 -0.3593
  111SAPE    HS11494   6.502   2.874   2.928  0.4224 -0.1300  0.0387
  111SAPE   O2111495   6.698   2.873   2.850  0.0806 -0.0577  0.2952
  111SAPE   C2111496   6.709   3.004   2.853  0.2247 -0.2839 -0.2072
  111SAPE   O2211497   6.619   3.092   2.851  0.6012  0.2277 -0.0690
  111SAPE   C2211498   6.856   3.042   2.876 -0.2626  0.2942 -0.1316
  111SAPE   H2R11499   6.899   3.008   2.973  1.0255 -0.2271 -0.8485
  111SAPE   H2S11500   6.913   2.989   2.796  0.5126  2.2266 -0.9145
  111SAPE    C311501   6.566   2.681   2.859 -0.1592  0.6707 -0.5035
  111SAPE    HX11502   6.620   2.654   2.952  0.6432  1.6460 -0.6749
  111SAPE    HY11503   6.632   2.631   2.786  0.8310 -0.0242  0.8295
  111SAPE   O3111504   6.435   2.606   2.862  0.5061 -0.6163  0.3852
  111SAPE   C3111505   6.383   2.601   2.978 -0.4206  0.2811  0.3247
  111SAPE   O3211506   6.431   2.641   3.086 -0.0556  0.5519 -0.5059
  111SAPE   C3211507   6.250   2.531   2.970  0.3553 -0.6013 -0.1418
  111SAPE   H2X11508   6.269   2.422   2.977 -1.9096 -1.1113 -0.8448
  111SAPE   H2Y11509   6.191   2.559   2.880 -0.5276 -0.2826  0.5278
  111SAPE   C2311510   6.882   3.192   2.857  0.2833 -0.5423  0.8017
  111SAPE   H3R11511   6.821   3.240   2.777 -0.8841 -1.1582  1.3008
  111SAPE   H3S11512   6.988   3.217   2.838 -0.1880  0.5121 -0.6223
  111SAPE   C2411513   6.834   3.268   2.987  0.4380 -0.3566 -0.0404
  111SAPE   H4R11514   6.727   3.242   3.006  0.7265  0.2075  2.7026
  111SAPE   H4S11515   6.838   3.378   2.973 -2.9850 -0.4078 -3.1030
  111SAPE   C2511516   6.911   3.232   3.113 -0.2826 -0.4431 -0.4785
  111SAPE   H5R11517   7.011   3.278   3.112 -0.6799  0.4971 -2.3731
  111SAPE   C2611518   6.862   3.162   3.219  0.3970  0.3171 -0.3991
  111SAPE   H6R11519   6.925   3.149   3.308 -0.2369  0.3939  0.0724
  111SAPE   C2711520   6.724   3.108   3.233 -0.7958 -0.1881 -0.5550
  111SAPE   H7R11521   6.656   3.162   3.163 -0.3176 -0.9135 -1.6204
  111SAPE   H7S11522   6.698   3.143   3.335  2.4347  2.2812 -0.3937
  111SAPE   C2811523   6.708   2.965   3.218 -0.1164  0.3690  0.4276
  111SAPE   H8R11524   6.764   2.927   3.132  1.1474 -4.1923  2.9284
  111SAPE   C2911525   6.618   2.887   3.280 -0.2176  0.1692 -0.7071
  111SAPE   H9R11526   6.621   2.777   3.271 -0.0096  0.1089 -0.0269
  111SAPE  C21011527   6.524   2.929   3.394 -0.1618 -0.3616  0.6012
  111SAPE  H10R11528   6.491   3.034   3.384  1.3488  0.1139  0.4201
  111SAPE  H10S11529   6.575   2.914   3.491 -2.2223 -0.8409  1.6620
  111SAPE  C21111530   6.399   2.843   3.389 -0.7721 -0.8056  1.0111
  111SAPE  H11R11531   6.381   2.784   3.298  0.2109  0.9716 -0.3972
  111SAPE  C21211532   6.308   2.827   3.484 -0.8017  0.0446 -0.5352
  111SAPE  H12R11533   6.218   2.764   3.476 -0.8067 -0.0691  0.3051
  111SAPE  C21311534   6.316   2.914   3.602  0.4253  0.2480 -0.2624
  111SAPE  H13R11535   6.271   3.015   3.593 -0.0725  0.0956  0.4021
  111SAPE  H13S11536   6.420   2.943   3.630  0.7419 -0.8689 -0.2427
  111SAPE  C21411537   6.245   2.851   3.726 -0.3097  0.1759 -0.7111
  111SAPE  H14R11538   6.161   2.784   3.699 -0.3914  0.4717 -1.2021
  111SAPE  C21511539   6.291   2.857   3.856  0.1690 -0.2048 -0.5535
  111SAPE  H15R11540   6.236   2.800   3.932 -0.9462  1.8631  0.2910
  111SAPE  C21611541   6.393   2.943   3.920  0.3789 -0.6988 -0.9500
  111SAPE  H16R11542   6.438   3.022   3.856  1.3766  2.1172  2.8335
  111SAPE  H16S11543   6.474   2.877   3.956  1.9220  0.9915 -1.1320
  111SAPE  C21711544   6.335   3.035   4.043 -0.4931  0.2828 -0.0257
  111SAPE  H17R11545   6.280   2.965   4.109 -1.6558 -0.3351 -1.5899
  111SAPE  H17S11546   6.274   3.110   3.989 -0.8034 -0.7139 -1.1017
  111SAPE  C21811547   6.446   3.108   4.119 -0.1405  0.0167 -0.2216
  111SAPE  H18R11548   6.387   3.152   4.203 -1.6782 -1.4789 -0.4698
  111SAPE  H18S11549   6.489   3.184   4.050  0.1210  0.3048  0.2520
  111SAPE  C21911550   6.548   3.015   4.194 -0.3116 -0.1154  0.2168
  111SAPE  H19R11551   6.590   3.091   4.264 -0.9072  2.6828 -2.2277
  111SAPE  H19S11552   6.618   2.973   4.119  0.1396  2.1292 -0.7168
  111SAPE  C22011553   6.484   2.886   4.259  0.1115  0.0786  0.4174
  111SAPE  H20R11554   6.543   2.857   4.348  1.0005 -0.5104 -0.3374
  111SAPE  H20S11555   6.470   2.800   4.190 -1.1934  3.3444 -3.8512
  111SAPE  H20T11556   6.389   2.911   4.311  0.1093 -0.0043  0.4536
  111SAPE   C3311557   6.148   2.582   3.083 -0.5118 -0.0096 -0.1365
  111SAPE   H3X11558   6.203   2.591   3.180 -1.6719  1.3635  0.4186
  111SAPE   H3Y11559   6.061   2.513   3.085 -0.5988  0.0973 -0.2542
  111SAPE   C3411560   6.074   2.715   3.069 -0.5400 -0.0340  1.2374
  111SAPE   H4X11561   6.001   2.709   2.985 -1.5906 -0.6047  2.1605
  111SAPE   H4Y11562   6.145   2.799   3.056  0.5622 -0.8728  1.7502
  111SAPE   C3511563   5.987   2.760   3.196 -0.3111  0.3635 -0.4107
  111SAPE   H5X11564   6.042   2.724   3.285  0.0762 -0.8579 -1.1090
  111SAPE   H5Y11565   5.895   2.701   3.214  0.6415 -0.5311  1.8797
  111SAPE   C3611566   5.973   2.907   3.213 -0.4471 -0.3285  0.7879
  111SAPE   H6X11567   5.909   2.948   3.132 -0.8203 -0.2620  1.1106
  111SAPE   H6Y11568   6.072   2.958   3.208  0.9974 -2.5740  3.5094
  111SAPE   C3711569   5.900   2.938   3.346 -0.6047  0.0433 -0.2208
  111SAPE   H7X11570   5.960   2.892   3.428 -0.6105  2.6721  1.3848
  111SAPE   H7Y11571   5.799   2.894   3.349 -1.1569  1.2173  3.2634
  111SAPE   C3811572   5.897   3.091   3.366  0.3600  0.2597  0.1830
  111SAPE   H8X11573   5.822   3.122   3.290  0.0297  1.5362  0.9853
  111SAPE   H8Y11574   5.998   3.133   3.344  0.8215 -0.9727 -0.1398
  111SAPE   C3911575   5.855   3.129   3.514 -0.4936 -0.2385  0.0109
  111SAPE   H9X11576   5.750   3.101   3.535 -1.1442  1.4695 -0.7712
  111SAPE   H9Y11577   5.863   3.240   3.513  4.1958 -0.3642 -1.7713
  111SAPE  C31011578   5.952   3.075   3.620 -0.4209  0.0368  0.0063
  111SAPE  H10X11579   6.057   3.096   3.589  0.6145 -1.6191  2.1239
  111SAPE  H10Y11580   5.950   2.964   3.620 -1.1637  0.0413  0.0768
  111SAPE  C31111581   5.930   3.145   3.753  0.4415  0.3619 -0.1082
  111SAPE  H11X11582   5.821   3.153   3.772  0.1494 -2.5452 -0.1134
  111SAPE  H11Y11583   5.957   3.253   3.754 -1.9293  1.0188 -0.2291
  111SAPE  C31211584   5.985   3.064   3.880  0.2718 -0.1197  0.7933
  111SAPE  H12X11585   5.966   3.125   3.971 -0.7795  2.0838 -0.7988
  111SAPE  H12Y11586   6.094   3.047   3.863  0.3224  0.1414  0.8586
  111SAPE  C31311587   5.924   2.922   3.888 -0.2515  0.7340 -0.8102
  111SAPE  H13X11588   5.963   2.848   3.815  0.2939 -1.7008  1.7932
  111SAPE  H13Y11589   5.817   2.924   3.857 -0.2866  1.1135 -0.6681
  111SAPE  C31411590   5.943   2.853   4.025 -0.0685  0.1593 -0.2984
  111SAPE  H14X11591   6.050   2.845   4.056 -0.9879  1.4179  3.8734
  111SAPE  H14Y11592   5.911   2.748   4.010  1.1936 -0.2919 -0.0054
  111SAPE  C31511593   5.858   2.898   4.148  0.5946 -0.1789 -0.4229
  111SAPE  H15X11594   5.809   2.811   4.195  0.2189 -0.2623 -0.9692
  111SAPE  H15Y11595   5.795   2.980   4.108  1.5499 -0.3388 -2.3915
  111SAPE  C31611596   5.945   2.952   4.265 -0.0042 -0.1122 -0.3554
  111SAPE  H16X11597   6.017   3.028   4.228  0.6663 -0.0116  1.1101
  111SAPE  H16Y11598   6.007   2.873   4.312  0.3771  0.2942 -0.1662
  111SAPE  C31711599   5.853   3.021   4.363  0.0573 -0.0789  0.0552
  111SAPE  H17X11600   5.927   3.056   4.438  0.8099  0.4145 -0.9018
  111SAPE  H17Y11601   5.779   2.958   4.418  0.7276 -0.1501  0.9109
  111SAPE  C31811602   5.766   3.137   4.311  0.0501 -0.0886 -0.7061
  111SAPE  H18X11603   5.836   3.211   4.267  0.2220 -0.7231 -1.5481
  111SAPE  H18Y11604   5.716   3.197   4.390  1.3282  0.9215 -0.6307
  111SAPE  H18Z11605   5.688   3.121   4.233 -2.4457  3.2859  0.8641
  112SAPE     N11606   3.718   2.650   2.500  0.1128 -0.6176 -0.2637
  112SAPE   HN111607   3.663   2.635   2.587  0.0242  0.5697 -0.0962
  112SAPE   HN211608   3.808   2.695   2.528  0.1821 -0.1673 -1.1616
  112SAPE   HN311609   3.670   2.720   2.440  0.8966 -0.9484 -1.3267
  112SAPE   C1211610   3.737   2.522   2.424 -0.0968  0.4700 -0.2058
  112SAPE  H12A11611   3.818   2.468   2.478 -2.4244 -3.7764 -0.4651
  112SAPE  H12B11612   3.769   2.543   2.319  0.2282 -0.8342 -0.3863
  112SAPE   C1111613   3.611   2.421   2.423  0.6507 -0.1533  0.6635
  112SAPE  H11A11614   3.582   2.368   2.516  0.7050  0.8008  1.2369
  112SAPE  H11B11615   3.646   2.344   2.351 -0.5274  0.4601 -0.6198
  112SAPE     P11616   3.369   2.554   2.442 -0.0577 -0.7562  0.4275
  112SAPE   O1311617   3.282   2.607   2.335 -0.2393  0.2566  0.2650
  112SAPE   O1411618   3.307   2.454   2.529  0.5574  0.2036 -0.4066
  112SAPE   O1211619   3.500   2.492   2.372  0.3111 -0.4354  0.5808
  112SAPE   O1111620   3.425   2.666   2.528  0.6649  0.0651 -0.1832
  112SAPE    C111621   3.335   2.758   2.597 -0.0344 -0.3852  0.6524
  112SAPE    HA11622   3.308   2.840   2.527  0.4234 -1.5962 -1.0041
  112SAPE    HB11623   3.234   2.717   2.619 -0.3426  0.4954  0.9480
  112SAPE    C211624   3.387   2.807   2.730 -0.5889 -0.8365 -0.2394
  112SAPE    HS11625   3.486   2.855   2.715 -1.8092  2.1278  0.4904
  112SAPE   O2111626   3.391   2.698   2.822 -0.3123 -0.4406  0.1259
  112SAPE   C2111627   3.491   2.620   2.805 -0.4786  0.0697 -0.1959
  112SAPE   O2211628   3.595   2.634   2.742 -0.7979 -0.2023  0.3933
  112SAPE   C2211629   3.473   2.498   2.901  0.0936 -0.5727 -0.1963
  112SAPE   H2R11630   3.534   2.509   2.993  1.4520  1.0929 -1.2401
  112SAPE   H2S11631   3.367   2.498   2.936  0.2103 -3.5657  0.4486
  112SAPE    C311632   3.301   2.923   2.782  0.6321  0.2082 -0.1321
  112SAPE    HX11633   3.202   2.878   2.804  1.2039 -1.3930 -0.7251
  112SAPE    HY11634   3.287   2.988   2.693  1.5319 -0.8467 -1.0577
  112SAPE   O3111635   3.359   2.984   2.896 -0.7392 -0.0603 -0.2623
  112SAPE   C3111636   3.286   3.089   2.945  0.2870  0.2248  0.5256
  112SAPE   O3211637   3.196   3.141   2.877  0.0172  0.3194  0.0055
  112SAPE   C3211638   3.333   3.125   3.085  1.0337 -0.6766 -0.1514
  112SAPE   H2X11639   3.358   3.234   3.088 -1.8922  0.0694  1.3755
  112SAPE   H2Y11640   3.428   3.071   3.103  1.2728 -0.0073  0.6579
  112SAPE   C2311641   3.488   2.363   2.824  0.4697  0.0535 -0.2649
  112SAPE   H3R11642   3.567   2.370   2.747  1.9409 -2.6190  0.8849
  112SAPE   H3S11643   3.389   2.341   2.779  0.1805 -2.3593  1.3832
  112SAPE   C2411644   3.508   2.237   2.915  0.2240 -0.0336 -0.1493
  112SAPE   H4R11645   3.601   2.253   2.974  0.9137 -1.9074 -0.6651
  112SAPE   H4S11646   3.506   2.152   2.844 -1.4961  1.7605 -2.3904
  112SAPE   C2511647   3.383   2.220   3.006  0.2492  0.3863  0.0692
  112SAPE   H5R11648   3.289   2.188   2.959 -1.1624  0.4640  2.6635
  112SAPE   C2611649   3.376   2.231   3.142 -0.8083 -0.2646  0.3224
  112SAPE   H6R11650   3.282   2.214   3.196 -0.7997  0.8039  0.6911
  112SAPE   C2711651   3.484   2.266   3.240  0.0928 -0.5911  0.1045
  112SAPE   H7R11652   3.582   2.255   3.189  0.6712 -1.7441  1.3740
  112SAPE   H7S11653   3.479   2.193   3.324  4.2840 -0.9077  0.2762
  112SAPE   C2811654   3.461   2.413   3.283 -0.9129 -0.1711 -0.3215
  112SAPE   H8R11655   3.428   2.483   3.205 -0.1096 -1.5319 -1.9636
  112SAPE   C2911656   3.484   2.455   3.407  0.2446 -0.3500  0.0318
  112SAPE   H9R11657   3.462   2.560   3.432  2.3094  0.2940 -0.6806
  112SAPE  C21011658   3.545   2.373   3.512  0.1695 -0.1348  0.4255
  112SAPE  H10R11659   3.605   2.440   3.577 -2.0116  1.2062  1.1479
  112SAPE  H10S11660   3.613   2.301   3.460 -0.7791 -0.1292 -0.8812
  112SAPE  C21111661   3.442   2.296   3.597  0.3927 -0.0164 -0.3368
  112SAPE  H11R11662   3.352   2.262   3.542  0.2680  0.6301 -0.5415
  112SAPE  C21211663   3.436   2.301   3.731  0.1134 -0.0800 -0.5328
  112SAPE  H12R11664   3.339   2.263   3.767 -1.1878  2.8427 -0.7137
  112SAPE  C21311665   3.538   2.368   3.827  0.3392  0.0267  0.2298
  112SAPE  H13R11666   3.480   2.396   3.918  0.1591  0.9464 -0.1577
  112SAPE  H13S11667   3.572   2.460   3.775 -0.4530 -1.1877 -2.6332
  112SAPE  C21411668   3.654   2.284   3.871 -0.0417  0.2023  0.1514
  112SAPE  H14R11669   3.705   2.229   3.791 -0.0839 -0.1149  0.3418
  112SAPE  C21511670   3.692   2.267   4.001  0.3030  0.3842  0.4814
  112SAPE  H15R11671   3.770   2.193   4.027 -0.9161 -1.3368 -0.5215
  112SAPE  C21611672   3.634   2.348   4.113  0.0830  0.2920 -0.7897
  112SAPE  H16R11673   3.525   2.333   4.125  0.1798  1.3038  2.2547
  112SAPE  H16S11674   3.658   2.455   4.095 -0.5296  0.4335 -0.7618
  112SAPE  C21711675   3.689   2.311   4.260  0.8405  0.6027  0.5875
  112SAPE  H17R11676   3.790   2.264   4.257  0.5431 -0.0236  0.0602
  112SAPE  H17S11677   3.620   2.242   4.311  0.4171  0.1553 -0.5510
  112SAPE  C21811678   3.678   2.433   4.348  0.0972 -0.4912 -0.0559
  112SAPE  H18R11679   3.570   2.453   4.366 -0.5412 -2.1535 -1.6856
  112SAPE  H18S11680   3.727   2.512   4.287 -0.2481 -0.9357 -0.9324
  112SAPE  C21911681   3.748   2.411   4.480  0.4145 -0.3658 -0.8491
  112SAPE  H19R11682   3.850   2.368   4.473  0.4030 -0.3773 -0.9514
  112SAPE  H19S11683   3.687   2.340   4.539 -1.0193  0.4361 -1.3145
  112SAPE  C22011684   3.779   2.533   4.565  0.0436  0.2108  0.4819
  112SAPE  H20R11685   3.827   2.507   4.661  0.4931  1.8054  0.7298
  112SAPE  H20S11686   3.685   2.589   4.589  0.2974  2.3649 -2.8273
  112SAPE  H20T11687   3.848   2.601   4.510  0.2083  0.4531  0.9871
  112SAPE   C3311688   3.224   3.096   3.204  0.0294 -0.1237  0.7667
  112SAPE   H3X11689   3.254   2.993   3.232  0.7338  0.4527  2.2223
  112SAPE   H3Y11690   3.120   3.109   3.168  0.9444  4.4574 -0.8268
  112SAPE   C3411691   3.241   3.190   3.317  0.0564  0.3817 -0.0544
  112SAPE   H4X11692   3.233   3.294   3.279 -3.0473  0.6261  0.9445
  112SAPE   H4Y11693   3.343   3.178   3.358  0.1679 -2.0699 -0.9366
  112SAPE   C3511694   3.130   3.175   3.425 -0.0876  0.0040  0.3427
  112SAPE   H5X11695   3.036   3.138   3.380  0.3623  1.2901 -1.7885
  112SAPE   H5Y11696   3.107   3.276   3.467  0.5385  0.2024  0.2203
  112SAPE   C3611697   3.168   3.080   3.542 -0.1340 -0.0571 -0.0098
  112SAPE   H6X11698   3.264   3.118   3.583 -0.5074  0.9183 -0.0066
  112SAPE   H6Y11699   3.173   2.971   3.520 -0.2197 -0.0820  0.0914
  112SAPE   C3711700   3.083   3.098   3.668 -0.1452 -0.3431 -0.3827
  112SAPE   H7X11701   2.978   3.069   3.651 -0.2719  0.6400 -1.3808
  112SAPE   H7Y11702   3.078   3.200   3.711 -0.8613 -1.4148  2.2590
  112SAPE   C3811703   3.140   3.019   3.786 -0.0970 -0.2884 -0.3770
  112SAPE   H8X11704   3.244   3.056   3.790  0.0062 -0.0290 -3.4500
  112SAPE   H8Y11705   3.162   2.915   3.753  0.4305 -0.3593  0.1651
  112SAPE   C3911706   3.044   3.024   3.900  0.2207  0.0750  0.2198
  112SAPE   H9X11707   2.951   2.976   3.865 -0.3817  0.9129  0.6356
  112SAPE   H9Y11708   3.009   3.127   3.923 -1.6583 -0.5932  0.5204
  112SAPE  C31011709   3.088   2.966   4.033  0.0369  0.2060  0.0498
  112SAPE  H10X11710   3.175   3.029   4.061  0.7541  0.4118 -2.3713
  112SAPE  H10Y11711   3.115   2.860   4.015  1.6914  0.5058  0.6193
  112SAPE  C31111712   2.979   2.975   4.145 -0.0866  0.8133  0.3719
  112SAPE  H11X11713   2.883   2.924   4.122  0.7548 -1.0579  0.8240
  112SAPE  H11Y11714   2.956   3.082   4.165  2.6772  1.6294 -0.3784
  112SAPE  C31211715   3.021   2.922   4.285 -0.1401  0.3561  0.8919
  112SAPE  H12X11716   3.127   2.952   4.300 -0.6009  1.5638  1.8755
  112SAPE  H12Y11717   3.015   2.811   4.283 -1.4603  0.4268 -0.4326
  112SAPE  C31311718   2.933   2.976   4.392  0.0917  1.1403  0.2035
  112SAPE  H13X11719   2.838   2.921   4.379  0.5338  0.1159  1.1348
  112SAPE  H13Y11720   2.929   3.087   4.388  2.3135  1.2214 -1.3216
  112SAPE  C31411721   2.971   2.947   4.539 -0.0542  0.6273 -0.5326
  112SAPE  H14X11722   2.934   3.031   4.603 -0.5094  0.1812 -0.2056
  112SAPE  H14Y11723   3.081   2.935   4.545  0.2104  1.0656 -3.2680
  112SAPE  C31511724   2.914   2.813   4.586 -0.5111  0.7372  1.2360
  112SAPE  H15X11725   2.921   2.735   4.507  4.8607  1.4691  0.5957
  112SAPE  H15Y11726   2.806   2.832   4.597 -1.0604  0.4364 -2.3746
  112SAPE  C31611727   2.983   2.775   4.719  0.0609 -0.3175 -0.7777
  112SAPE  H16X11728   2.986   2.868   4.778  2.2347  0.1045 -1.4484
  112SAPE  H16Y11729   3.091   2.748   4.706  0.5190  0.7010  0.6777
  112SAPE  C31711730   2.912   2.659   4.797 -0.1378 -0.1235  0.1081
  112SAPE  H17X11731   2.903   2.569   4.733  0.0161 -1.6302  2.1099
  112SAPE  H17Y11732   2.808   2.696   4.808  0.1096  1.0596 -1.1976
  112SAPE  C31811733   2.973   2.632   4.932 -0.2269  0.5720 -0.2408
  112SAPE  H18X11734   3.066   2.572   4.925  0.3785  1.2587  1.3210
  112SAPE  H18Y11735   2.906   2.569   4.994 -1.3612  0.1456 -1.8256
  112SAPE  H18Z11736   2.995   2.727   4.985  0.8614  0.9347 -1.3108
  113SAPE     N11737   1.631   2.329   2.579  0.1698 -0.6165 -0.0050
  113SAPE   HN111738   1.593   2.384   2.658  0.2115  0.0424 -0.4327
  113SAPE   HN211739   1.662   2.406   2.515 -0.3473  1.2365  1.8695
  113SAPE   HN311740   1.560   2.272   2.529  1.2242 -1.5162 -0.5402
  113SAPE   C1211741   1.755   2.248   2.608 -0.4219  0.3582  0.1268
  113SAPE  H12A11742   1.804   2.209   2.517  2.0868  1.6149  0.8321
  113SAPE  H12B11743   1.719   2.154   2.655 -0.6821 -0.3483 -1.4429
  113SAPE   C1111744   1.861   2.309   2.698 -0.0415 -0.5817 -0.5966
  113SAPE  H11A11745   1.939   2.230   2.709  0.1494 -0.2214  0.9057
  113SAPE  H11B11746   1.826   2.330   2.801  1.1713  0.6067 -0.3962
  113SAPE     P11747   2.053   2.466   2.602  0.6007  0.4566  0.2653
  113SAPE   O1311748   2.101   2.381   2.490  0.0625 -0.3379  0.1338
  113SAPE   O1411749   2.053   2.610   2.573 -0.3398 -0.5535  0.0028
  113SAPE   O1211750   1.904   2.433   2.647 -1.0464  0.3323  0.4899
  113SAPE   O1111751   2.142   2.437   2.734 -0.0998  0.0245 -0.2771
  113SAPE    C111752   2.110   2.483   2.866  0.5020 -0.0509  0.2482
  113SAPE    HA11753   2.128   2.592   2.875  1.3314 -0.3033  2.1269
  113SAPE    HB11754   2.001   2.465   2.877  0.8445 -1.1875  2.1780
  113SAPE    C211755   2.183   2.399   2.984  0.3318 -0.4873  0.6725
  113SAPE    HS11756   2.127   2.389   3.078  1.0480  1.6974  1.4003
  113SAPE   O2111757   2.321   2.458   2.996  0.5650  0.4737  0.0305
  113SAPE   C2111758   2.351   2.479   3.119 -0.6127 -0.3952  0.1631
  113SAPE   O2211759   2.277   2.453   3.213 -0.4517 -0.0082  0.4248
  113SAPE   C2211760   2.490   2.536   3.122  0.1835  0.2590  0.5021
  113SAPE   H2R11761   2.545   2.504   3.031  0.2792  1.4921  0.1004
  113SAPE   H2S11762   2.489   2.647   3.120  0.5003  0.2786  1.2000
  113SAPE    C311763   2.199   2.254   2.936 -0.3081  0.1917  0.0440
  113SAPE    HX11764   2.245   2.251   2.835 -0.2043 -1.1772  0.1138
  113SAPE    HY11765   2.100   2.208   2.915 -0.2440 -0.5586  1.2665
  113SAPE   O3111766   2.304   2.187   3.015 -0.5732 -0.0044 -0.1505
  113SAPE   C3111767   2.259   2.074   3.075  0.3289  0.8912 -0.5132
  113SAPE   O3211768   2.158   2.017   3.044  0.1499  0.5075  0.4695
  113SAPE   C3211769   2.359   2.012   3.166  0.1376  0.3316 -0.0678
  113SAPE   H2X11770   2.456   2.035   3.116 -0.3772  0.0466 -1.2344
  113SAPE   H2Y11771   2.337   1.903   3.165 -0.4417  0.4451  0.2001
  113SAPE   C2311772   2.567   2.466   3.241  0.6120  0.3256  0.2825
  113SAPE   H3R11773   2.675   2.464   3.215  0.8825 -1.2776  1.4275
  113SAPE   H3S11774   2.539   2.359   3.245  0.5083  0.1299 -2.9245
  113SAPE   C2411775   2.541   2.544   3.372  0.5733 -0.6062  0.7930
  113SAPE   H4R11776   2.431   2.555   3.377  0.5776  0.4697 -0.7913
  113SAPE   H4S11777   2.585   2.645   3.364  0.6952 -0.6850  0.4689
  113SAPE   C2511778   2.600   2.476   3.490 -0.0303 -0.1398 -0.2424
  113SAPE   H5R11779   2.695   2.424   3.468 -0.5749 -1.0313 -0.5463
  113SAPE   C2611780   2.547   2.448   3.612  0.6446  0.2514  0.5482
  113SAPE   H6R11781   2.598   2.397   3.695  0.2366  0.8657  1.1892
  113SAPE   C2711782   2.414   2.503   3.651 -0.2943  0.3158  0.1806
  113SAPE   H7R11783   2.377   2.588   3.591 -0.7859  0.1488  0.2346
  113SAPE   H7S11784   2.427   2.547   3.752  1.4984  1.0610 -0.3421
  113SAPE   C2811785   2.311   2.397   3.647 -0.1788  0.5417 -0.4183
  113SAPE   H8R11786   2.248   2.399   3.557  1.2390  1.7775 -1.4244
  113SAPE   C2911787   2.281   2.306   3.741 -0.2734 -0.0067  0.4169
  113SAPE   H9R11788   2.194   2.243   3.718 -1.0899  1.4339 -0.5957
  113SAPE  C21011789   2.347   2.295   3.879 -0.1883  0.5462  0.4400
  113SAPE  H10R11790   2.457   2.283   3.874 -0.5113 -3.3629 -1.8172
  113SAPE  H10S11791   2.324   2.196   3.924  0.8807  0.8786  1.7896
  113SAPE  C21111792   2.322   2.410   3.979 -0.6495 -0.6810  0.2281
  113SAPE  H11R11793   2.367   2.506   3.951 -2.5974 -0.5711 -3.1475
  113SAPE  C21211794   2.274   2.396   4.103  0.1512  0.4894 -0.2747
  113SAPE  H12R11795   2.270   2.489   4.162 -0.8934 -0.2021  0.7935
  113SAPE  C21311796   2.235   2.264   4.161  0.5481  0.2165 -0.1217
  113SAPE  H13R11797   2.314   2.185   4.160 -0.4951 -1.2464  4.8765
  113SAPE  H13S11798   2.156   2.217   4.099  0.8389 -2.4063  1.3650
  113SAPE  C21411799   2.181   2.271   4.306  0.0328 -0.1832  1.0575
  113SAPE  H14R11800   2.072   2.277   4.316  0.1444  0.2699  2.2315
  113SAPE  C21511801   2.248   2.243   4.421 -0.3621 -0.0898 -0.4717
  113SAPE  H15R11802   2.204   2.253   4.521  0.0650  1.2202 -0.4014
  113SAPE  C21611803   2.396   2.214   4.430 -0.3514 -0.8470 -0.0649
  113SAPE  H16R11804   2.450   2.276   4.354 -1.0358 -1.7856 -1.3528
  113SAPE  H16S11805   2.420   2.114   4.388 -2.2367 -1.7703  0.9198
  113SAPE  C21711806   2.456   2.205   4.565 -0.8465  0.3825 -0.0760
  113SAPE  H17R11807   2.420   2.104   4.594  2.2119 -1.5474 -2.3349
  113SAPE  H17S11808   2.420   2.290   4.627  2.5493  0.2620  2.3065
  113SAPE  C21811809   2.609   2.214   4.562  0.3749 -0.3827  0.4934
  113SAPE  H18R11810   2.657   2.291   4.497 -0.5712  0.1850  0.4504
  113SAPE  H18S11811   2.641   2.123   4.507 -0.4511 -0.1608 -0.3840
  113SAPE  C21911812   2.685   2.250   4.693 -0.5399  0.0006  0.3502
  113SAPE  H19R11813   2.685   2.152   4.747 -3.0883 -1.0204 -1.3217
  113SAPE  H19S11814   2.619   2.321   4.746 -0.1396  0.1211  0.7008
  113SAPE  C22011815   2.830   2.298   4.667  0.4303  0.2027  0.0745
  113SAPE  H20R11816   2.876   2.300   4.768 -0.1352  0.3048  0.3347
  113SAPE  H20S11817   2.842   2.397   4.617 -0.3296  0.2328 -0.0618
  113SAPE  H20T11818   2.887   2.217   4.616 -0.5219  1.0203 -2.4135
  113SAPE   C3311819   2.348   2.068   3.311 -0.1022  0.4666  0.1539
  113SAPE   H3X11820   2.244   2.052   3.347 -0.0844 -1.1796 -0.4293
  113SAPE   H3Y11821   2.378   2.174   3.326  0.7185  0.0984  1.2405
  113SAPE   C3411822   2.435   1.981   3.401  0.3381  0.3881  0.0681
  113SAPE   H4X11823   2.533   1.970   3.349  1.4642  0.2605  2.1466
  113SAPE   H4Y11824   2.387   1.881   3.403  0.8739  0.1351  2.2186
  113SAPE   C3511825   2.450   2.040   3.544  0.0371  0.2251  0.4494
  113SAPE   H5X11826   2.347   2.041   3.586  0.7824 -1.8693  2.5523
  113SAPE   H5Y11827   2.489   2.142   3.527 -1.7741  0.8969  0.1533
  113SAPE   C3611828   2.545   1.966   3.631 -0.0195 -0.0771  0.1579
  113SAPE   H6X11829   2.649   1.998   3.607 -1.1735  1.0433 -4.2229
  113SAPE   H6Y11830   2.535   1.858   3.608 -2.0161  0.1114  0.0368
  113SAPE   C3711831   2.519   1.993   3.783 -0.3852  0.1067 -0.7432
  113SAPE   H7X11832   2.411   2.003   3.806 -0.2084  0.8293 -0.1944
  113SAPE   H7Y11833   2.555   2.095   3.808 -1.3131  0.1878  0.3451
  113SAPE   C3811834   2.589   1.886   3.865 -0.6146  0.0460 -0.1752
  113SAPE   H8X11835   2.535   1.791   3.843 -0.6763  0.1024 -0.2696
  113SAPE   H8Y11836   2.690   1.882   3.820 -1.2474 -1.2316 -1.5571
  113SAPE   C3911837   2.601   1.921   4.012 -0.4491  0.0581 -0.0014
  113SAPE   H9X11838   2.616   1.823   4.062 -0.4588  0.5018  0.8990
  113SAPE   H9Y11839   2.514   1.978   4.051 -1.4618 -1.3743 -0.0663
  113SAPE  C31011840   2.730   1.988   4.046  0.3696 -0.4349  0.5040
  113SAPE  H10X11841   2.716   2.096   4.027 -0.9852 -0.9560 -1.9437
  113SAPE  H10Y11842   2.810   1.940   3.985  0.3528 -0.3040  0.3778
  113SAPE  C31111843   2.758   1.965   4.192  0.5215 -0.0429 -0.3513
  113SAPE  H11X11844   2.740   1.858   4.217  0.3805 -0.3106 -1.5158
  113SAPE  H11Y11845   2.682   2.018   4.253 -0.0815  0.4384 -1.4983
  113SAPE  C31211846   2.907   1.996   4.223 -0.2773  0.4065  0.1468
  113SAPE  H12X11847   2.924   2.106   4.222  0.9373  0.2299  0.4893
  113SAPE  H12Y11848   2.966   1.945   4.144 -1.0862 -0.5896  0.1753
  113SAPE  C31311849   2.960   1.956   4.360  1.0335  0.2056  0.3500
  113SAPE  H13X11850   2.915   1.857   4.383  0.0059  0.9201  1.6187
  113SAPE  H13Y11851   2.921   2.012   4.448  2.7825  1.3344  0.4596
  113SAPE  C31411852   3.111   1.954   4.377 -0.2718  0.0689 -1.1659
  113SAPE  H14X11853   3.149   2.058   4.370 -0.2998  0.0977 -0.8953
  113SAPE  H14Y11854   3.153   1.890   4.296  0.8056 -2.8008  1.4545
  113SAPE  C31511855   3.153   1.899   4.514 -0.2397  0.2522  0.3936
  113SAPE  H15X11856   3.262   1.878   4.519 -0.0819  1.0795  0.5322
  113SAPE  H15Y11857   3.102   1.806   4.548  0.3733  0.0425  0.7495
  113SAPE  C31611858   3.117   2.004   4.624 -0.7575 -0.3731 -0.4299
  113SAPE  H16X11859   3.008   2.011   4.641 -0.5454 -0.4997  1.0646
  113SAPE  H16Y11860   3.157   2.104   4.596  1.7968 -1.8491 -2.5978
  113SAPE  C31711861   3.172   1.968   4.756  0.4729 -0.3852 -0.2579
  113SAPE  H17X11862   3.160   1.859   4.776  0.7767 -0.9599 -2.8557
  113SAPE  H17Y11863   3.117   2.025   4.834 -1.3347 -0.4331 -1.4504
  113SAPE  C31811864   3.316   2.014   4.772 -0.0560 -0.0757 -0.3307
  113SAPE  H18X11865   3.385   1.986   4.690 -0.3812  0.9959 -1.0001
  113SAPE  H18Y11866   3.339   1.985   4.877 -2.6845  0.3061  0.4381
  113SAPE  H18Z11867   3.321   2.125   4.769  2.1211 -0.0208  1.9319
  114SAPE     N11868   5.481   1.642   2.195  0.1620  0.1152 -0.7446
  114SAPE   HN111869   5.501   1.632   2.297  1.2730 -1.7912 -1.1203
  114SAPE   HN211870   5.498   1.546   2.159  0.5039 -0.2951  0.4709
  114SAPE   HN311871   5.548   1.700   2.141 -0.9941  1.2952 -0.9789
  114SAPE   C1211872   5.334   1.680   2.180 -0.6367  0.0105 -0.4431
  114SAPE  H12A11873   5.277   1.595   2.222  0.2137 -1.5508 -2.2873
  114SAPE  H12B11874   5.303   1.687   2.073 -0.9348 -1.5043 -0.4742
  114SAPE   C1111875   5.302   1.810   2.261  0.2101  0.2773 -0.0576
  114SAPE  H11A11876   5.362   1.898   2.230 -0.9747  0.9698 -0.4369
  114SAPE  H11B11877   5.337   1.785   2.363  2.2446 -0.3484 -0.8556
  114SAPE     P11878   5.092   1.948   2.347  0.2086  0.1639 -0.6281
  114SAPE   O1311879   5.141   2.080   2.312  0.0505  0.3182  0.6783
  114SAPE   O1411880   4.945   1.929   2.337 -0.4293  0.2724 -0.6394
  114SAPE   O1211881   5.158   1.840   2.257  0.2386  0.4146 -0.3655
  114SAPE   O1111882   5.135   1.904   2.495  0.3277 -0.1006  1.2124
  114SAPE    C111883   5.067   1.783   2.546  0.0815  0.1941 -0.1850
  114SAPE    HA11884   4.957   1.795   2.546  0.0124  0.0363  2.5184
  114SAPE    HB11885   5.094   1.690   2.490  1.4156 -0.9899  2.2635
  114SAPE    C211886   5.102   1.756   2.695 -0.2932  0.5920 -0.2102
  114SAPE    HS11887   5.064   1.655   2.719 -0.0116  0.9757  2.0638
  114SAPE   O2111888   5.024   1.840   2.781  0.5251 -0.0654  0.0796
  114SAPE   C2111889   4.901   1.804   2.822 -0.1746 -1.1128  0.1346
  114SAPE   O2211890   4.850   1.697   2.792  0.0429  0.8826 -0.1943
  114SAPE   C2211891   4.832   1.914   2.896 -0.3490  0.0448  0.1495
  114SAPE   H2R11892   4.857   2.015   2.858 -0.3580  0.7969  2.0391
  114SAPE   H2S11893   4.726   1.903   2.866 -1.0490  1.7108  1.8211
  114SAPE    C311894   5.251   1.759   2.731 -0.0962  0.5436 -0.3527
  114SAPE    HX11895   5.294   1.853   2.689  2.0284 -0.0527  0.3428
  114SAPE    HY11896   5.294   1.666   2.689  0.7336  0.8678 -0.2536
  114SAPE   O3111897   5.280   1.733   2.872 -0.3469  0.4029  0.6174
  114SAPE   C3111898   5.330   1.833   2.940 -0.6769  0.3668 -1.0325
  114SAPE   O3211899   5.324   1.950   2.905 -0.1439 -0.0277  0.0146
  114SAPE   C3211900   5.399   1.782   3.066 -0.6527 -0.0309  0.6273
  114SAPE   H2X11901   5.493   1.733   3.034 -0.2187  0.7072  0.7363
  114SAPE   H2Y11902   5.333   1.699   3.100 -1.3600  0.4282  0.4170
  114SAPE   C2311903   4.839   1.907   3.049 -0.0996  0.1621  0.0447
  114SAPE   H3R11904   4.787   1.815   3.082 -1.6577  0.8124 -0.5042
  114SAPE   H3S11905   4.784   1.997   3.085 -0.2911  1.0733 -2.3706
  114SAPE   C2411906   4.984   1.907   3.099 -0.8093 -0.4620  0.9520
  114SAPE   H4R11907   5.054   1.836   3.051  1.9162  2.3986  0.3457
  114SAPE   H4S11908   4.969   1.878   3.205 -0.9634  3.0465  2.0289
  114SAPE   C2511909   5.057   2.038   3.096 -0.2082 -0.0221 -0.3592
  114SAPE   H5R11910   5.112   2.060   3.004  2.3204 -2.1098  0.5243
  114SAPE   C2611911   5.069   2.126   3.196 -0.2631 -0.5810 -0.3813
  114SAPE   H6R11912   5.128   2.216   3.175 -0.8898  0.1943  1.0684
  114SAPE   C2711913   5.004   2.135   3.334  0.1901 -0.3263 -0.3819
  114SAPE   H7R11914   5.063   2.120   3.427 -0.3811 -1.4642 -0.1788
  114SAPE   H7S11915   4.935   2.048   3.341 -1.0549  0.6734  0.1399
  114SAPE   C2811916   4.919   2.259   3.337  0.8351 -0.0953 -0.2734
  114SAPE   H8R11917   4.863   2.276   3.244 -1.4675 -2.4213  0.5636
  114SAPE   C2911918   4.889   2.341   3.437 -0.1734 -0.0251 -0.3481
  114SAPE   H9R11919   4.811   2.416   3.422 -1.2991 -1.0326  0.2443
  114SAPE  C21011920   4.931   2.320   3.578  0.2811  0.1130 -0.4021
  114SAPE  H10R11921   4.994   2.408   3.602  0.8864  0.2589 -2.3795
  114SAPE  H10S11922   5.010   2.244   3.589 -1.1284 -1.3615 -0.0520
  114SAPE  C21111923   4.817   2.307   3.673  0.2105  0.1166 -0.3846
  114SAPE  H11R11924   4.717   2.331   3.635 -0.8820  0.4318  2.4576
  114SAPE  C21211925   4.827   2.300   3.809 -0.1983 -0.0998  0.7753
  114SAPE  H12R11926   4.735   2.297   3.870 -0.9162 -1.4403 -0.3188
  114SAPE  C21311927   4.948   2.295   3.889 -0.2107  0.3168 -0.0618
  114SAPE  H13R11928   5.038   2.258   3.835  0.6633 -0.2187  1.7049
  114SAPE  H13S11929   4.944   2.219   3.969  1.5438  1.0339  0.7768
  114SAPE  C21411930   4.989   2.418   3.961  0.5942  0.0816  0.2717
  114SAPE  H14R11931   4.959   2.510   3.910 -0.6080  0.2278  1.1872
  114SAPE  C21511932   5.045   2.437   4.081 -0.1789  0.4925 -0.0975
  114SAPE  H15R11933   5.065   2.541   4.111  0.4576  0.6311 -0.9792
  114SAPE  C21611934   5.093   2.329   4.176 -0.2303  0.0388 -0.8484
  114SAPE  H16R11935   5.175   2.367   4.241  0.5871 -1.6481 -0.8224
  114SAPE  H16S11936   5.124   2.237   4.121 -0.7312  0.6056 -2.1042
  114SAPE  C21711937   4.969   2.296   4.268 -0.6448 -0.4837  0.4115
  114SAPE  H17R11938   4.904   2.229   4.208 -0.0218 -1.4624  0.7893
  114SAPE  H17S11939   4.917   2.393   4.281  1.1915  0.4252  1.3258
  114SAPE  C21811940   5.009   2.239   4.407  0.2377 -0.1028  0.2288
  114SAPE  H18R11941   5.070   2.306   4.471 -1.0345 -1.9989  3.7305
  114SAPE  H18S11942   5.084   2.162   4.379  1.0850  1.4651 -2.0958
  114SAPE  C21911943   4.897   2.181   4.481 -0.1099 -0.6447  0.1941
  114SAPE  H19R11944   4.959   2.127   4.555  1.2967  1.0068  0.2710
  114SAPE  H19S11945   4.829   2.113   4.424  0.3378  0.8768 -2.3224
  114SAPE  C22011946   4.816   2.291   4.541  0.0979 -0.2226 -0.2924
  114SAPE  H20R11947   4.723   2.245   4.582 -0.1409  0.3553 -0.1686
  114SAPE  H20S11948   4.790   2.363   4.461 -0.0695 -1.3228 -1.2502
  114SAPE  H20T11949   4.867   2.344   4.624  0.6891  3.2887 -2.6735
  114SAPE   C3311950   5.422   1.874   3.191 -0.4212  0.3713  0.3787
  114SAPE   H3X11951   5.321   1.910   3.222 -1.1736 -1.6981  0.4783
  114SAPE   H3Y11952   5.487   1.959   3.162 -2.0302  1.3308 -0.5516
  114SAPE   C3411953   5.483   1.795   3.313  0.5912 -0.3067 -0.0728
  114SAPE   H4X11954   5.593   1.803   3.322  0.6443 -0.3080 -0.6987
  114SAPE   H4Y11955   5.443   1.693   3.293  2.4020 -1.2973  1.0578
  114SAPE   C3511956   5.427   1.840   3.450 -0.5352 -0.2318  0.9886
  114SAPE   H5X11957   5.317   1.851   3.461 -0.8342 -1.3140 -0.5333
  114SAPE   H5Y11958   5.472   1.937   3.481  0.7963 -0.8380  1.0210
  114SAPE   C3611959   5.467   1.731   3.547  0.3095 -0.1084  0.6282
  114SAPE   H6X11960   5.578   1.727   3.534  0.1551  0.0744 -0.8669
  114SAPE   H6Y11961   5.447   1.628   3.512 -0.7246 -0.5240  2.3056
  114SAPE   C3711962   5.407   1.750   3.687  0.8262  0.2607 -0.1490
  114SAPE   H7X11963   5.404   1.655   3.743 -0.4017  1.0279  1.1492
  114SAPE   H7Y11964   5.304   1.792   3.688  0.5009 -0.4840 -0.7952
  114SAPE   C3811965   5.492   1.838   3.775 -0.0122  0.4677 -0.0385
  114SAPE   H8X11966   5.473   1.945   3.748  2.2861  0.6816 -1.0586
  114SAPE   H8Y11967   5.601   1.819   3.764 -0.3015 -0.7922 -1.0138
  114SAPE   C3911968   5.455   1.821   3.923  0.6379 -0.0077  0.7491
  114SAPE   H9X11969   5.439   1.715   3.954 -0.1499 -0.0050  0.3681
  114SAPE   H9Y11970   5.362   1.876   3.946  0.3801 -0.4414  0.7521
  114SAPE  C31011971   5.554   1.893   4.015  0.0825  0.3221 -0.0345
  114SAPE  H10X11972   5.558   1.991   3.963  0.7647  1.1231  1.4648
  114SAPE  H10Y11973   5.654   1.845   4.011  1.1036  2.4040 -2.7665
  114SAPE  C31111974   5.508   1.906   4.158 -0.8761 -0.2552  0.2624
  114SAPE  H11X11975   5.490   1.803   4.196 -1.4707 -0.0083  0.6683
  114SAPE  H11Y11976   5.417   1.970   4.156 -1.0472 -0.5169 -0.2447
  114SAPE  C31211977   5.625   1.973   4.228 -0.1102  0.2539 -0.3783
  114SAPE  H12X11978   5.657   2.063   4.171  0.0737 -0.7577 -1.9244
  114SAPE  H12Y11979   5.708   1.899   4.234 -0.5349 -0.3028 -1.1242
  114SAPE  C31311980   5.601   2.021   4.377 -0.2292  0.3186 -0.2268
  114SAPE  H13X11981   5.699   2.064   4.407 -0.0438  1.1094 -1.8437
  114SAPE  H13Y11982   5.573   1.934   4.439  1.0123  0.4068  0.4938
  114SAPE  C31411983   5.494   2.131   4.382  0.6543 -0.7228 -0.2620
  114SAPE  H14X11984   5.396   2.090   4.348  1.7658 -3.4760 -0.3259
  114SAPE  H14Y11985   5.534   2.211   4.315 -0.6176  1.8984  1.9036
  114SAPE  C31511986   5.485   2.194   4.522 -0.1389 -0.5979  0.1380
  114SAPE  H15X11987   5.585   2.234   4.547 -0.7085  1.1418 -0.2286
  114SAPE  H15Y11988   5.452   2.116   4.593 -1.7326  0.4775  0.6342
  114SAPE  C31611989   5.396   2.316   4.535  0.3285  0.0873  0.1338
  114SAPE  H16X11990   5.310   2.295   4.467  0.8394 -1.7468 -0.0164
  114SAPE  H16Y11991   5.458   2.399   4.498  0.6935 -0.3844 -0.3268
  114SAPE  C31711992   5.348   2.337   4.677  0.2089 -0.5416 -0.3631
  114SAPE  H17X11993   5.430   2.333   4.752  1.5381  0.7958 -1.6622
  114SAPE  H17Y11994   5.272   2.264   4.711 -0.5905  1.1101  1.6117
  114SAPE  C31811995   5.281   2.469   4.700  0.4924 -0.1897  0.2666
  114SAPE  H18X11996   5.273   2.500   4.807  0.7402  1.9658 -0.2945
  114SAPE  H18Y11997   5.178   2.464   4.660  0.5662  2.5511 -0.4209
  114SAPE  H18Z11998   5.337   2.543   4.639 -1.2841  0.2151 -0.9471
  115SAPE     N11999   3.483   4.279   2.673  0.3027  0.3616  0.0731
  115SAPE   HN112000   3.507   4.321   2.581 -0.7599 -0.9309 -0.8214
  115SAPE   HN212001   3.484   4.177   2.655 -3.5976  0.2842 -0.4730
  115SAPE   HN312002   3.387   4.315   2.692 -0.1437  0.9943 -2.8065
  115SAPE   C1212003   3.574   4.298   2.786  0.0284 -1.3662 -0.2013
  115SAPE  H12A12004   3.542   4.241   2.876 -2.4272  0.9884  0.5504
  115SAPE  H12B12005   3.544   4.402   2.813 -0.6559 -1.6430  0.1219
  115SAPE   C1112006   3.722   4.293   2.740  0.0996  0.2065 -0.5247
  115SAPE  H11A12007   3.793   4.308   2.824  0.6338 -0.5164 -0.8300
  115SAPE  H11B12008   3.745   4.374   2.666 -2.3875  1.4931  0.0219
  115SAPE     P12009   3.873   4.113   2.642 -0.0702  0.0213 -0.3580
  115SAPE   O1312010   3.865   4.059   2.507 -0.0738  0.1463  0.3532
  115SAPE   O1412011   3.975   4.212   2.666 -0.1252  0.4946 -0.7378
  115SAPE   O1212012   3.733   4.166   2.682 -0.3293  0.4260  0.6278
  115SAPE   O1112013   3.902   3.994   2.745 -0.3282 -0.0328 -0.1280
  115SAPE    C112014   3.796   3.917   2.801  0.2593 -0.4114  0.1816
  115SAPE    HA12015   3.703   3.912   2.740 -1.0680 -0.8006  2.1415
  115SAPE    HB12016   3.824   3.810   2.803 -0.7629 -0.7849 -2.1195
  115SAPE    C212017   3.752   3.948   2.939 -0.3426 -0.4082 -0.4028
  115SAPE    HS12018   3.686   4.037   2.940 -2.2837 -1.7781  1.9759
  115SAPE   O2112019   3.878   3.971   3.012  0.3431 -0.4683  0.4862
  115SAPE   C2112020   3.874   4.073   3.094 -0.3721  0.0206  0.0521
  115SAPE   O2212021   3.779   4.152   3.105 -0.6062 -0.4414 -0.0157
  115SAPE   C2212022   4.007   4.071   3.172  0.4784  0.6397 -0.1898
  115SAPE   H2R12023   4.026   3.969   3.211  0.1468  0.9320  0.7769
  115SAPE   H2S12024   4.089   4.096   3.101 -0.2107  0.3670 -1.1033
  115SAPE    C312025   3.673   3.828   2.994  0.2835 -0.2687 -0.5587
  115SAPE    HX12026   3.724   3.734   2.961  2.6162  0.8648 -0.4301
  115SAPE    HY12027   3.579   3.831   2.935  0.3310  2.7333 -0.5958
  115SAPE   O3112028   3.658   3.828   3.135  0.2686  0.6783  0.2693
  115SAPE   C3112029   3.546   3.886   3.179 -0.3020 -0.4205  0.0460
  115SAPE   O3212030   3.453   3.927   3.114  0.3102 -0.1411 -0.5877
  115SAPE   C3212031   3.551   3.904   3.339 -0.7875  0.4486  0.1468
  115SAPE   H2X12032   3.471   3.837   3.378 -0.4412 -0.7229 -1.0458
  115SAPE   H2Y12033   3.520   4.010   3.349 -0.0339  0.5240  2.1073
  115SAPE   C2312034   3.996   4.188   3.271 -0.0425  0.2629 -0.0925
  115SAPE   H3R12035   3.896   4.189   3.319 -0.9623 -2.7394 -1.6814
  115SAPE   H3S12036   4.010   4.282   3.213 -0.8757 -0.0319 -0.7962
  115SAPE   C2412037   4.108   4.176   3.377 -0.2525 -0.1473 -0.1445
  115SAPE   H4R12038   4.133   4.279   3.412  1.6504 -1.2042  1.8479
  115SAPE   H4S12039   4.198   4.133   3.328 -0.0116  1.4960 -1.2340
  115SAPE   C2512040   4.063   4.090   3.479  0.8877  0.3877  0.9905
  115SAPE   H5R12041   4.065   3.983   3.456 -4.2955  0.6776 -2.6220
  115SAPE   C2612042   4.004   4.132   3.596 -0.4581  0.3123 -0.0010
  115SAPE   H6R12043   3.968   4.060   3.671 -1.5997 -0.3687 -1.1735
  115SAPE   C2712044   3.985   4.270   3.649  0.3786 -0.2467  0.6564
  115SAPE   H7R12045   3.941   4.341   3.575 -1.3813 -0.9096  1.0213
  115SAPE   H7S12046   4.082   4.321   3.665  0.3903  0.0745 -0.3645
  115SAPE   C2812047   3.904   4.287   3.776  0.5202 -0.0981 -0.0791
  115SAPE   H8R12048   3.802   4.320   3.753 -0.8457 -2.9390  1.4481
  115SAPE   C2912049   3.940   4.288   3.902 -0.0235  0.0954 -0.6532
  115SAPE   H9R12050   3.866   4.299   3.982  0.2659  0.6211 -0.4512
  115SAPE  C21012051   4.088   4.260   3.953 -0.0914 -0.3240 -0.7489
  115SAPE  H10R12052   4.157   4.323   3.893  0.9537 -0.2482  0.4940
  115SAPE  H10S12053   4.111   4.153   3.935  1.4067 -0.1857  0.2075
  115SAPE  C21112054   4.101   4.282   4.102  0.6461  0.1261  0.2443
  115SAPE  H11R12055   4.046   4.210   4.165  0.7137 -0.0569  0.0942
  115SAPE  C21212056   4.153   4.389   4.167  0.9082 -0.9518 -0.1060
  115SAPE  H12R12057   4.147   4.385   4.277  3.0667 -0.4556  0.0772
  115SAPE  C21312058   4.197   4.520   4.119 -0.3947  0.7686  0.2972
  115SAPE  H13R12059   4.259   4.490   4.031  0.0489 -2.4764  1.5665
  115SAPE  H13S12060   4.264   4.565   4.196 -0.4352 -0.4582  1.0770
  115SAPE  C21412061   4.087   4.612   4.073  0.0881  0.4364 -0.4075
  115SAPE  H14R12062   4.021   4.654   4.151  1.4923 -0.4429  1.3329
  115SAPE  C21512063   4.067   4.665   3.956  0.6498  0.1719  0.8738
  115SAPE  H15R12064   3.983   4.734   3.939  2.0714  1.4386 -1.7614
  115SAPE  C21612065   4.147   4.644   3.827 -0.4520  0.0387  0.3265
  115SAPE  H16R12066   4.096   4.581   3.750  0.7683  1.5871 -1.8279
  115SAPE  H16S12067   4.234   4.578   3.849 -0.4728  0.5549  2.0734
  115SAPE  C21712068   4.205   4.772   3.763 -0.4301  0.2726 -0.7858
  115SAPE  H17R12069   4.268   4.734   3.680  1.7186  0.7860  0.5501
  115SAPE  H17S12070   4.276   4.826   3.830  1.9255 -1.1589 -2.0060
  115SAPE  C21812071   4.100   4.867   3.706 -0.3301 -0.3840 -0.4442
  115SAPE  H18R12072   4.046   4.906   3.795 -0.4605 -0.4257 -0.5044
  115SAPE  H18S12073   4.030   4.799   3.653  2.0867 -1.8576 -1.9223
  115SAPE  C21912074   4.157   4.975   3.614  0.1610  0.1290 -0.6303
  115SAPE  H19R12075   4.246   4.930   3.565  0.1987  1.4127 -1.8429
  115SAPE  H19S12076   4.195   5.065   3.667  0.8968 -0.2787 -0.4487
  115SAPE  C22012077   4.071   5.025   3.492 -0.2494 -0.0868 -0.4266
  115SAPE  H20R12078   4.026   4.948   3.426  3.1596 -0.8443 -2.1240
  115SAPE  H20S12079   4.130   5.094   3.429 -1.8099  0.3381 -1.4764
  115SAPE  H20T12080   3.999   5.101   3.528  1.0357  0.5030  1.0402
  115SAPE   C3312081   3.687   3.877   3.412 -0.2487  0.8531  0.0625
  115SAPE   H3X12082   3.764   3.938   3.360 -1.0132  0.6178 -1.4178
  115SAPE   H3Y12083   3.715   3.770   3.421 -1.2221  0.6655  0.9537
  115SAPE   C3412084   3.680   3.919   3.554  0.3527  0.6389  0.0126
  115SAPE   H4X12085   3.662   4.028   3.567  2.4216  1.1581 -1.0363
  115SAPE   H4Y12086   3.782   3.915   3.598 -0.3438 -1.9615  1.6002
  115SAPE   C3512087   3.598   3.825   3.637 -0.4559 -0.1684  0.1284
  115SAPE   H5X12088   3.655   3.731   3.649  1.5014  0.8925 -0.4975
  115SAPE   H5Y12089   3.497   3.805   3.595  0.1083 -2.2249 -0.3324
  115SAPE   C3612090   3.584   3.889   3.780  1.1075  0.5909 -0.2691
  115SAPE   H6X12091   3.530   3.985   3.764  0.8247  0.3542 -0.7403
  115SAPE   H6Y12092   3.680   3.922   3.826 -0.1792  2.3495  1.3312
  115SAPE   C3712093   3.517   3.790   3.882  0.0534  0.1667 -0.9798
  115SAPE   H7X12094   3.582   3.701   3.891  1.5324  1.1497 -1.5324
  115SAPE   H7Y12095   3.423   3.760   3.832 -0.1776 -0.2258 -0.3188
  115SAPE   C3812096   3.490   3.856   4.019  0.1187  0.4597 -0.8093
  115SAPE   H8X12097   3.425   3.943   3.993  0.0897 -0.4341 -4.1851
  115SAPE   H8Y12098   3.584   3.891   4.067 -0.0312  0.5388 -0.5674
  115SAPE   C3912099   3.411   3.771   4.113 -0.1008 -0.2687  0.1086
  115SAPE   H9X12100   3.478   3.695   4.158 -0.9174 -1.4707 -0.6416
  115SAPE   H9Y12101   3.327   3.720   4.061  0.6279 -1.4580  0.0798
  115SAPE  C31012102   3.349   3.844   4.237 -0.1661 -0.3706  0.3178
  115SAPE  H10X12103   3.295   3.933   4.199 -1.0841 -0.6976  0.8067
  115SAPE  H10Y12104   3.429   3.881   4.304 -2.0850  1.2812  1.8683
  115SAPE  C31112105   3.248   3.764   4.322 -0.3488 -0.5789 -0.2268
  115SAPE  H11X12106   3.292   3.669   4.358 -0.0642  0.0129  1.0293
  115SAPE  H11Y12107   3.159   3.752   4.256 -0.5783  0.6120 -0.1587
  115SAPE  C31212108   3.199   3.841   4.454  0.0627 -0.0325  0.1097
  115SAPE  H12X12109   3.109   3.786   4.490  1.5345 -1.1207  2.3480
  115SAPE  H12Y12110   3.178   3.947   4.425  1.1929  0.2679  0.3320
  115SAPE  C31312111   3.294   3.832   4.572  0.3518  0.3223  0.3705
  115SAPE  H13X12112   3.389   3.886   4.552  0.0896  1.2080  1.4076
  115SAPE  H13Y12113   3.310   3.722   4.578 -1.2760  0.0506  0.1510
  115SAPE  C31412114   3.219   3.874   4.703 -0.4540 -0.3512 -0.7031
  115SAPE  H14X12115   3.126   3.814   4.717 -1.2807  1.0792  0.2256
  115SAPE  H14Y12116   3.181   3.977   4.682  2.8805  1.0058 -0.6688
  115SAPE  C31512117   3.309   3.863   4.836 -0.0478 -0.9936 -0.1883
  115SAPE  H15X12118   3.395   3.930   4.816  0.0288 -0.9485  0.2690
  115SAPE  H15Y12119   3.328   3.756   4.861  0.6915 -0.6194  0.9609
  115SAPE  C31612120   3.237   3.914   4.968 -0.4152 -0.9310 -0.4551
  115SAPE  H16X12121   3.155   3.848   5.005 -0.8414  0.3909  1.0403
  115SAPE  H16Y12122   3.196   4.015   4.949  2.0142  0.3756  0.8949
  115SAPE  C31712123   3.327   3.934   5.094 -0.0223 -0.0984 -0.5087
  115SAPE  H17X12124   3.412   4.001   5.070  1.2563 -0.6652  2.0466
  115SAPE  H17Y12125   3.380   3.841   5.125 -0.0302  0.8007  2.5021
  115SAPE  C31812126   3.241   3.982   5.205  0.2606 -0.1435 -0.3502
  115SAPE  H18X12127   3.131   3.964   5.197  0.0511 -0.2401  2.0702
  115SAPE  H18Y12128   3.256   4.092   5.207  3.1891 -0.4593 -1.3721
  115SAPE  H18Z12129   3.265   3.938   5.304 -0.3575 -1.7099 -0.8489
  116SAPE     N12130   3.305   0.230   2.455  0.1840  0.1427 -0.8725
  116SAPE   HN112131   3.388   0.183   2.497  0.4592  0.9217 -0.5292
  116SAPE   HN212132   3.338   0.303   2.388  1.0533  1.5111  0.9639
  116SAPE   HN312133   3.246   0.280   2.524 -0.5557  0.9228 -2.0382
  116SAPE   C1212134   3.226   0.136   2.370 -0.1097 -0.4098 -0.1637
  116SAPE  H12A12135   3.240   0.032   2.406  1.2384 -1.0415 -2.3411
  116SAPE  H12B12136   3.275   0.141   2.271 -1.9157 -0.0882 -1.0913
  116SAPE   C1112137   3.080   0.185   2.356 -0.3455  0.0030 -0.1247
  116SAPE  H11A12138   3.033   0.120   2.279 -0.8051 -1.5754  1.3956
  116SAPE  H11B12139   3.091   0.290   2.322  0.5972 -0.3184 -0.8499
  116SAPE     P12140   2.909   0.095   2.529  0.4725  0.1335  0.0682
  116SAPE   O1312141   2.860   0.154   2.659 -0.0651  0.4204  1.2436
  116SAPE   O1412142   2.818   0.079   2.413 -0.3040 -1.2419 -0.1117
  116SAPE   O1212143   3.029   0.186   2.485  0.9264  0.7041  0.4389
  116SAPE   O1112144   2.967  -0.044   2.571  0.1670  0.3058 -0.0369
  116SAPE    C112145   3.003  -0.150   2.481  1.1902 -0.3088  0.6243
  116SAPE    HA12146   2.935  -0.160   2.394  0.2919 -0.1701  1.2945
  116SAPE    HB12147   3.110  -0.141   2.454  1.3581 -0.2741  1.2947
  116SAPE    C212148   2.988  -0.291   2.548  0.3848 -0.1162 -0.2614
  116SAPE    HS12149   2.880  -0.315   2.557 -0.1153  1.7548 -0.8357
  116SAPE   O2112150   3.047  -0.288   2.678  0.8719 -0.5984 -0.7156
  116SAPE   C2112151   2.958  -0.276   2.774  0.1973 -0.3131 -0.0241
  116SAPE   O2212152   2.835  -0.271   2.761  0.1137  0.2441  0.1225
  116SAPE   C2212153   3.033  -0.257   2.905 -0.4874  0.1579  0.3786
  116SAPE   H2R12154   3.098  -0.345   2.919  0.7837  0.5152 -2.6721
  116SAPE   H2S12155   3.099  -0.170   2.885 -0.8209 -0.0652 -1.9477
  116SAPE    C312156   3.049  -0.412   2.469  1.1291 -0.4715 -0.0610
  116SAPE    HX12157   3.158  -0.395   2.461  1.2796 -1.7726 -1.2027
  116SAPE    HY12158   3.021  -0.406   2.361 -0.5531  1.1352  0.4135
  116SAPE   O3112159   3.018  -0.535   2.532 -1.0344  0.7421  0.0783
  116SAPE   C3112160   2.893  -0.580   2.511 -0.3672 -0.5388 -0.0253
  116SAPE   O3212161   2.812  -0.520   2.448  0.5443  0.2007  0.6285
  116SAPE   C3212162   2.869  -0.704   2.601 -0.1250  0.3829 -0.8875
  116SAPE   H2X12163   2.952  -0.777   2.613 -0.4065  0.3613  1.3988
  116SAPE   H2Y12164   2.787  -0.761   2.552  0.0226 -0.9284  0.3095
  116SAPE   C2312165   2.940  -0.232   3.027  0.0111  0.3659 -0.0993
  116SAPE   H3R12166   2.899  -0.332   3.051  2.0400 -0.6985 -0.8060
  116SAPE   H3S12167   2.861  -0.156   3.008 -0.6629  0.1925  1.8397
  116SAPE   C2412168   3.024  -0.179   3.141 -0.1380 -0.2216 -0.1956
  116SAPE   H4R12169   3.076  -0.088   3.105  0.5301 -0.9426 -1.1237
  116SAPE   H4S12170   3.102  -0.253   3.171  0.7868  0.8836  0.1744
  116SAPE   C2512171   2.943  -0.153   3.261 -0.0352  0.5600 -0.0686
  116SAPE   H5R12172   2.872  -0.070   3.253 -1.7815 -0.8182  0.5315
  116SAPE   C2612173   2.930  -0.233   3.373  0.3100 -0.1574  0.3472
  116SAPE   H6R12174   2.862  -0.201   3.454 -0.9122 -0.5836 -0.4745
  116SAPE   C2712175   2.999  -0.357   3.412 -0.1231  0.1376 -0.0280
  116SAPE   H7R12176   3.025  -0.343   3.519  0.0148 -0.3800  0.0104
  116SAPE   H7S12177   3.100  -0.369   3.369  0.9556  1.1503  2.0648
  116SAPE   C2812178   2.922  -0.484   3.395 -0.6364 -0.8247 -0.1158
  116SAPE   H8R12179   2.890  -0.513   3.294 -0.7899 -0.1440 -0.2683
  116SAPE   C2912180   2.885  -0.566   3.496  0.2922 -0.3820 -0.0595
  116SAPE   H9R12181   2.847  -0.664   3.466  1.0614 -1.1926  1.4799
  116SAPE  C21012182   2.915  -0.554   3.640 -0.8278 -0.2758  0.7173
  116SAPE  H10R12183   2.995  -0.479   3.660  0.0228 -0.7243 -0.8333
  116SAPE  H10S12184   2.945  -0.651   3.685 -0.2684  0.0189  0.9901
  116SAPE  C21112185   2.796  -0.507   3.726  0.0001 -0.0621  0.9377
  116SAPE  H11R12186   2.698  -0.523   3.679  0.9597 -0.3534 -1.0595
  116SAPE  C21212187   2.797  -0.431   3.833 -0.4015  1.2373 -0.2532
  116SAPE  H12R12188   2.704  -0.393   3.877 -0.0127 -0.1111  1.8844
  116SAPE  C21312189   2.917  -0.392   3.916 -0.4514 -0.4008  0.5504
  116SAPE  H13R12190   2.907  -0.283   3.938 -0.1671 -0.5891  1.6799
  116SAPE  H13S12191   3.002  -0.390   3.845 -1.6035  1.6807 -0.8885
  116SAPE  C21412192   2.947  -0.478   4.037 -0.1967  0.2888  0.2686
  116SAPE  H14R12193   2.896  -0.574   4.056  1.6992 -0.5783  1.3292
  116SAPE  C21512194   3.033  -0.438   4.135  0.1344 -0.8784 -0.1834
  116SAPE  H15R12195   3.033  -0.498   4.227 -3.5693 -0.9922 -0.1037
  116SAPE  C21612196   3.107  -0.307   4.132  0.2421  0.6741  0.3194
  116SAPE  H16R12197   3.044  -0.223   4.094 -0.1473  0.4653  0.4937
  116SAPE  H16S12198   3.194  -0.319   4.064 -0.7693 -0.0753 -0.9099
  116SAPE  C21712199   3.163  -0.263   4.269 -0.0469  0.3974 -0.1833
  116SAPE  H17R12200   3.078  -0.251   4.341  0.3504 -0.2059  0.4043
  116SAPE  H17S12201   3.193  -0.157   4.254 -1.2132  0.7501 -0.1078
  116SAPE  C21812202   3.256  -0.360   4.333 -0.0888 -0.4374  0.1539
  116SAPE  H18R12203   3.347  -0.378   4.271  0.4658  0.6410  0.6073
  116SAPE  H18S12204   3.209  -0.459   4.342 -0.4930 -0.2216  0.4286
  116SAPE  C21912205   3.304  -0.310   4.469  0.0541 -0.0016 -0.3429
  116SAPE  H19R12206   3.354  -0.390   4.527  2.9670  1.7415 -0.2029
  116SAPE  H19S12207   3.219  -0.268   4.526  0.0486  1.0299 -1.0782
  116SAPE  C22012208   3.415  -0.197   4.454 -0.0227 -0.3107  0.1156
  116SAPE  H20R12209   3.368  -0.100   4.429 -0.9343 -1.0282 -1.1394
  116SAPE  H20S12210   3.470  -0.230   4.363 -1.7457 -1.8292 -0.4496
  116SAPE  H20T12211   3.474  -0.183   4.546 -1.1716 -2.8064  1.3512
  116SAPE   C3312212   2.855  -0.669   2.750  0.8076 -0.3961  0.5695
  116SAPE   H3X12213   2.768  -0.600   2.754  0.3450 -0.7900 -1.4746
  116SAPE   H3Y12214   2.944  -0.605   2.766 -0.1371  1.0705  0.1575
  116SAPE   C3412215   2.845  -0.791   2.841 -0.5902 -0.2718  0.0386
  116SAPE   H4X12216   2.943  -0.843   2.849 -1.4639 -1.7868  1.2702
  116SAPE   H4Y12217   2.778  -0.874   2.813 -1.4996  0.3344  0.3635
  116SAPE   C3512218   2.783  -0.752   2.983 -0.0680 -0.3150 -0.0896
  116SAPE   H5X12219   2.694  -0.688   2.969  0.7274  0.5764 -1.3171
  116SAPE   H5Y12220   2.854  -0.687   3.039  1.0180  1.9195 -3.6960
  116SAPE   C3612221   2.760  -0.874   3.064  0.7320  0.1116  0.5407
  116SAPE   H6X12222   2.845  -0.946   3.073 -1.1969 -2.4079 -0.1504
  116SAPE   H6Y12223   2.671  -0.927   3.023  0.6298 -0.8628  1.9521
  116SAPE   C3712224   2.738  -0.833   3.209 -0.1492  0.6416 -0.6257
  116SAPE   H7X12225   2.811  -0.761   3.252 -1.3171  1.1815  0.5285
  116SAPE   H7Y12226   2.737  -0.919   3.279 -2.3042  1.7847  0.8672
  116SAPE   C3812227   2.604  -0.777   3.231 -0.6832 -0.0339  0.8530
  116SAPE   H8X12228   2.524  -0.847   3.198 -0.8963  1.4919 -2.2188
  116SAPE   H8Y12229   2.566  -0.698   3.163 -0.7583 -1.5331 -0.9546
  116SAPE   C3912230   2.568  -0.733   3.374 -0.2739 -0.7627 -0.5410
  116SAPE   H9X12231   2.467  -0.686   3.384 -0.8371 -1.6651 -1.7274
  116SAPE   H9Y12232   2.634  -0.653   3.412  0.0673 -1.6677  0.8706
  116SAPE  C31012233   2.587  -0.839   3.476 -0.1887  0.2878 -1.0021
  116SAPE  H10X12234   2.693  -0.866   3.491 -0.0682  1.1223 -0.2554
  116SAPE  H10Y12235   2.524  -0.927   3.451 -0.7458  0.3066  0.2634
  116SAPE  C31112236   2.531  -0.793   3.613  0.9675  0.8815 -0.1732
  116SAPE  H11X12237   2.587  -0.703   3.646  3.4562 -1.0785  1.3760
  116SAPE  H11Y12238   2.570  -0.865   3.688  1.1912 -1.1810 -2.1454
  116SAPE  C31212239   2.381  -0.783   3.638  0.1537 -0.8287 -0.7625
  116SAPE  H12X12240   2.334  -0.810   3.541 -1.6275  0.1682 -0.2110
  116SAPE  H12Y12241   2.361  -0.674   3.644 -0.1874 -0.8884 -0.8255
  116SAPE  C31312242   2.328  -0.848   3.756  0.1672 -0.4424 -0.4022
  116SAPE  H13X12243   2.374  -0.798   3.844 -0.2311 -0.3766 -0.2298
  116SAPE  H13Y12244   2.364  -0.953   3.762 -0.0152 -0.4816  0.1369
  116SAPE  C31412245   2.176  -0.849   3.764 -0.8777  0.5732  0.4851
  116SAPE  H14X12246   2.143  -0.859   3.658 -3.3705  2.6794  0.9877
  116SAPE  H14Y12247   2.142  -0.748   3.793  0.2711  0.8064  1.0983
  116SAPE  C31512248   2.112  -0.960   3.854  0.3443  0.8291  0.0314
  116SAPE  H15X12249   2.160  -1.057   3.829  1.4754  1.0014  1.4257
  116SAPE  H15Y12250   2.002  -0.960   3.838 -0.5536 -0.9145  4.7594
  116SAPE  C31612251   2.116  -0.935   4.005 -0.1069  0.2222 -0.8593
  116SAPE  H16X12252   2.051  -0.851   4.036  0.5337  1.6556 -3.2085
  116SAPE  H16Y12253   2.222  -0.925   4.039 -0.8731 -0.4164  1.9852
  116SAPE  C31712254   2.067  -1.056   4.090 -0.7355  0.1250  0.1283
  116SAPE  H17X12255   2.135  -1.139   4.060  0.2710  0.4877  1.2934
  116SAPE  H17Y12256   1.962  -1.086   4.075 -0.4979 -0.2195 -0.9600
  116SAPE  C31812257   2.088  -1.043   4.246 -0.2134  0.3935 -0.2442
  116SAPE  H18X12258   2.188  -1.001   4.269 -0.5196  2.2191 -1.9594
  116SAPE  H18Y12259   2.070  -1.140   4.298 -1.3448  0.4927 -0.4231
  116SAPE  H18Z12260   2.015  -0.969   4.285 -1.4867 -1.1401  0.4191
  117SOPE     N12261   1.111   1.297   6.751  0.1329 -0.0019  0.1474
  117SOPE   HN112262   1.028   1.283   6.812  0.0243  0.1472  0.0348
  117SOPE   HN212263   1.202   1.260   6.785  0.9877  2.4734  0.7751
  117SOPE   HN312264   1.119   1.400   6.735 -3.0082  0.6801  2.0763
  117SOPE   C1212265   1.084   1.231   6.613  0.4258  0.1328  0.2315
  117SOPE  H12A12266   0.991   1.283   6.581 -0.1899 -0.3537  1.1641
  117SOPE  H12B12267   1.052   1.126   6.633  0.4229  0.0319 -0.2821
  117SOPE   C1112268   1.201   1.249   6.512 -0.6315  0.3802  0.0429
  117SOPE  H11A12269   1.224   1.356   6.493 -1.5142  0.8561  1.4379
  117SOPE  H11B12270   1.190   1.203   6.412 -1.3322 -2.7756  1.4424
  117SOPE     P12271   1.348   1.038   6.573 -0.2650  0.0966  0.0792
  117SOPE   O1312272   1.263   0.985   6.681  0.0698 -0.3581  0.3235
  117SOPE   O1412273   1.498   1.028   6.596 -0.5410  0.1623 -0.2010
  117SOPE   O1212274   1.319   1.193   6.566  0.2882  0.2779  0.6726
  117SOPE   O1112275   1.300   0.979   6.431  0.4591 -0.9889  0.0636
  117SOPE    C112276   1.163   0.950   6.393 -0.2528  0.2188 -1.2495
  117SOPE    HA12277   1.141   0.997   6.295 -1.7336  1.3851 -0.3981
  117SOPE    HB12278   1.093   0.994   6.468 -1.9802 -2.6465 -1.0314
  117SOPE    C212279   1.119   0.807   6.387  0.2998  0.1336  0.3464
  117SOPE    HS12280   1.151   0.752   6.478 -0.7988 -1.4832 -0.2113
  117SOPE   O2112281   1.167   0.745   6.264  0.4922  0.1151 -0.1541
  117SOPE   C2112282   1.218   0.627   6.278 -0.0424 -0.6258  0.1107
  117SOPE   O2212283   1.267   0.579   6.381  0.4036  0.0810  0.2286
  117SOPE   C2212284   1.218   0.562   6.144  0.5213 -0.0214  0.2396
  117SOPE   H2R12285   1.285   0.616   6.073  1.4568 -3.3155 -1.5946
  117SOPE   H2S12286   1.118   0.557   6.096  1.2935 -2.6801 -1.2881
  117SOPE    C312287   0.962   0.787   6.394 -0.2351  0.0381  0.5046
  117SOPE    HX12288   0.926   0.835   6.488  0.7277 -0.4187  1.1154
  117SOPE    HY12289   0.935   0.679   6.395 -1.5470  0.2230 -2.6348
  117SOPE   O3112290   0.887   0.852   6.287  0.8068 -0.4503 -0.3567
  117SOPE   C3112291   0.790   0.782   6.230  0.3106 -0.0809 -0.2202
  117SOPE   O3212292   0.744   0.678   6.278 -0.9387  0.1532 -0.0690
  117SOPE   C3212293   0.731   0.861   6.111  0.0441  0.3127 -0.2995
  117SOPE   H2X12294   0.821   0.864   6.046  0.9975 -0.0584  0.9703
  117SOPE   H2Y12295   0.696   0.962   6.143 -0.8505  0.0869 -0.5364
  117SOPE   C2312296   1.260   0.413   6.158  0.2377  0.1157 -0.0385
  117SOPE   H3R12297   1.198   0.355   6.229  0.9510  0.6040  1.0236
  117SOPE   H3S12298   1.362   0.402   6.202 -0.0615 -0.6298  0.4926
  117SOPE   C2412299   1.270   0.333   6.026 -0.1542  0.9720  0.5470
  117SOPE   H4R12300   1.300   0.231   6.058  0.7410  0.7482 -0.8975
  117SOPE   H4S12301   1.171   0.319   5.976 -0.9558 -1.2228  2.5518
  117SOPE   C2512302   1.374   0.378   5.925  0.5530  0.4262  0.3617
  117SOPE   H5R12303   1.336   0.477   5.891  0.5180  0.6300  0.9831
  117SOPE   H5S12304   1.478   0.399   5.957 -0.3095  1.8535  2.3814
  117SOPE   C2612305   1.383   0.274   5.809 -0.4255  0.5926 -0.1407
  117SOPE   H6R12306   1.457   0.204   5.852 -0.5756  2.4290  3.5315
  117SOPE   H6S12307   1.293   0.208   5.804 -0.1397  0.2228 -0.4263
  117SOPE   C2712308   1.420   0.324   5.675 -0.5940  0.0065  0.0043
  117SOPE   H7R12309   1.341   0.388   5.631  1.5593  2.1881 -0.9757
  117SOPE   H7S12310   1.501   0.398   5.693 -1.3101 -0.0710  4.8606
  117SOPE   C2812311   1.456   0.223   5.565 -0.4168 -0.5754  0.3921
  117SOPE   H8R12312   1.533   0.149   5.596  1.3613  0.9270 -0.2451
  117SOPE   H8S12313   1.367   0.158   5.547 -0.8260 -0.4131  1.6900
  117SOPE   C2912314   1.507   0.279   5.439 -0.6011 -0.2855 -0.3866
  117SOPE   H9112315   1.617   0.281   5.437 -0.5870 -0.2817  0.1001
  117SOPE  C21012316   1.435   0.306   5.330 -0.3412  0.6804  0.1313
  117SOPE  H10112317   1.489   0.336   5.240  0.8806  1.6943  1.1615
  117SOPE  C21112318   1.284   0.300   5.319 -0.1257  0.0732  0.0075
  117SOPE  H11R12319   1.237   0.334   5.413 -2.3945 -0.0205 -1.0272
  117SOPE  H11S12320   1.252   0.194   5.311  1.8895 -0.4747 -1.7481
  117SOPE  C21212321   1.210   0.373   5.200  0.7635 -0.1942 -0.4545
  117SOPE  H12R12322   1.248   0.476   5.212  0.4391 -0.0441 -0.7027
  117SOPE  H12S12323   1.099   0.379   5.206  0.5403 -1.9249 -1.7020
  117SOPE  C21312324   1.243   0.305   5.068  0.4725 -0.6215 -0.2375
  117SOPE  H13R12325   1.190   0.207   5.073  0.2012 -0.4442  0.4759
  117SOPE  H13S12326   1.354   0.294   5.067  0.2594 -4.2223 -1.0162
  117SOPE  C21412327   1.191   0.385   4.951  0.4740 -0.3140  0.0179
  117SOPE  H14R12328   1.096   0.437   4.974  0.6587 -0.3285  0.8382
  117SOPE  H14S12329   1.178   0.316   4.865 -0.3580 -0.3856  0.1983
  117SOPE  C21512330   1.291   0.498   4.911 -0.2891 -0.5705 -0.5189
  117SOPE  H15R12331   1.373   0.457   4.850 -0.5735  0.4716 -1.6360
  117SOPE  H15S12332   1.333   0.546   5.002  2.6998 -2.5977 -0.7166
  117SOPE  C21612333   1.234   0.610   4.822 -0.1322 -0.1892 -0.4881
  117SOPE  H16R12334   1.160   0.655   4.892  2.7402 -1.8594  4.0370
  117SOPE  H16S12335   1.180   0.563   4.737 -0.4846 -2.4244  0.8893
  117SOPE  C21712336   1.337   0.712   4.771 -0.1967  0.7806 -0.1825
  117SOPE  H17R12337   1.400   0.739   4.859 -2.8190 -0.2168  2.1745
  117SOPE  H17S12338   1.290   0.805   4.736 -0.4302  1.2387  1.2806
  117SOPE  C21812339   1.435   0.652   4.667 -0.3111  0.2476 -0.1644
  117SOPE  H18R12340   1.506   0.733   4.640  1.0354 -0.6670  0.5598
  117SOPE  H18S12341   1.373   0.625   4.579  0.0795  3.4793 -1.5588
  117SOPE  H18T12342   1.495   0.566   4.705  0.6993  0.5860 -0.9399
  117SOPE   C3312343   0.613   0.786   6.052  0.4353 -0.1387  0.2622
  117SOPE   H3X12344   0.530   0.777   6.125 -1.5182 -1.2757 -1.9795
  117SOPE   H3Y12345   0.645   0.686   6.015  1.7604  0.7619 -1.1687
  117SOPE   C3412346   0.559   0.855   5.918  0.1694  0.1721 -0.7939
  117SOPE   H4X12347   0.587   0.962   5.912 -0.3262  0.4166  0.9262
  117SOPE   H4Y12348   0.448   0.851   5.911  0.1286  2.5513 -3.1857
  117SOPE   C3512349   0.626   0.797   5.794 -0.8308  0.5458  0.1823
  117SOPE   H5X12350   0.630   0.686   5.794  3.1415  0.4662  2.6046
  117SOPE   H5Y12351   0.734   0.824   5.797 -0.6489  0.0424  4.4027
  117SOPE   C3612352   0.559   0.840   5.660  0.5656  0.2679  0.9993
  117SOPE   H6X12353   0.573   0.945   5.627 -1.8625 -0.1762 -1.9127
  117SOPE   H6Y12354   0.449   0.835   5.674  0.7427 -0.3424  2.3788
  117SOPE   C3712355   0.601   0.752   5.543  0.5669  0.4413 -0.4222
  117SOPE   H7X12356   0.578   0.647   5.570  2.6859 -0.2068 -0.9521
  117SOPE   H7Y12357   0.709   0.758   5.521  0.3480  2.6828 -1.1904
  117SOPE   C3812358   0.514   0.786   5.420  0.1350  0.0961  0.4858
  117SOPE   H8X12359   0.420   0.829   5.462  0.8964  3.5540 -0.9704
  117SOPE   H8Y12360   0.493   0.687   5.374 -3.9254  0.6429  0.7447
  117SOPE   C3912361   0.581   0.887   5.324  0.2384  0.0909  0.5254
  117SOPE   H9X12362   0.656   0.823   5.273 -1.2392 -3.1783  2.1465
  117SOPE   H9Y12363   0.619   0.979   5.374 -1.3880  1.5670 -0.7893
  117SOPE  C31012364   0.473   0.937   5.223 -0.4691  0.2394 -0.4346
  117SOPE  H10X12365   0.409   0.849   5.204 -0.8591  0.0405  1.6241
  117SOPE  H10Y12366   0.514   0.973   5.126 -1.9219  0.6326 -0.9319
  117SOPE  C31112367   0.385   1.048   5.281 -0.1591 -0.0232 -0.1964
  117SOPE  H11X12368   0.447   1.122   5.336  0.2402 -1.4397  1.3399
  117SOPE  H11Y12369   0.326   1.009   5.367 -1.8854 -1.4072 -1.8978
  117SOPE  C31212370   0.278   1.107   5.188 -0.2035 -0.3715 -0.0432
  117SOPE  H12X12371   0.338   1.159   5.111 -1.7148  1.1965 -0.1974
  117SOPE  H12Y12372   0.206   1.175   5.238  1.5061  1.0918  0.5416
  117SOPE  C31312373   0.206   1.000   5.104 -0.0489  0.4162  0.2608
  117SOPE  H13X12374   0.148   0.930   5.168  1.0800 -0.6652  0.1389
  117SOPE  H13Y12375   0.279   0.933   5.053  0.9725  0.0669  2.0869
  117SOPE  C31412376   0.122   1.044   4.986  0.5207 -0.7819 -0.0449
  117SOPE  H14X12377   0.103   0.958   4.918  0.2868 -2.5649  2.1659
  117SOPE  H14Y12378   0.186   1.117   4.933  1.6628  0.3237  2.7020
  117SOPE  C31512379  -0.005   1.114   5.033 -0.6370 -0.0978 -0.8495
  117SOPE  H15X12380   0.039   1.187   5.104  2.1956 -0.7639 -1.7871
  117SOPE  H15Y12381  -0.064   1.037   5.085  1.3728 -2.1165 -1.4071
  117SOPE  C31612382  -0.086   1.176   4.916 -0.0677 -0.6891  0.1318
  117SOPE  H16X12383  -0.189   1.196   4.952  0.0483 -2.4680  1.6159
  117SOPE  H16Y12384  -0.089   1.096   4.840  1.0582 -1.3330  0.7328
  117SOPE  C31712385  -0.011   1.299   4.851  0.1281  0.1585  0.2015
  117SOPE  H17X12386   0.086   1.257   4.817  1.0712  0.3625  2.4664
  117SOPE  H17Y12387   0.021   1.380   4.920 -0.7902 -0.3528  1.2708
  117SOPE  C31812388  -0.085   1.360   4.735  0.3527  0.5504 -0.1493
  117SOPE  H18X12389  -0.010   1.416   4.675  0.2853  1.3417  0.4727
  117SOPE  H18Y12390  -0.161   1.435   4.766 -1.6268 -1.5560  0.3841
  117SOPE  H18Z12391  -0.120   1.273   4.677  2.3855  0.3062 -1.0822
  118SOPE     N12392   0.225   2.197   6.557 -0.0584  0.1702 -0.1399
  118SOPE   HN112393   0.223   2.261   6.475  0.4441  0.9971  0.4733
  118SOPE   HN212394   0.183   2.105   6.533 -0.8066  0.5995 -0.5147
  118SOPE   HN312395   0.168   2.247   6.628  0.3336  1.9944 -1.0511
  118SOPE   C1212396   0.369   2.196   6.605  0.8871 -0.2907 -0.1602
  118SOPE  H12A12397   0.399   2.293   6.649  0.1066 -1.3544  2.9906
  118SOPE  H12B12398   0.432   2.156   6.522 -1.2052 -0.7308 -1.6159
  118SOPE   C1112399   0.390   2.111   6.732 -0.6357  0.6344  0.0334
  118SOPE  H11A12400   0.319   2.146   6.811 -0.6700 -2.4870  1.5499
  118SOPE  H11B12401   0.492   2.115   6.774 -1.6028  0.3837  2.6000
  118SOPE     P12402   0.449   1.864   6.671  0.4148  0.0138  0.3246
  118SOPE   O1312403   0.389   1.768   6.580 -0.4335 -0.1542 -0.1801
  118SOPE   O1412404   0.508   1.809   6.793 -0.1696  0.3452 -0.5443
  118SOPE   O1212405   0.347   1.973   6.707  0.1712  0.5408 -0.0140
  118SOPE   O1112406   0.554   1.948   6.591  0.0684 -0.1920 -0.5041
  118SOPE    C112407   0.580   1.923   6.453  0.5574  0.7825 -0.1840
  118SOPE    HA12408   0.487   1.938   6.394  0.0546 -1.0404  0.0714
  118SOPE    HB12409   0.615   1.817   6.453 -1.9303 -0.1308 -1.4097
  118SOPE    C212410   0.692   2.016   6.399  0.3271 -0.4487 -0.0873
  118SOPE    HS12411   0.671   2.125   6.415 -0.6672 -0.6060 -0.2369
  118SOPE   O2112412   0.697   1.988   6.260  0.1661 -0.1093  0.2951
  118SOPE   C2112413   0.659   2.076   6.174 -0.7018  0.2626  0.2248
  118SOPE   O2212414   0.627   2.192   6.191 -0.3928 -0.3948 -0.8207
  118SOPE   C2212415   0.633   1.987   6.054 -1.0759 -0.2995 -0.1100
  118SOPE   H2R12416   0.551   1.915   6.075 -2.5537  0.9308 -1.4217
  118SOPE   H2S12417   0.726   1.930   6.032  0.3279  1.7972  0.0510
  118SOPE    C312418   0.828   1.980   6.470  0.6867 -0.2330 -0.2453
  118SOPE    HX12419   0.854   1.873   6.454  0.5361 -0.3283  0.1534
  118SOPE    HY12420   0.802   1.991   6.577  0.9145  1.9318 -0.3661
  118SOPE   O3112421   0.936   2.069   6.431  0.2398 -0.0180 -0.0510
  118SOPE   C3112422   1.054   2.035   6.464 -0.2633 -0.5830 -0.0786
  118SOPE   O3212423   1.088   1.942   6.533 -0.3206  0.1178  0.0264
  118SOPE   C3212424   1.154   2.134   6.398  0.6194 -0.8366 -0.5511
  118SOPE   H2X12425   1.193   2.195   6.483 -0.9286  2.8158 -2.1996
  118SOPE   H2Y12426   1.093   2.208   6.342 -2.1208 -2.6902 -0.2055
  118SOPE   C2312427   0.599   2.063   5.924 -0.4247 -0.5233  0.1960
  118SOPE   H3R12428   0.689   2.123   5.898 -0.0293 -1.4476 -0.6510
  118SOPE   H3S12429   0.506   2.118   5.951 -0.8492 -1.3740  0.5061
  118SOPE   C2412430   0.575   1.966   5.798 -0.4475 -0.6965  0.6857
  118SOPE   H4R12431   0.668   1.906   5.785 -1.0269 -1.0536 -3.0259
  118SOPE   H4S12432   0.493   1.900   5.833 -1.4145  0.4061  0.5435
  118SOPE   C2512433   0.558   2.030   5.661 -0.0405  0.1271  0.9785
  118SOPE   H5R12434   0.462   2.086   5.659  1.1914  2.3893 -1.4198
  118SOPE   H5S12435   0.631   2.111   5.637 -1.9193  2.5713  2.9637
  118SOPE   C2612436   0.553   1.921   5.546  0.3042  0.5593  0.0052
  118SOPE   H6R12437   0.651   1.868   5.547  1.0222  1.8513  0.5579
  118SOPE   H6S12438   0.478   1.843   5.573  1.6307 -1.2195 -1.2039
  118SOPE   C2712439   0.523   1.979   5.403  0.5180  0.0863 -0.3429
  118SOPE   H7R12440   0.443   1.917   5.358  0.2614 -0.9635  1.4428
  118SOPE   H7S12441   0.489   2.084   5.417 -0.8483 -0.3627 -0.1525
  118SOPE   C2812442   0.649   1.984   5.317  0.5325 -0.0327  0.2322
  118SOPE   H8R12443   0.730   2.046   5.360  1.1681 -1.2167  0.7917
  118SOPE   H8S12444   0.678   1.877   5.309 -1.9249 -0.8268  0.9490
  118SOPE   C2912445   0.613   2.040   5.180 -0.6903 -0.0324  0.0558
  118SOPE   H9112446   0.531   2.112   5.192 -0.1369  0.5374  0.4779
  118SOPE  C21012447   0.666   2.012   5.063 -0.4927  0.4578 -0.3407
  118SOPE  H10112448   0.615   2.063   4.979 -1.4801  1.2863  0.7232
  118SOPE  C21112449   0.770   1.904   5.027 -0.2062 -0.4112  0.3758
  118SOPE  H11R12450   0.803   1.850   5.118 -0.4872 -0.5909  0.3727
  118SOPE  H11S12451   0.861   1.945   4.978 -0.5105 -1.0272 -0.7410
  118SOPE  C21212452   0.709   1.784   4.944  0.6244  0.5009 -0.3589
  118SOPE  H12R12453   0.798   1.718   4.941 -0.6229 -1.4990  2.3026
  118SOPE  H12S12454   0.677   1.812   4.841 -2.1116  1.3553  0.6452
  118SOPE  C21312455   0.591   1.712   5.013  0.4904 -0.6676 -0.4303
  118SOPE  H13R12456   0.501   1.777   5.009  0.2311 -0.9453  0.5670
  118SOPE  H13S12457   0.617   1.703   5.121  1.1296  0.3396 -0.4875
  118SOPE  C21412458   0.560   1.574   4.953  0.4586  0.0881 -0.0061
  118SOPE  H14R12459   0.589   1.587   4.847  1.8110 -2.3733 -0.0132
  118SOPE  H14S12460   0.449   1.560   4.952  0.3804  0.5239  0.8928
  118SOPE  C21512461   0.642   1.463   5.022 -0.2249  0.4194  0.0167
  118SOPE  H15R12462   0.649   1.472   5.133  1.7300 -3.1247  0.2940
  118SOPE  H15S12463   0.745   1.478   4.983  0.0883  1.4142  1.1638
  118SOPE  C21612464   0.590   1.324   4.990 -0.5858 -0.1755 -0.3431
  118SOPE  H16R12465   0.561   1.311   4.883 -1.8310 -2.1645  0.1706
  118SOPE  H16S12466   0.495   1.310   5.047  0.2010  0.8289  1.2894
  118SOPE  C21712467   0.704   1.213   5.016  0.1130 -0.2334  0.1764
  118SOPE  H17R12468   0.788   1.237   4.947 -1.7693 -0.4808 -2.3572
  118SOPE  H17S12469   0.676   1.109   4.989  0.3646 -0.6151  1.3311
  118SOPE  C21812470   0.738   1.206   5.162 -0.8552  0.3358  0.3844
  118SOPE  H18R12471   0.831   1.150   5.183 -0.5993  0.3956 -0.5460
  118SOPE  H18S12472   0.669   1.136   5.212  2.0430 -2.1261  1.2273
  118SOPE  H18T12473   0.769   1.309   5.191  1.8808 -0.0355 -0.8562
  118SOPE   C3312474   1.250   2.071   6.304  0.5473  0.2730 -0.5272
  118SOPE   H3X12475   1.309   1.987   6.346  0.1105 -0.4244 -1.2726
  118SOPE   H3Y12476   1.338   2.135   6.285  0.3051  1.2472  1.4074
  118SOPE   C3412477   1.194   2.043   6.162  0.5678  0.2549 -0.2832
  118SOPE   H4X12478   1.132   2.128   6.127 -0.0115  0.0678  0.2701
  118SOPE   H4Y12479   1.134   1.950   6.167  1.9358 -0.6525 -0.1542
  118SOPE   C3512480   1.299   2.033   6.050 -0.4723  0.6753 -0.1188
  118SOPE   H5X12481   1.354   1.937   6.060 -2.0827 -0.4025 -1.1072
  118SOPE   H5Y12482   1.377   2.113   6.053  0.8845 -0.4540 -2.4410
  118SOPE   C3612483   1.239   2.029   5.908 -0.4772  0.2859  0.4155
  118SOPE   H6X12484   1.136   1.989   5.920  0.6771 -3.0336  0.1272
  118SOPE   H6Y12485   1.300   1.957   5.851  2.3604  1.1875  2.1313
  118SOPE   C3712486   1.230   2.153   5.822 -0.2404  0.1825  0.0681
  118SOPE   H7X12487   1.334   2.184   5.797  0.2585 -0.6793  1.0194
  118SOPE   H7Y12488   1.183   2.243   5.867  1.4037  0.1691  1.9359
  118SOPE   C3812489   1.160   2.114   5.687 -0.4995 -0.8760 -0.4890
  118SOPE   H8X12490   1.053   2.091   5.707 -1.3076  1.4258 -1.7427
  118SOPE   H8Y12491   1.204   2.017   5.655  1.7236 -0.3577  0.7760
  118SOPE   C3912492   1.179   2.224   5.581  0.7185 -0.3451  0.4980
  118SOPE   H9X12493   1.288   2.217   5.560  0.7955  0.2664  0.6802
  118SOPE   H9Y12494   1.160   2.319   5.634  0.7948 -0.6301  1.0358
  118SOPE  C31012495   1.094   2.215   5.454  0.3227 -1.0403 -0.0548
  118SOPE  H10X12496   0.992   2.196   5.493  1.1024 -0.5983  2.3948
  118SOPE  H10Y12497   1.132   2.125   5.401 -0.6088 -1.3768 -0.1641
  118SOPE  C31112498   1.085   2.337   5.363  0.2213  0.6009 -0.3425
  118SOPE  H11X12499   1.189   2.366   5.338  0.4956 -0.4697 -0.5050
  118SOPE  H11Y12500   1.040   2.427   5.408 -0.9862  0.6730 -1.5966
  118SOPE  C31212501   1.006   2.296   5.233 -0.4504 -0.0291 -0.6354
  118SOPE  H12X12502   0.897   2.290   5.255 -0.0493  0.8348  2.0064
  118SOPE  H12Y12503   1.045   2.200   5.191 -0.4618  0.0199 -0.7569
  118SOPE  C31312504   1.023   2.410   5.126  0.4088  0.5326  0.0433
  118SOPE  H13X12505   1.131   2.436   5.115  0.1994  1.4863  0.2349
  118SOPE  H13Y12506   0.961   2.499   5.149 -0.9514  0.0793 -1.6635
  118SOPE  C31412507   0.993   2.368   4.978  1.0406  0.5201 -0.1269
  118SOPE  H14X12508   1.046   2.273   4.957  1.0403  0.7458 -1.2020
  118SOPE  H14Y12509   1.030   2.449   4.911  2.3947  0.9284  1.0488
  118SOPE  C31512510   0.844   2.339   4.955 -0.6399 -0.3474 -0.2581
  118SOPE  H15X12511   0.786   2.432   4.972 -0.1132  0.6493 -3.3661
  118SOPE  H15Y12512   0.801   2.262   5.023  0.5766  1.7732  3.1649
  118SOPE  C31612513   0.810   2.292   4.813 -0.8554  0.4825  0.2757
  118SOPE  H16X12514   0.860   2.194   4.800  1.7649  1.7653 -0.0485
  118SOPE  H16Y12515   0.842   2.361   4.733 -2.3910  0.4236 -0.4158
  118SOPE  C31712516   0.659   2.272   4.805 -0.1043 -0.2459  0.4555
  118SOPE  H17X12517   0.605   2.367   4.789 -2.3924 -2.0085 -4.0033
  118SOPE  H17Y12518   0.626   2.248   4.908  2.8756  1.2423  1.8896
  118SOPE  C31812519   0.615   2.154   4.719 -0.1243 -0.1552  0.0677
  118SOPE  H18X12520   0.613   2.178   4.610 -1.8930  1.0530  0.3228
  118SOPE  H18Y12521   0.509   2.125   4.734 -0.6456  0.4399 -2.0687
  118SOPE  H18Z12522   0.684   2.067   4.724 -0.5721 -0.4811  0.7782
  119SOPE     N12523   4.178   1.609   7.053 -0.0471 -0.4555  0.9154
  119SOPE   HN112524   4.173   1.709   7.028 -2.7241 -0.3461  1.6289
  119SOPE   HN212525   4.273   1.570   7.034  0.3030  1.6003 -2.1091
  119SOPE   HN312526   4.110   1.565   6.988 -0.0502  2.6263 -1.3347
  119SOPE   C1212527   4.140   1.583   7.198 -0.6319 -0.0919  0.5799
  119SOPE  H12A12528   4.063   1.658   7.226  1.4301  2.9229 -1.2437
  119SOPE  H12B12529   4.224   1.612   7.264 -0.5535 -0.9307  0.8540
  119SOPE   C1112530   4.095   1.436   7.212  0.8959 -0.0676  0.1891
  119SOPE  H11A12531   3.998   1.432   7.159  1.0426  0.0726 -0.0932
  119SOPE  H11B12532   4.073   1.431   7.321 -0.2220 -0.0305 -0.0279
  119SOPE     P12533   4.169   1.189   7.163  0.0655 -0.0090 -0.1615
  119SOPE   O1312534   4.052   1.163   7.250  0.1512  0.3792 -0.0715
  119SOPE   O1412535   4.288   1.109   7.198  0.5026  0.3105  0.3587
  119SOPE   O1212536   4.194   1.339   7.172  0.1137 -0.2877 -0.0981
  119SOPE   O1112537   4.130   1.156   7.008 -0.0468  0.0667 -0.5199
  119SOPE    C112538   4.180   1.260   6.912  0.0431 -0.0875  0.0766
  119SOPE    HA12539   4.274   1.308   6.945  0.0928 -0.0599 -0.1023
  119SOPE    HB12540   4.108   1.343   6.898  0.2660 -0.2094 -2.0529
  119SOPE    C212541   4.198   1.186   6.776  0.0812 -0.3581 -0.8624
  119SOPE    HS12542   4.246   1.255   6.703 -0.2800  0.9962  0.1284
  119SOPE   O2112543   4.075   1.126   6.734 -0.1413 -1.0201 -0.3083
  119SOPE   C2112544   3.996   1.211   6.667 -0.2604 -0.0941  1.1624
  119SOPE   O2212545   4.004   1.327   6.664 -0.1414 -0.4807 -0.2386
  119SOPE   C2212546   3.888   1.134   6.594  0.6833 -0.4538  0.3191
  119SOPE   H2R12547   3.834   1.062   6.659  0.5582  0.2060  0.9665
  119SOPE   H2S12548   3.931   1.081   6.506 -0.2978 -0.0303 -0.4222
  119SOPE    C312549   4.310   1.073   6.795  0.2172  0.3766 -0.7813
  119SOPE    HX12550   4.282   1.010   6.882 -1.9387  1.5914 -0.5261
  119SOPE    HY12551   4.402   1.130   6.823  1.7657 -1.5020 -1.7679
  119SOPE   O3112552   4.335   1.003   6.672  0.1542 -1.0842  0.2598
  119SOPE   C3112553   4.268   0.885   6.655  0.3824  0.4588  0.0108
  119SOPE   O3212554   4.198   0.828   6.740 -0.0615 -0.0774  0.2634
  119SOPE   C3212555   4.288   0.845   6.513  0.0604  0.1642  0.2169
  119SOPE   H2X12556   4.212   0.896   6.450 -2.3304 -2.0172  1.1467
  119SOPE   H2Y12557   4.269   0.736   6.505 -0.1490  0.1141  1.2313
  119SOPE   C2312558   3.784   1.244   6.543 -0.5409  0.4181  0.0075
  119SOPE   H3R12559   3.846   1.317   6.487  1.5666 -0.6191  0.8678
  119SOPE   H3S12560   3.743   1.297   6.632 -0.5400  0.3358  0.0569
  119SOPE   C2412561   3.665   1.193   6.464 -0.0115  0.4768  0.5525
  119SOPE   H4R12562   3.611   1.114   6.520  0.7523 -0.7981 -0.4345
  119SOPE   H4S12563   3.603   1.281   6.438 -0.4652 -0.0233 -0.1038
  119SOPE   C2512564   3.720   1.138   6.333 -0.2462 -0.3085 -0.0231
  119SOPE   H5R12565   3.791   1.215   6.296 -0.4471 -0.7784 -1.4528
  119SOPE   H5S12566   3.783   1.049   6.356  0.2384  0.3534  1.2531
  119SOPE   C2612567   3.623   1.118   6.210 -0.3081  0.7084 -0.0294
  119SOPE   H6R12568   3.673   1.043   6.145 -0.2893 -1.7620  2.6274
  119SOPE   H6S12569   3.540   1.058   6.254  0.3503 -0.4176 -0.2798
  119SOPE   C2712570   3.587   1.247   6.134  0.2809  0.2603 -0.3091
  119SOPE   H7R12571   3.562   1.328   6.206  2.4026  1.3809 -0.7654
  119SOPE   H7S12572   3.679   1.272   6.077 -0.1572 -0.3297 -1.3063
  119SOPE   C2812573   3.469   1.205   6.049 -0.2667  0.0803 -0.1943
  119SOPE   H8R12574   3.393   1.155   6.113 -0.7867  0.8067 -0.2316
  119SOPE   H8S12575   3.410   1.294   6.020 -0.4697  0.5144  1.4483
  119SOPE   C2912576   3.508   1.130   5.922 -0.1392  0.0675 -0.9670
  119SOPE   H9112577   3.503   1.020   5.933 -2.4172  0.2354  0.4533
  119SOPE  C21012578   3.555   1.186   5.808  1.2199  0.4585  0.0211
  119SOPE  H10112579   3.605   1.124   5.732 -0.5179 -2.1489  0.8744
  119SOPE  C21112580   3.540   1.337   5.773  0.1816 -0.2188 -0.4984
  119SOPE  H11R12581   3.470   1.390   5.841  0.9764 -0.0636  0.2205
  119SOPE  H11S12582   3.503   1.338   5.669  0.4613  1.2889 -0.6096
  119SOPE  C21212583   3.673   1.413   5.783 -0.5637  0.5162  0.9826
  119SOPE  H12R12584   3.704   1.441   5.886  3.5512 -0.9358  0.3237
  119SOPE  H12S12585   3.660   1.510   5.730  2.2775  1.2373  1.4411
  119SOPE  C21312586   3.791   1.339   5.709  0.1748 -0.4044  0.2091
  119SOPE  H13R12587   3.825   1.245   5.756 -1.9248 -0.2038  2.3057
  119SOPE  H13S12588   3.877   1.410   5.714 -0.4862  0.3970  0.3641
  119SOPE  C21412589   3.773   1.321   5.558  0.0488  0.8547 -0.4692
  119SOPE  H14R12590   3.737   1.413   5.507 -0.4576  1.0797  0.2784
  119SOPE  H14S12591   3.696   1.241   5.551 -0.7357  1.3079  1.7783
  119SOPE  C21512592   3.899   1.267   5.489 -0.4152 -0.2498  0.1653
  119SOPE  H15R12593   3.865   1.230   5.390  0.6132  0.0045 -0.2913
  119SOPE  H15S12594   3.930   1.177   5.547  0.8645  1.1318  1.7252
  119SOPE  C21612595   4.026   1.357   5.477  0.0047 -0.9852  0.8956
  119SOPE  H16R12596   4.062   1.382   5.579 -0.4270 -0.6722  0.9734
  119SOPE  H16S12597   4.001   1.454   5.431  0.6871 -0.7679  0.9751
  119SOPE  C21712598   4.145   1.290   5.394 -0.9672  0.2766 -0.6904
  119SOPE  H17R12599   4.212   1.238   5.465  0.0655 -1.2876 -2.7043
  119SOPE  H17S12600   4.203   1.375   5.352 -0.7375  0.8473  0.7373
  119SOPE  C21812601   4.107   1.199   5.277 -0.0189  0.4828  0.4293
  119SOPE  H18R12602   4.193   1.171   5.213 -0.6059  1.9740 -1.1107
  119SOPE  H18S12603   4.033   1.246   5.207  1.4560  1.6219 -0.4398
  119SOPE  H18T12604   4.057   1.115   5.328 -2.5375  0.7770 -1.3208
  119SOPE   C3312605   4.428   0.864   6.451 -0.3534  0.6772  0.0534
  119SOPE   H3X12606   4.492   0.782   6.491 -1.6287 -1.1375 -1.4614
  119SOPE   H3Y12607   4.467   0.966   6.474 -2.9233  1.9505 -0.8565
  119SOPE   C3412608   4.422   0.870   6.293 -0.0471 -0.1710  0.1993
  119SOPE   H4X12609   4.526   0.857   6.256 -0.2787 -2.3097  0.1779
  119SOPE   H4Y12610   4.374   0.967   6.268 -0.1637 -0.2845 -0.0239
  119SOPE   C3512611   4.343   0.750   6.230  0.3521 -0.3305 -0.0180
  119SOPE   H5X12612   4.235   0.766   6.251 -0.1778 -0.8319 -2.1726
  119SOPE   H5Y12613   4.377   0.655   6.275 -1.0902 -1.1440 -0.5719
  119SOPE   C3612614   4.349   0.729   6.082  0.6226  0.2000  0.0282
  119SOPE   H6X12615   4.441   0.673   6.055  2.3269  0.8009  3.9396
  119SOPE   H6Y12616   4.349   0.831   6.039  0.4046  1.8269  3.5711
  119SOPE   C3712617   4.232   0.654   6.029  0.1355 -0.3671 -0.1513
  119SOPE   H7X12618   4.136   0.709   6.039  0.4165 -0.2679  3.1894
  119SOPE   H7Y12619   4.221   0.557   6.082 -1.0116  0.1055  0.5058
  119SOPE   C3812620   4.253   0.619   5.878  0.0134 -0.0463  0.5933
  119SOPE   H8X12621   4.352   0.571   5.859 -0.4649 -0.9472  0.2943
  119SOPE   H8Y12622   4.246   0.707   5.812 -0.8544 -0.2346  0.4196
  119SOPE   C3912623   4.140   0.533   5.828 -0.6524 -0.1809 -0.7244
  119SOPE   H9X12624   4.050   0.569   5.882 -1.6952 -3.2917 -0.2034
  119SOPE   H9Y12625   4.163   0.432   5.867 -0.2354  0.1070 -0.1907
  119SOPE  C31012626   4.124   0.547   5.678  1.2670  0.4501 -0.3079
  119SOPE  H10X12627   4.111   0.654   5.650  1.7222  0.4945 -0.3701
  119SOPE  H10Y12628   4.030   0.493   5.655  1.5261 -1.7322  3.0964
  119SOPE  C31112629   4.236   0.494   5.592  0.0298 -0.5405 -0.2765
  119SOPE  H11X12630   4.249   0.385   5.608 -0.1449 -0.2928  1.9180
  119SOPE  H11Y12631   4.329   0.542   5.630 -0.0052 -1.6386  1.3136
  119SOPE  C31212632   4.231   0.525   5.434  0.1408 -0.7689 -0.7366
  119SOPE  H12X12633   4.131   0.484   5.408  0.4765 -2.3673  0.3544
  119SOPE  H12Y12634   4.309   0.462   5.385 -0.0971 -1.4094 -0.3016
  119SOPE  C31312635   4.252   0.672   5.387 -0.1318  0.2977 -0.2783
  119SOPE  H13X12636   4.361   0.690   5.402 -0.1257  0.1386 -0.1085
  119SOPE  H13Y12637   4.191   0.738   5.452 -0.1121  0.4187 -0.3850
  119SOPE  C31412638   4.209   0.706   5.246  0.6614  0.3546 -0.0214
  119SOPE  H14X12639   4.231   0.814   5.234  0.8125  0.3357  0.0749
  119SOPE  H14Y12640   4.099   0.692   5.248  0.6363 -0.1481 -2.4174
  119SOPE  C31512641   4.275   0.607   5.144  0.5492 -1.2311  0.2616
  119SOPE  H15X12642   4.256   0.501   5.169 -1.5105 -1.4495 -1.8835
  119SOPE  H15Y12643   4.385   0.621   5.146  0.5370 -1.1550  2.6053
  119SOPE  C31612644   4.231   0.633   4.999  0.4308  0.2672 -0.0630
  119SOPE  H16X12645   4.251   0.736   4.963  1.7329  0.2917  0.6618
  119SOPE  H16Y12646   4.122   0.609   4.995  1.1578 -3.6431 -0.5417
  119SOPE  C31712647   4.295   0.530   4.905 -0.5925  0.6334 -0.8715
  119SOPE  H17X12648   4.271   0.437   4.961  2.4491  1.5770  2.3674
  119SOPE  H17Y12649   4.405   0.544   4.902 -0.1912 -2.0892 -1.5036
  119SOPE  C31812650   4.227   0.534   4.770 -0.7453 -0.0863  0.0447
  119SOPE  H18X12651   4.118   0.511   4.773 -1.2489  1.9401 -0.9862
  119SOPE  H18Y12652   4.273   0.467   4.694  2.0189  0.0139  1.4868
  119SOPE  H18Z12653   4.239   0.632   4.720 -2.3987  0.6666  1.0466
  120SOPE     N12654   3.661   4.618   6.914  0.2178 -0.2086  0.0179
  120SOPE   HN112655   3.589   4.688   6.885 -0.6856 -0.6020  1.2491
  120SOPE   HN212656   3.726   4.679   6.968 -2.1253  1.5137  1.0488
  120SOPE   HN312657   3.715   4.582   6.833  0.2429 -1.7055  0.6695
  120SOPE   C1212658   3.617   4.510   7.011 -0.8472  0.2538  0.0624
  120SOPE  H12A12659   3.557   4.434   6.956  0.6283 -0.4948 -0.5619
  120SOPE  H12B12660   3.552   4.560   7.086  1.2900 -0.6821  2.6978
  120SOPE   C1112661   3.739   4.445   7.077 -0.6774 -0.1868  0.8947
  120SOPE  H11A12662   3.698   4.377   7.155  0.1691  0.8879  2.3329
  120SOPE  H11B12663   3.804   4.524   7.121 -1.4434  0.8895  0.1413
  120SOPE     P12664   3.932   4.295   7.004 -0.2124 -0.1539  0.4559
  120SOPE   O1312665   3.998   4.338   7.132  0.0910  0.0669  0.8776
  120SOPE   O1412666   4.028   4.293   6.890  0.3336 -0.2857 -0.4503
  120SOPE   O1212667   3.810   4.387   6.964  0.0936  0.3678 -0.2051
  120SOPE   O1112668   3.871   4.152   7.024  0.0458 -0.4207 -0.2298
  120SOPE    C112669   3.742   4.104   6.980 -0.5915 -0.5115  0.5967
  120SOPE    HA12670   3.671   4.188   6.961 -0.3950 -0.1939  1.2569
  120SOPE    HB12671   3.707   4.030   7.055  1.5088 -1.3123  0.8662
  120SOPE    C212672   3.744   4.042   6.835 -0.6317 -0.2015 -0.7094
  120SOPE    HS12673   3.819   3.961   6.846  0.6252  0.7743 -1.7738
  120SOPE   O2112674   3.789   4.142   6.742  0.2863 -0.6423 -0.0502
  120SOPE   C2112675   3.894   4.110   6.674  0.7058  0.3053 -0.9969
  120SOPE   O2212676   3.961   4.011   6.696  0.0625 -0.0758 -0.0347
  120SOPE   C2212677   3.915   4.211   6.564 -0.0167 -0.3406  0.4975
  120SOPE   H2R12678   3.959   4.303   6.607  0.5600  0.4875 -1.7333
  120SOPE   H2S12679   3.813   4.233   6.527  0.1377 -1.0388 -0.3983
  120SOPE    C312680   3.616   3.968   6.799 -0.1198 -0.3614 -0.2216
  120SOPE    HX12681   3.532   4.040   6.812  1.0426  1.0607 -0.3393
  120SOPE    HY12682   3.603   3.883   6.868  2.0268 -1.0715 -0.6367
  120SOPE   O3112683   3.630   3.913   6.670  0.4904  0.1859  0.2519
  120SOPE   C3112684   3.523   3.846   6.636  0.2143  0.8782 -0.2136
  120SOPE   O3212685   3.415   3.841   6.697 -0.3180 -0.0835  0.3549
  120SOPE   C3212686   3.556   3.773   6.506 -0.0643 -0.4527 -0.5786
  120SOPE   H2X12687   3.470   3.703   6.494 -1.9674  2.0296 -2.7978
  120SOPE   H2Y12688   3.649   3.722   6.538  0.9320  0.5382 -1.7941
  120SOPE   C2312689   3.999   4.169   6.443 -0.4516  0.3908 -0.8343
  120SOPE   H3R12690   4.100   4.137   6.478 -0.7278 -0.2629 -0.6156
  120SOPE   H3S12691   4.014   4.254   6.372  1.9329  0.0027 -0.8916
  120SOPE   C2412692   3.933   4.054   6.367  1.2740 -0.5034  0.0087
  120SOPE   H4R12693   3.918   3.975   6.444  0.9880  0.7417  1.2596
  120SOPE   H4S12694   3.831   4.082   6.332  1.2817 -0.3171  0.1326
  120SOPE   C2512695   4.013   4.020   6.247  0.1091 -0.4267 -0.1521
  120SOPE   H5R12696   4.073   4.110   6.219  1.7056 -0.9983  1.2488
  120SOPE   H5S12697   4.085   3.937   6.265  0.3729 -0.4105 -1.0670
  120SOPE   C2612698   3.923   3.994   6.122  0.4129  0.0700 -0.0811
  120SOPE   H6R12699   3.842   3.919   6.136 -0.0774  0.9252  2.0394
  120SOPE   H6S12700   3.876   4.088   6.086 -0.4501  0.7941  2.6695
  120SOPE   C2712701   4.003   3.943   5.999  0.6779 -0.2566  0.2392
  120SOPE   H7R12702   4.083   4.015   5.973 -0.0502  0.5544  0.1943
  120SOPE   H7S12703   4.053   3.848   6.027 -0.1753 -0.8285 -0.1197
  120SOPE   C2812704   3.903   3.926   5.881 -0.5279 -0.7893 -1.0266
  120SOPE   H8R12705   3.934   3.845   5.811  0.3715 -1.5689  0.2388
  120SOPE   H8S12706   3.807   3.877   5.909 -0.4893 -1.0746 -1.3853
  120SOPE   C2912707   3.883   4.059   5.807  0.0793 -0.2869  0.6834
  120SOPE   H9112708   3.968   4.112   5.762 -0.0428 -0.6221  0.0433
  120SOPE  C21012709   3.767   4.129   5.800  0.3577 -0.5990 -0.1259
  120SOPE  H10112710   3.746   4.219   5.741 -0.8527 -1.2923 -0.7959
  120SOPE  C21112711   3.632   4.073   5.848 -0.0935 -0.0493 -0.1544
  120SOPE  H11R12712   3.565   4.160   5.867  1.2821  1.4834 -1.9320
  120SOPE  H11S12713   3.640   4.021   5.946  1.5665  1.2215  0.4414
  120SOPE  C21212714   3.561   3.985   5.745  0.1498 -0.0594  0.8517
  120SOPE  H12R12715   3.474   3.941   5.797  0.5131 -2.3813 -0.3402
  120SOPE  H12S12716   3.627   3.903   5.709 -0.2367  0.7188 -1.8805
  120SOPE  C21312717   3.528   4.056   5.605  0.3451  0.7201  0.6499
  120SOPE  H13R12718   3.520   4.167   5.618 -1.1829  0.4845  2.0548
  120SOPE  H13S12719   3.436   4.014   5.559  0.1345  0.5002  1.2671
  120SOPE  C21412720   3.638   4.036   5.499 -0.1603 -0.3554 -0.0391
  120SOPE  H14R12721   3.659   3.927   5.492  5.5222  0.4458 -0.3838
  120SOPE  H14S12722   3.734   4.090   5.508  0.5656 -1.2089 -2.1075
  120SOPE  C21512723   3.584   4.065   5.354 -0.7403  0.2960  0.2840
  120SOPE  H15R12724   3.588   4.172   5.326 -0.2274  0.8349  2.2212
  120SOPE  H15S12725   3.479   4.030   5.348 -1.1771  1.7501 -0.9810
  120SOPE  C21612726   3.660   3.974   5.254 -0.5956 -0.4121  0.6409
  120SOPE  H16R12727   3.621   3.984   5.151  0.9043  1.0451  0.1697
  120SOPE  H16S12728   3.656   3.866   5.278  0.4735 -0.4467  0.6913
  120SOPE  C21712729   3.807   4.024   5.246 -0.2754 -0.4459 -1.1137
  120SOPE  H17R12730   3.850   4.053   5.344  1.8091 -0.0091 -2.0879
  120SOPE  H17S12731   3.805   4.125   5.199 -0.0011  0.2284  0.2879
  120SOPE  C21812732   3.910   3.921   5.192  0.2895 -0.0969  0.2283
  120SOPE  H18R12733   3.871   3.898   5.091 -3.0003  0.4154  1.2669
  120SOPE  H18S12734   3.906   3.824   5.246 -2.2225 -0.7547 -1.0061
  120SOPE  H18T12735   4.014   3.960   5.205 -0.0682  1.0158 -0.1384
  120SOPE   C3312736   3.560   3.875   6.390  0.5915  0.3321 -0.0307
  120SOPE   H3X12737   3.579   3.807   6.304  1.1260 -0.8175  0.9586
  120SOPE   H3Y12738   3.649   3.942   6.397  3.4233 -3.1253  0.3194
  120SOPE   C3412739   3.425   3.936   6.361 -0.0903  0.0832 -0.5520
  120SOPE   H4X12740   3.385   4.001   6.442  2.0220  1.3384 -0.4677
  120SOPE   H4Y12741   3.347   3.856   6.356  1.4294 -1.4147 -1.2199
  120SOPE   C3512742   3.421   4.023   6.236 -0.7268 -0.8238  0.4619
  120SOPE   H5X12743   3.473   3.965   6.156  1.1722  1.3323  0.0415
  120SOPE   H5Y12744   3.477   4.116   6.254 -1.5738 -0.1196 -0.4279
  120SOPE   C3612745   3.277   4.051   6.186 -0.2080 -0.2248  0.5063
  120SOPE   H6X12746   3.217   4.098   6.267 -1.9227 -1.3637 -0.0456
  120SOPE   H6Y12747   3.230   3.954   6.160 -2.8065  0.9433  0.5665
  120SOPE   C3712748   3.272   4.152   6.071 -0.4352  0.3325 -0.0878
  120SOPE   H7X12749   3.334   4.120   5.984  0.8748 -2.3457  1.6643
  120SOPE   H7Y12750   3.318   4.244   6.113 -0.5392  0.2951  0.1093
  120SOPE   C3812751   3.135   4.194   6.022  0.0629  0.5973 -0.6680
  120SOPE   H8X12752   3.088   4.246   6.108  0.2005 -0.2119 -0.0999
  120SOPE   H8Y12753   3.069   4.107   6.002  1.2455 -0.4246 -0.2487
  120SOPE   C3912754   3.127   4.292   5.903 -0.3648  0.5185  0.2075
  120SOPE   H9X12755   3.207   4.369   5.899 -3.3658  3.8739 -0.2042
  120SOPE   H9Y12756   3.025   4.335   5.912 -1.3309 -1.8741  1.9742
  120SOPE  C31012757   3.144   4.206   5.778 -0.3154  0.5905 -0.4100
  120SOPE  H10X12758   3.051   4.146   5.768 -0.0750  0.0056  0.6726
  120SOPE  H10Y12759   3.230   4.136   5.787  0.0613  1.0651 -0.2932
  120SOPE  C31112760   3.150   4.292   5.647  0.2443  0.3649 -0.2073
  120SOPE  H11X12761   3.228   4.370   5.643 -0.9993  1.5987 -2.6321
  120SOPE  H11Y12762   3.050   4.342   5.640 -0.3152 -0.8016 -0.9324
  120SOPE  C31212763   3.151   4.205   5.519 -0.3359  0.3880 -0.0858
  120SOPE  H12X12764   3.206   4.110   5.537  1.5193  1.4171 -0.0752
  120SOPE  H12Y12765   3.218   4.249   5.442  0.3515 -0.9498 -0.2858
  120SOPE  C31312766   3.015   4.167   5.456 -0.0446  0.2860 -0.0804
  120SOPE  H13X12767   2.952   4.119   5.534  1.6747 -0.3790  0.9551
  120SOPE  H13Y12768   3.022   4.087   5.380 -2.1628  0.0433 -0.0853
  120SOPE  C31412769   2.948   4.292   5.388 -0.4590 -0.1328 -0.1191
  120SOPE  H14X12770   2.926   4.367   5.467  1.5111 -0.3590  0.7160
  120SOPE  H14Y12771   2.858   4.249   5.338  0.2816 -1.4493 -0.3707
  120SOPE  C31512772   3.032   4.346   5.269  0.2589 -0.8165 -0.1221
  120SOPE  H15X12773   3.071   4.256   5.217 -1.8768 -0.5679 -2.3937
  120SOPE  H15Y12774   3.112   4.413   5.306  0.9765 -1.0875 -1.1347
  120SOPE  C31612775   2.956   4.416   5.151  0.8052 -0.1330 -0.5260
  120SOPE  H16X12776   2.909   4.511   5.182  1.7036  0.1576 -0.0219
  120SOPE  H16Y12777   2.885   4.340   5.113  0.2590 -0.2993  0.7845
  120SOPE  C31712778   3.054   4.455   5.042  0.6537  0.1864  0.3343
  120SOPE  H17X12779   3.080   4.369   4.976 -0.6130  1.5549 -2.0966
  120SOPE  H17Y12780   3.140   4.491   5.102  1.1365 -0.0249 -0.2163
  120SOPE  C31812781   3.002   4.568   4.947 -0.0250 -0.6375 -0.2559
  120SOPE  H18X12782   3.063   4.580   4.856  0.3664  2.1548  0.2603
  120SOPE  H18Y12783   3.007   4.658   5.012  1.1162 -0.7690 -0.1412
  120SOPE  H18Z12784   2.898   4.544   4.914 -0.6169 -1.8472  2.2059
  121SOPE     N12785   3.008   5.015   6.810 -0.4991  0.3747  0.0778
  121SOPE   HN112786   3.042   5.069   6.728 -0.5558 -0.7793 -0.7381
  121SOPE   HN212787   2.996   4.917   6.775 -1.9000 -0.3760  2.4179
  121SOPE   HN312788   2.916   5.061   6.823 -2.1065 -2.3656 -0.6439
  121SOPE   C1212789   3.097   5.035   6.925 -0.2943  1.0999  0.0854
  121SOPE  H12A12790   3.038   5.001   7.013  1.5904  1.1019  1.4145
  121SOPE  H12B12791   3.124   5.142   6.933  3.0059  0.3645  0.3499
  121SOPE   C1112792   3.229   4.954   6.899  0.1958 -0.9033  0.3464
  121SOPE  H11A12793   3.300   4.991   6.977  2.4181  1.1474 -2.4290
  121SOPE  H11B12794   3.283   4.973   6.804  1.6400 -2.2661  0.8509
  121SOPE     P12795   3.309   4.724   6.843 -0.0013 -0.0472  0.3762
  121SOPE   O1312796   3.302   4.586   6.891  0.6854  0.1765  0.5017
  121SOPE   O1412797   3.443   4.786   6.836 -0.3786 -0.4059 -0.1072
  121SOPE   O1212798   3.210   4.818   6.926  0.0235  0.1365 -0.4571
  121SOPE   O1112799   3.250   4.723   6.691 -0.6875  0.0684  0.4407
  121SOPE    C112800   3.316   4.806   6.590  0.1280  0.3855 -0.0229
  121SOPE    HA12801   3.409   4.853   6.628  0.3422 -1.0042  1.2638
  121SOPE    HB12802   3.248   4.884   6.549  1.3052  1.1359 -0.6154
  121SOPE    C212803   3.363   4.718   6.464  0.6951  0.3987  0.1237
  121SOPE    HS12804   3.436   4.785   6.415  0.4849  1.9149  1.7790
  121SOPE   O2112805   3.252   4.688   6.379  0.1245  0.1552  0.3053
  121SOPE   C2112806   3.204   4.793   6.316  0.0686  0.1625 -0.6732
  121SOPE   O2212807   3.261   4.905   6.307  0.3581 -0.6368 -0.0756
  121SOPE   C2212808   3.064   4.755   6.262  0.4757 -0.2526  0.2668
  121SOPE   H2R12809   2.989   4.812   6.322 -1.0867 -1.9747  0.0461
  121SOPE   H2S12810   3.044   4.646   6.267 -2.0286  0.1759  1.3288
  121SOPE    C312811   3.434   4.585   6.503  0.0015  0.7316  0.1553
  121SOPE    HX12812   3.350   4.513   6.486 -1.2007  2.3890 -1.4003
  121SOPE    HY12813   3.471   4.605   6.605 -2.7606 -0.8856  1.6098
  121SOPE   O3112814   3.537   4.548   6.411  0.1084  0.6736 -0.3716
  121SOPE   C3112815   3.570   4.423   6.410  0.3500 -0.2531  0.1280
  121SOPE   O3212816   3.531   4.337   6.485 -0.2146 -0.4604  0.2148
  121SOPE   C3212817   3.672   4.399   6.295  0.6273 -0.3132 -0.6912
  121SOPE   H2X12818   3.720   4.306   6.331  2.6703  0.6248 -0.8884
  121SOPE   H2Y12819   3.745   4.482   6.307 -1.8297  1.8744  0.4036
  121SOPE   C2312820   3.051   4.786   6.111  0.4623 -0.0164 -0.0150
  121SOPE   H3R12821   3.094   4.889   6.103  0.1639  0.0653 -0.6763
  121SOPE   H3S12822   2.948   4.785   6.070  1.2810 -0.2632 -2.2371
  121SOPE   C2412823   3.133   4.692   6.019  0.1915  0.3723  0.6317
  121SOPE   H4R12824   3.228   4.684   6.075  0.5294 -1.5047 -0.1437
  121SOPE   H4S12825   3.085   4.592   6.016 -0.6306  0.7463  0.9054
  121SOPE   C2512826   3.170   4.748   5.882 -0.8237 -0.2922 -0.6339
  121SOPE   H5R12827   3.213   4.850   5.876  4.6349 -2.0195  2.3064
  121SOPE   H5S12828   3.259   4.689   5.850 -1.3122 -0.3436 -1.9563
  121SOPE   C2612829   3.066   4.735   5.773 -0.1170  0.6731  0.2324
  121SOPE   H6R12830   3.007   4.643   5.791  0.1723  0.2775 -0.7782
  121SOPE   H6S12831   2.991   4.816   5.785  2.1725  2.7116  1.5865
  121SOPE   C2712832   3.119   4.721   5.631 -0.1330 -0.9768 -0.3483
  121SOPE   H7R12833   3.161   4.620   5.608 -2.1117 -1.8658 -0.1961
  121SOPE   H7S12834   3.036   4.741   5.560  0.4341 -0.1046 -0.7890
  121SOPE   C2812835   3.230   4.822   5.586 -0.6290 -0.0987 -0.3422
  121SOPE   H8R12836   3.322   4.810   5.648 -0.5235 -0.0646 -0.4902
  121SOPE   H8S12837   3.249   4.799   5.479  0.3761 -1.0647  0.0159
  121SOPE   C2912838   3.195   4.967   5.587 -0.4050  1.0132 -0.8250
  121SOPE   H9112839   3.195   5.018   5.684 -1.3732 -0.8396  0.1961
  121SOPE  C21012840   3.180   5.048   5.484 -0.1191 -0.3968 -0.1833
  121SOPE  H10112841   3.152   5.152   5.505  2.2998  0.2507  0.0267
  121SOPE  C21112842   3.177   5.013   5.334 -0.3270 -0.0722  0.1001
  121SOPE  H11R12843   3.128   4.915   5.311 -0.2537 -0.3029  0.8885
  121SOPE  H11S12844   3.286   5.001   5.312 -0.1172 -1.6166  1.7131
  121SOPE  C21212845   3.110   5.125   5.246 -0.2573 -0.7208 -0.4903
  121SOPE  H12R12846   3.171   5.217   5.262 -1.1332 -0.1031 -0.6644
  121SOPE  H12S12847   3.002   5.136   5.269 -0.2489 -0.5432 -0.5335
  121SOPE  C21312848   3.127   5.086   5.103  0.3716 -0.8173  0.2424
  121SOPE  H13R12849   3.065   4.996   5.081 -0.8277 -0.1050  0.6079
  121SOPE  H13S12850   3.228   5.044   5.080  1.0919  2.3051 -3.1976
  121SOPE  C21412851   3.116   5.201   5.003  0.4429 -0.3204  0.0093
  121SOPE  H14R12852   3.158   5.295   5.045 -2.6583  0.7891  0.9635
  121SOPE  H14S12853   3.008   5.225   4.989  1.0255  0.9552 -3.2034
  121SOPE  C21512854   3.179   5.181   4.864 -0.3281 -0.5037 -0.9836
  121SOPE  H15R12855   3.145   5.261   4.795 -1.2697 -0.0021  0.0234
  121SOPE  H15S12856   3.132   5.092   4.817 -2.0742 -0.9707  1.4360
  121SOPE  C21612857   3.335   5.191   4.867  0.4668  0.0497  0.3239
  121SOPE  H16R12858   3.378   5.101   4.916 -2.0684 -2.3377 -1.4988
  121SOPE  H16S12859   3.360   5.285   4.920 -1.4346  0.2748  0.9129
  121SOPE  C21712860   3.389   5.180   4.729  0.5417 -0.4245  0.2646
  121SOPE  H17R12861   3.339   5.255   4.664  0.2197  2.5730  3.6478
  121SOPE  H17S12862   3.373   5.080   4.684  0.2281 -0.7983  1.1917
  121SOPE  C21812863   3.545   5.212   4.722 -0.4683 -0.2744 -0.3959
  121SOPE  H18R12864   3.570   5.308   4.772  1.8907 -0.6027 -0.8313
  121SOPE  H18S12865   3.593   5.198   4.623  0.3384 -2.4888  0.2474
  121SOPE  H18T12866   3.596   5.146   4.795  0.4633  0.9628  0.0878
  121SOPE   C3312867   3.601   4.376   6.157 -0.3376 -0.4902 -0.0503
  121SOPE   H3X12868   3.508   4.316   6.170 -0.2344 -1.0502 -1.6976
  121SOPE   H3Y12869   3.665   4.336   6.075  1.2555 -0.1094  0.9685
  121SOPE   C3412870   3.573   4.518   6.106  0.3702  0.5443 -0.4798
  121SOPE   H4X12871   3.669   4.572   6.093  1.4297 -0.9812  0.5584
  121SOPE   H4Y12872   3.513   4.583   6.174 -1.1041  1.0587 -2.2076
  121SOPE   C3512873   3.496   4.505   5.973 -0.5850  0.3424  0.0016
  121SOPE   H5X12874   3.432   4.594   5.956 -0.1640  0.6436 -0.0549
  121SOPE   H5Y12875   3.424   4.422   5.989 -3.3257  2.2518 -1.6936
  121SOPE   C3612876   3.588   4.485   5.857 -0.3325 -0.2281 -0.1078
  121SOPE   H6X12877   3.665   4.407   5.876  0.8906  0.5879 -1.6063
  121SOPE   H6Y12878   3.649   4.576   5.845 -1.0455  0.2113 -0.4890
  121SOPE   C3712879   3.510   4.461   5.738  0.2536 -0.3555  0.6749
  121SOPE   H7X12880   3.459   4.560   5.733  1.3146  0.1462 -1.1799
  121SOPE   H7Y12881   3.438   4.376   5.735  0.5578 -0.5916 -0.5744
  121SOPE   C3812882   3.592   4.463   5.603 -0.1398  0.3537 -0.2789
  121SOPE   H8X12883   3.672   4.386   5.615 -0.3400  0.3237  0.9623
  121SOPE   H8Y12884   3.635   4.564   5.590  0.5062  0.0796 -0.3314
  121SOPE   C3912885   3.501   4.430   5.493 -0.1950  0.7700  0.5029
  121SOPE   H9X12886   3.422   4.507   5.483  0.0047  0.9436  0.2678
  121SOPE   H9Y12887   3.461   4.327   5.507  0.2150  0.6111  0.5085
  121SOPE  C31012888   3.572   4.436   5.351  1.0463 -0.0642  0.3531
  121SOPE  H10X12889   3.658   4.365   5.348  0.5245 -0.7165  0.5407
  121SOPE  H10Y12890   3.623   4.534   5.351  2.6793 -0.8615  1.1663
  121SOPE  C31112891   3.473   4.411   5.235 -0.1459 -0.2663 -0.0893
  121SOPE  H11X12892   3.408   4.502   5.228  0.8290  0.4819  0.3266
  121SOPE  H11Y12893   3.421   4.315   5.252  0.9399 -1.5310 -3.1560
  121SOPE  C31212894   3.555   4.384   5.111 -0.7452 -0.4562 -0.2677
  121SOPE  H12X12895   3.613   4.292   5.136 -1.4952 -0.8185  0.1612
  121SOPE  H12Y12896   3.627   4.468   5.101 -0.4690 -0.7949 -1.3227
  121SOPE  C31312897   3.474   4.363   4.977  0.2473 -0.1077  0.6457
  121SOPE  H13X12898   3.391   4.434   4.961 -0.9865 -2.0604 -2.6360
  121SOPE  H13Y12899   3.418   4.267   4.979 -1.8073  1.0488  2.0725
  121SOPE  C31412900   3.569   4.368   4.852  0.2587  0.6731  0.3462
  121SOPE  H14X12901   3.650   4.302   4.891 -1.2670 -1.0212  0.7866
  121SOPE  H14Y12902   3.605   4.471   4.831  0.4768  0.1599 -1.9767
  121SOPE  C31512903   3.521   4.293   4.728 -0.1566 -0.0692 -0.4631
  121SOPE  H15X12904   3.528   4.185   4.750  0.0796  0.2408  1.1253
  121SOPE  H15Y12905   3.583   4.308   4.637  0.3062 -0.8298 -0.2832
  121SOPE  C31612906   3.385   4.344   4.693  0.1801 -0.5736  0.2769
  121SOPE  H16X12907   3.379   4.452   4.717  1.7185 -0.3407 -0.2898
  121SOPE  H16Y12908   3.319   4.284   4.759  0.0176 -0.8152 -0.0976
  121SOPE  C31712909   3.340   4.340   4.550 -0.1003  0.1602 -0.1477
  121SOPE  H17X12910   3.388   4.405   4.474 -2.0873  1.2147 -0.5546
  121SOPE  H17Y12911   3.235   4.376   4.555 -0.2312 -0.3173  1.0857
  121SOPE  C31812912   3.340   4.202   4.503  0.7213 -0.2510 -0.3612
  121SOPE  H18X12913   3.286   4.138   4.576 -1.9431  0.9287 -1.1670
  121SOPE  H18Y12914   3.445   4.171   4.488  0.6103 -1.3514  0.9408
  121SOPE  H18Z12915   3.288   4.197   4.405  0.4299 -1.4632 -0.1551
  122SOPE     N12916   2.357   4.109   6.627  0.7048 -0.0278 -0.1425
  122SOPE   HN112917   2.346   4.157   6.718 -0.7336 -0.2443 -0.1868
  122SOPE   HN212918   2.312   4.154   6.545  3.3109  0.0432 -1.6503
  122SOPE   HN312919   2.318   4.014   6.643  0.1011 -0.1110 -1.8223
  122SOPE   C1212920   2.504   4.106   6.605 -0.0955  0.1056 -0.2567
  122SOPE  H12A12921   2.536   4.211   6.587  1.4383 -0.7463 -3.2951
  122SOPE  H12B12922   2.531   4.051   6.513  1.3211 -0.6113  0.5556
  122SOPE   C1112923   2.577   4.041   6.732  0.5832 -0.9495  0.3026
  122SOPE  H11A12924   2.570   4.112   6.817  0.7364 -0.0195 -0.4327
  122SOPE  H11B12925   2.683   4.032   6.700  0.2011  0.8086 -1.7065
  122SOPE     P12926   2.589   3.789   6.808  0.5059 -0.0949 -0.0973
  122SOPE   O1312927   2.494   3.679   6.840 -0.3449  0.1080 -1.2987
  122SOPE   O1412928   2.701   3.824   6.903  0.0011 -0.5095 -0.4563
  122SOPE   O1212929   2.514   3.920   6.768 -0.2035 -0.1998  0.4029
  122SOPE   O1112930   2.658   3.753   6.674 -0.0820  0.1949  0.3320
  122SOPE    C112931   2.593   3.670   6.578  0.6485  0.1921 -0.6114
  122SOPE    HA12932   2.483   3.665   6.588  0.7723 -3.5590  0.3805
  122SOPE    HB12933   2.616   3.563   6.600  0.7722 -0.0007 -1.6352
  122SOPE    C212934   2.616   3.697   6.426  0.1462 -0.1120  0.2598
  122SOPE    HS12935   2.544   3.775   6.394 -0.0837  0.1188  1.3224
  122SOPE   O2112936   2.612   3.577   6.345  0.4933 -0.4073 -0.0648
  122SOPE   C2112937   2.490   3.516   6.332 -0.7003 -0.1796  0.8304
  122SOPE   O2212938   2.388   3.547   6.386  0.4460  0.3197 -0.0072
  122SOPE   C2212939   2.502   3.389   6.247  0.0034 -0.0027  0.2526
  122SOPE   H2R12940   2.403   3.347   6.222  0.8713 -1.5539 -0.7327
  122SOPE   H2S12941   2.570   3.322   6.305  0.5986  1.2978  1.1084
  122SOPE    C312942   2.749   3.768   6.404  0.2108 -1.1164  0.0046
  122SOPE    HX12943   2.831   3.699   6.433  2.0325  0.2142 -1.6688
  122SOPE    HY12944   2.758   3.850   6.479  2.8349 -0.3602 -1.0116
  122SOPE   O3112945   2.780   3.810   6.273 -0.2724 -0.1713  0.1786
  122SOPE   C3112946   2.737   3.931   6.243 -0.2121 -0.4689 -0.2244
  122SOPE   O3212947   2.652   3.989   6.309  0.3126  0.2777 -0.1255
  122SOPE   C3212948   2.805   3.979   6.116  0.1670  0.2827  0.4921
  122SOPE   H2X12949   2.904   4.014   6.149  1.2969 -2.3104  0.1287
  122SOPE   H2Y12950   2.746   4.064   6.077  1.7264  0.8352 -0.7448
  122SOPE   C2312951   2.576   3.416   6.113  0.5849 -0.1479 -0.0399
  122SOPE   H3R12952   2.609   3.316   6.078  0.4715 -0.3461  0.4085
  122SOPE   H3S12953   2.669   3.475   6.127  2.2426 -2.5790 -0.2688
  122SOPE   C2412954   2.499   3.468   5.992  0.3344  0.5822  0.0698
  122SOPE   H4R12955   2.577   3.469   5.913 -0.6177  1.4028 -0.8810
  122SOPE   H4S12956   2.425   3.390   5.965 -0.5739  1.6287 -0.5189
  122SOPE   C2512957   2.430   3.604   6.013  0.1095 -0.3913 -0.2397
  122SOPE   H5R12958   2.350   3.597   6.090  1.5072 -1.0508  1.1970
  122SOPE   H5S12959   2.502   3.680   6.050 -1.5285  1.2205 -0.1911
  122SOPE   C2612960   2.379   3.665   5.881  0.2925 -0.2265  0.1323
  122SOPE   H6R12961   2.288   3.610   5.846 -1.2828  1.4345  1.4572
  122SOPE   H6S12962   2.333   3.763   5.905  3.4632  1.8132 -1.4937
  122SOPE   C2712963   2.480   3.679   5.773  0.0947  0.1992 -0.1614
  122SOPE   H7R12964   2.571   3.732   5.808 -0.7586  1.8810 -0.3854
  122SOPE   H7S12965   2.509   3.574   5.752 -0.1287 -0.6441  3.2447
  122SOPE   C2812966   2.410   3.748   5.654 -0.0738 -0.0818  0.7480
  122SOPE   H8R12967   2.310   3.704   5.631 -0.0642 -1.0506  2.4403
  122SOPE   H8S12968   2.381   3.853   5.674  0.6112  0.5552 -1.3069
  122SOPE   C2912969   2.509   3.759   5.538 -0.8851  0.3383  0.5155
  122SOPE   H9112970   2.596   3.824   5.554 -0.5726  0.1174 -0.2129
  122SOPE  C21012971   2.491   3.683   5.426 -0.5523  0.2792  0.5725
  122SOPE  H10112972   2.559   3.694   5.341 -0.7344 -0.3194  0.3495
  122SOPE  C21112973   2.379   3.590   5.394 -0.2614 -0.4781  0.4300
  122SOPE  H11R12974   2.335   3.541   5.484  0.7659 -1.9695  0.1609
  122SOPE  H11S12975   2.428   3.501   5.348  0.6127 -0.7554  1.8338
  122SOPE  C21212976   2.273   3.647   5.298 -0.9255 -0.4504  0.1921
  122SOPE  H12R12977   2.320   3.700   5.213 -0.1611  0.8199  1.3767
  122SOPE  H12S12978   2.215   3.720   5.359 -0.5239  0.8336 -0.9042
  122SOPE  C21312979   2.179   3.537   5.241  0.6845  0.6468 -0.4971
  122SOPE  H13R12980   2.122   3.484   5.321  2.3894 -1.2717 -0.4501
  122SOPE  H13S12981   2.251   3.460   5.206 -1.5141 -1.3022 -1.0416
  122SOPE  C21412982   2.080   3.588   5.129 -0.7020 -0.3184 -0.4124
  122SOPE  H14R12983   2.140   3.639   5.050  0.0832  0.9352  0.9271
  122SOPE  H14S12984   2.012   3.664   5.174 -0.8381 -1.5114  1.4812
  122SOPE  C21512985   1.999   3.473   5.062 -0.3578 -0.5642 -0.1509
  122SOPE  H15R12986   1.951   3.416   5.145  0.1302 -2.0040 -0.8145
  122SOPE  H15S12987   2.058   3.402   5.000 -0.7295 -0.2221 -0.8955
  122SOPE  C21612988   1.887   3.523   4.984 -0.0659 -0.3735  0.1828
  122SOPE  H16R12989   1.847   3.616   5.028 -1.8992 -1.7801  1.6994
  122SOPE  H16S12990   1.795   3.460   4.974  0.2961 -0.5107 -4.3876
  122SOPE  C21712991   1.921   3.545   4.836 -0.4332  0.1702 -0.2018
  122SOPE  H17R12992   1.954   3.447   4.796  1.4295  0.2485  1.0086
  122SOPE  H17S12993   2.012   3.608   4.834  0.5769 -1.1569  1.2925
  122SOPE  C21812994   1.822   3.628   4.752 -0.1272  0.7950 -0.4932
  122SOPE  H18R12995   1.719   3.588   4.744 -0.4025  1.6296 -1.2202
  122SOPE  H18S12996   1.858   3.621   4.647  1.1303 -0.5159 -0.0183
  122SOPE  H18T12997   1.811   3.732   4.790 -3.7473  1.3324 -2.5867
  122SOPE   C3312998   2.813   3.866   6.001 -0.8409 -0.6251 -0.3675
  122SOPE   H3X12999   2.708   3.838   5.979 -1.2392  0.6598 -0.2052
  122SOPE   H3Y13000   2.856   3.770   6.037 -0.2008  0.2096  1.2324
  122SOPE   C3413001   2.887   3.914   5.871  0.0552 -0.5930 -0.2565
  122SOPE   H4X13002   2.993   3.913   5.903  0.3608  1.3377 -1.0666
  122SOPE   H4Y13003   2.857   4.019   5.849  1.5757  0.2962  1.6493
  122SOPE   C3513004   2.861   3.815   5.756 -0.9723 -0.3538 -0.5788
  122SOPE   H5X13005   2.761   3.842   5.715 -0.7910  0.5199 -0.4624
  122SOPE   H5Y13006   2.861   3.707   5.782  2.2045 -0.1125  0.8440
  122SOPE   C3613007   2.968   3.838   5.639 -0.1686 -0.3901  0.1801
  122SOPE   H6X13008   3.069   3.815   5.678 -0.3150  0.8858  1.3831
  122SOPE   H6Y13009   2.983   3.947   5.628 -0.8654 -0.0448  2.2550
  122SOPE   C3713010   2.924   3.770   5.504 -0.3286 -0.1868 -0.7859
  122SOPE   H7X13011   2.822   3.812   5.495 -0.1664  0.7454  1.2461
  122SOPE   H7Y13012   2.903   3.665   5.536  1.5310 -0.1104  0.9208
  122SOPE   C3813013   3.018   3.770   5.388 -1.0408 -0.5367  0.7024
  122SOPE   H8X13014   3.111   3.722   5.426 -1.2657 -0.9465  0.7410
  122SOPE   H8Y13015   3.054   3.875   5.376 -0.8776 -0.4771  1.6304
  122SOPE   C3913016   2.972   3.700   5.264 -0.1629 -0.3009 -0.1706
  122SOPE   H9X13017   3.009   3.595   5.255 -0.2221 -0.3849  0.4575
  122SOPE   H9Y13018   3.006   3.766   5.182 -0.4192  0.0173 -0.0224
  122SOPE  C31013019   2.821   3.706   5.240 -0.3663 -0.1771 -0.3271
  122SOPE  H10X13020   2.785   3.809   5.261  0.5561  0.0389  0.2347
  122SOPE  H10Y13021   2.770   3.636   5.309  1.3216 -2.3036 -1.1126
  122SOPE  C31113022   2.770   3.661   5.091  0.2064  0.3312 -0.0108
  122SOPE  H11X13023   2.804   3.556   5.078 -1.7432 -0.4043  0.5152
  122SOPE  H11Y13024   2.817   3.722   5.011  0.3030  0.7293  0.3480
  122SOPE  C31213025   2.617   3.660   5.070  0.1446  0.5631 -0.2236
  122SOPE  H12X13026   2.586   3.764   5.094 -0.7251 -0.1663  2.1073
  122SOPE  H12Y13027   2.575   3.592   5.147 -0.4879 -0.3439 -1.3602
  122SOPE  C31313028   2.560   3.630   4.932  0.2305 -0.4898  0.0286
  122SOPE  H13X13029   2.565   3.523   4.902 -0.5529  0.1667 -2.6937
  122SOPE  H13Y13030   2.619   3.683   4.854  2.4122  0.1805  2.0060
  122SOPE  C31413031   2.413   3.665   4.930  0.3042 -0.5713  0.8562
  122SOPE  H14X13032   2.403   3.770   4.967 -0.3381  0.8395 -2.8186
  122SOPE  H14Y13033   2.360   3.598   5.002 -2.6939  0.8592  0.1761
  122SOPE  C31513034   2.343   3.653   4.791  0.3804  0.3746 -0.0447
  122SOPE  H15X13035   2.395   3.729   4.729  0.3286  1.1542  0.8482
  122SOPE  H15Y13036   2.238   3.683   4.811 -0.1088 -1.7931  0.8731
  122SOPE  C31613037   2.340   3.510   4.731 -0.5490  0.0693  0.0563
  122SOPE  H16X13038   2.322   3.430   4.804  0.0667  0.6506  0.8638
  122SOPE  H16Y13039   2.436   3.486   4.679 -0.8242 -0.3297 -0.2755
  122SOPE  C31713040   2.223   3.488   4.636 -0.6311  0.8155  0.3803
  122SOPE  H17X13041   2.237   3.542   4.540 -0.8938  1.7952  0.8760
  122SOPE  H17Y13042   2.124   3.512   4.681 -1.8889 -1.8682 -0.7305
  122SOPE  C31813043   2.211   3.341   4.595  0.3690 -0.0874  0.6655
  122SOPE  H18X13044   2.147   3.287   4.668 -0.1740  0.6165  0.7189
  122SOPE  H18Y13045   2.301   3.278   4.578  0.0460 -0.6889  1.1380
  122SOPE  H18Z13046   2.163   3.338   4.495  1.9692  0.1924 -0.1453
  123SOPE     N13047   5.773   3.066   2.416 -0.3776 -0.3038 -0.0289
  123SOPE   HN113048   5.682   3.113   2.399 -0.0093 -0.5971 -3.5235
  123SOPE   HN213049   5.829   3.085   2.330 -0.3810  0.9380  0.2361
  123SOPE   HN313050   5.729   2.972   2.409 -1.4199 -0.2534  3.9242
  123SOPE   C1213051   5.848   3.095   2.545 -0.7664  0.5094 -0.0325
  123SOPE  H12A13052   5.944   3.039   2.544 -0.8124  0.4324 -0.1000
  123SOPE  H12B13053   5.777   3.058   2.621 -1.3348  0.3797 -0.6244
  123SOPE   C1113054   5.880   3.250   2.556  0.1121  0.0698  0.7410
  123SOPE  H11A13055   5.900   3.271   2.663  1.9852 -1.0510  0.6663
  123SOPE  H11B13056   5.793   3.305   2.514  0.2153 -0.5425 -0.3144
  123SOPE     P13057   6.113   3.367   2.543 -0.1339  0.0457 -0.1354
  123SOPE   O1313058   6.159   3.463   2.437  0.2682 -0.3087 -0.3283
  123SOPE   O1413059   6.205   3.281   2.618  0.0251 -0.3361  0.5762
  123SOPE   O1213060   5.992   3.291   2.477  0.2626 -0.2189 -0.5916
  123SOPE   O1113061   6.039   3.459   2.655 -0.3011  0.1461 -0.2805
  123SOPE    C113062   6.115   3.555   2.737  0.3447  0.5807  0.5170
  123SOPE    HA13063   6.065   3.654   2.722  0.7857  0.6308 -0.7424
  123SOPE    HB13064   6.225   3.564   2.729  0.4364  0.1791  1.2643
  123SOPE    C213065   6.110   3.519   2.890  0.1292  0.2434  0.3554
  123SOPE    HS13066   6.160   3.593   2.955 -1.3732  1.9714 -0.3718
  123SOPE   O2113067   6.164   3.383   2.905  0.1131 -0.0059  0.8275
  123SOPE   C2113068   6.297   3.371   2.904 -0.3018 -0.1889  0.5316
  123SOPE   O2213069   6.372   3.468   2.901  0.0572  0.4276  0.1943
  123SOPE   C2213070   6.340   3.223   2.906 -0.2382 -0.2097 -0.0833
  123SOPE   H2R13071   6.451   3.221   2.915 -0.2818 -0.6071  0.4104
  123SOPE   H2S13072   6.306   3.175   2.812 -0.9453 -0.7724  0.4510
  123SOPE    C313073   5.964   3.528   2.939  0.5938  0.1978  0.5890
  123SOPE    HX13074   5.902   3.448   2.894  1.5840 -0.1668 -0.1805
  123SOPE    HY13075   5.929   3.625   2.897 -0.6220  0.2629  1.7229
  123SOPE   O3113076   5.945   3.542   3.082 -0.0557  0.0929  0.5322
  123SOPE   C3113077   5.934   3.432   3.155  0.5302 -0.1419  0.7959
  123SOPE   O3213078   5.947   3.318   3.112 -0.3278  0.2550 -0.3183
  123SOPE   C3213079   5.893   3.462   3.301  0.0430  0.7217 -0.4034
  123SOPE   H2X13080   5.927   3.375   3.360 -0.3205  1.5108  1.0151
  123SOPE   H2Y13081   5.784   3.464   3.321  0.2071 -1.2625  0.9726
  123SOPE   C2313082   6.275   3.150   3.027  0.2238  0.1627 -0.3383
  123SOPE   H3R13083   6.320   3.050   3.041  1.8049  0.7177 -1.1490
  123SOPE   H3S13084   6.166   3.133   3.009  0.1368 -1.0258  1.1993
  123SOPE   C2413085   6.268   3.220   3.168 -0.6881 -0.0022  0.5202
  123SOPE   H4R13086   6.190   3.300   3.165 -0.6389  0.0330 -0.9265
  123SOPE   H4S13087   6.226   3.163   3.253 -2.2691  0.8264  0.3426
  123SOPE   C2513088   6.403   3.277   3.213 -0.1730  0.5631  0.8019
  123SOPE   H5R13089   6.455   3.187   3.251 -1.6303 -0.4574  0.4550
  123SOPE   H5S13090   6.467   3.320   3.133 -0.0607 -1.3526 -0.1915
  123SOPE   C2613091   6.383   3.392   3.318 -0.0933 -0.7793  0.1100
  123SOPE   H6R13092   6.373   3.490   3.267 -2.7510 -0.5778  0.8370
  123SOPE   H6S13093   6.288   3.370   3.372  0.0251  1.0089  1.1332
  123SOPE   C2713094   6.492   3.405   3.421  0.2586 -0.7287 -0.1711
  123SOPE   H7R13095   6.478   3.332   3.504 -1.8293  0.6040  0.7118
  123SOPE   H7S13096   6.594   3.399   3.377  0.0440 -0.9120 -0.6471
  123SOPE   C2813097   6.492   3.549   3.492  0.1183 -0.0218 -0.1128
  123SOPE   H8R13098   6.491   3.636   3.422  1.4104 -0.0099 -0.1382
  123SOPE   H8S13099   6.402   3.554   3.558 -0.3080  0.6755 -0.7300
  123SOPE   C2913100   6.618   3.564   3.572 -0.6641  0.2274 -0.6287
  123SOPE   H9113101   6.704   3.598   3.513  0.0556  0.3921  0.4982
  123SOPE  C21013102   6.628   3.548   3.709  0.3626 -0.3834  0.5576
  123SOPE  H10113103   6.724   3.560   3.761  1.6576  0.1386 -1.8364
  123SOPE  C21113104   6.511   3.520   3.801 -0.3055 -0.5209 -0.1449
  123SOPE  H11R13105   6.485   3.412   3.807 -0.3581 -0.4734  0.6452
  123SOPE  H11S13106   6.425   3.577   3.760 -0.0726 -1.1032 -1.5000
  123SOPE  C21213107   6.538   3.573   3.946 -0.2959 -0.6261  0.6019
  123SOPE  H12R13108   6.439   3.592   3.994 -0.1687  0.1775  0.5635
  123SOPE  H12S13109   6.588   3.672   3.939 -2.0462  0.3980  1.5972
  123SOPE  C21313110   6.617   3.496   4.045 -0.1702  1.1172 -0.7756
  123SOPE  H13R13111   6.726   3.501   4.028  0.0100  0.7814  0.2063
  123SOPE  H13S13112   6.589   3.390   4.030  0.4939  0.8383 -0.0903
  123SOPE  C21413113   6.586   3.537   4.185  0.7070  0.2274 -1.2008
  123SOPE  H14R13114   6.485   3.505   4.219  0.9291  2.1072  1.5811
  123SOPE  H14S13115   6.595   3.647   4.180  1.7796  0.1389 -1.3943
  123SOPE  C21513116   6.682   3.482   4.293 -0.3712  0.0784  1.1906
  123SOPE  H15R13117   6.782   3.488   4.246 -0.6214  0.5293  0.7016
  123SOPE  H15S13118   6.667   3.375   4.319  1.6362 -0.6771 -0.5099
  123SOPE  C21613119   6.673   3.554   4.428 -0.1071 -0.5016 -0.5917
  123SOPE  H16R13120   6.724   3.488   4.501 -1.8855  0.3397  1.5193
  123SOPE  H16S13121   6.568   3.560   4.463 -0.4110 -3.0445 -0.9171
  123SOPE  C21713122   6.732   3.697   4.427  0.1912 -0.3397  0.2071
  123SOPE  H17R13123   6.659   3.761   4.374  0.3939  0.7785  1.2467
  123SOPE  H17S13124   6.830   3.700   4.375  0.3934  0.3442  0.6294
  123SOPE  C21813125   6.734   3.757   4.568 -0.2078  0.8316  0.0242
  123SOPE  H18R13126   6.807   3.699   4.628  0.3371 -1.6873 -2.8355
  123SOPE  H18S13127   6.633   3.753   4.616 -0.8306 -1.1258 -1.3182
  123SOPE  H18T13128   6.774   3.860   4.559 -0.7199  1.1171  0.8712
  123SOPE   C3313129   5.949   3.594   3.361 -0.4125 -0.1514 -0.7473
  123SOPE   H3X13130   5.904   3.682   3.310 -1.2073 -0.9642 -1.4994
  123SOPE   H3Y13131   6.055   3.587   3.331  0.0118 -2.9171  1.0189
  123SOPE   C3413132   5.953   3.604   3.515 -0.2900  0.4593 -0.5511
  123SOPE   H4X13133   6.005   3.696   3.546  0.7922 -0.8759  1.9386
  123SOPE   H4Y13134   6.013   3.523   3.562 -1.9165 -0.2520  0.4067
  123SOPE   C3513135   5.809   3.615   3.576 -0.0611  0.0650 -0.0839
  123SOPE   H5X13136   5.744   3.526   3.562  1.4484 -1.3351  1.2393
  123SOPE   H5Y13137   5.765   3.714   3.551 -1.7891 -0.3676  1.0454
  123SOPE   C3613138   5.818   3.621   3.731  0.3715 -0.3688  0.0056
  123SOPE   H6X13139   5.861   3.526   3.768  2.4672  1.1787  1.7775
  123SOPE   H6Y13140   5.711   3.618   3.760 -0.2650  0.4770 -2.0761
  123SOPE   C3713141   5.898   3.733   3.802 -0.0127  0.2019  0.0833
  123SOPE   H7X13142   5.886   3.826   3.741 -1.5329  0.4545  0.7310
  123SOPE   H7Y13143   6.006   3.708   3.812 -0.1772 -0.7455 -0.4262
  123SOPE   C3813144   5.828   3.779   3.929 -0.4767 -0.0715 -0.3462
  123SOPE   H8X13145   5.853   3.700   4.003 -0.3068  1.1881  0.9936
  123SOPE   H8Y13146   5.720   3.768   3.906 -0.4074 -0.6324 -0.4161
  123SOPE   C3913147   5.876   3.916   3.975 -0.6200  0.0413  0.3329
  123SOPE   H9X13148   5.878   3.981   3.885  0.0672 -0.2093  0.1600
  123SOPE   H9Y13149   5.975   3.918   4.025 -2.0023 -1.0140  3.3373
  123SOPE  C31013150   5.784   3.977   4.079  0.5524 -0.5001 -0.0003
  123SOPE  H10X13151   5.682   3.942   4.049  1.1729 -1.5487 -0.9872
  123SOPE  H10Y13152   5.786   4.087   4.066  0.8423 -0.6871 -1.8814
  123SOPE  C31113153   5.813   3.927   4.224  0.6375  0.0439 -0.2468
  123SOPE  H11X13154   5.837   3.819   4.214 -0.4003 -0.1725 -0.4471
  123SOPE  H11Y13155   5.711   3.933   4.267 -0.2587  0.4576 -2.3039
  123SOPE  C31213156   5.910   4.028   4.298  0.1638  0.7268  0.4221
  123SOPE  H12X13157   5.861   4.124   4.325 -0.5087  0.9859 -1.5705
  123SOPE  H12Y13158   6.000   4.051   4.238  1.3833 -2.2807  0.8983
  123SOPE  C31313159   5.959   3.956   4.428 -0.3745 -0.1389  0.1015
  123SOPE  H13X13160   6.004   3.857   4.404  0.1229  0.1031  0.0299
  123SOPE  H13Y13161   5.874   3.926   4.493 -1.0312 -0.6014 -0.9498
  123SOPE  C31413162   6.060   4.041   4.492 -0.2208 -0.4717 -0.5012
  123SOPE  H14X13163   6.135   4.071   4.415  1.4848  0.2193  1.3400
  123SOPE  H14Y13164   6.116   3.992   4.575  0.2316  2.0347  0.7639
  123SOPE  C31513165   6.007   4.175   4.546  0.5638 -0.7979 -0.0133
  123SOPE  H15X13166   5.926   4.158   4.620 -0.7577 -1.1499 -1.4854
  123SOPE  H15Y13167   5.958   4.228   4.462  0.6300  0.4390  0.6984
  123SOPE  C31613168   6.115   4.266   4.611 -0.4912 -0.1528  0.2306
  123SOPE  H16X13169   6.160   4.201   4.689  1.4841 -0.7216 -1.2950
  123SOPE  H16Y13170   6.064   4.354   4.657  1.4716  1.7328 -1.0127
  123SOPE  C31713171   6.221   4.308   4.509 -0.6009 -0.4001 -0.0168
  123SOPE  H17X13172   6.182   4.342   4.410 -1.6460  1.7559  1.0492
  123SOPE  H17Y13173   6.269   4.210   4.486  0.6102  0.3127 -0.6407
  123SOPE  C31813174   6.324   4.408   4.564 -0.1383 -0.2895 -0.5296
  123SOPE  H18X13175   6.383   4.352   4.640 -0.9055 -0.8110 -0.3081
  123SOPE  H18Y13176   6.274   4.492   4.617 -0.0835 -0.8737  0.4773
  123SOPE  H18Z13177   6.399   4.439   4.488  0.2476  0.3008  0.0779
  124SOPE     N13178   1.813   1.142   2.818 -0.0808  0.0695  0.6010
  124SOPE   HN113179   1.872   1.095   2.747 -1.0771  0.9887 -0.8765
  124SOPE   HN213180   1.846   1.118   2.914 -0.0175  2.7225  1.3347
  124SOPE   HN313181   1.712   1.125   2.801 -0.0106  0.1599  0.0980
  124SOPE   C1213182   1.845   1.276   2.771 -0.2693 -1.0828  0.4672
  124SOPE  H12A13183   1.943   1.301   2.817 -0.3214  0.3669 -0.1498
  124SOPE  H12B13184   1.769   1.340   2.821 -1.5623 -1.0674 -1.4086
  124SOPE   C1113185   1.832   1.283   2.618 -0.7025  0.6970  0.2074
  124SOPE  H11A13186   1.898   1.203   2.579 -1.5225 -0.3355  0.8827
  124SOPE  H11B13187   1.860   1.388   2.596 -0.8816  0.5791 -0.6366
  124SOPE     P13188   1.640   1.308   2.451  0.1005  0.2977 -0.4109
  124SOPE   O1313189   1.653   1.187   2.364 -0.5636 -0.1760 -0.2917
  124SOPE   O1413190   1.706   1.434   2.408 -0.0409 -0.3074  0.8471
  124SOPE   O1213191   1.696   1.255   2.586 -0.5724  0.0485  0.2994
  124SOPE   O1113192   1.489   1.341   2.486 -0.3504  0.3677  0.4288
  124SOPE    C113193   1.454   1.451   2.570  0.0517 -0.4796 -0.8071
  124SOPE    HA13194   1.352   1.484   2.542  0.2435  0.2974 -0.6060
  124SOPE    HB13195   1.524   1.536   2.560 -0.0129 -0.0623  1.8354
  124SOPE    C213196   1.433   1.398   2.717 -0.8464  0.2015  0.3346
  124SOPE    HS13197   1.537   1.391   2.755 -0.3823  1.2710 -0.6846
  124SOPE   O2113198   1.374   1.265   2.715 -0.7796 -0.3633 -0.6632
  124SOPE   C2113199   1.424   1.169   2.798 -0.1841  0.0958  0.2047
  124SOPE   O2213200   1.525   1.176   2.872  0.8420 -0.3561  0.4579
  124SOPE   C2213201   1.323   1.057   2.806  0.0797 -0.2804  0.6676
  124SOPE   H2R13202   1.372   0.964   2.840 -1.0840 -1.1561  0.0382
  124SOPE   H2S13203   1.301   1.026   2.702 -2.2619 -1.4925  1.4496
  124SOPE    C313204   1.364   1.498   2.816 -0.0470  0.4333 -0.0377
  124SOPE    HX13205   1.257   1.506   2.789 -0.0601 -0.1955 -0.1867
  124SOPE    HY13206   1.414   1.594   2.791  0.2789  0.6038  1.1676
  124SOPE   O3113207   1.374   1.454   2.955  0.4824  0.3866 -0.8607
  124SOPE   C3113208   1.482   1.487   3.024  0.3890 -0.1988 -0.3134
  124SOPE   O3213209   1.561   1.573   2.989  0.1705 -0.5091  0.1763
  124SOPE   C3213210   1.495   1.407   3.155 -0.4841  0.3841 -0.6074
  124SOPE   H2X13211   1.540   1.308   3.134 -0.2000  0.3254  0.2343
  124SOPE   H2Y13212   1.396   1.386   3.202 -0.2959 -1.3107 -0.9013
  124SOPE   C2313213   1.194   1.101   2.884  0.3104  0.7370  0.5187
  124SOPE   H3R13214   1.122   1.016   2.878 -0.3914  1.0140  3.4515
  124SOPE   H3S13215   1.142   1.175   2.818  0.1578  0.0957 -0.0950
  124SOPE   C2413216   1.211   1.149   3.018  0.0293 -0.2024 -1.0094
  124SOPE   H4R13217   1.295   1.095   3.065 -0.2620  0.0047 -0.2384
  124SOPE   H4S13218   1.231   1.259   3.019 -0.0744 -0.1528  1.8779
  124SOPE   C2513219   1.089   1.119   3.106 -0.4490 -0.3583 -0.0575
  124SOPE   H5R13220   1.004   1.178   3.065 -1.0063 -1.1466 -0.0423
  124SOPE   H5S13221   1.060   1.013   3.091 -0.2624 -0.3226 -0.7032
  124SOPE   C2613222   1.111   1.151   3.251  0.2113  0.8129  0.3256
  124SOPE   H6R13223   1.176   1.065   3.274 -3.1839 -3.0015 -2.8827
  124SOPE   H6S13224   1.173   1.243   3.261  2.0064 -0.1063 -1.6639
  124SOPE   C2713225   0.985   1.153   3.342 -0.7007  0.3539  0.1759
  124SOPE   H7R13226   0.930   1.234   3.290  1.0256 -0.6447 -3.5740
  124SOPE   H7S13227   0.927   1.058   3.335 -1.6261  0.9668 -0.8592
  124SOPE   C2813228   1.013   1.200   3.489  0.5770  0.6702 -0.1530
  124SOPE   H8R13229   1.088   1.141   3.547  1.1576  1.2094 -0.3386
  124SOPE   H8S13230   1.064   1.298   3.478  3.1423 -0.6540 -0.9405
  124SOPE   C2913231   0.876   1.195   3.552  0.1982 -0.5341  0.2645
  124SOPE   H9113232   0.799   1.140   3.497 -0.2535 -0.8823  1.2123
  124SOPE  C21013233   0.836   1.264   3.657 -0.2079  0.4643  0.5067
  124SOPE  H10113234   0.735   1.248   3.697  0.0818 -1.1501  0.6530
  124SOPE  C21113235   0.922   1.359   3.728 -0.1135 -0.0490  0.1189
  124SOPE  H11R13236   0.883   1.463   3.719  0.3463  0.2453  1.3867
  124SOPE  H11S13237   1.029   1.367   3.700  0.0731  1.0171  1.0453
  124SOPE  C21213238   0.936   1.328   3.882  0.0691 -0.0142  0.9371
  124SOPE  H12R13239   1.028   1.375   3.924 -0.5416 -0.2179  2.6112
  124SOPE  H12S13240   0.946   1.219   3.899  1.7430  0.1715  1.3301
  124SOPE  C21313241   0.809   1.351   3.957 -0.2985 -0.2334  0.3050
  124SOPE  H13R13242   0.714   1.313   3.915  0.0631 -0.0964 -0.6777
  124SOPE  H13S13243   0.796   1.461   3.950  1.0158 -0.1054 -0.5896
  124SOPE  C21413244   0.818   1.318   4.110  0.1175 -0.0717  0.4515
  124SOPE  H14R13245   0.900   1.248   4.136 -1.0496 -3.6939 -4.2154
  124SOPE  H14S13246   0.723   1.272   4.144  0.3682 -0.3126  0.8270
  124SOPE  C21513247   0.853   1.443   4.192  0.0189 -0.5023 -0.4450
  124SOPE  H15R13248   0.792   1.527   4.152 -1.1902 -0.6013  1.0973
  124SOPE  H15S13249   0.961   1.467   4.193 -0.5252  2.4154  0.2244
  124SOPE  C21613250   0.813   1.434   4.342  0.6555 -0.4206 -0.0529
  124SOPE  H16R13251   0.702   1.427   4.347  0.4094  2.7919  1.5464
  124SOPE  H16S13252   0.840   1.532   4.387 -1.0063 -0.7889  1.8887
  124SOPE  C21713253   0.874   1.312   4.414  0.4928  0.0322 -0.2470
  124SOPE  H17R13254   0.985   1.314   4.409  0.5556  0.7591  1.0063
  124SOPE  H17S13255   0.830   1.223   4.364  0.1458  1.1172 -1.9542
  124SOPE  C21813256   0.825   1.302   4.564 -0.4508 -0.2386 -0.5925
  124SOPE  H18R13257   0.715   1.295   4.575 -0.3936 -0.9248 -0.4354
  124SOPE  H18S13258   0.862   1.387   4.625  0.7808 -2.2663  1.6650
  124SOPE  H18T13259   0.860   1.213   4.621 -0.9029  1.7818  3.2350
  124SOPE   C3313260   1.592   1.494   3.247 -0.0283  0.3633 -0.3785
  124SOPE   H3X13261   1.554   1.597   3.259 -0.0583  0.1355  2.1566
  124SOPE   H3Y13262   1.697   1.512   3.217 -0.1253 -0.7367 -1.4294
  124SOPE   C3413263   1.609   1.424   3.382 -0.1877 -0.0218 -0.9237
  124SOPE   H4X13264   1.674   1.334   3.374  1.6818  1.0643  0.9853
  124SOPE   H4Y13265   1.506   1.401   3.417 -0.3207  0.5719 -0.9291
  124SOPE   C3513266   1.668   1.511   3.494 -0.3796 -0.3589  0.0241
  124SOPE   H5X13267   1.591   1.589   3.513 -1.3215 -1.0660 -0.7892
  124SOPE   H5Y13268   1.767   1.555   3.473  0.0937 -0.4844  1.8052
  124SOPE   C3613269   1.666   1.425   3.631 -0.9735  0.0723  0.2481
  124SOPE   H6X13270   1.736   1.339   3.621 -1.5441 -0.2749 -0.9379
  124SOPE   H6Y13271   1.563   1.384   3.632 -1.8028  2.0469  0.3607
  124SOPE   C3713272   1.682   1.506   3.751 -0.1995 -1.4750  0.4754
  124SOPE   H7X13273   1.613   1.592   3.741  1.9722  0.2090 -1.1682
  124SOPE   H7Y13274   1.788   1.540   3.761  0.1942 -2.1977 -0.9464
  124SOPE   C3813275   1.660   1.435   3.886 -0.8849 -0.5368 -0.2524
  124SOPE   H8X13276   1.728   1.347   3.877 -0.3891 -0.3568  1.4021
  124SOPE   H8Y13277   1.561   1.388   3.903 -1.1557  0.2112  0.2358
  124SOPE   C3913278   1.692   1.523   4.012  0.5304  0.4271 -0.4920
  124SOPE   H9X13279   1.660   1.626   3.987  0.1141  0.3414 -0.3143
  124SOPE   H9Y13280   1.803   1.530   4.022  0.4986 -0.3934  0.6526
  124SOPE  C31013281   1.632   1.471   4.142  0.1426  0.2006 -0.3383
  124SOPE  H10X13282   1.691   1.380   4.168 -1.4739 -1.0343 -0.7944
  124SOPE  H10Y13283   1.528   1.432   4.143  0.2651 -0.1188  0.6199
  124SOPE  C31113284   1.661   1.570   4.259  0.0227 -0.2067  0.1653
  124SOPE  H11X13285   1.601   1.662   4.242  0.6078 -0.0363 -1.0594
  124SOPE  H11Y13286   1.765   1.607   4.264 -1.4976  4.8605  0.2359
  124SOPE  C31213287   1.616   1.523   4.396 -0.7126 -0.4884 -0.2343
  124SOPE  H12X13288   1.649   1.596   4.474 -2.7139 -0.1788  0.3888
  124SOPE  H12Y13289   1.662   1.422   4.410  0.1782  0.1622  2.1740
  124SOPE  C31313290   1.461   1.520   4.414 -0.4474 -0.2517  0.1928
  124SOPE  H13X13291   1.419   1.466   4.327 -2.7163  1.6752 -0.0068
  124SOPE  H13Y13292   1.430   1.627   4.416 -0.0363 -0.1157 -0.3816
  124SOPE  C31413293   1.416   1.441   4.539  0.1876 -0.1020 -0.0411
  124SOPE  H14X13294   1.309   1.466   4.556 -0.1248 -0.3961 -1.4008
  124SOPE  H14Y13295   1.461   1.493   4.626  1.8963  0.5237 -1.2638
  124SOPE  C31513296   1.445   1.291   4.539  0.0212 -0.7851  0.1109
  124SOPE  H15X13297   1.533   1.267   4.475 -0.0686  1.3882 -0.9163
  124SOPE  H15Y13298   1.354   1.238   4.507 -1.1735  0.8832  0.6001
  124SOPE  C31613299   1.468   1.237   4.678  0.3727  0.4259 -0.6363
  124SOPE  H16X13300   1.381   1.268   4.740  0.0108  0.5319 -1.1922
  124SOPE  H16Y13301   1.561   1.281   4.721 -0.6120 -0.1780  2.3723
  124SOPE  C31713302   1.474   1.083   4.678 -0.1517 -0.0845 -0.6754
  124SOPE  H17X13303   1.560   1.056   4.615 -0.2189 -0.1497 -0.7382
  124SOPE  H17Y13304   1.386   1.039   4.626 -0.4302 -1.3401  0.7732
  124SOPE  C31813305   1.495   1.030   4.817  0.2541  0.7851 -0.6199
  124SOPE  H18X13306   1.572   1.087   4.873  1.5696 -0.8451 -0.6529
  124SOPE  H18Y13307   1.534   0.926   4.825 -0.0350  0.7204  0.0284
  124SOPE  H18Z13308   1.398   1.045   4.868  0.3825 -0.2478 -0.0354
  125SOPE     N13309   4.104   1.273   2.304  0.0849 -0.7497 -0.4652
  125SOPE   HN113310   4.009   1.314   2.296 -0.0803 -0.7232  1.3742
  125SOPE   HN213311   4.174   1.325   2.248  0.6696 -0.5807  0.4043
  125SOPE   HN313312   4.102   1.179   2.258 -1.8796  0.4146 -3.0211
  125SOPE   C1213313   4.156   1.267   2.444  0.2388  0.1263  0.3148
  125SOPE  H12A13314   4.223   1.180   2.458  0.8848  0.9296  2.9014
  125SOPE  H12B13315   4.075   1.258   2.520 -2.5544  0.9642 -2.3787
  125SOPE   C1113316   4.233   1.397   2.491  0.0892  0.2257 -0.5229
  125SOPE  H11A13317   4.245   1.391   2.601  0.9715  1.2774 -0.5496
  125SOPE  H11B13318   4.169   1.485   2.470 -0.0577  0.1814 -0.2607
  125SOPE     P13319   4.489   1.457   2.471 -0.4641 -0.2024 -0.0044
  125SOPE   O1313320   4.467   1.596   2.519  0.4767 -0.2576 -0.1801
  125SOPE   O1413321   4.590   1.436   2.365 -0.3554 -1.0324  0.6644
  125SOPE   O1213322   4.352   1.393   2.424  0.0462 -0.0126 -0.0942
  125SOPE   O1113323   4.520   1.366   2.594  0.8071  0.5685 -0.0719
  125SOPE    C113324   4.534   1.225   2.568 -0.3102  0.2341  0.5397
  125SOPE    HA13325   4.643   1.209   2.586  0.9874  2.0306 -4.1439
  125SOPE    HB13326   4.508   1.199   2.463 -1.0357 -0.6670  0.9258
  125SOPE    C213327   4.440   1.143   2.660 -0.1060  0.5750 -0.4207
  125SOPE    HS13328   4.335   1.179   2.648 -0.0894  1.2010  1.1326
  125SOPE   O2113329   4.485   1.151   2.796  0.2455 -0.1567  0.6453
  125SOPE   C2113330   4.408   1.235   2.866 -0.0045 -0.2601 -0.3735
  125SOPE   O2213331   4.292   1.272   2.843  0.4494  0.5468 -0.0609
  125SOPE   C2213332   4.496   1.283   2.986 -0.4832  0.2931  0.4109
  125SOPE   H2R13333   4.521   1.389   2.961 -1.6391  0.6962  0.8927
  125SOPE   H2S13334   4.590   1.226   2.973  0.0766  0.8917  1.6512
  125SOPE    C313335   4.443   0.995   2.620  0.2712  0.1155 -0.3556
  125SOPE    HX13336   4.550   0.963   2.620 -0.5920 -3.2624  1.4937
  125SOPE    HY13337   4.400   0.977   2.519 -0.1908 -1.7906  0.1431
  125SOPE   O3113338   4.377   0.916   2.716  0.1958  0.2296 -0.3120
  125SOPE   C3113339   4.244   0.919   2.716  0.3260 -0.2104  0.0843
  125SOPE   O3213340   4.175   0.968   2.630 -0.0241  0.2489  0.6406
  125SOPE   C3213341   4.181   0.864   2.845  0.2748 -0.4142  0.2945
  125SOPE   H2X13342   4.195   0.755   2.826  1.8910 -0.2384  0.3444
  125SOPE   H2Y13343   4.075   0.889   2.825  0.9369  0.9715 -1.8452
  125SOPE   C2313344   4.427   1.245   3.121  0.1034 -1.0347 -0.2349
  125SOPE   H3R13345   4.411   1.137   3.144  1.6882 -0.6819  3.0179
  125SOPE   H3S13346   4.329   1.294   3.106  0.3940 -0.5116 -0.4563
  125SOPE   C2413347   4.500   1.289   3.247 -0.8637 -1.1692 -0.2871
  125SOPE   H4R13348   4.596   1.235   3.261  0.6109  1.0586 -1.1910
  125SOPE   H4S13349   4.529   1.396   3.235  1.1037 -1.3376  2.2931
  125SOPE   C2513350   4.424   1.284   3.373  0.3022  0.5531 -0.3139
  125SOPE   H5R13351   4.328   1.332   3.345  0.9141  1.5771 -0.7016
  125SOPE   H5S13352   4.384   1.185   3.402  0.9057  0.8826  1.7670
  125SOPE   C2613353   4.488   1.355   3.490 -0.1421 -0.6125  0.0253
  125SOPE   H6R13354   4.590   1.314   3.503  0.9089  1.6525 -0.6068
  125SOPE   H6S13355   4.497   1.459   3.452 -0.7323 -0.8837 -0.8918
  125SOPE   C2713356   4.412   1.345   3.625  0.2859  0.6924 -0.4109
  125SOPE   H7R13357   4.303   1.349   3.600 -0.1916 -1.7158  0.9695
  125SOPE   H7S13358   4.422   1.242   3.664 -1.2293 -0.2500 -2.2973
  125SOPE   C2813359   4.461   1.459   3.718  0.3174  0.3717 -0.5378
  125SOPE   H8R13360   4.572   1.455   3.730  0.1850 -0.8520  0.3903
  125SOPE   H8S13361   4.441   1.551   3.660  2.4221  0.2520 -1.5656
  125SOPE   C2913362   4.382   1.455   3.849  0.4704  0.1380  0.4675
  125SOPE   H9113363   4.275   1.434   3.832  0.5932 -1.4212  1.4235
  125SOPE  C21013364   4.434   1.458   3.976  0.4265 -0.2866 -1.4468
  125SOPE  H10113365   4.374   1.436   4.066  3.2908 -3.1527 -0.0285
  125SOPE  C21113366   4.582   1.462   4.018 -0.5870  0.3221  0.1897
  125SOPE  H11R13367   4.655   1.465   3.934 -0.1628  0.4198  0.5600
  125SOPE  H11S13368   4.599   1.368   4.074 -2.5443 -0.7975 -0.9831
  125SOPE  C21213369   4.617   1.566   4.120  0.5925 -0.3931 -0.3399
  125SOPE  H12R13370   4.615   1.663   4.066 -2.8665 -0.6425 -0.8958
  125SOPE  H12S13371   4.713   1.542   4.169  1.2211 -0.7168 -1.6730
  125SOPE  C21313372   4.515   1.599   4.236 -0.2587  0.0953  0.3427
  125SOPE  H13R13373   4.411   1.614   4.201  0.0429 -0.5429 -0.8580
  125SOPE  H13S13374   4.546   1.699   4.273 -3.1271  0.6722  1.4743
  125SOPE  C21413375   4.527   1.519   4.367 -0.2096  0.1005 -0.1254
  125SOPE  H14R13376   4.523   1.413   4.336 -1.1608 -0.8196  2.7653
  125SOPE  H14S13377   4.439   1.555   4.425  0.4368 -2.0578  2.3802
  125SOPE  C21513378   4.659   1.553   4.441 -0.5658 -0.2589 -0.2403
  125SOPE  H15R13379   4.634   1.578   4.546  3.8572 -0.4984  1.0746
  125SOPE  H15S13380   4.715   1.634   4.390 -0.5024  0.2792  0.6581
  125SOPE  C21613381   4.749   1.435   4.460 -0.8583 -0.0719  0.1629
  125SOPE  H16R13382   4.796   1.422   4.360 -1.0462  1.0982 -0.0976
  125SOPE  H16S13383   4.703   1.337   4.487  0.4202 -1.0688 -1.1553
  125SOPE  C21713384   4.867   1.457   4.560  0.4596  0.1417  0.0198
  125SOPE  H17R13385   4.823   1.457   4.662  0.8869 -2.2791  0.2709
  125SOPE  H17S13386   4.912   1.557   4.544  1.4327 -0.4063 -0.8518
  125SOPE  C21813387   4.988   1.365   4.550  0.0084  0.3505 -0.1777
  125SOPE  H18R13388   5.053   1.376   4.639  0.1163  0.1186 -0.2259
  125SOPE  H18S13389   5.046   1.395   4.460  2.4532 -2.2326  0.3862
  125SOPE  H18T13390   4.955   1.260   4.530 -0.4222  0.5385 -0.4750
  125SOPE   C3313391   4.236   0.919   2.978  0.1697 -0.4561 -0.0704
  125SOPE   H3X13392   4.215   1.028   2.975 -0.6247 -0.6196 -0.8173
  125SOPE   H3Y13393   4.347   0.918   2.980  0.2190  1.4449  1.2165
  125SOPE   C3413394   4.170   0.856   3.098  0.2331 -0.3591 -0.2829
  125SOPE   H4X13395   4.203   0.751   3.109 -1.2437 -0.7373  0.8590
  125SOPE   H4Y13396   4.062   0.863   3.076  0.3177 -0.8930 -0.8831
  125SOPE   C3513397   4.210   0.936   3.221 -0.2877  0.7840  0.7762
  125SOPE   H5X13398   4.170   1.039   3.207  0.4085  1.2799  2.1520
  125SOPE   H5Y13399   4.320   0.952   3.232 -0.2858  0.0244  2.0674
  125SOPE   C3613400   4.165   0.882   3.358  0.2515 -0.0077 -0.5308
  125SOPE   H6X13401   4.227   0.791   3.375  1.3799  0.7104 -0.7030
  125SOPE   H6Y13402   4.057   0.857   3.356  0.3372 -0.3301 -1.5446
  125SOPE   C3713403   4.208   0.979   3.470 -0.2135  0.0672 -0.1057
  125SOPE   H7X13404   4.154   1.077   3.470  0.6723  0.5731  0.2442
  125SOPE   H7Y13405   4.317   1.001   3.460 -0.0550 -0.4957  0.3572
  125SOPE   C3813406   4.185   0.921   3.613  0.2706  0.2293 -0.5007
  125SOPE   H8X13407   4.236   0.823   3.609 -2.3866 -1.2660  0.3042
  125SOPE   H8Y13408   4.079   0.903   3.640  1.0310 -2.1719  1.2472
  125SOPE   C3913409   4.264   1.004   3.722 -0.2283  0.3136  0.5179
  125SOPE   H9X13410   4.242   1.111   3.706 -1.5826  0.4452  2.7188
  125SOPE   H9Y13411   4.373   0.986   3.708 -0.3429 -1.6511  1.6649
  125SOPE  C31013412   4.237   0.960   3.861 -0.2746  0.1351  0.0367
  125SOPE  H10X13413   4.283   0.861   3.880  3.2802  0.9477 -3.1003
  125SOPE  H10Y13414   4.127   0.957   3.875 -0.3803 -0.7622 -0.8526
  125SOPE  C31113415   4.293   1.065   3.952 -0.8958 -0.4304 -0.1937
  125SOPE  H11X13416   4.251   1.164   3.923 -0.4437 -0.5619 -1.3723
  125SOPE  H11Y13417   4.402   1.067   3.931 -0.8816 -0.3607 -0.1144
  125SOPE  C31213418   4.282   1.030   4.098  0.2949  0.4710  0.3231
  125SOPE  H12X13419   4.342   0.938   4.111 -0.2781 -0.3040 -2.0591
  125SOPE  H12Y13420   4.180   1.006   4.134 -0.1988 -0.8519 -1.7515
  125SOPE  C31313421   4.343   1.141   4.185 -0.0635  0.6621 -0.1405
  125SOPE  H13X13422   4.285   1.235   4.178 -3.4885 -1.3660 -1.9352
  125SOPE  H13Y13423   4.437   1.168   4.133  0.7037 -1.6374 -0.0497
  125SOPE  C31413424   4.394   1.101   4.328 -0.3142 -0.5059 -0.9100
  125SOPE  H14X13425   4.450   1.185   4.375  0.4104 -1.2631 -0.4110
  125SOPE  H14Y13426   4.468   1.019   4.338  0.5698  0.4426  0.7687
  125SOPE  C31513427   4.279   1.060   4.421 -0.3570  0.3094 -0.3324
  125SOPE  H15X13428   4.241   0.964   4.380  1.9420 -1.3667  1.2120
  125SOPE  H15Y13429   4.200   1.136   4.400 -0.0117  0.7968  0.1164
  125SOPE  C31613430   4.313   1.051   4.567 -0.5696 -0.4760 -0.5609
  125SOPE  H16X13431   4.335   1.156   4.596  0.1219 -0.5914 -0.6458
  125SOPE  H16Y13432   4.397   0.980   4.585  0.4206  0.9316  0.5668
  125SOPE  C31713433   4.198   1.010   4.651 -0.4021  0.4450 -0.4167
  125SOPE  H17X13434   4.177   0.904   4.624 -0.6611  0.4079 -0.0757
  125SOPE  H17Y13435   4.110   1.073   4.625 -0.8646  0.5346  1.2646
  125SOPE  C31813436   4.229   1.000   4.799  0.3097 -0.5122  0.1087
  125SOPE  H18X13437   4.137   0.982   4.858 -1.4045  1.1216 -1.8687
  125SOPE  H18Y13438   4.265   1.101   4.828  0.3611 -0.4418 -0.1960
  125SOPE  H18Z13439   4.310   0.930   4.829 -1.1225 -2.3546 -0.1485
  126SOPE     N13440   0.368   5.695   2.303 -0.2567 -0.5008 -0.1269
  126SOPE   HN113441   0.331   5.669   2.210 -2.4284  2.4620 -0.2434
  126SOPE   HN213442   0.434   5.774   2.285 -2.2284  1.2749 -0.0342
  126SOPE   HN313443   0.413   5.612   2.347 -2.0323 -1.1550  0.5124
  126SOPE   C1213444   0.253   5.749   2.390 -0.8014  0.6183  0.2956
  126SOPE  H12A13445   0.175   5.779   2.317 -0.4953 -0.4833 -0.5123
  126SOPE  H12B13446   0.297   5.815   2.468  1.4975  0.2631 -0.6086
  126SOPE   C1113447   0.185   5.631   2.461 -0.0887 -0.3589 -0.2041
  126SOPE  H11A13448   0.111   5.682   2.526  1.4680  2.1011 -0.2729
  126SOPE  H11B13449   0.263   5.577   2.519  0.9724 -0.1358 -1.3864
  126SOPE     P13450  -0.032   5.526   2.354  0.0244  0.3409  0.1260
  126SOPE   O1313451  -0.054   5.411   2.265 -0.3149 -0.2884 -1.0299
  126SOPE   O1413452  -0.097   5.651   2.316 -0.3375  0.7447 -0.0210
  126SOPE   O1213453   0.131   5.540   2.368 -0.1173 -0.0096 -0.0593
  126SOPE   O1113454  -0.089   5.494   2.502 -0.5353  0.0181 -0.1334
  126SOPE    C113455  -0.037   5.382   2.571  0.3636 -0.2981 -0.2990
  126SOPE    HA13456   0.072   5.390   2.592  0.7596 -1.2393 -1.8676
  126SOPE    HB13457  -0.060   5.284   2.526 -0.9782  0.2460 -0.8275
  126SOPE    C213458  -0.105   5.378   2.712  0.3390 -0.6757  0.4635
  126SOPE    HS13459  -0.072   5.283   2.759 -0.3366 -2.1549 -1.8689
  126SOPE   O2113460  -0.244   5.407   2.713  0.9155 -0.3007  0.3548
  126SOPE   C2113461  -0.320   5.312   2.669 -0.2529  0.3701  0.4413
  126SOPE   O2213462  -0.279   5.199   2.645  0.2597 -0.4054  0.0085
  126SOPE   C2213463  -0.467   5.358   2.682 -0.3506  0.1808 -0.3046
  126SOPE   H2R13464  -0.492   5.411   2.587 -0.3266  1.9600  0.6428
  126SOPE   H2S13465  -0.474   5.438   2.758  1.1530 -1.6887  1.9396
  126SOPE    C313466  -0.045   5.492   2.804  0.3184  0.3098  0.6164
  126SOPE    HX13467  -0.069   5.588   2.754  0.3495 -0.3520 -0.7469
  126SOPE    HY13468   0.066   5.481   2.799  0.1505 -1.3485 -0.5883
  126SOPE   O3113469  -0.095   5.493   2.937 -0.2354  0.4981  0.3281
  126SOPE   C3113470  -0.043   5.399   3.018  0.6967  0.2177  0.6370
  126SOPE   O3213471   0.038   5.319   2.982 -0.2530  0.2246 -0.4941
  126SOPE   C3213472  -0.124   5.408   3.147 -1.0299  0.3783  0.5926
  126SOPE   H2X13473  -0.231   5.403   3.119 -0.6490  0.7894 -1.0233
  126SOPE   H2Y13474  -0.105   5.513   3.176 -1.5423  0.8174 -0.5936
  126SOPE   C2313475  -0.561   5.243   2.713  0.6772 -0.3084  0.3977
  126SOPE   H3R13476  -0.557   5.156   2.645  1.5841 -1.0414  1.3523
  126SOPE   H3S13477  -0.657   5.300   2.712  1.7243  1.5332  0.4620
  126SOPE   C2413478  -0.563   5.208   2.866 -0.1896  0.2118  0.0636
  126SOPE   H4R13479  -0.568   5.304   2.922  0.3590  0.0418  0.4045
  126SOPE   H4S13480  -0.662   5.162   2.890 -1.4516  3.0206  0.6693
  126SOPE   C2513481  -0.441   5.127   2.913  0.1932  0.0581 -0.1584
  126SOPE   H5R13482  -0.437   5.032   2.855  0.4347  1.1799 -2.0369
  126SOPE   H5S13483  -0.344   5.176   2.894  0.1762 -0.0032 -0.4102
  126SOPE   C2613484  -0.453   5.085   3.063 -0.6236  0.0175 -0.2824
  126SOPE   H6R13485  -0.452   5.170   3.134 -1.1897  0.6170 -0.9830
  126SOPE   H6S13486  -0.547   5.027   3.080  0.9656 -2.5796  0.2932
  126SOPE   C2713487  -0.328   5.002   3.107 -0.2867 -0.7127 -0.9621
  126SOPE   H7R13488  -0.317   4.912   3.043 -0.8326  0.0169 -2.1068
  126SOPE   H7S13489  -0.243   5.067   3.077 -2.2702  1.4662 -2.0798
  126SOPE   C2813490  -0.334   4.978   3.264  0.7073 -0.1973  0.1372
  126SOPE   H8R13491  -0.333   5.075   3.318  0.4801 -1.1794  1.9796
  126SOPE   H8S13492  -0.439   4.942   3.266  1.2147 -1.8692 -1.1102
  126SOPE   C2913493  -0.235   4.873   3.309 -0.7428  0.2025  0.7723
  126SOPE   H9113494  -0.226   4.788   3.240  1.2268  3.6658 -3.7784
  126SOPE  C21013495  -0.155   4.874   3.417  0.9810  0.0098 -0.1576
  126SOPE  H10113496  -0.076   4.798   3.425 -0.3853 -1.6950 -1.8090
  126SOPE  C21113497  -0.156   4.988   3.513  0.1036  0.4432 -1.0667
  126SOPE  H11R13498  -0.239   5.062   3.502  1.7500  2.2394 -2.0606
  126SOPE  H11S13499  -0.061   5.045   3.503 -0.4235  1.4540 -0.5581
  126SOPE  C21213500  -0.148   4.936   3.660 -0.4052  0.3862  0.2835
  126SOPE  H12R13501  -0.068   4.860   3.673 -0.4122 -0.1357 -2.2265
  126SOPE  H12S13502  -0.241   4.883   3.689 -0.1574  0.3635  1.0551
  126SOPE  C21313503  -0.138   5.047   3.766  0.2472  0.0171 -0.1344
  126SOPE  H13R13504  -0.231   5.107   3.766  1.0905  1.4947 -2.8058
  126SOPE  H13S13505  -0.048   5.108   3.742 -1.3079  1.3694 -3.1212
  126SOPE  C21413506  -0.121   5.002   3.916  0.0141  0.2988 -0.0190
  126SOPE  H14R13507  -0.019   4.959   3.921 -0.9172 -2.2254 -1.1328
  126SOPE  H14S13508  -0.186   4.914   3.933 -1.8486  1.4754 -0.7050
  126SOPE  C21513509  -0.138   5.108   4.031  0.0221  0.6128  0.3002
  126SOPE  H15R13510  -0.089   5.198   3.988 -1.0094  0.8139 -0.5008
  126SOPE  H15S13511  -0.084   5.059   4.114 -1.9865 -2.3256  0.0339
  126SOPE  C21613512  -0.278   5.140   4.078 -0.3075 -0.4848  0.1305
  126SOPE  H16R13513  -0.312   5.049   4.131 -0.7207  0.1366  0.9583
  126SOPE  H16S13514  -0.348   5.154   3.993 -0.1086 -1.3957 -0.1932
  126SOPE  C21713515  -0.279   5.251   4.188  0.2612 -0.8679 -0.1155
  126SOPE  H17R13516  -0.256   5.348   4.139 -0.3994  0.0125  1.2471
  126SOPE  H17S13517  -0.208   5.223   4.268 -2.3113 -1.3239  2.1764
  126SOPE  C21813518  -0.407   5.284   4.265  0.3879  0.2651  0.3739
  126SOPE  H18R13519  -0.455   5.188   4.293 -2.6210  1.1081 -1.4262
  126SOPE  H18S13520  -0.474   5.344   4.200  0.2788 -0.8009 -0.5215
  126SOPE  H18T13521  -0.375   5.354   4.345 -0.7533  0.0737  1.0228
  126SOPE   C3313522  -0.074   5.308   3.254 -0.0049 -0.0095 -0.0409
  126SOPE   H3X13523   0.037   5.309   3.260  0.2417 -2.3762 -2.4782
  126SOPE   H3Y13524  -0.082   5.203   3.219 -1.0022  1.3234 -4.4000
  126SOPE   C3413525  -0.139   5.337   3.386  0.0876  0.4274 -0.1161
  126SOPE   H4X13526  -0.150   5.238   3.435 -0.7520  0.0751 -0.9785
  126SOPE   H4Y13527  -0.242   5.376   3.370  1.1516  2.5183 -2.4626
  126SOPE   C3513528  -0.054   5.443   3.472 -0.6313  0.7674  0.1906
  126SOPE   H5X13529  -0.020   5.529   3.410  0.1898  0.2040 -0.1530
  126SOPE   H5Y13530   0.048   5.404   3.493 -1.1550  0.1014  1.6479
  126SOPE   C3613531  -0.111   5.507   3.596  0.3213  0.5078  0.4124
  126SOPE   H6X13532  -0.145   5.433   3.671 -0.5677  0.5029  0.0213
  126SOPE   H6Y13533  -0.206   5.560   3.573  1.6714  2.4965 -0.9228
  126SOPE   C3713534  -0.014   5.588   3.677 -0.8057 -0.2053 -0.1040
  126SOPE   H7X13535   0.010   5.677   3.616  0.2183  0.5482  1.3495
  126SOPE   H7Y13536   0.081   5.530   3.675  0.0102  1.0983 -1.6476
  126SOPE   C3813537  -0.062   5.627   3.823  0.0271 -0.1068 -0.7337
  126SOPE   H8X13538  -0.084   5.527   3.864  2.1726 -0.0817  0.6465
  126SOPE   H8Y13539  -0.154   5.689   3.816  1.8601  2.8808 -0.0307
  126SOPE   C3913540   0.052   5.699   3.901 -0.3300  0.0322 -0.1792
  126SOPE   H9X13541   0.081   5.800   3.863  2.5714 -0.2372  1.0141
  126SOPE   H9Y13542   0.143   5.638   3.880 -0.2806 -0.5367  1.5762
  126SOPE  C31013543   0.025   5.696   4.055  0.5313 -0.3402 -0.1577
  126SOPE  H10X13544   0.125   5.694   4.104 -0.5356 -1.6416  2.1121
  126SOPE  H10Y13545  -0.028   5.601   4.076 -1.6995  1.3801  2.6426
  126SOPE  C31113546  -0.084   5.808   4.097  0.2114  0.0085  0.5963
  126SOPE  H11X13547  -0.166   5.796   4.023  2.3220 -1.5420 -1.6663
  126SOPE  H11Y13548  -0.039   5.909   4.088  1.0538 -0.4297 -0.3742
  126SOPE  C31213549  -0.131   5.803   4.234 -0.3499  0.0560  0.3167
  126SOPE  H12X13550  -0.060   5.823   4.317 -0.4206 -0.2175  0.4452
  126SOPE  H12Y13551  -0.171   5.700   4.248  0.5759 -0.4330 -0.5227
  126SOPE  C31313552  -0.248   5.897   4.259 -0.0972  0.3108  0.5054
  126SOPE  H13X13553  -0.271   5.887   4.367  1.3549  0.4133  0.8514
  126SOPE  H13Y13554  -0.339   5.867   4.204 -0.4759  0.7546  0.8835
  126SOPE  C31413555  -0.228   6.048   4.252  0.5467 -0.0483  0.2504
  126SOPE  H14X13556  -0.319   6.081   4.306 -1.1237 -2.1587 -1.0987
  126SOPE  H14Y13557  -0.241   6.076   4.145 -1.9483  1.1231  0.7945
  126SOPE  C31513558  -0.101   6.097   4.314 -0.0869  0.9659  0.0607
  126SOPE  H15X13559  -0.021   6.057   4.249 -2.2520 -1.9738 -0.9934
  126SOPE  H15Y13560  -0.080   6.070   4.420  0.0423  1.4774  0.1671
  126SOPE  C31613561  -0.088   6.248   4.311 -0.1809 -0.5980 -0.3104
  126SOPE  H16X13562  -0.163   6.297   4.377  0.5076 -0.3481  0.3038
  126SOPE  H16Y13563  -0.103   6.274   4.204  0.7929 -1.9267 -0.7947
  126SOPE  C31713564   0.044   6.299   4.356 -0.6930  0.8961 -0.3219
  126SOPE  H17X13565   0.114   6.271   4.274  0.2873  2.1940  0.0275
  126SOPE  H17Y13566   0.084   6.253   4.449 -0.6577 -0.8006 -1.1418
  126SOPE  C31813567   0.052   6.450   4.389  0.1487  0.5845  0.9166
  126SOPE  H18X13568   0.144   6.479   4.443 -0.0444  1.8453  0.5974
  126SOPE  H18Y13569  -0.036   6.488   4.445 -0.0517 -0.5661  1.4041
  126SOPE  H18Z13570   0.038   6.498   4.289 -2.1165  1.3219  1.5391
  127SOPE     N13571   6.164   4.870   2.336  0.6245 -0.0635 -0.4811
  127SOPE   HN113572   6.159   4.895   2.235 -0.9853  1.9899  0.0235
  127SOPE   HN213573   6.257   4.828   2.356 -0.0370 -3.5184 -3.4489
  127SOPE   HN313574   6.100   4.788   2.347  0.0591 -0.0526 -3.1155
  127SOPE   C1213575   6.117   4.981   2.423 -0.0569 -0.3809 -0.1167
  127SOPE  H12A13576   6.176   4.967   2.516  3.7797  0.0424 -2.2736
  127SOPE  H12B13577   6.008   4.982   2.445 -0.0322 -2.5035  0.3086
  127SOPE   C1113578   6.155   5.121   2.359 -0.7591  0.4920  0.6160
  127SOPE  H11A13579   6.266   5.118   2.347 -0.7680 -1.4071  0.7014
  127SOPE  H11B13580   6.132   5.210   2.422  0.3388  1.1950  0.0726
  127SOPE     P13581   5.957   5.187   2.205 -0.1793 -0.1462  0.1803
  127SOPE   O1313582   5.859   5.077   2.233 -0.0866 -0.2939  0.0936
  127SOPE   O1413583   5.950   5.258   2.075  0.7116 -0.6362 -0.0782
  127SOPE   O1213584   6.103   5.128   2.229 -0.2636  0.1765 -0.0730
  127SOPE   O1113585   5.956   5.302   2.312 -0.3957 -0.5768  0.0560
  127SOPE    C113586   5.834   5.378   2.334 -1.0207  0.3185 -0.9294
  127SOPE    HA13587   5.753   5.362   2.260 -3.2137  0.9306  1.2163
  127SOPE    HB13588   5.859   5.484   2.311  0.4495  0.0799 -0.5320
  127SOPE    C213589   5.770   5.353   2.470 -0.2175 -0.1891 -0.4499
  127SOPE    HS13590   5.683   5.422   2.476  1.1666  1.8858 -2.7513
  127SOPE   O2113591   5.870   5.388   2.574  0.4402 -0.3314  0.9504
  127SOPE   C2113592   5.864   5.519   2.598  0.6525  0.4718 -0.2463
  127SOPE   O2213593   5.803   5.605   2.536 -0.2907  0.3614 -0.1679
  127SOPE   C2213594   5.950   5.560   2.711 -0.1760 -0.0599 -0.5096
  127SOPE   H2R13595   5.956   5.671   2.710  1.1941 -0.1127 -1.3366
  127SOPE   H2S13596   6.058   5.534   2.705  0.1176  1.0983 -0.5024
  127SOPE    C313597   5.724   5.207   2.494  0.3685 -0.0180 -0.3802
  127SOPE    HX13598   5.812   5.140   2.506 -0.0440 -0.3321  1.1232
  127SOPE    HY13599   5.664   5.169   2.409 -1.7712  0.0825  1.0210
  127SOPE   O3113600   5.642   5.210   2.617  0.3301 -0.6005 -0.0728
  127SOPE   C3113601   5.598   5.091   2.654 -0.1091 -0.2095  0.0252
  127SOPE   O3213602   5.621   4.990   2.594 -0.0022  0.4176 -0.5346
  127SOPE   C3213603   5.518   5.099   2.778 -0.3070 -0.5183  0.0933
  127SOPE   H2X13604   5.496   4.994   2.808  3.5233 -1.7955 -0.9820
  127SOPE   H2Y13605   5.422   5.152   2.761 -1.1287 -1.5279  1.4023
  127SOPE   C2313606   5.912   5.524   2.857  1.0528  0.3599 -0.7509
  127SOPE   H3R13607   5.886   5.417   2.870 -1.5960  0.9720 -0.3819
  127SOPE   H3S13608   5.810   5.555   2.887  2.1164  0.8041  2.9820
  127SOPE   C2413609   6.012   5.580   2.956 -0.0677  0.2337 -0.3219
  127SOPE   H4R13610   6.111   5.560   2.911  0.0211  3.1321 -1.6143
  127SOPE   H4S13611   5.997   5.690   2.968 -0.3895  0.2939 -1.2074
  127SOPE   C2513612   5.994   5.512   3.087  1.1286  0.1585 -0.6684
  127SOPE   H5R13613   5.891   5.528   3.124  1.4800  3.2698 -0.7918
  127SOPE   H5S13614   6.018   5.404   3.074  0.8082 -0.0765  0.5919
  127SOPE   C2613615   6.091   5.562   3.195 -0.0090 -0.2729 -0.1211
  127SOPE   H6R13616   6.191   5.582   3.151 -0.0002 -0.2869 -0.1067
  127SOPE   H6S13617   6.047   5.657   3.230 -0.5304 -0.6965  0.4036
  127SOPE   C2713618   6.111   5.473   3.312  0.5419  0.2795 -0.3107
  127SOPE   H7R13619   6.020   5.459   3.374  0.5558 -1.1378 -0.5794
  127SOPE   H7S13620   6.156   5.375   3.285  1.2718 -0.2836  2.6079
  127SOPE   C2813621   6.223   5.534   3.405 -0.4862 -0.2575  0.0126
  127SOPE   H8R13622   6.314   5.560   3.346 -0.4970  0.4503  0.3031
  127SOPE   H8S13623   6.201   5.634   3.448 -0.3662 -0.5925  0.8712
  127SOPE   C2913624   6.267   5.432   3.506 -0.3690  0.4788  0.0926
  127SOPE   H9113625   6.255   5.330   3.467 -2.8076  0.5911  0.4064
  127SOPE  C21013626   6.301   5.450   3.639 -0.2737 -0.4674 -0.1645
  127SOPE  H10113627   6.336   5.364   3.699 -2.0609  0.2576  2.0577
  127SOPE  C21113628   6.308   5.586   3.712 -0.3470  0.2041 -0.0684
  127SOPE  H11R13629   6.246   5.655   3.651 -0.0682  0.4771 -0.0435
  127SOPE  H11S13630   6.411   5.621   3.731  0.1730 -1.6481  0.7159
  127SOPE  C21213631   6.238   5.573   3.847  0.9948 -0.9396 -0.9457
  127SOPE  H12R13632   6.257   5.476   3.899  1.7499 -0.5673 -0.5064
  127SOPE  H12S13633   6.128   5.565   3.835  0.8252 -1.3245  0.6002
  127SOPE  C21313634   6.270   5.687   3.951 -0.1127  0.3600  0.2558
  127SOPE  H13R13635   6.266   5.785   3.899 -2.8996  1.2391  1.9120
  127SOPE  H13S13636   6.368   5.674   4.003  0.4987 -0.2924 -1.0145
  127SOPE  C21413637   6.165   5.697   4.060 -0.1567 -0.2398 -0.0656
  127SOPE  H14R13638   6.066   5.725   4.019 -0.7127  0.3045  1.5821
  127SOPE  H14S13639   6.196   5.786   4.119 -1.0819  0.7274 -0.9887
  127SOPE  C21513640   6.144   5.584   4.159 -0.1809  0.3531  0.1181
  127SOPE  H15R13641   6.241   5.559   4.206 -1.3428  0.1890  2.5931
  127SOPE  H15S13642   6.110   5.498   4.098 -3.2231  1.1076  0.5994
  127SOPE  C21613643   6.042   5.616   4.268  0.3612 -0.6138  0.3684
  127SOPE  H16R13644   5.985   5.527   4.301  2.4425 -1.1673  2.8482
  127SOPE  H16S13645   5.968   5.684   4.222  0.7013 -0.8100 -0.4804
  127SOPE  C21713646   6.103   5.702   4.379 -0.2803  0.7985 -0.4134
  127SOPE  H17R13647   6.012   5.752   4.418 -0.9360  0.1845 -1.1167
  127SOPE  H17S13648   6.171   5.778   4.336  0.5583  0.6145  0.5576
  127SOPE  C21813649   6.176   5.627   4.501 -0.4683 -0.0460  0.2499
  127SOPE  H18R13650   6.159   5.678   4.598 -1.8625  0.5008 -0.2620
  127SOPE  H18S13651   6.285   5.637   4.481 -1.1417  1.7955 -3.3612
  127SOPE  H18T13652   6.162   5.517   4.495  1.4667 -0.2615 -1.4641
  127SOPE   C3313653   5.591   5.172   2.890 -0.2391  0.2937 -0.4189
  127SOPE   H3X13654   5.536   5.150   2.985 -0.8588 -2.5617 -1.3350
  127SOPE   H3Y13655   5.581   5.282   2.881 -0.0602  0.3482 -0.0029
  127SOPE   C3413656   5.736   5.137   2.924  0.7000  0.7799 -0.0182
  127SOPE   H4X13657   5.796   5.179   2.840  2.5657  1.3987  1.5556
  127SOPE   H4Y13658   5.731   5.026   2.920 -2.8971  0.7137  1.9597
  127SOPE   C3513659   5.780   5.196   3.054  0.3459 -0.5241  0.0307
  127SOPE   H5X13660   5.701   5.194   3.132  1.1624  2.0587  1.0211
  127SOPE   H5Y13661   5.803   5.301   3.026 -1.6780 -0.5243 -1.9241
  127SOPE   C3613662   5.899   5.124   3.117 -0.7521 -0.6727 -0.1419
  127SOPE   H6X13663   5.982   5.144   3.047 -1.5453  2.1216 -0.4185
  127SOPE   H6Y13664   5.881   5.014   3.120 -0.1857 -0.7758 -0.4000
  127SOPE   C3713665   5.946   5.169   3.259 -0.5006  0.8224  0.2375
  127SOPE   H7X13666   5.941   5.280   3.251 -0.2507  0.7674 -0.7975
  127SOPE   H7Y13667   6.046   5.125   3.281 -1.5811 -0.5838  2.7240
  127SOPE   C3813668   5.851   5.132   3.377  0.5054 -0.1804  0.7482
  127SOPE   H8X13669   5.841   5.022   3.382  2.5757 -0.4078  0.9074
  127SOPE   H8Y13670   5.752   5.180   3.360  0.3289 -0.8475 -0.1804
  127SOPE   C3913671   5.907   5.172   3.510  0.1599 -1.1248 -0.1544
  127SOPE   H9X13672   5.921   5.281   3.498 -3.6547 -0.6464 -1.3884
  127SOPE   H9Y13673   6.006   5.123   3.526 -0.3705 -1.8280  1.2111
  127SOPE  C31013674   5.816   5.157   3.630  0.3288 -0.0745 -0.1026
  127SOPE  H10X13675   5.770   5.057   3.637  0.9285 -0.4496 -1.2548
  127SOPE  H10Y13676   5.733   5.228   3.609  0.1478 -0.2781 -0.0788
  127SOPE  C31113677   5.887   5.203   3.753  0.5576 -0.0914 -0.1659
  127SOPE  H11X13678   5.890   5.314   3.750  0.6659 -0.0812  0.2788
  127SOPE  H11Y13679   5.986   5.153   3.753  0.4867 -0.2378 -0.7168
  127SOPE  C31213680   5.828   5.163   3.883 -0.0420  0.7677 -0.0298
  127SOPE  H12X13681   5.806   5.055   3.869 -0.8947  1.2005 -2.4399
  127SOPE  H12Y13682   5.729   5.214   3.896  1.0848  3.0256  0.2691
  127SOPE  C31313683   5.929   5.177   3.997  0.2290 -0.8967  0.0562
  127SOPE  H13X13684   5.963   5.282   4.014 -0.1063 -0.6895 -0.5259
  127SOPE  H13Y13685   6.029   5.136   3.972  0.0446 -1.2550 -0.0972
  127SOPE  C31413686   5.880   5.116   4.127 -0.2264 -0.0931  0.4277
  127SOPE  H14X13687   5.865   5.006   4.122  2.6436 -0.5380 -0.2126
  127SOPE  H14Y13688   5.787   5.172   4.155  1.3405  2.6522  0.5433
  127SOPE  C31513689   5.990   5.143   4.230  0.7729 -0.2814 -0.0330
  127SOPE  H15X13690   6.017   5.251   4.222  0.4341 -0.2672 -1.2850
  127SOPE  H15Y13691   6.078   5.087   4.192  0.0667 -0.2004 -1.8990
  127SOPE  C31613692   5.952   5.108   4.372 -0.4198 -0.0559 -0.1771
  127SOPE  H16X13693   6.035   5.044   4.410  0.8288  2.6272  1.9199
  127SOPE  H16Y13694   5.855   5.054   4.377  0.3921 -1.5035  1.1099
  127SOPE  C31713695   5.933   5.230   4.456 -0.5557 -0.8025 -0.1897
  127SOPE  H17X13696   5.868   5.304   4.406 -0.5116 -0.8074 -0.2537
  127SOPE  H17Y13697   6.030   5.276   4.483 -0.0869 -1.2709 -1.0297
  127SOPE  C31813698   5.873   5.198   4.593  0.2703 -0.0851  0.5517
  127SOPE  H18X13699   5.877   5.286   4.661 -0.6935 -0.3673  1.0037
  127SOPE  H18Y13700   5.928   5.107   4.627 -1.0356 -1.7600 -1.5285
  127SOPE  H18Z13701   5.769   5.163   4.575 -0.8286  2.8883  0.5460
  128SOPE     N13702   2.981   4.771   2.495 -0.0229  0.2366 -0.0489
  128SOPE   HN113703   2.885   4.731   2.497  0.6596 -1.5031  0.2189
  128SOPE   HN213704   3.009   4.757   2.396  0.2242  0.5615 -0.0272
  128SOPE   HN313705   3.041   4.712   2.557 -2.0923 -0.2675  1.5684
  128SOPE   C1213706   2.993   4.916   2.534  0.2405  0.1328 -0.2629
  128SOPE  H12A13707   2.935   4.932   2.627  1.0370 -1.4982  0.5577
  128SOPE  H12B13708   2.942   4.972   2.452 -0.6862  1.4644  1.1819
  128SOPE   C1113709   3.133   4.972   2.538  0.6051 -0.1335  0.3216
  128SOPE  H11A13710   3.154   5.075   2.575  1.3437  0.4770 -1.6408
  128SOPE  H11B13711   3.162   4.987   2.432 -2.8596  2.3896 -0.4767
  128SOPE     P13712   3.372   4.928   2.630 -0.0035 -0.1045 -0.3649
  128SOPE   O1313713   3.382   5.025   2.742  0.0369  0.0812  0.0124
  128SOPE   O1413714   3.430   4.982   2.504  0.7995 -0.4365 -0.6419
  128SOPE   O1213715   3.226   4.885   2.596 -0.1175 -0.0224  0.0340
  128SOPE   O1113716   3.433   4.791   2.687 -0.0369  0.1997  0.5375
  128SOPE    C113717   3.357   4.699   2.771 -0.0012  0.1170 -0.2090
  128SOPE    HA13718   3.398   4.599   2.745  1.2430  0.3212  0.8867
  128SOPE    HB13719   3.246   4.696   2.760 -0.2120 -1.5538  1.7878
  128SOPE    C213720   3.375   4.717   2.924 -0.0794 -0.2885  0.1815
  128SOPE    HS13721   3.322   4.632   2.971 -1.6579 -0.3639 -1.5971
  128SOPE   O2113722   3.328   4.836   2.980 -0.5028 -0.5049 -0.1050
  128SOPE   C2113723   3.197   4.857   2.988 -0.1202  0.0993  0.1106
  128SOPE   O2213724   3.114   4.774   2.972 -0.3779  0.3776  0.4138
  128SOPE   C2213725   3.168   4.996   3.039  0.2079  0.3447 -0.4320
  128SOPE   H2R13726   3.186   5.062   2.951  1.3606 -1.3112 -1.4899
  128SOPE   H2S13727   3.245   5.017   3.117  0.8083  0.0908 -0.9463
  128SOPE    C313728   3.523   4.709   2.961 -0.5541 -0.4925 -0.1115
  128SOPE    HX13729   3.576   4.798   2.920 -0.2983  0.0523  1.3370
  128SOPE    HY13730   3.567   4.621   2.910 -1.2944 -0.3298 -1.0814
  128SOPE   O3113731   3.539   4.699   3.106 -0.0153  0.5482 -0.4352
  128SOPE   C3113732   3.671   4.700   3.138  0.4175  0.4611 -0.0185
  128SOPE   O3213733   3.754   4.706   3.052  0.1962 -0.3361 -0.0740
  128SOPE   C3213734   3.687   4.702   3.290 -0.7391  0.0994  0.2545
  128SOPE   H2X13735   3.595   4.691   3.351 -1.1431  2.1514  0.0629
  128SOPE   H2Y13736   3.716   4.807   3.311  0.6443 -0.5501  1.9421
  128SOPE   C2313737   3.022   5.021   3.082  0.2859  0.4996 -0.3550
  128SOPE   H3R13738   3.002   4.951   3.166 -1.5751  1.3447 -0.0518
  128SOPE   H3S13739   2.946   5.002   3.003  0.4703 -0.1940 -0.3713
  128SOPE   C2413740   3.005   5.164   3.127  0.0972 -0.2526  0.2409
  128SOPE   H4R13741   3.008   5.228   3.036 -1.1312 -1.7287 -0.8932
  128SOPE   H4S13742   2.900   5.183   3.160 -0.2109 -2.4785  0.7433
  128SOPE   C2513743   3.096   5.223   3.228  0.5276  0.0740 -0.3094
  128SOPE   H5R13744   3.200   5.238   3.191  0.5743 -1.8210 -1.0134
  128SOPE   H5S13745   3.054   5.323   3.253 -0.6462 -0.0795 -1.5805
  128SOPE   C2613746   3.094   5.149   3.358 -0.0730  0.0095 -0.2620
  128SOPE   H6R13747   2.989   5.122   3.379 -0.3702 -0.2223 -1.9127
  128SOPE   H6S13748   3.152   5.054   3.363 -0.1746 -0.0524 -0.2773
  128SOPE   C2713749   3.148   5.232   3.468  0.4664  0.4553 -0.4308
  128SOPE   H7R13750   3.259   5.228   3.475  0.3780  1.0821  2.8145
  128SOPE   H7S13751   3.118   5.339   3.466  0.3739  0.4217 -0.8621
  128SOPE   C2813752   3.091   5.178   3.608 -0.1912 -0.4750  0.2271
  128SOPE   H8R13753   3.076   5.068   3.597 -1.6298 -0.1996 -0.8437
  128SOPE   H8S13754   3.167   5.195   3.687 -0.2019  0.3042  0.0719
  128SOPE   C2913755   2.957   5.233   3.649 -0.3453  0.4451  0.0376
  128SOPE   H9113756   2.888   5.231   3.563 -0.6580  2.5441  0.1826
  128SOPE  C21013757   2.923   5.297   3.762  0.0364 -0.3854  0.0578
  128SOPE  H10113758   2.819   5.332   3.770  0.2249  0.3158 -0.5194
  128SOPE  C21113759   3.006   5.298   3.892 -0.2597  0.2343 -0.0373
  128SOPE  H11R13760   3.043   5.397   3.926 -2.3547  0.6096  1.3394
  128SOPE  H11S13761   3.101   5.242   3.880 -0.3247 -0.1042  0.9258
  128SOPE  C21213762   2.917   5.245   4.004  0.1350  0.4214 -0.4079
  128SOPE  H12R13763   2.983   5.215   4.088  0.4011 -0.6721 -0.9869
  128SOPE  H12S13764   2.865   5.150   3.976 -0.2053  0.6587 -0.5982
  128SOPE  C21313765   2.826   5.359   4.044 -0.4760 -0.6692  0.3865
  128SOPE  H13R13766   2.783   5.425   3.966 -1.8929 -0.2691  1.4437
  128SOPE  H13S13767   2.888   5.428   4.105 -1.7056  1.4378 -0.6391
  128SOPE  C21413768   2.705   5.319   4.127  0.1336  0.1991 -0.0894
  128SOPE  H14R13769   2.735   5.259   4.216  1.9246 -1.3750 -1.6782
  128SOPE  H14S13770   2.636   5.252   4.071  2.7726  0.5495 -4.1692
  128SOPE  C21513771   2.619   5.437   4.178 -0.8092  0.3682  0.3739
  128SOPE  H15R13772   2.589   5.500   4.092 -1.6218 -0.1919  0.2345
  128SOPE  H15S13773   2.667   5.506   4.251 -2.1174  1.4356  0.2508
  128SOPE  C21613774   2.487   5.394   4.242 -1.0845  0.7296  0.1442
  128SOPE  H16R13775   2.497   5.318   4.323  1.3871  0.3474 -0.4347
  128SOPE  H16S13776   2.424   5.360   4.157 -0.1892  0.0978 -0.2737
  128SOPE  C21713777   2.413   5.518   4.293 -0.6030 -0.0162  0.5644
  128SOPE  H17R13778   2.306   5.509   4.264 -0.2025 -3.4282 -0.3015
  128SOPE  H17S13779   2.436   5.607   4.230  0.0362  0.0616  0.9033
  128SOPE  C21813780   2.429   5.536   4.440  0.1874  0.3525 -0.6653
  128SOPE  H18R13781   2.404   5.444   4.497 -1.7494  1.2676  0.0879
  128SOPE  H18S13782   2.360   5.618   4.472  0.0542  0.0824 -0.2391
  128SOPE  H18T13783   2.532   5.571   4.459  0.5711 -1.1499  0.2027
  128SOPE   C3313784   3.800   4.611   3.345  0.4222  0.7554 -0.4755
  128SOPE   H3X13785   3.887   4.627   3.278 -1.3444  2.8401 -2.4964
  128SOPE   H3Y13786   3.774   4.505   3.325 -0.0699  0.9043 -0.6446
  128SOPE   C3413787   3.849   4.634   3.492 -0.0806 -0.5768  0.8250
  128SOPE   H4X13788   3.876   4.742   3.493 -0.8578 -0.3542  2.6733
  128SOPE   H4Y13789   3.940   4.572   3.505 -0.7482 -1.4082  1.6353
  128SOPE   C3513790   3.750   4.594   3.603  0.7181  0.2696 -0.1531
  128SOPE   H5X13791   3.714   4.488   3.607  1.2026  0.1220  0.7513
  128SOPE   H5Y13792   3.652   4.645   3.593 -0.1410 -1.0525  0.9772
  128SOPE   C3613793   3.789   4.624   3.746 -0.0084 -0.2006  0.0859
  128SOPE   H6X13794   3.822   4.730   3.751  2.9966 -1.1080  1.8565
  128SOPE   H6Y13795   3.877   4.562   3.772 -0.2002 -0.3629  0.3527
  128SOPE   C3713796   3.683   4.592   3.851  0.2757  0.4877  0.8019
  128SOPE   H7X13797   3.647   4.486   3.855  1.9939 -0.1414  0.2556
  128SOPE   H7Y13798   3.602   4.659   3.815 -1.5397 -0.7541  2.3572
  128SOPE   C3813799   3.730   4.626   3.984  0.3791 -0.0779 -0.7665
  128SOPE   H8X13800   3.764   4.732   3.976 -1.2709  0.5687  0.2411
  128SOPE   H8Y13801   3.822   4.565   4.000 -0.2226 -0.8993 -0.3918
  128SOPE   C3913802   3.632   4.607   4.102  0.7591  0.5941  0.2277
  128SOPE   H9X13803   3.610   4.498   4.104  2.0005  0.1210 -3.4274
  128SOPE   H9Y13804   3.537   4.659   4.076 -0.4664 -0.7080  1.8945
  128SOPE  C31013805   3.685   4.654   4.241  0.0163 -0.1642  0.7804
  128SOPE  H10X13806   3.729   4.754   4.224 -1.0098  0.0278 -0.8953
  128SOPE  H10Y13807   3.762   4.580   4.273  0.0055 -0.4379  0.1839
  128SOPE  C31113808   3.580   4.660   4.349 -0.4258  0.0395  0.0472
  128SOPE  H11X13809   3.529   4.561   4.339  0.2962 -0.5834  2.0301
  128SOPE  H11Y13810   3.507   4.740   4.324  0.9635  1.4009  0.1984
  128SOPE  C31213811   3.641   4.679   4.482 -0.5143 -0.1686  0.6221
  128SOPE  H12X13812   3.692   4.777   4.468  1.5182 -1.5553 -3.5276
  128SOPE  H12Y13813   3.729   4.613   4.499  0.9732  2.3075  3.4069
  128SOPE  C31313814   3.540   4.663   4.594 -0.3409  0.4386  0.4772
  128SOPE  H13X13815   3.598   4.645   4.687  1.0119 -2.0436 -0.7478
  128SOPE  H13Y13816   3.475   4.574   4.579  0.7669 -0.3256  0.1262
  128SOPE  C31413817   3.441   4.781   4.612 -0.4674 -0.7137  0.4127
  128SOPE  H14X13818   3.375   4.788   4.523 -2.9513  0.4896  2.2376
  128SOPE  H14Y13819   3.501   4.874   4.614  1.3586 -1.8466  0.6819
  128SOPE  C31513820   3.339   4.773   4.732 -0.0338  0.1620 -0.2086
  128SOPE  H15X13821   3.272   4.684   4.732  0.1843 -0.0399  1.5029
  128SOPE  H15Y13822   3.278   4.865   4.731 -3.5120 -1.8857  2.3819
  128SOPE  C31613823   3.416   4.765   4.869 -0.1079 -0.9034  0.3212
  128SOPE  H16X13824   3.488   4.850   4.861  1.3701 -2.3040 -4.0855
  128SOPE  H16Y13825   3.485   4.679   4.881 -0.3120 -0.9991  0.8283
  128SOPE  C31713826   3.325   4.765   4.989  0.6420  0.4553 -0.8718
  128SOPE  H17X13827   3.285   4.662   4.996 -3.3268  1.8850  0.0526
  128SOPE  H17Y13828   3.239   4.830   4.961  1.1296  1.4178 -0.1913
  128SOPE  C31813829   3.399   4.812   5.113  0.3433 -0.1643  0.3746
  128SOPE  H18X13830   3.333   4.817   5.203 -0.7960  3.1579 -0.4909
  128SOPE  H18Y13831   3.440   4.914   5.097  0.4338 -0.2357  0.1454
  128SOPE  H18Z13832   3.486   4.744   5.126  1.3163  0.6858 -1.4137
  129OSM      N13833   0.841   0.465   6.843 -0.2831 -0.2305  0.0584
  129OSM    C1513834   0.817   0.575   6.939 -0.5385 -0.0774  0.2368
  129OSM   H15A13835   0.833   0.668   6.887 -2.0147 -0.8171 -1.6487
  129OSM   H15B13836   0.867   0.545   7.030 -1.1795 -3.4614 -0.3854
  129OSM   H15C13837   0.711   0.569   6.957 -0.5816 -0.0852 -0.0149
  129OSM    C1413838   0.978   0.482   6.773  0.9882 -0.6050 -0.2675
  129OSM   H14A13839   0.989   0.397   6.707  0.7981  0.0711 -1.1810
  129OSM   H14B13840   1.064   0.478   6.839  1.9218 -1.1779 -1.4715
  129OSM   H14C13841   0.997   0.574   6.720  0.8269 -0.2626  0.2589
  129OSM    C1313842   0.868   0.332   6.903  0.1130  0.6050 -0.4795
  129OSM   H13A13843   0.954   0.329   6.969  0.1473 -2.1361 -0.5083
  129OSM   H13B13844   0.893   0.252   6.835  0.7175 -0.4898  0.9555
  129OSM   H13C13845   0.786   0.302   6.967  0.9930 -1.6847 -0.3052
  129OSM    C1213846   0.730   0.446   6.742  0.1941 -0.8298 -0.0735
  129OSM   H12A13847   0.649   0.400   6.797  0.2872  0.8347  1.5661
  129OSM   H12B13848   0.760   0.387   6.658  2.9399  2.2787 -1.5013
  129OSM    C1113849   0.684   0.574   6.661  0.5135 -0.6889 -0.9339
  129OSM   H11A13850   0.610   0.536   6.587 -0.1168 -1.9770  0.2980
  129OSM   H11B13851   0.759   0.615   6.590  0.7157  0.6443  0.0058
  129OSM      P13852   0.480   0.674   6.800  0.3647 -0.2130 -0.3917
  129OSM    O1313853   0.476   0.580   6.912  0.1985 -0.0107 -0.9533
  129OSM    O1413854   0.443   0.815   6.833  0.3611  0.2868 -0.7450
  129OSM    O1113855   0.385   0.610   6.687  0.4401  0.0073  0.1154
  129OSM    O1213856   0.631   0.683   6.737 -0.6140  0.1518  0.3937
  129OSM    C1S13857   0.305   0.683   6.599 -0.2230  0.0987  0.7534
  129OSM    H1S13858   0.281   0.787   6.630 -1.8868 -0.7289  2.4612
  129OSM    H1T13859   0.211   0.622   6.603 -1.0199  1.0464 -1.6119
  129OSM     NF13860   0.295   0.780   6.373  0.7942 -0.1943  0.4727
  129OSM    HNF13861   0.231   0.743   6.306  1.3926  1.0434 -0.8484
  129OSM    C2S13862   0.368   0.677   6.454  0.4370 -0.5576  0.2687
  129OSM    H2S13863   0.475   0.709   6.455  0.0706  0.7526 -0.4750
  129OSM    C3S13864   0.355   0.535   6.387  0.6766  0.0651  0.5311
  129OSM    H3S13865   0.245   0.524   6.379  0.3502 -1.7690  4.7564
  129OSM     O313866   0.407   0.425   6.461  0.0673 -0.3353 -0.4943
  129OSM    HO313867   0.411   0.459   6.551  1.1499  0.6399 -0.8914
  129OSM    C4S13868   0.411   0.528   6.247 -0.0250 -0.7701  0.0758
  129OSM    H4S13869   0.518   0.552   6.240  0.0443 -1.1123 -0.0500
  129OSM    C5S13870   0.340   0.524   6.132 -0.1607  0.2545 -0.2648
  129OSM    H5S13871   0.232   0.518   6.150  0.1984  0.9003  2.5717
  129OSM    C6S13872   0.383   0.527   5.989 -0.4842  0.0075  0.8629
  129OSM    H6S13873   0.489   0.494   5.995 -0.1217  0.7997 -0.5735
  129OSM    H6T13874   0.387   0.636   5.968  1.2928 -0.2978 -0.6579
  129OSM    C7S13875   0.303   0.459   5.879 -0.0784  0.1971 -0.0208
  129OSM    H7S13876   0.195   0.480   5.895  0.2020  0.6357  1.4741
  129OSM    H7T13877   0.318   0.349   5.878 -1.0257  0.0466  0.4706
  129OSM    C8S13878   0.328   0.512   5.739 -0.3623 -0.4502 -0.7668
  129OSM    H8S13879   0.436   0.525   5.720 -0.2605  1.0538  0.6448
  129OSM    H8T13880   0.278   0.608   5.716  0.1371 -0.3823 -1.6053
  129OSM    C9S13881   0.268   0.414   5.634  0.5001  0.4099 -0.3047
  129OSM    H9S13882   0.166   0.389   5.671  1.2220 -1.5951  0.4785
  129OSM    H9T13883   0.332   0.324   5.647 -0.6695 -0.1640  2.0600
  129OSM   C10S13884   0.256   0.470   5.494  0.4186  0.1656  1.4475
  129OSM   H10S13885   0.354   0.510   5.462 -1.9149  4.1931 -1.5664
  129OSM   H10T13886   0.194   0.562   5.500 -0.9089 -0.1968 -3.1861
  129OSM   C11S13887   0.200   0.364   5.397 -0.1483 -1.1087 -0.4561
  129OSM   H11S13888   0.096   0.360   5.435 -0.7438 -0.2682 -1.9193
  129OSM   H11T13889   0.246   0.263   5.404  1.9357 -0.3856 -2.3859
  129OSM   C12S13890   0.208   0.420   5.254  0.0254  0.4356 -0.0510
  129OSM   H12S13891   0.185   0.338   5.183  0.6640  0.6787 -0.5399
  129OSM   H12T13892   0.316   0.442   5.243  0.1278 -0.5108 -1.0651
  129OSM   C13S13893   0.126   0.539   5.222  0.4965  0.0800 -0.0069
  129OSM   H13S13894   0.161   0.632   5.271 -0.8600  0.1682  0.8422
  129OSM   H13T13895   0.025   0.524   5.267  0.7161 -2.0337 -0.1318
  129OSM   C14S13896   0.120   0.567   5.072 -0.4744  0.2389 -0.3060
  129OSM   H14S13897   0.097   0.472   5.018  0.7725 -0.3741  0.2137
  129OSM   H14T13898   0.222   0.598   5.041 -0.0524  2.1974  2.6686
  129OSM   C15S13899   0.012   0.669   5.026  0.4718  0.0161  0.3778
  129OSM   H15S13900   0.031   0.771   5.065  3.5732  0.2811 -1.5092
  129OSM   H15T13901  -0.082   0.642   5.078 -0.8192  0.7514 -1.4433
  129OSM   C16S13902  -0.003   0.657   4.876  0.3080  0.6466  0.3957
  129OSM   H16S13903  -0.009   0.547   4.861  0.0283  0.6175  0.7028
  129OSM   H16T13904   0.089   0.695   4.827 -1.0902  2.0461 -1.2785
  129OSM   C17S13905  -0.130   0.726   4.822  0.5794 -0.0503  0.6744
  129OSM   H17S13906  -0.113   0.834   4.838 -2.9669  0.5558  1.1179
  129OSM   H17T13907  -0.226   0.703   4.874  0.0562 -1.5111 -0.8413
  129OSM   C18S13908  -0.147   0.703   4.668  0.3085 -0.1891  0.1849
  129OSM   H18S13909  -0.246   0.745   4.641 -1.1658 -2.9272  1.0139
  129OSM   H18T13910  -0.140   0.599   4.628  3.7012  0.2121 -0.5497
  129OSM   H18U13911  -0.078   0.772   4.615 -1.4000  1.8809  0.5346
  129OSM    C1F13912   0.322   0.911   6.380 -0.6235  0.1152 -0.5083
  129OSM     OF13913   0.416   0.950   6.450 -0.2250 -0.2370  0.1050
  129OSM    C2F13914   0.247   1.008   6.290 -0.6836 -0.4948  0.4673
  129OSM    H2F13915   0.197   1.089   6.348 -0.8141 -2.6517  3.6329
  129OSM    H2G13916   0.164   0.957   6.237 -1.4255 -0.2413  1.3597
  129OSM    C3F13917   0.349   1.081   6.197  0.1093 -0.3978  0.3160
  129OSM    H3F13918   0.373   1.004   6.121 -0.0494  2.5818 -3.0340
  129OSM    H3G13919   0.437   1.118   6.254  1.2201 -3.2330  0.5790
  129OSM    C4F13920   0.302   1.202   6.111 -0.1271  0.5348 -0.2710
  129OSM    H4F13921   0.382   1.229   6.039  0.9009 -2.1272 -0.2351
  129OSM    H4G13922   0.270   1.286   6.178 -0.7068  1.0052 -1.1172
  129OSM    C5F13923   0.181   1.175   6.011 -0.1375  0.0908  0.4330
  129OSM    H5F13924   0.086   1.164   6.067 -0.2671  0.2774  0.2543
  129OSM    H5G13925   0.200   1.073   5.970 -0.2049  0.1535  0.2432
  129OSM    C6F13926   0.172   1.268   5.891  0.4584 -0.1548 -0.2351
  129OSM    H6F13927   0.258   1.241   5.825  0.3084  1.4351 -1.1404
  129OSM    H6G13928   0.193   1.367   5.935  1.0093 -1.3924  2.4708
  129OSM    C7F13929   0.032   1.251   5.824 -0.0277 -0.1289  0.5622
  129OSM    H7F13930  -0.046   1.257   5.903  0.7470  1.3375  1.2648
  129OSM    H7G13931   0.016   1.152   5.776 -1.0822  1.2092 -2.0689
  129OSM    C8F13932   0.004   1.361   5.712 -0.3369  0.0341  0.5594
  129OSM    H8F13933   0.047   1.453   5.757  1.6350 -0.4278 -0.2615
  129OSM    H8G13934  -0.105   1.381   5.704 -0.7139 -1.5708  1.3774
  129OSM    C9F13935   0.072   1.316   5.580 -0.2896 -0.5223  0.6036
  129OSM    H9F13936   0.178   1.287   5.584 -0.4604 -1.0708  1.4463
  129OSM   C10F13937  -0.000   1.275   5.470  0.3816  0.1622  0.3094
  129OSM   H10F13938   0.054   1.220   5.392  4.0910  1.4135  1.7654
  129OSM   C11F13939  -0.149   1.266   5.452  0.0104  0.5301 -0.0453
  129OSM   H11F13940  -0.207   1.320   5.530 -1.2207 -2.0193  0.9103
  129OSM   H11G13941  -0.184   1.162   5.439  2.6866 -0.6753  1.5942
  129OSM   C12F13942  -0.202   1.341   5.333 -0.5815  0.4169 -0.3753
  129OSM   H12F13943  -0.180   1.296   5.234 -2.6019  1.4523 -1.3594
  129OSM   H12G13944  -0.162   1.444   5.343 -0.8212  0.4658  0.0752
  129OSM   C13F13945  -0.355   1.351   5.338 -0.3910 -0.6483 -0.1228
  129OSM   H13F13946  -0.389   1.375   5.441 -0.0151  0.3471 -0.2165
  129OSM   H13G13947  -0.386   1.248   5.311  0.7050 -0.6067 -1.6487
  129OSM   C14F13948  -0.407   1.456   5.236 -0.1369 -0.0982  0.4008
  129OSM   H14F13949  -0.388   1.412   5.136 -2.3783  3.7609 -1.9949
  129OSM   H14G13950  -0.335   1.540   5.247 -0.1123  0.1135 -1.1242
  129OSM   C15F13951  -0.560   1.482   5.261 -0.5177  0.3867 -0.7115
  129OSM   H15F13952  -0.579   1.481   5.371 -2.7827 -1.1225 -1.0536
  129OSM   H15G13953  -0.617   1.397   5.219 -0.0950 -0.3977  0.2454
  129OSM   C16F13954  -0.616   1.611   5.203  0.2408 -0.6410 -0.4463
  129OSM   H16F13955  -0.727   1.600   5.204  0.2036 -0.2155  0.1677
  129OSM   H16G13956  -0.586   1.624   5.097  1.8927 -1.6985 -0.1471
  129OSM   C17F13957  -0.579   1.735   5.293 -0.2924 -0.0932 -0.4103
  129OSM   H17F13958  -0.468   1.741   5.282 -0.3259 -1.5547 -1.9187
  129OSM   H17G13959  -0.602   1.712   5.399  0.2753  1.3049  0.0453
  129OSM   C18F13960  -0.635   1.868   5.251 -0.0735 -0.1048  0.1761
  129OSM   H18F13961  -0.743   1.858   5.226  0.2735 -1.5513 -0.8630
  129OSM   H18G13962  -0.586   1.904   5.158 -0.2290  1.0230  0.5194
  129OSM   H18H13963  -0.632   1.938   5.337  0.2776  0.9110 -0.6330
  130OSM      N13964   1.573   2.941   6.999 -0.1891  0.1079  0.4275
  130OSM    C1513965   1.613   2.992   7.131  0.1638 -0.4497 -0.3135
  130OSM   H15A13966   1.599   3.099   7.131  1.5459 -0.2261 -1.7888
  130OSM   H15B13967   1.718   2.976   7.151  0.1908 -0.3510 -0.3752
  130OSM   H15C13968   1.553   2.949   7.209 -1.3141 -1.4126 -1.9330
  130OSM    C1413969   1.664   2.999   6.895 -0.0605 -0.1536  0.3880
  130OSM   H14A13970   1.769   2.985   6.915  0.1595  0.9359  0.1049
  130OSM   H14B13971   1.644   3.103   6.871  0.1404 -0.4492 -1.1622
  130OSM   H14C13972   1.650   2.943   6.804 -1.1721 -2.5787  1.9671
  130OSM    C1313973   1.605   2.796   7.001  0.3437  0.4855  0.6397
  130OSM   H13A13974   1.530   2.733   7.045 -0.7915  0.5760 -1.0714
  130OSM   H13B13975   1.703   2.772   7.041  0.7967  1.5515  0.2020
  130OSM   H13C13976   1.603   2.752   6.902  0.6504 -1.5591  1.4991
  130OSM    C1213977   1.429   2.972   6.959 -0.1248 -0.5182 -0.4527
  130OSM   H12A13978   1.410   2.920   6.866  1.0021 -1.8534  0.0343
  130OSM   H12B13979   1.426   3.079   6.946  0.0397 -0.5169 -0.4838
  130OSM    C1113980   1.317   2.932   7.052  0.5729 -0.4831  0.2010
  130OSM   H11A13981   1.219   2.979   7.030  0.1617  0.1437  2.9600
  130OSM   H11B13982   1.340   2.984   7.148  0.1019 -0.4304  0.2856
  130OSM      P13983   1.176   2.726   7.071 -0.0536 -0.0220  0.4694
  130OSM    O1313984   1.174   2.589   7.123  0.6600  0.0455  0.2626
  130OSM    O1413985   1.071   2.818   7.119  0.0603  0.0026  0.4150
  130OSM    O1113986   1.153   2.725   6.915  0.1661  0.3387 -0.4918
  130OSM    O1213987   1.320   2.794   7.081  0.3007 -0.0005 -0.2508
  130OSM    C1S13988   1.254   2.660   6.840 -0.4550  1.0398  0.4374
  130OSM    H1S13989   1.286   2.560   6.877 -1.2823  0.7627  0.4368
  130OSM    H1T13990   1.341   2.729   6.830 -1.9972  2.8602 -1.3445
  130OSM     NF13991   1.316   2.568   6.619 -0.4598 -0.0213 -0.0357
  130OSM    HNF13992   1.367   2.606   6.543  2.0864 -2.3442  0.3547
  130OSM    C2S13993   1.206   2.629   6.693 -0.2433 -0.5911  1.1285
  130OSM    H2S13994   1.120   2.558   6.691 -0.6192 -0.1194 -0.1244
  130OSM    C3S13995   1.154   2.763   6.629  0.2070 -0.9445  0.0730
  130OSM    H3S13996   1.230   2.842   6.646 -0.6705 -0.2502  0.8816
  130OSM     O313997   1.034   2.808   6.688  0.5054  0.3562  0.0610
  130OSM    HO313998   1.028   2.768   6.775 -1.4372  2.6687  1.1292
  130OSM    C4S13999   1.145   2.757   6.481 -0.3936 -0.5351  0.7721
  130OSM    H4S14000   1.115   2.658   6.443 -2.1139 -0.4709  1.8618
  130OSM    C5S14001   1.182   2.853   6.391  0.9705 -0.6322  0.2506
  130OSM    H5S14002   1.219   2.948   6.434  0.9954  0.4046 -1.9581
  130OSM    C6S14003   1.187   2.840   6.243  0.2401  0.4849  0.2074
  130OSM    H6S14004   1.294   2.849   6.214  0.1791  1.6822  0.3273
  130OSM    H6T14005   1.139   2.928   6.196 -1.3902 -0.5610 -0.1516
  130OSM    C7S14006   1.123   2.717   6.184  0.2544  0.6316 -0.2152
  130OSM    H7S14007   1.019   2.708   6.222  0.9411 -0.5974  1.5113
  130OSM    H7T14008   1.184   2.625   6.199  2.3529  2.0600  0.4295
  130OSM    C8S14009   1.101   2.723   6.038 -0.3579  0.4562  0.4792
  130OSM    H8S14010   1.038   2.812   6.015 -1.3131  0.6523  3.3863
  130OSM    H8T14011   1.054   2.629   6.000  3.5607 -1.0596 -1.0779
  130OSM    C9S14012   1.229   2.729   5.949  0.1775 -0.1424  0.3676
  130OSM    H9S14013   1.266   2.624   5.942  1.7852  0.4989 -2.2223
  130OSM    H9T14014   1.303   2.803   5.987 -0.4749  0.5087  0.3769
  130OSM   C10S14015   1.189   2.775   5.808  0.4958  0.1821  0.8601
  130OSM   H10S14016   1.278   2.778   5.741 -0.2172  2.3899 -0.0969
  130OSM   H10T14017   1.142   2.875   5.793  1.8227  0.7708  0.4643
  130OSM   C11S14018   1.086   2.676   5.743  0.3375  0.3160 -0.5334
  130OSM   H11S14019   0.989   2.685   5.797  1.2403  0.3813  1.1522
  130OSM   H11T14020   1.132   2.575   5.743 -0.3727 -0.1630 -4.3119
  130OSM   C12S14021   1.055   2.694   5.591 -0.3650 -0.3853 -1.1147
  130OSM   H12S14022   1.004   2.596   5.578 -1.3544  0.1240 -1.1739
  130OSM   H12T14023   1.154   2.697   5.542  0.7918  1.7820  1.1112
  130OSM   C13S14024   0.966   2.820   5.565 -0.6200 -1.0328 -1.0006
  130OSM   H13S14025   1.028   2.910   5.582  1.1904 -2.3566 -0.3096
  130OSM   H13T14026   0.884   2.825   5.640 -0.2737  2.8767 -0.6683
  130OSM   C14S14027   0.903   2.795   5.430 -0.1740 -0.1733  0.2004
  130OSM   H14S14028   0.836   2.707   5.440  0.5350 -0.6836  0.6433
  130OSM   H14T14029   0.984   2.767   5.360  1.1764  2.7590  0.4284
  130OSM   C15S14030   0.836   2.918   5.376  0.0438  0.7416 -0.1329
  130OSM   H15S14031   0.901   3.008   5.376  0.9466  0.2522  3.5537
  130OSM   H15T14032   0.754   2.946   5.445  0.2589 -1.2214  0.9905
  130OSM   C16S14033   0.772   2.890   5.232 -0.1842  0.4822  0.0180
  130OSM   H16S14034   0.688   2.961   5.217  0.2891  1.2591  0.9256
  130OSM   H16T14035   0.723   2.791   5.238 -1.7664  1.0354 -2.3101
  130OSM   C17S14036   0.874   2.897   5.118 -1.0158  0.3859 -0.1978
  130OSM   H17S14037   0.947   2.813   5.127  1.4779  2.5195  0.6268
  130OSM   H17T14038   0.943   2.983   5.131 -1.7902  1.0687 -0.5130
  130OSM   C18S14039   0.817   2.900   4.975 -0.0159  0.2563 -0.1005
  130OSM   H18S14040   0.747   2.982   4.946 -1.0413 -0.1529  1.1315
  130OSM   H18T14041   0.762   2.804   4.981  0.0680  0.1045 -1.5121
  130OSM   H18U14042   0.897   2.885   4.900 -0.0379 -1.2359  0.1419
  130OSM    C1F14043   1.358   2.446   6.647 -0.0365 -0.1697 -0.8050
  130OSM     OF14044   1.299   2.379   6.730 -0.3379  0.2383 -0.3744
  130OSM    C2F14045   1.491   2.406   6.595 -0.0963  0.3876  0.2237
  130OSM    H2F14046   1.544   2.357   6.680 -0.0861  1.0058  0.5866
  130OSM    H2G14047   1.554   2.491   6.560 -1.4581  0.2396 -2.9137
  130OSM    C3F14048   1.495   2.295   6.481 -0.4870 -0.3673  0.1343
  130OSM    H3F14049   1.476   2.331   6.378  0.7775  1.1855  0.4006
  130OSM    H3G14050   1.427   2.215   6.518  0.7889 -3.0217 -2.7498
  130OSM    C4F14051   1.638   2.241   6.469 -0.4049  0.2951  0.3279
  130OSM    H4F14052   1.660   2.187   6.563  2.6669 -2.3040 -1.6905
  130OSM    H4G14053   1.710   2.326   6.460  0.9088 -0.8137  0.1270
  130OSM    C5F14054   1.660   2.141   6.358 -0.0432 -0.3064  0.4956
  130OSM    H5F14055   1.596   2.052   6.376  0.0913 -0.1092  2.0717
  130OSM    H5G14056   1.766   2.111   6.367 -0.3218 -1.4657  0.0678
  130OSM    C6F14057   1.655   2.192   6.215 -0.9274  0.4848  0.2522
  130OSM    H6F14058   1.723   2.279   6.207 -0.4998  0.5007  3.0212
  130OSM    H6G14059   1.549   2.225   6.202 -0.7397  0.8141 -0.5155
  130OSM    C7F14060   1.692   2.088   6.113 -0.0527 -0.2499 -0.8924
  130OSM    H7F14061   1.629   1.998   6.131  0.1834 -0.1407  0.6750
  130OSM    H7G14062   1.794   2.056   6.146 -0.3206 -1.0268 -0.7852
  130OSM    C8F14063   1.677   2.133   5.971 -0.1810  0.0488 -0.4611
  130OSM    H8F14064   1.703   2.241   5.962 -1.1199  0.1657 -2.2953
  130OSM    H8G14065   1.568   2.140   5.950 -0.5674 -1.0779  1.0586
  130OSM    C9F14066   1.763   2.047   5.879 -0.7742 -0.8289  0.0731
  130OSM    H9F14067   1.867   2.058   5.912 -1.5496  0.5083  2.3570
  130OSM   C10F14068   1.724   1.958   5.792 -0.3824  0.2309 -0.1619
  130OSM   H10F14069   1.791   1.883   5.746  0.7289  1.1548 -0.0822
  130OSM   C11F14070   1.582   1.939   5.763  0.4454 -0.1935 -0.6663
  130OSM   H11F14071   1.514   2.023   5.788  0.8539  0.7433 -2.4681
  130OSM   H11G14072   1.549   1.844   5.809  1.2224 -0.3958 -0.5134
  130OSM   C12F14073   1.541   1.919   5.619  0.0703 -0.1251  0.1543
  130OSM   H12F14074   1.550   2.017   5.568 -0.3365  0.7075  1.6237
  130OSM   H12G14075   1.432   1.896   5.619 -0.6404  2.6382  2.6776
  130OSM   C13F14076   1.619   1.803   5.542 -0.3303 -0.1835 -0.7394
  130OSM   H13F14077   1.576   1.714   5.594 -0.0658 -0.9935 -1.8716
  130OSM   H13G14078   1.728   1.815   5.556  0.1482 -2.6543 -1.7966
  130OSM   C14F14079   1.588   1.805   5.396  0.2697  0.0093  0.6749
  130OSM   H14F14080   1.478   1.815   5.385  0.1573 -2.5955 -1.7011
  130OSM   H14G14081   1.613   1.701   5.367  0.1582 -0.4093  2.0207
  130OSM   C15F14082   1.669   1.916   5.312 -0.0509 -0.8073  0.1159
  130OSM   H15F14083   1.651   2.017   5.356  2.3963  0.6790 -2.0010
  130OSM   H15G14084   1.622   1.923   5.212 -0.3637 -0.8787  0.2582
  130OSM   C16F14085   1.815   1.877   5.286 -0.0320 -0.2102  0.2084
  130OSM   H16F14086   1.817   1.780   5.231  0.7180  0.5801 -1.2113
  130OSM   H16G14087   1.872   1.853   5.379  0.7157 -1.0628 -0.4497
  130OSM   C17F14088   1.891   1.989   5.210 -0.6338 -0.2501  0.0973
  130OSM   H17F14089   2.002   1.976   5.207 -0.6465 -1.1199  2.2039
  130OSM   H17G14090   1.872   2.089   5.255  4.2245  1.5295 -1.1448
  130OSM   C18F14091   1.843   2.002   5.067  1.1782 -0.2551  0.0556
  130OSM   H18F14092   1.733   2.018   5.072  1.0720 -1.2501  1.5148
  130OSM   H18G14093   1.871   1.909   5.014  1.3930 -0.3607  0.3478
  130OSM   H18H14094   1.895   2.088   5.020  1.5769 -0.6680 -0.2677
  131OSM      N14095   2.122   5.856   6.945  0.2516  0.1252 -0.1778
  131OSM    C1514096   2.086   5.993   6.995 -0.4713 -0.1194 -0.4652
  131OSM   H15A14097   2.169   6.044   7.042  0.4600 -2.5639  0.7226
  131OSM   H15B14098   2.020   6.001   7.081  0.8267  3.8320  0.3859
  131OSM   H15C14099   2.058   6.061   6.916 -0.0820  2.2548  1.3291
  131OSM    C1414100   2.238   5.858   6.846  0.2461 -0.0351  0.1188
  131OSM   H14A14101   2.251   5.955   6.799 -0.4691 -0.1036 -0.2320
  131OSM   H14B14102   2.226   5.779   6.774 -1.5343 -0.1818  0.5225
  131OSM   H14C14103   2.325   5.848   6.908  0.3346  1.0714  0.2037
  131OSM    C1314104   2.153   5.785   7.074 -0.3705  0.5931 -0.1483
  131OSM   H13A14105   2.065   5.776   7.136  0.4043 -2.9534  0.6225
  131OSM   H13B14106   2.226   5.847   7.124 -0.8079  0.2162  0.9890
  131OSM   H13C14107   2.175   5.681   7.058 -2.4410  0.2237 -0.8965
  131OSM    C1214108   1.997   5.798   6.876  0.3260 -0.5917  0.0472
  131OSM   H12A14109   1.974   5.863   6.793  0.0362  0.1817  0.7218
  131OSM   H12B14110   1.913   5.815   6.941  0.0499 -0.3900 -0.3571
  131OSM    C1114111   2.010   5.656   6.828  1.2811 -0.2522 -0.6393
  131OSM   H11A14112   1.907   5.627   6.798  0.4529  1.9818 -0.1580
  131OSM   H11B14113   2.035   5.590   6.914 -0.4347  0.8846  0.7974
  131OSM      P14114   2.140   5.535   6.630 -0.0989 -0.2816 -0.5696
  131OSM    O1314115   2.180   5.573   6.494  0.4560  0.1132  0.3660
  131OSM    O1414116   2.232   5.456   6.716  0.2211  0.6427 -0.1060
  131OSM    O1114117   2.011   5.446   6.632 -0.7525 -0.0805  0.7270
  131OSM    O1214118   2.095   5.659   6.709  0.4850  0.0127 -0.7287
  131OSM    C1S14119   1.895   5.495   6.567  0.0878  0.6007  0.0621
  131OSM    H1S14120   1.899   5.605   6.559 -1.5249  0.8824  2.3687
  131OSM    H1T14121   1.814   5.454   6.632  0.8750 -0.2615  0.5296
  131OSM     NF14122   1.753   5.498   6.370 -0.7679  0.3272  0.2275
  131OSM    HNF14123   1.668   5.446   6.369  0.3750 -1.6360 -0.1366
  131OSM    C2S14124   1.868   5.434   6.424 -0.0468 -1.2756  0.0524
  131OSM    H2S14125   1.951   5.459   6.354 -0.3392 -0.4161  0.0036
  131OSM    C3S14126   1.877   5.282   6.421  0.5019 -0.0228  1.0608
  131OSM    H3S14127   1.785   5.262   6.479 -1.1657 -0.3641 -1.5670
  131OSM     O314128   1.991   5.220   6.472 -0.2181  0.4416 -0.0489
  131OSM    HO314129   2.041   5.298   6.498  1.3786 -0.2066 -1.0629
  131OSM    C4S14130   1.851   5.224   6.284  0.4415 -0.1958  0.1608
  131OSM    H4S14131   1.742   5.219   6.266  0.4129  1.4436 -0.2986
  131OSM    C5S14132   1.941   5.223   6.185 -0.1139 -0.1866 -0.4095
  131OSM    H5S14133   2.033   5.277   6.209 -0.4203  0.4252 -0.5969
  131OSM    C6S14134   1.909   5.192   6.042  0.7998  0.1237 -0.0774
  131OSM    H6S14135   1.991   5.134   5.994 -0.3329 -1.5238 -0.0905
  131OSM    H6T14136   1.899   5.289   5.988 -1.9808  0.6768  1.2449
  131OSM    C7S14137   1.788   5.101   6.023 -0.1197 -0.3938 -1.3456
  131OSM    H7S14138   1.693   5.144   6.061 -0.1210 -0.9292 -0.7160
  131OSM    H7T14139   1.806   5.015   6.091  0.4205  2.0459  1.8866
  131OSM    C8S14140   1.768   5.060   5.878  0.4862 -0.4009  0.2509
  131OSM    H8S14141   1.679   4.994   5.877 -0.5126  0.8977 -1.0124
  131OSM    H8T14142   1.851   4.999   5.838  0.6073 -1.0397  1.4120
  131OSM    C9S14143   1.745   5.171   5.770  0.4412  1.7559  0.0207
  131OSM    H9S14144   1.838   5.218   5.732  0.7751  2.1036  1.2154
  131OSM    H9T14145   1.674   5.248   5.807 -0.0072  0.7692  1.2886
  131OSM   C10S14146   1.677   5.111   5.650  0.4717  0.1224  0.1524
  131OSM   H10S14147   1.568   5.101   5.664  0.3854  0.3633 -0.3099
  131OSM   H10T14148   1.707   5.008   5.620 -2.1036 -0.8202  0.5643
  131OSM   C11S14149   1.707   5.192   5.524  0.5719  0.0563  0.2964
  131OSM   H11S14150   1.817   5.189   5.506  0.9736 -1.5426  2.6363
  131OSM   H11T14151   1.689   5.300   5.542  1.3469  0.3766 -0.7484
  131OSM   C12S14152   1.630   5.146   5.390 -0.0281 -1.2602 -0.0279
  131OSM   H12S14153   1.527   5.108   5.408 -1.1239  0.2908 -2.5964
  131OSM   H12T14154   1.693   5.068   5.343  0.3768 -0.4701 -0.8198
  131OSM   C13S14155   1.633   5.257   5.280  0.6866  0.2883  0.3415
  131OSM   H13S14156   1.741   5.285   5.278  1.3088 -1.8839 -1.8381
  131OSM   H13T14157   1.576   5.347   5.311  0.5656 -0.5565  2.7887
  131OSM   C14S14158   1.580   5.221   5.145 -0.0032 -0.0704  0.3021
  131OSM   H14S14159   1.478   5.179   5.162  0.8015 -1.6554  1.5567
  131OSM   H14T14160   1.625   5.123   5.118 -1.3282 -1.2901  2.2078
  131OSM   C15S14161   1.573   5.326   5.032 -0.3744  0.0406 -0.1284
  131OSM   H15S14162   1.673   5.357   4.994 -1.1918  1.8810 -0.8738
  131OSM   H15T14163   1.520   5.417   5.067 -1.5858 -1.1548  1.2957
  131OSM   C16S14164   1.508   5.262   4.911  0.8554  0.4095  0.6185
  131OSM   H16S14165   1.427   5.195   4.945 -0.7121  0.4357 -2.6489
  131OSM   H16T14166   1.559   5.186   4.848  0.9256  1.1901 -0.3047
  131OSM   C17S14167   1.432   5.372   4.828  0.3555  0.2005 -0.0506
  131OSM   H17S14168   1.515   5.437   4.795  1.3244 -1.3379 -0.7761
  131OSM   H17T14169   1.366   5.429   4.896 -1.4087 -2.1123  0.2783
  131OSM   C18S14170   1.357   5.303   4.707 -0.0950  0.8888  1.0627
  131OSM   H18S14171   1.341   5.387   4.637  0.8902  0.6142  0.4856
  131OSM   H18T14172   1.264   5.260   4.750  0.3040 -1.5136 -0.3190
  131OSM   H18U14173   1.423   5.223   4.666 -2.0038 -0.5232  0.6226
  131OSM    C1F14174   1.746   5.622   6.332 -0.0145 -0.1197 -0.2466
  131OSM     OF14175   1.845   5.695   6.332 -0.6091  0.1518 -0.1472
  131OSM    C2F14176   1.608   5.680   6.299 -0.0813  1.0370  0.5355
  131OSM    H2F14177   1.585   5.768   6.364  1.3646  0.0445  2.5225
  131OSM    H2G14178   1.532   5.602   6.316  1.0636  0.0936  1.5043
  131OSM    C3F14179   1.597   5.728   6.157  0.6344  0.1801  0.1806
  131OSM    H3F14180   1.668   5.812   6.141  0.6048  0.3735  1.0321
  131OSM    H3G14181   1.499   5.779   6.150 -0.0514 -1.1147  0.0691
  131OSM    C4F14182   1.608   5.622   6.054  1.3905  0.4659 -0.0701
  131OSM    H4F14183   1.590   5.519   6.091  2.0819  0.2769 -0.2376
  131OSM    H4G14184   1.705   5.632   6.002  2.6445 -0.4325  1.9482
  131OSM    C5F14185   1.497   5.649   5.941  0.4381  0.0054  0.0331
  131OSM    H5F14186   1.509   5.748   5.891 -0.6550 -0.9758 -2.3347
  131OSM    H5G14187   1.402   5.644   5.998  1.1328  0.0273  1.2249
  131OSM    C6F14188   1.486   5.540   5.829  0.3376 -0.2979 -0.4056
  131OSM    H6F14189   1.448   5.444   5.869  1.1625 -1.2569 -1.8269
  131OSM    H6G14190   1.588   5.514   5.793  1.0540  0.6951  0.8391
  131OSM    C7F14191   1.390   5.581   5.712 -0.0310 -0.1496 -0.2283
  131OSM    H7F14192   1.301   5.635   5.750  0.0403 -0.5097  0.4589
  131OSM    H7G14193   1.345   5.490   5.668 -0.6357  0.1272 -0.1979
  131OSM    C8F14194   1.460   5.667   5.606 -0.0850 -0.5447  0.4180
  131OSM    H8F14195   1.555   5.618   5.577 -0.4907  0.0109 -2.1554
  131OSM    H8G14196   1.501   5.756   5.659  1.4496 -0.7360 -0.3735
  131OSM    C9F14197   1.375   5.705   5.486 -0.4616 -0.1046 -0.0425
  131OSM    H9F14198   1.278   5.739   5.525  0.3679  0.0569  2.0178
  131OSM   C10F14199   1.394   5.695   5.353  0.5124 -0.0057  0.2262
  131OSM   H10F14200   1.305   5.714   5.291  0.5148  0.8123  0.4655
  131OSM   C11F14201   1.527   5.670   5.282 -0.3747 -0.7036 -0.2417
  131OSM   H11F14202   1.543   5.576   5.226  5.6549  0.0602 -0.4725
  131OSM   H11G14203   1.605   5.652   5.359 -0.5351  0.3203  0.1833
  131OSM   C12F14204   1.563   5.782   5.185  0.3142  0.1880 -0.8566
  131OSM   H12F14205   1.672   5.765   5.177  0.5675  1.1954  0.2139
  131OSM   H12G14206   1.548   5.882   5.232 -0.6809  0.2748 -1.3296
  131OSM   C13F14207   1.487   5.783   5.052  0.2198 -0.3343 -0.5008
  131OSM   H13F14208   1.397   5.848   5.052  0.5883  0.1976 -1.4187
  131OSM   H13G14209   1.478   5.676   5.025 -0.0852  0.2520 -2.9559
  131OSM   C14F14210   1.563   5.863   4.941 -0.0495 -0.4423 -0.6027
  131OSM   H14F14211   1.673   5.845   4.944  0.3077  1.1683 -2.0953
  131OSM   H14G14212   1.557   5.970   4.972 -1.4016 -1.0154  1.3170
  131OSM   C15F14213   1.506   5.832   4.800 -0.6410 -0.1303  0.1280
  131OSM   H15F14214   1.532   5.726   4.781  2.8235  0.1891  2.2174
  131OSM   H15G14215   1.570   5.885   4.725  1.6411 -3.2987 -0.3634
  131OSM   C16F14216   1.352   5.857   4.784  0.6059  0.3761 -0.1440
  131OSM   H16F14217   1.329   5.965   4.800  0.3916  0.4571 -0.9383
  131OSM   H16G14218   1.303   5.791   4.858  0.4402 -0.1873 -0.7510
  131OSM   C17F14219   1.317   5.820   4.640 -0.0243  0.3779  0.0748
  131OSM   H17F14220   1.370   5.895   4.577 -2.2216  1.8943 -0.0528
  131OSM   H17G14221   1.211   5.832   4.610  0.7008  0.5664 -2.6758
  131OSM   C18F14222   1.342   5.674   4.613 -0.0727  0.2347  0.7694
  131OSM   H18F14223   1.322   5.628   4.713  0.2094 -0.8968  0.3277
  131OSM   H18G14224   1.451   5.664   4.593  0.1341  3.2202  0.0519
  131OSM   H18H14225   1.282   5.637   4.527  0.7838 -0.5626  0.4926
  132OSM      N14226   1.765   2.171   7.162 -0.4176 -0.2718 -0.0454
  132OSM    C1514227   1.626   2.221   7.135  0.4441  0.6096 -0.0991
  132OSM   H15A14228   1.593   2.280   7.219  1.1678  0.9159 -0.0273
  132OSM   H15B14229   1.558   2.137   7.137  0.7193  0.4031  0.8033
  132OSM   H15C14230   1.615   2.275   7.042  1.4257  0.6625 -0.1973
  132OSM    C1414231   1.867   2.280   7.138 -0.1137 -0.0493 -0.4820
  132OSM   H14A14232   1.836   2.375   7.181  0.4974  0.1255 -0.4217
  132OSM   H14B14233   1.878   2.301   7.033  0.6115  1.0872 -0.1930
  132OSM   H14C14234   1.967   2.262   7.174 -0.8801 -0.2112  1.6900
  132OSM    C1314235   1.770   2.119   7.309 -0.0765  0.5462  0.8467
  132OSM   H13A14236   1.865   2.072   7.331  0.0971  0.2009 -0.5421
  132OSM   H13B14237   1.700   2.039   7.329  2.4605 -1.7273  1.1986
  132OSM   H13C14238   1.765   2.201   7.379 -1.1355  0.4331  0.9209
  132OSM    C1214239   1.800   2.060   7.066 -0.1806  0.2617 -0.1335
  132OSM   H12A14240   1.747   1.976   7.109  0.2841 -0.0363 -0.1252
  132OSM   H12B14241   1.901   2.021   7.071 -0.2074  0.1071 -0.7698
  132OSM    C1114242   1.770   2.070   6.915  0.4483 -0.2649  0.2405
  132OSM   H11A14243   1.664   2.100   6.905  0.6481  0.9603  1.4925
  132OSM   H11B14244   1.784   1.968   6.871  1.1153  0.5837 -1.6471
  132OSM      P14245   2.017   2.100   6.840 -0.3814 -0.0270 -0.5431
  132OSM    O1314246   2.103   2.180   6.930 -0.1523 -0.6591  0.6647
  132OSM    O1414247   2.024   1.954   6.866  0.2298  0.0173  0.1162
  132OSM    O1114248   2.049   2.127   6.691 -0.1392 -0.0793  0.5941
  132OSM    O1214249   1.869   2.155   6.857  0.1476 -0.0604 -0.1827
  132OSM    C1S14250   2.173   2.197   6.671 -0.1046 -0.4154  0.2789
  132OSM    H1S14251   2.255   2.146   6.726  1.1480  0.9885 -0.2212
  132OSM    H1T14252   2.180   2.302   6.706  1.6298 -0.2064 -0.5918
  132OSM     NF14253   2.356   2.219   6.490  0.0977  0.2087  0.5242
  132OSM    HNF14254   2.383   2.311   6.461  0.4150 -0.0086  0.1263
  132OSM    C2S14255   2.218   2.210   6.521 -0.3176 -0.5976  0.0987
  132OSM    H2S14256   2.179   2.119   6.471  0.1940  0.0697 -1.6152
  132OSM    C3S14257   2.124   2.320   6.454 -0.3719  0.4498  0.1011
  132OSM    H3S14258   2.162   2.415   6.498  1.9943 -1.1005  1.5810
  132OSM     O314259   1.989   2.321   6.488 -0.5082  0.1944 -0.7789
  132OSM    HO314260   1.984   2.252   6.554 -1.2062  2.2289  1.4398
  132OSM    C4S14261   2.149   2.332   6.306 -0.5274  0.9127  0.8368
  132OSM    H4S14262   2.246   2.381   6.285  0.5767  0.4393  4.1561
  132OSM    C5S14263   2.076   2.268   6.208 -0.2672 -0.2655  0.1543
  132OSM    H5S14264   1.995   2.199   6.236 -0.2623 -1.0416 -1.6103
  132OSM    C6S14265   2.096   2.279   6.060 -0.1970 -0.1029 -0.5842
  132OSM    H6S14266   1.997   2.301   6.016  0.3549  1.1646 -1.2582
  132OSM    H6T14267   2.132   2.183   6.015 -1.4122  0.3569 -2.6611
  132OSM    C7S14268   2.195   2.393   6.029 -0.7837  1.0165  0.2031
  132OSM    H7S14269   2.292   2.365   6.075 -0.8220 -0.1865 -0.4200
  132OSM    H7T14270   2.158   2.488   6.074  0.3783  0.4250  2.5579
  132OSM    C8S14271   2.211   2.421   5.880 -0.0471 -0.0969  0.3946
  132OSM    H8S14272   2.119   2.449   5.824  0.1118 -2.1418 -0.9875
  132OSM    H8T14273   2.235   2.327   5.826  4.1232  0.3964  1.1020
  132OSM    C9S14274   2.321   2.525   5.858 -0.0584  0.4227 -0.6409
  132OSM    H9S14275   2.418   2.496   5.902 -0.1517  2.3352  0.9787
  132OSM    H9T14276   2.278   2.612   5.912 -1.9035 -0.9363  0.2259
  132OSM   C10S14277   2.327   2.560   5.709 -0.1958  0.6532 -0.6968
  132OSM   H10S14278   2.228   2.592   5.672 -0.5526 -0.4298 -0.7000
  132OSM   H10T14279   2.355   2.464   5.660  0.7053  0.6484 -0.2008
  132OSM   C11S14280   2.421   2.676   5.671  0.8352  0.6606  0.2836
  132OSM   H11S14281   2.521   2.636   5.701  0.6399 -0.0948 -0.0344
  132OSM   H11T14282   2.420   2.771   5.728  3.4638  2.6354 -2.6146
  132OSM   C12S14283   2.416   2.706   5.522  0.5238 -0.2191 -0.2485
  132OSM   H12S14284   2.328   2.773   5.512  0.6959  0.7026  3.0316
  132OSM   H12T14285   2.391   2.611   5.470 -1.2653 -0.0672  0.2561
  132OSM   C13S14286   2.551   2.762   5.483  0.2280  0.1991  0.3648
  132OSM   H13S14287   2.630   2.685   5.478 -0.4693 -0.6672  1.8896
  132OSM   H13T14288   2.595   2.839   5.550  1.2739 -1.1862  1.3029
  132OSM   C14S14289   2.543   2.830   5.343  0.0647  0.1587  0.0422
  132OSM   H14S14290   2.638   2.885   5.326  0.2374 -0.0370  0.3524
  132OSM   H14T14291   2.463   2.904   5.362  0.2273  0.0116  1.4435
  132OSM   C15S14292   2.509   2.737   5.224  0.4307  0.6247 -0.3569
  132OSM   H15S14293   2.420   2.673   5.241  1.1675  0.0277  1.4620
  132OSM   H15T14294   2.603   2.678   5.217 -0.4837 -0.9088  0.0159
  132OSM   C16S14295   2.498   2.806   5.087 -0.2716 -0.2546 -0.4109
  132OSM   H16S14296   2.597   2.853   5.066 -0.8030  0.5133 -1.2764
  132OSM   H16T14297   2.420   2.883   5.105  0.2479  0.4913 -1.2480
  132OSM   C17S14298   2.475   2.710   4.971  0.0746 -0.2083  0.0526
  132OSM   H17S14299   2.487   2.757   4.871  2.6759 -0.2108  0.2869
  132OSM   H17T14300   2.369   2.678   4.978 -0.5912  1.9516  0.8441
  132OSM   C18S14301   2.564   2.583   4.964  0.1416 -0.3730  0.1330
  132OSM   H18S14302   2.565   2.527   5.060 -0.2786  1.9843  1.5987
  132OSM   H18T14303   2.669   2.617   4.953  0.2307 -1.1552 -1.8136
  132OSM   H18U14304   2.530   2.519   4.879 -0.0362  1.2648 -1.0874
  132OSM    C1F14305   2.448   2.135   6.527  0.0894 -0.1200 -1.1109
  132OSM     OF14306   2.422   2.036   6.595  0.0176  0.0163  0.3993
  132OSM    C2F14307   2.590   2.169   6.490 -0.1333 -0.0202  0.0049
  132OSM    H2F14308   2.646   2.184   6.585  0.6900 -1.6584 -0.1834
  132OSM    H2G14309   2.581   2.261   6.429 -0.7961  0.9908  1.5776
  132OSM    C3F14310   2.649   2.059   6.398 -1.2565 -0.0775  0.5719
  132OSM    H3F14311   2.634   1.957   6.441  0.2442 -0.9189 -0.7894
  132OSM    H3G14312   2.759   2.075   6.396 -1.4716  1.3697 -0.4174
  132OSM    C4F14313   2.590   2.064   6.259  0.2975  0.5975 -0.2031
  132OSM    H4F14314   2.480   2.049   6.260  0.0250  2.3554  1.0349
  132OSM    H4G14315   2.628   1.971   6.212  2.0246  1.1830 -0.0272
  132OSM    C5F14316   2.629   2.191   6.180 -0.6287 -0.4628  0.1289
  132OSM    H5F14317   2.732   2.228   6.200 -1.3394  1.0469  1.0999
  132OSM    H5G14318   2.557   2.270   6.208  1.9887  1.7642  1.0029
  132OSM    C6F14319   2.605   2.173   6.027 -0.2098 -0.1944 -0.5704
  132OSM    H6F14320   2.635   2.263   5.969 -1.1611 -0.3921 -1.3852
  132OSM    H6G14321   2.496   2.150   6.024 -0.0251 -1.3742  0.7231
  132OSM    C7F14322   2.674   2.056   5.974 -0.1991 -0.1196 -0.4119
  132OSM    H7F14323   2.630   1.957   5.998  1.5907 -0.2388  3.0648
  132OSM    H7G14324   2.778   2.052   6.014 -0.3983 -4.1022  0.0453
  132OSM    C8F14325   2.672   2.052   5.816 -0.1142  0.4720  0.3592
  132OSM    H8F14326   2.566   2.070   5.786 -0.2565 -1.6324 -0.5736
  132OSM    H8G14327   2.704   1.951   5.785  0.8178  0.8292  0.1229
  132OSM    C9F14328   2.761   2.149   5.740  0.2951  0.0457 -0.3664
  132OSM    H9F14329   2.870   2.131   5.742  0.1208 -1.5148 -2.2180
  132OSM   C10F14330   2.722   2.258   5.666  0.0513 -0.1902  0.4368
  132OSM   H10F14331   2.798   2.321   5.616  1.6496 -1.3431  1.3341
  132OSM   C11F14332   2.572   2.295   5.648 -0.4273 -0.4753 -0.3170
  132OSM   H11F14333   2.564   2.401   5.615  0.3630  0.0371  1.0437
  132OSM   H11G14334   2.527   2.300   5.750  0.4891 -1.2043  0.1339
  132OSM   C12F14335   2.471   2.200   5.580  0.2657 -0.4369  0.6462
  132OSM   H12F14336   2.371   2.214   5.626  0.1238  0.6674  0.0318
  132OSM   H12G14337   2.504   2.096   5.597  1.1966 -0.2151  0.2436
  132OSM   C13F14338   2.461   2.203   5.426  0.4905 -0.5791  0.2037
  132OSM   H13F14339   2.404   2.292   5.392  1.0159 -0.2649  0.1344
  132OSM   H13G14340   2.387   2.122   5.408 -0.9511  0.7288 -0.0641
  132OSM   C14F14341   2.585   2.187   5.330 -0.7359 -0.0421  0.1126
  132OSM   H14F14342   2.631   2.089   5.351 -0.5975  0.3140  1.5486
  132OSM   H14G14343   2.655   2.266   5.366  1.8554 -0.9146 -2.5911
  132OSM   C15F14344   2.558   2.206   5.179 -0.7435  0.3355 -1.3277
  132OSM   H15F14345   2.543   2.314   5.160  0.3083  1.2732  2.3176
  132OSM   H15G14346   2.471   2.145   5.146  0.3477 -1.4520 -1.0235
  132OSM   C16F14347   2.677   2.175   5.087 -0.1524 -0.2677 -0.0665
  132OSM   H16F14348   2.649   2.150   4.982 -1.7773 -0.7065  0.4442
  132OSM   H16G14349   2.718   2.081   5.129 -1.5701 -0.3610  1.1952
  132OSM   C17F14350   2.790   2.278   5.089  1.0593 -0.0251 -0.0402
  132OSM   H17F14351   2.776   2.344   5.177  2.0856 -1.1695  1.0252
  132OSM   H17G14352   2.779   2.343   5.000  2.5869  2.1151  1.2237
  132OSM   C18F14353   2.933   2.213   5.097 -0.2863  0.7668  0.2247
  132OSM   H18F14354   2.952   2.160   5.001  0.5840  0.5071  0.5305
  132OSM   H18G14355   2.942   2.137   5.177 -1.0970 -0.6288 -0.9719
  132OSM   H18H14356   3.003   2.295   5.126 -0.2976  0.9828 -0.3350
  133OSM      N14357   0.551   2.614   7.121  0.1063 -0.4287  0.6917
  133OSM    C1514358   0.432   2.552   7.169 -0.0736  0.0142 -0.7577
  133OSM   H15A14359   0.420   2.452   7.128  0.2763 -1.1164  1.7273
  133OSM   H15B14360   0.345   2.614   7.153 -0.1772 -0.5553 -2.8275
  133OSM   H15C14361   0.437   2.531   7.274  0.8491 -1.2005 -1.0227
  133OSM    C1414362   0.571   2.734   7.209 -0.0616 -0.2594  0.0025
  133OSM   H14A14363   0.567   2.715   7.315 -0.4135  0.7200  0.1729
  133OSM   H14B14364   0.492   2.806   7.193 -2.2491 -2.6083 -0.4839
  133OSM   H14C14365   0.664   2.784   7.187  0.2453  0.4469  2.6338
  133OSM    C1314366   0.665   2.514   7.147  0.1916  0.0647  0.2030
  133OSM   H13A14367   0.762   2.552   7.119  0.1346 -0.8528 -1.3435
  133OSM   H13B14368   0.657   2.423   7.090  2.2040  0.1833 -0.3268
  133OSM   H13C14369   0.659   2.476   7.248 -2.3211 -1.2194 -0.3445
  133OSM    C1214370   0.537   2.651   6.977  0.7163  0.4824 -0.0463
  133OSM   H12A14371   0.617   2.710   6.935  1.1944 -1.8151 -2.6418
  133OSM   H12B14372   0.452   2.717   6.965  2.4083  2.4043 -2.5824
  133OSM    C1114373   0.534   2.525   6.875 -0.4227 -0.1350 -0.2678
  133OSM   H11A14374   0.494   2.556   6.775  0.2007 -0.5998 -0.6650
  133OSM   H11B14375   0.463   2.444   6.902  1.7288 -1.3490  2.0085
  133OSM      P14376   0.780   2.524   6.800 -0.3200  0.3947 -0.1329
  133OSM    O1314377   0.795   2.653   6.867  0.1405 -0.2586  0.2011
  133OSM    O1414378   0.891   2.423   6.794  0.6401 -0.1535 -0.0121
  133OSM    O1114379   0.732   2.557   6.656 -0.0632 -0.6604  0.2587
  133OSM    O1214380   0.659   2.457   6.866  0.0111  0.5568 -0.5002
  133OSM    C1S14381   0.659   2.473   6.568  0.2899 -0.2132 -0.2272
  133OSM    H1S14382   0.557   2.518   6.569  0.2303 -0.1562  3.3397
  133OSM    H1T14383   0.671   2.367   6.599 -0.3086 -0.2607 -0.1456
  133OSM     NF14384   0.603   2.453   6.317 -0.0659  0.0534 -0.3401
  133OSM    HNF14385   0.616   2.374   6.258  0.2900  0.4376 -0.7826
  133OSM    C2S14386   0.701   2.497   6.418  0.0391 -0.1841  1.4228
  133OSM    H2S14387   0.710   2.605   6.395  0.9483 -0.6043 -0.4583
  133OSM    C3S14388   0.849   2.437   6.400  0.3178 -0.5953 -1.0249
  133OSM    H3S14389   0.832   2.332   6.433 -4.7514  0.5871  1.1494
  133OSM     O314390   0.952   2.482   6.487 -0.0372  0.2661 -0.6198
  133OSM    HO314391   0.901   2.500   6.566 -0.0067  0.8476 -0.7293
  133OSM    C4S14392   0.895   2.449   6.258  0.1091 -1.0012  0.3192
  133OSM    H4S14393   0.878   2.546   6.209 -2.4564 -1.9031 -0.7557
  133OSM    C5S14394   0.917   2.344   6.178 -0.2918 -0.5064 -0.1425
  133OSM    H5S14395   0.924   2.244   6.224  0.5318 -1.2046 -1.6801
  133OSM    C6S14396   0.936   2.354   6.031 -0.3313  0.2172 -1.1605
  133OSM    H6S14397   0.952   2.256   5.981 -1.0841  0.3545 -1.7007
  133OSM    H6T14398   1.024   2.417   6.008 -1.6039  3.0373  1.0828
  133OSM    C7S14399   0.819   2.425   5.960 -0.5184  0.4264 -0.6441
  133OSM    H7S14400   0.822   2.530   5.996  1.5106 -0.2031  1.1733
  133OSM    H7T14401   0.727   2.375   5.998  0.7937 -0.9184  0.8556
  133OSM    C8S14402   0.836   2.416   5.803 -0.6525  0.3607 -0.7731
  133OSM    H8S14403   0.840   2.306   5.787  0.6164  0.4827 -1.3701
  133OSM    H8T14404   0.924   2.472   5.765 -1.6614  1.7736 -1.1287
  133OSM    C9S14405   0.719   2.462   5.721  0.1076  0.0254  0.6887
  133OSM    H9S14406   0.721   2.573   5.719 -2.8378  0.1509  0.2327
  133OSM    H9T14407   0.624   2.442   5.776  0.2926  0.5886  1.2140
  133OSM   C10S14408   0.731   2.414   5.577 -0.4175  0.3056  0.5322
  133OSM   H10S14409   0.718   2.304   5.583 -2.0386  0.5065  1.3015
  133OSM   H10T14410   0.830   2.451   5.545 -1.6758  1.8930 -1.8474
  133OSM   C11S14411   0.631   2.481   5.481 -0.3840 -0.2169 -0.5248
  133OSM   H11S14412   0.642   2.591   5.491 -0.4241 -0.1933 -0.7313
  133OSM   H11T14413   0.531   2.462   5.526  0.3357 -0.3083  1.1048
  133OSM   C12S14414   0.630   2.446   5.332 -0.3692 -0.4497 -0.1392
  133OSM   H12S14415   0.621   2.336   5.322  2.5554 -0.7027 -0.7091
  133OSM   H12T14416   0.733   2.464   5.294  0.0140 -0.9142  0.6454
  133OSM   C13S14417   0.510   2.517   5.255  0.2669  0.0995 -0.4622
  133OSM   H13S14418   0.538   2.623   5.236  1.5829 -0.5300 -2.3324
  133OSM   H13T14419   0.424   2.508   5.324  0.8181 -0.8071  0.1169
  133OSM   C14S14420   0.491   2.457   5.116  0.9681  0.2038  0.0514
  133OSM   H14S14421   0.471   2.348   5.120 -0.4881  0.3775 -1.2112
  133OSM   H14T14422   0.585   2.469   5.058  0.6392  2.9340 -0.0310
  133OSM   C15S14423   0.375   2.526   5.037  0.3762 -0.1863 -1.0038
  133OSM   H15S14424   0.394   2.634   5.049  1.6668 -0.4998 -0.0223
  133OSM   H15T14425   0.282   2.488   5.084  1.1388 -1.0130 -0.1052
  133OSM   C16S14426   0.355   2.506   4.889 -0.3350  0.5654  0.8803
  133OSM   H16S14427   0.328   2.399   4.882 -0.3954  0.6790 -1.3318
  133OSM   H16T14428   0.449   2.526   4.833 -0.1014 -1.5713  0.4395
  133OSM   C17S14429   0.238   2.578   4.825 -0.9041 -0.5052 -0.5258
  133OSM   H17S14430   0.256   2.683   4.857  3.4592 -1.1578 -0.1824
  133OSM   H17T14431   0.142   2.547   4.871 -0.4434  0.2396  0.9989
  133OSM   C18S14432   0.214   2.571   4.677 -0.3003  0.0721  0.7436
  133OSM   H18S14433   0.111   2.611   4.663 -0.0162  0.7518  0.5814
  133OSM   H18T14434   0.199   2.466   4.643  0.0293 -0.1475  1.2592
  133OSM   H18U14435   0.285   2.634   4.621  1.1676 -2.0990  0.0487
  133OSM    C1F14436   0.482   2.506   6.304 -0.3116  0.1104  0.0859
  133OSM     OF14437   0.443   2.591   6.385 -0.0534  0.4993  0.3903
  133OSM    C2F14438   0.391   2.441   6.205 -0.6950  0.1211  0.1200
  133OSM    H2F14439   0.292   2.423   6.252 -0.9122 -0.0563 -0.4018
  133OSM    H2G14440   0.423   2.341   6.170  0.7432  0.2783  0.8966
  133OSM    C3F14441   0.356   2.525   6.075  0.6092 -0.7606 -0.8562
  133OSM    H3F14442   0.448   2.540   6.014  0.7392  0.8426 -0.3164
  133OSM    H3G14443   0.327   2.628   6.106 -0.4733 -1.2031 -0.3805
  133OSM    C4F14444   0.237   2.472   5.998 -0.4634  0.1075 -0.3117
  133OSM    H4F14445   0.217   2.537   5.909  0.0780  1.5236  0.5600
  133OSM    H4G14446   0.146   2.464   6.061  0.4507  0.5333  1.0817
  133OSM    C5F14447   0.256   2.326   5.936 -0.3121  0.0036 -0.6421
  133OSM    H5F14448   0.155   2.288   5.910  0.6064 -2.9754 -0.2028
  133OSM    H5G14449   0.308   2.257   6.006  0.0965  1.5663  0.6536
  133OSM    C6F14450   0.348   2.316   5.806 -0.3561  0.3207  0.1861
  133OSM    H6F14451   0.347   2.210   5.774  0.4450  0.3317  0.1020
  133OSM    H6G14452   0.448   2.355   5.834  0.4282 -2.3035  1.3271
  133OSM    C7F14453   0.287   2.400   5.690 -0.0378  0.8462 -0.0621
  133OSM    H7F14454   0.343   2.495   5.680  2.1584 -0.1507  1.7788
  133OSM    H7G14455   0.182   2.429   5.711 -0.7144  0.9315 -3.0835
  133OSM    C8F14456   0.293   2.324   5.555  0.4495 -0.4530  0.4977
  133OSM    H8F14457   0.391   2.298   5.511 -0.6126 -0.1151 -2.2532
  133OSM    H8G14458   0.269   2.400   5.477  0.3367 -2.7476 -1.8396
  133OSM    C9F14459   0.185   2.218   5.550  0.4880 -0.0860  0.1626
  133OSM    H9F14460   0.171   2.171   5.648 -2.9873  0.6618  0.1495
  133OSM   C10F14461   0.115   2.182   5.441  0.5013  0.0439  0.0775
  133OSM   H10F14462   0.055   2.090   5.449  0.1779  0.2483  0.0341
  133OSM   C11F14463   0.136   2.238   5.303  0.1737 -0.3954 -0.5944
  133OSM   H11F14464   0.229   2.298   5.299  0.4871 -0.7580  0.6945
  133OSM   H11G14465   0.051   2.304   5.276 -0.6430 -0.5935  1.3037
  133OSM   C12F14466   0.167   2.123   5.206 -0.1899 -0.1082  0.1296
  133OSM   H12F14467   0.095   2.038   5.207 -0.1461 -0.1892 -1.2704
  133OSM   H12G14468   0.262   2.075   5.237 -1.2937 -1.8931  0.9321
  133OSM   C13F14469   0.175   2.166   5.063 -0.2430  0.0486  0.1246
  133OSM   H13F14470   0.203   2.080   4.998  0.3227  0.3002  0.0213
  133OSM   H13G14471   0.247   2.250   5.050 -3.7399  3.1269 -0.8666
  133OSM   C14F14472   0.041   2.213   5.003  0.0208  0.2366 -0.3197
  133OSM   H14F14473  -0.008   2.287   5.069 -0.7349 -0.5672  0.0270
  133OSM   H14G14474  -0.018   2.119   5.012  0.3816 -0.0766 -1.1105
  133OSM   C15F14475   0.049   2.261   4.863 -0.4458 -0.4498 -0.2961
  133OSM   H15F14476   0.110   2.194   4.799  1.5300  1.8959 -1.0209
  133OSM   H15G14477   0.107   2.355   4.860  2.6595 -2.1834  0.8544
  133OSM   C16F14478  -0.090   2.279   4.793 -0.6203 -0.1292 -0.5278
  133OSM   H16F14479  -0.130   2.377   4.827  0.6479  0.4515 -0.6594
  133OSM   H16G14480  -0.158   2.200   4.833  0.9539 -0.8362  0.8574
  133OSM   C17F14481  -0.083   2.279   4.641  0.0156 -0.0445 -0.4433
  133OSM   H17F14482  -0.020   2.193   4.611  1.8779  0.5813  1.4279
  133OSM   H17G14483  -0.033   2.375   4.617 -0.4238  0.0715 -0.9107
  133OSM   C18F14484  -0.219   2.272   4.579 -0.5399 -0.1523  0.7051
  133OSM   H18F14485  -0.280   2.360   4.607 -1.9654 -1.0268  0.4723
  133OSM   H18G14486  -0.277   2.182   4.607  0.0540 -0.1317  2.0745
  133OSM   H18H14487  -0.208   2.260   4.469  1.4216 -0.6423  0.9120
  134OSM      N14488   6.400   0.246   7.075 -0.9262 -0.0817  0.7380
  134OSM    C1514489   6.511   0.279   6.974 -0.2186  0.0648  0.0967
  134OSM   H15A14490   6.471   0.287   6.874  1.2917  1.0428 -0.4694
  134OSM   H15B14491   6.589   0.205   6.971  0.5751  0.8501  0.7753
  134OSM   H15C14492   6.552   0.379   6.986 -0.4757  0.1642  0.1417
  134OSM    C1414493   6.470   0.214   7.208 -0.6269  0.1782  0.0189
  134OSM   H14A14494   6.560   0.161   7.182 -2.4750 -2.7404 -0.9998
  134OSM   H14B14495   6.411   0.158   7.279 -0.0267 -1.0021 -0.3771
  134OSM   H14C14496   6.509   0.307   7.246  1.6527 -1.6343  2.4802
  134OSM    C1314497   6.308   0.361   7.088 -0.5310  0.4133  0.0973
  134OSM   H13A14498   6.222   0.331   7.146 -1.0687  0.7484 -0.5072
  134OSM   H13B14499   6.265   0.398   6.996 -0.6505 -0.3856 -0.1733
  134OSM   H13C14500   6.354   0.443   7.141  1.0324 -0.6864  0.4992
  134OSM    C1214501   6.335   0.113   7.040 -0.5444 -0.3354  0.0801
  134OSM   H12A14502   6.266   0.080   7.117 -2.2727  1.7972 -0.4609
  134OSM   H12B14503   6.417   0.044   7.025  0.1593  0.6025 -0.4873
  134OSM    C1114504   6.259   0.110   6.905  0.3876  0.6627 -0.3573
  134OSM   H11A14505   6.228   0.004   6.893  0.7481  0.4919  0.1633
  134OSM   H11B14506   6.338   0.118   6.826 -2.6968 -2.0668 -4.1339
  134OSM      P14507   6.016   0.163   6.936 -0.3774  0.1325 -0.4538
  134OSM    O1314508   6.023   0.061   7.040 -0.9503 -0.0849  0.6798
  134OSM    O1414509   5.929   0.277   6.965 -0.4045  0.6140 -0.5033
  134OSM    O1114510   5.966   0.087   6.809 -0.3279  0.0677  0.1645
  134OSM    O1214511   6.157   0.208   6.889  0.2860  0.8505 -0.0129
  134OSM    C1S14512   5.947   0.170   6.686 -0.3467 -0.1957 -0.3701
  134OSM    H1S14513   6.004   0.266   6.682 -1.8065  0.6654 -1.4097
  134OSM    H1T14514   5.840   0.200   6.689 -0.2736 -0.0113  0.3590
  134OSM     NF14515   5.982   0.179   6.444 -0.6924  0.2071  0.2966
  134OSM    HNF14516   5.907   0.187   6.378  1.1437 -0.4334 -2.0228
  134OSM    C2S14517   5.959   0.096   6.555 -0.9335  0.9679 -1.5708
  134OSM    H2S14518   6.039   0.020   6.569 -2.3057  0.1244  3.8148
  134OSM    C3S14519   5.831   0.001   6.546 -0.0073  0.0337  0.4508
  134OSM    H3S14520   5.741   0.063   6.529  0.2485 -0.3856 -3.1920
  134OSM     O314521   5.819  -0.074   6.669  0.0902  0.9736 -0.6836
  134OSM    HO314522   5.900  -0.051   6.715  0.4807  0.8166 -1.2810
  134OSM    C4S14523   5.837  -0.081   6.417 -0.0117  0.2022 -0.1113
  134OSM    H4S14524   5.790  -0.022   6.337  1.6417  1.0362 -0.5181
  134OSM    C5S14525   5.887  -0.204   6.407 -0.3451 -0.4420 -0.2665
  134OSM    H5S14526   5.944  -0.251   6.488 -0.8933 -1.2346 -0.3292
  134OSM    C6S14527   5.898  -0.288   6.280  0.1361 -0.0252 -0.2011
  134OSM    H6S14528   5.856  -0.389   6.298 -1.5450  0.6463 -0.2582
  134OSM    H6T14529   6.003  -0.312   6.252  1.1830 -0.0713  3.3206
  134OSM    C7S14530   5.823  -0.225   6.158  0.0802 -0.4886 -0.5542
  134OSM    H7S14531   5.878  -0.131   6.136  1.8828 -1.7091 -1.5100
  134OSM    H7T14532   5.716  -0.201   6.177  0.4520 -0.2927  1.5291
  134OSM    C8S14533   5.827  -0.314   6.037  0.7205 -0.2874  0.3788
  134OSM    H8S14534   5.753  -0.397   6.046  2.5018 -1.8454  1.3418
  134OSM    H8T14535   5.931  -0.352   6.035  1.9358  2.8574 -0.3636
  134OSM    C9S14536   5.799  -0.241   5.908 -0.1046 -0.2607  0.4853
  134OSM    H9S14537   5.871  -0.157   5.904  1.4038 -1.5184 -0.1296
  134OSM    H9T14538   5.696  -0.200   5.911 -0.5140 -0.3615 -4.4116
  134OSM   C10S14539   5.815  -0.324   5.775  0.6502  0.0770  0.0575
  134OSM   H10S14540   5.779  -0.428   5.791  0.3746  0.3259  1.1552
  134OSM   H10T14541   5.924  -0.334   5.757  0.7126 -0.9371  0.9046
  134OSM   C11S14542   5.765  -0.255   5.649 -0.0429  0.0220 -0.2198
  134OSM   H11S14543   5.781  -0.146   5.659 -0.9951  0.0412  1.5879
  134OSM   H11T14544   5.655  -0.269   5.652 -0.0812  0.4271  1.3461
  134OSM   C12S14545   5.835  -0.306   5.517 -0.1743  0.2147 -0.2440
  134OSM   H12S14546   5.836  -0.417   5.515 -0.3564  0.2230 -1.1292
  134OSM   H12T14547   5.942  -0.277   5.524  0.8237 -2.7782 -1.7422
  134OSM   C13S14548   5.785  -0.243   5.386 -0.4893  0.3870 -0.4887
  134OSM   H13S14549   5.795  -0.133   5.395  0.7417  0.5070 -2.7797
  134OSM   H13T14550   5.676  -0.265   5.378 -0.3438 -0.2555 -0.7481
  134OSM   C14S14551   5.873  -0.282   5.258  1.1066 -0.7057 -0.6152
  134OSM   H14S14552   5.877  -0.393   5.243 -0.6820 -0.4639 -3.7906
  134OSM   H14T14553   5.975  -0.238   5.262  1.2278 -0.6737 -2.8506
  134OSM   C15S14554   5.801  -0.230   5.128 -0.0659  0.5993  0.9708
  134OSM   H15S14555   5.798  -0.119   5.142  0.1322  1.1386 -2.5222
  134OSM   H15T14556   5.698  -0.268   5.111  0.3460 -0.0578 -0.1436
  134OSM   C16S14557   5.883  -0.268   5.003  0.2388  1.1122 -0.6010
  134OSM   H16S14558   5.899  -0.378   4.996 -0.4419  1.0401 -1.1570
  134OSM   H16T14559   5.985  -0.225   5.014 -0.7490  2.8873  3.4105
  134OSM   C17S14560   5.837  -0.223   4.866  0.4536  0.4540 -0.4593
  134OSM   H17S14561   5.850  -0.112   4.865  0.5463  0.4532  0.2091
  134OSM   H17T14562   5.728  -0.245   4.862 -0.0019  2.4419 -0.3948
  134OSM   C18S14563   5.907  -0.301   4.756  0.6640 -0.3939 -0.5030
  134OSM   H18S14564   6.018  -0.293   4.767  0.7941 -0.3950 -1.6824
  134OSM   H18T14565   5.888  -0.245   4.662  1.2265 -2.6398 -2.0403
  134OSM   H18U14566   5.882  -0.409   4.747  2.2011 -0.8614  0.2779
  134OSM    C1F14567   6.093   0.257   6.428 -0.5338 -0.4697  0.1741
  134OSM     OF14568   6.178   0.264   6.519  0.2271 -0.9475 -0.5440
  134OSM    C2F14569   6.106   0.333   6.295  0.1778 -0.3815  0.1332
  134OSM    H2F14570   6.212   0.323   6.264 -0.2297 -0.4475 -1.2803
  134OSM    H2G14571   6.079   0.440   6.297  2.6143  0.2851  0.7227
  134OSM    C3F14572   6.033   0.251   6.185 -0.3549 -0.1126  0.1291
  134OSM    H3F14573   5.925   0.270   6.201 -0.3086  0.7656 -0.5174
  134OSM    H3G14574   6.046   0.141   6.194  1.0545  0.1613  2.1323
  134OSM    C4F14575   6.072   0.273   6.037 -0.0004  0.4905  0.3680
  134OSM    H4F14576   6.182   0.273   6.030  0.1785  3.5277  1.5402
  134OSM    H4G14577   6.052   0.380   6.013 -0.2784  0.3073 -0.2392
  134OSM    C5F14578   5.994   0.189   5.935  0.1944  1.0014 -0.7955
  134OSM    H5F14579   5.888   0.186   5.970  1.2927  0.7019  2.9810
  134OSM    H5G14580   6.024   0.084   5.959  1.9064  1.6240 -0.0805
  134OSM    C6F14581   6.018   0.220   5.791  0.2924  0.0089  0.2579
  134OSM    H6F14582   6.124   0.200   5.765  0.1803 -0.0892 -0.1432
  134OSM    H6G14583   5.997   0.328   5.776  0.3199 -0.1924 -1.4386
  134OSM    C7F14584   5.935   0.140   5.691  0.0871 -0.0593  0.2699
  134OSM    H7F14585   5.836   0.131   5.741  0.1651  3.1127  1.1794
  134OSM    H7G14586   5.975   0.038   5.674 -1.4250 -1.1830  2.8404
  134OSM    C8F14587   5.901   0.219   5.562  0.6223 -0.8112  0.8705
  134OSM    H8F14588   5.859   0.315   5.598 -0.0306  0.3307 -2.5289
  134OSM    H8G14589   5.818   0.165   5.511 -0.8574 -0.2076  2.5434
  134OSM    C9F14590   6.023   0.237   5.478  0.2152  0.3819 -0.2485
  134OSM    H9F14591   6.114   0.271   5.531  1.5428 -1.2880 -1.3463
  134OSM   C10F14592   6.029   0.227   5.346  0.6878  0.0116 -0.2952
  134OSM   H10F14593   6.125   0.231   5.292 -0.2076 -1.1542 -2.0834
  134OSM   C11F14594   5.912   0.181   5.259  0.0570  0.1374 -0.1446
  134OSM   H11F14595   5.817   0.240   5.259  1.4493  2.5615 -1.6117
  134OSM   H11G14596   5.891   0.075   5.282 -2.0096  0.8131  1.4546
  134OSM   C12F14597   5.965   0.199   5.109  0.4318  0.3606 -0.3963
  134OSM   H12F14598   6.053   0.135   5.091  0.5402  0.3808  0.0649
  134OSM   H12G14599   5.991   0.306   5.093  2.1045 -0.0896 -0.8409
  134OSM   C13F14600   5.848   0.164   5.012 -0.3512  0.0708 -0.2440
  134OSM   H13F14601   5.772   0.241   5.037  0.7893  1.0391  0.3560
  134OSM   H13G14602   5.807   0.066   5.043 -1.1823  0.7838  1.0442
  134OSM   C14F14603   5.903   0.182   4.869 -0.4130 -0.6508  0.0822
  134OSM   H14F14604   5.977   0.103   4.843  0.0237 -0.1015 -0.3693
  134OSM   H14G14605   5.956   0.277   4.846  1.4958 -2.1543 -2.2799
  134OSM   C15F14606   5.787   0.179   4.763 -0.5237 -0.3172  0.5718
  134OSM   H15F14607   5.708   0.254   4.783 -2.8728 -1.9419 -1.8543
  134OSM   H15G14608   5.732   0.084   4.779  2.2591 -2.0407  0.6190
  134OSM   C16F14609   5.854   0.180   4.625  0.4337  0.1776  1.2184
  134OSM   H16F14610   5.905   0.085   4.598  0.6904  0.1287  1.8596
  134OSM   H16G14611   5.939   0.252   4.614  1.3902 -1.1415 -0.6589
  134OSM   C17F14612   5.749   0.201   4.512 -0.0546  0.0660  0.4857
  134OSM   H17F14613   5.679   0.283   4.541 -1.3113 -0.5758 -0.5913
  134OSM   H17G14614   5.684   0.111   4.520  2.0003 -1.4086  1.2821
  134OSM   C18F14615   5.807   0.223   4.373 -0.3613  0.3743 -0.3228
  134OSM   H18F14616   5.851   0.127   4.339 -2.8813 -1.9325  2.3146
  134OSM   H18G14617   5.889   0.297   4.371  1.3227 -1.4361 -1.2813
  134OSM   H18H14618   5.723   0.260   4.310 -0.5150 -0.3589 -0.5561
  135OSM      N14619   6.599   6.144   7.139  0.4859 -0.1830  0.4385
  135OSM    C1514620   6.545   6.022   7.071  0.2173 -0.2850  0.6597
  135OSM   H15A14621   6.503   5.947   7.137 -0.0879  1.3902  2.4849
  135OSM   H15B14622   6.610   5.973   7.001 -1.5221 -0.2652 -1.0529
  135OSM   H15C14623   6.467   6.057   7.004  0.4521 -0.9786  0.0200
  135OSM    C1414624   6.698   6.093   7.235 -0.1438  0.7913 -0.3202
  135OSM   H14A14625   6.737   6.182   7.282 -0.4169  0.2685  0.9509
  135OSM   H14B14626   6.781   6.037   7.196 -0.3099  0.1550  0.2205
  135OSM   H14C14627   6.636   6.030   7.299 -0.4160  1.3192 -0.0568
  135OSM    C1314628   6.656   6.241   7.043  0.4041 -0.2777 -0.2205
  135OSM   H13A14629   6.578   6.279   6.979  0.1686  1.1143  0.8438
  135OSM   H13B14630   6.742   6.200   6.993  0.5460  0.1871 -0.3681
  135OSM   H13C14631   6.704   6.326   7.090  0.8512 -1.2030  1.0663
  135OSM    C1214632   6.480   6.214   7.212 -0.5239  0.3980 -0.1262
  135OSM   H12A14633   6.509   6.314   7.241 -0.7078  0.9136 -1.6157
  135OSM   H12B14634   6.467   6.159   7.304 -0.5313  1.2571  0.3949
  135OSM    C1114635   6.345   6.213   7.134 -0.0948 -0.2080 -0.3196
  135OSM   H11A14636   6.277   6.274   7.196  0.5493  2.1092 -1.7532
  135OSM   H11B14637   6.307   6.110   7.122  1.0897 -0.6903 -0.0427
  135OSM      P14638   6.375   6.444   7.006 -0.2702 -0.3834  0.1628
  135OSM    O1314639   6.242   6.505   7.036  0.4480  0.5412 -0.2739
  135OSM    O1414640   6.490   6.496   7.086  0.6629 -0.2720  0.3064
  135OSM    O1114641   6.399   6.489   6.853  0.1169 -0.3572  0.1692
  135OSM    O1214642   6.363   6.284   7.012 -1.0203 -0.2140  0.1291
  135OSM    C1S14643   6.460   6.412   6.757  0.0058  0.4985  0.4002
  135OSM    H1S14644   6.456   6.305   6.785  1.0982  0.7570  1.6629
  135OSM    H1T14645   6.569   6.432   6.760  0.1039 -0.0952  2.0787
  135OSM     NF14646   6.396   6.335   6.529 -0.0090 -0.2412  0.8332
  135OSM    HNF14647   6.460   6.338   6.452 -1.0251  2.6956 -0.0527
  135OSM    C2S14648   6.399   6.447   6.620  0.6541 -0.1159  0.5471
  135OSM    H2S14649   6.293   6.464   6.648  0.3118 -0.5047 -0.4565
  135OSM    C3S14650   6.454   6.588   6.570 -0.0926  0.2668  0.0689
  135OSM    H3S14651   6.562   6.563   6.558 -0.2011  0.3810 -1.2331
  135OSM     O314652   6.447   6.694   6.669 -0.7068  0.6097 -0.3338
  135OSM    HO314653   6.425   6.649   6.750  2.6419  1.4193  1.1969
  135OSM    C4S14654   6.397   6.626   6.434 -0.3486 -0.5212 -0.6444
  135OSM    H4S14655   6.415   6.550   6.358  0.9677 -1.6164  0.7018
  135OSM    C5S14656   6.313   6.729   6.400  0.1781 -0.1560 -1.0757
  135OSM    H5S14657   6.283   6.799   6.481  2.0652  0.7574 -1.1073
  135OSM    C6S14658   6.255   6.742   6.256  0.7753 -0.2378 -0.6072
  135OSM    H6S14659   6.280   6.844   6.218 -1.5003  0.7220  0.2953
  135OSM    H6T14660   6.145   6.739   6.267  0.7252  0.5584 -0.8278
  135OSM    C7S14661   6.293   6.639   6.147 -0.2532 -0.1323 -0.2979
  135OSM    H7S14662   6.271   6.533   6.172  0.9520 -0.5733 -0.9851
  135OSM    H7T14663   6.403   6.651   6.132  0.2866 -1.8600  1.8114
  135OSM    C8S14664   6.228   6.666   6.008  0.0529  0.4723 -0.9208
  135OSM    H8S14665   6.230   6.776   5.988 -0.7039  0.4572 -1.1264
  135OSM    H8T14666   6.117   6.657   6.009 -0.0121  0.5189  2.6376
  135OSM    C9S14667   6.295   6.587   5.894  0.4774 -0.2718 -0.9118
  135OSM    H9S14668   6.271   6.479   5.894 -0.9101 -0.0322 -3.0975
  135OSM    H9T14669   6.405   6.588   5.906  0.3253 -0.4840  0.6719
  135OSM   C10S14670   6.239   6.635   5.763  0.5815 -0.3286 -0.2665
  135OSM   H10S14671   6.245   6.745   5.751 -1.2747 -0.2963 -1.2550
  135OSM   H10T14672   6.132   6.608   5.768  0.1265  1.4163 -0.1016
  135OSM   C11S14673   6.289   6.568   5.635  0.7084 -0.2351  0.9385
  135OSM   H11S14674   6.246   6.469   5.607  1.9903  0.0938 -2.7429
  135OSM   H11T14675   6.397   6.547   5.644  0.9136 -0.3910 -1.3528
  135OSM   C12S14676   6.261   6.660   5.511 -0.0125  0.0262 -0.4807
  135OSM   H12S14677   6.320   6.754   5.517  0.0298 -0.0266 -0.0583
  135OSM   H12T14678   6.151   6.671   5.509 -0.2920 -1.9892  0.9534
  135OSM   C13S14679   6.330   6.602   5.385 -0.1451 -0.1073 -1.0392
  135OSM   H13S14680   6.305   6.496   5.363 -0.6299  0.1094 -1.5573
  135OSM   H13T14681   6.440   6.609   5.398 -0.3187 -1.2277  1.7713
  135OSM   C14S14682   6.288   6.676   5.255 -0.1426  0.0610 -0.1058
  135OSM   H14S14683   6.354   6.766   5.248  0.0950 -0.2207 -2.1306
  135OSM   H14T14684   6.180   6.699   5.263 -0.1932 -0.3133  0.2965
  135OSM   C15S14685   6.312   6.592   5.128  0.0223 -0.1354 -0.6281
  135OSM   H15S14686   6.256   6.496   5.123  2.2801 -1.6689  1.2942
  135OSM   H15T14687   6.422   6.578   5.114  0.5988  0.0487  2.7872
  135OSM   C16S14688   6.268   6.675   5.009  0.4259 -0.1939  0.8520
  135OSM   H16S14689   6.298   6.781   5.009 -1.4829  0.3925  1.8566
  135OSM   H16T14690   6.157   6.674   5.017  0.3227 -1.3987 -0.2928
  135OSM   C17S14691   6.293   6.615   4.869 -0.0299 -0.1351  0.6360
  135OSM   H17S14692   6.252   6.512   4.875 -1.6598  0.5026  0.7854
  135OSM   H17T14693   6.401   6.596   4.847  0.7451  2.2065  2.0933
  135OSM   C18S14694   6.226   6.679   4.746 -0.0453 -0.4904 -0.3921
  135OSM   H18S14695   6.117   6.695   4.766  0.0775 -1.0879  0.8532
  135OSM   H18T14696   6.241   6.619   4.654  1.2017  0.3125 -0.7409
  135OSM   H18U14697   6.272   6.778   4.726 -0.4388 -0.0889  0.5932
  135OSM    C1F14698   6.355   6.214   6.554 -0.1080  0.2796 -0.5644
  135OSM     OF14699   6.279   6.195   6.643 -0.0068  0.1545 -0.0588
  135OSM    C2F14700   6.401   6.100   6.464 -0.6918 -0.1989  0.3312
  135OSM    H2F14701   6.447   6.020   6.526 -1.0794 -1.5585 -1.0676
  135OSM    H2G14702   6.483   6.122   6.393  0.4055 -3.3433  0.4593
  135OSM    C3F14703   6.283   6.041   6.382 -0.1530 -0.5769 -0.1507
  135OSM    H3F14704   6.197   6.018   6.449 -1.2183  2.8521 -0.1332
  135OSM    H3G14705   6.325   5.948   6.338  1.6034 -0.6767  1.5750
  135OSM    C4F14706   6.242   6.139   6.275 -0.8228 -0.2064  0.0925
  135OSM    H4F14707   6.145   6.183   6.306 -0.7223 -0.4247  0.7213
  135OSM    H4G14708   6.310   6.225   6.258 -2.0686  0.5994 -1.0400
  135OSM    C5F14709   6.235   6.076   6.128  0.0857 -0.4686 -0.9661
  135OSM    H5F14710   6.174   5.983   6.132 -1.1434  0.3623  0.5363
  135OSM    H5G14711   6.339   6.059   6.092  0.0619 -2.4210 -0.1880
  135OSM    C6F14712   6.153   6.158   6.026  0.2919  0.4503  0.7834
  135OSM    H6F14713   6.207   6.255   6.017  1.9622 -0.4742  0.4011
  135OSM    H6G14714   6.050   6.180   6.060 -0.5061  1.8418 -2.2179
  135OSM    C7F14715   6.157   6.098   5.884  0.4174  0.1990  0.5139
  135OSM    H7F14716   6.092   6.009   5.896 -0.4770  0.4761 -1.7974
  135OSM    H7G14717   6.258   6.062   5.858  0.0665 -0.9122  0.6611
  135OSM    C8F14718   6.098   6.188   5.775 -0.1618  0.5277  0.0715
  135OSM    H8F14719   6.160   6.280   5.767 -1.8641  1.6844 -0.3176
  135OSM    H8G14720   6.003   6.236   5.805  1.0284  4.6214 -1.9025
  135OSM    C9F14721   6.078   6.101   5.656  0.5358 -1.3686 -0.3913
  135OSM    H9F14722   6.002   6.022   5.668  0.0412 -0.8103  0.2180
  135OSM   C10F14723   6.130   6.116   5.539  0.5090 -0.3197 -0.0100
  135OSM   H10F14724   6.080   6.056   5.462  0.9656 -1.7069  0.7498
  135OSM   C11F14725   6.233   6.211   5.485 -0.1918 -0.0139 -0.2534
  135OSM   H11F14726   6.311   6.231   5.562  0.2507 -0.0615 -0.6829
  135OSM   H11G14727   6.194   6.309   5.453  0.2087  0.1947 -0.1142
  135OSM   C12F14728   6.320   6.153   5.369 -0.6318 -0.2988  0.2829
  135OSM   H12F14729   6.349   6.047   5.385 -3.3851 -1.2819 -0.7475
  135OSM   H12G14730   6.408   6.221   5.371 -0.5241 -0.3681 -1.1154
  135OSM   C13F14731   6.253   6.154   5.238  0.9269  0.1468 -0.1437
  135OSM   H13F14732   6.206   6.253   5.220 -2.0126 -1.5066 -2.4334
  135OSM   H13G14733   6.172   6.078   5.240  0.1272  0.9755  0.3785
  135OSM   C14F14734   6.344   6.153   5.116 -0.8030  0.1685 -0.1420
  135OSM   H14F14735   6.424   6.077   5.129 -0.4583  0.8883  2.6114
  135OSM   H14G14736   6.394   6.252   5.120 -3.6503  1.7227 -0.2173
  135OSM   C15F14737   6.267   6.130   4.990  0.4003  0.3906 -0.5966
  135OSM   H15F14738   6.171   6.184   5.003 -1.2306 -1.2120 -4.3288
  135OSM   H15G14739   6.262   6.022   4.965  0.4433  0.0185  0.8928
  135OSM   C16F14740   6.346   6.201   4.881  0.2665  0.0563  0.8194
  135OSM   H16F14741   6.451   6.164   4.883  0.6531  0.7225 -2.1808
  135OSM   H16G14742   6.364   6.308   4.906 -0.7736  0.5135 -0.2953
  135OSM   C17F14743   6.298   6.188   4.733 -0.7376 -0.1278  0.3638
  135OSM   H17F14744   6.209   6.254   4.719  0.5541  2.2262  2.4489
  135OSM   H17G14745   6.280   6.082   4.703  2.4802 -0.4504 -0.7841
  135OSM   C18F14746   6.408   6.237   4.635  0.2065 -0.0400  0.6843
  135OSM   H18F14747   6.506   6.186   4.641  0.1474 -0.1825  0.4678
  135OSM   H18G14748   6.407   6.348   4.648 -0.8852 -0.2555  2.9183
  135OSM   H18H14749   6.383   6.226   4.527  1.5037  1.6950  0.1634
  136OSM      N14750   2.717   0.791   7.394 -0.7358  0.5251  0.5554
  136OSM    C1514751   2.816   0.782   7.506 -0.0373 -0.8388 -0.2471
  136OSM   H15A14752   2.870   0.874   7.520 -0.8642 -0.1071 -1.6346
  136OSM   H15B14753   2.896   0.713   7.485 -0.6034 -2.3034  1.9873
  136OSM   H15C14754   2.769   0.769   7.603 -0.3300 -0.4861 -0.3396
  136OSM    C1414755   2.637   0.659   7.395  0.0087  0.4703  0.1076
  136OSM   H14A14756   2.592   0.648   7.493  1.3877  2.0742  0.9764
  136OSM   H14B14757   2.707   0.578   7.384 -0.2657  0.3515 -0.8534
  136OSM   H14C14758   2.552   0.662   7.329 -0.2922 -1.3198  0.3618
  136OSM    C1314759   2.628   0.903   7.433 -0.8463  0.1685  0.6235
  136OSM   H13A14760   2.569   0.928   7.346  0.6246  1.6066 -0.0262
  136OSM   H13B14761   2.690   0.989   7.453  1.8058 -1.7228  1.0294
  136OSM   H13C14762   2.574   0.884   7.524  0.0528 -0.1119  1.1074
  136OSM    C1214763   2.787   0.814   7.261 -0.6120  0.3661  0.4287
  136OSM   H12A14764   2.857   0.895   7.275 -1.0971  1.0438 -0.8881
  136OSM   H12B14765   2.718   0.849   7.186  1.2200  0.1493 -1.4662
  136OSM    C1114766   2.848   0.689   7.188  0.4396 -1.1439 -0.1722
  136OSM   H11A14767   2.883   0.732   7.091 -1.5098 -0.6711 -0.7040
  136OSM   H11B14768   2.766   0.622   7.155  0.5458 -1.3823  0.0457
  136OSM      P14769   3.062   0.530   7.183  0.4220 -0.3315  0.1744
  136OSM    O1314770   3.152   0.477   7.289  0.1173 -0.1833  0.1993
  136OSM    O1414771   3.006   0.428   7.087 -0.4847  0.0760 -0.6545
  136OSM    O1114772   3.142   0.637   7.095 -1.0077  0.1267 -0.4589
  136OSM    O1214773   2.957   0.630   7.254 -0.0610 -0.4407  0.0379
  136OSM    C1S14774   3.261   0.621   7.031  0.3535 -0.5086  0.1680
  136OSM    H1S14775   3.308   0.526   7.063  1.7920  0.0153 -0.2841
  136OSM    H1T14776   3.333   0.701   7.061 -2.0857  1.3466  1.4132
  136OSM     NF14777   3.365   0.593   6.806 -0.0304 -0.0530  0.2219
  136OSM    HNF14778   3.413   0.669   6.764  0.0551 -1.0880 -1.6491
  136OSM    C2S14779   3.243   0.621   6.873 -0.0528  0.1908 -0.2042
  136OSM    H2S14780   3.164   0.545   6.854  0.3860 -0.2236 -0.3883
  136OSM    C3S14781   3.177   0.756   6.830 -0.0098  0.0816 -0.3900
  136OSM    H3S14782   3.247   0.840   6.852 -1.2475  1.4941 -1.6249
  136OSM     O314783   3.054   0.786   6.904 -0.5656  0.1317  0.0010
  136OSM    HO314784   3.077   0.745   6.988  1.6549 -2.1221 -1.5347
  136OSM    C4S14785   3.155   0.745   6.684 -0.1019 -0.0764 -0.4551
  136OSM    H4S14786   3.068   0.686   6.652 -1.0370  1.4730 -0.9070
  136OSM    C5S14787   3.227   0.815   6.591  0.4657  0.3897  0.3115
  136OSM    H5S14788   3.306   0.887   6.618  0.8993  0.3870 -0.8948
  136OSM    C6S14789   3.187   0.810   6.448  0.2839  0.4473 -0.4493
  136OSM    H6S14790   3.208   0.906   6.396  4.3599 -1.1529 -2.2036
  136OSM    H6T14791   3.078   0.788   6.437 -0.0898 -0.2413  3.2552
  136OSM    C7S14792   3.263   0.718   6.360 -0.4035  0.1871  0.4311
  136OSM    H7S14793   3.254   0.620   6.411  0.0002  0.3423  0.8105
  136OSM    H7T14794   3.370   0.747   6.358 -0.1641 -0.7212 -0.3603
  136OSM    C8S14795   3.210   0.710   6.215 -0.4176 -0.9012  0.7871
  136OSM    H8S14796   3.173   0.811   6.189  1.5556  0.8099  3.9198
  136OSM    H8T14797   3.109   0.666   6.208 -0.8068  0.1543 -0.5949
  136OSM    C9S14798   3.307   0.641   6.124 -0.0640 -0.2742  0.5673
  136OSM    H9S14799   3.335   0.539   6.157 -1.1277 -0.5479  0.6754
  136OSM    H9T14800   3.397   0.705   6.120 -0.6366  0.5089 -0.1206
  136OSM   C10S14801   3.253   0.631   5.981 -0.3978 -0.0783 -0.2241
  136OSM   H10S14802   3.156   0.577   5.984  0.2409 -1.3206 -0.9836
  136OSM   H10T14803   3.319   0.556   5.933  0.1659 -0.8038  1.5642
  136OSM   C11S14804   3.258   0.770   5.919  0.1968  0.5279 -0.0405
  136OSM   H11S14805   3.349   0.830   5.940  0.0552  0.4115  0.9722
  136OSM   H11T14806   3.170   0.826   5.956 -1.9035 -2.2922 -0.4740
  136OSM   C12S14807   3.241   0.753   5.770  0.0651  0.1254 -0.6654
  136OSM   H12S14808   3.172   0.668   5.751  0.2915 -0.2686  0.2251
  136OSM   H12T14809   3.338   0.721   5.726 -0.6014 -1.5635 -0.9819
  136OSM   C13S14810   3.173   0.870   5.702  0.8148  0.1757  0.1801
  136OSM   H13S14811   3.244   0.955   5.715  1.5271 -0.2673 -0.6852
  136OSM   H13T14812   3.078   0.900   5.752 -1.1336  0.5285 -3.4163
  136OSM   C14S14813   3.138   0.840   5.553 -0.1273  0.1398 -0.4147
  136OSM   H14S14814   3.085   0.925   5.505  0.0905 -0.4581 -1.7583
  136OSM   H14T14815   3.066   0.755   5.547  1.1890 -0.9328 -2.8624
  136OSM   C15S14816   3.264   0.819   5.475  0.3441 -0.7251  0.2162
  136OSM   H15S14817   3.326   0.735   5.513 -2.2729 -2.5902  0.6330
  136OSM   H15T14818   3.318   0.916   5.476 -0.8071 -0.0607  1.2451
  136OSM   C16S14819   3.220   0.776   5.330 -0.1861 -0.6725 -0.5201
  136OSM   H16S14820   3.136   0.848   5.319 -0.8487 -1.2423  0.6794
  136OSM   H16T14821   3.192   0.669   5.334  1.2160 -1.0761  3.5322
  136OSM   C17S14822   3.332   0.794   5.235  0.4216 -0.4703 -0.2976
  136OSM   H17S14823   3.415   0.727   5.265  0.4386 -0.5527 -0.5204
  136OSM   H17T14824   3.369   0.897   5.249 -0.6280 -0.2985  1.4862
  136OSM   C18S14825   3.289   0.784   5.093  0.1425  0.2359 -0.5580
  136OSM   H18S14826   3.227   0.870   5.061  1.1649  0.7639 -1.1694
  136OSM   H18T14827   3.236   0.689   5.068  0.9177  0.1370 -1.9611
  136OSM   H18U14828   3.382   0.782   5.033 -0.3492 -0.4425 -1.3394
  136OSM    C1F14829   3.422   0.468   6.809  0.4025 -0.6129  0.2116
  136OSM     OF14830   3.389   0.381   6.884 -0.2347 -0.1199  0.4106
  136OSM    C2F14831   3.533   0.444   6.711 -0.4007  0.2052 -0.0518
  136OSM    H2F14832   3.631   0.453   6.762  0.6777 -1.0891 -1.7524
  136OSM    H2G14833   3.528   0.528   6.638 -1.2025  1.2257  1.1434
  136OSM    C3F14834   3.518   0.301   6.648 -0.5935  0.3544  0.0002
  136OSM    H3F14835   3.411   0.275   6.630 -0.6587  0.5663  0.0881
  136OSM    H3G14836   3.553   0.228   6.724  0.0333  1.1103  0.4486
  136OSM    C4F14837   3.615   0.294   6.527 -0.9515 -0.1223 -0.3732
  136OSM    H4F14838   3.656   0.191   6.529 -1.0929 -0.2201 -1.5993
  136OSM    H4G14839   3.704   0.359   6.531 -0.2915 -0.9442 -1.2397
  136OSM    C5F14840   3.549   0.306   6.384  0.5664 -0.3154  0.3471
  136OSM    H5F14841   3.489   0.397   6.366 -0.4162 -1.0093  0.0089
  136OSM    H5G14842   3.481   0.219   6.365  1.9900 -1.1867 -1.0714
  136OSM    C6F14843   3.650   0.313   6.264 -0.0246  0.0072  0.0267
  136OSM    H6F14844   3.724   0.392   6.289  0.7194 -0.6211 -0.1616
  136OSM    H6G14845   3.586   0.350   6.181  0.3132 -1.2109 -0.7953
  136OSM    C7F14846   3.725   0.178   6.264  0.0154 -0.2036 -0.1101
  136OSM    H7F14847   3.654   0.093   6.266  1.1766 -1.1738  1.3965
  136OSM    H7G14848   3.791   0.167   6.352 -0.3075  0.0768  0.1739
  136OSM    C8F14849   3.809   0.162   6.142 -0.2194 -0.4031  0.1709
  136OSM    H8F14850   3.850   0.262   6.116 -2.4194  0.0823 -1.8050
  136OSM    H8G14851   3.746   0.146   6.052  0.1570  1.3174 -0.4277
  136OSM    C9F14852   3.924   0.071   6.151 -0.0010  0.2699  0.6221
  136OSM    H9F14853   3.899  -0.008   6.224 -0.2764  0.5436  0.8251
  136OSM   C10F14854   4.036   0.056   6.078  0.1109 -0.1084  0.4450
  136OSM   H10F14855   4.103  -0.017   6.126  0.3644  1.3509  2.4528
  136OSM   C11F14856   4.091   0.137   5.957  0.0353 -0.1841  0.2853
  136OSM   H11F14857   4.197   0.169   5.951  0.1909 -0.5126  1.1196
  136OSM   H11G14858   4.024   0.226   5.958 -0.0351 -0.2173 -0.6807
  136OSM   C12F14859   4.056   0.068   5.830 -0.1403 -0.2984 -0.3398
  136OSM   H12F14860   3.949   0.037   5.829 -0.5718  0.6872  2.9899
  136OSM   H12G14861   4.119  -0.023   5.833  1.5985  0.8293  3.1615
  136OSM   C13F14862   4.098   0.145   5.708  0.2333 -0.7780 -0.2218
  136OSM   H13F14863   4.201   0.182   5.726 -0.2306  0.4390  0.0438
  136OSM   H13G14864   4.026   0.230   5.709  0.8705 -0.1873  2.4480
  136OSM   C14F14865   4.093   0.058   5.583 -0.4583 -0.1471 -0.1242
  136OSM   H14F14866   3.996   0.003   5.588 -0.3153 -0.3907  0.0033
  136OSM   H14G14867   4.173  -0.019   5.577 -0.0808  0.2853 -0.7307
  136OSM   C15F14868   4.090   0.145   5.464 -0.0081  0.3342  0.9671
  136OSM   H15F14869   4.179   0.209   5.444 -0.9586  2.0686  2.0788
  136OSM   H15G14870   4.007   0.218   5.470 -0.0394  0.2418  1.8007
  136OSM   C16F14871   4.068   0.068   5.328  0.7865 -0.7283  0.2992
  136OSM   H16F14872   3.991  -0.012   5.333  0.2176 -0.3101 -1.2743
  136OSM   H16G14873   4.162   0.016   5.301  1.4035  0.9411 -0.9184
  136OSM   C17F14874   4.031   0.168   5.213 -0.2322  0.1558 -0.3634
  136OSM   H17F14875   4.107   0.248   5.198  0.0301 -0.3904 -2.1498
  136OSM   H17G14876   3.935   0.216   5.241 -0.0769 -0.4404  1.3393
  136OSM   C18F14877   4.013   0.103   5.075 -0.5196  0.4949 -0.4357
  136OSM   H18F14878   3.963   0.004   5.079 -2.1219  1.2682 -0.4749
  136OSM   H18G14879   4.117   0.107   5.036 -0.1333  0.1038  0.5290
  136OSM   H18H14880   3.953   0.167   5.006  0.3919 -0.5198 -2.2496
  137OSM      N14881   4.768   6.119   7.327  0.0578  0.3310 -0.0940
  137OSM    C1514882   4.660   6.206   7.389  0.3406  0.4685 -0.4992
  137OSM   H15A14883   4.619   6.146   7.470  1.2318  0.0885 -0.3134
  137OSM   H15B14884   4.583   6.234   7.320 -2.2848 -1.1608  1.5491
  137OSM   H15C14885   4.708   6.294   7.430  1.4464 -0.0471 -0.6390
  137OSM    C1414886   4.890   6.201   7.305  0.6446  0.2166  0.1204
  137OSM   H14A14887   4.946   6.227   7.394  3.6916  1.0697 -1.8793
  137OSM   H14B14888   4.866   6.294   7.256 -0.4215 -1.2352 -2.3100
  137OSM   H14C14889   4.954   6.147   7.236  0.0527  0.7136 -0.8336
  137OSM    C1314890   4.810   6.006   7.414  0.0204 -0.0107 -0.1275
  137OSM   H13A14891   4.737   5.928   7.404 -0.1731  0.1264  0.2015
  137OSM   H13B14892   4.817   6.037   7.517 -0.4995 -1.8732  0.4970
  137OSM   H13C14893   4.907   5.967   7.387 -0.1860 -1.2008  0.7623
  137OSM    C1214894   4.717   6.073   7.189 -0.2624 -0.2936 -0.7212
  137OSM   H12A14895   4.648   5.993   7.209 -0.8810  0.4028 -0.0080
  137OSM   H12B14896   4.801   6.028   7.138  0.5192  1.9732 -1.5500
  137OSM    C1114897   4.663   6.186   7.095 -0.5158  0.1016 -0.1780
  137OSM   H11A14898   4.592   6.254   7.146  1.3650  2.0140  0.0387
  137OSM   H11B14899   4.596   6.130   7.026 -1.6423 -0.2213  1.1412
  137OSM      P14900   4.846   6.212   6.912  0.2926  0.5019  0.2057
  137OSM    O1314901   4.952   6.308   6.867 -0.3337  0.8003 -0.3091
  137OSM    O1414902   4.892   6.075   6.940 -0.0014 -0.3175  0.3505
  137OSM    O1114903   4.730   6.206   6.807  0.1210 -0.0045  0.7975
  137OSM    O1214904   4.773   6.260   7.043  0.3198 -0.3351  0.6482
  137OSM    C1S14905   4.630   6.297   6.764  0.3184  0.0528  0.5201
  137OSM    H1S14906   4.611   6.367   6.848  1.3501 -0.3416  1.1053
  137OSM    H1T14907   4.542   6.242   6.726  1.6326 -0.6453 -1.7537
  137OSM     NF14908   4.592   6.500   6.619 -0.3485 -0.2859 -0.7085
  137OSM    HNF14909   4.523   6.499   6.548  0.9431 -1.1173 -2.0186
  137OSM    C2S14910   4.666   6.375   6.638 -0.2493  0.0738 -0.8545
  137OSM    H2S14911   4.772   6.397   6.662 -0.3324 -2.1025  2.0930
  137OSM    C3S14912   4.659   6.284   6.511 -0.3523  0.3986 -0.0572
  137OSM    H3S14913   4.550   6.273   6.491 -0.8303  1.4590  1.7122
  137OSM     O314914   4.706   6.151   6.520 -0.2490  0.0284 -0.8702
  137OSM    HO314915   4.727   6.140   6.613  1.4869  0.4730 -1.1834
  137OSM    C4S14916   4.716   6.372   6.403 -0.5178  0.1316 -0.2057
  137OSM    H4S14917   4.636   6.426   6.351 -0.7365 -0.1907 -0.1997
  137OSM    C5S14918   4.845   6.379   6.354 -0.3353  0.3280 -0.9223
  137OSM    H5S14919   4.918   6.320   6.413 -0.6685 -0.0422 -0.8745
  137OSM    C6S14920   4.901   6.449   6.231 -0.7777  0.2598 -0.4609
  137OSM    H6S14921   4.982   6.384   6.191  0.4342 -0.3179  2.6455
  137OSM    H6T14922   4.965   6.534   6.262 -0.6498 -0.7246  2.2906
  137OSM    C7S14923   4.809   6.501   6.111  0.6753 -0.3028 -0.8401
  137OSM    H7S14924   4.759   6.596   6.140 -1.2851 -1.5358 -0.0361
  137OSM    H7T14925   4.725   6.428   6.118  1.4374 -1.1095  0.4190
  137OSM    C8S14926   4.878   6.502   5.981 -0.8948 -0.6929  0.2715
  137OSM    H8S14927   4.928   6.404   5.965 -0.6433 -0.2313 -2.1877
  137OSM    H8T14928   4.963   6.574   5.970 -1.3247  0.0102  1.3881
  137OSM    C9S14929   4.788   6.512   5.866  0.0461 -0.5471  0.2049
  137OSM    H9S14930   4.735   6.609   5.873  2.1501  0.6970 -0.2032
  137OSM    H9T14931   4.712   6.432   5.853 -2.0197  1.3475  0.0777
  137OSM   C10S14932   4.863   6.509   5.732  0.5452  0.4347 -0.1165
  137OSM   H10S14933   4.918   6.413   5.722 -1.3622 -0.9193  1.6004
  137OSM   H10T14934   4.934   6.591   5.708  0.2978  0.3028 -1.3897
  137OSM   C11S14935   4.767   6.498   5.613  0.0662 -0.9796 -0.3141
  137OSM   H11S14936   4.702   6.586   5.598  0.2240 -0.8614 -0.3055
  137OSM   H11T14937   4.702   6.408   5.620  0.4653 -1.2033  0.6031
  137OSM   C12S14938   4.841   6.493   5.473 -0.1702  0.7668 -0.1910
  137OSM   H12S14939   4.899   6.399   5.467 -0.7041  0.4370 -0.2988
  137OSM   H12T14940   4.919   6.571   5.484  1.1144 -0.2323 -1.7316
  137OSM   C13S14941   4.742   6.508   5.361 -0.2844 -0.3995  0.4506
  137OSM   H13S14942   4.744   6.612   5.320 -0.6554  0.2463  1.9852
  137OSM   H13T14943   4.639   6.501   5.401  0.2376 -0.2779  1.8707
  137OSM   C14S14944   4.757   6.405   5.253 -0.4718 -0.2693  0.3350
  137OSM   H14S14945   4.709   6.307   5.272 -2.8141  1.1707  2.5525
  137OSM   H14T14946   4.865   6.395   5.227 -0.9827  1.7321 -3.3994
  137OSM   C15S14947   4.691   6.461   5.126  0.2351 -0.4666  0.5345
  137OSM   H15S14948   4.729   6.561   5.096 -0.6804 -0.7506 -1.7140
  137OSM   H15T14949   4.581   6.468   5.136  0.0528  0.5000 -1.7500
  137OSM   C16S14950   4.722   6.365   5.007 -0.2480  0.2406 -0.3826
  137OSM   H16S14951   4.689   6.267   5.047 -0.4710  0.6492  0.4652
  137OSM   H16T14952   4.832   6.368   4.997 -0.4027  0.0136 -2.6637
  137OSM   C17S14953   4.654   6.397   4.870  0.2310  0.6778 -0.2816
  137OSM   H17S14954   4.679   6.312   4.802 -1.1567 -0.2580  0.3270
  137OSM   H17T14955   4.691   6.497   4.841  1.1329  0.1147 -1.1239
  137OSM   C18S14956   4.498   6.417   4.887  0.5573 -0.3618 -0.0396
  137OSM   H18S14957   4.466   6.511   4.936  1.6671 -0.5383  1.0723
  137OSM   H18T14958   4.453   6.333   4.943 -1.4748  0.3640 -0.4960
  137OSM   H18U14959   4.463   6.419   4.781  2.8523  2.9993 -0.8965
  137OSM    C1F14960   4.618   6.612   6.686  0.5449  1.1285  0.6915
  137OSM     OF14961   4.684   6.615   6.791 -0.4821 -0.2461 -0.2675
  137OSM    C2F14962   4.563   6.738   6.623  0.3133  0.2115 -0.5598
  137OSM    H2F14963   4.485   6.780   6.691 -0.8070 -2.7626  0.1500
  137OSM    H2G14964   4.498   6.710   6.537 -1.4769 -0.6557  0.9978
  137OSM    C3F14965   4.667   6.831   6.577 -0.2718  0.0590 -0.3472
  137OSM    H3F14966   4.728   6.862   6.665 -0.6991  1.0639 -0.3837
  137OSM    H3G14967   4.621   6.923   6.534  0.5236 -0.1274 -1.6636
  137OSM    C4F14968   4.753   6.773   6.459  0.2216 -0.1772 -0.2457
  137OSM    H4F14969   4.676   6.752   6.382  0.6396  0.4147 -0.8410
  137OSM    H4G14970   4.809   6.682   6.488  0.0395 -0.5571 -1.0786
  137OSM    C5F14971   4.868   6.869   6.420 -0.3008 -0.0380 -0.4262
  137OSM    H5F14972   4.965   6.859   6.474 -0.0290 -0.1919 -0.9330
  137OSM    H5G14973   4.840   6.975   6.440  0.1862  0.8454 -3.6820
  137OSM    C6F14974   4.883   6.860   6.264  0.2972 -0.3685 -0.0035
  137OSM    H6F14975   4.787   6.882   6.213  0.1998 -0.9883 -0.0928
  137OSM    H6G14976   4.891   6.754   6.232  2.7489 -0.1224 -0.4093
  137OSM    C7F14977   5.010   6.930   6.208 -0.0285 -0.1453  0.1923
  137OSM    H7F14978   5.081   6.942   6.293  2.0018 -2.2494 -1.1030
  137OSM    H7G14979   4.985   7.034   6.179  0.5536  0.8837  2.9831
  137OSM    C8F14980   5.075   6.844   6.091 -0.0872  0.4482 -0.3459
  137OSM    H8F14981   4.999   6.821   6.013  0.4959 -3.0157 -0.0915
  137OSM    H8G14982   5.112   6.749   6.135  0.5811  0.3787 -1.0382
  137OSM    C9F14983   5.188   6.917   6.028 -0.0663  0.8057 -0.1141
  137OSM    H9F14984   5.277   6.934   6.091  1.7671 -0.0858 -2.3209
  137OSM   C10F14985   5.186   6.994   5.917  0.4331 -0.0450 -0.2701
  137OSM   H10F14986   5.280   7.046   5.894  1.4670 -0.4433  2.6508
  137OSM   C11F14987   5.069   7.003   5.820  0.0815 -0.2710 -0.7360
  137OSM   H11F14988   5.033   7.108   5.823 -0.6837 -0.5299 -0.7306
  137OSM   H11G14989   4.979   6.949   5.856 -0.6789  0.8077 -0.9701
  137OSM   C12F14990   5.105   6.971   5.675 -0.0453  0.3790 -0.4341
  137OSM   H12F14991   5.180   6.889   5.677 -3.2837 -2.8317  0.5141
  137OSM   H12G14992   5.146   7.065   5.632 -0.3313  1.7534  2.1087
  137OSM   C13F14993   4.988   6.930   5.585  0.2049 -0.2255  1.3534
  137OSM   H13F14994   4.893   6.984   5.607  0.5037  0.4597  0.9875
  137OSM   H13G14995   4.975   6.820   5.596  0.8505 -0.4300  0.2295
  137OSM   C14F14996   5.020   6.964   5.435  0.0983 -0.0825  0.2054
  137OSM   H14F14997   5.123   6.930   5.409 -0.3758 -0.0080 -1.9011
  137OSM   H14G14998   5.010   7.072   5.411  1.3913 -0.5519 -2.8682
  137OSM   C15F14999   4.934   6.885   5.329 -0.0027  0.6794 -0.1058
  137OSM   H15F15000   4.828   6.916   5.344  0.3533  3.5701 -2.6176
  137OSM   H15G15001   4.954   6.780   5.360  0.5383  0.4357 -1.2334
  137OSM   C16F15002   4.982   6.910   5.185 -0.5201  0.1227 -0.1509
  137OSM   H16F15003   5.085   6.868   5.177 -0.4571 -0.0721  1.3568
  137OSM   H16G15004   4.976   7.014   5.149 -0.6584  0.2588  0.2656
  137OSM   C17F15005   4.889   6.834   5.082  0.1370 -0.2410 -0.8123
  137OSM   H17F15006   4.792   6.888   5.074 -0.8029 -0.8591  3.7669
  137OSM   H17G15007   4.880   6.727   5.111 -2.7604 -0.0208 -0.5667
  137OSM   C18F15008   4.953   6.823   4.941  0.6756 -0.2720  0.7535
  137OSM   H18F15009   4.973   6.926   4.907 -0.9030 -0.4562 -0.8624
  137OSM   H18G15010   4.885   6.784   4.863 -0.5645 -0.2136  1.7777
  137OSM   H18H15011   5.047   6.762   4.934  1.8032  1.3258  1.3889
  138OSM      N15012   0.840   5.062   6.911  0.0828 -0.7890 -0.4290
  138OSM    C1515013   0.914   5.095   7.042 -0.1816 -0.2239  0.3133
  138OSM   H15A15014   0.909   5.018   7.118 -0.4406  0.4938  1.0347
  138OSM   H15B15015   0.893   5.189   7.090  0.9985 -0.7038  1.8625
  138OSM   H15C15016   1.018   5.092   7.015 -0.7706 -0.7595 -2.1299
  138OSM    C1415017   0.899   4.931   6.849  0.9916 -0.4304 -0.7508
  138OSM   H14A15018   0.835   4.914   6.763 -0.3224  0.2209  0.0598
  138OSM   H14B15019   0.894   4.851   6.921 -0.3825  1.4779  1.4029
  138OSM   H14C15020   1.003   4.948   6.827  1.2648 -0.2314  0.5951
  138OSM    C1315021   0.693   5.033   6.939 -0.0450 -0.1294 -0.3882
  138OSM   H13A15022   0.680   4.970   7.026 -0.6941  2.8419  1.8384
  138OSM   H13B15023   0.646   4.992   6.852  1.1251  1.4355 -1.8351
  138OSM   H13C15024   0.635   5.122   6.962  0.8162  0.9550 -2.1579
  138OSM    C1215025   0.859   5.174   6.818 -0.4664  0.2608 -0.6201
  138OSM   H12A15026   0.825   5.138   6.722  3.4500  1.7007 -2.7871
  138OSM   H12B15027   0.965   5.195   6.814 -0.4115  0.3779  0.8007
  138OSM    C1115028   0.788   5.310   6.842  0.2886  0.3774 -0.5094
  138OSM   H11A15029   0.678   5.293   6.851  0.2962 -0.2492 -1.5092
  138OSM   H11B15030   0.798   5.387   6.763  0.2028  0.1214 -0.7693
  138OSM      P15031   0.983   5.418   6.985  0.2497  0.0235  0.3139
  138OSM    O1315032   0.971   5.561   6.962  0.1316 -0.3296  0.2564
  138OSM    O1415033   1.037   5.365   7.116 -0.2234 -0.1706  0.1993
  138OSM    O1115034   1.071   5.353   6.874  0.2013 -0.2905 -0.1848
  138OSM    O1215035   0.833   5.358   6.969 -0.0515 -0.2004 -0.4498
  138OSM    C1S15036   1.091   5.403   6.741  0.6137 -0.1184  0.0374
  138OSM    H1S15037   1.131   5.506   6.746  1.6728 -0.4547 -1.2146
  138OSM    H1T15038   0.995   5.424   6.689  0.7738  1.5927  0.3716
  138OSM     NF15039   1.148   5.365   6.506  0.2129 -0.4604  0.2587
  138OSM    HNF15040   1.092   5.308   6.448 -0.2760 -0.4066  0.6693
  138OSM    C2S15041   1.170   5.318   6.639  0.1376  0.2003 -1.3411
  138OSM    H2S15042   1.275   5.337   6.670 -0.2494 -2.1836  1.9890
  138OSM    C3S15043   1.146   5.161   6.658  0.0368  0.2348  0.0419
  138OSM    H3S15044   1.047   5.134   6.616  0.7709 -2.3203 -0.2097
  138OSM     O315045   1.155   5.125   6.795  0.0395 -0.2916 -0.6569
  138OSM    HO315046   1.158   5.212   6.835  0.9748 -0.7519  0.3452
  138OSM    C4S15047   1.258   5.087   6.581 -0.3518 -0.3537 -0.7261
  138OSM    H4S15048   1.356   5.131   6.603 -0.8239 -0.3795  1.6500
  138OSM    C5S15049   1.246   4.975   6.512  0.5169  0.5285  0.0270
  138OSM    H5S15050   1.143   4.934   6.510  0.4158  0.6908  1.1341
  138OSM    C6S15051   1.340   4.902   6.421  0.4159  0.0934 -0.5784
  138OSM    H6S15052   1.298   4.836   6.342  3.7135 -1.3255 -1.3192
  138OSM    H6T15053   1.384   4.820   6.481 -1.7520  0.5396  1.7741
  138OSM    C7S15054   1.455   4.994   6.368  0.3462 -0.5719 -0.1208
  138OSM    H7S15055   1.533   4.929   6.324  0.9290  0.1257 -0.1327
  138OSM    H7T15056   1.501   5.041   6.458  1.0259 -3.0888  0.9349
  138OSM    C8S15057   1.411   5.108   6.262  0.2169  0.2657  0.3578
  138OSM    H8S15058   1.489   5.186   6.269 -0.4663  0.9373  0.5819
  138OSM    H8T15059   1.313   5.151   6.289  0.6031  1.5803 -0.2877
  138OSM    C9S15060   1.399   5.044   6.120 -0.4287 -0.3049  0.2234
  138OSM    H9S15061   1.322   4.964   6.128 -0.9925  0.4030  2.5641
  138OSM    H9T15062   1.497   5.002   6.087 -0.0959 -0.3839  1.2538
  138OSM   C10S15063   1.357   5.146   6.009 -0.0505  0.6109  0.5700
  138OSM   H10S15064   1.440   5.218   5.995  1.1266 -0.8422 -0.2628
  138OSM   H10T15065   1.270   5.208   6.039 -0.9726  1.2656 -2.9452
  138OSM   C11S15066   1.321   5.065   5.881 -0.0032  0.5399 -0.1623
  138OSM   H11S15067   1.233   5.000   5.898  1.2536 -1.3639 -0.6686
  138OSM   H11T15068   1.400   4.994   5.852 -2.0058 -1.5805 -0.7218
  138OSM   C12S15069   1.290   5.148   5.759  0.6981 -0.3925 -0.1612
  138OSM   H12S15070   1.380   5.200   5.720  1.4367 -2.7411 -1.8269
  138OSM   H12T15071   1.208   5.221   5.775 -0.0435 -0.8278 -1.7922
  138OSM   C13S15072   1.254   5.074   5.627  0.0294 -0.2145  0.4495
  138OSM   H13S15073   1.175   4.999   5.646 -0.0256 -0.3399 -0.2781
  138OSM   H13T15074   1.342   5.014   5.595 -0.8207 -1.6591  0.7611
  138OSM   C14S15075   1.219   5.175   5.510  0.2327  0.0831  0.0855
  138OSM   H14S15076   1.308   5.240   5.496  1.0545 -0.6008  1.8609
  138OSM   H14T15077   1.133   5.238   5.539 -0.3220 -0.9517  0.7573
  138OSM   C15S15078   1.190   5.105   5.381 -0.2953 -0.2301 -0.2588
  138OSM   H15S15079   1.090   5.057   5.380  0.3373 -1.7072  1.6904
  138OSM   H15T15080   1.267   5.027   5.363 -0.7759 -1.1391  1.4380
  138OSM   C16S15081   1.203   5.210   5.268  0.7537 -0.3274 -0.0773
  138OSM   H16S15082   1.249   5.167   5.176  0.2170 -3.6022  1.0415
  138OSM   H16T15083   1.276   5.289   5.296  2.3290 -1.6522 -0.3336
  138OSM   C17S15084   1.066   5.264   5.210 -0.2465  0.7186 -0.8307
  138OSM   H17S15085   1.029   5.336   5.286 -0.0322 -0.5834  0.5512
  138OSM   H17T15086   0.995   5.179   5.201 -2.3137  2.1236  1.2136
  138OSM   C18S15087   1.073   5.338   5.074  0.0811 -0.2773  0.0959
  138OSM   H18S15088   1.114   5.269   4.996 -0.1239 -1.9056  1.3652
  138OSM   H18T15089   1.140   5.426   5.075 -0.9215  0.5553  3.2883
  138OSM   H18U15090   0.973   5.376   5.045  0.9097  1.7985 -0.1689
  138OSM    C1F15091   1.193   5.482   6.461 -0.0342  0.0180  1.0181
  138OSM     OF15092   1.295   5.540   6.508  1.1945 -0.0629 -0.0979
  138OSM    C2F15093   1.130   5.526   6.334  0.3551 -0.1558  0.4577
  138OSM    H2F15094   1.024   5.547   6.358  0.5988  0.4386  1.0674
  138OSM    H2G15095   1.133   5.446   6.257 -1.6878  1.8382 -1.8574
  138OSM    C3F15096   1.197   5.671   6.293 -0.2463  0.2210 -0.1678
  138OSM    H3F15097   1.304   5.664   6.264  0.1240  3.2353  0.2068
  138OSM    H3G15098   1.187   5.732   6.385  0.8995 -0.0818  0.1749
  138OSM    C4F15099   1.113   5.728   6.176 -0.4908 -0.0574  0.1927
  138OSM    H4F15100   1.173   5.810   6.132 -1.1206  1.0780  1.3980
  138OSM    H4G15101   1.017   5.765   6.217 -0.4937  1.3824 -1.0292
  138OSM    C5F15102   1.091   5.632   6.057 -0.1153 -0.8360 -0.3331
  138OSM    H5F15103   1.012   5.558   6.079 -0.8867  0.3323  1.0691
  138OSM    H5G15104   1.186   5.576   6.042  0.9195  0.5678  0.6431
  138OSM    C6F15105   1.070   5.704   5.924  0.0925  0.4927  0.3891
  138OSM    H6F15106   1.165   5.750   5.890 -1.4185  1.3482 -3.1645
  138OSM    H6G15107   0.999   5.786   5.947  2.3162  1.6394  3.8441
  138OSM    C7F15108   1.029   5.612   5.805  0.5079 -0.1757  0.1913
  138OSM    H7F15109   0.930   5.572   5.835 -0.3338  1.0525 -0.8471
  138OSM    H7G15110   1.097   5.524   5.803 -0.9569 -1.3919  1.4116
  138OSM    C8F15111   1.015   5.684   5.670 -0.6178 -0.2537  0.6523
  138OSM    H8F15112   1.095   5.760   5.668 -2.3416  1.6651 -0.8412
  138OSM    H8G15113   0.919   5.741   5.667 -0.8352 -0.6544 -1.4740
  138OSM    C9F15114   1.039   5.597   5.554  0.2676  0.0549  0.5091
  138OSM    H9F15115   1.079   5.496   5.574 -0.2151  0.3790  3.5995
  138OSM   C10F15116   1.010   5.618   5.425 -0.0791 -0.3716  0.6516
  138OSM   H10F15117   1.044   5.543   5.351  0.1197  0.0883  0.2698
  138OSM   C11F15118   0.955   5.743   5.358  0.6637 -0.3456 -0.2577
  138OSM   H11F15119   0.908   5.812   5.431  0.6692  0.0231 -0.5993
  138OSM   H11G15120   0.870   5.705   5.297 -1.7663  0.9998  2.0715
  138OSM   C12F15121   1.047   5.821   5.266  0.3911 -0.1700  0.0331
  138OSM   H12F15122   1.143   5.854   5.311  0.9875 -2.2761  0.3934
  138OSM   H12G15123   0.984   5.910   5.245 -2.3616 -1.2127  2.9071
  138OSM   C13F15124   1.082   5.759   5.125 -0.2669  0.2918  0.0777
  138OSM   H13F15125   1.145   5.668   5.137  1.1774  1.1519 -0.6653
  138OSM   H13G15126   1.138   5.836   5.067 -0.4054 -0.0438 -0.5162
  138OSM   C14F15127   0.957   5.720   5.048  0.1415 -0.5793 -0.1182
  138OSM   H14F15128   0.894   5.810   5.034  2.9012  1.4237 -0.3788
  138OSM   H14G15129   0.898   5.635   5.090 -0.7626  1.1041  2.2049
  138OSM   C15F15130   0.998   5.663   4.908  0.0281  0.7185  0.0931
  138OSM   H15F15131   1.020   5.556   4.930  1.0362  0.3872 -2.2665
  138OSM   H15G15132   1.084   5.720   4.868 -1.9732  3.3847 -0.6751
  138OSM   C16F15133   0.878   5.671   4.815 -0.1010  0.3378  0.6666
  138OSM   H16F15134   0.874   5.773   4.771  1.2942 -0.3752 -1.2653
  138OSM   H16G15135   0.790   5.655   4.881  1.1909  2.2066  2.9790
  138OSM   C17F15136   0.879   5.568   4.703  0.0902 -0.6733  0.3414
  138OSM   H17F15137   0.790   5.588   4.639  1.0927  1.9837 -0.3763
  138OSM   H17G15138   0.866   5.465   4.741 -2.0385 -0.8344 -0.7086
  138OSM   C18F15139   1.000   5.570   4.610  0.2230 -0.4129  0.0099
  138OSM   H18F15140   0.986   5.482   4.543 -0.1621 -0.6004  0.3319
  138OSM   H18G15141   1.095   5.555   4.665  0.3331  0.8905  0.2053
  138OSM   H18H15142   1.002   5.660   4.546 -0.8375  0.6575  1.4205
  139OSM      N15143   2.325   3.486   7.102 -0.0248 -0.5338 -0.2603
  139OSM    C1515144   2.263   3.609   7.047  0.5490 -0.2047 -0.6415
  139OSM   H15A15145   2.196   3.655   7.118 -0.7225 -0.0532 -1.8823
  139OSM   H15B15146   2.204   3.577   6.962  0.2244 -1.6325  0.0801
  139OSM   H15C15147   2.334   3.688   7.032  1.7815 -0.9380  1.0721
  139OSM    C1415148   2.380   3.511   7.239  0.2060  0.3427  0.3256
  139OSM   H14A15149   2.406   3.418   7.287  0.1151  0.0572 -0.1632
  139OSM   H14B15150   2.302   3.569   7.287 -0.4075 -0.3009  0.1268
  139OSM   H14C15151   2.460   3.582   7.227 -0.7249  1.2165 -1.0197
  139OSM    C1315152   2.210   3.387   7.110  0.0419 -0.6432  0.7528
  139OSM   H13A15153   2.166   3.376   7.013  2.5214 -0.7651 -0.4500
  139OSM   H13B15154   2.133   3.434   7.170 -0.6870  0.7450 -1.1662
  139OSM   H13C15155   2.243   3.289   7.141  4.2885  0.3160 -0.0663
  139OSM    C1215156   2.438   3.434   7.008 -0.1422  0.1409 -0.1338
  139OSM   H12A15157   2.503   3.517   6.987 -0.9669  0.7979 -0.1603
  139OSM   H12B15158   2.392   3.409   6.914 -0.4949  1.4028 -0.3188
  139OSM    C1115159   2.517   3.316   7.066 -0.8739  0.1491 -0.1767
  139OSM   H11A15160   2.456   3.230   7.102 -1.9122  0.1783 -1.7969
  139OSM   H11B15161   2.581   3.350   7.150  0.3275  0.2682 -1.0986
  139OSM      P15162   2.729   3.323   6.916  0.5777  0.1610  0.0931
  139OSM    O1315163   2.740   3.459   6.978  0.6297 -0.1834 -0.2123
  139OSM    O1415164   2.849   3.234   6.929 -0.0116 -0.1322 -0.0037
  139OSM    O1115165   2.695   3.331   6.761  0.2572 -0.2569  0.3484
  139OSM    O1215166   2.591   3.249   6.965 -0.1407 -0.5102  0.1790
  139OSM    C1S15167   2.655   3.215   6.696  0.2954  0.6257  0.2252
  139OSM    H1S15168   2.547   3.196   6.710  0.8725 -1.8774  2.0231
  139OSM    H1T15169   2.695   3.121   6.740 -1.2741  0.7860  2.0909
  139OSM     NF15170   2.628   3.090   6.480 -0.2193 -0.1434  0.0459
  139OSM    HNF15171   2.671   3.000   6.487 -5.9999 -3.4663 -0.6630
  139OSM    C2S15172   2.696   3.203   6.543  0.0124 -0.8346 -0.4837
  139OSM    H2S15173   2.658   3.295   6.494  0.5385 -0.3490  0.0073
  139OSM    C3S15174   2.847   3.192   6.530  0.0829 -0.4455  0.1576
  139OSM    H3S15175   2.886   3.090   6.551  0.0687 -1.8208 -4.9909
  139OSM     O315176   2.920   3.279   6.617 -0.7736  0.9425  0.5929
  139OSM    HO315177   2.865   3.292   6.694 -0.4580  1.0367  0.8016
  139OSM    C4S15178   2.877   3.233   6.383 -0.0340 -0.3808 -0.5089
  139OSM    H4S15179   2.868   3.339   6.354 -0.2544  0.4828  2.4033
  139OSM    C5S15180   2.910   3.143   6.288  0.4339 -0.2570 -0.1415
  139OSM    H5S15181   2.910   3.037   6.320  3.5253  0.6188  3.4230
  139OSM    C6S15182   2.924   3.179   6.148 -0.5470  0.0201  0.3253
  139OSM    H6S15183   2.826   3.182   6.096 -0.5809  1.5150  0.4215
  139OSM    H6T15184   2.994   3.110   6.096 -0.1572 -0.0300  0.9125
  139OSM    C7S15185   2.986   3.326   6.123 -0.6973  0.9768  0.2453
  139OSM    H7S15186   3.071   3.342   6.193  0.7078 -1.5971 -0.6984
  139OSM    H7T15187   2.902   3.397   6.137 -0.6037  1.7175 -2.4489
  139OSM    C8S15188   3.037   3.340   5.978  0.5068 -0.0533 -0.1534
  139OSM    H8S15189   3.075   3.444   5.963  0.3342 -0.1009 -0.9998
  139OSM    H8T15190   2.948   3.322   5.913  0.6146 -0.1335 -0.2778
  139OSM    C9S15191   3.150   3.241   5.943  0.1407 -0.0956  0.3102
  139OSM    H9S15192   3.203   3.191   6.027 -1.9163 -0.3524  1.5185
  139OSM    H9T15193   3.225   3.300   5.885 -1.7576  1.0090 -1.1291
  139OSM   C10S15194   3.111   3.128   5.835  0.4643 -0.7623  0.3558
  139OSM   H10S15195   3.012   3.081   5.856  0.4811 -0.9549  0.0113
  139OSM   H10T15196   3.185   3.048   5.853 -2.4109 -3.5453  0.7416
  139OSM   C11S15197   3.113   3.170   5.684 -0.3832 -0.3514 -0.2712
  139OSM   H11S15198   3.121   3.084   5.614 -0.0336 -0.5820  0.0501
  139OSM   H11T15199   3.208   3.227   5.686 -1.3283  1.3281  3.0966
  139OSM   C12S15200   3.012   3.270   5.633  0.2451  0.0529  0.2719
  139OSM   H12S15201   3.058   3.305   5.539 -0.1277 -0.1632  0.0090
  139OSM   H12T15202   2.997   3.352   5.707 -1.6892 -0.1229  0.1356
  139OSM   C13S15203   2.882   3.189   5.618 -0.4003  0.2184 -0.7749
  139OSM   H13S15204   2.849   3.144   5.714 -0.6174 -0.4695 -1.1704
  139OSM   H13T15205   2.901   3.104   5.550  1.5119  1.2473 -1.6129
  139OSM   C14S15206   2.768   3.283   5.569  1.1615  0.7862  0.5469
  139OSM   H14S15207   2.803   3.326   5.472  0.1870  1.4613  0.4874
  139OSM   H14T15208   2.756   3.369   5.637 -2.2081  1.6959 -1.0179
  139OSM   C15S15209   2.629   3.221   5.550 -0.1845  0.2106  0.5240
  139OSM   H15S15210   2.650   3.116   5.579  0.1625  0.2561  0.4439
  139OSM   H15T15211   2.613   3.227   5.440  0.6157  0.4201  0.4056
  139OSM   C16S15212   2.506   3.282   5.619 -0.3729  0.3499  0.9588
  139OSM   H16S15213   2.493   3.385   5.580 -4.2525 -0.7811 -1.3537
  139OSM   H16T15214   2.522   3.278   5.729  0.1721 -2.7807  0.8666
  139OSM   C17S15215   2.380   3.200   5.601 -0.1872 -0.2364 -0.4591
  139OSM   H17S15216   2.340   3.184   5.499  0.0686 -2.3420 -0.2715
  139OSM   H17T15217   2.297   3.263   5.638  0.0831  0.5833 -1.2188
  139OSM   C18S15218   2.386   3.067   5.676  0.0223 -0.0566 -0.0538
  139OSM   H18S15219   2.290   3.012   5.667  0.5061 -0.5737 -4.2057
  139OSM   H18T15220   2.421   3.080   5.780 -0.9942 -0.6408  0.3740
  139OSM   H18U15221   2.454   2.997   5.623 -1.8260 -0.6884 -1.7186
  139OSM    C1F15222   2.499   3.089   6.462 -0.5014  0.2495  0.1383
  139OSM     OF15223   2.432   3.178   6.506 -0.2309 -0.1432  0.0159
  139OSM    C2F15224   2.444   2.973   6.391 -0.3231 -0.5246 -0.7927
  139OSM    H2F15225   2.370   2.920   6.454  0.9860  0.3360  1.6097
  139OSM    H2G15226   2.526   2.899   6.378  0.8496  0.2053  1.6764
  139OSM    C3F15227   2.392   3.009   6.253  0.6133 -0.1426 -0.0622
  139OSM    H3F15228   2.460   3.085   6.207  0.2571 -0.3164 -0.9028
  139OSM    H3G15229   2.290   3.050   6.266  0.6972 -0.3593  1.3516
  139OSM    C4F15230   2.377   2.889   6.161  0.1317  0.0627  0.0691
  139OSM    H4F15231   2.323   2.819   6.228  0.2314  0.9700  1.1227
  139OSM    H4G15232   2.476   2.843   6.140  0.7523  1.7865 -0.9592
  139OSM    C5F15233   2.302   2.915   6.031 -0.0820 -0.5183 -0.0733
  139OSM    H5F15234   2.307   2.824   5.968 -2.7980 -1.1649  0.5034
  139OSM    H5G15235   2.348   2.996   5.971 -0.2945 -0.4757 -0.1803
  139OSM    C6F15236   2.151   2.937   6.056 -0.8953 -0.1547 -1.3001
  139OSM    H6F15237   2.126   3.022   6.122 -0.5230 -1.4625  0.6216
  139OSM    H6G15238   2.111   2.853   6.117 -0.8888 -1.9708 -3.6363
  139OSM    C7F15239   2.053   2.960   5.932 -0.4369  0.6243 -0.0752
  139OSM    H7F15240   2.104   3.041   5.875  1.5481  0.4322  1.3237
  139OSM    H7G15241   1.952   2.999   5.956  0.0378  1.8905 -0.0267
  139OSM    C8F15242   2.050   2.829   5.836  0.1397  0.1204 -0.6645
  139OSM    H8F15243   2.081   2.740   5.895  0.8206  0.1463 -0.9732
  139OSM    H8G15244   2.144   2.844   5.778 -0.5485 -0.4486 -1.9531
  139OSM    C9F15245   1.940   2.810   5.738  0.8619  0.1129 -0.0492
  139OSM    H9F15246   1.844   2.794   5.789  1.1293  1.0091  0.7567
  139OSM   C10F15247   1.939   2.833   5.607  0.2179  0.0329  0.4588
  139OSM   H10F15248   1.845   2.824   5.550 -1.1672 -3.0196  2.9272
  139OSM   C11F15249   2.051   2.893   5.525 -0.2681 -0.1063 -0.0380
  139OSM   H11F15250   2.145   2.890   5.584  0.8112 -1.5306 -1.7120
  139OSM   H11G15251   2.028   3.001   5.517 -1.3925 -0.2046  1.4448
  139OSM   C12F15252   2.077   2.847   5.380 -0.3829  1.2142 -0.2915
  139OSM   H12F15253   1.987   2.846   5.315  0.4462 -0.2657 -1.4764
  139OSM   H12G15254   2.118   2.747   5.404  0.2443  0.7882 -2.8033
  139OSM   C13F15255   2.186   2.937   5.311 -0.4048  0.1878  0.1245
  139OSM   H13F15256   2.255   2.885   5.242 -1.1909  1.5377 -1.7747
  139OSM   H13G15257   2.249   2.973   5.395 -1.3305  0.2177  0.8320
  139OSM   C14F15258   2.125   3.054   5.243  0.1504 -0.2442  0.3010
  139OSM   H14F15259   2.105   3.114   5.334  0.9132 -0.5446  0.6726
  139OSM   H14G15260   2.030   3.034   5.188 -0.0460  2.2652 -0.3987
  139OSM   C15F15261   2.220   3.127   5.140 -0.4111  0.4062  0.1255
  139OSM   H15F15262   2.154   3.206   5.099 -1.3052 -0.4225 -0.0736
  139OSM   H15G15263   2.224   3.060   5.052 -0.7660 -0.0964  0.4892
  139OSM   C16F15264   2.352   3.176   5.191  0.1772  0.0838 -0.8823
  139OSM   H16F15265   2.413   3.091   5.227  0.6406 -0.4086 -2.7388
  139OSM   H16G15266   2.326   3.240   5.278 -2.1329 -1.1765 -0.5704
  139OSM   C17F15267   2.435   3.242   5.078 -0.6427  0.5712  0.8964
  139OSM   H17F15268   2.387   3.329   5.028 -1.0014  0.5459  1.1887
  139OSM   H17G15269   2.441   3.158   5.006  3.1143  1.7211 -0.3468
  139OSM   C18F15270   2.575   3.277   5.105  0.0860  0.0715  0.4976
  139OSM   H18F15271   2.583   3.366   5.172  1.1988  0.8545 -0.6245
  139OSM   H18G15272   2.627   3.309   5.012 -2.0823  1.8800 -0.1796
  139OSM   H18H15273   2.631   3.194   5.153  0.4351 -1.5455 -2.4989
  140OSM      N15274   4.198   0.154   7.147 -0.1196  0.2941  0.1084
  140OSM    C1515275   4.227   0.203   7.282  0.3214  0.1960  0.2787
  140OSM   H15A15276   4.327   0.244   7.289 -0.9250  3.4241  0.6584
  140OSM   H15B15277   4.195   0.137   7.362  1.2016 -1.3517 -0.5914
  140OSM   H15C15278   4.168   0.292   7.293  0.7102  0.5283 -0.3203
  140OSM    C1415279   4.048   0.124   7.149 -1.8993  0.0817  0.0653
  140OSM   H14A15280   4.001   0.220   7.166  0.5315  1.4707 -0.5862
  140OSM   H14B15281   4.021   0.039   7.210  0.5823  0.1918  1.4389
  140OSM   H14C15282   4.022   0.105   7.045 -0.4280  0.2197 -0.3519
  140OSM    C1315283   4.234   0.259   7.054  0.7568  0.3226  0.9235
  140OSM   H13A15284   4.167   0.343   7.070 -0.7438 -0.6056 -0.1233
  140OSM   H13B15285   4.222   0.234   6.949 -2.0747  0.3584  1.1388
  140OSM   H13C15286   4.334   0.298   7.046  0.5583  0.6141 -0.4055
  140OSM    C1215287   4.280   0.030   7.137  0.0059 -1.1776  0.1435
  140OSM   H12A15288   4.217  -0.038   7.192 -1.7375  0.2328 -0.0346
  140OSM   H12B15289   4.370   0.055   7.192  0.6847  0.5564 -1.6338
  140OSM    C1115290   4.325  -0.027   7.002  0.5706  0.5370 -0.3772
  140OSM   H11A15291   4.394  -0.109   7.032 -1.2289 -0.0160  2.7482
  140OSM   H11B15292   4.376   0.055   6.948 -0.1169  0.1080 -1.7104
  140OSM      P15293   4.152  -0.211   6.932  0.3220  0.3686 -0.7526
  140OSM    O1315294   4.197  -0.276   7.059  0.5477  0.0386 -0.2173
  140OSM    O1415295   4.009  -0.220   6.898 -0.0874  0.1496 -0.1882
  140OSM    O1115296   4.229  -0.295   6.821  0.1707 -0.2654  0.0194
  140OSM    O1215297   4.213  -0.060   6.916  0.1939  0.2346 -0.0693
  140OSM    C1S15298   4.218  -0.256   6.680 -0.2405 -0.2134 -0.6554
  140OSM    H1S15299   4.320  -0.220   6.654 -0.3594 -1.1957 -2.7903
  140OSM    H1T15300   4.132  -0.189   6.659 -1.8045 -1.8976  0.1134
  140OSM     NF15301   4.195  -0.326   6.448 -0.1684 -0.3461 -0.5165
  140OSM    HNF15302   4.104  -0.284   6.441  0.1271  0.4114  0.0754
  140OSM    C2S15303   4.212  -0.380   6.585 -0.0106  0.1413 -0.1541
  140OSM    H2S15304   4.312  -0.429   6.589  0.2526  0.6587 -0.3334
  140OSM    C3S15305   4.091  -0.472   6.635  0.5741 -0.2965  0.3597
  140OSM    H3S15306   4.002  -0.405   6.644  1.1174  0.1902  3.3618
  140OSM     O315307   4.110  -0.528   6.766 -0.5004  0.1974  0.4027
  140OSM    HO315308   4.165  -0.462   6.809 -0.6928 -0.3523  1.5109
  140OSM    C4S15309   4.071  -0.586   6.544 -0.5070 -1.4835 -0.1321
  140OSM    H4S15310   4.163  -0.611   6.489  1.2351  0.7080  1.5847
  140OSM    C5S15311   3.961  -0.632   6.493 -0.2746 -0.5010  0.8841
  140OSM    H5S15312   3.866  -0.587   6.525  0.2492  0.8313  0.5908
  140OSM    C6S15313   3.954  -0.727   6.368 -0.6762 -0.1273 -0.3332
  140OSM    H6S15314   3.931  -0.830   6.403 -0.8555  0.1815  0.4981
  140OSM    H6T15315   4.053  -0.747   6.321  0.6383 -1.8548  2.8566
  140OSM    C7S15316   3.840  -0.684   6.271  0.2421 -0.6327  0.5775
  140OSM    H7S15317   3.868  -0.582   6.237 -1.5955 -1.0299 -2.5786
  140OSM    H7T15318   3.745  -0.666   6.326 -0.6223 -1.7658 -0.4673
  140OSM    C8S15319   3.823  -0.788   6.159  0.1917 -0.2044 -0.2291
  140OSM    H8S15320   3.736  -0.754   6.098  0.1366 -0.3661 -0.2408
  140OSM    H8T15321   3.788  -0.885   6.198 -1.1685  1.3340  2.6775
  140OSM    C9S15322   3.943  -0.795   6.064  0.1436  0.3951 -0.0294
  140OSM    H9S15323   3.918  -0.870   5.985  0.7120  1.2978 -1.0907
  140OSM    H9T15324   4.028  -0.835   6.124 -0.4336 -0.0642  0.4917
  140OSM   C10S15325   3.984  -0.661   5.999  0.7455  0.2196 -0.3826
  140OSM   H10S15326   4.031  -0.599   6.078  0.0511  1.1546 -0.6906
  140OSM   H10T15327   3.900  -0.602   5.957 -0.5428  0.3445  2.1653
  140OSM   C11S15328   4.097  -0.680   5.897  0.1283  0.1273 -0.1204
  140OSM   H11S15329   4.154  -0.769   5.932  0.8060  0.6195  0.0468
  140OSM   H11T15330   4.165  -0.594   5.881  0.4582 -0.2321 -0.6899
  140OSM   C12S15331   4.041  -0.704   5.755 -0.7684 -0.2976  0.1138
  140OSM   H12S15332   3.981  -0.617   5.723 -2.3113 -1.1001  0.7502
  140OSM   H12T15333   3.973  -0.791   5.767 -1.2325  0.1432  0.7203
  140OSM   C13S15334   4.139  -0.739   5.645 -0.3788 -0.6815 -0.0582
  140OSM   H13S15335   4.199  -0.830   5.667 -0.3093 -0.4840  0.5717
  140OSM   H13T15336   4.204  -0.649   5.648 -0.6824 -0.4310 -0.7111
  140OSM   C14S15337   4.078  -0.732   5.506 -0.1127 -0.2427  0.7834
  140OSM   H14S15338   4.046  -0.626   5.497 -1.6812 -0.7903 -0.6143
  140OSM   H14T15339   3.993  -0.805   5.504 -2.8266  2.7157 -0.8156
  140OSM   C15S15340   4.174  -0.771   5.387  0.3185  0.0407 -0.0612
  140OSM   H15S15341   4.208  -0.875   5.405 -2.1945 -1.1394 -1.6638
  140OSM   H15T15342   4.259  -0.701   5.401  0.5079 -0.5511  2.3204
  140OSM   C16S15343   4.119  -0.751   5.243 -0.5502 -0.0972  0.5692
  140OSM   H16S15344   4.074  -0.649   5.241 -1.7295 -0.6183 -1.0051
  140OSM   H16T15345   4.042  -0.829   5.223 -0.8600  0.8645 -2.5166
  140OSM   C17S15346   4.219  -0.750   5.123  0.1494  0.1033  0.4958
  140OSM   H17S15347   4.282  -0.842   5.127  0.9383  0.6751  3.8072
  140OSM   H17T15348   4.281  -0.659   5.137  0.8879 -0.4970  1.2325
  140OSM   C18S15349   4.149  -0.750   4.988  0.1279 -0.3543  0.1258
  140OSM   H18S15350   4.112  -0.853   4.967 -2.4239  0.0305  2.1338
  140OSM   H18T15351   4.217  -0.730   4.903 -0.8041 -0.2434 -0.6071
  140OSM   H18U15352   4.065  -0.678   4.979  0.6420  0.2814  0.3185
  140OSM    C1F15353   4.296  -0.280   6.374  0.0846  0.1914  0.6498
  140OSM     OF15354   4.403  -0.285   6.419 -0.3506 -0.4347  0.4043
  140OSM    C2F15355   4.264  -0.220   6.241  0.2482  0.0818 -0.7184
  140OSM    H2F15356   4.307  -0.119   6.251  0.9919 -0.4218  1.7668
  140OSM    H2G15357   4.156  -0.224   6.216  0.1702 -2.0858 -0.2972
  140OSM    C3F15358   4.344  -0.296   6.129 -0.1222  0.5230  0.2573
  140OSM    H3F15359   4.299  -0.397   6.124 -1.5047  1.1152  0.2461
  140OSM    H3G15360   4.454  -0.301   6.142 -0.1259 -1.3307 -0.2548
  140OSM    C4F15361   4.316  -0.229   5.988 -0.0989 -0.0801  0.0016
  140OSM    H4F15362   4.345  -0.122   5.990  0.3742 -0.1591 -1.4179
  140OSM    H4G15363   4.209  -0.240   5.960  0.7845 -1.8171 -3.1916
  140OSM    C5F15364   4.386  -0.303   5.881  0.5905 -0.4532  0.0046
  140OSM    H5F15365   4.390  -0.414   5.888 -0.4095 -0.5232 -0.4045
  140OSM    H5G15366   4.493  -0.272   5.884 -0.0898  2.0463  2.3275
  140OSM    C6F15367   4.320  -0.262   5.745 -0.5921 -0.3021  0.5957
  140OSM    H6F15368   4.324  -0.151   5.737 -2.1005 -0.1256  1.7730
  140OSM    H6G15369   4.218  -0.304   5.751 -1.8351  2.0304 -2.0492
  140OSM    C7F15370   4.388  -0.316   5.626  0.0136  0.2370 -0.0654
  140OSM    H7F15371   4.426  -0.416   5.658 -0.1607  0.0450 -0.4520
  140OSM    H7G15372   4.474  -0.255   5.591 -0.9626  3.3898  2.5097
  140OSM    C8F15373   4.289  -0.336   5.516  0.4065 -0.1370 -0.2802
  140OSM    H8F15374   4.248  -0.236   5.488  2.1031  0.9554  0.9572
  140OSM    H8G15375   4.201  -0.388   5.561  1.3952 -0.3282  1.5124
  140OSM    C9F15376   4.352  -0.429   5.412 -0.1093 -0.6083  0.9407
  140OSM    H9F15377   4.400  -0.522   5.447 -0.1029 -1.8001 -1.9759
  140OSM   C10F15378   4.331  -0.412   5.280  0.5064  0.6213 -0.0211
  140OSM   H10F15379   4.369  -0.491   5.213 -0.9874 -1.7691  1.7943
  140OSM   C11F15380   4.256  -0.298   5.211  0.2065 -0.4685 -0.8471
  140OSM   H11F15381   4.329  -0.218   5.186 -1.4045  2.3602  2.5905
  140OSM   H11G15382   4.179  -0.255   5.279  1.7699 -0.1190  0.7705
  140OSM   C12F15383   4.170  -0.355   5.092 -0.0244  0.9555 -0.2882
  140OSM   H12F15384   4.079  -0.409   5.125 -1.0407  1.3594 -2.2674
  140OSM   H12G15385   4.243  -0.423   5.043  1.9148  2.5371  0.2468
  140OSM   C13F15386   4.117  -0.249   4.992  0.5560 -0.2562 -0.5035
  140OSM   H13F15387   4.194  -0.178   4.957  0.0951 -0.4123 -1.9025
  140OSM   H13G15388   4.037  -0.190   5.041  1.0341 -0.6501  0.8151
  140OSM   C14F15389   4.048  -0.308   4.866 -0.4466  0.5734  0.0698
  140OSM   H14F15390   3.983  -0.229   4.822 -0.6460  2.1862  3.0242
  140OSM   H14G15391   3.974  -0.381   4.907 -0.1144  1.5780  2.6725
  140OSM   C15F15392   4.144  -0.370   4.769  0.3869 -0.2014  0.4436
  140OSM   H15F15393   4.235  -0.416   4.813  1.1091  0.4436 -0.3431
  140OSM   H15G15394   4.196  -0.282   4.724  1.5522 -0.8316  0.5412
  140OSM   C16F15395   4.059  -0.456   4.673 -0.1490 -0.3107 -0.1814
  140OSM   H16F15396   3.977  -0.397   4.627 -1.0615 -2.1883 -1.0465
  140OSM   H16G15397   4.007  -0.539   4.726 -0.2573 -0.2517 -0.1938
  140OSM   C17F15398   4.140  -0.510   4.561  0.7306 -0.1731  0.5495
  140OSM   H17F15399   4.220  -0.571   4.607  1.2924  1.5479  1.9713
  140OSM   H17G15400   4.186  -0.422   4.512 -0.6322  0.0026 -0.4667
  140OSM   C18F15401   4.062  -0.592   4.457  0.0385  0.3065 -0.4238
  140OSM   H18F15402   3.994  -0.530   4.394  1.0215 -0.6430 -2.5219
  140OSM   H18G15403   4.002  -0.672   4.505  0.8003 -0.1884 -0.2766
  140OSM   H18H15404   4.135  -0.622   4.379 -0.0248  0.3531 -0.5017
  141OSM      N15405   4.298   5.446   7.209  0.4253  0.5896 -0.4897
  141OSM    C1515406   4.340   5.544   7.316  0.0824 -0.5114 -0.1108
  141OSM   H15A15407   4.414   5.506   7.385  0.2752  1.5750  0.8973
  141OSM   H15B15408   4.260   5.577   7.380  0.7125 -1.0543  0.9694
  141OSM   H15C15409   4.373   5.635   7.268 -3.4048  1.1927  0.4470
  141OSM    C1415410   4.420   5.371   7.163 -0.3803  0.2482 -0.5122
  141OSM   H14A15411   4.391   5.293   7.094  0.8565 -0.2079 -0.5307
  141OSM   H14B15412   4.470   5.326   7.248 -0.4209  0.6824 -0.2543
  141OSM   H14C15413   4.488   5.436   7.111  0.0937 -0.0979 -0.3340
  141OSM    C1315414   4.199   5.356   7.272 -0.1644 -0.0165  0.4218
  141OSM   H13A15415   4.220   5.316   7.370 -0.9337  0.1465  0.6615
  141OSM   H13B15416   4.188   5.273   7.203  0.2399  0.5214 -0.2950
  141OSM   H13C15417   4.103   5.406   7.270 -1.5680 -2.4879 -2.0264
  141OSM    C1215418   4.233   5.528   7.090  0.4822 -0.2996 -0.0392
  141OSM   H12A15419   4.164   5.602   7.128 -1.5377 -2.1491  0.0629
  141OSM   H12B15420   4.166   5.463   7.036 -0.2319 -0.7438  1.3380
  141OSM    C1115421   4.327   5.602   6.990  0.1851  0.8506  0.0421
  141OSM   H11A15422   4.261   5.647   6.914 -0.0341 -2.4140 -1.9181
  141OSM   H11B15423   4.403   5.536   6.942 -0.5534  1.6802 -2.3890
  141OSM      P15424   4.351   5.843   7.086  0.5829  0.4726 -0.1860
  141OSM    O1315425   4.208   5.827   7.137 -0.1559 -0.5880 -0.0550
  141OSM    O1415426   4.451   5.893   7.182 -0.6337  0.0116 -0.0176
  141OSM    O1115427   4.368   5.907   6.944 -0.4477  0.2528 -0.5082
  141OSM    O1215428   4.398   5.701   7.056 -0.2737 -0.2709 -0.6540
  141OSM    C1S15429   4.475   5.879   6.852  0.2427  0.1199 -0.0405
  141OSM    H1S15430   4.551   5.816   6.904  0.0316 -0.2804 -0.2185
  141OSM    H1T15431   4.519   5.980   6.833  2.3983 -0.5890  0.7827
  141OSM     NF15432   4.536   5.806   6.616 -0.3291  0.2240  0.4510
  141OSM    HNF15433   4.532   5.866   6.536  0.1165  1.1839  1.1232
  141OSM    C2S15434   4.430   5.815   6.716  0.4362  0.0395  0.0005
  141OSM    H2S15435   4.397   5.713   6.747 -0.1495  1.2162  3.7644
  141OSM    C3S15436   4.289   5.883   6.672  0.9174  0.0221  0.1443
  141OSM    H3S15437   4.304   5.991   6.651  0.3963 -0.2501 -1.8073
  141OSM     O315438   4.184   5.870   6.766 -0.0426 -0.1355  0.0236
  141OSM    HO315439   4.235   5.868   6.847  1.2006 -0.3101 -0.7329
  141OSM    C4S15440   4.245   5.824   6.534 -0.4744  0.0474  0.1425
  141OSM    H4S15441   4.283   5.875   6.444 -0.3351 -1.3920 -0.6489
  141OSM    C5S15442   4.182   5.708   6.516  0.3345  1.4332  1.0821
  141OSM    H5S15443   4.162   5.644   6.603 -0.6098  1.9171  1.2353
  141OSM    C6S15444   4.158   5.634   6.382  0.9079 -0.1865  0.1598
  141OSM    H6S15445   4.060   5.582   6.394  1.1204 -0.7415 -0.4766
  141OSM    H6T15446   4.245   5.567   6.395  0.1247 -1.1852  0.3920
  141OSM    C7S15447   4.166   5.705   6.245 -0.5177  0.0063  0.5964
  141OSM    H7S15448   4.251   5.775   6.234 -2.6199  2.6438 -0.0929
  141OSM    H7T15449   4.079   5.772   6.222  0.6050  1.6612  0.9642
  141OSM    C8S15450   4.166   5.599   6.129 -0.6782 -0.1601 -0.5294
  141OSM    H8S15451   4.067   5.548   6.133  0.0466 -1.5084  1.0966
  141OSM    H8T15452   4.241   5.524   6.160 -3.3391 -1.7071  2.7389
  141OSM    C9S15453   4.202   5.670   5.996  0.7469 -0.1314 -0.4039
  141OSM    H9S15454   4.292   5.735   6.003  1.1600 -0.6132 -1.0638
  141OSM    H9T15455   4.108   5.723   5.973  0.9110 -0.1006 -1.0393
  141OSM   C10S15456   4.209   5.572   5.874  0.3967 -0.2060 -0.0693
  141OSM   H10S15457   4.115   5.513   5.865  0.6778 -0.4033 -1.9401
  141OSM   H10T15458   4.289   5.496   5.889 -1.0623 -1.9359 -0.7287
  141OSM   C11S15459   4.239   5.650   5.740 -0.3168 -0.0930  0.0219
  141OSM   H11S15460   4.322   5.720   5.762  0.8157 -0.8883 -1.5255
  141OSM   H11T15461   4.153   5.713   5.706  0.4085 -0.1493 -2.0364
  141OSM   C12S15462   4.278   5.550   5.635  0.4678 -0.3293 -0.7120
  141OSM   H12S15463   4.195   5.482   5.607  0.7916 -1.9079  1.8921
  141OSM   H12T15464   4.365   5.487   5.662  0.8548 -0.8091 -2.8866
  141OSM   C13S15465   4.315   5.617   5.508 -0.6814  0.1367  0.1454
  141OSM   H13S15466   4.410   5.668   5.532 -0.1818 -1.1274  0.9073
  141OSM   H13T15467   4.244   5.701   5.487  0.1261  0.5508 -1.0534
  141OSM   C14S15468   4.341   5.523   5.390  0.4306 -0.8530 -0.4815
  141OSM   H14S15469   4.235   5.496   5.373 -0.9639  3.2990  0.4090
  141OSM   H14T15470   4.407   5.445   5.434 -1.5858 -0.5915  3.4075
  141OSM   C15S15471   4.393   5.599   5.267 -0.6269  0.2684  0.4141
  141OSM   H15S15472   4.498   5.627   5.288 -0.1968 -1.7979  1.3314
  141OSM   H15T15473   4.351   5.701   5.258  3.2188  1.9290 -0.3290
  141OSM   C16S15474   4.383   5.522   5.138 -0.5746  0.0379 -0.7240
  141OSM   H16S15475   4.283   5.474   5.134 -2.3746  3.4721 -0.2404
  141OSM   H16T15476   4.462   5.444   5.143 -0.5000  0.2127  1.3385
  141OSM   C17S15477   4.379   5.612   5.011 -0.3733  0.2916 -0.2527
  141OSM   H17S15478   4.486   5.636   4.992  0.2809 -1.4132  0.9935
  141OSM   H17T15479   4.320   5.704   5.030 -0.1660  0.5189 -0.7084
  141OSM   C18S15480   4.321   5.546   4.884 -0.5692  0.4962 -0.0513
  141OSM   H18S15481   4.378   5.461   4.842 -0.3760  0.9081 -0.6365
  141OSM   H18T15482   4.307   5.622   4.804  0.3617  1.9849  1.1256
  141OSM   H18U15483   4.224   5.498   4.908  0.4318 -1.6755 -0.1319
  141OSM    C1F15484   4.656   5.755   6.651 -0.1229 -0.1035  0.1512
  141OSM     OF15485   4.653   5.676   6.744  0.2138  0.0190  0.0842
  141OSM    C2F15486   4.773   5.788   6.570  0.0599 -0.3860  0.3506
  141OSM    H2F15487   4.741   5.869   6.501 -1.8035 -0.0603  1.5186
  141OSM    H2G15488   4.809   5.692   6.528  1.1027 -0.3727  1.1716
  141OSM    C3F15489   4.888   5.839   6.660 -0.1688 -0.4914  0.1549
  141OSM    H3F15490   4.898   5.774   6.750 -0.7748  1.7823  1.9611
  141OSM    H3G15491   4.866   5.941   6.697  0.5787 -0.1320 -0.3570
  141OSM    C4F15492   5.024   5.846   6.584  0.1616  0.4722 -0.0396
  141OSM    H4F15493   5.036   5.752   6.526  1.0948 -0.3700  1.4603
  141OSM    H4G15494   5.104   5.837   6.660  0.1648  0.4932 -0.0411
  141OSM    C5F15495   5.038   5.968   6.489 -0.2294 -0.4120  0.0295
  141OSM    H5F15496   5.042   6.063   6.546  0.1730 -0.6758  0.4526
  141OSM    H5G15497   4.948   5.981   6.425  0.8050  0.0917 -1.3519
  141OSM    C6F15498   5.169   5.974   6.408  0.1179  0.0375  0.0737
  141OSM    H6F15499   5.255   5.940   6.469  0.9448  1.2930 -0.3464
  141OSM    H6G15500   5.191   6.077   6.373  1.7715  0.2080  1.5108
  141OSM    C7F15501   5.161   5.867   6.291  0.2136  0.1578 -0.3407
  141OSM    H7F15502   5.146   5.770   6.344  0.1339 -0.2318 -1.0582
  141OSM    H7G15503   5.256   5.866   6.234  0.4880 -0.1399  0.1194
  141OSM    C8F15504   5.050   5.887   6.183 -0.3942 -0.1179  0.1877
  141OSM    H8F15505   4.951   5.880   6.233 -0.3578  0.3411  0.3331
  141OSM    H8G15506   5.055   5.803   6.111  2.5838 -0.6119  0.8300
  141OSM    C9F15507   5.069   6.015   6.108  0.4383 -0.1845 -0.1475
  141OSM    H9F15508   5.017   6.099   6.156  1.2400  0.4254 -0.3273
  141OSM   C10F15509   5.149   6.034   5.997 -0.0115 -0.4264 -0.4565
  141OSM   H10F15510   5.157   6.133   5.949  0.4311  0.6755  1.7270
  141OSM   C11F15511   5.225   5.920   5.935 -0.3735  1.2400 -0.1094
  141OSM   H11F15512   5.240   5.833   6.002 -0.1478  1.8506  0.6453
  141OSM   H11G15513   5.328   5.950   5.906 -0.0779  0.1074 -0.2550
  141OSM   C12F15514   5.143   5.855   5.826  0.4687 -0.9173 -0.0851
  141OSM   H12F15515   5.034   5.875   5.825  0.6880  0.4631 -1.1912
  141OSM   H12G15516   5.166   5.748   5.840 -0.2317 -0.8762  1.5814
  141OSM   C13F15517   5.198   5.882   5.681 -0.1878 -0.2387  0.6642
  141OSM   H13F15518   5.140   5.824   5.606 -0.2179 -1.1247  1.3645
  141OSM   H13G15519   5.306   5.859   5.691 -0.1205 -2.0434 -2.6097
  141OSM   C14F15520   5.173   6.030   5.649  0.2533 -0.4662 -0.0567
  141OSM   H14F15521   5.223   6.096   5.722  0.3148  1.3449 -1.6554
  141OSM   H14G15522   5.064   6.047   5.635  0.5102  1.3661 -0.0081
  141OSM   C15F15523   5.234   6.063   5.510  0.0380 -0.1006  0.4537
  141OSM   H15F15524   5.345   6.059   5.521  0.2870  1.2417 -1.1696
  141OSM   H15G15525   5.224   6.169   5.480  2.3417 -0.1855 -0.8518
  141OSM   C16F15526   5.184   5.976   5.388  0.5531  0.6273 -0.0012
  141OSM   H16F15527   5.106   5.902   5.418  0.5039  1.4082  1.9591
  141OSM   H16G15528   5.274   5.928   5.345 -0.2307 -0.3799 -0.5637
  141OSM   C17F15529   5.145   6.073   5.267  0.7363  0.0830 -0.2439
  141OSM   H17F15530   5.125   5.999   5.186 -1.4690  0.9717 -0.5903
  141OSM   H17G15531   5.230   6.138   5.239  0.2890  1.3388  1.1659
  141OSM   C18F15532   5.032   6.169   5.292 -0.2158 -1.2307 -0.2182
  141OSM   H18F15533   4.941   6.133   5.240 -1.0670  0.8361 -0.2500
  141OSM   H18G15534   5.049   6.273   5.255 -0.4894 -1.8886 -2.3522
  141OSM   H18H15535   5.014   6.179   5.401  0.0834  1.9998 -0.3664
  142OSM      N15536   4.303   4.547   6.989  0.0030 -0.7607  0.2604
  142OSM    C1515537   4.311   4.412   7.050  0.1511 -0.4094  0.2771
  142OSM   H15A15538   4.377   4.340   7.002 -0.3787 -0.6458 -0.1086
  142OSM   H15B15539   4.210   4.375   7.058 -0.3116  0.4088 -1.3728
  142OSM   H15C15540   4.349   4.412   7.151  0.1112 -1.5105  0.3010
  142OSM    C1415541   4.249   4.637   7.094 -0.6434  0.1992  0.2018
  142OSM   H14A15542   4.324   4.625   7.170 -1.6244  1.9067  1.5287
  142OSM   H14B15543   4.160   4.614   7.151 -0.8579 -1.3398 -0.6955
  142OSM   H14C15544   4.261   4.743   7.075  0.2393  0.0295 -0.2130
  142OSM    C1315545   4.442   4.596   6.964  0.0696 -0.3036  0.6521
  142OSM   H13A15546   4.492   4.536   6.890  2.5308  0.9457  1.2071
  142OSM   H13B15547   4.501   4.607   7.055  0.1636  0.6052  0.4968
  142OSM   H13C15548   4.431   4.694   6.920  2.3899  1.0104  2.7125
  142OSM    C1215549   4.218   4.559   6.865  0.0271  1.0235  0.4762
  142OSM   H12A15550   4.137   4.488   6.874  0.8165 -0.2008 -1.4016
  142OSM   H12B15551   4.275   4.519   6.782  0.5667  0.5915  1.0481
  142OSM    C1115552   4.172   4.696   6.817 -0.3688  0.3026 -0.2449
  142OSM   H11A15553   4.116   4.737   6.904 -1.7788  0.9917 -1.4373
  142OSM   H11B15554   4.092   4.683   6.741 -0.1982 -2.0047 -0.0856
  142OSM      P15555   4.281   4.940   6.780  0.2124  0.0812 -0.6305
  142OSM    O1315556   4.227   5.007   6.664  0.1180 -0.3223  0.0349
  142OSM    O1415557   4.235   4.974   6.923 -0.0463 -0.2135  0.2284
  142OSM    O1115558   4.430   4.971   6.780  0.3141  0.0180  0.4292
  142OSM    O1215559   4.277   4.782   6.770  0.2756  0.5510  0.1800
  142OSM    C1S15560   4.509   4.926   6.676  0.1079 -0.3276  1.2389
  142OSM    H1S15561   4.487   4.822   6.643  1.7450  0.3463 -2.4798
  142OSM    H1T15562   4.617   4.922   6.705  0.7261 -0.0371 -0.8745
  142OSM     NF15563   4.584   4.980   6.448  0.7012  0.4494  0.3939
  142OSM    HNF15564   4.680   4.999   6.432  0.7818 -0.4632 -0.2697
  142OSM    C2S15565   4.513   5.038   6.559  0.1800  0.0703  0.0374
  142OSM    H2S15566   4.409   5.054   6.524  0.2868  1.5636  0.3608
  142OSM    C3S15567   4.582   5.166   6.608 -0.1466 -0.1586 -0.5157
  142OSM    H3S15568   4.684   5.143   6.647 -0.4978 -0.6760  0.1073
  142OSM     O315569   4.508   5.233   6.707 -0.4083 -0.3015 -0.1448
  142OSM    HO315570   4.437   5.177   6.741 -1.0264  0.9042  0.6162
  142OSM    C4S15571   4.605   5.249   6.479  0.8213  0.7372  0.1767
  142OSM    H4S15572   4.694   5.224   6.420 -0.1718  0.2153 -1.1569
  142OSM    C5S15573   4.519   5.344   6.421 -0.2116  0.1568  0.1371
  142OSM    H5S15574   4.435   5.378   6.483  0.2539 -2.4996  2.4068
  142OSM    C6S15575   4.554   5.420   6.290  0.2893 -0.4546  0.4883
  142OSM    H6S15576   4.664   5.429   6.275  0.4009 -0.9488  0.9953
  142OSM    H6T15577   4.504   5.519   6.285 -0.6295 -0.9494 -0.4958
  142OSM    C7S15578   4.480   5.356   6.169 -0.2680 -0.0933 -0.2540
  142OSM    H7S15579   4.512   5.411   6.078  0.7120 -1.7580 -0.9769
  142OSM    H7T15580   4.371   5.363   6.184 -0.3825 -1.5600 -0.2205
  142OSM    C8S15581   4.518   5.209   6.154  0.4351 -0.5188 -0.0204
  142OSM    H8S15582   4.478   5.143   6.233 -1.5968  1.1166  0.3798
  142OSM    H8T15583   4.629   5.201   6.158  0.5830  1.5308  2.1999
  142OSM    C9S15584   4.469   5.160   6.017  0.4615  0.0006 -0.4442
  142OSM    H9S15585   4.381   5.223   5.990  0.2449  0.5278  1.3146
  142OSM    H9T15586   4.428   5.057   6.023  0.0834  0.2197  1.5307
  142OSM   C10S15587   4.576   5.148   5.915 -0.0539 -0.0051 -0.1742
  142OSM   H10S15588   4.663   5.106   5.968  0.3301  3.1228  1.9204
  142OSM   H10T15589   4.606   5.250   5.883 -0.8039 -0.1323 -1.3694
  142OSM   C11S15590   4.548   5.069   5.788 -0.0706  0.0887 -0.0251
  142OSM   H11S15591   4.471   5.119   5.725  0.9016  0.8264 -0.6501
  142OSM   H11T15592   4.506   4.972   5.822  1.0485 -0.2440  0.4595
  142OSM   C12S15593   4.680   5.047   5.704  0.0730  0.2698  0.0881
  142OSM   H12S15594   4.755   5.002   5.773 -0.4020  0.5910  0.8238
  142OSM   H12T15595   4.711   5.148   5.670  0.0058 -0.0104 -0.8039
  142OSM   C13S15596   4.658   4.976   5.570 -0.3072 -0.2676  0.3247
  142OSM   H13S15597   4.591   5.036   5.505  0.3655 -1.8240 -1.9192
  142OSM   H13T15598   4.610   4.878   5.588 -0.1448 -0.9577 -2.4517
  142OSM   C14S15599   4.787   4.954   5.493 -0.3137  0.2143  0.4049
  142OSM   H14S15600   4.831   4.855   5.519  0.7012  0.9636  1.6636
  142OSM   H14T15601   4.862   5.035   5.509  1.2303 -0.8995 -0.8561
  142OSM   C15S15602   4.764   4.943   5.339 -1.6292  0.3046  0.7029
  142OSM   H15S15603   4.733   5.045   5.305  0.7096  0.5248 -1.0304
  142OSM   H15T15604   4.680   4.872   5.320 -0.0025 -1.3790 -0.6200
  142OSM   C16S15605   4.887   4.890   5.263 -0.6619 -0.9986  0.7596
  142OSM   H16S15606   4.910   4.783   5.281 -0.1810 -1.3275 -1.5307
  142OSM   H16T15607   4.973   4.950   5.298  0.0489 -0.2536 -1.9895
  142OSM   C17S15608   4.867   4.902   5.106 -0.4507 -0.0430 -0.0209
  142OSM   H17S15609   4.777   4.843   5.076 -2.0947  2.3876 -0.1380
  142OSM   H17T15610   4.957   4.851   5.065 -1.2581 -0.3999 -1.4342
  142OSM   C18S15611   4.852   5.051   5.063 -1.2055 -0.4869  0.4974
  142OSM   H18S15612   4.746   5.085   5.072 -1.6163 -0.8146 -2.1792
  142OSM   H18T15613   4.887   5.065   4.958 -0.2027 -0.3006  0.8472
  142OSM   H18U15614   4.929   5.103   5.122 -0.9269  0.8142 -0.9579
  142OSM    C1F15615   4.521   4.882   6.378 -0.0735 -0.5305 -0.1919
  142OSM     OF15616   4.400   4.859   6.390  0.2402  0.1390  0.0227
  142OSM    C2F15617   4.610   4.809   6.274 -0.2045  0.1836  0.0540
  142OSM    H2F15618   4.670   4.729   6.322  0.0870  0.5331  0.2769
  142OSM    H2G15619   4.683   4.879   6.229 -0.4185  0.7714  0.6000
  142OSM    C3F15620   4.520   4.761   6.160  0.7968 -0.6019  0.2017
  142OSM    H3F15621   4.466   4.851   6.123  3.1496 -0.0526 -2.1955
  142OSM    H3G15622   4.452   4.689   6.212 -1.1723  1.9920  1.4439
  142OSM    C4F15623   4.595   4.702   6.039  0.7472 -0.4668  0.0852
  142OSM    H4F15624   4.679   4.652   6.092 -1.2305 -0.4045  3.6179
  142OSM    H4G15625   4.635   4.786   5.978  0.8575 -2.4331 -2.7317
  142OSM    C5F15626   4.522   4.605   5.954  0.3835 -0.2089  0.5988
  142OSM    H5F15627   4.434   4.651   5.905 -1.6198 -2.9532  1.3611
  142OSM    H5G15628   4.498   4.509   6.006  1.4290 -1.2701 -0.8188
  142OSM    C6F15629   4.599   4.562   5.825  0.5289 -0.5948  0.2470
  142OSM    H6F15630   4.687   4.502   5.859  2.0927  2.1686  1.3974
  142OSM    H6G15631   4.646   4.649   5.775  1.1257 -0.4155  1.0969
  142OSM    C7F15632   4.506   4.480   5.733  1.1023  0.0075 -0.4362
  142OSM    H7F15633   4.420   4.531   5.685  0.7542 -0.5102 -0.3708
  142OSM    H7G15634   4.467   4.394   5.792 -0.7484  0.6161 -0.7121
  142OSM    C8F15635   4.584   4.432   5.606 -0.0642  0.2744 -0.1960
  142OSM    H8F15636   4.677   4.380   5.639 -0.4641  0.0462  0.6059
  142OSM    H8G15637   4.625   4.529   5.569 -0.5398  0.6172  0.1631
  142OSM    C9F15638   4.504   4.354   5.509  0.2537 -0.6874 -0.0192
  142OSM    H9F15639   4.497   4.247   5.531  1.5948 -0.6687  0.6082
  142OSM   C10F15640   4.452   4.399   5.390 -0.6770 -0.2162 -0.0047
  142OSM   H10F15641   4.404   4.324   5.326  0.5904 -0.1162 -1.1175
  142OSM   C11F15642   4.459   4.535   5.323 -0.2605  0.6970 -0.1234
  142OSM   H11F15643   4.487   4.612   5.398 -2.4586  2.1984 -0.7499
  142OSM   H11G15644   4.365   4.559   5.270 -1.4999  1.7278  2.3887
  142OSM   C12F15645   4.579   4.555   5.227 -0.1561  0.0287 -0.1642
  142OSM   H12F15646   4.664   4.531   5.294  0.4466  1.3073 -0.4554
  142OSM   H12G15647   4.588   4.663   5.205 -1.2044  0.6294  2.0719
  142OSM   C13F15648   4.568   4.476   5.099 -0.1320 -0.2091 -0.7098
  142OSM   H13F15649   4.461   4.488   5.071  0.2919 -0.9326 -2.7701
  142OSM   H13G15650   4.605   4.373   5.116 -0.2631  0.1445  2.2096
  142OSM   C14F15651   4.654   4.541   4.988 -0.3998  0.2205 -0.2987
  142OSM   H14F15652   4.751   4.529   5.042 -1.2278 -0.9310  0.9783
  142OSM   H14G15653   4.640   4.650   4.975 -0.8169  0.7676  3.6830
  142OSM   C15F15654   4.665   4.475   4.854  0.7947 -0.2971  0.4812
  142OSM   H15F15655   4.675   4.366   4.868  0.0867 -0.7771 -2.1242
  142OSM   H15G15656   4.756   4.513   4.802 -0.4575  1.2803 -0.6724
  142OSM   C16F15657   4.536   4.497   4.766 -0.2970 -0.3200 -0.1557
  142OSM   H16F15658   4.509   4.605   4.772  1.3838  0.0703  1.3945
  142OSM   H16G15659   4.451   4.446   4.816  0.2543 -0.5434  0.5780
  142OSM   C17F15660   4.555   4.461   4.619  0.2702  1.0806 -0.2799
  142OSM   H17F15661   4.661   4.487   4.601  0.9779 -1.9483 -1.1546
  142OSM   H17G15662   4.490   4.522   4.554 -1.0738 -0.8602 -0.8733
  142OSM   C18F15663   4.525   4.315   4.588 -0.2014 -0.0626  0.0483
  142OSM   H18F15664   4.590   4.252   4.652  0.7299  1.3465  0.5450
  142OSM   H18G15665   4.553   4.291   4.484  0.1481  0.9610 -0.1059
  142OSM   H18H15666   4.418   4.285   4.594 -0.0637 -0.4795  0.5101
  143OSM      N15667   4.088   2.544   7.376 -0.2603  0.6845  0.2171
  143OSM    C1515668   4.116   2.672   7.441 -0.4198 -0.2962 -1.1719
  143OSM   H15A15669   4.173   2.662   7.532 -1.5986 -3.0659 -0.6500
  143OSM   H15B15670   4.029   2.729   7.470  1.6391  1.3260  2.5880
  143OSM   H15C15671   4.173   2.730   7.369  0.9796 -0.2169 -0.0350
  143OSM    C1415672   4.207   2.503   7.296  0.4233 -0.1818 -0.3160
  143OSM   H14A15673   4.293   2.481   7.357 -0.2433 -1.0161  0.3484
  143OSM   H14B15674   4.237   2.580   7.227  1.0810  0.2755  0.4684
  143OSM   H14C15675   4.183   2.418   7.233 -1.4323  0.3134 -0.3511
  143OSM    C1315676   4.062   2.443   7.480  0.9249  0.7628  0.0169
  143OSM   H13A15677   4.071   2.349   7.426  1.7052  1.8123 -1.7732
  143OSM   H13B15678   3.959   2.445   7.512  1.0281 -0.7407  0.5121
  143OSM   H13C15679   4.136   2.440   7.559  0.0685 -1.3376  0.8341
  143OSM    C1215680   3.966   2.571   7.287 -0.0742 -0.3507  0.1886
  143OSM   H12A15681   3.876   2.596   7.341 -0.1566 -0.1287 -0.0465
  143OSM   H12B15682   3.932   2.477   7.245 -1.3047  0.2899 -0.2970
  143OSM    C1115683   3.976   2.674   7.174 -0.4008 -0.0560 -0.1944
  143OSM   H11A15684   3.894   2.662   7.100  0.7288 -4.3282 -1.0148
  143OSM   H11B15685   4.053   2.635   7.104 -0.7461 -2.1715  0.5611
  143OSM      P15686   3.911   2.927   7.216  0.4694  0.5137  0.1869
  143OSM    O1315687   3.789   2.871   7.285  0.3877  0.2228 -0.3202
  143OSM    O1415688   3.965   3.049   7.282  0.4003  0.3202  0.2391
  143OSM    O1115689   3.888   2.949   7.060 -0.5145 -0.3104  0.5166
  143OSM    O1215690   4.012   2.812   7.218  0.2950 -0.8887  0.6423
  143OSM    C1S15691   3.997   2.974   6.971 -0.4864  0.3845 -0.5094
  143OSM    H1S15692   4.094   2.982   7.025 -0.0206  0.5482 -1.3698
  143OSM    H1T15693   3.979   3.077   6.932  1.0145  0.2991 -1.4795
  143OSM     NF15694   4.114   2.921   6.761  0.2653 -0.0713  0.0024
  143OSM    HNF15695   4.097   2.961   6.672  1.0215  0.6378  0.1574
  143OSM    C2S15696   4.002   2.885   6.847  0.6223  0.0879  0.7404
  143OSM    H2S15697   4.027   2.787   6.894 -1.6344 -0.8935  0.0623
  143OSM    C3S15698   3.864   2.855   6.785 -0.3773 -0.1587  0.2462
  143OSM    H3S15699   3.833   2.952   6.741 -1.2369  0.9792  3.0935
  143OSM     O315700   3.750   2.829   6.871 -0.0349  0.0791 -0.2856
  143OSM    HO315701   3.782   2.861   6.956  0.3357 -0.3486 -0.2572
  143OSM    C4S15702   3.890   2.747   6.678  0.2509 -0.9135 -0.1062
  143OSM    H4S15703   3.943   2.656   6.712  2.8839  0.2932 -0.7793
  143OSM    C5S15704   3.832   2.734   6.557 -0.3695  0.2280  0.1319
  143OSM    H5S15705   3.755   2.808   6.530 -0.1523  0.7266  0.8569
  143OSM    C6S15706   3.840   2.610   6.464  0.1501 -0.5569  0.2673
  143OSM    H6S15707   3.750   2.548   6.445  0.4029 -0.7222 -0.4468
  143OSM    H6T15708   3.918   2.536   6.494 -2.3052 -3.4578 -0.0400
  143OSM    C7S15709   3.886   2.647   6.327 -0.1622  0.0034 -0.0794
  143OSM    H7S15710   3.983   2.702   6.323 -1.3366  2.0800 -0.8914
  143OSM    H7T15711   3.820   2.727   6.288  1.3117  1.7804  0.9064
  143OSM    C8S15712   3.893   2.525   6.228  0.4964 -0.3330  0.4178
  143OSM    H8S15713   3.817   2.449   6.254 -0.2024  0.1547 -0.1357
  143OSM    H8T15714   3.990   2.474   6.244  0.1228 -1.1556  0.1125
  143OSM    C9S15715   3.878   2.567   6.080 -0.6341 -0.5695  0.0776
  143OSM    H9S15716   3.773   2.585   6.048 -1.1018  1.5349  2.4909
  143OSM    H9T15717   3.909   2.479   6.020 -0.1568 -1.3460  1.4091
  143OSM   C10S15718   3.981   2.670   6.035 -0.7026  0.0451  0.5675
  143OSM   H10S15719   4.081   2.655   6.081 -0.6126 -0.8045  0.1237
  143OSM   H10T15720   3.934   2.769   6.054 -2.3572 -0.6977  0.5230
  143OSM   C11S15721   4.015   2.671   5.885 -0.2693  0.4583  0.0929
  143OSM   H11S15722   4.061   2.573   5.858  2.9039  1.2684  2.0900
  143OSM   H11T15723   4.081   2.757   5.865 -2.9205  2.4001 -0.8367
  143OSM   C12S15724   3.893   2.678   5.795  0.6165 -0.1177  0.6447
  143OSM   H12S15725   3.855   2.782   5.806 -4.3384 -1.2209 -2.7597
  143OSM   H12T15726   3.815   2.603   5.819  0.4762 -1.4007 -3.2108
  143OSM   C13S15727   3.929   2.639   5.651  0.4555 -0.3096 -0.0179
  143OSM   H13S15728   3.949   2.533   5.627 -0.8650 -0.0353 -2.6660
  143OSM   H13T15729   4.016   2.708   5.637  0.1412  0.7322  2.5622
  143OSM   C14S15730   3.821   2.676   5.546  0.5256 -0.1481 -0.0847
  143OSM   H14S15731   3.800   2.785   5.549 -4.6582 -0.9025  1.3209
  143OSM   H14T15732   3.723   2.628   5.566  2.0021 -1.7352  4.6569
  143OSM   C15S15733   3.870   2.645   5.405 -0.8048  0.2445 -0.3697
  143OSM   H15S15734   3.856   2.538   5.377  1.3710 -0.2332  0.1980
  143OSM   H15T15735   3.973   2.686   5.396 -1.6714  2.4410 -1.1207
  143OSM   C16S15736   3.802   2.730   5.292 -0.3084 -0.0586  0.1020
  143OSM   H16S15737   3.696   2.703   5.306 -1.2010  2.8054 -0.4463
  143OSM   H16T15738   3.839   2.695   5.193  0.0293  3.1612 -1.0545
  143OSM   C17S15739   3.841   2.878   5.294 -0.2027 -0.8228  0.8568
  143OSM   H17S15740   3.952   2.886   5.302 -0.2634  1.5432  0.2754
  143OSM   H17T15741   3.799   2.931   5.382  1.0741  1.0387  0.4263
  143OSM   C18S15742   3.792   2.952   5.165  0.2688 -0.5111 -0.6467
  143OSM   H18S15743   3.686   2.983   5.178 -0.0890 -1.9265 -0.0205
  143OSM   H18T15744   3.804   2.892   5.072 -4.0086 -0.5508 -1.3846
  143OSM   H18U15745   3.849   3.047   5.156  1.2201 -1.0773 -0.7330
  143OSM    C1F15746   4.240   2.919   6.806  0.2763  0.1946  0.4637
  143OSM     OF15747   4.266   2.844   6.898 -0.0570  0.0230  0.4264
  143OSM    C2F15748   4.351   3.003   6.746 -0.1978 -0.2702 -0.7666
  143OSM    H2F15749   4.434   3.017   6.818 -0.1094 -1.3350 -0.6478
  143OSM    H2G15750   4.306   3.104   6.733 -1.0001  0.3690  4.8100
  143OSM    C3F15751   4.421   2.936   6.620 -0.2685  0.8812  0.2018
  143OSM    H3F15752   4.438   2.831   6.651 -1.5566  0.8615  0.8919
  143OSM    H3G15753   4.509   2.996   6.588 -0.5868  0.1142 -2.3847
  143OSM    C4F15754   4.341   2.936   6.489 -0.4724  0.2510 -0.3757
  143OSM    H4F15755   4.339   3.037   6.442 -2.3751  1.1397  1.4388
  143OSM    H4G15756   4.239   2.900   6.513 -0.6638  0.8503 -0.2744
  143OSM    C5F15757   4.411   2.831   6.395 -0.1395  0.5894  0.1415
  143OSM    H5F15758   4.404   2.726   6.432  1.5072  0.3843 -0.0774
  143OSM    H5G15759   4.521   2.847   6.387  0.2975 -2.2591 -0.3977
  143OSM    C6F15760   4.352   2.853   6.252 -0.3592  0.5858  0.3151
  143OSM    H6F15761   4.337   2.963   6.257  1.3761  0.8226  0.9552
  143OSM    H6G15762   4.256   2.797   6.252  0.4644 -0.8601  1.3115
  143OSM    C7F15763   4.458   2.817   6.140 -0.5989  0.0921 -0.8298
  143OSM    H7F15764   4.487   2.711   6.151 -0.2398  0.2399 -0.3255
  143OSM    H7G15765   4.543   2.887   6.155 -0.6325  0.7891 -3.4290
  143OSM    C8F15766   4.398   2.835   6.001  0.3030 -0.0599 -0.5009
  143OSM    H8F15767   4.370   2.942   5.984 -0.3335  0.0712  1.2336
  143OSM    H8G15768   4.306   2.773   5.994 -1.1039  2.0384 -2.2124
  143OSM    C9F15769   4.506   2.806   5.901  0.1942  0.8011 -0.0712
  143OSM    H9F15770   4.607   2.849   5.908 -0.7822  3.1192  1.1718
  143OSM   C10F15771   4.495   2.717   5.794 -0.4479  0.1375 -0.0772
  143OSM   H10F15772   4.579   2.710   5.723 -0.5848 -1.0820 -0.1510
  143OSM   C11F15773   4.372   2.641   5.740  0.1435  0.1808  0.3725
  143OSM   H11F15774   4.285   2.668   5.804 -0.2449  2.4094 -0.9954
  143OSM   H11G15775   4.394   2.532   5.749  1.6398  0.3242 -1.1448
  143OSM   C12F15776   4.333   2.666   5.593  0.9974 -0.2296 -0.3829
  143OSM   H12F15777   4.336   2.776   5.580  1.1808 -0.3954 -2.0296
  143OSM   H12G15778   4.224   2.650   5.579  1.0384 -1.6449  0.6853
  143OSM   C13F15779   4.414   2.602   5.483 -1.0566  0.6864 -0.3753
  143OSM   H13F15780   4.405   2.492   5.485  1.3629  0.3753 -2.0505
  143OSM   H13G15781   4.519   2.631   5.501 -1.0981  0.7946 -0.3092
  143OSM   C14F15782   4.376   2.646   5.343  0.3758  1.0044  0.2084
  143OSM   H14F15783   4.318   2.741   5.347 -0.7467  0.3612 -0.3210
  143OSM   H14G15784   4.317   2.574   5.283  1.2152  1.0385 -0.6800
  143OSM   C15F15785   4.506   2.668   5.262  0.6030 -0.9834 -0.1655
  143OSM   H15F15786   4.561   2.573   5.247 -2.0576 -2.6558  0.1397
  143OSM   H15G15787   4.567   2.735   5.327 -4.0393  1.2741  2.4007
  143OSM   C16F15788   4.488   2.714   5.119 -0.1742  0.0794  0.7504
  143OSM   H16F15789   4.440   2.814   5.117  0.9728  0.6675 -2.4255
  143OSM   H16G15790   4.420   2.641   5.069 -1.2504 -0.3871  2.7485
  143OSM   C17F15791   4.615   2.729   5.042 -0.2624  0.0658  0.1541
  143OSM   H17F15792   4.670   2.633   5.046  1.9578  1.3004  0.8664
  143OSM   H17G15793   4.686   2.796   5.095  2.9915 -2.2217 -1.0361
  143OSM   C18F15794   4.593   2.763   4.894 -0.0966 -0.5460 -0.0987
  143OSM   H18F15795   4.682   2.738   4.831 -0.0096 -1.9406  0.5202
  143OSM   H18G15796   4.572   2.871   4.880  1.3667 -0.2906 -0.5578
  143OSM   H18H15797   4.504   2.707   4.861 -1.7006  0.8358  1.6597
  144OSM      N15798   4.920   2.578   7.627 -0.5797  0.5494 -0.2894
  144OSM    C1515799   4.970   2.675   7.732  1.2526  0.1966  0.7902
  144OSM   H15A15800   5.017   2.627   7.817  0.7081  0.9164  1.5109
  144OSM   H15B15801   4.899   2.743   7.777 -0.4156 -2.1088  1.8758
  144OSM   H15C15802   5.047   2.742   7.695  2.1157 -0.0959  1.9814
  144OSM    C1415803   5.036   2.487   7.590  0.2787 -0.1538 -0.4125
  144OSM   H14A15804   5.119   2.549   7.558 -0.3148  1.5491  1.1753
  144OSM   H14B15805   5.000   2.412   7.522 -0.3729 -2.1046  1.9281
  144OSM   H14C15806   5.072   2.430   7.675 -1.1441  0.3989  0.5977
  144OSM    C1315807   4.804   2.507   7.690  0.0728  0.6161  0.0102
  144OSM   H13A15808   4.758   2.440   7.618 -1.4164 -0.2307  1.6688
  144OSM   H13B15809   4.720   2.570   7.715  0.1963  1.0618 -0.6643
  144OSM   H13C15810   4.842   2.450   7.773  0.2242 -2.4715 -2.0202
  144OSM    C1215811   4.867   2.661   7.509 -0.9979  0.7279  0.1173
  144OSM   H12A15812   4.936   2.741   7.484  0.3934 -0.3437  0.3828
  144OSM   H12B15813   4.783   2.717   7.547 -1.0237 -1.2216  3.3149
  144OSM    C1115814   4.821   2.586   7.379 -0.3708 -0.2862  0.0919
  144OSM   H11A15815   4.793   2.660   7.301 -0.8040 -0.2016  0.3191
  144OSM   H11B15816   4.730   2.526   7.400 -0.1763 -0.6348 -0.0607
  144OSM      P15817   4.880   2.358   7.274 -0.1041 -0.2078 -0.0015
  144OSM    O1315818   4.999   2.305   7.212  0.0500 -0.1048 -0.5511
  144OSM    O1415819   4.834   2.289   7.391  0.1849 -0.3851 -0.0231
  144OSM    O1115820   4.766   2.370   7.159 -0.6173  0.2083  0.0352
  144OSM    O1215821   4.922   2.509   7.320 -0.1198 -0.0395 -0.3179
  144OSM    C1S15822   4.788   2.453   7.046  0.4955 -0.0595 -0.4579
  144OSM    H1S15823   4.883   2.430   6.995  0.2282  0.2203 -1.0936
  144OSM    H1T15824   4.798   2.558   7.082  1.4155 -0.8086  1.6170
  144OSM     NF15825   4.698   2.547   6.846  0.1300  0.5230  0.3781
  144OSM    HNF15826   4.643   2.628   6.865  1.0464  1.2652 -0.0814
  144OSM    C2S15827   4.676   2.443   6.941 -0.2656  0.7490 -0.6825
  144OSM    H2S15828   4.694   2.344   6.894  0.3257 -0.3040  1.6016
  144OSM    C3S15829   4.540   2.449   7.003 -0.2190  0.2200 -0.2512
  144OSM    H3S15830   4.539   2.552   7.046  2.2359 -0.1392  0.8377
  144OSM     O315831   4.521   2.367   7.119 -0.1784 -0.1664  0.4224
  144OSM    HO315832   4.611   2.336   7.133 -0.3138 -1.3716 -1.0555
  144OSM    C4S15833   4.419   2.429   6.923  0.4474  0.4545 -0.4870
  144OSM    H4S15834   4.406   2.328   6.881 -0.3067  0.0120  0.7548
  144OSM    C5S15835   4.324   2.519   6.901  0.2844 -0.1145 -0.0359
  144OSM    H5S15836   4.317   2.611   6.960  0.0200 -1.4465  2.1094
  144OSM    C6S15837   4.199   2.487   6.820  0.5609  0.5266 -0.4280
  144OSM    H6S15838   4.113   2.531   6.876  0.8033 -1.5066  1.6798
  144OSM    H6T15839   4.180   2.378   6.828  0.7468  0.5576  0.5705
  144OSM    C7S15840   4.200   2.531   6.676  0.1554 -0.8135 -0.5618
  144OSM    H7S15841   4.243   2.631   6.655  0.8476 -0.9879 -0.0171
  144OSM    H7T15842   4.095   2.526   6.641 -0.2760 -0.3175  0.5782
  144OSM    C8S15843   4.273   2.428   6.586  0.6711 -0.2799 -0.7242
  144OSM    H8S15844   4.257   2.326   6.629 -0.7280  0.0233 -0.4880
  144OSM    H8T15845   4.381   2.444   6.607  0.8183 -3.9261  2.5523
  144OSM    C9S15846   4.236   2.444   6.438 -0.0904 -0.6443 -0.9140
  144OSM    H9S15847   4.241   2.554   6.426  0.8659 -0.1496  2.8603
  144OSM    H9T15848   4.136   2.400   6.416  0.6467 -1.2058 -3.6128
  144OSM   C10S15849   4.329   2.379   6.332  0.3471  0.1170 -0.1787
  144OSM   H10S15850   4.327   2.268   6.334  0.0404  0.1215  2.2577
  144OSM   H10T15851   4.435   2.408   6.349  0.7126 -1.0794 -0.3490
  144OSM   C11S15852   4.294   2.431   6.196  0.4801  0.4338 -0.3125
  144OSM   H11S15853   4.282   2.541   6.191  0.5892  0.4168 -1.1952
  144OSM   H11T15854   4.206   2.368   6.170  3.3705 -4.5644  0.6533
  144OSM   C12S15855   4.399   2.395   6.095  0.1051  0.7202  0.1873
  144OSM   H12S15856   4.495   2.436   6.131 -0.2173  0.2625  1.6402
  144OSM   H12T15857   4.368   2.448   6.002  1.8012 -2.3101 -2.3152
  144OSM   C13S15858   4.414   2.247   6.072  0.0223  0.4958 -0.0716
  144OSM   H13S15859   4.314   2.217   6.034 -1.3507  1.0370  2.8695
  144OSM   H13T15860   4.437   2.199   6.170  1.6616  1.9103  0.2857
  144OSM   C14S15861   4.519   2.209   5.962  0.0070  0.4560  0.3850
  144OSM   H14S15862   4.599   2.285   5.960  0.2953  0.1810 -1.8208
  144OSM   H14T15863   4.462   2.209   5.866 -1.3095 -1.6498  1.0894
  144OSM   C15S15864   4.589   2.072   5.981  0.0218 -0.0136  0.3762
  144OSM   H15S15865   4.527   1.995   5.932 -0.7237 -1.0814  2.8433
  144OSM   H15T15866   4.595   2.053   6.090  0.9267  0.4175  0.4137
  144OSM   C16S15867   4.734   2.053   5.922  0.4787  0.0820  0.2760
  144OSM   H16S15868   4.739   2.076   5.813  2.1936 -2.4863 -0.2716
  144OSM   H16T15869   4.755   1.944   5.916  0.1919 -0.0414  1.2970
  144OSM   C17S15870   4.847   2.127   6.002  0.3620  0.4301  0.1051
  144OSM   H17S15871   4.821   2.235   6.004 -1.8587 -0.0490  2.3894
  144OSM   H17T15872   4.938   2.121   5.939 -1.9293  2.2248 -3.7213
  144OSM   C18S15873   4.865   2.075   6.139 -0.2381  0.4990 -0.2500
  144OSM   H18S15874   4.774   2.088   6.202  0.4485 -0.6787  1.0530
  144OSM   H18T15875   4.946   2.128   6.192 -1.6379  0.7588  1.7489
  144OSM   H18U15876   4.903   1.971   6.138 -0.8980  0.2353 -1.7161
  144OSM    C1F15877   4.801   2.550   6.764 -0.3094  0.0967 -0.4505
  144OSM     OF15878   4.868   2.447   6.747 -0.2019 -0.5931 -1.0294
  144OSM    C2F15879   4.836   2.671   6.687  0.1703 -0.7629  0.1479
  144OSM    H2F15880   4.934   2.704   6.728 -0.5182  1.0149  0.4753
  144OSM    H2G15881   4.768   2.754   6.716 -1.1256 -1.7988  0.1189
  144OSM    C3F15882   4.851   2.663   6.539  0.0931  0.4774  0.5684
  144OSM    H3F15883   4.950   2.620   6.514 -0.4474 -0.0447 -0.7620
  144OSM    H3G15884   4.849   2.763   6.490 -0.1829 -0.5346 -1.6067
  144OSM    C4F15885   4.742   2.585   6.471  0.2836  0.4825  0.2449
  144OSM    H4F15886   4.646   2.642   6.475  0.3936  0.6328  0.9750
  144OSM    H4G15887   4.715   2.492   6.524 -1.1395  0.2008 -0.9231
  144OSM    C5F15888   4.782   2.559   6.325 -0.2494 -0.2610 -0.1125
  144OSM    H5F15889   4.698   2.508   6.273 -1.5172  1.2405  0.3832
  144OSM    H5G15890   4.873   2.495   6.314 -0.3367 -0.6191  1.0341
  144OSM    C6F15891   4.811   2.684   6.250 -1.0211  0.2569  0.4400
  144OSM    H6F15892   4.902   2.736   6.287 -1.8232  1.4905  0.7523
  144OSM    H6G15893   4.726   2.750   6.277  0.4417  1.2929  2.8562
  144OSM    C7F15894   4.823   2.664   6.096 -0.3128  0.2112  0.4236
  144OSM    H7F15895   4.858   2.760   6.053 -2.1300  0.6423 -0.1923
  144OSM    H7G15896   4.720   2.656   6.054 -0.7599  1.3669  1.2284
  144OSM    C8F15897   4.894   2.536   6.045  0.5755 -0.0361  0.2999
  144OSM    H8F15898   4.857   2.522   5.941  0.8901 -0.4384  0.2437
  144OSM    H8G15899   4.863   2.446   6.101 -1.9050 -0.6023 -1.7425
  144OSM    C9F15900   5.048   2.533   6.046  0.2752 -0.9153  0.0282
  144OSM    H9F15901   5.088   2.600   6.123 -1.4729 -0.2924  0.4551
  144OSM   C10F15902   5.124   2.475   5.954  0.8386  0.0731 -0.3463
  144OSM   H10F15903   5.232   2.483   5.969  0.8577  0.6692 -0.7947
  144OSM   C11F15904   5.085   2.389   5.836 -0.3802 -0.1210  0.3148
  144OSM   H11F15905   4.991   2.335   5.857  0.1686 -1.7777 -1.2356
  144OSM   H11G15906   5.170   2.323   5.809  0.7250  1.8776 -1.4800
  144OSM   C12F15907   5.054   2.485   5.718  0.5167 -0.0312 -0.4771
  144OSM   H12F15908   5.140   2.541   5.675  0.4685  0.1356 -0.3556
  144OSM   H12G15909   4.979   2.563   5.746  0.5377  0.6592 -2.2131
  144OSM   C13F15910   5.002   2.395   5.602  0.0760  0.0703 -1.1673
  144OSM   H13F15911   5.079   2.321   5.572  0.3122  0.0373 -0.4933
  144OSM   H13G15912   4.983   2.451   5.508 -0.7949 -1.6670 -2.0674
  144OSM   C14F15913   4.856   2.344   5.634  0.0008 -0.6708  0.1176
  144OSM   H14F15914   4.803   2.415   5.701  1.3883 -0.7835  1.3763
  144OSM   H14G15915   4.865   2.252   5.696  0.7252 -1.4450 -1.0824
  144OSM   C15F15916   4.766   2.311   5.511  0.0147  1.0908 -0.4600
  144OSM   H15F15917   4.829   2.248   5.443  0.3528 -0.0151  0.8288
  144OSM   H15G15918   4.751   2.410   5.464  1.1229  0.9273 -1.2136
  144OSM   C16F15919   4.635   2.234   5.526  0.7602  0.0966 -1.1544
  144OSM   H16F15920   4.583   2.291   5.606  3.2517  0.6968  0.1449
  144OSM   H16G15921   4.652   2.129   5.560  0.1218 -0.0155 -1.1510
  144OSM   C17F15922   4.546   2.226   5.403 -0.3892 -0.1372 -0.4471
  144OSM   H17F15923   4.516   2.331   5.383  0.2646  0.5853  2.0800
  144OSM   H17G15924   4.452   2.175   5.435  0.8839 -1.7204  0.9296
  144OSM   C18F15925   4.605   2.157   5.280  0.0885  0.1058  0.5051
  144OSM   H18F15926   4.543   2.160   5.188  1.2832  0.5270 -0.3129
  144OSM   H18G15927   4.633   2.051   5.297  0.6590  0.2972  0.7967
  144OSM   H18H15928   4.706   2.202   5.262  1.0585 -1.7548  1.0804
  145OSM      N15929   5.733   4.103   6.904  0.2988 -0.3558 -0.0750
  145OSM    C1515930   5.848   4.196   6.892 -0.5750 -0.4547  0.1766
  145OSM   H15A15931   5.820   4.290   6.848  0.4781  0.7973  2.0361
  145OSM   H15B15932   5.906   4.150   6.813 -1.5153 -1.5224  0.0703
  145OSM   H15C15933   5.907   4.211   6.981 -0.4744  1.3572 -0.1676
  145OSM    C1415934   5.666   4.089   6.773 -0.3600  0.5203  1.1424
  145OSM   H14A15935   5.571   4.037   6.774 -0.1119 -0.1033 -1.2122
  145OSM   H14B15936   5.725   4.041   6.696  0.4194  0.0252  2.0338
  145OSM   H14C15937   5.635   4.184   6.731  1.1680 -0.0081 -1.3996
  145OSM    C1315938   5.785   3.966   6.934  0.1793 -0.8008  0.3919
  145OSM   H13A15939   5.851   3.925   6.859  2.2554  2.2092  0.4084
  145OSM   H13B15940   5.702   3.900   6.956  0.8406 -1.2617  1.6387
  145OSM   H13C15941   5.845   3.971   7.024 -1.2855 -0.6210  1.3997
  145OSM    C1215942   5.627   4.152   7.007 -0.1236 -0.0331  0.6285
  145OSM   H12A15943   5.581   4.243   6.972  0.8707 -0.4011 -1.8500
  145OSM   H12B15944   5.687   4.168   7.096 -0.1666 -0.1360  0.6762
  145OSM    C1115945   5.503   4.055   7.030  0.3147 -0.1510 -0.4238
  145OSM   H11A15946   5.439   4.029   6.944 -0.2561 -1.1881  0.2999
  145OSM   H11B15947   5.440   4.109   7.104  0.9762 -0.6456  0.5288
  145OSM      P15948   5.456   3.809   7.101  0.0706  0.4162  0.2059
  145OSM    O1315949   5.502   3.710   7.203  1.0013  0.1364 -0.2310
  145OSM    O1415950   5.314   3.849   7.105 -0.0951  0.3730 -0.5207
  145OSM    O1115951   5.497   3.757   6.959  0.1260 -0.2469  0.2132
  145OSM    O1215952   5.546   3.934   7.100  0.4493  0.0287  0.4364
  145OSM    C1S15953   5.402   3.775   6.844  0.3976  0.7488  0.8521
  145OSM    H1S15954   5.341   3.868   6.844 -1.1698 -0.1702 -1.4458
  145OSM    H1T15955   5.335   3.687   6.857 -1.0770  1.8332  0.8737
  145OSM     NF15956   5.376   3.832   6.606  0.2396  0.4206  0.0169
  145OSM    HNF15957   5.309   3.765   6.575  2.1308 -1.3030 -0.5364
  145OSM    C2S15958   5.467   3.775   6.706 -0.4630  0.5618  0.3288
  145OSM    H2S15959   5.554   3.843   6.713  0.3500 -0.4870  0.6113
  145OSM    C3S15960   5.516   3.636   6.668 -0.4727 -0.3845 -0.6938
  145OSM    H3S15961   5.432   3.564   6.679 -0.4065 -0.2878  0.5041
  145OSM     O315962   5.614   3.570   6.752 -0.5850  0.4301 -0.0927
  145OSM    HO315963   5.658   3.641   6.799  0.1737 -0.0063 -0.1252
  145OSM    C4S15964   5.564   3.629   6.523  0.1977 -0.4313  0.3164
  145OSM    H4S15965   5.498   3.566   6.462  0.5731  1.6690 -2.4743
  145OSM    C5S15966   5.675   3.685   6.474 -0.4535  0.5735 -0.2586
  145OSM    H5S15967   5.737   3.740   6.545  0.5381  1.3562 -1.6766
  145OSM    C6S15968   5.728   3.678   6.334 -0.5690  0.9186  0.7393
  145OSM    H6S15969   5.726   3.584   6.273 -1.4366  2.4907 -1.8080
  145OSM    H6T15970   5.838   3.693   6.342 -0.4293 -0.1325  0.9411
  145OSM    C7S15971   5.687   3.796   6.242  0.3302  0.8236 -0.5852
  145OSM    H7S15972   5.705   3.897   6.284  0.6225  1.3958 -2.0194
  145OSM    H7T15973   5.576   3.791   6.246  0.2585  2.6566  1.0532
  145OSM    C8S15974   5.734   3.779   6.098 -0.3509 -0.0411 -0.2732
  145OSM    H8S15975   5.708   3.680   6.056  0.8186 -1.0862  1.3757
  145OSM    H8T15976   5.845   3.777   6.094 -0.4015 -1.3373 -1.5544
  145OSM    C9S15977   5.696   3.894   6.004 -0.0072  1.1446  0.1288
  145OSM    H9S15978   5.736   3.994   6.032 -0.8065  1.8736 -1.2232
  145OSM    H9T15979   5.586   3.879   6.000 -0.1818  2.0116  1.1996
  145OSM   C10S15980   5.735   3.844   5.867  0.3298  0.3172 -0.3688
  145OSM   H10S15981   5.724   3.734   5.857  0.2386  0.4106 -1.3555
  145OSM   H10T15982   5.844   3.857   5.849  1.0921 -3.1557  0.9784
  145OSM   C11S15983   5.675   3.919   5.754  0.0854  0.1170  0.2038
  145OSM   H11S15984   5.709   4.024   5.752 -1.1782  0.5249 -1.2394
  145OSM   H11T15985   5.565   3.921   5.774 -0.2748 -3.1592 -0.9169
  145OSM   C12S15986   5.696   3.848   5.617 -0.2742  0.1457 -0.0413
  145OSM   H12S15987   5.693   3.737   5.623  0.4641  0.1259  0.0240
  145OSM   H12T15988   5.798   3.872   5.581 -0.6866  0.3307 -1.1553
  145OSM   C13S15989   5.591   3.893   5.518 -0.1466  0.0500 -0.7653
  145OSM   H13S15990   5.601   4.001   5.493  2.0391 -0.1892 -1.1148
  145OSM   H13T15991   5.486   3.872   5.546 -0.0392  0.5582  0.0590
  145OSM   C14S15992   5.616   3.815   5.383 -0.8689 -0.4985 -0.4218
  145OSM   H14S15993   5.599   3.707   5.403  1.0388 -0.7276  0.2156
  145OSM   H14T15994   5.727   3.819   5.370 -0.5012  1.5884  2.4254
  145OSM   C15S15995   5.526   3.868   5.273 -0.1963  0.1426  0.0209
  145OSM   H15S15996   5.538   3.978   5.282  1.1722 -0.1185  2.0877
  145OSM   H15T15997   5.422   3.844   5.301  0.1168  0.5338  1.6520
  145OSM   C16S15998   5.576   3.812   5.135 -0.0170  0.1886 -0.2960
  145OSM   H16S15999   5.579   3.702   5.123  1.5392 -0.1516  2.3415
  145OSM   H16T16000   5.682   3.842   5.124 -0.0800  0.1330 -1.0987
  145OSM   C17S16001   5.499   3.875   5.013  0.1541 -0.4112  0.5357
  145OSM   H17S16002   5.502   3.985   5.027 -2.1465 -0.5230  2.4895
  145OSM   H17T16003   5.390   3.854   5.014  0.1650 -0.4784  0.2415
  145OSM   C18S16004   5.550   3.834   4.878 -0.5380  0.0028 -0.8645
  145OSM   H18S16005   5.539   3.724   4.864 -2.0112  0.2603 -1.9400
  145OSM   H18T16006   5.658   3.861   4.873 -0.3041 -0.5632  0.5584
  145OSM   H18U16007   5.494   3.893   4.802  0.0694 -1.4951 -2.5267
  145OSM    C1F16008   5.353   3.968   6.593 -0.1969 -0.4015 -0.1140
  145OSM     OF16009   5.401   4.052   6.668 -0.1692 -0.2733  0.2173
  145OSM    C2F16010   5.246   3.998   6.491  0.2143 -0.0970 -0.7138
  145OSM    H2F16011   5.147   3.991   6.542  0.0121  0.0006 -1.0851
  145OSM    H2G16012   5.249   3.932   6.402 -0.4865 -1.5990  0.3438
  145OSM    C3F16013   5.261   4.141   6.444 -0.2957 -0.6004  0.1368
  145OSM    H3F16014   5.253   4.222   6.519  2.0990 -0.5567  0.4142
  145OSM    H3G16015   5.169   4.148   6.381  1.1935  0.5881 -2.0338
  145OSM    C4F16016   5.389   4.165   6.371  0.0183 -0.2604 -0.1001
  145OSM    H4F16017   5.479   4.154   6.435 -0.0693 -0.2983  0.0159
  145OSM    H4G16018   5.390   4.272   6.338  5.0178  0.2994  1.0988
  145OSM    C5F16019   5.420   4.074   6.251  0.6735 -0.7768  0.0108
  145OSM    H5F16020   5.412   3.967   6.280  1.8931 -0.2286  2.7249
  145OSM    H5G16021   5.521   4.112   6.226  0.5218  0.5289  1.2474
  145OSM    C6F16022   5.329   4.108   6.126  0.4526 -0.2659 -0.1346
  145OSM    H6F16023   5.224   4.126   6.160  0.9865  0.5376  1.1953
  145OSM    H6G16024   5.325   4.008   6.079 -0.6236 -1.7567  2.8360
  145OSM    C7F16025   5.377   4.215   6.023 -0.4520  0.3626 -0.1569
  145OSM    H7F16026   5.454   4.284   6.064 -1.9152  0.7614  2.1137
  145OSM    H7G16027   5.282   4.272   6.012 -0.4214  0.6004  0.7180
  145OSM    C8F16028   5.427   4.161   5.886 -0.3783 -0.1015 -0.2910
  145OSM    H8F16029   5.494   4.074   5.903 -2.9721 -2.3462 -0.7126
  145OSM    H8G16030   5.496   4.236   5.841  0.7961 -0.6149  0.6242
  145OSM    C9F16031   5.305   4.128   5.807  0.4611 -1.1188 -0.1800
  145OSM    H9F16032   5.241   4.047   5.842 -0.2352 -0.9381 -0.9922
  145OSM   C10F16033   5.265   4.196   5.698  0.2423 -0.3327 -0.6200
  145OSM   H10F16034   5.172   4.174   5.644  0.5215 -2.8288 -0.1860
  145OSM   C11F16035   5.345   4.306   5.617 -0.3896 -0.2728  0.0485
  145OSM   H11F16036   5.445   4.322   5.663 -0.0041 -0.6151 -0.6496
  145OSM   H11G16037   5.294   4.404   5.603  1.9617  1.1199  0.5501
  145OSM   C12F16038   5.376   4.244   5.476  0.9057 -0.1709 -0.2972
  145OSM   H12F16039   5.277   4.237   5.427 -1.2721 -0.6674  3.7780
  145OSM   H12G16040   5.425   4.145   5.492  1.3266 -0.1536 -1.3669
  145OSM   C13F16041   5.469   4.342   5.397 -0.4027 -0.3992 -0.1448
  145OSM   H13F16042   5.549   4.372   5.468 -2.9592  3.9484  1.2187
  145OSM   H13G16043   5.415   4.438   5.383  1.4320  0.7174  0.0489
  145OSM   C14F16044   5.510   4.293   5.261  0.0617  0.2556  0.2285
  145OSM   H14F16045   5.423   4.293   5.191 -1.1939 -0.1227  1.7389
  145OSM   H14G16046   5.552   4.192   5.280  0.5889  0.7117  1.5538
  145OSM   C15F16047   5.623   4.366   5.191  0.3062 -0.0621 -0.3363
  145OSM   H15F16048   5.716   4.358   5.251 -1.5297 -0.4027  2.6404
  145OSM   H15G16049   5.601   4.475   5.188  1.2657  0.1278 -1.0794
  145OSM   C16F16050   5.640   4.316   5.046 -0.1358  0.2652  1.0474
  145OSM   H16F16051   5.540   4.335   5.001 -0.9330 -0.7689  2.3144
  145OSM   H16G16052   5.666   4.209   5.059  2.9716  0.6043 -1.1101
  145OSM   C17F16053   5.741   4.397   4.969  0.2940  0.2756 -0.0228
  145OSM   H17F16054   5.831   4.404   5.033  1.3242 -1.0454 -1.2453
  145OSM   H17G16055   5.702   4.501   4.957 -0.9901 -0.2428 -0.5531
  145OSM   C18F16056   5.774   4.355   4.827  0.0849 -0.2774 -0.3038
  145OSM   H18F16057   5.839   4.427   4.773  1.8341 -1.0641  0.6689
  145OSM   H18G16058   5.684   4.356   4.762 -1.2658  0.3121  1.5112
  145OSM   H18H16059   5.832   4.260   4.825 -0.9204 -1.1274  3.4086
  146OSM      N16060   3.681   5.810   6.975  0.2861 -0.6101 -0.4168
  146OSM    C1516061   3.636   5.730   6.865  0.4008  0.2637 -1.0530
  146OSM   H15A16062   3.530   5.710   6.876  0.3572  0.8900 -0.2205
  146OSM   H15B16063   3.672   5.630   6.887  1.5355  0.9650  0.4786
  146OSM   H15C16064   3.663   5.773   6.770 -0.7183 -0.7099 -1.8413
  146OSM    C1416065   3.619   5.946   6.955 -0.8670  0.8345 -0.7288
  146OSM   H14A16066   3.682   6.001   6.886  0.7696 -0.8257 -0.6487
  146OSM   H14B16067   3.623   6.001   7.047  0.4968 -0.0962 -0.1984
  146OSM   H14C16068   3.516   5.948   6.923 -1.8645  0.0234  2.1843
  146OSM    C1316069   3.629   5.759   7.102 -0.4240 -0.3348 -0.3538
  146OSM   H13A16070   3.645   5.826   7.185  0.1718 -0.9051  0.0067
  146OSM   H13B16071   3.695   5.676   7.125  1.0185  1.3804  2.1784
  146OSM   H13C16072   3.523   5.741   7.094  0.0296 -2.9317 -1.6639
  146OSM    C1216073   3.832   5.820   6.976  0.5389 -0.3424  0.2521
  146OSM   H12A16074   3.863   5.897   7.045  0.8731 -0.8737  0.7078
  146OSM   H12B16075   3.865   5.884   6.896  0.3348 -0.6747 -0.1052
  146OSM    C1116076   3.929   5.699   6.989 -0.6788 -0.1215  0.4420
  146OSM   H11A16077   4.033   5.736   7.004 -0.4148 -0.2133 -0.9591
  146OSM   H11B16078   3.941   5.656   6.887  0.6874  0.7651  0.2098
  146OSM      P16079   3.866   5.453   7.059  0.1626 -0.5178 -0.6605
  146OSM    O1316080   3.846   5.378   7.187 -0.9886 -0.4213 -0.1655
  146OSM    O1416081   3.756   5.448   6.963 -0.1941 -0.2241 -0.4464
  146OSM    O1116082   3.998   5.405   6.984  0.0031  0.4300  0.2177
  146OSM    O1216083   3.889   5.602   7.086  0.3712 -0.3786 -0.3304
  146OSM    C1S16084   3.998   5.270   6.928  0.2842  0.7950 -0.7787
  146OSM    H1S16085   3.913   5.209   6.965  0.1422 -0.6623 -3.3173
  146OSM    H1T16086   4.085   5.204   6.950 -1.5062 -0.9348  1.6848
  146OSM     NF16087   3.973   5.128   6.730 -0.0147 -0.0381  0.3817
  146OSM    HNF16088   4.057   5.092   6.690 -0.1984  0.2751 -0.2993
  146OSM    C2S16089   3.974   5.264   6.772  0.1452 -0.1224 -0.2572
  146OSM    H2S16090   3.877   5.314   6.752  1.0456  1.3419 -1.1543
  146OSM    C3S16091   4.077   5.357   6.698  0.0015  0.1881  0.0813
  146OSM    H3S16092   4.178   5.311   6.692 -0.5978 -1.0816 -1.0508
  146OSM     O316093   4.086   5.488   6.758  0.2545 -0.2250  0.3250
  146OSM    HO316094   4.040   5.481   6.842  0.5605  0.6814  0.5880
  146OSM    C4S16095   4.035   5.373   6.552 -0.2856 -0.4221  0.6505
  146OSM    H4S16096   3.937   5.421   6.537  0.7978  1.1294 -2.0820
  146OSM    C5S16097   4.093   5.311   6.446  0.2215  0.7639 -0.5367
  146OSM    H5S16098   4.176   5.247   6.479 -2.4250 -1.1251  3.2067
  146OSM    C6S16099   4.041   5.309   6.301 -0.8324 -0.0076  0.0151
  146OSM    H6S16100   4.124   5.345   6.236  2.0948 -2.6773  1.9739
  146OSM    H6T16101   3.957   5.379   6.284 -1.7363 -1.2659 -0.9418
  146OSM    C7S16102   4.016   5.170   6.245  0.6247 -0.2881 -0.2265
  146OSM    H7S16103   3.942   5.118   6.310  0.5114  0.0812 -0.0572
  146OSM    H7T16104   4.104   5.104   6.261  0.8352 -0.0581 -0.4281
  146OSM    C8S16105   3.966   5.164   6.102 -0.0327 -0.1067  0.5353
  146OSM    H8S16106   3.886   5.238   6.077  0.0599 -0.0609  0.3725
  146OSM    H8T16107   3.907   5.071   6.091 -1.4544  0.7071  1.0219
  146OSM    C9S16108   4.088   5.179   6.008  0.1100 -0.3837  0.3189
  146OSM    H9S16109   4.172   5.108   6.021  1.5848  0.6972 -2.3761
  146OSM    H9T16110   4.132   5.280   6.024 -0.3064 -0.6268  3.6099
  146OSM   C10S16111   4.044   5.175   5.854 -0.5598 -0.5129 -0.1906
  146OSM   H10S16112   3.976   5.263   5.849  0.8024  0.5628 -0.1929
  146OSM   H10T16113   3.975   5.091   5.829 -1.8825 -0.0717  1.7414
  146OSM   C11S16114   4.161   5.182   5.757  0.8326 -0.4720  0.0857
  146OSM   H11S16115   4.213   5.085   5.764  0.4290 -1.0807 -3.4075
  146OSM   H11T16116   4.231   5.262   5.790 -0.5758  0.2238  1.5579
  146OSM   C12S16117   4.129   5.193   5.606 -0.2074  0.0433  0.2246
  146OSM   H12S16118   4.096   5.297   5.584  0.4336 -0.0225 -1.1330
  146OSM   H12T16119   4.051   5.115   5.595 -0.4244  0.1761  0.7692
  146OSM   C13S16120   4.253   5.162   5.510  0.5506 -0.4045 -0.4051
  146OSM   H13S16121   4.307   5.071   5.542  0.1230 -0.6313 -0.3204
  146OSM   H13T16122   4.313   5.255   5.511 -0.7794  0.5627 -2.6016
  146OSM   C14S16123   4.204   5.133   5.367  0.0228 -0.3365 -0.4891
  146OSM   H14S16124   4.109   5.184   5.340 -0.0570 -1.0238 -1.5831
  146OSM   H14T16125   4.196   5.024   5.347  1.4256 -0.1087 -2.6872
  146OSM   C15S16126   4.319   5.176   5.277  0.3731 -0.8840  0.6987
  146OSM   H15S16127   4.395   5.240   5.325 -0.2325 -0.6738  1.3931
  146OSM   H15T16128   4.266   5.227   5.194 -2.1698  0.6424  3.0975
  146OSM   C16S16129   4.402   5.059   5.212  0.0565  0.1766  0.0121
  146OSM   H16S16130   4.448   4.997   5.292  0.2089 -1.7518 -1.4682
  146OSM   H16T16131   4.493   5.100   5.163  0.7270  0.6303  1.5763
  146OSM   C17S16132   4.341   4.960   5.112  0.0592 -0.0347  0.2986
  146OSM   H17S16133   4.260   5.007   5.053 -0.1223 -2.1984 -1.2685
  146OSM   H17T16134   4.275   4.884   5.160 -0.5771 -0.6469 -1.4851
  146OSM   C18S16135   4.441   4.877   5.025 -0.0148 -0.4708  0.2356
  146OSM   H18S16136   4.520   4.815   5.074 -0.5547 -1.4256 -0.0673
  146OSM   H18T16137   4.496   4.957   4.971  0.4542 -0.9935 -0.0815
  146OSM   H18U16138   4.393   4.804   4.956 -0.6343  0.5638 -0.4477
  146OSM    C1F16139   3.866   5.052   6.741  0.6818 -0.6956  0.0394
  146OSM     OF16140   3.768   5.095   6.796  0.3282  0.6918  0.0869
  146OSM    C2F16141   3.883   4.908   6.682  0.2413 -0.0892 -0.6537
  146OSM    H2F16142   3.898   4.838   6.767 -0.3420 -0.0094 -0.4809
  146OSM    H2G16143   3.970   4.896   6.615 -0.3835 -0.7952 -1.3434
  146OSM    C3F16144   3.758   4.858   6.607 -0.4778 -0.2262  0.1516
  146OSM    H3F16145   3.663   4.877   6.662 -0.7324 -1.9310  0.3624
  146OSM    H3G16146   3.770   4.747   6.601 -0.0055 -0.1122 -1.7338
  146OSM    C4F16147   3.744   4.894   6.457 -0.1710  0.1300  0.5179
  146OSM    H4F16148   3.691   4.810   6.409 -2.5712  1.5643  0.4810
  146OSM    H4G16149   3.840   4.891   6.401 -1.4951  0.0320 -1.8561
  146OSM    C5F16150   3.665   5.021   6.429 -0.6251 -0.0767  0.2030
  146OSM    H5F16151   3.718   5.112   6.466 -1.2814  0.2687  0.3085
  146OSM    H5G16152   3.571   4.997   6.482 -0.7752  1.4231  0.6575
  146OSM    C6F16153   3.630   5.046   6.279 -0.3060 -0.4622  0.0563
  146OSM    H6F16154   3.589   4.954   6.231  0.9765 -1.1443  0.2138
  146OSM    H6G16155   3.722   5.064   6.219 -0.4218 -0.7525 -0.2158
  146OSM    C7F16156   3.526   5.166   6.264 -0.5440  0.3081 -0.2626
  146OSM    H7F16157   3.567   5.260   6.307  0.1020  0.0109 -0.2143
  146OSM    H7G16158   3.437   5.139   6.324 -0.0913  0.2019  0.3685
  146OSM    C8F16159   3.478   5.191   6.121  0.6893 -0.9059  0.4262
  146OSM    H8F16160   3.567   5.240   6.075  0.4716  1.9102  2.6774
  146OSM    H8G16161   3.393   5.261   6.106  2.4702  0.8798 -2.4232
  146OSM    C9F16162   3.419   5.069   6.054 -0.5217 -0.0096  0.3344
  146OSM    H9F16163   3.322   5.031   6.089 -0.6661 -0.3989 -0.4698
  146OSM   C10F16164   3.477   4.992   5.964 -0.1374 -0.1949  0.0665
  146OSM   H10F16165   3.414   4.908   5.931  0.1937 -0.0359 -0.9868
  146OSM   C11F16166   3.618   5.001   5.915 -0.5773 -0.1518  0.0271
  146OSM   H11F16167   3.665   4.904   5.942 -0.6698 -0.1250  0.2787
  146OSM   H11G16168   3.678   5.075   5.972 -0.1313 -0.7412  0.3267
  146OSM   C12F16169   3.645   5.016   5.768  0.6836 -0.0436 -0.3219
  146OSM   H12F16170   3.610   4.920   5.727 -0.0567  1.3425 -3.1918
  146OSM   H12G16171   3.756   5.016   5.755  0.6273  2.8280 -1.7494
  146OSM   C13F16172   3.584   5.139   5.707 -0.0824 -0.7631  0.1452
  146OSM   H13F16173   3.614   5.228   5.767  2.8318 -2.8476  2.0455
  146OSM   H13G16174   3.473   5.149   5.711 -0.1943  0.1624 -2.9181
  146OSM   C14F16175   3.634   5.162   5.564  0.4884  0.0532  0.4777
  146OSM   H14F16176   3.583   5.249   5.517  0.1682 -0.6589 -0.5065
  146OSM   H14G16177   3.742   5.188   5.554  0.5344 -0.8682 -1.9997
  146OSM   C15F16178   3.597   5.048   5.474  0.1792  0.1532  0.1097
  146OSM   H15F16179   3.489   5.037   5.499 -0.1323  5.1863  1.9944
  146OSM   H15G16180   3.656   4.962   5.511 -1.1254 -0.2776  1.2716
  146OSM   C16F16181   3.626   5.069   5.327 -0.3188  0.2812 -0.1244
  146OSM   H16F16182   3.596   4.980   5.267  1.6567 -0.5860  0.1021
  146OSM   H16G16183   3.736   5.068   5.311 -0.4078 -0.4721 -0.8085
  146OSM   C17F16184   3.565   5.193   5.255 -0.0252  0.2884 -1.2843
  146OSM   H17F16185   3.585   5.287   5.311 -1.7528  0.8748 -1.5977
  146OSM   H17G16186   3.454   5.187   5.262  0.0287  0.4757  0.1417
  146OSM   C18F16187   3.608   5.202   5.107 -0.0887 -0.4052  0.6355
  146OSM   H18F16188   3.566   5.296   5.066 -1.7384 -1.1717  0.4755
  146OSM   H18G16189   3.553   5.123   5.051 -0.8122  0.4280  0.1416
  146OSM   H18H16190   3.717   5.194   5.092  0.0230 -2.7548  2.0391
  147OSM      N16191   4.388   6.287   1.945  0.7056  0.2153 -0.0947
  147OSM    C1516192   4.308   6.355   2.050  0.2066 -0.7428 -0.0392
  147OSM   H15A16193   4.224   6.294   2.079 -0.9196 -0.4078 -2.3513
  147OSM   H15B16194   4.284   6.456   2.024 -0.3183 -1.5035 -2.8071
  147OSM   H15C16195   4.374   6.371   2.134 -1.9922  3.1060  1.1352
  147OSM    C1416196   4.422   6.151   1.993 -0.0732  0.2387 -0.1019
  147OSM   H14A16197   4.489   6.154   2.078 -1.8638  2.1269  1.3369
  147OSM   H14B16198   4.472   6.099   1.913 -0.3523 -1.3544  0.7059
  147OSM   H14C16199   4.342   6.090   2.032  0.6885 -1.5790 -1.2496
  147OSM    C1316200   4.302   6.274   1.817 -0.6904  0.4701  0.6757
  147OSM   H13A16201   4.360   6.236   1.734 -2.0407 -1.4041  0.5176
  147OSM   H13B16202   4.251   6.362   1.782 -0.8010  0.3176  0.4552
  147OSM   H13C16203   4.230   6.198   1.842 -0.6964  0.0724 -0.5065
  147OSM    C1216204   4.515   6.365   1.912 -0.4917  0.7301 -0.0645
  147OSM   H12A16205   4.484   6.451   1.855 -2.3983 -0.9781 -1.8013
  147OSM   H12B16206   4.567   6.322   1.828 -1.2099  1.1970 -0.7646
  147OSM    C1116207   4.621   6.389   2.025 -0.1953  0.4429 -0.2410
  147OSM   H11A16208   4.570   6.438   2.111  0.4328  0.4471  0.1344
  147OSM   H11B16209   4.692   6.459   1.977 -1.0627  1.0338 -0.6872
  147OSM      P16210   4.840   6.245   2.066  0.1401 -0.3977 -0.3441
  147OSM    O1316211   4.873   6.119   2.129 -0.2581  0.2209 -0.2421
  147OSM    O1416212   4.901   6.286   1.935  0.2796  0.2213 -0.6237
  147OSM    O1116213   4.893   6.361   2.163 -0.3609 -0.0858 -0.0457
  147OSM    O1216214   4.688   6.270   2.071  0.2866  0.0493  0.0454
  147OSM    C1S16215   4.855   6.352   2.303  0.3671 -0.0054 -0.1938
  147OSM    H1S16216   4.787   6.270   2.333 -0.3769  1.1736  1.4936
  147OSM    H1T16217   4.810   6.448   2.335 -0.4532 -0.0228 -1.2377
  147OSM     NF16218   4.959   6.338   2.525  0.0793  0.1139  0.2011
  147OSM    HNF16219   4.974   6.418   2.583 -0.8499 -0.1314  0.8076
  147OSM    C2S16220   4.991   6.346   2.389  0.3019 -0.2243 -0.4231
  147OSM    H2S16221   5.057   6.261   2.362  0.0865 -0.2513 -0.8798
  147OSM    C3S16222   5.077   6.472   2.356 -0.3921  0.2615  0.2293
  147OSM    H3S16223   5.025   6.559   2.399  1.7422  1.3491  0.7440
  147OSM     O316224   5.100   6.507   2.217  0.2342  0.0966  0.1680
  147OSM    HO316225   5.041   6.449   2.168  0.1809  1.6192 -1.6543
  147OSM    C4S16226   5.212   6.480   2.438 -0.1234  0.0087  0.3601
  147OSM    H4S16227   5.206   6.520   2.541  0.8228 -1.4363  1.0178
  147OSM    C5S16228   5.330   6.432   2.396 -1.0249 -0.1091  0.4676
  147OSM    H5S16229   5.334   6.395   2.293  2.7155 -0.6123  0.6549
  147OSM    C6S16230   5.462   6.431   2.480  0.1669  0.2662  0.3058
  147OSM    H6S16231   5.523   6.521   2.459  2.7180 -1.5714 -0.6603
  147OSM    H6T16232   5.523   6.343   2.452  1.1280  1.5314 -1.7774
  147OSM    C7S16233   5.439   6.423   2.638  0.1305  0.0538 -0.4508
  147OSM    H7S16234   5.395   6.323   2.655 -1.6841  0.5551 -1.8556
  147OSM    H7T16235   5.366   6.498   2.674  0.0506 -0.6528  0.9046
  147OSM    C8S16236   5.563   6.434   2.727 -0.5000 -0.2226 -0.1424
  147OSM    H8S16237   5.593   6.540   2.742 -0.4984 -0.5208  2.5201
  147OSM    H8T16238   5.653   6.380   2.690  0.2087  1.1658 -0.5138
  147OSM    C9S16239   5.530   6.382   2.873 -0.1126  0.5493 -0.1611
  147OSM    H9S16240   5.505   6.275   2.883 -1.4062  0.8809  0.2773
  147OSM    H9T16241   5.441   6.435   2.913 -0.0327 -0.6588  1.7315
  147OSM   C10S16242   5.646   6.395   2.972  0.0589 -0.0689  0.5865
  147OSM   H10S16243   5.645   6.502   2.999  2.0693  0.4479 -1.1391
  147OSM   H10T16244   5.734   6.369   2.909 -1.4963  1.1954 -2.2723
  147OSM   C11S16245   5.645   6.303   3.099 -0.2705  0.6497  0.7339
  147OSM   H11S16246   5.741   6.302   3.156 -0.4764 -0.8288  1.0857
  147OSM   H11T16247   5.629   6.197   3.070 -0.5569  0.8875 -0.0120
  147OSM   C12S16248   5.532   6.339   3.196 -0.2718 -0.4135  1.3483
  147OSM   H12S16249   5.431   6.323   3.153  0.7146 -0.2265 -1.1885
  147OSM   H12T16250   5.533   6.448   3.217 -1.4736  0.2748 -1.6578
  147OSM   C13S16251   5.533   6.250   3.326 -0.2412 -0.5355  0.4285
  147OSM   H13S16252   5.524   6.143   3.295 -0.5659 -0.4855  0.3518
  147OSM   H13T16253   5.449   6.280   3.391  1.2814  0.0504  2.2322
  147OSM   C14S16254   5.650   6.270   3.429 -0.4996  0.6934  0.4625
  147OSM   H14S16255   5.662   6.381   3.426 -0.1951  0.7404  2.2168
  147OSM   H14T16256   5.748   6.231   3.393 -1.5985 -1.6620 -0.1346
  147OSM   C15S16257   5.629   6.225   3.580 -0.0585 -0.5101  1.0807
  147OSM   H15S16258   5.726   6.251   3.629 -0.1092 -1.1892  1.5510
  147OSM   H15T16259   5.635   6.114   3.577 -0.7789 -0.5390  0.5643
  147OSM   C16S16260   5.519   6.294   3.662 -0.4865  0.1059  0.1561
  147OSM   H16S16261   5.423   6.243   3.640 -0.7963  0.2357  1.1958
  147OSM   H16T16262   5.502   6.401   3.638 -0.6677 -0.3249 -1.7800
  147OSM   C17S16263   5.521   6.275   3.819 -0.2450  0.3969  1.0023
  147OSM   H17S16264   5.524   6.167   3.841 -1.9748  0.0355 -0.3232
  147OSM   H17T16265   5.424   6.308   3.862  0.0364 -0.1191  2.0372
  147OSM   C18S16266   5.632   6.349   3.884  0.1215 -0.0433  0.4105
  147OSM   H18S16267   5.632   6.347   3.995  0.1788 -1.8243  0.4037
  147OSM   H18T16268   5.610   6.457   3.866  0.3060 -0.0210  0.3073
  147OSM   H18U16269   5.727   6.341   3.827  0.2462 -2.3036  0.8426
  147OSM    C1F16270   4.903   6.229   2.581  0.3905  0.0140 -0.2581
  147OSM     OF16271   4.871   6.126   2.512 -0.1676 -0.3627 -0.8355
  147OSM    C2F16272   4.876   6.224   2.728  0.7767 -0.2493 -0.2548
  147OSM    H2F16273   4.867   6.326   2.771 -2.8471 -0.8411  0.7163
  147OSM    H2G16274   4.958   6.169   2.779  0.4704 -2.4945 -2.0048
  147OSM    C3F16275   4.743   6.161   2.765 -0.0729 -0.1537 -0.3233
  147OSM    H3F16276   4.749   6.058   2.723 -0.9894  0.2693 -1.5406
  147OSM    H3G16277   4.656   6.215   2.722 -2.1296 -1.0487  2.4286
  147OSM    C4F16278   4.711   6.174   2.916 -0.1044  0.0020 -0.0323
  147OSM    H4F16279   4.602   6.182   2.935 -0.3771  0.8085 -1.7624
  147OSM    H4G16280   4.745   6.275   2.950 -0.4505  0.2970 -0.5552
  147OSM    C5F16281   4.769   6.065   3.004 -0.1096  0.5219 -0.4379
  147OSM    H5F16282   4.872   6.029   2.983 -0.3755 -0.9393  0.6332
  147OSM    H5G16283   4.702   5.977   2.991  0.6220 -0.6695  2.8789
  147OSM    C6F16284   4.778   6.121   3.145  0.4048 -0.6658  0.0356
  147OSM    H6F16285   4.674   6.150   3.171  0.5497 -0.2792  0.1992
  147OSM    H6G16286   4.850   6.206   3.151 -1.2954  0.9362 -1.0448
  147OSM    C7F16287   4.827   6.013   3.239 -0.0928 -0.1796 -0.1964
  147OSM    H7F16288   4.928   5.980   3.208 -0.1074  0.6222 -1.1655
  147OSM    H7G16289   4.755   5.929   3.224  1.0637 -0.9819 -1.5631
  147OSM    C8F16290   4.831   6.057   3.386 -0.1133  0.0460  0.3099
  147OSM    H8F16291   4.731   6.097   3.411 -0.1929  1.4510 -1.8981
  147OSM    H8G16292   4.892   6.148   3.403 -3.1842  2.3022 -0.0656
  147OSM    C9F16293   4.845   5.942   3.480 -0.4410 -0.1404 -0.1259
  147OSM    H9F16294   4.848   5.847   3.425  0.6787 -0.3173  0.2237
  147OSM   C10F16295   4.875   5.935   3.609  0.2113  0.3272 -0.2143
  147OSM   H10F16296   4.869   5.835   3.654  0.8084  0.1906 -0.4269
  147OSM   C11F16297   4.889   6.049   3.705 -0.4890  0.0795 -0.0888
  147OSM   H11F16298   4.834   6.139   3.671  0.0497  0.8237  0.9320
  147OSM   H11G16299   4.992   6.080   3.733 -0.5455 -0.9185  1.3542
  147OSM   C12F16300   4.822   6.015   3.846 -0.5102  0.4912  0.1794
  147OSM   H12F16301   4.849   5.912   3.876  0.1640  1.0009  1.3523
  147OSM   H12G16302   4.712   6.016   3.828 -0.9720  0.1095  2.6318
  147OSM   C13F16303   4.852   6.110   3.969 -0.4408  0.2499 -0.0026
  147OSM   H13F16304   4.827   6.213   3.934  1.6296  0.2274 -1.7170
  147OSM   H13G16305   4.962   6.111   3.984 -0.5414  1.1034  0.7808
  147OSM   C14F16306   4.782   6.082   4.098 -0.2612  0.5947 -0.2033
  147OSM   H14F16307   4.798   5.977   4.130 -0.7348  1.2425  2.3550
  147OSM   H14G16308   4.675   6.103   4.077 -0.1207  2.3361  0.6448
  147OSM   C15F16309   4.823   6.184   4.206  0.3592 -0.3038 -0.3680
  147OSM   H15F16310   4.753   6.167   4.290  0.9227  0.3438  0.2436
  147OSM   H15G16311   4.826   6.290   4.171  0.6317  0.7106  2.4524
  147OSM   C16F16312   4.967   6.172   4.267 -0.6316  0.2961 -0.5946
  147OSM   H16F16313   4.991   6.244   4.348  0.4986  0.3356 -0.9557
  147OSM   H16G16314   5.041   6.189   4.187  0.0596  2.5119  0.4440
  147OSM   C17F16315   4.983   6.031   4.331 -0.2950 -0.2184  0.1064
  147OSM   H17F16316   4.975   5.958   4.248  0.7802  0.0535 -0.2404
  147OSM   H17G16317   4.899   6.015   4.402  0.0126  1.1333  0.8011
  147OSM   C18F16318   5.114   6.023   4.414 -0.6069 -0.2963 -0.4199
  147OSM   H18F16319   5.206   6.046   4.355  0.2177 -1.1345  0.4907
  147OSM   H18G16320   5.105   5.939   4.487 -1.1797 -0.5021 -0.7248
  147OSM   H18H16321   5.117   6.116   4.473  1.2552 -0.9886  0.6823
  148OSM      N16322   5.917   6.481   1.699 -0.0115  0.7982 -0.3730
  148OSM    C1516323   6.022   6.545   1.615 -0.0340 -0.0304 -0.3753
  148OSM   H15A16324   6.109   6.574   1.672 -2.0228  1.4692  2.1044
  148OSM   H15B16325   5.989   6.633   1.563 -0.8643 -0.6313 -0.8932
  148OSM   H15C16326   6.064   6.474   1.544  1.1396  2.5253 -2.3963
  148OSM    C1416327   5.806   6.455   1.606  0.0100  0.6692  0.6436
  148OSM   H14A16328   5.831   6.376   1.537 -1.4038  1.4648 -0.8378
  148OSM   H14B16329   5.796   6.546   1.549  2.3927  0.4982 -0.1663
  148OSM   H14C16330   5.714   6.427   1.656 -0.0305 -1.8620 -0.6698
  148OSM    C1316331   5.970   6.349   1.744  0.0852 -0.7628  0.5737
  148OSM   H13A16332   6.041   6.359   1.824  1.9102  0.4297 -1.1137
  148OSM   H13B16333   6.019   6.299   1.662  0.9504  0.1307  0.5279
  148OSM   H13C16334   5.892   6.285   1.783 -0.6490 -0.4395 -0.2980
  148OSM    C1216335   5.878   6.578   1.811 -0.0896 -0.1486  0.7346
  148OSM   H12A16336   5.875   6.676   1.765  3.1994 -0.5771 -0.6887
  148OSM   H12B16337   5.960   6.586   1.880  2.4762 -0.3194 -2.0873
  148OSM    C1116338   5.748   6.552   1.891 -0.4656  0.5354  0.1679
  148OSM   H11A16339   5.666   6.566   1.817 -0.4917 -1.7172 -0.2858
  148OSM   H11B16340   5.732   6.639   1.958 -1.2640 -0.5723  1.4586
  148OSM      P16341   5.647   6.299   1.919 -0.0140 -0.2221 -0.1820
  148OSM    O1316342   5.525   6.344   1.845 -0.3120  0.0790 -0.3678
  148OSM    O1416343   5.740   6.209   1.854 -0.3660  0.2878  0.9185
  148OSM    O1116344   5.601   6.242   2.060 -0.3297 -0.3440  0.3096
  148OSM    O1216345   5.735   6.429   1.959 -0.7376  0.2586 -0.1550
  148OSM    C1S16346   5.684   6.164   2.144 -0.1564 -0.0683 -0.3042
  148OSM    H1S16347   5.766   6.231   2.177 -0.6337 -0.3021  1.4288
  148OSM    H1T16348   5.727   6.077   2.091 -1.9255 -0.7907 -0.6302
  148OSM     NF16349   5.721   6.044   2.367 -0.1877 -0.4549 -0.0573
  148OSM    HNF16350   5.725   5.945   2.362  1.5872 -0.5887  2.1462
  148OSM    C2S16351   5.619   6.110   2.279  0.0625  0.1885 -0.1962
  148OSM    H2S16352   5.592   6.205   2.329  1.2952  0.3803  0.1359
  148OSM    C3S16353   5.492   6.028   2.258 -0.0988 -0.1039 -0.4003
  148OSM    H3S16354   5.526   5.925   2.233  1.4231  0.8909 -2.6445
  148OSM     O316355   5.423   6.067   2.144  0.0851  0.0196  0.5387
  148OSM    HO316356   5.489   6.124   2.103  1.0336 -0.5974  1.1738
  148OSM    C4S16357   5.428   6.012   2.389  0.1553 -0.1972  0.0826
  148OSM    H4S16358   5.486   5.963   2.469 -1.6647 -0.0852  1.5578
  148OSM    C5S16359   5.307   6.062   2.419  0.1752 -0.5120  0.1040
  148OSM    H5S16360   5.247   6.110   2.341 -0.0752  0.6247  0.9720
  148OSM    C6S16361   5.230   6.065   2.550  0.3382  0.1695  0.0142
  148OSM    H6S16362   5.134   6.010   2.540  0.1088  0.9071 -2.2553
  148OSM    H6T16363   5.213   6.170   2.581 -2.0205 -0.0250 -0.4432
  148OSM    C7S16364   5.315   6.004   2.661  0.1265  0.9158  0.5827
  148OSM    H7S16365   5.417   6.047   2.671  0.5253  0.6695 -1.9109
  148OSM    H7T16366   5.338   5.895   2.658  1.4781  1.1270  1.8603
  148OSM    C8S16367   5.241   6.032   2.789  0.1085  0.8242  0.4576
  148OSM    H8S16368   5.137   5.996   2.778  0.6394 -0.7137  0.2996
  148OSM    H8T16369   5.242   6.142   2.808 -0.2339  0.6841  1.3351
  148OSM    C9S16370   5.302   5.960   2.914 -1.0175 -0.2126  0.0690
  148OSM    H9S16371   5.410   5.983   2.925 -1.0905  2.1495 -2.7467
  148OSM    H9T16372   5.289   5.850   2.904 -0.0650 -0.3513  0.2132
  148OSM   C10S16373   5.245   6.007   3.047  0.2826  1.2521 -0.3347
  148OSM   H10S16374   5.135   5.990   3.042 -0.0468  2.1775  2.1956
  148OSM   H10T16375   5.258   6.117   3.056  0.4947  1.0623  2.6899
  148OSM   C11S16376   5.313   5.933   3.167  0.2993 -1.0633 -0.4028
  148OSM   H11S16377   5.420   5.961   3.171 -0.0450  0.2291  0.4345
  148OSM   H11T16378   5.312   5.822   3.169  0.7032 -1.1099 -1.7849
  148OSM   C12S16379   5.250   5.973   3.301  0.1765 -0.6945  0.7155
  148OSM   H12S16380   5.146   5.936   3.291 -1.4238  3.1869  1.1534
  148OSM   H12T16381   5.251   6.084   3.292 -0.2221 -0.7016  0.5699
  148OSM   C13S16382   5.324   5.926   3.421  0.0309 -0.4502  0.4545
  148OSM   H13S16383   5.424   5.974   3.421  0.0731 -0.5351  1.0050
  148OSM   H13T16384   5.334   5.817   3.435  1.3253 -0.1772  1.8849
  148OSM   C14S16385   5.252   5.978   3.546  0.0506  0.0689 -0.3642
  148OSM   H14S16386   5.142   5.971   3.533  0.3017 -0.8223 -2.3635
  148OSM   H14T16387   5.274   6.086   3.557  2.1415 -0.4242  1.0616
  148OSM   C15S16388   5.284   5.908   3.677 -0.6086  0.3828 -0.0692
  148OSM   H15S16389   5.393   5.888   3.671 -0.7132  0.2241 -2.6409
  148OSM   H15T16390   5.220   5.819   3.694  1.5951 -1.2957 -0.1251
  148OSM   C16S16391   5.273   6.005   3.795 -0.6654  0.3562 -0.7571
  148OSM   H16S16392   5.166   6.036   3.793 -2.0542 -3.7779 -1.8835
  148OSM   H16T16393   5.329   6.098   3.775  2.3136 -1.2430 -0.4090
  148OSM   C17S16394   5.323   5.945   3.927  0.4751  0.6130  0.0913
  148OSM   H17S16395   5.431   5.923   3.918  0.1330 -1.0934 -0.3060
  148OSM   H17T16396   5.273   5.847   3.947 -1.0037  1.0926 -1.0284
  148OSM   C18S16397   5.313   6.035   4.044  0.0784  0.4729  0.9643
  148OSM   H18S16398   5.206   6.057   4.063 -0.7117 -0.1249 -2.2617
  148OSM   H18T16399   5.369   6.130   4.031 -0.7736  1.0514  1.4223
  148OSM   H18U16400   5.347   5.977   4.133  0.3050  0.0038  0.5744
  148OSM    C1F16401   5.820   6.125   2.414 -0.1538 -0.0617 -0.2501
  148OSM     OF16402   5.808   6.247   2.408  0.4258  0.2712 -0.2435
  148OSM    C2F16403   5.937   6.061   2.485  0.1423 -0.1276  0.9024
  148OSM    H2F16404   6.012   6.141   2.506  0.2142  0.4837 -1.3608
  148OSM    H2G16405   5.987   5.989   2.416  0.3806  1.2112 -0.3865
  148OSM    C3F16406   5.892   5.980   2.604 -0.2392 -0.0117  0.1593
  148OSM    H3F16407   5.975   5.950   2.670 -2.0212 -0.2633  2.4027
  148OSM    H3G16408   5.850   5.882   2.571 -0.3670 -0.4776  1.6494
  148OSM    C4F16409   5.794   6.058   2.696 -0.1701 -0.2638 -0.0395
  148OSM    H4F16410   5.705   6.085   2.636  0.0770 -1.1627 -0.8451
  148OSM    H4G16411   5.853   6.138   2.745  1.0737 -1.0583 -0.1797
  148OSM    C5F16412   5.736   5.981   2.809  0.3134 -0.4687 -1.0607
  148OSM    H5F16413   5.736   5.871   2.797  1.0052 -1.3410  4.3767
  148OSM    H5G16414   5.633   6.013   2.833 -0.3821 -2.6224 -0.9637
  148OSM    C6F16415   5.825   6.000   2.933  0.7591  0.1117  0.3139
  148OSM    H6F16416   5.830   6.109   2.954 -0.0964  0.5864 -1.7080
  148OSM    H6G16417   5.924   5.971   2.891  0.1446 -1.1881 -0.3126
  148OSM    C7F16418   5.784   5.928   3.064 -0.3005 -1.1078 -0.1533
  148OSM    H7F16419   5.786   5.818   3.044  1.1640 -1.0064 -0.6608
  148OSM    H7G16420   5.677   5.951   3.083 -0.3515 -1.0640 -0.4758
  148OSM    C8F16421   5.862   5.968   3.193 -0.2539 -0.4416  0.3240
  148OSM    H8F16422   5.837   6.074   3.218 -2.5278 -0.8949  0.1654
  148OSM    H8G16423   5.972   5.952   3.188  0.1697  1.6457  1.4760
  148OSM    C9F16424   5.797   5.889   3.310 -0.9164  0.5012  0.3102
  148OSM    H9F16425   5.692   5.869   3.287 -0.8882 -0.1595  0.7103
  148OSM   C10F16426   5.859   5.825   3.418  0.7376  0.3925  0.6294
  148OSM   H10F16427   5.790   5.772   3.484  0.2199 -0.8977 -0.8783
  148OSM   C11F16428   5.995   5.848   3.463 -0.1089  0.3087 -0.1673
  148OSM   H11F16429   6.029   5.947   3.425 -1.2137  1.6202  2.0692
  148OSM   H11G16430   6.056   5.760   3.435  1.3040  0.9329  0.7904
  148OSM   C12F16431   6.004   5.874   3.618 -0.1232  0.2933  0.6134
  148OSM   H12F16432   6.100   5.919   3.650 -0.1579  0.8100  0.0004
  148OSM   H12G16433   5.995   5.777   3.672  2.5795  1.2063  2.9190
  148OSM   C13F16434   5.894   5.967   3.673  0.2273 -0.0590 -0.1753
  148OSM   H13F16435   5.797   5.920   3.647  0.4227  0.6922 -2.5430
  148OSM   H13G16436   5.876   6.064   3.622  1.2035  1.1293  1.6565
  148OSM   C14F16437   5.901   5.972   3.825  0.5517 -0.0588 -0.0552
  148OSM   H14F16438   5.927   5.872   3.866  0.8691  0.7538  1.8908
  148OSM   H14G16439   5.801   5.998   3.866 -0.7460 -2.0681 -1.7494
  148OSM   C15F16440   5.991   6.087   3.877 -0.4113  0.0568  0.0719
  148OSM   H15F16441   5.963   6.180   3.823  0.3354  0.1102 -0.2398
  148OSM   H15G16442   6.094   6.066   3.843  0.2517  2.6567  0.2853
  148OSM   C16F16443   5.978   6.121   4.036  0.2275 -0.9840 -0.2887
  148OSM   H16F16444   5.961   6.023   4.086 -1.0679 -0.9198 -0.5857
  148OSM   H16G16445   5.886   6.183   4.037 -0.0771 -1.4203  1.4487
  148OSM   C17F16446   6.103   6.207   4.071 -0.3241 -0.2821  0.2581
  148OSM   H17F16447   6.088   6.270   4.162  1.5530  0.1901  0.2719
  148OSM   H17G16448   6.119   6.288   3.996  1.2616  0.3381  1.2057
  148OSM   C18F16449   6.224   6.114   4.101 -0.4316 -0.9144 -0.4477
  148OSM   H18F16450   6.252   6.058   4.010 -1.2384  0.4568 -1.5772
  148OSM   H18G16451   6.197   6.041   4.181 -2.1361 -0.0769 -0.2095
  148OSM   H18H16452   6.313   6.172   4.134 -0.8763 -0.8150  0.6342
  149OSM      N16453   6.032   6.474   2.215  0.2136 -0.6972  0.4326
  149OSM    C1516454   6.133   6.539   2.129 -0.6474  0.5860  0.1521
  149OSM   H15A16455   6.216   6.562   2.194 -0.2537  1.9367 -0.7836
  149OSM   H15B16456   6.101   6.639   2.103 -1.4836  0.3117  0.1006
  149OSM   H15C16457   6.157   6.471   2.048 -0.2581 -0.2535  0.9464
  149OSM    C1416458   6.047   6.522   2.354  1.3333  0.1638  0.4412
  149OSM   H14A16459   6.143   6.485   2.387  0.2495 -1.7489  1.6438
  149OSM   H14B16460   5.964   6.495   2.418  0.8481  2.4475  0.8686
  149OSM   H14C16461   6.042   6.629   2.354  0.4319  0.1337 -0.3131
  149OSM    C1316462   5.900   6.523   2.173  0.3199 -0.6677 -0.3739
  149OSM   H13A16463   5.836   6.498   2.257 -1.2286 -0.7494 -1.5405
  149OSM   H13B16464   5.881   6.466   2.083  2.8417 -1.0994 -0.7235
  149OSM   H13C16465   5.905   6.629   2.154  2.1904 -0.4880  0.7510
  149OSM    C1216466   6.044   6.320   2.217  0.3460  0.0904 -0.6499
  149OSM   H12A16467   5.963   6.291   2.282 -0.8088  0.0154 -2.0637
  149OSM   H12B16468   6.132   6.272   2.258 -0.7187 -0.3926  1.1616
  149OSM    C1116469   6.021   6.257   2.079  0.2594 -0.6828  0.3124
  149OSM   H11A16470   5.925   6.300   2.041  0.2871 -0.6495  0.2803
  149OSM   H11B16471   6.009   6.147   2.088  1.6023 -1.0665 -1.9241
  149OSM      P16472   6.267   6.222   1.990  0.2083 -0.0750  0.2480
  149OSM    O1316473   6.278   6.114   1.884 -0.2309 -0.3360 -0.1675
  149OSM    O1416474   6.370   6.328   1.989 -0.4559 -0.1334  0.1387
  149OSM    O1116475   6.273   6.146   2.131 -0.1522 -0.1113 -0.1389
  149OSM    O1216476   6.126   6.286   1.983  0.2133 -0.0437  0.3045
  149OSM    C1S16477   6.351   6.208   2.235 -0.8488 -0.4128 -0.3136
  149OSM    H1S16478   6.320   6.314   2.250 -0.3166 -0.4504  1.1894
  149OSM    H1T16479   6.460   6.209   2.213 -0.8347 -2.1559 -0.4173
  149OSM     NF16480   6.475   6.182   2.455  0.1970  0.9948  0.7850
  149OSM    HNF16481   6.558   6.128   2.464 -0.5569 -0.3727 -0.2209
  149OSM    C2S16482   6.373   6.126   2.365 -0.4354  0.5101 -0.2045
  149OSM    H2S16483   6.277   6.126   2.420  0.1025  0.1622  0.7506
  149OSM    C3S16484   6.408   5.978   2.323  0.3035 -0.3208 -0.4893
  149OSM    H3S16485   6.505   5.982   2.269  1.8349 -2.0261  1.9450
  149OSM     O316486   6.308   5.926   2.238  0.3612 -0.2581  0.6278
  149OSM    HO316487   6.269   6.005   2.200 -2.6787 -0.9643  1.9937
  149OSM    C4S16488   6.430   5.883   2.438 -0.0338  0.0816  0.0210
  149OSM    H4S16489   6.530   5.837   2.445 -0.5555 -0.9775  0.8857
  149OSM    C5S16490   6.354   5.866   2.551  0.4600 -0.5247  0.3075
  149OSM    H5S16491   6.260   5.922   2.560  0.2280 -0.8909  0.2039
  149OSM    C6S16492   6.378   5.788   2.675 -0.7119  0.1013  0.0081
  149OSM    H6S16493   6.487   5.765   2.677 -1.0455 -1.5429  1.0415
  149OSM    H6T16494   6.327   5.690   2.677  0.7984 -0.7228  1.7685
  149OSM    C7S16495   6.355   5.881   2.799 -0.2003  0.0622  0.3023
  149OSM    H7S16496   6.246   5.898   2.810 -0.4754 -0.9537 -0.7447
  149OSM    H7T16497   6.412   5.977   2.794 -0.3842  0.2386  1.2717
  149OSM    C8S16498   6.397   5.803   2.927 -0.9348 -0.6250 -0.4092
  149OSM    H8S16499   6.508   5.807   2.937 -0.8546  0.4630 -1.4649
  149OSM    H8T16500   6.375   5.694   2.924  3.2004 -1.6176 -3.1694
  149OSM    C9S16501   6.341   5.871   3.055  0.5063  0.4802 -0.3844
  149OSM    H9S16502   6.233   5.854   3.075 -0.6708  1.8307 -4.5936
  149OSM    H9T16503   6.351   5.979   3.030 -1.3958  1.0255  0.9904
  149OSM   C10S16504   6.437   5.838   3.177 -0.1395  0.3094  0.1481
  149OSM   H10S16505   6.546   5.846   3.157  1.2015 -2.9649  4.5871
  149OSM   H10T16506   6.429   5.728   3.190  0.0324  0.3798  0.8865
  149OSM   C11S16507   6.416   5.911   3.302  0.9352  1.0235  0.2014
  149OSM   H11S16508   6.311   5.939   3.324 -0.2622 -1.3772 -1.9308
  149OSM   H11T16509   6.469   6.006   3.278  1.0486  0.7342 -0.7075
  149OSM   C12S16510   6.492   5.847   3.415  0.2661  0.4947  0.0598
  149OSM   H12S16511   6.594   5.818   3.381  0.2597 -0.1896  0.5986
  149OSM   H12T16512   6.435   5.753   3.433 -2.4344  2.1837  0.9228
  149OSM   C13S16513   6.476   5.909   3.548 -0.3202 -0.0343  0.1644
  149OSM   H13S16514   6.508   5.827   3.617 -1.4243 -1.2537 -0.7258
  149OSM   H13T16515   6.368   5.922   3.569 -0.1613  0.5885  0.6121
  149OSM   C14S16516   6.564   6.035   3.564  0.2097  0.6805  0.8827
  149OSM   H14S16517   6.523   6.118   3.503  4.0759  2.5096  0.5196
  149OSM   H14T16518   6.669   6.022   3.530 -0.1392  0.0019  0.0283
  149OSM   C15S16519   6.579   6.076   3.712  0.1083 -0.5201 -0.2808
  149OSM   H15S16520   6.627   5.995   3.771  1.1691 -0.3931 -0.9381
  149OSM   H15T16521   6.475   6.097   3.747  0.4499  0.4535  0.1979
  149OSM   C16S16522   6.671   6.202   3.730 -0.2039  0.3233  0.3844
  149OSM   H16S16523   6.622   6.277   3.665  0.0989 -1.0083 -1.4385
  149OSM   H16T16524   6.770   6.177   3.688 -0.5240 -1.5141  0.6548
  149OSM   C17S16525   6.671   6.245   3.870  0.1323 -0.5349 -0.1346
  149OSM   H17S16526   6.720   6.168   3.934  1.3964  1.6758  1.7204
  149OSM   H17T16527   6.566   6.256   3.906 -0.4635 -1.9513 -1.3395
  149OSM   C18S16528   6.740   6.378   3.889 -0.3220 -0.1942 -0.6041
  149OSM   H18S16529   6.674   6.462   3.858  0.4787  0.2579 -1.1133
  149OSM   H18T16530   6.839   6.385   3.839 -0.7807  0.0060 -1.4971
  149OSM   H18U16531   6.753   6.387   3.999 -1.8269  1.2135 -0.5017
  149OSM    C1F16532   6.476   6.308   2.508  0.1483 -0.2857  0.7266
  149OSM     OF16533   6.379   6.375   2.495 -0.0271 -0.3563 -0.3450
  149OSM    C2F16534   6.603   6.357   2.586 -0.4153  0.0945  0.7095
  149OSM    H2F16535   6.689   6.366   2.516  0.2122  2.8781  1.6975
  149OSM    H2G16536   6.624   6.287   2.670  0.3915  1.6098  1.8072
  149OSM    C3F16537   6.590   6.506   2.625 -0.8227  0.3987  0.0186
  149OSM    H3F16538   6.508   6.511   2.700  1.4883  0.8063  2.6373
  149OSM    H3G16539   6.576   6.577   2.540  1.1523  0.6675 -0.1284
  149OSM    C4F16540   6.708   6.533   2.720  0.2276 -0.2890  0.4333
  149OSM    H4F16541   6.796   6.476   2.683  1.3662  0.3148  2.0815
  149OSM    H4G16542   6.685   6.486   2.818  3.5569 -0.0120  1.4878
  149OSM    C5F16543   6.742   6.677   2.759  1.0037 -0.3093 -0.3604
  149OSM    H5F16544   6.657   6.725   2.812  1.1905  0.5305 -0.7943
  149OSM    H5G16545   6.761   6.740   2.669 -2.1182  0.4874 -0.5709
  149OSM    C6F16546   6.869   6.687   2.849 -1.0951 -0.2023  0.4921
  149OSM    H6F16547   6.954   6.644   2.791 -0.7696 -0.6981  1.3168
  149OSM    H6G16548   6.858   6.614   2.932 -0.3593 -1.4658 -0.4928
  149OSM    C7F16549   6.916   6.832   2.896 -0.2178 -0.4344  0.5691
  149OSM    H7F16550   6.837   6.868   2.965 -0.8340 -0.7210  0.0258
  149OSM    H7G16551   6.919   6.904   2.812  2.5465 -1.4345 -0.2886
  149OSM    C8F16552   7.052   6.830   2.974 -0.5722  0.4284 -0.5272
  149OSM    H8F16553   7.078   6.936   2.996  0.1291  0.7141 -2.5350
  149OSM    H8G16554   7.139   6.793   2.915  0.3074 -0.0476  1.0097
  149OSM    C9F16555   7.042   6.733   3.093  0.1852  0.9676 -0.3994
  149OSM    H9F16556   7.030   6.627   3.067 -1.0726  0.9692  0.0863
  149OSM   C10F16557   7.020   6.759   3.223  0.0450 -0.2579  0.1831
  149OSM   H10F16558   6.994   6.675   3.289 -0.5488 -0.6128 -0.4891
  149OSM   C11F16559   7.049   6.893   3.292 -0.1134 -0.2693  0.0172
  149OSM   H11F16560   6.960   6.939   3.339  0.3738 -0.4227  1.1140
  149OSM   H11G16561   7.078   6.961   3.209 -1.0402 -0.2604 -0.3102
  149OSM   C12F16562   7.163   6.881   3.393 -0.0676 -0.0240 -1.1857
  149OSM   H12F16563   7.186   6.985   3.425 -0.9323 -0.1464 -0.1404
  149OSM   H12G16564   7.252   6.830   3.349  1.0175 -3.0736  3.7841
  149OSM   C13F16565   7.128   6.808   3.523  0.5419  1.0657 -0.3932
  149OSM   H13F16566   7.086   6.709   3.494  3.3528 -0.0532 -0.9693
  149OSM   H13G16567   7.054   6.876   3.570 -0.6318 -0.1185 -0.4868
  149OSM   C14F16568   7.253   6.790   3.611  0.7301 -0.1183 -0.5735
  149OSM   H14F16569   7.298   6.889   3.632  0.8628 -0.4051  0.6101
  149OSM   H14G16570   7.324   6.721   3.561  0.3213 -0.7337 -0.3331
  149OSM   C15F16571   7.208   6.730   3.742  0.8676  0.8680  0.1018
  149OSM   H15F16572   7.120   6.664   3.728  0.8254  0.8485  0.4500
  149OSM   H15G16573   7.183   6.817   3.807 -1.3577  0.5684 -0.3054
  149OSM   C16F16574   7.323   6.654   3.807 -0.0547  0.9964 -1.1698
  149OSM   H16F16575   7.405   6.715   3.852 -0.5221  1.9957 -1.6507
  149OSM   H16G16576   7.368   6.591   3.728 -1.2712 -2.5540  0.7161
  149OSM   C17F16577   7.259   6.559   3.913 -0.1515  0.4150  0.3879
  149OSM   H17F16578   7.339   6.494   3.954  1.0881  1.1283 -0.8229
  149OSM   H17G16579   7.195   6.491   3.854 -1.3573 -0.1723  2.2985
  149OSM   C18F16580   7.187   6.622   4.020 -0.2375  0.2643 -0.0441
  149OSM   H18F16581   7.134   6.555   4.091  0.4741 -1.0435 -0.7091
  149OSM   H18G16582   7.109   6.694   3.986  2.0282  2.7705 -0.2567
  149OSM   H18H16583   7.260   6.690   4.067  0.8678  0.3669 -1.7988
  150OSM      N16584   2.696   1.703   2.479 -1.0550 -0.1584 -0.2709
  150OSM    C1516585   2.811   1.695   2.572 -0.2656 -0.8217 -0.7804
  150OSM   H15A16586   2.825   1.593   2.605  0.9394  0.3126  2.6194
  150OSM   H15B16587   2.794   1.750   2.664 -1.7318 -0.1682 -1.4012
  150OSM   H15C16588   2.903   1.733   2.532 -0.7027  3.1044  1.4711
  150OSM    C1416589   2.726   1.621   2.359 -0.0667  0.1249  0.1989
  150OSM   H14A16590   2.825   1.654   2.329  0.8918 -2.3135  0.4643
  150OSM   H14B16591   2.653   1.637   2.282  0.3105 -0.9501 -0.3985
  150OSM   H14C16592   2.734   1.519   2.393 -0.3186  0.2753  0.7241
  150OSM    C1316593   2.570   1.655   2.549  0.0195  0.0045  0.5709
  150OSM   H13A16594   2.488   1.682   2.484  0.7312 -0.4713 -0.5588
  150OSM   H13B16595   2.559   1.697   2.648 -0.5296  2.1121 -0.3307
  150OSM   H13C16596   2.569   1.549   2.567  1.1584 -0.0333  0.4942
  150OSM    C1216597   2.681   1.852   2.432  0.1539  0.3096 -0.0635
  150OSM   H12A16598   2.592   1.846   2.371  1.4806 -0.2095 -2.0322
  150OSM   H12B16599   2.758   1.884   2.363 -0.8498 -0.6701 -1.6931
  150OSM    C1116600   2.668   1.953   2.552 -0.6180 -0.2454  0.5182
  150OSM   H11A16601   2.766   1.968   2.602 -0.2286  1.1092 -0.5878
  150OSM   H11B16602   2.588   1.919   2.621 -0.6349 -2.1736 -0.3944
  150OSM      P16603   2.499   2.154   2.528 -0.0900  0.4278 -0.0087
  150OSM    O1316604   2.474   2.270   2.446  0.1850 -0.6427 -0.3619
  150OSM    O1416605   2.388   2.054   2.540  0.4667  0.3623  0.4541
  150OSM    O1116606   2.531   2.201   2.671 -0.6154 -0.0079  0.5693
  150OSM    O1216607   2.631   2.079   2.488 -0.2317 -0.3204 -0.2200
  150OSM    C1S16608   2.659   2.267   2.700 -0.2053  0.6827  0.3602
  150OSM    H1S16609   2.663   2.376   2.676  0.6028  0.6868  0.4790
  150OSM    H1T16610   2.749   2.216   2.659 -0.5838 -1.6926  2.2576
  150OSM     NF16611   2.812   2.319   2.884 -0.0954 -0.1226 -0.1225
  150OSM    HNF16612   2.891   2.260   2.890 -0.2939 -0.2395  2.0932
  150OSM    C2S16613   2.686   2.250   2.855 -0.6392 -0.5101 -0.0925
  150OSM    H2S16614   2.607   2.302   2.913  1.5344  0.9997  1.7271
  150OSM    C3S16615   2.692   2.105   2.895  0.2365 -0.3106 -0.8193
  150OSM    H3S16616   2.762   2.057   2.824  1.0979  0.3616 -0.4355
  150OSM     O316617   2.565   2.044   2.880 -0.2025 -0.1352  0.5372
  150OSM    HO316618   2.513   2.105   2.828  1.8866 -0.0495 -1.5815
  150OSM    C4S16619   2.742   2.096   3.039  0.3336  0.4824  0.7012
  150OSM    H4S16620   2.691   2.141   3.126  1.6745  3.1149  0.2432
  150OSM    C5S16621   2.850   2.023   3.078  0.1189 -1.0344 -0.3207
  150OSM    H5S16622   2.923   1.987   3.004 -0.1990 -2.2714 -0.0613
  150OSM    C6S16623   2.882   2.002   3.227 -0.1939  0.2690  0.1123
  150OSM    H6S16624   2.991   1.979   3.234  0.2595  2.2851  0.4886
  150OSM    H6T16625   2.832   1.911   3.266  0.7532 -1.1093 -1.6920
  150OSM    C7S16626   2.866   2.113   3.328 -0.1271 -0.5215 -0.4052
  150OSM    H7S16627   2.760   2.144   3.343  0.1209 -0.3078  1.0452
  150OSM    H7T16628   2.923   2.199   3.288  3.2398 -1.8285  1.1848
  150OSM    C8S16629   2.923   2.067   3.459 -0.9555 -0.1679 -0.1730
  150OSM    H8S16630   3.022   2.022   3.440  0.4102  2.1069  1.1086
  150OSM    H8T16631   2.873   1.978   3.503 -0.7314 -0.6462 -0.8762
  150OSM    C9S16632   2.946   2.178   3.566  0.4802 -0.3491  0.0760
  150OSM    H9S16633   2.864   2.248   3.592  2.1014  0.9950  1.8482
  150OSM    H9T16634   3.026   2.248   3.534  0.9898 -0.8153  0.3235
  150OSM   C10S16635   2.988   2.115   3.702 -0.1070  0.5998  0.3266
  150OSM   H10S16636   3.048   2.025   3.677 -4.0514 -2.4426  0.6862
  150OSM   H10T16637   2.897   2.064   3.741  0.4205  0.4553  1.4239
  150OSM   C11S16638   3.034   2.221   3.801  0.2567  0.1195  1.2141
  150OSM   H11S16639   2.956   2.300   3.800 -1.0549 -1.1461  1.3030
  150OSM   H11T16640   3.126   2.258   3.750  0.2723 -2.0553 -0.4462
  150OSM   C12S16641   3.065   2.160   3.936  0.0027  0.0180  0.7789
  150OSM   H12S16642   3.133   2.074   3.919  1.2337  0.8917  1.2074
  150OSM   H12T16643   2.974   2.120   3.987  0.4947 -2.1940  0.0367
  150OSM   C13S16644   3.139   2.252   4.027  0.0965 -0.2074 -0.0764
  150OSM   H13S16645   3.246   2.245   4.000 -0.1262  1.5858 -1.5901
  150OSM   H13T16646   3.135   2.202   4.126  1.0970 -2.0241 -0.9117
  150OSM   C14S16647   3.093   2.397   4.034  0.2091  0.0946 -0.5122
  150OSM   H14S16648   2.983   2.408   4.044  0.3175  1.4524 -0.5067
  150OSM   H14T16649   3.113   2.461   3.945  1.5519  0.6797  0.1844
  150OSM   C15S16650   3.144   2.474   4.158  0.3433 -0.4434  0.3768
  150OSM   H15S16651   3.132   2.582   4.137  1.4360 -0.1554  1.1584
  150OSM   H15T16652   3.245   2.447   4.195  0.6231 -1.2873 -0.9526
  150OSM   C16S16653   3.047   2.438   4.273  0.1399 -0.3794 -0.3007
  150OSM   H16S16654   3.025   2.329   4.280  1.4421 -0.5890  0.9981
  150OSM   H16T16655   2.944   2.472   4.249  0.1536 -0.4854 -0.5137
  150OSM   C17S16656   3.075   2.497   4.411  0.4739  1.1925 -0.0907
  150OSM   H17S16657   2.985   2.514   4.474  0.8269  0.1944  0.7268
  150OSM   H17T16658   3.117   2.597   4.388  1.6823  0.1502 -2.8308
  150OSM   C18S16659   3.172   2.417   4.506  0.2956 -0.3947  0.0514
  150OSM   H18S16660   3.199   2.484   4.591 -2.1964 -0.5300  1.0166
  150OSM   H18T16661   3.260   2.386   4.445  0.2918  1.3935 -0.9555
  150OSM   H18U16662   3.124   2.328   4.549  0.0052 -0.1190  0.3006
  150OSM    C1F16663   2.821   2.451   2.888 -0.2507 -0.3483 -0.2911
  150OSM     OF16664   2.720   2.520   2.860 -0.4778  0.4171  0.3449
  150OSM    C2F16665   2.954   2.500   2.926 -0.8950 -0.0827  0.3531
  150OSM    H2F16666   3.025   2.474   2.845 -0.6014  2.9647 -0.4821
  150OSM    H2G16667   2.986   2.448   3.019  1.1471  1.0981  0.3697
  150OSM    C3F16668   2.968   2.650   2.942  0.5930  0.0489 -0.4791
  150OSM    H3F16669   2.882   2.690   3.000  1.1039 -2.1510  1.9666
  150OSM    H3G16670   2.955   2.690   2.839 -1.2423  1.4956  0.2637
  150OSM    C4F16671   3.100   2.711   2.997 -0.0614 -0.0401  0.2053
  150OSM    H4F16672   3.089   2.822   2.995  0.0828  0.0443  2.0914
  150OSM    H4G16673   3.176   2.667   2.930  0.5806 -0.7073  1.3468
  150OSM    C5F16674   3.131   2.688   3.147 -0.6804  0.6554  0.2753
  150OSM    H5F16675   3.222   2.742   3.180 -0.0460 -1.4574  2.2868
  150OSM    H5G16676   3.134   2.577   3.155  2.1635  0.4747 -1.8662
  150OSM    C6F16677   3.023   2.745   3.241 -0.2999  0.6074 -0.6604
  150OSM    H6F16678   2.924   2.698   3.220  0.4845 -2.2433  1.4679
  150OSM    H6G16679   3.014   2.854   3.219 -4.7373 -0.0216 -3.2406
  150OSM    C7F16680   3.057   2.732   3.388 -0.4078 -0.6349 -1.0911
  150OSM    H7F16681   3.016   2.817   3.447 -0.4991 -0.0691 -1.9592
  150OSM    H7G16682   3.167   2.744   3.395 -0.1327 -3.4957  1.3123
  150OSM    C8F16683   3.005   2.607   3.465  0.8390  0.2181  0.2071
  150OSM    H8F16684   3.032   2.518   3.404  1.9801  0.6665  0.0267
  150OSM    H8G16685   2.895   2.621   3.465  0.8667  0.7297 -1.3345
  150OSM    C9F16686   3.073   2.597   3.594 -0.0531 -0.2978  0.2754
  150OSM    H9F16687   3.175   2.555   3.592  0.4733  0.9410 -1.4032
  150OSM   C10F16688   3.019   2.623   3.717 -0.5232  0.1290 -0.2479
  150OSM   H10F16689   3.083   2.596   3.802  0.1044  1.6504 -0.2013
  150OSM   C11F16690   2.881   2.668   3.746 -1.0631 -0.1378 -0.5183
  150OSM   H11F16691   2.818   2.664   3.655 -0.4718 -2.6556 -0.8940
  150OSM   H11G16692   2.896   2.773   3.777  0.8183 -0.1879 -1.1256
  150OSM   C12F16693   2.821   2.588   3.863 -0.4021 -0.2797 -0.4091
  150OSM   H12F16694   2.893   2.559   3.942  0.3055 -1.7993 -1.5547
  150OSM   H12G16695   2.776   2.495   3.822  0.6278 -1.0469  0.1428
  150OSM   C13F16696   2.703   2.661   3.940  0.2058 -0.8398 -0.0640
  150OSM   H13F16697   2.607   2.673   3.886 -1.5912 -0.6881  2.9447
  150OSM   H13G16698   2.734   2.764   3.967  0.4708 -1.0404  0.4065
  150OSM   C14F16699   2.668   2.578   4.069 -0.2742  0.6036  1.3031
  150OSM   H14F16700   2.761   2.532   4.107 -0.9326 -1.9905  0.0259
  150OSM   H14G16701   2.610   2.486   4.047  2.7487 -0.7133 -2.0051
  150OSM   C15F16702   2.611   2.671   4.173 -0.2219 -0.7165 -0.1439
  150OSM   H15F16703   2.524   2.726   4.130 -1.1864 -2.5838 -0.6893
  150OSM   H15G16704   2.683   2.752   4.200 -2.0143  1.0062 -0.3423
  150OSM   C16F16705   2.558   2.603   4.301  0.0769 -0.0369  0.4766
  150OSM   H16F16706   2.640   2.537   4.339  1.2423 -0.1726 -2.0235
  150OSM   H16G16707   2.471   2.541   4.269 -0.1682  0.0768  0.9190
  150OSM   C17F16708   2.509   2.713   4.396  0.3537 -0.0295  0.1369
  150OSM   H17F16709   2.423   2.772   4.356 -0.3834  1.3790  3.4936
  150OSM   H17G16710   2.596   2.780   4.412  0.7994 -0.1295 -1.6478
  150OSM   C18F16711   2.456   2.669   4.540 -0.3713 -0.1547 -0.9324
  150OSM   H18F16712   2.391   2.580   4.526 -0.6850  0.0994 -1.1113
  150OSM   H18G16713   2.399   2.754   4.582  1.4060  2.0692 -2.7416
  150OSM   H18H16714   2.536   2.648   4.615 -2.2680  0.2923  1.3300
  151OSM      N16715   2.317   0.783   2.437  0.4477 -0.2785 -0.1368
  151OSM    C1516716   2.408   0.884   2.500  0.0200 -0.2508  0.1269
  151OSM   H15A16717   2.365   0.949   2.575 -3.1997  0.9683 -2.5084
  151OSM   H15B16718   2.428   0.965   2.431 -1.0994  0.7500  0.9440
  151OSM   H15C16719   2.505   0.853   2.535 -0.5505 -0.5378  1.5039
  151OSM    C1416720   2.204   0.860   2.378 -0.2430  0.4392  0.2069
  151OSM   H14A16721   2.231   0.937   2.307 -1.8472  1.9178  1.1310
  151OSM   H14B16722   2.142   0.901   2.456  2.3236 -0.3737  2.8655
  151OSM   H14C16723   2.138   0.798   2.319  0.4100  1.6927 -1.9390
  151OSM    C1316724   2.402   0.713   2.331  0.2738 -0.0719  0.1460
  151OSM   H13A16725   2.433   0.786   2.258 -0.2137 -0.5742 -0.5737
  151OSM   H13B16726   2.347   0.630   2.289  1.1592 -0.7935  0.3520
  151OSM   H13C16727   2.488   0.669   2.380 -0.6486 -0.1241  1.7949
  151OSM    C1216728   2.272   0.685   2.544  0.2165 -0.0751  0.6873
  151OSM   H12A16729   2.361   0.655   2.598  0.3527 -2.0675 -0.5369
  151OSM   H12B16730   2.233   0.595   2.498  0.2101  0.3505 -0.1562
  151OSM    C1116731   2.166   0.732   2.653 -0.3587 -0.6334  0.4184
  151OSM   H11A16732   2.137   0.650   2.722  3.1924 -3.3471 -0.9701
  151OSM   H11B16733   2.077   0.750   2.590 -0.5007  0.2885  0.8658
  151OSM      P16734   2.123   0.935   2.817 -0.6290 -0.0425  0.0964
  151OSM    O1316735   2.216   1.040   2.878 -0.2001  0.2528 -0.3287
  151OSM    O1416736   2.010   0.986   2.735 -0.2058  0.4658 -0.0644
  151OSM    O1116737   2.070   0.834   2.929 -0.3188 -0.6602  0.2270
  151OSM    O1216738   2.217   0.846   2.722 -0.0672 -0.5252  0.0167
  151OSM    C1S16739   2.161   0.764   3.012  0.3495  0.3266 -0.3558
  151OSM    H1S16740   2.267   0.784   2.985  0.9481  0.2949  1.7819
  151OSM    H1T16741   2.147   0.658   2.982 -1.3198  0.8682 -1.7144
  151OSM     NF16742   2.254   0.682   3.222 -0.1339  0.4825 -0.2204
  151OSM    HNF16743   2.222   0.590   3.240 -0.0157  0.2898 -0.9366
  151OSM    C2S16744   2.153   0.770   3.166 -0.1129 -1.1138  0.3397
  151OSM    H2S16745   2.172   0.877   3.190 -0.3172 -0.6383 -1.4756
  151OSM    C3S16746   2.007   0.750   3.227 -0.0747 -0.0596  0.3987
  151OSM    H3S16747   1.971   0.646   3.218 -2.5467  0.9111 -2.6585
  151OSM     O316748   1.905   0.825   3.150  0.3415 -0.2383 -0.3141
  151OSM    HO316749   1.953   0.866   3.078  1.5997 -2.2471 -0.6922
  151OSM    C4S16750   2.001   0.788   3.374  0.2556 -0.3002 -0.2034
  151OSM    H4S16751   2.034   0.707   3.441  0.1150 -1.1931 -1.1966
  151OSM    C5S16752   1.970   0.909   3.435 -0.7423 -0.3345 -0.1573
  151OSM    H5S16753   1.959   1.001   3.376 -0.2901 -0.7416 -0.8759
  151OSM    C6S16754   1.974   0.924   3.585 -0.1538  0.2832  0.6668
  151OSM    H6S16755   2.025   1.021   3.604  0.4300 -0.1598  1.4322
  151OSM    H6T16756   2.021   0.837   3.634 -2.4375 -0.3119  1.9458
  151OSM    C7S16757   1.830   0.941   3.642  0.1503  0.2788  0.6589
  151OSM    H7S16758   1.769   0.851   3.617 -0.5836  1.1564 -0.8038
  151OSM    H7T16759   1.774   1.026   3.599 -0.2515 -0.3969 -0.1878
  151OSM    C8S16760   1.829   0.957   3.795 -0.1769  0.3771 -0.6713
  151OSM    H8S16761   1.927   1.005   3.811 -1.2728  2.4321  0.1873
  151OSM    H8T16762   1.849   0.862   3.849 -1.4866  1.5633  2.0629
  151OSM    C9S16763   1.717   1.038   3.855  0.8457 -0.1510 -0.3907
  151OSM    H9S16764   1.624   0.982   3.830  0.2743 -0.3697  2.0046
  151OSM    H9T16765   1.716   1.137   3.805  0.7244 -1.0056 -2.1971
  151OSM   C10S16766   1.709   1.049   4.013 -0.4502 -0.3093 -0.5185
  151OSM   H10S16767   1.731   0.948   4.053  1.4593  0.3779  0.2263
  151OSM   H10T16768   1.611   1.096   4.040  0.2638  1.4181 -0.7851
  151OSM   C11S16769   1.823   1.128   4.071 -0.0524 -0.2635 -0.5419
  151OSM   H11S16770   1.802   1.233   4.041  2.6678  0.5851  0.2322
  151OSM   H11T16771   1.920   1.082   4.042  0.6429  0.7705  0.0659
  151OSM   C12S16772   1.825   1.122   4.225  0.1976  0.4191 -0.5167
  151OSM   H12S16773   1.829   1.014   4.249 -2.3875  0.3345 -0.2570
  151OSM   H12T16774   1.735   1.156   4.280  0.5897 -1.7486  1.6437
  151OSM   C13S16775   1.952   1.191   4.291 -0.5784 -0.3677 -0.5767
  151OSM   H13S16776   1.968   1.290   4.245 -1.3988  1.0113  1.9047
  151OSM   H13T16777   2.052   1.144   4.278 -1.1797 -1.9882  0.3022
  151OSM   C14S16778   1.935   1.210   4.443  0.2054 -0.3951 -0.2577
  151OSM   H14S16779   1.842   1.267   4.466  1.4225  2.1380 -1.1741
  151OSM   H14T16780   2.013   1.277   4.484 -2.2606  2.5759 -0.0040
  151OSM   C15S16781   1.915   1.083   4.533 -0.6628 -0.4322 -0.6786
  151OSM   H15S16782   1.821   1.028   4.512 -0.9156 -0.4216  0.3665
  151OSM   H15T16783   1.900   1.119   4.637  2.1795 -1.8682  0.3375
  151OSM   C16S16784   2.042   0.996   4.533 -0.9045 -0.3512 -0.1512
  151OSM   H16S16785   2.121   1.073   4.549 -0.9881  0.3107 -2.6394
  151OSM   H16T16786   2.058   0.943   4.437 -0.9068  2.9202 -2.1345
  151OSM   C17S16787   2.059   0.899   4.658 -0.3188  0.6257  0.3374
  151OSM   H17S16788   1.970   0.835   4.679  0.5666 -0.8740 -0.3609
  151OSM   H17T16789   2.066   0.968   4.745  1.2201  0.6256  0.2371
  151OSM   C18S16790   2.184   0.818   4.663 -0.5830 -0.0232  0.3598
  151OSM   H18S16791   2.181   0.731   4.594 -0.6530  0.7912 -0.6921
  151OSM   H18T16792   2.208   0.780   4.765 -3.3198  2.7972  2.2039
  151OSM   H18U16793   2.272   0.870   4.620  0.0452 -2.4841 -1.5532
  151OSM    C1F16794   2.386   0.715   3.209  0.8386 -0.1266  0.0633
  151OSM     OF16795   2.419   0.824   3.172  0.3803 -0.3968  0.3573
  151OSM    C2F16796   2.488   0.608   3.237  0.3396  0.4329  0.0924
  151OSM    H2F16797   2.470   0.520   3.171 -0.0439  0.5467  0.0443
  151OSM    H2G16798   2.471   0.569   3.340 -0.8573 -2.4202 -1.0778
  151OSM    C3F16799   2.631   0.650   3.233 -0.6026  0.6041 -0.3107
  151OSM    H3F16800   2.642   0.749   3.280  2.2387  0.2306  0.0178
  151OSM    H3G16801   2.670   0.658   3.129 -0.3659 -1.5917 -0.4508
  151OSM    C4F16802   2.732   0.555   3.300  0.5962  0.6144  0.0960
  151OSM    H4F16803   2.818   0.536   3.232 -0.2692 -0.3740 -0.7459
  151OSM    H4G16804   2.683   0.457   3.315 -1.9991  1.2134 -3.3102
  151OSM    C5F16805   2.793   0.609   3.431 -0.1908 -0.4150  0.1258
  151OSM    H5F16806   2.721   0.671   3.488 -1.1892  0.7398 -2.2540
  151OSM    H5G16807   2.871   0.681   3.397 -0.9624 -0.6050 -2.1876
  151OSM    C6F16808   2.864   0.495   3.512  0.3834 -0.4431  0.3227
  151OSM    H6F16809   2.944   0.450   3.449 -0.3323 -0.1079 -0.8614
  151OSM    H6G16810   2.784   0.428   3.551  0.3768  0.7586  2.4618
  151OSM    C7F16811   2.939   0.555   3.638  0.4527  0.2006 -0.0870
  151OSM    H7F16812   3.018   0.628   3.610 -2.2724  3.0548 -1.0512
  151OSM    H7G16813   2.989   0.474   3.695  0.5448  1.0891  1.1524
  151OSM    C8F16814   2.853   0.646   3.731  0.1367  0.2614  0.2568
  151OSM    H8F16815   2.773   0.581   3.771  3.4207 -3.8024  1.0065
  151OSM    H8G16816   2.819   0.730   3.667 -0.6638  1.1158  1.7657
  151OSM    C9F16817   2.925   0.709   3.846 -0.1017 -0.0332  0.0764
  151OSM    H9F16818   2.968   0.809   3.830 -0.4279  0.3094  1.2188
  151OSM   C10F16819   2.910   0.676   3.978  0.2763 -0.2330 -0.5266
  151OSM   H10F16820   2.968   0.736   4.049  0.3458  0.0240 -0.7994
  151OSM   C11F16821   2.830   0.568   4.041 -0.0403  0.6716 -0.3456
  151OSM   H11F16822   2.753   0.528   3.972  0.3112  1.2736 -1.0971
  151OSM   H11G16823   2.771   0.619   4.120  1.1679  2.3758 -0.5172
  151OSM   C12F16824   2.915   0.452   4.105  0.3501  0.0591 -0.0670
  151OSM   H12F16825   3.003   0.414   4.048  0.5381 -0.1892  0.3812
  151OSM   H12G16826   2.850   0.364   4.124 -1.5193  1.4446  0.2345
  151OSM   C13F16827   2.983   0.487   4.242 -0.5429  0.1934  0.1377
  151OSM   H13F16828   2.896   0.496   4.311 -0.3986 -3.5175  1.0021
  151OSM   H13G16829   3.031   0.587   4.239 -0.3719  0.0977 -0.3639
  151OSM   C14F16830   3.075   0.383   4.292  0.5833 -0.0557 -0.5196
  151OSM   H14F16831   3.120   0.426   4.384  0.1116  1.1864 -0.8558
  151OSM   H14G16832   3.152   0.378   4.212  0.1702 -1.5900 -0.8654
  151OSM   C15F16833   3.008   0.245   4.312 -0.1511  0.3633 -0.3342
  151OSM   H15F16834   2.969   0.199   4.219  1.4467  0.6292 -1.1746
  151OSM   H15G16835   2.926   0.259   4.385 -0.9948 -0.7252 -1.0421
  151OSM   C16F16836   3.097   0.137   4.373  0.2591 -0.7321  0.4251
  151OSM   H16F16837   3.159   0.178   4.455 -3.2465  4.0124  1.1173
  151OSM   H16G16838   3.159   0.110   4.285  0.0039  0.6785 -0.2019
  151OSM   C17F16839   3.018   0.012   4.438 -0.1732 -0.3867  0.0355
  151OSM   H17F16840   2.981   0.033   4.541 -1.2798  0.6086 -0.5384
  151OSM   H17G16841   3.089  -0.071   4.457 -3.0461 -2.8428  0.7883
  151OSM   C18F16842   2.903  -0.042   4.348 -0.3535 -0.2943  0.5875
  151OSM   H18F16843   2.827   0.035   4.324  0.2796  0.1019 -0.1800
  151OSM   H18G16844   2.861  -0.136   4.390  0.0463 -0.4989  0.5364
  151OSM   H18H16845   2.949  -0.073   4.252  1.7867  0.9688  1.1282
  152OSM      N16846   4.902   0.883   1.767 -1.0075 -0.2609 -0.1914
  152OSM    C1516847   4.925   0.994   1.672  0.6179 -0.4215 -0.3995
  152OSM   H15A16848   4.948   1.085   1.725  1.6437  0.3223 -2.0340
  152OSM   H15B16849   4.837   1.023   1.616  0.8525 -0.3444 -0.7293
  152OSM   H15C16850   5.003   0.981   1.598 -0.6019  2.7251 -2.4243
  152OSM    C1416851   4.878   0.757   1.688 -0.8753  0.7371 -0.1146
  152OSM   H14A16852   4.791   0.762   1.624 -0.0175 -0.5336 -1.4516
  152OSM   H14B16853   4.899   0.671   1.750  1.0756  0.1643 -1.4794
  152OSM   H14C16854   4.960   0.748   1.619 -0.2585 -1.0876  0.7860
  152OSM    C1316855   5.033   0.861   1.841  0.6185  0.2310  0.1544
  152OSM   H13A16856   5.100   0.804   1.778 -1.3209  0.1582 -1.9690
  152OSM   H13B16857   5.018   0.801   1.930  2.1336 -1.0978 -0.4363
  152OSM   H13C16858   5.072   0.957   1.873  0.5105  0.0446  0.8659
  152OSM    C1216859   4.789   0.918   1.870  0.0743 -0.5951  0.7912
  152OSM   H12A16860   4.703   0.923   1.805 -0.8070 -0.2891  1.9459
  152OSM   H12B16861   4.790   1.016   1.915  1.4414  0.1641 -0.8019
  152OSM    C1116862   4.773   0.797   1.971  0.7813  0.3794  0.9955
  152OSM   H11A16863   4.687   0.832   2.033 -1.1432  0.2912 -1.4420
  152OSM   H11B16864   4.874   0.787   2.016  0.3484  0.2960  1.9637
  152OSM      P16865   4.694   0.544   1.959 -0.3354  0.0086 -0.2467
  152OSM    O1316866   4.551   0.558   1.994 -0.5333 -0.5398 -0.2359
  152OSM    O1416867   4.732   0.429   1.868 -0.3440  0.6144 -0.1353
  152OSM    O1116868   4.794   0.544   2.086  0.5554  0.2806 -0.9201
  152OSM    O1216869   4.730   0.682   1.896 -0.0799  0.2501 -0.2556
  152OSM    C1S16870   4.730   0.535   2.215 -0.0519  0.4670  1.0724
  152OSM    H1S16871   4.686   0.434   2.222 -0.6278  0.6042 -0.2849
  152OSM    H1T16872   4.644   0.604   2.232 -0.1960  0.4727  0.3502
  152OSM     NF16873   4.756   0.576   2.460  0.0954  0.0646 -0.0813
  152OSM    HNF16874   4.748   0.672   2.488  1.2854 -0.1155  0.9699
  152OSM    C2S16875   4.827   0.558   2.330  0.4115  0.4227 -0.6022
  152OSM    H2S16876   4.882   0.464   2.348 -0.3513  0.3616  1.6463
  152OSM    C3S16877   4.936   0.665   2.301 -0.3205 -0.1684 -0.1712
  152OSM    H3S16878   4.882   0.756   2.268 -2.9381 -1.1690  1.0531
  152OSM     O316879   5.017   0.629   2.190 -0.2606  0.4174  0.0866
  152OSM    HO316880   4.960   0.577   2.134  1.3225  0.9871 -2.2111
  152OSM    C4S16881   5.023   0.713   2.418  0.2334  0.4594 -0.1019
  152OSM    H4S16882   4.990   0.810   2.459 -1.2540  1.4149 -3.2377
  152OSM    C5S16883   5.139   0.648   2.462 -0.0877 -0.1778  0.2778
  152OSM    H5S16884   5.174   0.562   2.403  1.1793  0.8822 -0.5632
  152OSM    C6S16885   5.227   0.692   2.583  0.0650  0.2530  0.7700
  152OSM    H6S16886   5.175   0.770   2.643 -2.0101 -1.2819  1.0867
  152OSM    H6T16887   5.328   0.724   2.550  0.3324  0.2029  1.5135
  152OSM    C7S16888   5.249   0.576   2.690 -0.0744  0.7906 -0.6710
  152OSM    H7S16889   5.276   0.483   2.638 -2.4764 -0.2273 -0.2560
  152OSM    H7T16890   5.144   0.556   2.721 -0.2945  2.3897 -0.2743
  152OSM    C8S16891   5.346   0.609   2.800 -0.0290 -0.5292 -0.3770
  152OSM    H8S16892   5.308   0.700   2.851 -1.7604 -0.4084 -1.8182
  152OSM    H8T16893   5.445   0.629   2.753 -0.9722 -0.9051 -2.6475
  152OSM    C9S16894   5.367   0.504   2.906  0.3714 -0.1625 -0.4846
  152OSM    H9S16895   5.382   0.410   2.848 -1.7248 -0.2271 -1.0055
  152OSM    H9T16896   5.284   0.487   2.977  2.1232  3.3407  2.7879
  152OSM   C10S16897   5.463   0.553   3.013 -0.0594 -0.1526 -0.6680
  152OSM   H10S16898   5.424   0.645   3.061  0.6620 -0.2292  0.0657
  152OSM   H10T16899   5.558   0.582   2.963  0.7831 -0.2446  0.8433
  152OSM   C11S16900   5.485   0.442   3.121 -0.3703  0.3362  0.6131
  152OSM   H11S16901   5.594   0.433   3.140 -0.3432  0.8939  0.7578
  152OSM   H11T16902   5.465   0.339   3.087 -0.4609 -0.6373  3.3548
  152OSM   C12S16903   5.424   0.478   3.253  0.2652  0.3823 -0.7978
  152OSM   H12S16904   5.313   0.478   3.245  0.1841  0.6354  0.1868
  152OSM   H12T16905   5.444   0.579   3.296  1.7221  0.7699 -2.2895
  152OSM   C13S16906   5.459   0.382   3.368 -0.0457  0.7640  0.0415
  152OSM   H13S16907   5.567   0.400   3.388  0.5213 -1.4616 -0.7386
  152OSM   H13T16908   5.449   0.278   3.331 -1.2909  1.0669 -0.5136
  152OSM   C14S16909   5.375   0.391   3.496  0.2988  0.4564 -0.0776
  152OSM   H14S16910   5.291   0.322   3.472  1.7260 -0.5132 -2.7284
  152OSM   H14T16911   5.330   0.492   3.506 -0.9419  0.2110 -2.4112
  152OSM   C15S16912   5.450   0.343   3.616 -0.1813 -0.0212  0.1078
  152OSM   H15S16913   5.534   0.409   3.645 -0.4937  0.1918  0.5528
  152OSM   H15T16914   5.484   0.239   3.597  1.1238  0.3158  0.5561
  152OSM   C16S16915   5.358   0.314   3.739 -0.2405  0.6817 -0.3891
  152OSM   H16S16916   5.284   0.234   3.716  3.6600 -4.1686  1.7982
  152OSM   H16T16917   5.308   0.411   3.759  0.7827  1.1537 -0.0651
  152OSM   C17S16918   5.433   0.249   3.857  0.7511  0.1793  0.2784
  152OSM   H17S16919   5.528   0.306   3.871 -0.0472  1.7689 -0.5993
  152OSM   H17T16920   5.447   0.142   3.833 -2.3596  0.0466 -1.3304
  152OSM   C18S16921   5.358   0.257   3.991  0.3223 -0.4029 -0.3756
  152OSM   H18S16922   5.316   0.357   4.014  1.8725 -0.0144  0.9664
  152OSM   H18T16923   5.430   0.227   4.071 -0.4567  0.9948  0.8936
  152OSM   H18U16924   5.267   0.193   3.991 -0.3876  0.4252 -3.9074
  152OSM    C1F16925   4.665   0.489   2.510 -0.3441  0.2244  0.2920
  152OSM     OF16926   4.646   0.386   2.455 -0.1818  0.3396  0.3793
  152OSM    C2F16927   4.581   0.544   2.623  0.3718 -0.1700 -0.5443
  152OSM    H2F16928   4.538   0.644   2.599 -2.2656 -1.5016 -1.6938
  152OSM    H2G16929   4.646   0.573   2.709 -0.7203 -0.6705  0.4707
  152OSM    C3F16930   4.468   0.447   2.675 -0.1023  0.2678 -0.7641
  152OSM    H3F16931   4.497   0.340   2.680 -1.2170 -0.1185 -1.9602
  152OSM    H3G16932   4.379   0.442   2.608  0.8537  1.0882 -2.1395
  152OSM    C4F16933   4.412   0.489   2.814  0.1099  0.5266 -0.2785
  152OSM    H4F16934   4.322   0.438   2.854  0.9335 -0.0930  0.8300
  152OSM    H4G16935   4.396   0.599   2.812 -1.6206  0.3066 -0.5231
  152OSM    C5F16936   4.516   0.460   2.924  0.2364  0.3006 -0.3433
  152OSM    H5F16937   4.612   0.483   2.872 -0.2889 -1.0775 -1.9925
  152OSM    H5G16938   4.514   0.350   2.938 -0.6564  0.3675  0.1738
  152OSM    C6F16939   4.490   0.525   3.057 -0.2732  0.6800  0.1149
  152OSM    H6F16940   4.474   0.635   3.052  0.0775  0.8844  2.3307
  152OSM    H6G16941   4.588   0.520   3.110  0.0339  0.1579 -0.5023
  152OSM    C7F16942   4.381   0.466   3.147 -0.8177 -0.0918  0.0303
  152OSM    H7F16943   4.410   0.363   3.177 -1.6361 -0.8422 -1.6060
  152OSM    H7G16944   4.289   0.454   3.085 -1.0866  0.4731  0.3202
  152OSM    C8F16945   4.350   0.543   3.275  0.2575 -0.4843 -0.4110
  152OSM    H8F16946   4.276   0.480   3.328  3.0014 -3.4142  0.2424
  152OSM    H8G16947   4.288   0.632   3.248  2.0692  1.5393  1.7474
  152OSM    C9F16948   4.463   0.586   3.367 -0.7801 -0.1972  0.0817
  152OSM    H9F16949   4.541   0.640   3.312 -1.4672  1.3551  0.5771
  152OSM   C10F16950   4.465   0.573   3.499  0.6723 -0.5901  0.3495
  152OSM   H10F16951   4.556   0.593   3.558  1.1741  0.6772 -0.7993
  152OSM   C11F16952   4.360   0.506   3.586  0.0821  0.9655  1.1025
  152OSM   H11F16953   4.325   0.415   3.532  1.9047  1.0868 -0.3716
  152OSM   H11G16954   4.283   0.586   3.587 -0.8553  0.0912  1.7859
  152OSM   C12F16955   4.402   0.469   3.734  0.2867 -0.0255 -0.4485
  152OSM   H12F16956   4.477   0.388   3.732 -0.1602 -0.5998  1.9405
  152OSM   H12G16957   4.311   0.430   3.785  0.4894 -0.4097 -0.3848
  152OSM   C13F16958   4.453   0.593   3.815 -0.2812  0.2773  0.2638
  152OSM   H13F16959   4.393   0.685   3.799  1.4859  2.3467  4.0957
  152OSM   H13G16960   4.558   0.621   3.790  0.4060 -0.6065  1.9902
  152OSM   C14F16961   4.438   0.564   3.965  0.1426 -0.1708  0.2529
  152OSM   H14F16962   4.487   0.467   3.986  0.4776 -0.6346 -2.3610
  152OSM   H14G16963   4.328   0.556   3.982  0.3211 -0.2723  1.4886
  152OSM   C15F16964   4.504   0.669   4.049  0.1939 -1.0213 -0.0895
  152OSM   H15F16965   4.490   0.763   3.990 -1.6068 -0.3209  1.3408
  152OSM   H15G16966   4.613   0.650   4.055  0.3835  0.0132 -0.0799
  152OSM   C16F16967   4.450   0.682   4.195  0.3455  0.4231 -0.1474
  152OSM   H16F16968   4.344   0.716   4.184 -0.9505 -2.7331  1.2036
  152OSM   H16G16969   4.503   0.761   4.253  0.9991 -0.1212  0.0009
  152OSM   C17F16970   4.443   0.563   4.293  0.5910  0.1854 -0.0089
  152OSM   H17F16971   4.548   0.545   4.326  0.5190 -0.1572  0.0406
  152OSM   H17G16972   4.419   0.468   4.241 -1.1396  1.5250 -1.7829
  152OSM   C18F16973   4.374   0.584   4.427 -1.2625 -0.0785 -0.7700
  152OSM   H18F16974   4.397   0.683   4.472 -0.9723  1.1576 -3.4671
  152OSM   H18G16975   4.391   0.497   4.495 -0.6920  0.1172 -0.6559
  152OSM   H18H16976   4.263   0.588   4.418 -1.2199 -1.3474 -2.3563
  153OSM      N16977   4.824   1.674   2.117  0.8155 -0.0878  0.2887
  153OSM    C1516978   4.944   1.725   2.058  0.7700 -0.6329  0.1763
  153OSM   H15A16979   4.933   1.773   1.962 -0.5705 -0.0141  0.6095
  153OSM   H15B16980   5.022   1.652   2.044  0.6505 -0.5987 -0.7020
  153OSM   H15C16981   4.989   1.797   2.125 -0.1366 -0.2920  0.4412
  153OSM    C1416982   4.721   1.784   2.103  0.4287  0.5242  0.1915
  153OSM   H14A16983   4.765   1.874   2.142 -0.0171  0.9039 -0.1781
  153OSM   H14B16984   4.632   1.759   2.159  1.1169  0.0812  1.1224
  153OSM   H14C16985   4.708   1.805   1.998  3.1932 -1.3973 -0.6494
  153OSM    C1316986   4.803   1.554   2.029  0.4018  0.0275 -0.0009
  153OSM   H13A16987   4.887   1.486   2.038  1.1640  0.8805 -0.4761
  153OSM   H13B16988   4.780   1.561   1.924 -2.7642 -1.0267  0.5190
  153OSM   H13C16989   4.720   1.495   2.064  1.0894  0.1486  1.9749
  153OSM    C1216990   4.845   1.645   2.268  0.4337  0.0178 -0.0217
  153OSM   H12A16991   4.759   1.599   2.314 -0.4085  0.8769 -0.6778
  153OSM   H12B16992   4.866   1.736   2.322  0.2173  0.3009 -0.4062
  153OSM    C1116993   4.967   1.548   2.295  0.3354  0.2210 -0.7640
  153OSM   H11A16994   4.949   1.514   2.399 -0.9705  0.6508 -0.8216
  153OSM   H11B16995   5.061   1.607   2.296 -0.3784  1.4084  0.9616
  153OSM      P16996   5.106   1.354   2.178  0.3221  0.1331 -0.0010
  153OSM    O1316997   5.065   1.224   2.117  0.1172  0.2311  0.3347
  153OSM    O1416998   5.194   1.437   2.089  0.1014 -0.0748 -0.2734
  153OSM    O1116999   5.176   1.329   2.319 -0.2891  0.1843  1.0234
  153OSM    O1217000   4.972   1.430   2.216 -0.3465 -0.3148  0.2655
  153OSM    C1S17001   5.094   1.267   2.420 -0.1566 -0.4337 -0.2252
  153OSM    H1S17002   5.052   1.167   2.394 -1.5795 -0.0795  0.6337
  153OSM    H1T17003   5.003   1.327   2.438  0.6037  0.7864 -0.3432
  153OSM     NF17004   5.057   1.198   2.641  0.0755  0.4428 -0.5679
  153OSM    HNF17005   5.000   1.247   2.706 -1.5960 -0.6231 -1.1626
  153OSM    C2S17006   5.160   1.260   2.558  0.3036  0.1674  0.2015
  153OSM    H2S17007   5.247   1.193   2.546  0.5536  0.2968  1.2093
  153OSM    C3S17008   5.206   1.401   2.601 -0.8081  0.2832 -0.9524
  153OSM    H3S17009   5.110   1.456   2.612 -0.1504  1.1809  0.6863
  153OSM     O317010   5.277   1.479   2.501  0.0738  0.1944  0.3786
  153OSM    HO317011   5.243   1.439   2.420  0.0559 -1.0339  0.9609
  153OSM    C4S17012   5.281   1.393   2.728 -0.0776 -0.0744  0.0838
  153OSM    H4S17013   5.212   1.369   2.810 -1.5549 -2.1284 -1.6503
  153OSM    C5S17014   5.414   1.409   2.752  0.5478  0.6216 -0.2366
  153OSM    H5S17015   5.483   1.435   2.671  0.5219 -1.2510 -0.8986
  153OSM    C6S17016   5.489   1.396   2.885 -0.3588 -0.1999 -0.9771
  153OSM    H6S17017   5.537   1.494   2.904 -2.8239  0.9840 -0.3752
  153OSM    H6T17018   5.563   1.314   2.876 -2.0359 -2.0912  1.2074
  153OSM    C7S17019   5.397   1.384   3.007 -0.6599  0.5635 -0.9581
  153OSM    H7S17020   5.329   1.297   3.001  0.6923 -0.6585  0.5591
  153OSM    H7T17021   5.330   1.472   3.020  0.2046  0.9730  1.1482
  153OSM    C8S17022   5.485   1.365   3.138  0.1839  0.0596  0.1851
  153OSM    H8S17023   5.564   1.443   3.135 -2.5708  3.0056  0.3550
  153OSM    H8T17024   5.536   1.266   3.132  0.8950  0.5251 -2.3131
  153OSM    C9S17025   5.409   1.385   3.266 -0.2543  0.2522  0.3799
  153OSM    H9S17026   5.318   1.322   3.258  0.6182 -1.1043  0.8264
  153OSM    H9T17027   5.374   1.490   3.283  2.0523  1.2681 -0.6742
  153OSM   C10S17028   5.477   1.339   3.393 -0.2785  0.0607 -0.4008
  153OSM   H10S17029   5.571   1.394   3.412  0.9498 -1.9601 -0.3573
  153OSM   H10T17030   5.496   1.231   3.380  1.8811  0.3392  0.1607
  153OSM   C11S17031   5.385   1.351   3.512 -0.4383 -0.9481  0.0284
  153OSM   H11S17032   5.299   1.280   3.519 -1.2755  0.0679  0.3288
  153OSM   H11T17033   5.324   1.442   3.497 -1.7298 -1.9338 -0.9415
  153OSM   C12S17034   5.453   1.355   3.647  0.1778 -0.1779 -0.2048
  153OSM   H12S17035   5.499   1.456   3.656 -0.4467  0.0685  0.2633
  153OSM   H12T17036   5.534   1.280   3.660  0.9341  0.2364 -2.2446
  153OSM   C13S17037   5.353   1.347   3.765 -0.4975  0.1031 -0.4565
  153OSM   H13S17038   5.292   1.254   3.765 -0.5376  0.0991 -2.0779
  153OSM   H13T17039   5.281   1.432   3.760  1.6099  1.9566 -1.1713
  153OSM   C14S17040   5.422   1.349   3.898  0.0258  0.3160  1.3616
  153OSM   H14S17041   5.482   1.443   3.911  1.1316  0.1283 -1.6100
  153OSM   H14T17042   5.493   1.263   3.898  1.0313  0.8886 -3.2418
  153OSM   C15S17043   5.331   1.330   4.014 -0.8061  0.9886 -0.4572
  153OSM   H15S17044   5.271   1.238   3.998  0.3415  0.1879 -0.2167
  153OSM   H15T17045   5.270   1.422   4.033  0.2452  1.4268  0.9463
  153OSM   C16S17046   5.401   1.320   4.146 -0.0128  0.3462  0.7495
  153OSM   H16S17047   5.445   1.219   4.155 -0.6514 -0.1792 -1.3786
  153OSM   H16T17048   5.329   1.336   4.229  1.6248 -1.3185  2.5709
  153OSM   C17S17049   5.500   1.425   4.174  0.2873 -0.2451  0.4108
  153OSM   H17S17050   5.461   1.528   4.170 -1.5897 -0.9522 -1.7615
  153OSM   H17T17051   5.585   1.420   4.102  0.0116  1.0003 -0.0298
  153OSM   C18S17052   5.569   1.434   4.313  0.0602 -0.2501 -0.2205
  153OSM   H18S17053   5.664   1.375   4.310 -0.1619 -0.8603  2.3015
  153OSM   H18T17054   5.516   1.376   4.392 -1.5692  1.3727 -0.0575
  153OSM   H18U17055   5.590   1.539   4.342 -1.3650  0.5664 -1.9798
  153OSM    C1F17056   5.028   1.071   2.620 -0.0300  1.2238  0.8218
  153OSM     OF17057   5.112   0.999   2.559  0.3234 -0.3488 -0.5770
  153OSM    C2F17058   4.896   1.028   2.669 -0.3968 -0.3362  0.2145
  153OSM    H2F17059   4.827   0.991   2.589 -1.1506 -0.9603  1.1377
  153OSM    H2G17060   4.843   1.118   2.706  1.4531  0.2296  1.6249
  153OSM    C3F17061   4.902   0.921   2.783 -0.1067  0.7326 -0.3253
  153OSM    H3F17062   4.957   0.958   2.872  0.7931 -2.3672  0.5214
  153OSM    H3G17063   4.964   0.835   2.751  2.7230  1.6880  2.1314
  153OSM    C4F17064   4.765   0.863   2.821 -0.3909 -0.4287 -0.3776
  153OSM    H4F17065   4.732   0.813   2.727  3.3375  0.1877 -2.1816
  153OSM    H4G17066   4.699   0.950   2.841 -0.8138 -0.8132 -0.0799
  153OSM    C5F17067   4.764   0.769   2.937  0.1671  0.2951  0.2713
  153OSM    H5F17068   4.849   0.697   2.933  1.3083  1.6468 -2.3478
  153OSM    H5G17069   4.676   0.702   2.934  0.1835  0.3162 -1.4577
  153OSM    C6F17070   4.769   0.857   3.067  0.0733  0.9320  0.1815
  153OSM    H6F17071   4.850   0.932   3.055  0.6413  0.4520  0.9082
  153OSM    H6G17072   4.821   0.786   3.135  0.8076  0.6095 -0.7096
  153OSM    C7F17073   4.637   0.898   3.131  0.2260 -0.7347 -0.7752
  153OSM    H7F17074   4.572   0.809   3.145  1.1688 -1.2838  0.2434
  153OSM    H7G17075   4.586   0.979   3.074 -0.7609  0.6476  1.8738
  153OSM    C8F17076   4.654   0.962   3.268  0.0241  0.0006 -0.4032
  153OSM    H8F17077   4.555   0.996   3.306  1.1505  2.5720  0.4961
  153OSM    H8G17078   4.709   1.050   3.228 -0.3216  0.0530 -0.7693
  153OSM    C9F17079   4.738   0.884   3.368 -0.2849  0.1037 -0.9728
  153OSM    H9F17080   4.822   0.828   3.325 -0.2099  1.5102 -2.8005
  153OSM   C10F17081   4.730   0.876   3.501  0.1065 -0.0489 -0.1107
  153OSM   H10F17082   4.782   0.796   3.556  0.7566  0.7401  0.4420
  153OSM   C11F17083   4.624   0.942   3.589  0.0129  0.2487 -0.6545
  153OSM   H11F17084   4.562   0.860   3.632  2.5326 -0.2417  2.4425
  153OSM   H11G17085   4.553   1.009   3.537 -1.2056 -1.2873 -1.0395
  153OSM   C12F17086   4.680   1.007   3.726 -0.2013  0.1304  0.1410
  153OSM   H12F17087   4.590   1.054   3.771 -1.1025  3.3077 -4.3086
  153OSM   H12G17088   4.749   1.087   3.691 -0.3365 -0.3258 -1.2209
  153OSM   C13F17089   4.744   0.902   3.820  0.2384 -0.2103 -0.3228
  153OSM   H13F17090   4.827   0.847   3.770 -0.2640 -1.8272  0.5521
  153OSM   H13G17091   4.667   0.824   3.839 -0.8590  0.6993 -0.9011
  153OSM   C14F17092   4.782   0.953   3.952 -0.4256  0.9687 -0.0954
  153OSM   H14F17093   4.843   0.879   4.009  0.2556  1.7412  0.1965
  153OSM   H14G17094   4.691   0.974   4.012 -1.3443 -0.9596 -0.7127
  153OSM   C15F17095   4.857   1.090   3.950  1.0896 -0.0026 -0.7563
  153OSM   H15F17096   4.775   1.158   3.921  0.5617 -0.5482 -0.5562
  153OSM   H15G17097   4.934   1.104   3.871 -1.5165 -1.4169 -3.7756
  153OSM   C16F17098   4.917   1.132   4.087  0.4942  0.4299 -0.7118
  153OSM   H16F17099   4.981   1.221   4.069  0.1133  1.4112  2.2797
  153OSM   H16G17100   4.977   1.047   4.125 -1.7915 -1.4290 -1.0328
  153OSM   C17F17101   4.823   1.190   4.192 -0.1475  0.3578  0.3324
  153OSM   H17F17102   4.743   1.244   4.137  0.1713 -0.1462 -0.6523
  153OSM   H17G17103   4.876   1.274   4.242 -1.3514  0.9469  0.6543
  153OSM   C18F17104   4.764   1.088   4.284 -0.8450  0.1985  0.4668
  153OSM   H18F17105   4.847   1.049   4.347 -1.3231  0.4161  1.2507
  153OSM   H18G17106   4.728   1.001   4.224 -0.4814 -0.5388  1.3035
  153OSM   H18H17107   4.691   1.130   4.357 -0.0149  0.4973  1.1408
  154OSM      N17108   3.667   6.740   1.824 -0.1512  0.7585 -0.7536
  154OSM    C1517109   3.519   6.747   1.827 -0.4231  0.3628 -0.7350
  154OSM   H15A17110   3.485   6.849   1.830  1.9930  1.2232 -0.5642
  154OSM   H15B17111   3.483   6.688   1.910  0.0113  0.8182 -0.2204
  154OSM   H15C17112   3.470   6.696   1.744 -1.6792 -0.3159  0.3847
  154OSM    C1417113   3.706   6.591   1.811  0.0290 -0.0941 -0.1003
  154OSM   H14A17114   3.811   6.575   1.787  0.5458  1.0778  1.2212
  154OSM   H14B17115   3.657   6.532   1.735  2.6739 -0.9424 -1.3054
  154OSM   H14C17116   3.704   6.539   1.906 -0.1475 -0.1633 -0.1426
  154OSM    C1317117   3.721   6.815   1.705 -0.1759 -0.2678  0.3924
  154OSM   H13A17118   3.703   6.766   1.611  0.5108  0.8199 -0.3297
  154OSM   H13B17119   3.829   6.815   1.712 -0.2574 -1.5759  2.5141
  154OSM   H13C17120   3.682   6.916   1.703 -0.9092 -0.5239  1.3205
  154OSM    C1217121   3.724   6.795   1.955 -0.0679 -0.3875 -0.4968
  154OSM   H12A17122   3.649   6.861   1.997  0.1390  0.3590 -1.2879
  154OSM   H12B17123   3.805   6.864   1.939 -0.7337  0.2156 -1.3126
  154OSM    C1117124   3.763   6.694   2.060  0.0931 -0.7556 -0.8777
  154OSM   H11A17125   3.826   6.740   2.139 -0.1437  1.9458 -2.1332
  154OSM   H11B17126   3.832   6.621   2.014 -0.7113 -0.5505 -2.4629
  154OSM      P17127   3.535   6.685   2.187  0.1800  0.1211 -0.0283
  154OSM    O1317128   3.548   6.831   2.187 -0.2309 -0.5476  0.3642
  154OSM    O1417129   3.414   6.630   2.118 -0.4878  0.2427  0.3184
  154OSM    O1117130   3.531   6.645   2.335 -0.7016  0.1151  0.5726
  154OSM    O1217131   3.659   6.619   2.123  0.2154  0.4057 -0.0579
  154OSM    C1S17132   3.572   6.508   2.354 -0.1475  0.0388  0.5379
  154OSM    H1S17133   3.672   6.491   2.311 -0.4455  0.6559 -0.4475
  154OSM    H1T17134   3.499   6.447   2.296  1.0424  1.3044 -2.4916
  154OSM     NF17135   3.638   6.328   2.509 -0.0261 -0.0322  0.8901
  154OSM    HNF17136   3.585   6.245   2.529  1.0728 -1.1846 -0.6895
  154OSM    C2S17137   3.581   6.464   2.504 -0.5003 -0.0630 -0.9990
  154OSM    H2S17138   3.648   6.538   2.552 -1.0392  0.3148 -0.8200
  154OSM    C3S17139   3.444   6.498   2.581  0.2398  0.3375 -0.7188
  154OSM    H3S17140   3.362   6.428   2.555  1.2153 -1.8516  1.6249
  154OSM     O317141   3.388   6.633   2.554  1.3555  0.0913  0.3958
  154OSM    HO317142   3.445   6.668   2.485 -0.7968 -0.8573 -2.0108
  154OSM    C4S17143   3.465   6.466   2.731 -0.1923  0.4693 -0.5781
  154OSM    H4S17144   3.431   6.368   2.768  0.3193  0.3748 -0.3588
  154OSM    C5S17145   3.504   6.552   2.829 -0.2117  0.5985 -0.2108
  154OSM    H5S17146   3.537   6.654   2.801  0.2131 -0.2368 -3.1371
  154OSM    C6S17147   3.511   6.524   2.980 -0.0201  0.7415  0.1452
  154OSM    H6S17148   3.425   6.570   3.034 -0.4519  0.7572 -0.5416
  154OSM    H6T17149   3.603   6.569   3.021  0.4014 -0.5953  0.7081
  154OSM    C7S17150   3.513   6.376   3.035  0.0561  0.4196  0.2299
  154OSM    H7S17151   3.591   6.323   2.977 -0.4234 -1.2084  1.0170
  154OSM    H7T17152   3.420   6.322   3.010  1.0487 -0.7141 -1.1386
  154OSM    C8S17153   3.543   6.378   3.184 -0.5591  0.5219  0.3811
  154OSM    H8S17154   3.636   6.434   3.206 -0.0856 -0.0024 -0.2385
  154OSM    H8T17155   3.571   6.276   3.217 -1.5128 -0.2903 -1.1894
  154OSM    C9S17156   3.443   6.446   3.274  0.4617  0.1132 -0.5638
  154OSM    H9S17157   3.340   6.405   3.270 -0.6837  2.6803  0.3059
  154OSM    H9T17158   3.423   6.550   3.241 -2.0327 -0.8932 -2.5447
  154OSM   C10S17159   3.468   6.450   3.427  0.2564  0.4959  0.0712
  154OSM   H10S17160   3.573   6.471   3.456 -0.3057 -1.9628  4.9438
  154OSM   H10T17161   3.451   6.347   3.465  2.5831  1.0420  2.9644
  154OSM   C11S17162   3.390   6.555   3.506 -0.0515  0.4198 -0.0978
  154OSM   H11S17163   3.283   6.529   3.495  0.6530 -2.2366 -1.4410
  154OSM   H11T17164   3.402   6.659   3.467  1.8665  0.1308 -0.3618
  154OSM   C12S17165   3.430   6.558   3.656  0.6619  1.3836 -0.1588
  154OSM   H12S17166   3.539   6.553   3.675  0.9232  0.7346 -1.6425
  154OSM   H12T17167   3.396   6.458   3.689  3.0168  0.6072  0.0673
  154OSM   C13S17168   3.365   6.668   3.738  0.5852  0.0340 -0.1079
  154OSM   H13S17169   3.271   6.702   3.690  1.0761 -2.1960 -2.9419
  154OSM   H13T17170   3.437   6.752   3.743  0.5786 -0.0197  1.0104
  154OSM   C14S17171   3.344   6.648   3.891  0.0129  0.7662  0.6026
  154OSM   H14S17172   3.444   6.621   3.933  0.4915 -1.0675 -1.5571
  154OSM   H14T17173   3.279   6.559   3.905  1.1633 -0.6855 -2.5428
  154OSM   C15S17174   3.284   6.755   3.978  0.7670 -0.0771  0.0660
  154OSM   H15S17175   3.259   6.700   4.072 -0.2273  2.1934  1.1988
  154OSM   H15T17176   3.188   6.782   3.931  1.5837 -0.2430 -1.7717
  154OSM   C16S17177   3.380   6.869   4.026  0.2913  0.6110 -0.4094
  154OSM   H16S17178   3.313   6.927   4.093  1.2333 -1.3424  2.4144
  154OSM   H16T17179   3.401   6.928   3.935  3.4145 -0.0034 -0.2123
  154OSM   C17S17180   3.506   6.845   4.111  0.4223  0.2633  0.6149
  154OSM   H17S17181   3.582   6.789   4.053  1.2917 -0.9113  2.7830
  154OSM   H17T17182   3.481   6.783   4.199  1.9720 -0.1774  0.7654
  154OSM   C18S17183   3.571   6.978   4.155 -0.4461 -0.1196 -0.0526
  154OSM   H18S17184   3.668   6.964   4.209  0.8288  1.3357 -1.8575
  154OSM   H18T17185   3.511   7.022   4.238 -1.8950 -1.8564 -0.1226
  154OSM   H18U17186   3.575   7.056   4.076  1.4839 -0.8995 -0.7909
  154OSM    C1F17187   3.773   6.316   2.487 -0.6019  0.5498  0.5607
  154OSM     OF17188   3.844   6.419   2.471  0.2345  0.0633 -0.2752
  154OSM    C2F17189   3.829   6.179   2.476  0.4734  0.2967  0.0442
  154OSM    H2F17190   3.870   6.153   2.376  1.8919  0.3725  0.5778
  154OSM    H2G17191   3.739   6.115   2.475 -0.0966  1.0485  1.1148
  154OSM    C3F17192   3.938   6.150   2.572  0.7787 -0.4943 -0.3150
  154OSM    H3F17193   4.011   6.233   2.572  0.3411 -0.1026  0.3883
  154OSM    H3G17194   3.998   6.059   2.551  2.0830  0.1279  0.5996
  154OSM    C4F17195   3.895   6.149   2.722 -0.9125 -0.0582 -0.2230
  154OSM    H4F17196   3.847   6.247   2.744  0.3144  0.9903 -1.9484
  154OSM    H4G17197   3.984   6.154   2.788 -0.4698  1.8573 -0.8835
  154OSM    C5F17198   3.803   6.029   2.751 -0.6465 -0.1539 -0.5823
  154OSM    H5F17199   3.844   5.930   2.722 -1.9008 -0.9001  0.0771
  154OSM    H5G17200   3.711   6.047   2.691 -0.2169 -1.0627 -1.5392
  154OSM    C6F17201   3.769   6.028   2.905  0.2988  0.3621  0.2660
  154OSM    H6F17202   3.692   5.949   2.915 -0.6338  1.1949 -0.1372
  154OSM    H6G17203   3.729   6.129   2.927 -1.9039 -0.6814  1.3867
  154OSM    C7F17204   3.888   5.995   3.009  1.2478  0.3804  0.3599
  154OSM    H7F17205   3.958   6.081   3.003  1.7877  0.0226  1.3137
  154OSM    H7G17206   3.934   5.905   2.963  2.0088  0.8033  0.2840
  154OSM    C8F17207   3.847   5.957   3.155  0.2507 -0.1625 -0.6426
  154OSM    H8F17208   3.935   5.926   3.215  0.5921  2.7848  0.5376
  154OSM    H8G17209   3.791   5.861   3.153  2.7057 -1.7092  0.8230
  154OSM    C9F17210   3.776   6.064   3.240  0.4131  0.7576  0.6237
  154OSM    H9F17211   3.754   6.157   3.187 -1.9617 -1.0195 -1.8143
  154OSM   C10F17212   3.714   6.044   3.359 -0.6248 -0.1092  0.0496
  154OSM   H10F17213   3.654   6.127   3.400  0.9496  1.0225  0.1762
  154OSM   C11F17214   3.704   5.914   3.430  0.5098 -0.0407 -0.8585
  154OSM   H11F17215   3.739   5.829   3.366  0.1815 -0.5648 -0.3459
  154OSM   H11G17216   3.597   5.891   3.449 -0.2084  0.3769 -3.8177
  154OSM   C12F17217   3.779   5.893   3.563 -0.7901 -0.5686  1.2276
  154OSM   H12F17218   3.884   5.912   3.533 -1.9008  0.3155 -2.6219
  154OSM   H12G17219   3.769   5.786   3.590  0.5490 -1.9131 -2.8707
  154OSM   C13F17220   3.732   5.988   3.671  0.3314 -0.0244  0.8021
  154OSM   H13F17221   3.622   5.979   3.682 -0.0033  0.6307 -1.4564
  154OSM   H13G17222   3.768   6.090   3.646  1.6938 -0.1000  2.2718
  154OSM   C14F17223   3.814   5.962   3.801  0.0718 -0.7389  0.8098
  154OSM   H14F17224   3.828   6.057   3.857 -0.5229 -1.1348  1.6483
  154OSM   H14G17225   3.919   5.935   3.774  0.6077  0.4614  1.5953
  154OSM   C15F17226   3.764   5.850   3.899  0.1461  0.6161  0.5682
  154OSM   H15F17227   3.750   5.755   3.843 -0.7324  0.9022  0.2943
  154OSM   H15G17228   3.666   5.868   3.947 -0.0780  0.7831  0.0548
  154OSM   C16F17229   3.880   5.820   3.995 -0.0826  0.1965  0.3835
  154OSM   H16F17230   3.971   5.802   3.934 -0.7933  0.3055 -0.7358
  154OSM   H16G17231   3.860   5.724   4.048  1.4635 -0.2606  0.2082
  154OSM   C17F17232   3.898   5.926   4.105  0.2218 -0.3937 -0.4244
  154OSM   H17F17233   3.935   6.018   4.054 -1.2927  1.0365  0.9789
  154OSM   H17G17234   3.985   5.900   4.170  1.2193  0.5569 -1.3285
  154OSM   C18F17235   3.781   5.961   4.193 -0.0299 -0.3682 -0.6466
  154OSM   H18F17236   3.821   6.049   4.248  2.2201 -2.1507  0.7771
  154OSM   H18G17237   3.751   5.885   4.268  1.5197 -0.3990 -0.0194
  154OSM   H18H17238   3.704   6.009   4.129 -0.1724  0.1798 -0.0691
  155OSM      N17239   6.557   3.343   2.437 -0.0299 -0.5404 -0.2533
  155OSM    C1517240   6.551   3.292   2.580 -0.1215 -0.1316  0.1346
  155OSM   H15A17241   6.622   3.212   2.593 -0.4695 -0.4168  0.2935
  155OSM   H15B17242   6.461   3.235   2.596  0.0041 -1.1138 -2.2473
  155OSM   H15C17243   6.579   3.378   2.638  0.4476  0.9444 -1.6566
  155OSM    C1417244   6.693   3.384   2.398 -0.0755 -0.5197 -0.7603
  155OSM   H14A17245   6.762   3.303   2.382  1.1406  0.4787 -0.7613
  155OSM   H14B17246   6.741   3.444   2.475 -1.0831 -0.7804  0.0982
  155OSM   H14C17247   6.695   3.436   2.304  0.3756 -1.4157 -1.2504
  155OSM    C1317248   6.507   3.227   2.359  0.5939 -0.2954  1.1167
  155OSM   H13A17249   6.411   3.189   2.392 -0.9043  1.2713 -1.0997
  155OSM   H13B17250   6.581   3.149   2.360  1.6356  0.4597 -2.3793
  155OSM   H13C17251   6.512   3.248   2.253  1.1372 -2.5249  0.6520
  155OSM    C1217252   6.455   3.452   2.426  0.4473 -0.7364  0.0352
  155OSM   H12A17253   6.352   3.418   2.427  0.6204 -1.2786  0.8864
  155OSM   H12B17254   6.459   3.478   2.321 -1.0148 -2.1518 -0.4214
  155OSM    C1117255   6.463   3.564   2.523  0.5709 -0.1975  0.2511
  155OSM   H11A17256   6.455   3.524   2.627  2.1936 -0.4300  0.3059
  155OSM   H11B17257   6.373   3.628   2.512  0.1066 -0.8855 -0.0740
  155OSM      P17258   6.593   3.789   2.469  0.1217 -0.0983  0.4693
  155OSM    O1317259   6.726   3.823   2.422 -0.2337 -0.2643  0.3630
  155OSM    O1417260   6.471   3.820   2.388 -0.4573  0.0286 -0.3928
  155OSM    O1117261   6.576   3.875   2.593 -0.8527  0.6075 -0.0185
  155OSM    O1217262   6.586   3.633   2.510  0.2323 -0.3678 -0.5591
  155OSM    C1S17263   6.632   3.850   2.712 -0.5241  0.3281 -0.6597
  155OSM    H1S17264   6.738   3.883   2.715  0.6674 -3.1701  0.2648
  155OSM    H1T17265   6.644   3.742   2.737 -2.1515  0.3142  0.1790
  155OSM     NF17266   6.622   3.893   2.955  0.1998  0.7242 -0.0543
  155OSM    HNF17267   6.615   3.808   3.006 -1.4869  0.5463 -0.4965
  155OSM    C2S17268   6.551   3.904   2.835 -0.1134 -0.2435  0.8976
  155OSM    H2S17269   6.537   4.013   2.817  0.0230 -0.6260 -2.0388
  155OSM    C3S17270   6.400   3.842   2.830 -0.5216  0.4044 -0.1772
  155OSM    H3S17271   6.409   3.732   2.846 -0.6097  0.4641  0.3102
  155OSM     O317272   6.337   3.861   2.708 -0.3917 -0.1008  0.1859
  155OSM    HO317273   6.412   3.878   2.650 -0.1530  2.9018  1.2179
  155OSM    C4S17274   6.334   3.905   2.942  0.6321 -0.3898 -0.3429
  155OSM    H4S17275   6.323   4.014   2.944  0.7872 -0.3811  1.1480
  155OSM    C5S17276   6.290   3.831   3.047  0.2500  0.0311  0.1270
  155OSM    H5S17277   6.321   3.726   3.039  2.6050  0.7385 -0.6924
  155OSM    C6S17278   6.223   3.880   3.173 -0.3779 -0.2923 -0.2067
  155OSM    H6S17279   6.125   3.829   3.189 -0.2509  0.0063  1.8389
  155OSM    H6T17280   6.208   3.990   3.162 -1.7088 -0.2960  1.1191
  155OSM    C7S17281   6.312   3.853   3.301  0.8387  0.4034 -0.2221
  155OSM    H7S17282   6.403   3.917   3.303  0.2905  1.2527  2.8214
  155OSM    H7T17283   6.338   3.746   3.316  0.1442  0.1504 -0.7599
  155OSM    C8S17284   6.234   3.889   3.436 -0.7524  0.4582  0.4278
  155OSM    H8S17285   6.161   3.807   3.449 -1.6785  0.5449 -3.0738
  155OSM    H8T17286   6.168   3.979   3.430  0.1302  1.0527 -0.8562
  155OSM    C9S17287   6.316   3.914   3.556  0.1971 -0.6644 -0.0490
  155OSM    H9S17288   6.385   4.002   3.549 -0.0390 -0.4813 -0.0907
  155OSM    H9T17289   6.395   3.836   3.560 -0.3136 -1.2834 -1.4342
  155OSM   C10S17290   6.247   3.906   3.689  0.6325 -0.1318 -0.3850
  155OSM   H10S17291   6.212   3.804   3.714  1.0748 -0.0915  0.4516
  155OSM   H10T17292   6.165   3.981   3.692 -0.7019 -1.4951 -1.3235
  155OSM   C11S17293   6.354   3.948   3.796  0.3121  0.1279  0.8617
  155OSM   H11S17294   6.408   4.038   3.758  2.5318 -1.9302 -1.2615
  155OSM   H11T17295   6.434   3.872   3.782  0.0960  0.3382 -2.3698
  155OSM   C12S17296   6.322   3.957   3.942 -0.2419  0.1032  0.0101
  155OSM   H12S17297   6.285   3.858   3.975 -2.2100  0.4818 -0.9583
  155OSM   H12T17298   6.239   4.029   3.958 -0.0429  1.5258 -4.1954
  155OSM   C13S17299   6.447   3.985   4.033 -0.4535  0.9301  0.0260
  155OSM   H13S17300   6.517   4.049   3.976 -0.4864 -0.6700 -1.9182
  155OSM   H13T17301   6.496   3.887   4.049 -2.2679  0.0665  0.6926
  155OSM   C14S17302   6.411   4.044   4.175  0.3857  0.6700 -0.6840
  155OSM   H14S17303   6.357   4.141   4.171 -0.1401  0.4866  1.1749
  155OSM   H14T17304   6.506   4.045   4.232  0.8033  1.1248 -1.3636
  155OSM   C15S17305   6.322   3.944   4.264  0.1385 -0.4081 -0.7215
  155OSM   H15S17306   6.220   3.945   4.220  0.3748  0.5199 -1.2604
  155OSM   H15T17307   6.313   3.989   4.365 -0.5746 -1.0654 -0.4789
  155OSM   C16S17308   6.368   3.800   4.275  0.0037 -0.4107 -0.1329
  155OSM   H16S17309   6.478   3.788   4.284  0.1987  1.4736  0.4546
  155OSM   H16T17310   6.336   3.749   4.182 -0.6467 -2.7679  1.2892
  155OSM   C17S17311   6.306   3.721   4.401  0.1978 -0.4207  0.9129
  155OSM   H17S17312   6.331   3.613   4.400 -1.7044 -0.8932  1.1420
  155OSM   H17T17313   6.196   3.718   4.393  0.0873  0.9123  1.6239
  155OSM   C18S17314   6.331   3.780   4.537 -0.1712  0.4567  0.5412
  155OSM   H18S17315   6.342   3.890   4.533  1.8910  0.3141  1.0292
  155OSM   H18T17316   6.431   3.757   4.581  0.2971  0.4461 -0.5056
  155OSM   H18U17317   6.244   3.761   4.604 -2.4604 -2.7773 -2.9520
  155OSM    C1F17318   6.732   3.961   2.968  0.4591  0.2281 -0.3554
  155OSM     OF17319   6.764   4.048   2.891 -0.9286 -0.0621 -0.1576
  155OSM    C2F17320   6.819   3.916   3.084 -0.0899 -0.0912  0.3557
  155OSM    H2F17321   6.914   3.971   3.070 -0.4714  0.2733 -0.9190
  155OSM    H2G17322   6.832   3.807   3.073 -3.0673 -0.6793  1.6522
  155OSM    C3F17323   6.748   3.941   3.214  0.4574  0.2661  0.0392
  155OSM    H3F17324   6.660   3.875   3.227  0.5033  0.1075 -0.4367
  155OSM    H3G17325   6.732   4.051   3.219  1.9261  0.5430 -0.7671
  155OSM    C4F17326   6.844   3.903   3.334  0.2699 -0.1586  0.3392
  155OSM    H4F17327   6.924   3.979   3.324  1.8962 -2.0014 -1.8617
  155OSM    H4G17328   6.890   3.802   3.322  2.0162  0.8801 -3.0068
  155OSM    C5F17329   6.784   3.907   3.467 -0.1448 -0.7780 -0.2162
  155OSM    H5F17330   6.684   3.860   3.472 -2.2344  3.2532  3.3884
  155OSM    H5G17331   6.775   4.013   3.501 -1.9448 -1.3414  1.2247
  155OSM    C6F17332   6.870   3.834   3.572  0.2818  0.3065  0.6569
  155OSM    H6F17333   6.972   3.875   3.563 -0.1651  1.1502 -0.9521
  155OSM    H6G17334   6.870   3.727   3.543 -0.3690  0.1223  1.3012
  155OSM    C7F17335   6.815   3.841   3.711  0.0654  0.0957 -0.1824
  155OSM    H7F17336   6.834   3.749   3.770 -0.1469 -1.2094 -2.0580
  155OSM    H7G17337   6.705   3.853   3.719  0.1862  0.1831  1.9261
  155OSM    C8F17338   6.875   3.975   3.773 -0.1613  0.0831  0.0567
  155OSM    H8F17339   6.875   4.051   3.692  0.1482 -0.3344 -0.3389
  155OSM    H8G17340   6.984   3.956   3.784  0.2394  1.8509 -0.4496
  155OSM    C9F17341   6.800   4.023   3.896  0.0400 -0.6015 -1.0584
  155OSM    H9F17342   6.716   4.090   3.873 -1.4793 -1.6627  1.0547
  155OSM   C10F17343   6.815   3.967   4.020 -0.3966  0.0222  0.1404
  155OSM   H10F17344   6.762   3.993   4.114 -2.0824 -1.1213 -0.4410
  155OSM   C11F17345   6.905   3.851   4.062 -0.0558  0.5718 -0.0001
  155OSM   H11F17346   6.985   3.825   3.989  0.3298 -0.0517  0.6282
  155OSM   H11G17347   6.843   3.760   4.074  0.7117 -0.0709 -0.7257
  155OSM   C12F17348   6.977   3.871   4.190 -0.9530  0.3854  0.0965
  155OSM   H12F17349   6.983   3.774   4.243 -0.9767  0.9302  1.1266
  155OSM   H12G17350   6.919   3.933   4.262 -0.0644 -0.5223  1.6465
  155OSM   C13F17351   7.122   3.931   4.175  1.1032 -0.2239  0.1519
  155OSM   H13F17352   7.104   4.037   4.148 -1.8381 -0.1824  1.8753
  155OSM   H13G17353   7.165   3.893   4.079  0.7959 -0.3523  0.0637
  155OSM   C14F17354   7.226   3.906   4.288  0.2030  0.7350  0.4354
  155OSM   H14F17355   7.310   3.976   4.266  0.9218  0.2596  1.5780
  155OSM   H14G17356   7.247   3.797   4.290 -1.0407  0.3970 -1.5679
  155OSM   C15F17357   7.176   3.949   4.425  0.3231 -0.3119  0.5798
  155OSM   H15F17358   7.112   3.872   4.472  1.6525 -0.2839  2.5490
  155OSM   H15G17359   7.119   4.042   4.404 -1.0404 -1.5672 -1.6190
  155OSM   C16F17360   7.293   3.982   4.519  0.5955 -0.4759 -0.2064
  155OSM   H16F17361   7.347   4.068   4.473 -1.8040 -0.0084 -2.3792
  155OSM   H16G17362   7.371   3.903   4.517 -0.5597 -1.6440 -1.3499
  155OSM   C17F17363   7.257   4.004   4.664  0.6633  0.4592  0.1449
  155OSM   H17F17364   7.211   3.912   4.707  0.6557  0.5178  0.2614
  155OSM   H17G17365   7.174   4.077   4.664 -0.1095 -0.3914 -0.9379
  155OSM   C18F17366   7.370   4.059   4.748  0.4486  0.0281  0.3382
  155OSM   H18F17367   7.453   3.986   4.758  0.1706 -0.1140  2.0005
  155OSM   H18G17368   7.327   4.069   4.851  0.5390 -0.7047  0.4506
  155OSM   H18H17369   7.408   4.162   4.734  4.0935 -1.2897 -0.3331
  156OSM      N17370   1.154   2.460   2.213 -0.3673 -0.3016 -0.5348
  156OSM    C1517371   1.172   2.585   2.121  0.1590  0.3415  0.5863
  156OSM   H15A17372   1.178   2.557   2.017  1.5574 -2.0839  1.2497
  156OSM   H15B17373   1.258   2.645   2.149  0.0265  0.9560 -0.2768
  156OSM   H15C17374   1.091   2.654   2.141  0.8725  0.5382  3.1557
  156OSM    C1417375   1.042   2.387   2.143 -0.0617 -0.9012  0.2348
  156OSM   H14A17376   1.019   2.288   2.180  2.6434 -0.8317  2.3943
  156OSM   H14B17377   1.059   2.379   2.036 -1.4842 -3.0188  0.1125
  156OSM   H14C17378   0.958   2.452   2.159  0.7706 -0.0414  1.2324
  156OSM    C1317379   1.275   2.380   2.215  0.2184  0.4466 -0.0661
  156OSM   H13A17380   1.355   2.434   2.264  2.3770 -0.8919 -1.8984
  156OSM   H13B17381   1.312   2.349   2.118 -0.6604  1.0880 -0.6241
  156OSM   H13C17382   1.254   2.293   2.275  1.7148 -1.9271 -2.7116
  156OSM    C1217383   1.105   2.514   2.351  0.7982  0.5671  0.8001
  156OSM   H12A17384   1.077   2.426   2.408 -2.1693 -0.4576 -1.9462
  156OSM   H12B17385   1.008   2.557   2.332  0.4590 -0.6774 -0.4891
  156OSM    C1117386   1.202   2.589   2.446  0.6445 -0.3812 -0.3717
  156OSM   H11A17387   1.298   2.541   2.472  0.2208 -1.3576 -0.5531
  156OSM   H11B17388   1.158   2.597   2.548  1.8671  0.3973  0.1047
  156OSM      P17389   1.132   2.835   2.434  0.1457  0.6207 -0.2525
  156OSM    O1317390   1.136   2.931   2.321  0.5469  0.1387 -0.1058
  156OSM    O1417391   0.997   2.790   2.473 -0.3354 -0.3191 -0.4532
  156OSM    O1117392   1.199   2.914   2.555 -0.3739  0.3361  0.0549
  156OSM    O1217393   1.229   2.717   2.392 -0.2184 -0.1740 -0.0756
  156OSM    C1S17394   1.144   3.015   2.631  0.6786 -0.3966 -0.2122
  156OSM    H1S17395   1.088   2.977   2.719  0.7702 -0.2539 -0.0912
  156OSM    H1T17396   1.076   3.082   2.573 -0.1308  0.3454  1.5016
  156OSM     NF17397   1.186   3.207   2.782  0.7281 -0.0491  0.1365
  156OSM    HNF17398   1.184   3.299   2.741 -0.7560  0.2111  0.7540
  156OSM    C2S17399   1.250   3.105   2.699 -0.5667 -0.0087  0.3038
  156OSM    H2S17400   1.305   3.033   2.763  2.0249  1.1662 -0.4833
  156OSM    C3S17401   1.352   3.158   2.592 -0.5449 -0.7010 -0.6192
  156OSM    H3S17402   1.302   3.238   2.535 -1.5932 -1.8101 -1.3075
  156OSM     O317403   1.401   3.070   2.491  0.0847  0.1381  0.3475
  156OSM    HO317404   1.341   2.996   2.501  2.0195 -1.6577 -0.5070
  156OSM    C4S17405   1.455   3.228   2.679 -0.2781 -0.4386 -0.5747
  156OSM    H4S17406   1.433   3.331   2.712 -2.1583 -0.2394 -2.2190
  156OSM    C5S17407   1.562   3.169   2.733 -0.0723  0.2085 -0.3654
  156OSM    H5S17408   1.572   3.061   2.719 -0.6047  0.0104  0.7073
  156OSM    C6S17409   1.662   3.228   2.825  0.2802 -0.6733 -0.7312
  156OSM    H6S17410   1.641   3.338   2.823  0.0521 -0.6885  0.4315
  156OSM    H6T17411   1.760   3.205   2.778 -0.0500  0.3075 -1.9773
  156OSM    C7S17412   1.664   3.166   2.966 -0.0709 -0.0274  0.3422
  156OSM    H7S17413   1.650   3.055   2.961  0.8648 -0.1828  0.9611
  156OSM    H7T17414   1.581   3.217   3.019  0.1250  4.5312 -3.1476
  156OSM    C8S17415   1.791   3.201   3.050  0.3607  0.4835 -0.0428
  156OSM    H8S17416   1.800   3.311   3.063 -0.2193  0.5839 -0.4785
  156OSM    H8T17417   1.884   3.167   3.000  0.3846 -0.0415  0.3472
  156OSM    C9S17418   1.795   3.117   3.184 -0.3122  0.7931  0.5042
  156OSM    H9S17419   1.828   3.013   3.163  0.4044  1.6263 -3.4998
  156OSM    H9T17420   1.690   3.126   3.218 -0.2986  1.6261  0.3525
  156OSM   C10S17421   1.869   3.177   3.305 -0.3411 -0.6215 -0.2006
  156OSM   H10S17422   1.860   3.288   3.306  2.8412 -0.2698 -0.0734
  156OSM   H10T17423   1.977   3.157   3.285  0.1323  0.1655  1.3555
  156OSM   C11S17424   1.824   3.124   3.440  0.0180 -0.4190 -0.2013
  156OSM   H11S17425   1.819   3.013   3.440  0.8495 -0.4775 -1.1191
  156OSM   H11T17426   1.722   3.156   3.470  0.3101  0.0575  0.3159
  156OSM   C12S17427   1.915   3.168   3.558 -0.1527 -0.3472 -0.5859
  156OSM   H12S17428   1.907   3.279   3.562  0.7215 -0.2695 -0.7302
  156OSM   H12T17429   2.016   3.123   3.547  0.4722  0.5998  0.9383
  156OSM   C13S17430   1.865   3.127   3.695 -0.0572  0.8186 -0.3056
  156OSM   H13S17431   1.848   3.017   3.688  1.5368  0.3406  2.2976
  156OSM   H13T17432   1.768   3.172   3.726 -0.4189 -0.3454  0.3301
  156OSM   C14S17433   1.964   3.149   3.812  0.8516 -0.3687 -1.1197
  156OSM   H14S17434   2.071   3.138   3.786  1.4528  0.7158  0.7403
  156OSM   H14T17435   1.946   3.074   3.892 -1.7198 -0.0417 -1.2830
  156OSM   C15S17436   1.947   3.286   3.887  0.0748  1.0632  0.6854
  156OSM   H15S17437   1.839   3.302   3.905  0.3325  2.5473  1.0458
  156OSM   H15T17438   1.990   3.369   3.827  1.0391  1.3313  1.6982
  156OSM   C16S17439   2.016   3.288   4.025  0.9924 -0.1592  0.2976
  156OSM   H16S17440   1.987   3.390   4.059 -1.4799 -0.8672  0.5355
  156OSM   H16T17441   2.126   3.284   4.011  0.8859 -2.2788 -0.2764
  156OSM   C17S17442   1.964   3.193   4.130 -0.2087 -0.1432 -0.7206
  156OSM   H17S17443   1.966   3.090   4.088 -2.9969  0.0128 -1.4088
  156OSM   H17T17444   1.858   3.221   4.149 -0.9362 -2.7599 -0.5503
  156OSM   C18S17445   2.037   3.207   4.261  0.4853  0.0085 -0.4831
  156OSM   H18S17446   2.050   3.311   4.297  2.2342 -0.5385  0.6396
  156OSM   H18T17447   2.141   3.168   4.263  0.3830 -0.2695  1.3899
  156OSM   H18U17448   1.994   3.143   4.342  0.3671  0.9849  0.2488
  156OSM    C1F17449   1.108   3.187   2.891 -0.1860 -0.1794  0.2344
  156OSM     OF17450   1.099   3.072   2.932  0.3530 -1.3146  0.0009
  156OSM    C2F17451   1.036   3.314   2.934  0.2124  0.0392  0.1477
  156OSM    H2F17452   1.026   3.380   2.846  1.0811  1.1954  0.8891
  156OSM    H2G17453   1.117   3.342   3.004  1.2085 -2.1062 -0.0668
  156OSM    C3F17454   0.901   3.293   3.007  0.3321  0.1810 -0.3048
  156OSM    H3F17455   0.922   3.237   3.102  0.0029 -0.4743 -0.6136
  156OSM    H3G17456   0.833   3.231   2.945  0.4295  0.5702 -0.8022
  156OSM    C4F17457   0.830   3.430   3.043 -0.4703  0.2907 -0.3117
  156OSM    H4F17458   0.748   3.414   3.116 -1.5326 -2.6964 -1.9626
  156OSM    H4G17459   0.782   3.485   2.959  0.1261  0.9625 -0.2204
  156OSM    C5F17460   0.923   3.532   3.107  0.5333 -0.4369 -0.5092
  156OSM    H5F17461   0.868   3.624   3.133  1.0614  0.1569 -1.4560
  156OSM    H5G17462   0.999   3.563   3.032 -0.9970  0.9412 -1.5609
  156OSM    C6F17463   1.000   3.494   3.233  0.0603  0.0237  0.4204
  156OSM    H6F17464   1.082   3.563   3.260  3.0105 -2.5125 -1.2945
  156OSM    H6G17465   1.051   3.399   3.202 -0.3135  0.1647 -0.6871
  156OSM    C7F17466   0.907   3.460   3.352 -0.2075  0.2154 -0.3675
  156OSM    H7F17467   0.842   3.375   3.324 -1.8708  0.6645  1.8580
  156OSM    H7G17468   0.842   3.547   3.374 -1.4761 -0.5930 -0.8078
  156OSM    C8F17469   0.996   3.438   3.482  0.6705 -0.0690 -0.3011
  156OSM    H8F17470   1.040   3.537   3.508  0.5717 -0.2494  0.5943
  156OSM    H8G17471   1.074   3.359   3.484  0.0696 -0.6875  1.7484
  156OSM    C9F17472   0.889   3.404   3.587  0.1650 -0.4595  0.8069
  156OSM    H9F17473   0.812   3.335   3.549  0.3761 -0.6051  0.6428
  156OSM   C10F17474   0.876   3.464   3.707  0.0614 -0.7524  0.2950
  156OSM   H10F17475   0.795   3.424   3.770  0.6857 -0.7474  1.1167
  156OSM   C11F17476   0.952   3.574   3.774 -0.2233 -0.1362 -0.3584
  156OSM   H11F17477   0.892   3.664   3.802  2.2951  1.1600  1.2490
  156OSM   H11G17478   1.024   3.612   3.699  0.1083 -0.3898 -0.1681
  156OSM   C12F17479   1.027   3.520   3.894 -0.4988 -0.2865 -0.0793
  156OSM   H12F17480   1.076   3.424   3.866 -1.2824 -0.5562 -0.5729
  156OSM   H12G17481   0.954   3.484   3.969 -0.2766  0.0791  0.3174
  156OSM   C13F17482   1.128   3.612   3.957 -0.9504 -0.6312 -0.7159
  156OSM   H13F17483   1.163   3.567   4.052 -2.0214 -0.8326 -0.4029
  156OSM   H13G17484   1.078   3.708   3.980 -1.6075 -0.4927 -2.5494
  156OSM   C14F17485   1.256   3.638   3.878 -0.1268 -0.3785 -0.2343
  156OSM   H14F17486   1.332   3.688   3.941 -1.2892 -0.8936  1.6484
  156OSM   H14G17487   1.255   3.709   3.792  3.5926  0.0821 -0.0781
  156OSM   C15F17488   1.318   3.508   3.828  0.2168 -0.2461  0.4921
  156OSM   H15F17489   1.247   3.467   3.753  0.9189 -0.5734  0.0001
  156OSM   H15G17490   1.319   3.430   3.907 -0.7526 -1.0637 -0.2859
  156OSM   C16F17491   1.449   3.533   3.755  0.6253  0.2498 -0.0018
  156OSM   H16F17492   1.504   3.583   3.837  0.4832 -1.4377  1.1924
  156OSM   H16G17493   1.446   3.601   3.668  4.0070  1.5779  0.7461
  156OSM   C17F17494   1.510   3.402   3.710 -0.3052 -0.6193 -0.3579
  156OSM   H17F17495   1.432   3.359   3.644 -1.3512 -0.4479  0.7342
  156OSM   H17G17496   1.539   3.333   3.793  0.6861 -0.6965 -0.7605
  156OSM   C18F17497   1.634   3.429   3.633  1.1783  0.5093  0.1301
  156OSM   H18F17498   1.706   3.471   3.706  1.1629  0.9993 -0.1299
  156OSM   H18G17499   1.614   3.496   3.546  0.5615 -0.5576 -0.5773
  156OSM   H18H17500   1.662   3.329   3.593 -1.5151  0.0372 -0.7590
  157OSM      N17501   1.526   4.215   2.116 -0.5707  0.5938  0.2576
  157OSM    C1517502   1.385   4.246   2.097  0.0257  0.0941 -0.4826
  157OSM   H15A17503   1.371   4.352   2.116  0.6606  0.1115 -0.1006
  157OSM   H15B17504   1.326   4.185   2.163  0.4724 -0.2532 -0.4079
  157OSM   H15C17505   1.351   4.240   1.994 -0.0356 -0.5680 -0.4242
  157OSM    C1417506   1.555   4.084   2.055 -0.3974 -0.0046  0.7078
  157OSM   H14A17507   1.662   4.065   2.059 -0.2844  0.7642  1.5456
  157OSM   H14B17508   1.521   4.076   1.953  0.7959  4.4115 -0.2341
  157OSM   H14C17509   1.493   4.013   2.108 -0.4948  1.0081  1.9858
  157OSM    C1317510   1.609   4.322   2.043 -0.7819  0.1357  0.2613
  157OSM   H13A17511   1.577   4.416   2.086 -1.7578  0.1691 -0.5085
  157OSM   H13B17512   1.593   4.321   1.937  0.7138  1.1331 -0.0026
  157OSM   H13C17513   1.715   4.317   2.063 -0.4852  0.6953 -1.0716
  157OSM    C1217514   1.560   4.215   2.268 -0.0392  0.2772 -0.7138
  157OSM   H12A17515   1.520   4.305   2.312  1.7345  1.0249 -0.5878
  157OSM   H12B17516   1.667   4.216   2.276 -0.0179  0.3411 -0.9989
  157OSM    C1117517   1.516   4.096   2.354 -0.4223  0.3180  0.8602
  157OSM   H11A17518   1.566   4.099   2.453  1.1942  0.1972  0.0771
  157OSM   H11B17519   1.558   4.009   2.300 -1.5752  0.5956 -0.5437
  157OSM      P17520   1.303   4.168   2.482 -0.5097  0.4524 -0.3260
  157OSM    O1317521   1.393   4.286   2.493  0.0197  0.2615  0.3079
  157OSM    O1417522   1.161   4.192   2.434 -0.6369 -0.1358  0.2935
  157OSM    O1117523   1.319   4.093   2.623 -0.0995  0.4781  0.0353
  157OSM    O1217524   1.377   4.085   2.371 -0.1062  0.2731 -0.3203
  157OSM    C1S17525   1.353   3.957   2.637  0.3505  0.0758  0.0810
  157OSM    H1S17526   1.412   3.933   2.547  0.8703  0.0882  0.4177
  157OSM    H1T17527   1.265   3.890   2.652  0.3745  0.0263  0.0041
  157OSM     NF17528   1.500   3.795   2.768  0.0755 -0.5216 -0.2042
  157OSM    HNF17529   1.458   3.729   2.829  2.5897 -0.1721  2.0915
  157OSM    C2S17530   1.452   3.931   2.760  0.5419 -0.8098  0.0680
  157OSM    H2S17531   1.534   4.005   2.750 -1.4113  1.3458 -0.8041
  157OSM    C3S17532   1.375   3.971   2.893 -0.2685  0.0706  0.7631
  157OSM    H3S17533   1.275   3.925   2.879  0.2717 -0.4884 -1.8077
  157OSM     O317534   1.332   4.110   2.891 -0.7919  0.2250 -0.1343
  157OSM    HO317535   1.342   4.133   2.798  0.9209 -1.4508 -0.4527
  157OSM    C4S17536   1.453   3.948   3.017  0.2476  0.1346 -0.8752
  157OSM    H4S17537   1.552   3.996   3.020  1.4111 -2.0650 -1.2053
  157OSM    C5S17538   1.410   3.877   3.121 -0.5041  0.4488 -0.0082
  157OSM    H5S17539   1.306   3.842   3.120 -1.0613  1.9607 -1.9464
  157OSM    C6S17540   1.491   3.859   3.254 -0.0491 -0.1254 -0.5697
  157OSM    H6S17541   1.596   3.886   3.231  0.0057 -0.0648 -0.2536
  157OSM    H6T17542   1.477   3.753   3.283  0.1467  0.2286  0.8978
  157OSM    C7S17543   1.431   3.946   3.369  0.2414 -0.7668 -0.3569
  157OSM    H7S17544   1.328   3.914   3.392  0.5768 -0.5233  1.6419
  157OSM    H7T17545   1.416   4.051   3.333  0.5454 -0.0695  1.4611
  157OSM    C8S17546   1.520   3.937   3.491  0.2703 -0.0330 -0.0449
  157OSM    H8S17547   1.598   4.015   3.477  0.2204 -0.3953 -2.8510
  157OSM    H8T17548   1.583   3.847   3.481 -0.2125 -0.2678 -1.0912
  157OSM    C9S17549   1.435   3.951   3.616  0.6985  0.2803 -0.6559
  157OSM    H9S17550   1.355   3.876   3.633  1.2821  0.2427  2.4100
  157OSM    H9T17551   1.379   4.046   3.600  0.2112  0.3043  1.0434
  157OSM   C10S17552   1.532   3.966   3.734  0.0931 -1.0295  0.4864
  157OSM   H10S17553   1.589   4.061   3.726  0.0979 -1.1852 -1.9143
  157OSM   H10T17554   1.604   3.882   3.744 -0.5854 -1.4790  1.9617
  157OSM   C11S17555   1.448   3.961   3.866  0.0239  0.2336  0.2636
  157OSM   H11S17556   1.365   3.892   3.840  1.2901 -0.6675 -1.6619
  157OSM   H11T17557   1.410   4.064   3.884 -0.1341  0.1107  0.6490
  157OSM   C12S17558   1.541   3.928   3.987  0.3076  0.1383  0.2911
  157OSM   H12S17559   1.626   3.999   3.985  1.9677 -1.7567 -0.7366
  157OSM   H12T17560   1.599   3.834   3.976  3.5458  1.9493  0.7906
  157OSM   C13S17561   1.480   3.936   4.123  0.0141  0.6181 -0.4298
  157OSM   H13S17562   1.405   3.855   4.134  3.2315 -2.4888  0.3737
  157OSM   H13T17563   1.437   4.039   4.123  0.2881  0.7398  0.7937
  157OSM   C14S17564   1.578   3.930   4.243 -0.5475 -0.1628 -1.0263
  157OSM   H14S17565   1.647   4.015   4.224 -1.0112  0.8284  1.4334
  157OSM   H14T17566   1.644   3.841   4.241 -0.1278  0.0997  0.2145
  157OSM   C15S17567   1.520   3.935   4.394 -0.2060  0.0279 -0.5841
  157OSM   H15S17568   1.457   3.844   4.408 -0.3934  0.4707  1.7077
  157OSM   H15T17569   1.459   4.027   4.408  0.1013  0.1737 -0.2096
  157OSM   C16S17570   1.636   3.947   4.496  0.4744  0.3003  0.9009
  157OSM   H16S17571   1.714   4.023   4.470 -2.4070  3.7546  1.4893
  157OSM   H16T17572   1.676   3.844   4.505 -3.2999 -1.2365  1.7275
  157OSM   C17S17573   1.584   3.992   4.638 -0.7536 -0.1376 -0.0378
  157OSM   H17S17574   1.545   4.096   4.630  0.7490  0.4608  0.2118
  157OSM   H17T17575   1.675   3.994   4.701  0.3699 -0.1564 -1.6199
  157OSM   C18S17576   1.488   3.885   4.690 -0.2476  0.1493 -0.4911
  157OSM   H18S17577   1.521   3.782   4.665  3.7556  1.7045 -2.5163
  157OSM   H18T17578   1.388   3.903   4.646 -1.0290 -1.7871  0.4210
  157OSM   H18U17579   1.480   3.878   4.800  0.6235  0.0941 -0.4213
  157OSM    C1F17580   1.582   3.760   2.672 -0.6126  0.1180 -0.3869
  157OSM     OF17581   1.633   3.843   2.597 -0.4031  0.2702 -0.2470
  157OSM    C2F17582   1.592   3.610   2.648 -0.1106 -0.0871 -0.7262
  157OSM    H2F17583   1.545   3.579   2.553  1.4604 -4.0569 -0.4033
  157OSM    H2G17584   1.535   3.568   2.734  0.8322  1.2397  0.6017
  157OSM    C3F17585   1.735   3.552   2.658 -1.4176  0.3166 -0.4286
  157OSM    H3F17586   1.796   3.574   2.568 -1.0124  1.2561  0.0684
  157OSM    H3G17587   1.714   3.443   2.670 -0.5171  0.2516  0.7052
  157OSM    C4F17588   1.819   3.607   2.784  0.7321 -0.2882  0.1635
  157OSM    H4F17589   1.841   3.713   2.756  1.3581 -0.4513  0.0197
  157OSM    H4G17590   1.920   3.561   2.795  0.4110 -1.1829 -0.5026
  157OSM    C5F17591   1.750   3.601   2.920 -0.2246  0.3064 -0.6877
  157OSM    H5F17592   1.697   3.503   2.917 -2.2487  1.3085  0.2210
  157OSM    H5G17593   1.682   3.687   2.935 -1.2216 -0.3537 -1.2708
  157OSM    C6F17594   1.854   3.592   3.031  0.2089 -0.5003 -0.2454
  157OSM    H6F17595   1.922   3.679   3.021  1.6116 -1.3128  1.5337
  157OSM    H6G17596   1.916   3.501   3.014 -1.0423 -1.3341 -0.4495
  157OSM    C7F17597   1.791   3.591   3.169  0.5553 -0.3539  0.0610
  157OSM    H7F17598   1.743   3.496   3.199  1.6285 -0.7739  0.5059
  157OSM    H7G17599   1.719   3.675   3.177  0.8687 -0.2504  2.5963
  157OSM    C8F17600   1.904   3.603   3.276  0.3383 -0.0203  0.1567
  157OSM    H8F17601   1.952   3.503   3.267 -1.3859 -0.7150 -2.2055
  157OSM    H8G17602   1.862   3.592   3.379 -0.8602  1.1798 -0.1728
  157OSM    C9F17603   1.988   3.720   3.277 -0.4406  0.4944 -0.2022
  157OSM    H9F17604   1.985   3.786   3.190 -2.2284  0.2127 -0.3817
  157OSM   C10F17605   2.069   3.753   3.374 -0.8124  0.3082 -0.2878
  157OSM   H10F17606   2.136   3.839   3.361 -0.0647 -0.1412  0.4707
  157OSM   C11F17607   2.088   3.679   3.507  0.7373  0.6555  0.2831
  157OSM   H11F17608   2.197   3.668   3.525  0.3978 -1.2823  1.4256
  157OSM   H11G17609   2.061   3.571   3.499  0.6320  0.6867  0.2168
  157OSM   C12F17610   2.015   3.745   3.622  0.1081 -0.1887 -0.2172
  157OSM   H12F17611   1.906   3.742   3.603 -0.1707  2.4453  0.4602
  157OSM   H12G17612   2.033   3.855   3.633 -0.0544 -0.1899  0.0514
  157OSM   C13F17613   2.044   3.679   3.756 -0.3058 -0.3221  0.0640
  157OSM   H13F17614   2.154   3.662   3.757  0.0061  1.3841 -0.8632
  157OSM   H13G17615   1.988   3.583   3.756 -1.9310  0.4601  3.5443
  157OSM   C14F17616   1.995   3.763   3.877  0.2431  0.5849  0.6659
  157OSM   H14F17617   1.892   3.785   3.840  0.3770  1.5657  0.8500
  157OSM   H14G17618   2.050   3.859   3.888 -1.1384  1.4305  0.5039
  157OSM   C15F17619   1.989   3.682   4.010  0.2167  0.4983  0.0326
  157OSM   H15F17620   2.096   3.654   4.023  0.1732 -1.0673 -2.3273
  157OSM   H15G17621   1.928   3.592   3.991  0.1624  0.6724 -0.6456
  157OSM   C16F17622   1.935   3.752   4.136 -0.5204 -0.3050 -0.1007
  157OSM   H16F17623   1.830   3.785   4.122 -0.2177  0.7785  0.1053
  157OSM   H16G17624   1.988   3.850   4.130 -1.6108  0.2534 -0.8862
  157OSM   C17F17625   1.963   3.678   4.263 -0.2705  0.2681 -0.4174
  157OSM   H17F17626   2.069   3.644   4.268 -0.6952 -1.3472 -1.5990
  157OSM   H17G17627   1.914   3.580   4.250  1.3337 -0.7270  0.6887
  157OSM   C18F17628   1.915   3.759   4.381  0.3661  0.0196 -0.4256
  157OSM   H18F17629   1.937   3.705   4.476  2.8336  0.6198 -0.5860
  157OSM   H18G17630   1.807   3.772   4.358  0.6112  1.3991 -0.8482
  157OSM   H18H17631   1.961   3.859   4.385 -0.3736  0.3472  0.1491
  158OSM      N17632   5.593   0.738   1.940 -0.3508 -0.0104  0.4686
  158OSM    C1517633   5.708   0.653   1.936 -0.2520  0.8605 -0.9362
  158OSM   H15A17634   5.785   0.723   1.965 -0.2640  0.9133 -1.0334
  158OSM   H15B17635   5.740   0.608   1.844  1.1315  3.7283 -1.9888
  158OSM   H15C17636   5.698   0.573   2.008  0.8691  0.8127 -0.8075
  158OSM    C1417637   5.618   0.864   1.867 -1.0811  0.5335 -0.5387
  158OSM   H14A17638   5.693   0.925   1.916  0.3240 -1.6514  0.1623
  158OSM   H14B17639   5.528   0.919   1.842 -1.4984  0.7820  1.2984
  158OSM   H14C17640   5.653   0.843   1.767 -0.0374  0.8743 -0.2642
  158OSM    C1317641   5.486   0.666   1.854  0.2035  0.3765  0.3127
  158OSM   H13A17642   5.483   0.563   1.888 -1.5752  0.7974  1.6493
  158OSM   H13B17643   5.507   0.682   1.750 -0.7996 -1.4888 -0.2277
  158OSM   H13C17644   5.385   0.703   1.863 -1.2282 -1.0543 -5.6895
  158OSM    C1217645   5.537   0.755   2.084 -0.0573 -0.1363  0.3575
  158OSM   H12A17646   5.499   0.660   2.119  1.5955 -0.3303  1.7554
  158OSM   H12B17647   5.443   0.807   2.080 -0.6427 -0.9649  2.1367
  158OSM    C1117648   5.632   0.823   2.185  0.0883 -0.3470  0.4698
  158OSM   H11A17649   5.731   0.774   2.192  1.5379  2.6692  3.3925
  158OSM   H11B17650   5.574   0.827   2.279  1.0194  1.5625  1.0094
  158OSM      P17651   5.765   1.040   2.232  0.0734 -0.0183  0.3700
  158OSM    O1317652   5.900   1.014   2.173 -0.4927  0.1141 -0.2186
  158OSM    O1417653   5.717   1.183   2.253 -0.2499  0.0873  0.6310
  158OSM    O1117654   5.760   0.974   2.374 -0.4166 -0.1277 -0.3497
  158OSM    O1217655   5.658   0.959   2.143  0.4103 -0.1419  0.1186
  158OSM    C1S17656   5.798   1.039   2.495 -0.5814 -0.1183 -0.5061
  158OSM    H1S17657   5.845   1.138   2.477 -2.1021  1.1694  1.9697
  158OSM    H1T17658   5.887   0.988   2.539 -1.9116 -1.7287  0.4594
  158OSM     NF17659   5.750   1.149   2.697 -0.0217  0.5668  0.3071
  158OSM    HNF17660   5.786   1.112   2.782 -1.2346 -2.3462 -0.3233
  158OSM    C2S17661   5.691   1.059   2.602 -0.9164 -0.1293  0.3117
  158OSM    H2S17662   5.605   1.113   2.559 -0.5461  0.0745 -0.1794
  158OSM    C3S17663   5.624   0.931   2.647 -0.2047 -0.0434  0.5047
  158OSM    H3S17664   5.710   0.864   2.672  1.3672  0.8063 -2.1748
  158OSM     O317665   5.562   0.850   2.551  0.1557 -0.1154  0.3909
  158OSM    HO317666   5.573   0.892   2.466 -1.0202 -0.9586 -0.2074
  158OSM    C4S17667   5.527   0.949   2.760 -0.0879  0.6416  0.0297
  158OSM    H4S17668   5.570   0.907   2.853 -0.3143  1.4591  0.5080
  158OSM    C5S17669   5.395   0.982   2.767  0.2012 -0.5996 -0.1502
  158OSM    H5S17670   5.350   1.021   2.676  1.1623  3.6925  1.0000
  158OSM    C6S17671   5.311   0.997   2.889 -0.0948  0.4297 -0.2603
  158OSM    H6S17672   5.241   0.911   2.889  2.8740 -2.1751 -1.1235
  158OSM    H6T17673   5.241   1.083   2.880  0.7630  0.9600 -2.5632
  158OSM    C7S17674   5.387   0.992   3.023 -0.1245 -0.0577 -0.4672
  158OSM    H7S17675   5.465   1.069   3.006  1.1340 -0.6303  2.1438
  158OSM    H7T17676   5.427   0.889   3.039 -1.7165 -0.6579 -0.1745
  158OSM    C8S17677   5.298   1.020   3.144 -0.7251  1.0059 -0.2758
  158OSM    H8S17678   5.213   0.949   3.144  0.4883 -0.5040 -0.9386
  158OSM    H8T17679   5.266   1.126   3.140  0.9273  1.5566  0.2485
  158OSM    C9S17680   5.375   0.999   3.272 -0.0890  0.2109  0.0853
  158OSM    H9S17681   5.471   1.053   3.257  0.7961 -0.6941  2.0947
  158OSM    H9T17682   5.386   0.888   3.276 -1.3601  0.0767  0.4058
  158OSM   C10S17683   5.301   1.026   3.400  0.2322  0.3007 -0.5668
  158OSM   H10S17684   5.246   1.122   3.395 -2.3955 -1.1360 -0.8316
  158OSM   H10T17685   5.380   1.026   3.479 -0.2457  1.3629 -0.0737
  158OSM   C11S17686   5.206   0.908   3.438 -0.5792 -0.3553 -0.0187
  158OSM   H11S17687   5.266   0.815   3.431  2.2958  1.4659 -1.1805
  158OSM   H11T17688   5.129   0.904   3.357  0.7396 -2.3831 -1.2533
  158OSM   C12S17689   5.142   0.923   3.576  0.4495  0.5157 -0.2180
  158OSM   H12S17690   5.057   0.852   3.580  2.7936 -2.4544  1.7944
  158OSM   H12T17691   5.103   1.027   3.582  0.9952  0.6788  0.9429
  158OSM   C13S17692   5.226   0.881   3.698 -0.3503 -0.2034 -0.4216
  158OSM   H13S17693   5.193   0.956   3.774 -0.7506 -0.8419  0.0413
  158OSM   H13T17694   5.332   0.899   3.671  0.3004 -3.6786 -0.6220
  158OSM   C14S17695   5.225   0.731   3.744  0.2818 -0.0948 -0.4542
  158OSM   H14S17696   5.309   0.729   3.816 -0.4533 -0.1432  0.4218
  158OSM   H14T17697   5.253   0.660   3.663 -0.0552  0.8449 -1.4301
  158OSM   C15S17698   5.084   0.692   3.805 -0.5585  0.1002 -0.5484
  158OSM   H15S17699   5.010   0.697   3.722 -1.6462  0.5466  0.4289
  158OSM   H15T17700   5.055   0.776   3.871 -0.1162  1.4870 -2.0597
  158OSM   C16S17701   5.071   0.556   3.876 -1.0909 -0.1045 -0.1023
  158OSM   H16S17702   5.125   0.561   3.973 -0.0976  0.6411 -0.6608
  158OSM   H16T17703   5.113   0.481   3.806  1.9655  0.7310  0.6735
  158OSM   C17S17704   4.925   0.529   3.902  0.5220  0.6467 -0.3704
  158OSM   H17S17705   4.885   0.506   3.801  0.2941  0.2040 -0.1826
  158OSM   H17T17706   4.883   0.626   3.934  2.0932  1.1289  0.3415
  158OSM   C18S17707   4.897   0.408   4.005  0.1150 -0.6297  0.7120
  158OSM   H18S17708   4.892   0.312   3.949  1.0799 -1.0042  1.2306
  158OSM   H18T17709   4.802   0.432   4.058  0.6766  0.1707  1.3884
  158OSM   H18U17710   4.979   0.392   4.079  0.0243 -2.0821  0.5281
  158OSM    C1F17711   5.771   1.272   2.681  0.7605  0.3989 -0.1492
  158OSM     OF17712   5.713   1.337   2.598  0.0364  0.2180  0.0462
  158OSM    C2F17713   5.886   1.321   2.763  0.2991  0.4113  0.0915
  158OSM    H2F17714   5.944   1.390   2.698 -0.7620  1.4155  0.1668
  158OSM    H2G17715   5.952   1.241   2.803 -1.1784 -0.3003  1.2170
  158OSM    C3F17716   5.838   1.415   2.881 -0.2039  0.1806 -0.0702
  158OSM    H3F17717   5.786   1.382   2.973  2.5269  2.7627  2.6422
  158OSM    H3G17718   5.768   1.493   2.842  0.1049  1.1697  1.2671
  158OSM    C4F17719   5.966   1.479   2.937  0.4229  0.7604  0.1543
  158OSM    H4F17720   6.038   1.518   2.861  0.2614 -0.1458 -0.4902
  158OSM    H4G17721   6.026   1.406   2.996  1.2676  1.1656 -0.1841
  158OSM    C5F17722   5.943   1.592   3.037  0.0828 -0.5167  0.0763
  158OSM    H5F17723   5.888   1.677   2.991  0.3862  1.2288  2.7245
  158OSM    H5G17724   6.038   1.636   3.073 -0.7569  0.6720  0.8965
  158OSM    C6F17725   5.887   1.534   3.167 -0.5681  0.0524  0.8055
  158OSM    H6F17726   5.943   1.444   3.200 -0.2529  0.1158  0.4418
  158OSM    H6G17727   5.786   1.488   3.160  0.0915 -1.2197 -1.3272
  158OSM    C7F17728   5.887   1.637   3.276 -0.2468  0.7109 -0.8681
  158OSM    H7F17729   5.837   1.729   3.239  0.8024  1.4731 -0.4297
  158OSM    H7G17730   5.989   1.663   3.311 -0.7889 -0.6310  2.0551
  158OSM    C8F17731   5.817   1.601   3.405  0.4738  0.4634 -0.0667
  158OSM    H8F17732   5.711   1.577   3.381  0.9242  0.4237 -2.1996
  158OSM    H8G17733   5.813   1.687   3.475 -0.5431 -1.1137  1.8969
  158OSM    C9F17734   5.881   1.481   3.471  0.3315 -0.1509 -0.0625
  158OSM    H9F17735   5.934   1.403   3.413  0.6622 -2.4735  3.0595
  158OSM   C10F17736   5.877   1.448   3.603  0.7525  0.1774  0.3004
  158OSM   H10F17737   5.941   1.362   3.631 -0.0466  0.3578  3.0103
  158OSM   C11F17738   5.800   1.511   3.716 -0.3543 -0.5425 -0.0808
  158OSM   H11F17739   5.704   1.456   3.724 -0.8117  0.1135 -0.8890
  158OSM   H11G17740   5.777   1.616   3.688  1.5878  0.3059  1.2553
  158OSM   C12F17741   5.886   1.523   3.847 -0.6276  0.5684  0.5579
  158OSM   H12F17742   5.961   1.604   3.833 -2.3921  2.0696 -0.8634
  158OSM   H12G17743   5.925   1.423   3.875 -0.5330  0.3381 -0.3794
  158OSM   C13F17744   5.801   1.567   3.965  0.4472 -0.4967 -0.2675
  158OSM   H13F17745   5.773   1.475   4.021 -2.7254 -0.2930 -1.3404
  158OSM   H13G17746   5.717   1.619   3.914 -0.7127 -0.9411  1.1206
  158OSM   C14F17747   5.875   1.658   4.062 -0.7929  0.1923  0.2148
  158OSM   H14F17748   5.809   1.707   4.137 -0.6673  0.6434  0.0327
  158OSM   H14G17749   5.917   1.741   4.001 -2.4057  0.8072 -0.0941
  158OSM   C15F17750   6.002   1.592   4.122  0.0167  0.1059  0.1063
  158OSM   H15F17751   6.080   1.567   4.048 -0.1133 -0.3557  0.1178
  158OSM   H15G17752   5.969   1.503   4.181 -1.9033  0.7956  0.1542
  158OSM   C16F17753   6.076   1.680   4.226 -0.2748 -0.1561  0.1696
  158OSM   H16F17754   6.166   1.626   4.264  1.8237  2.7224 -0.3347
  158OSM   H16G17755   6.009   1.703   4.312 -0.0164  1.2097  0.0409
  158OSM   C17F17756   6.129   1.808   4.166  0.2674 -0.7838 -0.2813
  158OSM   H17F17757   6.051   1.862   4.109  0.4138  1.6196  1.6204
  158OSM   H17G17758   6.220   1.791   4.105  1.1939 -1.0771  1.1327
  158OSM   C18F17759   6.166   1.902   4.279  0.2899 -0.2305  0.0265
  158OSM   H18F17760   6.210   1.994   4.234  1.5654  0.4245  2.4323
  158OSM   H18G17761   6.235   1.853   4.351  0.4432 -1.0919 -0.6955
  158OSM   H18H17762   6.077   1.923   4.342  0.2469 -1.8156  0.5126
  159OSM      N17763   0.073   4.056   2.052  0.0913  0.1671  0.4507
  159OSM    C1517764   0.017   4.128   1.928 -0.2402  0.0804 -0.1525
  159OSM   H15A17765   0.091   4.165   1.859 -1.0332 -0.7817 -1.5123
  159OSM   H15B17766  -0.031   4.222   1.953 -1.4715  0.5544 -3.7375
  159OSM   H15C17767  -0.044   4.070   1.860 -0.3580  0.4273 -0.3473
  159OSM    C1417768   0.134   3.927   2.002 -0.0536  0.2129  0.0958
  159OSM   H14A17769   0.198   3.937   1.916  1.9903  2.1372  1.7149
  159OSM   H14B17770   0.058   3.853   1.981 -2.4195  2.7868 -1.0771
  159OSM   H14C17771   0.189   3.886   2.085 -1.6170  2.3963  2.3871
  159OSM    C1317772   0.183   4.143   2.103 -0.6506  0.4569 -0.2020
  159OSM   H13A17773   0.239   4.078   2.169 -0.7728  1.6076  1.0888
  159OSM   H13B17774   0.152   4.236   2.150  1.3356  0.3483  1.4931
  159OSM   H13C17775   0.250   4.178   2.026 -1.4417  1.2535 -0.5521
  159OSM    C1217776  -0.030   4.023   2.155  0.0660 -0.9301  0.0412
  159OSM   H12A17777   0.026   4.002   2.246  1.5455  1.7548 -0.1396
  159OSM   H12B17778  -0.083   3.933   2.129 -0.1559 -0.4075 -1.4042
  159OSM    C1117779  -0.140   4.115   2.195 -0.1147 -0.2080 -0.7847
  159OSM   H11A17780  -0.174   4.061   2.286  0.9947 -0.2187 -0.3654
  159OSM   H11B17781  -0.219   4.107   2.118  0.3380  2.6678 -1.6903
  159OSM      P17782  -0.196   4.341   2.311 -0.1731 -0.0392 -0.1512
  159OSM    O1317783  -0.220   4.479   2.251 -0.3990  0.2156  0.3266
  159OSM    O1417784  -0.314   4.266   2.362  0.3245 -0.3115  0.3209
  159OSM    O1117785  -0.111   4.358   2.436 -0.2198 -0.0522  0.4858
  159OSM    O1217786  -0.111   4.246   2.217 -0.2610  0.4622  0.2989
  159OSM    C1S17787  -0.055   4.245   2.508  0.4832 -0.2855  0.7109
  159OSM    H1S17788   0.000   4.180   2.437 -2.0225 -0.7148 -0.9869
  159OSM    H1T17789  -0.130   4.177   2.554  0.4210 -0.7523 -0.0663
  159OSM     NF17790   0.121   4.180   2.680 -0.4970  0.1211 -0.3963
  159OSM    HNF17791   0.065   4.151   2.758  1.5056 -0.0514  1.0674
  159OSM    C2S17792   0.054   4.293   2.618  0.1408  0.4364 -0.2301
  159OSM    H2S17793   0.124   4.358   2.561 -0.1345  1.1866  0.2693
  159OSM    C3S17794  -0.023   4.377   2.725 -0.2485  0.2035 -0.8002
  159OSM    H3S17795  -0.086   4.303   2.779  2.4367 -1.8122 -0.1600
  159OSM     O317796  -0.117   4.472   2.668 -0.3616  0.0237  0.1397
  159OSM    HO317797  -0.120   4.446   2.575  0.9204  0.9866 -0.2027
  159OSM    C4S17798   0.073   4.440   2.824 -0.4846  0.5649 -0.1673
  159OSM    H4S17799   0.101   4.542   2.794  1.4685 -0.3407 -1.7263
  159OSM    C5S17800   0.091   4.387   2.953 -0.4918 -0.1733  0.1074
  159OSM    H5S17801   0.048   4.289   2.980  1.7577 -0.7539  1.9340
  159OSM    C6S17802   0.167   4.444   3.075 -0.0202  0.2554 -0.5584
  159OSM    H6S17803   0.277   4.435   3.062  0.0367  0.6500 -0.3560
  159OSM    H6T17804   0.139   4.394   3.170  3.6090  0.7440  0.9030
  159OSM    C7S17805   0.140   4.593   3.098  0.0247  0.5324 -0.0436
  159OSM    H7S17806   0.035   4.597   3.134  0.9386  0.1269  2.9554
  159OSM    H7T17807   0.148   4.660   3.009 -2.9444  0.5944 -0.3770
  159OSM    C8S17808   0.231   4.636   3.214  0.4787 -0.4886 -0.1395
  159OSM    H8S17809   0.286   4.726   3.180  2.3113 -0.7491  1.9559
  159OSM    H8T17810   0.314   4.562   3.218 -0.4738 -1.9558 -3.5931
  159OSM    C9S17811   0.161   4.648   3.347 -0.5057  0.6117  0.0346
  159OSM    H9S17812   0.084   4.568   3.357 -0.6775  0.6080 -1.2406
  159OSM    H9T17813   0.106   4.745   3.347 -0.9558  0.3804  1.1429
  159OSM   C10S17814   0.254   4.647   3.472 -0.4321  0.8145  0.0431
  159OSM   H10S17815   0.350   4.693   3.441  0.1510 -1.1863 -1.2978
  159OSM   H10T17816   0.266   4.538   3.486  1.9233  1.0631  0.2493
  159OSM   C11S17817   0.211   4.727   3.592  0.1378  0.5462  0.4039
  159OSM   H11S17818   0.120   4.688   3.643  0.6456 -0.0024  0.9150
  159OSM   H11T17819   0.194   4.834   3.567  2.7032  0.9799  0.2553
  159OSM   C12S17820   0.300   4.711   3.719  0.6160 -0.3637  0.4617
  159OSM   H12S17821   0.400   4.752   3.691 -0.0230  0.6331 -0.3891
  159OSM   H12T17822   0.304   4.601   3.737  2.8661 -0.3100  0.6153
  159OSM   C13S17823   0.238   4.783   3.841  0.0058  0.1019  0.0016
  159OSM   H13S17824   0.140   4.732   3.855 -1.0114  1.9177 -0.2316
  159OSM   H13T17825   0.222   4.891   3.822 -3.4852 -0.5068 -1.2501
  159OSM   C14S17826   0.331   4.769   3.967  0.2504  0.3503  0.4241
  159OSM   H14S17827   0.407   4.846   3.943 -0.0382  0.3379 -0.5775
  159OSM   H14T17828   0.386   4.673   3.972  0.1145  0.1780 -0.9756
  159OSM   C15S17829   0.262   4.812   4.102  0.1055 -0.3465  0.2504
  159OSM   H15S17830   0.198   4.725   4.129  1.1312 -0.5641  2.1586
  159OSM   H15T17831   0.196   4.901   4.090  3.2465  2.3631  1.6057
  159OSM   C16S17832   0.363   4.838   4.207 -0.2978  0.5305 -0.6683
  159OSM   H16S17833   0.422   4.922   4.165 -0.1650  0.7996  0.0498
  159OSM   H16T17834   0.435   4.754   4.200 -2.4632 -1.4531 -0.1709
  159OSM   C17S17835   0.319   4.861   4.348 -0.2056 -0.3666  0.7197
  159OSM   H17S17836   0.265   4.775   4.394 -0.8942  0.2628  1.1058
  159OSM   H17T17837   0.254   4.950   4.360  0.4146  0.1455  0.2977
  159OSM   C18S17838   0.442   4.912   4.422 -1.0174 -0.5801  0.0659
  159OSM   H18S17839   0.411   4.898   4.527 -1.2941 -0.4902 -0.0028
  159OSM   H18T17840   0.470   5.016   4.394 -0.8500  0.0557  2.4486
  159OSM   H18U17841   0.522   4.839   4.397 -0.7335  0.1918 -1.4163
  159OSM    C1F17842   0.220   4.110   2.622 -0.3378  0.4115 -0.2142
  159OSM     OF17843   0.269   4.150   2.515 -0.3391 -0.1096  0.2041
  159OSM    C2F17844   0.264   3.982   2.679 -0.2700 -0.0360 -0.1170
  159OSM    H2F17845   0.287   3.908   2.600  2.3773  1.0570 -0.4982
  159OSM    H2G17846   0.183   3.935   2.739  0.8411  1.1133  2.4641
  159OSM    C3F17847   0.393   4.000   2.763  0.5926  0.3901 -0.2972
  159OSM    H3F17848   0.450   4.074   2.703  0.2280  2.7823  2.1698
  159OSM    H3G17849   0.461   3.912   2.758  2.2400  1.6510 -4.5413
  159OSM    C4F17850   0.372   4.073   2.894 -0.3422 -0.3794 -0.7020
  159OSM    H4F17851   0.279   4.031   2.937 -0.4690 -1.0763 -1.6103
  159OSM    H4G17852   0.340   4.178   2.875 -1.2689 -0.4206  0.5141
  159OSM    C5F17853   0.496   4.065   2.982  0.5622  0.3175 -0.0487
  159OSM    H5F17854   0.572   4.143   2.963  0.6022  0.1846 -0.4472
  159OSM    H5G17855   0.546   3.967   2.964  0.0433  0.0275  0.0651
  159OSM    C6F17856   0.470   4.067   3.135 -0.3487 -0.3804 -0.0302
  159OSM    H6F17857   0.541   3.998   3.185 -2.0872 -1.5559  0.9607
  159OSM    H6G17858   0.367   4.026   3.144 -1.7939  3.2511  1.7527
  159OSM    C7F17859   0.489   4.199   3.203  0.0377 -0.6221 -0.1465
  159OSM    H7F17860   0.466   4.276   3.126  2.2191 -0.6792 -0.9165
  159OSM    H7G17861   0.597   4.214   3.225  0.7818 -2.8306 -1.8648
  159OSM    C8F17862   0.407   4.226   3.330  0.5363  0.2727 -0.0692
  159OSM    H8F17863   0.300   4.209   3.307 -0.0302  1.4707  1.4922
  159OSM    H8G17864   0.423   4.332   3.358  0.4658  0.8385 -2.0451
  159OSM    C9F17865   0.434   4.133   3.446  0.0782  0.1650 -0.1549
  159OSM    H9F17866   0.485   4.042   3.410 -1.8747 -0.3446 -1.7820
  159OSM   C10F17867   0.405   4.147   3.577 -0.1410 -0.0321 -0.4012
  159OSM   H10F17868   0.445   4.073   3.649  0.7229 -0.1381 -0.9750
  159OSM   C11F17869   0.342   4.271   3.643  0.0409  0.0019 -0.0224
  159OSM   H11F17870   0.232   4.266   3.628 -0.5236 -0.2780  3.3291
  159OSM   H11G17871   0.376   4.367   3.598 -3.5925  1.2711 -0.4602
  159OSM   C12F17872   0.349   4.283   3.796 -0.3357 -0.4108 -0.3729
  159OSM   H12F17873   0.291   4.198   3.840  0.1070 -0.3457  0.3613
  159OSM   H12G17874   0.302   4.381   3.817 -0.8412  0.1244 -3.4970
  159OSM   C13F17875   0.492   4.283   3.856  0.4811 -0.4485  0.6445
  159OSM   H13F17876   0.543   4.375   3.819  0.3069  0.5326  2.7428
  159OSM   H13G17877   0.544   4.192   3.818 -1.1729 -1.1959  0.0736
  159OSM   C14F17878   0.506   4.272   4.010  0.2572 -0.2500 -0.0391
  159OSM   H14F17879   0.611   4.244   4.034  0.0556 -0.2267  0.8973
  159OSM   H14G17880   0.447   4.186   4.048 -0.9560  1.0243  1.0712
  159OSM   C15F17881   0.478   4.400   4.097  0.3299  0.0001  0.9797
  159OSM   H15F17882   0.383   4.454   4.076 -0.4345 -0.7207  2.3922
  159OSM   H15G17883   0.562   4.471   4.082 -0.5830  0.8820 -0.0735
  159OSM   C16F17884   0.481   4.351   4.236 -0.1981 -1.0342 -0.8041
  159OSM   H16F17885   0.578   4.302   4.260  0.2712  0.7957  1.3191
  159OSM   H16G17886   0.403   4.273   4.251 -0.6672 -0.0400  2.6600
  159OSM   C17F17887   0.446   4.460   4.334  0.6368 -0.2879 -0.4641
  159OSM   H17F17888   0.369   4.530   4.296  0.5690  1.6621  2.9389
  159OSM   H17G17889   0.536   4.526   4.331  0.6271 -0.0652  2.2485
  159OSM   C18F17890   0.413   4.407   4.475  0.2659  0.2601  0.5875
  159OSM   H18F17891   0.413   4.487   4.552  0.4979  0.8587 -0.0162
  159OSM   H18G17892   0.487   4.327   4.496 -0.0305  0.4801  2.5858
  159OSM   H18H17893   0.311   4.365   4.475  0.4508 -0.2189 -0.2857
  160OSM      N17894   4.818   3.995   1.843 -0.8358 -0.0456 -0.2274
  160OSM    C1517895   4.798   4.008   1.703 -0.2567  0.1019  0.9302
  160OSM   H15A17896   4.851   3.938   1.640 -2.7439 -0.0424 -1.2073
  160OSM   H15B17897   4.831   4.106   1.672  0.2878  0.0606  1.3612
  160OSM   H15C17898   4.694   4.007   1.674  0.1318  3.1926 -1.0514
  160OSM    C1417899   4.963   4.007   1.875  1.1054  0.5708  0.5983
  160OSM   H14A17900   4.983   3.985   1.979  1.2040  0.7180  0.6103
  160OSM   H14B17901   4.996   4.105   1.847 -1.0387  0.8837 -1.1069
  160OSM   H14C17902   5.014   3.932   1.817 -1.2513  0.6385 -1.7676
  160OSM    C1317903   4.742   4.106   1.908 -0.2785 -0.1449  0.1656
  160OSM   H13A17904   4.792   4.200   1.890 -0.6623 -0.0036 -0.1914
  160OSM   H13B17905   4.720   4.091   2.012  0.1583 -5.5602 -0.2681
  160OSM   H13C17906   4.647   4.116   1.856 -0.5045 -2.6270  0.0046
  160OSM    C1217907   4.766   3.865   1.901 -0.0538 -0.1450 -0.1467
  160OSM   H12A17908   4.820   3.791   1.844 -0.9670  0.2403 -1.5775
  160OSM   H12B17909   4.660   3.848   1.893 -0.0648 -0.9927  1.5385
  160OSM    C1117910   4.796   3.841   2.057 -0.2179  0.5061 -0.1404
  160OSM   H11A17911   4.728   3.762   2.097 -2.2772  2.5954  0.7489
  160OSM   H11B17912   4.776   3.934   2.115  0.9195 -0.5929  2.1595
  160OSM      P17913   5.005   3.678   2.077  0.6518  0.1196 -0.0031
  160OSM    O1317914   4.930   3.592   1.982 -0.7419  0.0180 -0.0619
  160OSM    O1417915   5.151   3.694   2.049  0.4262  0.3806 -0.2337
  160OSM    O1117916   4.979   3.630   2.226  0.3560  0.4650  0.1557
  160OSM    O1217917   4.931   3.816   2.076 -0.3229 -0.6082  0.1679
  160OSM    C1S17918   4.931   3.719   2.327 -0.0823  0.7537 -0.1437
  160OSM    H1S17919   4.830   3.756   2.299  0.7587  2.0105 -1.6783
  160OSM    H1T17920   5.005   3.800   2.343  0.6134 -0.0343  0.7268
  160OSM     NF17921   4.859   3.719   2.579  0.1024  0.7357  0.0758
  160OSM    HNF17922   4.920   3.743   2.654 -0.5219 -0.2542  0.9264
  160OSM    C2S17923   4.925   3.646   2.474  0.3574 -0.4457  0.9768
  160OSM    H2S17924   4.868   3.554   2.450  0.5139 -0.3222  0.0951
  160OSM    C3S17925   5.069   3.604   2.504  0.0725 -0.1328 -0.3248
  160OSM    H3S17926   5.128   3.698   2.510 -0.0598  0.0006 -1.0425
  160OSM     O317927   5.127   3.523   2.403 -0.3156 -0.2419 -0.6964
  160OSM    HO317928   5.072   3.553   2.330 -1.1921  1.5639  0.6401
  160OSM    C4S17929   5.065   3.540   2.642  0.2012 -0.4240 -0.0798
  160OSM    H4S17930   5.103   3.606   2.721  1.5851 -0.7692 -0.4445
  160OSM    C5S17931   5.010   3.415   2.669 -0.1619  0.2328  0.2063
  160OSM    H5S17932   4.974   3.359   2.581  0.0474  0.0976  0.2051
  160OSM    C6S17933   5.001   3.347   2.806  0.4659  0.0554  0.4595
  160OSM    H6S17934   5.060   3.253   2.811  0.8211  0.3213  1.4173
  160OSM    H6T17935   4.896   3.315   2.828  0.9789 -2.4877 -0.4246
  160OSM    C7S17936   5.044   3.432   2.925  0.0752  0.2467  0.4759
  160OSM    H7S17937   5.001   3.534   2.932 -2.4661 -0.5346 -1.9541
  160OSM    H7T17938   5.155   3.440   2.916 -0.0285  0.2861 -1.2310
  160OSM    C8S17939   5.012   3.368   3.054  0.1129 -0.2749 -0.5436
  160OSM    H8S17940   5.033   3.259   3.050  0.8931 -0.2061  1.0993
  160OSM    H8T17941   4.903   3.386   3.064  0.4030  2.5072 -1.3454
  160OSM    C9S17942   5.081   3.437   3.175  0.1780 -0.0411  0.8602
  160OSM    H9S17943   5.057   3.545   3.175 -0.7569 -0.1850 -1.9125
  160OSM    H9T17944   5.190   3.421   3.160 -0.1116 -0.3529 -1.0586
  160OSM   C10S17945   5.037   3.369   3.301 -0.3793  0.6515 -0.1190
  160OSM   H10S17946   5.073   3.264   3.295  1.1819  1.1579 -0.0964
  160OSM   H10T17947   4.927   3.360   3.297 -0.4937  0.2616  2.4358
  160OSM   C11S17948   5.093   3.442   3.419 -0.0003 -0.1906 -0.6289
  160OSM   H11S17949   5.060   3.548   3.410 -1.5923 -0.5089  0.8656
  160OSM   H11T17950   5.205   3.444   3.421  0.0796 -2.3433 -0.4033
  160OSM   C12S17951   5.044   3.371   3.546 -0.3495  0.7786 -0.4385
  160OSM   H12S17952   5.119   3.295   3.574  0.9561  0.5830 -4.0381
  160OSM   H12T17953   4.956   3.306   3.526  0.0981  0.1579 -0.3904
  160OSM   C13S17954   5.010   3.467   3.669 -0.1395 -0.2367  0.2923
  160OSM   H13S17955   4.927   3.537   3.647 -0.8971 -0.6939  1.6159
  160OSM   H13T17956   5.101   3.528   3.687  0.5555 -0.6049 -1.6575
  160OSM   C14S17957   4.973   3.393   3.794  0.3902 -0.3410  0.0729
  160OSM   H14S17958   5.068   3.354   3.836  1.0403  0.0398 -0.9879
  160OSM   H14T17959   4.907   3.308   3.768  0.8636 -0.3309 -1.2470
  160OSM   C15S17960   4.891   3.467   3.906 -0.5766 -0.3771  0.1675
  160OSM   H15S17961   4.861   3.400   3.989  1.2024 -0.8722  0.4380
  160OSM   H15T17962   4.802   3.504   3.851  0.5251  1.1598 -0.6460
  160OSM   C16S17963   4.955   3.587   3.972 -0.6593  0.0536  0.3275
  160OSM   H16S17964   5.008   3.640   3.889  0.7657 -0.7834  0.6771
  160OSM   H16T17965   5.019   3.557   4.057  0.2906 -0.8263 -0.6688
  160OSM   C17S17966   4.859   3.686   4.042 -0.0799  0.4382 -0.1224
  160OSM   H17S17967   4.805   3.620   4.113 -2.2656  1.1855 -1.0159
  160OSM   H17T17968   4.783   3.720   3.969 -0.5765  0.0310  0.2033
  160OSM   C18S17969   4.925   3.796   4.118 -0.9795 -0.2918 -0.1461
  160OSM   H18S17970   4.987   3.762   4.204  1.4420  2.2141 -0.7288
  160OSM   H18T17971   4.848   3.861   4.164 -0.4448  0.9154 -0.9046
  160OSM   H18U17972   4.969   3.868   4.045 -4.0693  0.8052 -1.0962
  160OSM    C1F17973   4.742   3.779   2.571  0.0728  0.3130 -0.2748
  160OSM     OF17974   4.656   3.748   2.485 -0.1641  0.3135 -0.3479
  160OSM    C2F17975   4.726   3.877   2.680  0.8082  0.3823  0.7390
  160OSM    H2F17976   4.817   3.937   2.700 -0.3254  2.8099 -0.8746
  160OSM    H2G17977   4.718   3.811   2.769 -0.0859 -0.8631 -0.2249
  160OSM    C3F17978   4.603   3.966   2.663 -0.3107  0.2087  0.6014
  160OSM    H3F17979   4.528   3.922   2.594  2.0418 -2.6025 -0.3598
  160OSM    H3G17980   4.633   4.069   2.633 -1.9232 -0.0695 -2.3073
  160OSM    C4F17981   4.528   3.975   2.797 -0.0297  0.2380  0.6335
  160OSM    H4F17982   4.512   3.873   2.838  4.6127  0.2883  3.2780
  160OSM    H4G17983   4.430   4.023   2.776 -0.8271 -1.6111 -0.1052
  160OSM    C5F17984   4.592   4.052   2.918  0.1617  0.1226  0.5275
  160OSM    H5F17985   4.626   4.155   2.893 -0.6234  0.8806  2.3744
  160OSM    H5G17986   4.683   4.007   2.962 -1.5850 -0.6623  3.7104
  160OSM    C6F17987   4.504   4.051   3.041  0.5588 -0.4455  0.1029
  160OSM    H6F17988   4.396   4.054   3.015  0.5943  0.6800  0.0400
  160OSM    H6G17989   4.535   4.139   3.102 -0.9420  1.4829 -1.7617
  160OSM    C7F17990   4.530   3.934   3.144 -0.0075 -0.2387  0.4841
  160OSM    H7F17991   4.631   3.919   3.189 -0.0598  2.1294  1.5298
  160OSM    H7G17992   4.494   3.846   3.087 -2.2213  1.1227 -0.3744
  160OSM    C8F17993   4.422   3.937   3.259 -0.1144  0.5095  0.7626
  160OSM    H8F17994   4.408   3.830   3.286  0.1131  0.0163 -0.9142
  160OSM    H8G17995   4.332   3.970   3.204  0.9105  2.3032  0.0880
  160OSM    C9F17996   4.466   4.027   3.364  0.0282  0.3751  0.2385
  160OSM    H9F17997   4.518   4.117   3.326  1.8801 -0.3745  0.9030
  160OSM   C10F17998   4.437   4.006   3.494 -0.4984 -0.1212 -0.6841
  160OSM   H10F17999   4.493   4.069   3.563 -0.0073 -0.8252 -0.4260
  160OSM   C11F18000   4.378   3.878   3.552  0.3570  0.3039 -0.6863
  160OSM   H11F18001   4.440   3.786   3.542 -0.2109 -0.0834 -0.6861
  160OSM   H11G18002   4.280   3.849   3.507 -0.3629  1.2007  0.2725
  160OSM   C12F18003   4.348   3.916   3.707 -0.1046  0.4071  0.7540
  160OSM   H12F18004   4.299   3.830   3.758  0.1168  1.1831  2.3327
  160OSM   H12G18005   4.286   4.008   3.710 -1.3719 -0.3038 -1.3273
  160OSM   C13F18006   4.474   3.940   3.798  0.5154 -0.1109  0.6250
  160OSM   H13F18007   4.538   4.019   3.754  1.7599 -1.2262  0.3560
  160OSM   H13G18008   4.541   3.852   3.806  0.9361  0.1124 -0.2778
  160OSM   C14F18009   4.423   3.982   3.937  0.1032 -0.1430  0.3915
  160OSM   H14F18010   4.352   3.905   3.974  1.0273 -2.3683 -2.1758
  160OSM   H14G18011   4.359   4.072   3.929  2.5196  1.7500  1.1511
  160OSM   C15F18012   4.527   3.993   4.043  0.1474 -0.2065  0.4484
  160OSM   H15F18013   4.591   4.078   4.012 -1.6744  0.5204 -1.4787
  160OSM   H15G18014   4.576   3.893   4.047 -1.8064 -1.2946 -1.2878
  160OSM   C16F18015   4.474   4.019   4.189  0.0640 -0.3229  0.1929
  160OSM   H16F18016   4.383   3.962   4.217 -0.8927 -0.0317 -2.0856
  160OSM   H16G18017   4.433   4.122   4.189  1.0530  0.1180 -1.8108
  160OSM   C17F18018   4.592   3.981   4.291 -0.7301 -0.3604  0.8273
  160OSM   H17F18019   4.667   4.062   4.282 -1.5583  0.2073 -1.8232
  160OSM   H17G18020   4.644   3.889   4.257 -1.5709 -0.1124 -1.2800
  160OSM   C18F18021   4.549   3.960   4.434 -0.5025  0.0236  0.6204
  160OSM   H18F18022   4.637   3.939   4.498 -0.2209 -0.3218  0.1331
  160OSM   H18G18023   4.497   3.862   4.435  0.2656 -0.3834  1.2981
  160OSM   H18H18024   4.493   4.044   4.480 -0.1915 -0.1527  1.3307
  161OSM      N18025   2.435   3.379   2.203  0.6204 -0.1267  0.3453
  161OSM    C1518026   2.386   3.513   2.245 -0.2642 -0.0082 -0.7814
  161OSM   H15A18027   2.451   3.586   2.199  0.8498 -0.8034 -0.4985
  161OSM   H15B18028   2.397   3.532   2.351 -0.2503  1.9222 -1.0876
  161OSM   H15C18029   2.281   3.530   2.226 -0.5467  1.0510  1.4221
  161OSM    C1418030   2.359   3.282   2.285 -0.3541 -0.1348 -0.3291
  161OSM   H14A18031   2.381   3.184   2.243  1.7831  1.0096 -2.0580
  161OSM   H14B18032   2.255   3.309   2.294 -0.4827  0.0271 -1.9318
  161OSM   H14C18033   2.401   3.283   2.384 -0.8437  1.4773 -0.1180
  161OSM    C1318034   2.393   3.347   2.059  0.4170 -0.0018  1.0358
  161OSM   H13A18035   2.424   3.418   1.985 -3.0031  1.4829  0.8255
  161OSM   H13B18036   2.286   3.342   2.048  0.4721  1.9409 -1.0428
  161OSM   H13C18037   2.435   3.251   2.031 -1.1064 -0.4794  0.2361
  161OSM    C1218038   2.580   3.366   2.225 -0.0707  0.1183  0.2672
  161OSM   H12A18039   2.611   3.269   2.190 -1.4988 -0.0059 -0.7554
  161OSM   H12B18040   2.598   3.362   2.331  1.4159  0.0543  0.0385
  161OSM    C1118041   2.674   3.477   2.164  0.1336  0.0333 -0.6059
  161OSM   H11A18042   2.628   3.494   2.064 -0.9895 -1.5019 -0.3769
  161OSM   H11B18043   2.779   3.446   2.149  0.2985 -0.6147  1.6293
  161OSM      P18044   2.737   3.586   2.386  0.1864 -0.0566  0.3218
  161OSM    O1318045   2.858   3.508   2.375  0.1443  0.1794  0.0305
  161OSM    O1418046   2.752   3.723   2.437 -0.2392  0.1761 -0.2562
  161OSM    O1118047   2.634   3.505   2.477 -0.1545 -0.3989  0.5147
  161OSM    O1218048   2.669   3.589   2.242 -0.5270 -0.1938  0.0355
  161OSM    C1S18049   2.672   3.431   2.591  0.2465 -0.8925  0.3554
  161OSM    H1S18050   2.781   3.440   2.610  0.0404  1.2349  0.6956
  161OSM    H1T18051   2.643   3.323   2.589 -3.2148 -0.0482 -0.3112
  161OSM     NF18052   2.676   3.430   2.837 -0.5235 -0.2533 -0.0401
  161OSM    HNF18053   2.621   3.364   2.886 -1.3678  0.6596  0.2659
  161OSM    C2S18054   2.606   3.484   2.719 -0.7152 -0.3845 -0.0450
  161OSM    H2S18055   2.622   3.594   2.728 -1.6900 -0.1379 -1.0147
  161OSM    C3S18056   2.454   3.467   2.702 -0.7843 -0.5585 -0.7915
  161OSM    H3S18057   2.434   3.358   2.716  0.1222 -0.6681 -0.2647
  161OSM     O318058   2.399   3.509   2.574 -0.1104 -0.2013 -0.5030
  161OSM    HO318059   2.481   3.516   2.523 -1.1914  2.0120 -2.1493
  161OSM    C4S18060   2.387   3.540   2.808 -0.0747  0.2351 -0.3993
  161OSM    H4S18061   2.393   3.649   2.810 -0.9186  0.3112 -1.4672
  161OSM    C5S18062   2.331   3.473   2.913 -0.3912 -0.0955  0.1757
  161OSM    H5S18063   2.330   3.363   2.920  0.4142 -0.0696  0.9803
  161OSM    C6S18064   2.261   3.532   3.032 -0.2446 -0.0636 -0.5905
  161OSM    H6S18065   2.153   3.523   3.008 -0.2147  0.8570 -1.1334
  161OSM    H6T18066   2.272   3.643   3.032 -1.0781  0.0223 -0.7556
  161OSM    C7S18067   2.300   3.482   3.173 -0.3612 -0.7086 -0.3027
  161OSM    H7S18068   2.244   3.537   3.251 -2.3335 -0.2600 -1.9381
  161OSM    H7T18069   2.406   3.511   3.182 -0.4074 -0.8825  0.9005
  161OSM    C8S18070   2.271   3.338   3.203 -0.5003 -0.2290  0.2025
  161OSM    H8S18071   2.299   3.284   3.110 -1.8944  1.7234 -1.4380
  161OSM    H8T18072   2.160   3.326   3.207 -0.3708 -1.9709 -0.3821
  161OSM    C9S18073   2.335   3.277   3.329 -0.5139 -0.1349 -0.7220
  161OSM    H9S18074   2.444   3.293   3.319 -0.3096 -0.9264  0.1634
  161OSM    H9T18075   2.317   3.168   3.338 -0.6812  0.0441  1.7278
  161OSM   C10S18076   2.284   3.349   3.464 -0.2429 -0.1348 -0.6212
  161OSM   H10S18077   2.177   3.377   3.452  0.3826  2.6922 -0.2591
  161OSM   H10T18078   2.342   3.443   3.474 -2.6786  1.5959 -2.0005
  161OSM   C11S18079   2.299   3.263   3.587  0.1017  0.2750  0.4787
  161OSM   H11S18080   2.394   3.207   3.578 -0.1181 -0.3123  1.6491
  161OSM   H11T18081   2.224   3.181   3.584 -0.1157  0.4716  0.4858
  161OSM   C12S18082   2.301   3.344   3.713  0.0795  0.2549  0.3154
  161OSM   H12S18083   2.267   3.276   3.794 -0.5338  3.7372  3.2767
  161OSM   H12T18084   2.223   3.423   3.705 -1.3829 -1.2614 -1.4555
  161OSM   C13S18085   2.442   3.396   3.750  0.0869 -0.0358 -0.3236
  161OSM   H13S18086   2.467   3.472   3.672  1.7643 -2.1693 -1.9856
  161OSM   H13T18087   2.511   3.312   3.727 -1.2316 -1.1285 -0.4152
  161OSM   C14S18088   2.457   3.455   3.891 -0.0990  0.8977 -0.0686
  161OSM   H14S18089   2.565   3.476   3.904  0.3950 -1.5074  0.1675
  161OSM   H14T18090   2.431   3.371   3.959  2.0401  1.0895  1.0734
  161OSM   C15S18091   2.375   3.572   3.913 -0.3002  0.2307 -0.1867
  161OSM   H15S18092   2.269   3.539   3.904 -0.1493 -0.1607 -0.5340
  161OSM   H15T18093   2.397   3.641   3.829  0.4148 -0.4431 -0.5698
  161OSM   C16S18094   2.401   3.644   4.050 -0.0384  0.9103  0.1325
  161OSM   H16S18095   2.325   3.717   4.087 -0.5101 -0.2097  1.4975
  161OSM   H16T18096   2.496   3.699   4.037  0.2859  0.2651 -0.2751
  161OSM   C17S18097   2.423   3.544   4.161  0.1842 -0.4704  0.0372
  161OSM   H17S18098   2.499   3.471   4.125 -1.1387 -0.5138 -2.9175
  161OSM   H17T18099   2.336   3.482   4.192 -0.8230  1.4045  1.1482
  161OSM   C18S18100   2.485   3.604   4.287 -0.2438 -0.4885 -0.2986
  161OSM   H18S18101   2.424   3.687   4.329  1.6491 -0.1457  1.9811
  161OSM   H18T18102   2.587   3.642   4.264 -0.7835  0.8952 -0.5511
  161OSM   H18U18103   2.486   3.535   4.374 -1.1439 -0.8062 -0.5360
  161OSM    C1F18104   2.788   3.472   2.888  0.3829  0.3500 -0.4975
  161OSM     OF18105   2.857   3.559   2.839 -0.6183 -0.2862 -0.1791
  161OSM    C2F18106   2.828   3.406   3.022  0.3888 -0.7468 -0.6807
  161OSM    H2F18107   2.932   3.369   3.030  0.2905 -0.8496  0.3678
  161OSM    H2G18108   2.763   3.318   3.043  2.1096 -1.5260  1.9443
  161OSM    C3F18109   2.808   3.509   3.134  0.1114  0.2846 -0.9565
  161OSM    H3F18110   2.705   3.549   3.124 -0.6436 -0.9937  1.0978
  161OSM    H3G18111   2.886   3.587   3.121  1.5309 -0.8627  0.2527
  161OSM    C4F18112   2.826   3.445   3.277  0.3426  0.7397 -0.4288
  161OSM    H4F18113   2.888   3.515   3.336  1.0377  1.4256 -1.9051
  161OSM    H4G18114   2.891   3.355   3.268  0.9778  1.1294  0.2257
  161OSM    C5F18115   2.697   3.405   3.353 -0.0080 -0.4812  0.8253
  161OSM    H5F18116   2.641   3.323   3.302 -0.9647  1.6093 -1.7336
  161OSM    H5G18117   2.638   3.498   3.362  3.6231  2.0636  0.4060
  161OSM    C6F18118   2.726   3.349   3.495 -0.5065 -0.1344  0.6235
  161OSM    H6F18119   2.784   3.256   3.474  1.6326  1.8168 -3.2783
  161OSM    H6G18120   2.626   3.318   3.533 -0.8101 -1.3573 -1.0374
  161OSM    C7F18121   2.801   3.448   3.580  0.3731 -0.5833 -0.3249
  161OSM    H7F18122   2.751   3.548   3.578  0.6654 -0.4322 -0.2166
  161OSM    H7G18123   2.900   3.463   3.532  0.4597 -0.9783 -0.2700
  161OSM    C8F18124   2.828   3.398   3.726 -0.5703  0.0893  0.0178
  161OSM    H8F18125   2.873   3.297   3.732  1.1828  0.8768  0.9950
  161OSM    H8G18126   2.732   3.389   3.782 -0.5119  1.9967  0.5131
  161OSM    C9F18127   2.938   3.479   3.789 -0.5099 -0.4478  0.6051
  161OSM    H9F18128   3.018   3.529   3.732  0.5742 -1.9697  0.7192
  161OSM   C10F18129   2.941   3.518   3.913  0.7574 -0.6276  1.0009
  161OSM   H10F18130   3.024   3.583   3.947  0.1841 -0.4511  2.1299
  161OSM   C11F18131   2.852   3.477   4.031  0.1424  0.2350  0.2024
  161OSM   H11F18132   2.804   3.377   4.026  1.2103 -0.3978  1.8612
  161OSM   H11G18133   2.768   3.546   4.052  0.5214  1.1132 -1.0389
  161OSM   C12F18134   2.943   3.493   4.157 -0.3016  0.2623  0.0255
  161OSM   H12F18135   2.973   3.599   4.166 -0.0757  0.3193 -1.2976
  161OSM   H12G18136   3.027   3.424   4.134 -0.9464 -0.6576  0.3869
  161OSM   C13F18137   2.876   3.464   4.293 -0.7964  0.3920 -0.5312
  161OSM   H13F18138   2.874   3.353   4.299  2.1678  0.1905 -1.8921
  161OSM   H13G18139   2.777   3.514   4.286 -0.3094  1.4230 -0.1997
  161OSM   C14F18140   2.958   3.508   4.406 -0.0202  0.2000 -0.4223
  161OSM   H14F18141   2.979   3.616   4.397  1.3611  0.0127  0.3003
  161OSM   H14G18142   3.059   3.468   4.386 -0.9105 -1.7324 -1.3760
  161OSM   C15F18143   2.912   3.475   4.551 -0.4310  0.3749 -0.0118
  161OSM   H15F18144   2.891   3.366   4.550 -0.6752  0.3942 -1.8883
  161OSM   H15G18145   2.819   3.526   4.583 -0.9056  0.0503 -0.8363
  161OSM   C16F18146   3.030   3.509   4.638 -1.0012  1.2372 -0.3218
  161OSM   H16F18147   3.080   3.601   4.601 -1.3072  0.9988 -1.3545
  161OSM   H16G18148   3.103   3.426   4.624 -0.7893  1.3214  0.2871
  161OSM   C17F18149   3.002   3.503   4.788  0.5275  0.1258  0.3260
  161OSM   H17F18150   2.947   3.409   4.812  0.4377  0.3166  0.8790
  161OSM   H17G18151   2.916   3.571   4.803 -1.6654 -1.8118 -2.3774
  161OSM   C18F18152   3.113   3.524   4.887  0.4438  0.1946 -0.7982
  161OSM   H18F18153   3.166   3.619   4.863 -1.9112  1.6943 -0.4084
  161OSM   H18G18154   3.194   3.449   4.884  1.5135  1.2587  0.5805
  161OSM   H18H18155   3.072   3.531   4.990 -2.2647 -1.1030 -1.6965
  162OSM      N18156   4.052   3.105   2.327  0.2867 -0.0573  0.5872
  162OSM    C1518157   4.146   3.225   2.336  0.2969  0.0827  0.3368
  162OSM   H15A18158   4.226   3.208   2.407  2.3355  1.8724 -1.3816
  162OSM   H15B18159   4.090   3.313   2.366  0.9550  0.7913 -0.4854
  162OSM   H15C18160   4.188   3.255   2.241  1.1015  0.0669  0.6795
  162OSM    C1418161   4.117   3.000   2.252  0.0909 -0.5415  0.3534
  162OSM   H14A18162   4.171   3.042   2.168  1.7908 -0.1615  1.5990
  162OSM   H14B18163   4.053   2.920   2.216  1.4885 -0.6054 -2.2377
  162OSM   H14C18164   4.201   2.956   2.303  0.4835 -0.5618 -0.2947
  162OSM    C1318165   4.029   3.061   2.465 -0.3616 -0.4594  0.1099
  162OSM   H13A18166   4.113   3.015   2.515  0.7702 -0.1054 -1.3869
  162OSM   H13B18167   3.947   2.992   2.466  1.2080 -2.4897 -1.5670
  162OSM   H13C18168   3.989   3.139   2.529 -0.9196  0.4537 -1.3042
  162OSM    C1218169   3.924   3.157   2.257 -0.2157  0.1207  0.0870
  162OSM   H12A18170   3.948   3.177   2.153 -2.7113 -2.1589 -1.0536
  162OSM   H12B18171   3.886   3.242   2.313 -1.1825 -0.6669  0.6464
  162OSM    C1118172   3.803   3.057   2.251  0.0875  0.4625 -0.4294
  162OSM   H11A18173   3.840   2.952   2.257 -0.3566  0.3748  1.0843
  162OSM   H11B18174   3.733   3.073   2.165 -0.7333  3.3934  0.6679
  162OSM      P18175   3.588   3.012   2.400 -0.1310 -0.1168 -0.0379
  162OSM    O1318176   3.472   3.077   2.332 -0.5704  0.1111 -0.4342
  162OSM    O1418177   3.608   2.866   2.381  0.1770 -0.3348  0.3603
  162OSM    O1118178   3.565   3.044   2.561 -0.0927  0.8724  0.7919
  162OSM    O1218179   3.726   3.086   2.362 -0.1114  0.3753 -0.4474
  162OSM    C1S18180   3.642   3.144   2.632 -0.2331  0.1639 -0.0657
  162OSM    H1S18181   3.585   3.239   2.646 -0.9960  0.1234 -2.4377
  162OSM    H1T18182   3.734   3.165   2.573 -0.0997 -1.5149 -0.4891
  162OSM     NF18183   3.722   3.220   2.857  0.4353 -0.2125 -0.0850
  162OSM    HNF18184   3.818   3.249   2.859 -0.4234  2.9642 -0.1312
  162OSM    C2S18185   3.689   3.101   2.779  0.2782  0.2034 -1.1200
  162OSM    H2S18186   3.602   3.054   2.831  0.6567 -1.0181 -1.5666
  162OSM    C3S18187   3.802   2.996   2.772 -0.3317  0.9189 -0.3003
  162OSM    H3S18188   3.890   3.051   2.732 -0.9369  0.9430 -1.6554
  162OSM     O318189   3.782   2.889   2.678  0.1344 -0.1942  0.1340
  162OSM    HO318190   3.703   2.913   2.630  0.0804 -0.8613 -0.1139
  162OSM    C4S18191   3.835   2.935   2.910  0.2386  0.3935 -0.0753
  162OSM    H4S18192   3.901   3.009   2.959  0.4137  1.1195 -1.3629
  162OSM    C5S18193   3.753   2.847   2.970 -0.0776 -0.3944  0.4246
  162OSM    H5S18194   3.663   2.824   2.912  0.4635 -0.4003 -0.4404
  162OSM    C6S18195   3.758   2.813   3.111 -0.0363  0.6400  0.0494
  162OSM    H6S18196   3.855   2.845   3.155  0.0268 -1.0060  1.1867
  162OSM    H6T18197   3.753   2.704   3.132 -2.4911  0.8529  0.7548
  162OSM    C7S18198   3.643   2.885   3.187  0.3022 -0.0265  0.6064
  162OSM    H7S18199   3.545   2.847   3.150  0.3330  0.0702  0.4222
  162OSM    H7T18200   3.649   2.991   3.152  3.1129 -0.5877 -0.8756
  162OSM    C8S18201   3.646   2.868   3.335  0.7817  0.0532  0.2358
  162OSM    H8S18202   3.742   2.901   3.380  0.8440  0.9243 -0.5181
  162OSM    H8T18203   3.641   2.760   3.362  0.8495  0.0768  0.3415
  162OSM    C9S18204   3.524   2.941   3.396  0.8377 -0.1509 -0.4307
  162OSM    H9S18205   3.441   2.949   3.323 -0.8634  3.4061  1.6282
  162OSM    H9T18206   3.561   3.045   3.414 -1.2839  0.4328  0.8802
  162OSM   C10S18207   3.467   2.875   3.527  0.5312  0.2150  0.5345
  162OSM   H10S18208   3.441   2.771   3.497 -0.5312  1.4312 -3.2486
  162OSM   H10T18209   3.376   2.919   3.572 -0.9653 -0.0477 -2.0625
  162OSM   C11S18210   3.566   2.867   3.640 -0.3481  0.4432  0.2157
  162OSM   H11S18211   3.591   2.971   3.668  1.1353 -0.1658  1.2924
  162OSM   H11T18212   3.658   2.822   3.597 -0.9621  0.2229 -0.9071
  162OSM   C12S18213   3.513   2.792   3.762  0.5534  0.3196 -0.0724
  162OSM   H12S18214   3.505   2.681   3.753 -1.0092  0.3710  0.2751
  162OSM   H12T18215   3.409   2.829   3.772  0.2709 -0.3050 -0.5590
  162OSM   C13S18216   3.591   2.844   3.887  0.0033 -0.0898 -0.6997
  162OSM   H13S18217   3.590   2.955   3.890 -2.5412 -0.0772  1.3243
  162OSM   H13T18218   3.690   2.807   3.852 -0.3172  0.4211 -2.2192
  162OSM   C14S18219   3.550   2.780   4.017  0.2329 -0.3378  0.6049
  162OSM   H14S18220   3.644   2.744   4.064  1.3596  1.5152 -0.1079
  162OSM   H14T18221   3.487   2.694   3.987  0.0207  0.0123  0.0347
  162OSM   C15S18222   3.457   2.868   4.095  0.8232  0.6132 -0.1900
  162OSM   H15S18223   3.379   2.896   4.021 -1.3755 -2.6991  0.6576
  162OSM   H15T18224   3.507   2.962   4.127  1.0866 -0.2714  2.1809
  162OSM   C16S18225   3.389   2.799   4.218 -0.8650  0.0496  0.8396
  162OSM   H16S18226   3.381   2.693   4.185 -1.7477  0.9725 -2.2911
  162OSM   H16T18227   3.286   2.838   4.228 -0.3636  1.6780  0.0268
  162OSM   C17S18228   3.474   2.796   4.349  0.1092 -0.4023  0.4337
  162OSM   H17S18229   3.494   2.901   4.380  1.0970 -0.7646  1.0923
  162OSM   H17T18230   3.571   2.743   4.337 -0.3938 -0.8993 -2.0172
  162OSM   C18S18231   3.405   2.723   4.466  0.5414 -0.6815 -0.0588
  162OSM   H18S18232   3.455   2.760   4.558 -2.6678 -0.3723  1.7170
  162OSM   H18T18233   3.386   2.613   4.464  0.6967 -0.7113  0.0701
  162OSM   H18U18234   3.311   2.780   4.484  0.8549  0.3825 -1.6593
  162OSM    C1F18235   3.636   3.314   2.906  0.4707 -0.0536 -0.2798
  162OSM     OF18236   3.515   3.292   2.881 -0.3699 -0.1207 -0.6382
  162OSM    C2F18237   3.687   3.447   2.966  0.3927  0.4789  0.5435
  162OSM    H2F18238   3.604   3.518   2.947 -0.0121 -0.3167 -0.8323
  162OSM    H2G18239   3.770   3.483   2.901  2.2846 -1.5390  1.7297
  162OSM    C3F18240   3.734   3.424   3.110  0.4432  0.4082 -0.6052
  162OSM    H3F18241   3.788   3.515   3.142  0.9678  0.0990 -0.6072
  162OSM    H3G18242   3.807   3.341   3.125  1.7541  1.7881  1.0350
  162OSM    C4F18243   3.614   3.394   3.209  0.0720  0.5361  0.1837
  162OSM    H4F18244   3.587   3.288   3.195 -0.6744  0.8982 -1.3081
  162OSM    H4G18245   3.528   3.463   3.193 -1.7272 -1.0546  2.3932
  162OSM    C5F18246   3.651   3.412   3.354  0.5780 -0.8907 -0.3743
  162OSM    H5F18247   3.714   3.503   3.360 -1.0761  0.2349  1.4333
  162OSM    H5G18248   3.709   3.325   3.390 -0.6501 -0.5184  2.8436
  162OSM    C6F18249   3.531   3.423   3.453  0.3273 -0.3147 -0.0239
  162OSM    H6F18250   3.474   3.330   3.435  0.1401  0.0220 -1.2309
  162OSM    H6G18251   3.466   3.505   3.416  0.3611  1.0056  2.6095
  162OSM    C7F18252   3.587   3.423   3.595 -0.1359 -0.2201 -0.2915
  162OSM    H7F18253   3.683   3.478   3.601  0.2098 -0.9891  2.3863
  162OSM    H7G18254   3.608   3.318   3.625  1.0205  0.1536  0.2459
  162OSM    C8F18255   3.488   3.485   3.697  0.2653  0.6107 -0.6240
  162OSM    H8F18256   3.447   3.578   3.652 -0.1407  0.0724 -1.3908
  162OSM    H8G18257   3.539   3.504   3.794 -1.3945 -2.1519  0.8925
  162OSM    C9F18258   3.368   3.403   3.718 -0.3333  0.1352  0.4405
  162OSM    H9F18259   3.321   3.368   3.624 -1.1206 -1.0266  1.2382
  162OSM   C10F18260   3.300   3.374   3.827  0.6931 -0.8220  0.4016
  162OSM   H10F18261   3.213   3.307   3.824 -1.0401  1.3076  0.2929
  162OSM   C11F18262   3.333   3.413   3.965  0.2425 -0.0611  0.6865
  162OSM   H11F18263   3.272   3.501   3.998  0.8583  0.9693 -0.8141
  162OSM   H11G18264   3.437   3.451   3.974 -0.3778  2.1043 -0.5169
  162OSM   C12F18265   3.301   3.300   4.060 -0.7810 -0.1393  0.0905
  162OSM   H12F18266   3.360   3.206   4.046  0.8733  0.4028  2.6306
  162OSM   H12G18267   3.197   3.263   4.056 -0.7748 -0.0968 -0.6614
  162OSM   C13F18268   3.328   3.338   4.210 -0.1076 -0.0631 -0.1792
  162OSM   H13F18269   3.237   3.385   4.253 -1.7331 -2.6055 -0.6144
  162OSM   H13G18270   3.415   3.406   4.203 -0.3542  0.3596  0.6697
  162OSM   C14F18271   3.340   3.211   4.290 -0.4581 -0.1229 -0.8054
  162OSM   H14F18272   3.417   3.136   4.262  0.0227 -0.3850  1.0630
  162OSM   H14G18273   3.240   3.163   4.282 -0.6166 -0.2448  1.2897
  162OSM   C15F18274   3.368   3.246   4.441 -0.2555 -0.2672 -0.8037
  162OSM   H15F18275   3.306   3.334   4.467  4.5596  2.9808  1.0332
  162OSM   H15G18276   3.477   3.271   4.442 -0.0017 -1.3025  0.7248
  162OSM   C16F18277   3.323   3.126   4.525  0.8064 -0.2323 -0.0885
  162OSM   H16F18278   3.373   3.033   4.491 -1.9079 -0.9381 -2.5506
  162OSM   H16G18279   3.216   3.110   4.500  0.3876  0.2700  1.2737
  162OSM   C17F18280   3.350   3.150   4.674  0.1755 -0.0586  0.0829
  162OSM   H17F18281   3.299   3.244   4.705 -0.5266 -1.1237  2.3260
  162OSM   H17G18282   3.456   3.165   4.705  0.1138 -0.8703  0.7182
  162OSM   C18F18283   3.300   3.032   4.762 -0.1203  0.5231 -0.6879
  162OSM   H18F18284   3.196   3.016   4.726  0.2490 -2.1806 -0.7730
  162OSM   H18G18285   3.305   3.050   4.871 -2.6767  1.9110 -0.7221
  162OSM   H18H18286   3.350   2.935   4.745  0.7615  1.1407 -1.7630
  163OSM      N18287   2.799   4.383   2.246 -0.3880  0.4072  0.2963
  163OSM    C1518288   2.944   4.413   2.220 -0.1627 -0.4366 -0.1923
  163OSM   H15A18289   3.000   4.371   2.302  0.1059  1.0251  0.4119
  163OSM   H15B18290   2.957   4.520   2.229  1.6794 -0.6210 -0.0959
  163OSM   H15C18291   2.977   4.376   2.124  2.7228 -0.9164  0.8793
  163OSM    C1418292   2.709   4.479   2.170 -0.5097  0.1346 -0.4786
  163OSM   H14A18293   2.715   4.460   2.064  0.4302 -4.4825  0.2060
  163OSM   H14B18294   2.736   4.581   2.197 -1.2038 -0.2816  2.1051
  163OSM   H14C18295   2.605   4.470   2.195 -0.3565  0.2171  0.2152
  163OSM    C1318296   2.769   4.243   2.209  0.0392  0.0889 -0.4279
  163OSM   H13A18297   2.838   4.171   2.251 -0.7165 -0.5788 -0.3041
  163OSM   H13B18298   2.779   4.229   2.102  1.1410 -2.7332 -0.0410
  163OSM   H13C18299   2.665   4.219   2.225 -0.1364  0.0405 -1.5231
  163OSM    C1218300   2.775   4.395   2.400  0.3322 -1.4738  0.2594
  163OSM   H12A18301   2.817   4.488   2.438 -1.3007 -0.9540  0.8845
  163OSM   H12B18302   2.834   4.315   2.443  0.1691 -1.2140  0.9855
  163OSM    C1118303   2.627   4.398   2.443 -1.3987 -0.3376  0.2013
  163OSM   H11A18304   2.618   4.359   2.546  1.2145 -1.5341  0.0302
  163OSM   H11B18305   2.575   4.317   2.387 -1.2801  0.5153 -1.2033
  163OSM      P18306   2.591   4.662   2.453 -0.1015  0.2546 -0.2504
  163OSM    O1318307   2.732   4.680   2.478  0.0620  0.3304 -1.1639
  163OSM    O1418308   2.526   4.755   2.351 -0.6823  0.6438  0.5289
  163OSM    O1118309   2.513   4.673   2.585  0.7981 -0.3466 -0.3787
  163OSM    O1218310   2.562   4.519   2.414  0.8289  0.1730 -0.6894
  163OSM    C1S18311   2.372   4.633   2.592  0.2483  0.0275 -0.0817
  163OSM    H1S18312   2.345   4.568   2.507  1.7922 -1.1593  0.2982
  163OSM    H1T18313   2.309   4.724   2.584 -1.3471 -0.2536  5.3730
  163OSM     NF18314   2.211   4.491   2.716  0.2569 -0.2949  0.1998
  163OSM    HNF18315   2.155   4.526   2.791  3.6944  0.9617  2.4378
  163OSM    C2S18316   2.339   4.552   2.723 -0.0530 -0.4612  0.2966
  163OSM    H2S18317   2.412   4.468   2.714 -1.1384 -1.5101  1.0119
  163OSM    C3S18318   2.372   4.633   2.841 -0.6198  0.1263  0.1282
  163OSM    H3S18319   2.320   4.731   2.847  0.5533  0.6930  1.3549
  163OSM     O318320   2.511   4.668   2.840  0.0216 -0.0540 -0.1082
  163OSM    HO318321   2.538   4.661   2.748  0.6057 -0.3489  0.0794
  163OSM    C4S18322   2.339   4.550   2.961  0.1352  0.5667 -0.1312
  163OSM    H4S18323   2.387   4.451   2.948  0.3132  0.4392  1.3120
  163OSM    C5S18324   2.258   4.580   3.064 -0.2042  0.7104  0.4761
  163OSM    H5S18325   2.202   4.674   3.054 -0.6936  0.2856 -1.0936
  163OSM    C6S18326   2.231   4.481   3.177  0.2663 -0.1954  0.7449
  163OSM    H6S18327   2.247   4.376   3.143 -1.2293  0.0867 -0.9626
  163OSM    H6T18328   2.122   4.491   3.192  0.5873  0.2154  3.2503
  163OSM    C7S18329   2.296   4.506   3.306  0.5054 -0.1229 -0.5318
  163OSM    H7S18330   2.398   4.550   3.302  1.2455 -1.3644  2.3365
  163OSM    H7T18331   2.299   4.416   3.371  0.4651 -0.0167 -0.3837
  163OSM    C8S18332   2.209   4.614   3.382 -1.0898 -0.1826 -0.0359
  163OSM    H8S18333   2.113   4.571   3.419 -0.7158  1.2766  2.9077
  163OSM    H8T18334   2.189   4.706   3.323  0.9281  0.2614 -0.0756
  163OSM    C9S18335   2.260   4.671   3.511 -0.3962  0.1328  0.1056
  163OSM    H9S18336   2.189   4.749   3.548 -2.4601 -2.3449  1.7296
  163OSM    H9T18337   2.362   4.708   3.487 -0.0075 -0.2354  1.1277
  163OSM   C10S18338   2.294   4.563   3.622  0.3317 -0.7904  0.3041
  163OSM   H10S18339   2.359   4.490   3.571  1.3836 -0.9597  1.8218
  163OSM   H10T18340   2.197   4.516   3.652  0.2168 -1.2739 -0.8033
  163OSM   C11S18341   2.386   4.611   3.743  0.7451  0.2628  0.1308
  163OSM   H11S18342   2.483   4.645   3.702 -0.4700  4.3896  0.1850
  163OSM   H11T18343   2.409   4.518   3.799 -0.5810  0.3294  0.8516
  163OSM   C12S18344   2.321   4.709   3.842  1.1000  0.0647  0.1747
  163OSM   H12S18345   2.216   4.674   3.854  0.2016  2.6696  0.4945
  163OSM   H12T18346   2.323   4.811   3.799 -2.6301 -0.2751 -1.1674
  163OSM   C13S18347   2.386   4.723   3.981  0.0825  0.0209  0.1772
  163OSM   H13S18348   2.330   4.801   4.037 -0.4926  0.0277 -0.3930
  163OSM   H13T18349   2.489   4.764   3.969  0.3272 -0.4370  0.6986
  163OSM   C14S18350   2.375   4.587   4.056 -0.4484  0.2334 -0.4118
  163OSM   H14S18351   2.449   4.522   4.003 -1.4315 -1.1406 -0.1502
  163OSM   H14T18352   2.275   4.540   4.049 -0.2328 -0.0167 -2.4100
  163OSM   C15S18353   2.432   4.596   4.201  0.3378 -0.0894  0.6922
  163OSM   H15S18354   2.346   4.619   4.266 -2.6659  0.5308 -3.1405
  163OSM   H15T18355   2.506   4.679   4.203  0.6318 -0.1973 -1.9839
  163OSM   C16S18356   2.499   4.462   4.235 -0.0560  0.7159  0.8211
  163OSM   H16S18357   2.569   4.428   4.155 -1.4672  1.6152 -0.8684
  163OSM   H16T18358   2.431   4.375   4.237 -0.1684  0.8174  1.5659
  163OSM   C17S18359   2.592   4.457   4.358  0.7968 -0.6966  0.5309
  163OSM   H17S18360   2.658   4.547   4.368  0.6753 -0.4876 -0.4897
  163OSM   H17T18361   2.659   4.372   4.333 -0.5872 -1.7907  0.4371
  163OSM   C18S18362   2.533   4.419   4.496  0.3178  0.3004 -0.3402
  163OSM   H18S18363   2.452   4.487   4.530  0.3164 -0.4887  1.3262
  163OSM   H18T18364   2.613   4.415   4.572  0.4311 -3.1007 -0.4576
  163OSM   H18U18365   2.490   4.316   4.496  0.4749  0.2128  1.3397
  163OSM    C1F18366   2.160   4.407   2.627 -0.2465  0.1682  0.3167
  163OSM     OF18367   2.237   4.358   2.538  0.1829  0.1476 -0.4298
  163OSM    C2F18368   2.014   4.371   2.632 -0.2665 -0.6088  0.8693
  163OSM    H2F18369   1.991   4.321   2.535 -0.5772  0.9833  0.0855
  163OSM    H2G18370   1.956   4.465   2.639  1.6516  0.6179  0.7158
  163OSM    C3F18371   1.979   4.275   2.753 -0.6886 -0.6508  0.0416
  163OSM    H3F18372   2.019   4.326   2.843 -0.5471 -3.6829  1.8461
  163OSM    H3G18373   2.025   4.174   2.762 -1.0455 -0.6771  1.9452
  163OSM    C4F18374   1.835   4.241   2.771  0.5329  0.2625 -0.4328
  163OSM    H4F18375   1.790   4.220   2.672 -2.4778 -1.0740  1.0938
  163OSM    H4G18376   1.772   4.322   2.814 -0.8639 -1.1790  0.3396
  163OSM    C5F18377   1.813   4.125   2.859  0.0043 -0.3673 -0.6955
  163OSM    H5F18378   1.861   4.036   2.813 -0.3364  0.5080 -2.8409
  163OSM    H5G18379   1.706   4.103   2.843  0.0392  1.0657 -3.3760
  163OSM    C6F18380   1.841   4.150   3.005 -0.0318 -0.3269 -0.1247
  163OSM    H6F18381   1.768   4.090   3.064  1.1254  0.5688  2.3794
  163OSM    H6G18382   1.830   4.257   3.031  2.3665 -0.4513  1.7709
  163OSM    C7F18383   1.982   4.098   3.052 -0.2767  1.2943  0.0357
  163OSM    H7F18384   2.060   4.150   2.992 -0.1866  0.5974 -0.4704
  163OSM    H7G18385   1.992   3.989   3.033 -0.5396  1.1442  0.7353
  163OSM    C8F18386   2.008   4.113   3.210  0.3671  0.3743  0.5331
  163OSM    H8F18387   2.109   4.082   3.244 -0.9074 -3.7907  1.0881
  163OSM    H8G18388   1.940   4.042   3.262  0.1948  0.5811  0.5911
  163OSM    C9F18389   1.981   4.246   3.253 -0.0800 -0.3672 -0.3741
  163OSM    H9F18390   1.956   4.319   3.175 -0.4950  0.4629  0.5084
  163OSM   C10F18391   1.998   4.292   3.381 -0.4733  0.8371 -0.6202
  163OSM   H10F18392   1.985   4.399   3.403  1.3524  0.5581  2.3534
  163OSM   C11F18393   2.053   4.213   3.499 -0.4224 -0.2891 -0.3193
  163OSM   H11F18394   2.159   4.238   3.516 -0.5640  0.9830 -1.1772
  163OSM   H11G18395   2.036   4.103   3.496 -0.5267 -0.2736 -3.2747
  163OSM   C12F18396   1.986   4.265   3.624  0.0589  0.1874  0.0370
  163OSM   H12F18397   1.876   4.256   3.610 -0.0692 -1.7638  1.8309
  163OSM   H12G18398   2.017   4.367   3.657  1.4653 -0.4620  0.7902
  163OSM   C13F18399   2.021   4.179   3.744  0.5471 -0.1254 -1.1521
  163OSM   H13F18400   2.132   4.171   3.755  0.2382 -1.8791  2.0791
  163OSM   H13G18401   1.972   4.079   3.739  0.2743 -0.5840  4.2539
  163OSM   C14F18402   1.955   4.241   3.876  0.4448  0.5686 -0.0015
  163OSM   H14F18403   1.855   4.280   3.846 -1.0790 -1.0157  2.5805
  163OSM   H14G18404   2.012   4.335   3.895  0.5424  0.3472  0.8367
  163OSM   C15F18405   1.951   4.158   3.997 -0.4926  0.7346 -0.8609
  163OSM   H15F18406   2.055   4.121   4.007 -1.3198 -1.6801 -0.6679
  163OSM   H15G18407   1.873   4.080   3.987 -0.1750  0.6026 -2.7354
  163OSM   C16F18408   1.908   4.222   4.136 -0.9143 -0.3756  0.4719
  163OSM   H16F18409   1.995   4.281   4.173 -1.3044 -0.0014  0.8009
  163OSM   H16G18410   1.886   4.140   4.208 -0.8274  0.3759  1.3705
  163OSM   C17F18411   1.790   4.318   4.141  0.3104  0.5915  0.1770
  163OSM   H17F18412   1.702   4.275   4.089  2.2249 -2.2789 -0.9493
  163OSM   H17G18413   1.815   4.408   4.080  0.0321  1.3870  1.2055
  163OSM   C18F18414   1.757   4.371   4.283 -0.4370 -0.2663  0.2630
  163OSM   H18F18415   1.846   4.415   4.333 -0.6970 -0.4613  0.9013
  163OSM   H18G18416   1.707   4.299   4.351  0.8782  0.1643  1.7464
  163OSM   H18H18417   1.686   4.455   4.268 -1.4091 -1.0142  0.5756
  164OSM      N18418   3.510   3.542   2.448  0.0292 -0.6170  0.1882
  164OSM    C1518419   3.551   3.402   2.453  0.4664 -0.0896 -0.4084
  164OSM   H15A18420   3.508   3.356   2.541  2.9620 -0.3721  0.7364
  164OSM   H15B18421   3.659   3.409   2.453  0.4218  0.6740 -1.0462
  164OSM   H15C18422   3.521   3.342   2.368 -0.8014 -2.9788  1.8849
  164OSM    C1418423   3.548   3.594   2.315  0.3561 -1.0838 -0.8117
  164OSM   H14A18424   3.516   3.697   2.312  0.4552 -0.9701  1.0754
  164OSM   H14B18425   3.488   3.544   2.240 -1.0223 -1.7996  0.7276
  164OSM   H14C18426   3.654   3.578   2.298  0.7331  1.0375 -0.7545
  164OSM    C1318427   3.360   3.563   2.470  0.0104  0.0998 -0.0591
  164OSM   H13A18428   3.337   3.666   2.450  1.3696  0.0394 -2.1685
  164OSM   H13B18429   3.349   3.535   2.574  1.3195 -1.6235 -0.3244
  164OSM   H13C18430   3.287   3.515   2.407  0.0445  1.7910 -1.4615
  164OSM    C1218431   3.584   3.616   2.552 -0.3504  0.3311  0.2779
  164OSM   H12A18432   3.535   3.575   2.640 -0.6813 -0.6879 -0.3575
  164OSM   H12B18433   3.554   3.719   2.560  1.3136  0.7176  2.5272
  164OSM    C1118434   3.739   3.624   2.565  0.1609  0.7385  0.0445
  164OSM   H11A18435   3.748   3.701   2.645  1.0735  1.8868 -1.1184
  164OSM   H11B18436   3.780   3.668   2.472 -0.4373 -1.7105 -1.4624
  164OSM      P18437   3.910   3.430   2.530 -0.3871 -0.3573 -0.0876
  164OSM    O1318438   3.956   3.308   2.599 -0.2700  0.1603 -0.3201
  164OSM    O1418439   3.878   3.418   2.388 -0.1502  0.5353 -0.2129
  164OSM    O1118440   4.026   3.531   2.548 -0.4166 -0.2195  0.0622
  164OSM    O1218441   3.792   3.494   2.601 -0.1609 -0.6944 -0.8530
  164OSM    C1S18442   4.048   3.615   2.663  0.2366 -0.1814 -0.0702
  164OSM    H1S18443   3.972   3.594   2.741 -1.6306  1.0000 -1.4954
  164OSM    H1T18444   4.040   3.722   2.633  1.0879 -0.9070 -3.2210
  164OSM     NF18445   4.179   3.660   2.865 -0.3111 -0.7978  0.2802
  164OSM    HNF18446   4.220   3.750   2.867  0.9939 -1.3142 -1.2866
  164OSM    C2S18447   4.183   3.595   2.728 -0.4315 -0.2938 -0.0893
  164OSM    H2S18448   4.197   3.486   2.743  0.8281 -0.2635 -0.8856
  164OSM    C3S18449   4.296   3.635   2.629 -0.4867 -1.0796  0.2389
  164OSM    H3S18450   4.284   3.744   2.615  0.2275 -0.6167  2.6757
  164OSM     O318451   4.284   3.579   2.497 -0.5336  0.4334 -0.1261
  164OSM    HO318452   4.196   3.539   2.497 -0.6927  0.7543 -1.7295
  164OSM    C4S18453   4.436   3.605   2.682  0.0055 -0.1377 -0.5297
  164OSM    H4S18454   4.486   3.690   2.729  1.6609 -1.5897  0.4616
  164OSM    C5S18455   4.488   3.482   2.701 -0.7166 -0.1436  0.5949
  164OSM    H5S18456   4.423   3.394   2.688 -0.5375 -0.0925 -0.7922
  164OSM    C6S18457   4.624   3.463   2.769 -0.9005 -0.3881 -0.3340
  164OSM    H6S18458   4.705   3.490   2.698  0.5812 -2.2781  0.5350
  164OSM    H6T18459   4.644   3.358   2.800 -0.7057 -0.6758 -1.4011
  164OSM    C7S18460   4.632   3.545   2.899 -0.2136  0.4550 -0.0596
  164OSM    H7S18461   4.609   3.654   2.892  1.3027  0.8279  0.4161
  164OSM    H7T18462   4.731   3.551   2.948  0.8085  0.5552 -2.0181
  164OSM    C8S18463   4.529   3.501   3.007 -0.1922 -0.4002 -0.2768
  164OSM    H8S18464   4.503   3.394   2.990 -0.1924 -0.3849 -0.3709
  164OSM    H8T18465   4.432   3.549   2.985 -0.8963 -1.5645  0.2216
  164OSM    C9S18466   4.581   3.532   3.150  0.1001 -0.2988  0.2494
  164OSM    H9S18467   4.603   3.640   3.166  1.1762 -0.2612 -1.2281
  164OSM    H9T18468   4.678   3.477   3.158  0.4132 -0.0023 -1.1406
  164OSM   C10S18469   4.494   3.486   3.262 -0.1247  0.0884 -0.1974
  164OSM   H10S18470   4.471   3.377   3.255 -0.7092  0.0807  1.3925
  164OSM   H10T18471   4.392   3.529   3.248 -1.9556 -3.6646  0.1597
  164OSM   C11S18472   4.569   3.497   3.391 -0.5214 -0.0478  0.0071
  164OSM   H11S18473   4.591   3.606   3.398 -0.7756  0.2011 -2.3636
  164OSM   H11T18474   4.672   3.456   3.405 -0.8553 -0.6945  0.6909
  164OSM   C12S18475   4.482   3.469   3.509 -0.0020 -0.0912 -0.5695
  164OSM   H12S18476   4.448   3.364   3.496 -1.3475  0.2941 -0.2961
  164OSM   H12T18477   4.392   3.534   3.508 -0.5009 -0.6641  1.4440
  164OSM   C13S18478   4.552   3.477   3.650 -0.0862  0.1318  0.3437
  164OSM   H13S18479   4.624   3.560   3.666  1.9192 -1.1516 -1.4772
  164OSM   H13T18480   4.619   3.390   3.659 -0.8009 -0.3314  1.3561
  164OSM   C14S18481   4.447   3.476   3.752  0.5104 -0.7378 -0.1652
  164OSM   H14S18482   4.392   3.381   3.736  1.7515 -1.3579 -0.9483
  164OSM   H14T18483   4.386   3.567   3.734  0.5416 -1.0322 -1.9216
  164OSM   C15S18484   4.495   3.492   3.893  0.3781  0.7121  0.1087
  164OSM   H15S18485   4.551   3.588   3.888  0.1423  0.8784  0.6402
  164OSM   H15T18486   4.569   3.414   3.920 -0.3600  0.5654  1.8458
  164OSM   C16S18487   4.382   3.503   3.996 -1.0335  0.1434 -0.5896
  164OSM   H16S18488   4.310   3.418   3.997 -0.7705 -0.1058 -1.5273
  164OSM   H16T18489   4.328   3.595   3.965  0.4412  1.4026  0.4301
  164OSM   C17S18490   4.438   3.526   4.139 -0.0632  0.5197  0.8286
  164OSM   H17S18491   4.521   3.599   4.128 -1.3569  2.3407  2.5236
  164OSM   H17T18492   4.481   3.434   4.183  0.6275  1.2714  1.7669
  164OSM   C18S18493   4.335   3.578   4.235  0.1125 -0.5383 -0.0798
  164OSM   H18S18494   4.251   3.506   4.239 -1.0931  0.8762  1.6856
  164OSM   H18T18495   4.294   3.677   4.205 -0.6468 -0.3805  1.3732
  164OSM   H18U18496   4.380   3.577   4.337 -1.9786 -1.6800  0.8981
  164OSM    C1F18497   4.111   3.608   2.963  0.0188 -0.2272 -0.6058
  164OSM     OF18498   4.071   3.492   2.954 -0.6219  0.1662  0.1849
  164OSM    C2F18499   4.085   3.698   3.080  0.3442  0.8030 -0.2109
  164OSM    H2F18500   3.988   3.751   3.065 -0.1096  0.6039  1.6534
  164OSM    H2G18501   4.163   3.770   3.113 -0.5221 -0.7091  6.6852
  164OSM    C3F18502   4.064   3.600   3.199  0.5854  0.0041  0.0864
  164OSM    H3F18503   4.160   3.549   3.218  0.3119  0.2759  2.5273
  164OSM    H3G18504   3.987   3.522   3.181  1.5080 -0.8403 -0.2544
  164OSM    C4F18505   4.016   3.671   3.331 -0.1429 -0.2404 -0.1744
  164OSM    H4F18506   3.907   3.688   3.343  0.0533  0.6080  0.4561
  164OSM    H4G18507   4.069   3.765   3.353 -1.3222  0.1368  1.2074
  164OSM    C5F18508   4.067   3.589   3.453  0.0057  0.5794  0.7878
  164OSM    H5F18509   4.178   3.598   3.455  0.1009 -0.3977  2.6905
  164OSM    H5G18510   4.041   3.484   3.425  3.4464 -0.0618 -0.4212
  164OSM    C6F18511   4.002   3.650   3.576  0.1502 -0.1142  1.2922
  164OSM    H6F18512   3.895   3.623   3.569  0.0990  0.5163 -0.8596
  164OSM    H6G18513   4.005   3.759   3.554  1.8729 -0.0594  1.6412
  164OSM    C7F18514   4.078   3.610   3.707 -0.1866 -0.0209 -0.0771
  164OSM    H7F18515   4.184   3.642   3.697 -0.5002  0.7442 -1.1623
  164OSM    H7G18516   4.079   3.501   3.728 -0.7156  0.4635  2.9019
  164OSM    C8F18517   4.013   3.663   3.838  0.5191  0.8428  0.4730
  164OSM    H8F18518   4.064   3.608   3.920  1.1596  0.8257  0.0690
  164OSM    H8G18519   3.909   3.624   3.840  0.4509  1.0427  2.2431
  164OSM    C9F18520   4.010   3.814   3.873 -0.6707  0.3793 -0.6334
  164OSM    H9F18521   4.056   3.875   3.794 -0.8784  1.2721 -0.0801
  164OSM   C10F18522   3.953   3.864   3.985 -0.1201  0.2521  0.1278
  164OSM   H10F18523   3.945   3.973   3.993  0.5694  0.1947  2.6534
  164OSM   C11F18524   3.890   3.779   4.091 -1.2496  0.4895 -0.0695
  164OSM   H11F18525   3.862   3.678   4.055 -0.8651 -0.0406  1.0583
  164OSM   H11G18526   3.801   3.831   4.133 -0.9110  0.7505  0.3351
  164OSM   C12F18527   3.999   3.754   4.192 -0.3984 -0.2635 -0.3838
  164OSM   H12F18528   4.027   3.847   4.245  2.0283 -2.1711  1.9405
  164OSM   H12G18529   4.095   3.719   4.150  0.9706  2.3783  0.3471
  164OSM   C13F18530   3.950   3.666   4.307  0.1879  0.0396  0.3474
  164OSM   H13F18531   4.009   3.691   4.397  0.0431  2.9033 -0.2695
  164OSM   H13G18532   3.969   3.559   4.283 -1.6677  0.3379 -3.1457
  164OSM   C14F18533   3.800   3.681   4.341  0.6030 -0.7304 -0.6272
  164OSM   H14F18534   3.731   3.663   4.255 -0.7361  3.7907 -0.7569
  164OSM   H14G18535   3.785   3.788   4.367  1.6767 -1.0042  1.2777
  164OSM   C15F18536   3.763   3.589   4.451  0.1996 -0.3572  0.0381
  164OSM   H15F18537   3.815   3.616   4.545 -1.3756  0.4547  0.7140
  164OSM   H15G18538   3.794   3.484   4.429 -1.4514 -0.7952 -0.3492
  164OSM   C16F18539   3.617   3.572   4.486 -0.4869 -0.4772 -0.1114
  164OSM   H16F18540   3.562   3.521   4.404 -0.3986 -1.6105  0.5093
  164OSM   H16G18541   3.593   3.680   4.499  1.1644 -0.3583  2.8834
  164OSM   C17F18542   3.600   3.493   4.616  0.0844  0.3230 -0.2707
  164OSM   H17F18543   3.680   3.524   4.687 -0.6868  4.0110 -0.8235
  164OSM   H17G18544   3.630   3.389   4.589  2.1800  1.3792 -2.4096
  164OSM   C18F18545   3.467   3.496   4.687  0.1807  0.0181 -0.6819
  164OSM   H18F18546   3.428   3.599   4.700 -2.1999 -1.0435  1.2983
  164OSM   H18G18547   3.461   3.445   4.785  2.7830  1.0968  0.1142
  164OSM   H18H18548   3.384   3.461   4.621  1.0344 -0.3209 -1.5992
  165SAPS     N18549   2.029   1.703   6.954 -0.4001 -0.0671  0.8045
  165SAPS   HN118550   2.050   1.647   6.869  0.5886  0.5542  0.6184
  165SAPS   HN218551   1.930   1.689   6.981 -0.2967  2.4970  2.9167
  165SAPS   HN318552   2.035   1.801   6.921  2.0196  0.1037  1.5313
  165SAPS   C1218553   2.119   1.668   7.063 -0.5518 -0.7009  0.7928
  165SAPS  H12A18554   2.218   1.668   7.021 -0.9186 -0.9329 -0.0926
  165SAPS   C1318555   2.117   1.780   7.177  0.1725  0.3161 -0.4154
  165SAPS  O13A18556   2.025   1.867   7.175  0.0833 -0.4306  0.0015
  165SAPS  O13B18557   2.204   1.778   7.265 -0.2846  0.1092  0.2360
  165SAPS   C1118558   2.070   1.538   7.122  0.3223 -0.0590 -0.1452
  165SAPS  H11A18559   1.963   1.544   7.151 -0.1466 -0.8311 -1.6259
  165SAPS  H11B18560   2.135   1.507   7.207 -0.0492  0.0714  0.1916
  165SAPS     P18561   1.991   1.302   7.028  0.1260  0.0284 -0.4225
  165SAPS   O1318562   1.984   1.244   7.168 -0.1256  0.3126  0.8232
  165SAPS   O1418563   1.860   1.337   6.964 -0.2872  0.0950  0.0887
  165SAPS   O1218564   2.081   1.434   7.023 -0.0916 -0.1206  0.0769
  165SAPS   O1118565   2.075   1.200   6.936  0.4405 -0.0449 -0.0215
  165SAPS    C118566   2.205   1.240   6.894 -0.2355 -0.0184 -0.0144
  165SAPS    HA18567   2.271   1.269   6.978  0.2825  1.5366 -0.9094
  165SAPS    HB18568   2.256   1.153   6.847  2.0435  1.2134  0.0380
  165SAPS    C218569   2.204   1.351   6.785  0.4469 -0.3312 -0.1059
  165SAPS    HS18570   2.196   1.451   6.833  1.9708 -1.5288  2.8741
  165SAPS   O2118571   2.082   1.334   6.701 -0.4502  0.4259  0.9146
  165SAPS   C2118572   2.024   1.442   6.658  0.1662  0.0627  0.2588
  165SAPS   O2218573   2.029   1.556   6.707 -0.0047 -0.3139  0.4354
  165SAPS   C2218574   1.944   1.416   6.532  0.2835 -0.1442  0.1867
  165SAPS   H2R18575   1.905   1.314   6.518  0.9414 -0.1232 -2.1586
  165SAPS   H2S18576   1.862   1.491   6.529  0.4584  0.0937  0.9529
  165SAPS    C318577   2.345   1.341   6.710  0.7939 -0.4780 -0.1343
  165SAPS    HX18578   2.359   1.246   6.654  1.5818 -0.4982  0.0882
  165SAPS    HY18579   2.420   1.357   6.790  0.2040  2.4623 -0.0786
  165SAPS   O3118580   2.348   1.451   6.619  0.1310  0.5006  0.2310
  165SAPS   C3118581   2.462   1.491   6.564  0.1285 -0.1861 -0.4718
  165SAPS   O3218582   2.569   1.437   6.574  0.2782 -0.0141 -0.7543
  165SAPS   C3218583   2.434   1.611   6.476 -0.2479 -0.4583 -0.5489
  165SAPS   H2X18584   2.489   1.694   6.524  0.6035 -0.4233 -1.5339
  165SAPS   H2Y18585   2.324   1.627   6.471 -0.2012  0.7135  1.3426
  165SAPS   C2318586   2.023   1.448   6.402  0.3660  0.4174 -0.2960
  165SAPS   H3R18587   2.103   1.373   6.392 -0.2353 -0.2823  0.0608
  165SAPS   H3S18588   2.057   1.553   6.394  1.3203  0.3720  2.2355
  165SAPS   C2418589   1.938   1.425   6.277  0.5082 -0.7113  0.0028
  165SAPS   H4R18590   1.862   1.504   6.264  0.8169  0.1360  2.7676
  165SAPS   H4S18591   1.879   1.331   6.280  0.7409 -0.9878 -2.2297
  165SAPS   C2518592   2.018   1.402   6.155  0.6551 -0.2986  0.0083
  165SAPS   H5R18593   2.100   1.328   6.154  1.1167  0.2075 -0.0334
  165SAPS   C2618594   2.006   1.469   6.035 -0.1126  0.7188 -0.3334
  165SAPS   H6R18595   2.066   1.435   5.948 -2.0394  0.7880 -1.7488
  165SAPS   C2718596   1.905   1.576   6.003  0.0681 -0.8432 -0.2725
  165SAPS   H7R18597   1.903   1.649   6.087 -0.1111 -0.6160 -0.4734
  165SAPS   H7S18598   1.802   1.534   6.006 -1.8924  3.3703 -1.5499
  165SAPS   C2818599   1.918   1.642   5.862 -0.6699  0.2972  0.2375
  165SAPS   H8R18600   1.906   1.751   5.859  0.3974  0.4143 -1.0385
  165SAPS   C2918601   1.922   1.585   5.737 -0.4108  0.2636 -0.0318
  165SAPS   H9R18602   1.959   1.652   5.659  1.1662 -1.2190 -0.6197
  165SAPS  C21018603   1.935   1.438   5.693  0.0416 -1.1965 -0.1906
  165SAPS  H10R18604   1.958   1.370   5.777 -2.1145 -0.5962  0.9598
  165SAPS  H10S18605   2.015   1.425   5.618 -0.8922 -1.7744 -1.1217
  165SAPS  C21118606   1.805   1.394   5.630 -0.1982  0.6999 -0.0540
  165SAPS  H11R18607   1.732   1.348   5.699  1.9732 -0.5738  1.5372
  165SAPS  C21218608   1.766   1.389   5.498  0.2189  0.0058  0.2108
  165SAPS  H12R18609   1.664   1.354   5.475 -0.5084  1.2176  1.4874
  165SAPS  C21318610   1.846   1.442   5.382 -0.0811 -0.1741 -0.3574
  165SAPS  H13R18611   1.937   1.490   5.424 -0.3967 -1.4772  2.0281
  165SAPS  H13S18612   1.794   1.531   5.340  0.8261  0.4200 -0.2451
  165SAPS  C21418613   1.894   1.339   5.278  0.3087 -0.9720  0.1030
  165SAPS  H14R18614   1.955   1.255   5.315  1.3926 -1.1909 -2.0296
  165SAPS  C21518615   1.867   1.347   5.147 -0.3920  0.3010  0.2283
  165SAPS  H15R18616   1.913   1.269   5.084  1.0547  0.8169  0.5991
  165SAPS  C21618617   1.782   1.457   5.080 -0.0732 -0.6431 -0.2665
  165SAPS  H16R18618   1.843   1.535   5.031 -1.7809 -0.7255 -2.7167
  165SAPS  H16S18619   1.711   1.512   5.146 -1.2649 -4.3280  1.8484
  165SAPS  C21718620   1.696   1.411   4.957  0.4909 -0.7807 -0.0664
  165SAPS  H17R18621   1.614   1.344   4.990 -0.2212 -0.4219 -1.0743
  165SAPS  H17S18622   1.759   1.353   4.886  0.9991  0.8039 -0.9482
  165SAPS  C21818623   1.629   1.523   4.864 -0.4210  0.2571  0.1785
  165SAPS  H18R18624   1.563   1.464   4.798  0.0446  0.1005 -0.1512
  165SAPS  H18S18625   1.709   1.572   4.806 -2.0917  2.0919 -0.6800
  165SAPS  C21918626   1.543   1.615   4.960 -0.4144 -0.5258 -0.1282
  165SAPS  H19R18627   1.591   1.701   5.011 -3.7594  1.3171  0.2527
  165SAPS  H19S18628   1.522   1.549   5.046 -1.5953 -0.3373 -0.2429
  165SAPS  C22018629   1.405   1.658   4.903 -0.3624  0.3545  0.1659
  165SAPS  H20R18630   1.337   1.694   4.983 -1.0632 -0.0592 -0.2280
  165SAPS  H20S18631   1.352   1.573   4.855  1.8273 -0.7086 -0.5283
  165SAPS  H20T18632   1.415   1.738   4.827  0.1955  0.1901  0.0632
  165SAPS   C3318633   2.490   1.604   6.334  0.3646 -0.3110 -0.0512
  165SAPS   H3X18634   2.591   1.558   6.329  1.3388  1.7257 -0.0016
  165SAPS   H3Y18635   2.484   1.700   6.279 -0.5115 -1.1457 -1.4847
  165SAPS   C3418636   2.410   1.503   6.247  0.2008  0.1058 -0.2267
  165SAPS   H4X18637   2.301   1.523   6.246 -0.0673 -1.1132  1.2058
  165SAPS   H4Y18638   2.433   1.404   6.292  2.6355  0.3067 -0.8731
  165SAPS   C3518639   2.461   1.505   6.102 -0.2620  0.8554  0.1694
  165SAPS   H5X18640   2.442   1.413   6.043 -1.8015  2.4027 -1.9173
  165SAPS   H5Y18641   2.570   1.530   6.101 -0.2200  0.6699  0.1602
  165SAPS   C3618642   2.393   1.614   6.018  0.0223  0.0331  0.1598
  165SAPS   H6X18643   2.431   1.716   6.042 -1.5634  0.8794 -0.7271
  165SAPS   H6Y18644   2.284   1.619   6.040 -0.9573 -2.4452 -3.3919
  165SAPS   C3718645   2.407   1.603   5.862  0.6059 -0.4141 -0.0297
  165SAPS   H7X18646   2.341   1.678   5.815  2.7591  0.9677 -0.9754
  165SAPS   H7Y18647   2.376   1.501   5.829  0.9496  0.2160 -2.4192
  165SAPS   C3818648   2.552   1.634   5.815 -0.4590  0.1459 -0.3658
  165SAPS   H8X18649   2.623   1.555   5.847  2.4520  2.0141 -1.7638
  165SAPS   H8Y18650   2.593   1.729   5.857  1.3530 -0.1217 -1.4345
  165SAPS   C3918651   2.561   1.641   5.661 -0.5680 -0.5077 -0.5237
  165SAPS   H9X18652   2.490   1.722   5.634  2.1369  1.4596 -2.1726
  165SAPS   H9Y18653   2.537   1.542   5.615 -1.1597 -0.8977  0.5714
  165SAPS  C31018654   2.692   1.683   5.618 -0.8890 -0.0892  0.6083
  165SAPS  H10X18655   2.773   1.608   5.634  2.8493  2.7238 -2.9587
  165SAPS  H10Y18656   2.720   1.772   5.680 -0.6799  0.2080  0.0885
  165SAPS  C31118657   2.704   1.719   5.469 -0.6562 -0.1383  0.0351
  165SAPS  H11X18658   2.605   1.744   5.426  0.2203 -0.8310 -2.5623
  165SAPS  H11Y18659   2.760   1.642   5.412  1.2996  0.3799  1.1475
  165SAPS  C31218660   2.803   1.839   5.463  0.3320  0.5178  0.5230
  165SAPS  H12X18661   2.901   1.802   5.501  0.6924  0.4739 -0.4119
  165SAPS  H12Y18662   2.769   1.926   5.522  0.3366  0.6453  0.3394
  165SAPS  C31318663   2.820   1.887   5.317 -0.0450  0.0961  0.3177
  165SAPS  H13X18664   2.860   1.991   5.309 -1.0432  0.5681  1.3002
  165SAPS  H13Y18665   2.718   1.888   5.274  0.3603 -2.0134 -0.8448
  165SAPS  C31418666   2.908   1.789   5.234 -0.2090  0.4099  0.0702
  165SAPS  H14X18667   2.879   1.683   5.248  3.6424 -0.5563  2.1117
  165SAPS  H14Y18668   3.009   1.791   5.280  0.2121 -0.0957 -0.8027
  165SAPS  C31518669   2.921   1.820   5.083 -0.3487  0.2060 -0.7911
  165SAPS  H15X18670   2.999   1.763   5.027 -1.7228  1.1392 -3.8513
  165SAPS  H15Y18671   2.948   1.926   5.097 -0.4587 -0.0106  1.3987
  165SAPS  C31618672   2.783   1.816   5.010  0.1021 -0.0262 -0.4868
  165SAPS  H16X18673   2.694   1.858   5.061  0.5087  0.4752 -0.1883
  165SAPS  H16Y18674   2.738   1.714   5.012 -0.0938  0.0324 -1.4873
  165SAPS  C31718675   2.804   1.876   4.872 -0.5332 -0.1931  0.2455
  165SAPS  H17X18676   2.885   1.806   4.840 -1.3230 -1.1615  0.3175
  165SAPS  H17Y18677   2.842   1.980   4.875  0.0987 -0.4252  2.8229
  165SAPS  C31818678   2.686   1.865   4.774 -0.4401  0.0437  0.3550
  165SAPS  H18X18679   2.613   1.947   4.786 -0.3503  0.0276  1.0771
  165SAPS  H18Y18680   2.626   1.773   4.790 -0.9048  0.5472  1.6490
  165SAPS  H18Z18681   2.718   1.861   4.668 -1.0393  1.2070  0.1128
  166SAPS     N18682   6.620   1.298   6.937  0.1158  0.2168 -0.0924
  166SAPS   HN118683   6.665   1.389   6.961 -0.2653  0.0374  1.4169
  166SAPS   HN218684   6.683   1.217   6.947 -0.6014 -0.5384 -1.5051
  166SAPS   HN318685   6.592   1.296   6.837  1.8943  0.4617 -0.6242
  166SAPS   C1218686   6.501   1.282   7.039  0.0098  0.1331 -0.0476
  166SAPS  H12A18687   6.469   1.180   7.026 -1.5946  0.6240 -0.1953
  166SAPS   C1318688   6.556   1.297   7.185  0.0704 -0.7293 -0.0359
  166SAPS  O13A18689   6.680   1.298   7.202 -0.0254 -0.1631 -0.2186
  166SAPS  O13B18690   6.473   1.262   7.276  0.5220 -0.0084 -0.0020
  166SAPS   C1118691   6.386   1.382   7.000 -0.6570  0.0077 -0.1494
  166SAPS  H11A18692   6.417   1.489   6.992 -0.0696 -0.0375  1.1910
  166SAPS  H11B18693   6.312   1.389   7.083 -0.1638  3.4551  0.1852
  166SAPS     P18694   6.170   1.373   6.833 -0.0773  0.3172 -0.2143
  166SAPS   O1318695   6.084   1.337   6.946 -0.0774  0.0818 -0.3339
  166SAPS   O1418696   6.150   1.512   6.791  0.4279 -0.4930  0.5137
  166SAPS   O1218697   6.320   1.353   6.876 -0.3664 -0.2015  0.2472
  166SAPS   O1118698   6.126   1.275   6.712  0.1952  0.0121 -0.3837
  166SAPS    C118699   6.230   1.222   6.628 -0.5755  0.5774 -0.0628
  166SAPS    HA18700   6.255   1.296   6.549  0.9738 -0.7080 -0.8601
  166SAPS    HB18701   6.324   1.210   6.686 -0.8600  3.0056  1.0057
  166SAPS    C218702   6.196   1.078   6.582  0.4564 -0.3029 -0.1273
  166SAPS    HS18703   6.289   1.036   6.538  0.5925 -1.5543  1.2942
  166SAPS   O2118704   6.096   1.071   6.481  0.5795  0.6049 -0.4320
  166SAPS   C2118705   6.092   1.148   6.374  0.0872  0.3761 -0.2638
  166SAPS   O2218706   6.187   1.219   6.333 -0.1176 -0.0762  0.3368
  166SAPS   C2218707   5.959   1.114   6.296  0.0627  0.2226  0.0060
  166SAPS   H2R18708   5.985   1.038   6.220  1.3181  2.4658 -1.9311
  166SAPS   H2S18709   5.886   1.071   6.368  2.5307 -2.1082  1.2838
  166SAPS    C318710   6.142   0.981   6.694 -0.0641  0.0174 -0.1736
  166SAPS    HX18711   6.055   1.032   6.739  0.0227 -0.7299  0.8771
  166SAPS    HY18712   6.218   0.970   6.774  0.1810  2.3391 -0.0408
  166SAPS   O3118713   6.092   0.852   6.648  0.3747 -0.2019  0.1678
  166SAPS   C3118714   6.186   0.766   6.628 -0.3552 -0.1980  0.1158
  166SAPS   O3218715   6.293   0.774   6.686 -1.0006  0.6992 -0.2339
  166SAPS   C3218716   6.133   0.670   6.523 -0.3521 -0.4907 -0.4730
  166SAPS   H2X18717   6.038   0.633   6.568 -0.3098 -0.1544 -0.1007
  166SAPS   H2Y18718   6.182   0.571   6.526  0.8700  0.0836  2.7417
  166SAPS   C2318719   5.895   1.232   6.215 -0.7069 -0.0702 -0.1079
  166SAPS   H3R18720   5.896   1.325   6.275  1.7018  0.0651 -0.2443
  166SAPS   H3S18721   5.789   1.203   6.196 -0.1099 -1.5947 -1.3806
  166SAPS   C2418722   5.965   1.250   6.076 -0.3757 -0.1492  0.0276
  166SAPS   H4R18723   6.074   1.252   6.097 -0.0144 -1.4237 -1.5229
  166SAPS   H4S18724   5.949   1.353   6.040  0.9801  0.6089  1.4609
  166SAPS   C2518725   5.934   1.143   5.975 -0.9195 -0.0907  0.7255
  166SAPS   H5R18726   6.008   1.063   5.960 -3.4342 -2.3719 -0.4111
  166SAPS   C2618727   5.821   1.134   5.901 -0.3733  0.2305  0.0680
  166SAPS   H6R18728   5.814   1.051   5.829 -0.0565  0.7531 -0.5725
  166SAPS   C2718729   5.697   1.217   5.911 -0.1645 -0.9881 -0.1763
  166SAPS   H7R18730   5.701   1.303   5.840 -2.1959  0.2420  1.0559
  166SAPS   H7S18731   5.691   1.267   6.011  2.5783  2.5025 -1.5600
  166SAPS   C2818732   5.568   1.150   5.882 -0.3895  0.4720  0.2779
  166SAPS   H8R18733   5.509   1.133   5.973  1.0182 -0.5093  1.0325
  166SAPS   C2918734   5.526   1.119   5.753 -0.5713  0.1672 -1.0222
  166SAPS   H9R18735   5.431   1.068   5.732 -0.3780  0.5030 -2.9660
  166SAPS  C21018736   5.595   1.147   5.623  0.3256  0.2593  0.3117
  166SAPS  H10R18737   5.626   1.051   5.576  0.7188  0.4868  0.0975
  166SAPS  H10S18738   5.690   1.204   5.637  2.0475 -1.8650 -1.7823
  166SAPS  C21118739   5.499   1.221   5.530 -0.2219 -0.1589 -0.2503
  166SAPS  H11R18740   5.480   1.323   5.568  0.0993 -0.6740  1.3741
  166SAPS  C21218741   5.453   1.188   5.410  0.8982  0.1579 -0.0910
  166SAPS  H12R18742   5.382   1.253   5.356 -1.0821 -2.9712 -1.5463
  166SAPS  C21318743   5.488   1.067   5.329  0.1419  0.0582  0.0855
  166SAPS  H13R18744   5.536   0.985   5.388  1.0587 -0.3374 -1.1668
  166SAPS  H13S18745   5.569   1.100   5.261  0.8542 -0.5118  0.6322
  166SAPS  C21418746   5.368   1.019   5.248 -0.2379  0.2158  0.8079
  166SAPS  H14R18747   5.271   1.030   5.298 -1.3413 -0.6733 -1.0341
  166SAPS  C21518748   5.379   0.966   5.122 -0.2845 -0.2008  0.4704
  166SAPS  H15R18749   5.300   0.904   5.079  0.5188 -0.0273 -1.3383
  166SAPS  C21618750   5.497   0.962   5.026  0.9901  0.5462 -0.4175
  166SAPS  H16R18751   5.499   0.859   4.985 -2.2968  1.1026 -2.2822
  166SAPS  H16S18752   5.596   0.969   5.077  0.8817 -1.0012  0.0410
  166SAPS  C21718753   5.474   1.073   4.920 -0.0380  0.0886 -0.5879
  166SAPS  H17R18754   5.566   1.071   4.857 -0.8261 -2.6841 -1.7961
  166SAPS  H17S18755   5.470   1.171   4.971 -0.4255  1.3198 -2.8392
  166SAPS  C21818756   5.349   1.058   4.837  0.3587 -0.9257  0.0236
  166SAPS  H18R18757   5.255   1.059   4.896  0.5968  0.4480  0.4221
  166SAPS  H18S18758   5.352   0.954   4.799  0.1448 -1.2192  0.7894
  166SAPS  C21918759   5.341   1.169   4.738  0.3492 -0.8282 -0.3042
  166SAPS  H19R18760   5.255   1.148   4.671 -0.4303 -0.8045  0.6683
  166SAPS  H19S18761   5.427   1.177   4.668  0.0454  1.3923 -0.4934
  166SAPS  C22018762   5.318   1.305   4.811  0.1961 -0.3127 -0.2263
  166SAPS  H20R18763   5.260   1.300   4.906  1.7271 -0.5125  0.7260
  166SAPS  H20S18764   5.266   1.376   4.743 -1.1536 -2.2118 -1.2967
  166SAPS  H20T18765   5.417   1.350   4.831 -0.3472  0.6911  0.3278
  166SAPS   C3318766   6.122   0.737   6.382  0.0507 -0.1139 -0.8031
  166SAPS   H3X18767   6.093   0.842   6.398 -3.0627 -0.9333 -0.4315
  166SAPS   H3Y18768   6.059   0.679   6.310  2.0171 -1.0429 -1.8576
  166SAPS   C3418769   6.261   0.735   6.326 -0.7795  0.3422 -0.0358
  166SAPS   H4X18770   6.315   0.639   6.341  1.8840  1.6864 -0.4354
  166SAPS   H4Y18771   6.323   0.812   6.376  0.5002  1.6594 -3.3393
  166SAPS   C3518772   6.286   0.761   6.176 -0.6136 -0.7840  0.4658
  166SAPS   H5X18773   6.236   0.680   6.119 -0.2783 -2.8483  2.9405
  166SAPS   H5Y18774   6.393   0.732   6.164 -0.4098 -0.0965  0.6012
  166SAPS   C3618775   6.257   0.905   6.130  0.4544 -0.2045  0.4010
  166SAPS   H6X18776   6.273   0.979   6.212 -1.1924  0.0087  0.5468
  166SAPS   H6Y18777   6.147   0.906   6.118  0.5929 -1.6879 -1.6184
  166SAPS   C3718778   6.329   0.945   6.001 -0.5450  0.3630  0.1167
  166SAPS   H7X18779   6.302   0.877   5.918  1.2579  2.2038 -2.1278
  166SAPS   H7Y18780   6.440   0.934   6.005 -0.4217  0.7169 -1.4734
  166SAPS   C3818781   6.312   1.090   5.965 -0.3419 -0.4301  0.1509
  166SAPS   H8X18782   6.355   1.156   6.043  2.0632 -0.2490 -1.2281
  166SAPS   H8Y18783   6.204   1.117   5.959 -0.5806 -1.2539  0.5195
  166SAPS   C3918784   6.374   1.125   5.829  0.3299  0.4752  0.1195
  166SAPS   H9X18785   6.463   1.061   5.842 -1.6214 -2.3474  0.4507
  166SAPS   H9Y18786   6.411   1.230   5.827 -0.7094  0.8789  1.0909
  166SAPS  C31018787   6.302   1.087   5.700  0.0750  0.4488  0.7663
  166SAPS  H10X18788   6.277   0.978   5.699  0.1117  0.4349 -0.7811
  166SAPS  H10Y18789   6.378   1.110   5.622  0.8742  0.5613  1.5696
  166SAPS  C31118790   6.185   1.174   5.657  0.3692 -0.6707  0.2133
  166SAPS  H11X18791   6.205   1.283   5.663  0.8280 -0.5653 -2.2936
  166SAPS  H11Y18792   6.106   1.155   5.733 -0.5656 -0.5732 -0.7028
  166SAPS  C31218793   6.133   1.131   5.515 -0.0051  0.7221 -0.4396
  166SAPS  H12X18794   6.094   1.027   5.514  0.6903  0.4250  0.7342
  166SAPS  H12Y18795   6.218   1.143   5.444  0.1089  0.2496 -0.3830
  166SAPS  C31318796   6.016   1.217   5.460  0.3410  0.4641 -0.1428
  166SAPS  H13X18797   6.034   1.327   5.452  1.1982  0.3160 -0.3516
  166SAPS  H13Y18798   5.923   1.197   5.518  0.9852 -1.6048  0.2368
  166SAPS  C31418799   5.984   1.160   5.315  0.2784  0.0153  0.5142
  166SAPS  H14X18800   5.971   1.050   5.318 -1.0556  0.0911 -0.9753
  166SAPS  H14Y18801   6.072   1.171   5.248  0.2101 -0.9220  0.2569
  166SAPS  C31518802   5.853   1.220   5.249  0.4067  0.5483  0.5775
  166SAPS  H15X18803   5.852   1.331   5.261  1.0968  0.4482  1.7545
  166SAPS  H15Y18804   5.777   1.182   5.321  0.1146  1.3148  0.6831
  166SAPS  C31618805   5.819   1.164   5.111 -1.2060 -0.6584  0.4153
  166SAPS  H16X18806   5.713   1.183   5.087 -0.8619 -0.0386 -0.6581
  166SAPS  H16Y18807   5.821   1.053   5.113  0.5629 -0.6452  2.0788
  166SAPS  C31718808   5.919   1.222   5.005  0.3622  0.0440 -0.5189
  166SAPS  H17X18809   6.025   1.187   5.009  1.4493  3.1207  0.1547
  166SAPS  H17Y18810   5.925   1.329   5.031 -0.1870 -0.5190  2.2012
  166SAPS  C31818811   5.856   1.197   4.870  0.9063 -0.1368  0.4304
  166SAPS  H18X18812   5.923   1.227   4.787 -0.5446 -0.2671 -0.8257
  166SAPS  H18Y18813   5.767   1.263   4.877  1.8927  1.3234 -0.3870
  166SAPS  H18Z18814   5.832   1.090   4.852  1.7519 -0.4550  1.0898
  167SAPS     N18815   3.037   3.081   6.808 -0.6398 -0.5483 -0.0144
  167SAPS   HN118816   2.946   3.130   6.818  0.8183  1.7798  3.4952
  167SAPS   HN218817   3.115   3.124   6.860 -0.6644  2.3964 -2.1176
  167SAPS   HN318818   3.060   3.079   6.706  1.6437 -0.5672  0.4526
  167SAPS   C1218819   3.026   2.941   6.852  0.0397  0.0968  0.1001
  167SAPS  H12A18820   3.077   2.891   6.771  1.0423 -0.5343  1.0996
  167SAPS   C1318821   3.094   2.900   6.984  0.3002 -0.6234 -0.4360
  167SAPS  O13A18822   3.149   2.993   7.050  0.4240 -0.2084  0.0225
  167SAPS  O13B18823   3.096   2.781   7.021  0.4964  0.5910  0.0921
  167SAPS   C1118824   2.880   2.892   6.858 -0.2329 -0.5117  0.0311
  167SAPS  H11A18825   2.821   2.928   6.944 -0.2239  0.5556 -0.3941
  167SAPS  H11B18826   2.878   2.783   6.877 -1.7235 -0.3643  0.7969
  167SAPS     P18827   2.778   2.796   6.634  0.1640  0.3393  0.2661
  167SAPS   O1318828   2.656   2.718   6.676  0.0389 -0.8992 -0.4242
  167SAPS   O1418829   2.763   2.856   6.501 -0.5627 -0.0254  0.9001
  167SAPS   O1218830   2.808   2.917   6.735  0.3741  0.0943 -0.4298
  167SAPS   O1118831   2.903   2.701   6.632 -0.2547 -0.0460  0.2426
  167SAPS    C118832   2.897   2.582   6.559 -0.1494 -0.1791 -0.1036
  167SAPS    HA18833   2.796   2.536   6.559 -0.2126 -0.1002  1.5946
  167SAPS    HB18834   2.931   2.593   6.454  0.2578  2.3540  0.2120
  167SAPS    C218835   3.000   2.476   6.620  0.5844  0.6862  0.6731
  167SAPS    HS18836   2.979   2.463   6.729  2.0304 -3.6625  0.6235
  167SAPS   O2118837   3.133   2.520   6.603 -0.3386 -0.3326 -0.3109
  167SAPS   C2118838   3.219   2.493   6.706 -0.3656  0.0366  0.5449
  167SAPS   O2218839   3.189   2.419   6.801 -0.8961  0.1536  0.1672
  167SAPS   C2218840   3.358   2.552   6.692  0.5462 -0.5756  0.0211
  167SAPS   H2R18841   3.388   2.541   6.585  2.6347  1.1030  0.3640
  167SAPS   H2S18842   3.349   2.661   6.712  1.1249 -0.6514  0.7318
  167SAPS    C318843   2.974   2.338   6.545 -0.1304 -0.3093  0.3122
  167SAPS    HX18844   2.873   2.296   6.568 -0.1556  0.1490  1.0772
  167SAPS    HY18845   3.043   2.267   6.595  0.7749  0.4870  0.2123
  167SAPS   O3118846   2.982   2.355   6.403  0.5219  0.0562  0.4680
  167SAPS   C3118847   3.004   2.241   6.328  0.4333 -0.5618 -0.3091
  167SAPS   O3218848   3.021   2.131   6.373 -0.2863  0.5395 -0.8780
  167SAPS   C3218849   3.025   2.289   6.183 -0.1814 -0.3620  0.5513
  167SAPS   H2X18850   3.086   2.382   6.180 -0.0520 -0.4617  0.0676
  167SAPS   H2Y18851   2.922   2.320   6.153  0.3281  0.0703 -0.8305
  167SAPS   C2318852   3.469   2.484   6.777 -0.3264  0.0282 -0.1531
  167SAPS   H3R18853   3.453   2.376   6.796  0.0809  0.1871  1.1410
  167SAPS   H3S18854   3.463   2.530   6.877  1.7121  1.6696 -0.7237
  167SAPS   C2418855   3.614   2.505   6.724 -0.5690 -0.5940  0.0298
  167SAPS   H4R18856   3.618   2.613   6.695 -0.1042 -0.9843 -1.4411
  167SAPS   H4S18857   3.619   2.452   6.627  1.1015  0.0989 -0.2894
  167SAPS   C2518858   3.702   2.467   6.839 -0.7000  0.7802  0.5435
  167SAPS   H5R18859   3.679   2.519   6.933  2.2508  0.3117  1.6428
  167SAPS   C2618860   3.804   2.383   6.832  0.5264  0.7512 -0.7121
  167SAPS   H6R18861   3.867   2.347   6.915  2.1015  0.9579 -1.7738
  167SAPS   C2718862   3.834   2.301   6.713  0.0645 -0.3187  0.2754
  167SAPS   H7R18863   3.940   2.310   6.683  0.3494 -1.8303  0.7392
  167SAPS   H7S18864   3.781   2.339   6.623  0.3389  0.2108  0.3363
  167SAPS   C2818865   3.805   2.155   6.719 -0.1021 -0.4189 -0.2216
  167SAPS   H8R18866   3.770   2.125   6.819  0.1980  2.1024  0.7179
  167SAPS   C2918867   3.794   2.075   6.616 -0.4547 -0.0900  0.6150
  167SAPS   H9R18868   3.756   1.973   6.633 -0.2444 -0.1123  0.9567
  167SAPS  C21018869   3.818   2.111   6.466 -0.0720  0.3076 -0.0763
  167SAPS  H10R18870   3.887   2.198   6.455 -2.6594  2.3788 -0.8361
  167SAPS  H10S18871   3.727   2.164   6.432  0.1189  0.3071 -0.5927
  167SAPS  C21118872   3.855   2.001   6.375  0.0719  0.0617 -0.3213
  167SAPS  H11R18873   3.883   1.909   6.428 -1.8085 -0.9656 -1.0066
  167SAPS  C21218874   3.884   2.011   6.243 -0.3051  0.0614 -0.3658
  167SAPS  H12R18875   3.904   1.919   6.185  0.5912 -0.5058  0.7813
  167SAPS  C21318876   3.863   2.131   6.153 -0.3464  0.0031 -0.2774
  167SAPS  H13R18877   3.828   2.222   6.206 -0.2327 -1.0496  1.7087
  167SAPS  H13S18878   3.793   2.097   6.073  0.5934  1.4349 -1.7683
  167SAPS  C21418879   3.995   2.166   6.080  0.7364  0.3014  0.2866
  167SAPS  H14R18880   4.074   2.187   6.153 -0.7523  1.2889  1.6869
  167SAPS  C21518881   4.010   2.162   5.946  0.0364 -0.2787 -0.2080
  167SAPS  H15R18882   4.104   2.202   5.906  0.0421  1.1281  1.1321
  167SAPS  C21618883   3.901   2.141   5.844 -0.5597  0.0216 -0.1066
  167SAPS  H16R18884   3.823   2.219   5.846 -0.5501  0.0163  1.0637
  167SAPS  H16S18885   3.851   2.044   5.866 -1.7447  0.3210 -1.3611
  167SAPS  C21718886   3.951   2.126   5.695  0.3835 -0.1160  0.1563
  167SAPS  H17R18887   3.858   2.114   5.635  0.4772  1.5026 -0.3803
  167SAPS  H17S18888   4.014   2.036   5.683  2.0404  1.1902 -1.7880
  167SAPS  C21818889   4.023   2.253   5.648  0.0477  0.6057  0.6640
  167SAPS  H18R18890   4.080   2.307   5.726  0.5464  0.6184  0.2968
  167SAPS  H18S18891   3.948   2.329   5.616  2.3018  2.2684 -1.0551
  167SAPS  C21918892   4.111   2.220   5.524 -0.0687 -0.2313  0.1513
  167SAPS  H19R18893   4.068   2.137   5.463 -1.1398 -0.3498  1.0319
  167SAPS  H19S18894   4.212   2.184   5.554 -0.1685 -1.2493 -0.6520
  167SAPS  C22018895   4.139   2.346   5.439  0.1462  0.7305  0.2495
  167SAPS  H20R18896   4.186   2.424   5.503  2.2097  0.5407 -0.9526
  167SAPS  H20S18897   4.051   2.389   5.387  0.0993 -0.9654 -1.1694
  167SAPS  H20T18898   4.208   2.325   5.355  0.2497  1.5854  0.1185
  167SAPS   C3318899   3.080   2.187   6.074  0.4409 -0.1092 -0.3301
  167SAPS   H3X18900   3.009   2.102   6.064 -0.0890  0.2740  0.0989
  167SAPS   H3Y18901   3.182   2.153   6.101  0.5849  0.7095  0.1660
  167SAPS   C3418902   3.094   2.246   5.937  0.1355  0.0507  0.2995
  167SAPS   H4X18903   3.161   2.335   5.935 -0.2869  0.4117  1.5078
  167SAPS   H4Y18904   2.997   2.290   5.904  0.1280  1.3189  1.8691
  167SAPS   C3518905   3.135   2.131   5.848  1.0515  0.3258 -0.2645
  167SAPS   H5X18906   3.059   2.051   5.863  0.5692  0.9124  0.5538
  167SAPS   H5Y18907   3.232   2.086   5.879 -0.3341 -1.6903  1.5093
  167SAPS   C3618908   3.137   2.178   5.697 -0.3545  0.5312 -0.1484
  167SAPS   H6X18909   3.212   2.260   5.689  1.3152 -0.8158  1.1231
  167SAPS   H6Y18910   3.038   2.219   5.666 -0.2860  0.1018 -0.9612
  167SAPS   C3718911   3.176   2.051   5.616  0.4418 -0.4467 -0.2302
  167SAPS   H7X18912   3.115   1.963   5.644 -0.4479  0.3164  0.3017
  167SAPS   H7Y18913   3.281   2.036   5.648  0.1302  1.6054  2.0684
  167SAPS   C3818914   3.177   2.070   5.462  0.0376 -0.5049  0.2745
  167SAPS   H8X18915   3.224   2.166   5.433 -2.0783  0.1079 -1.4728
  167SAPS   H8Y18916   3.069   2.079   5.436  0.2009 -2.3490 -1.2804
  167SAPS   C3918917   3.245   1.953   5.383  0.2564  0.0886 -0.7748
  167SAPS   H9X18918   3.203   1.855   5.414  1.0011 -0.5398 -1.6974
  167SAPS   H9Y18919   3.351   1.950   5.417  0.2410 -2.6968 -0.7296
  167SAPS  C31018920   3.257   1.972   5.227 -0.1351 -0.2177  0.1762
  167SAPS  H10X18921   3.293   2.076   5.212  1.7513 -0.8197  0.1801
  167SAPS  H10Y18922   3.163   1.966   5.169  0.1840 -2.0102 -0.2318
  167SAPS  C31118923   3.360   1.871   5.166  0.2838  0.0486 -0.6866
  167SAPS  H11X18924   3.420   1.831   5.251 -1.3407  0.9885  0.9801
  167SAPS  H11Y18925   3.424   1.927   5.094  0.3792  0.4676 -0.2860
  167SAPS  C31218926   3.291   1.761   5.087 -0.3557 -0.2307  0.2172
  167SAPS  H12X18927   3.223   1.811   5.014  1.3174  0.6572 -0.8009
  167SAPS  H12Y18928   3.225   1.696   5.148  1.5711 -0.8333  1.7209
  167SAPS  C31318929   3.399   1.690   5.000  0.0938 -0.1923 -0.0342
  167SAPS  H13X18930   3.462   1.624   5.063  1.8522  1.6934  0.2871
  167SAPS  H13Y18931   3.453   1.771   4.947  0.7431 -0.7668 -0.2647
  167SAPS  C31418932   3.328   1.595   4.893 -0.3314  0.2434  0.1864
  167SAPS  H14X18933   3.230   1.635   4.860 -1.5832  0.8992  4.1253
  167SAPS  H14Y18934   3.313   1.497   4.945 -1.0879 -0.9255 -2.0916
  167SAPS  C31518935   3.426   1.574   4.780 -0.6214 -0.5764  0.3042
  167SAPS  H15X18936   3.520   1.532   4.822 -0.4752  0.4995  1.1024
  167SAPS  H15Y18937   3.449   1.675   4.739 -1.9575  0.4484  1.9808
  167SAPS  C31618938   3.361   1.490   4.670 -0.3903 -0.4997 -0.5428
  167SAPS  H16X18939   3.259   1.535   4.662  0.4598  1.4111 -1.0107
  167SAPS  H16Y18940   3.349   1.381   4.691 -1.1598  0.0550  2.2164
  167SAPS  C31718941   3.419   1.497   4.533 -0.0344  0.1426  0.5314
  167SAPS  H17X18942   3.371   1.412   4.480  0.7723 -1.1572  1.8120
  167SAPS  H17Y18943   3.528   1.482   4.546  0.0797  1.0628  0.7272
  167SAPS  C31818944   3.391   1.636   4.473 -0.1039 -0.0198  0.1682
  167SAPS  H18X18945   3.420   1.653   4.367 -0.0214  1.5138  0.4186
  167SAPS  H18Y18946   3.423   1.718   4.541  2.5764 -1.9372  1.4302
  167SAPS  H18Z18947   3.284   1.663   4.469 -0.4237 -1.3079 -2.7445
  168SAPS     N18948   0.883   2.885   6.928  0.3362  0.8415  0.0053
  168SAPS   HN118949   0.950   2.856   7.003 -0.4075 -3.2944 -0.7381
  168SAPS   HN218950   0.815   2.809   6.912  0.5430  0.4229  0.9945
  168SAPS   HN318951   0.938   2.915   6.845  1.2569 -2.4300 -0.6869
  168SAPS   C1218952   0.812   3.014   6.981 -0.6622 -0.6780 -0.1486
  168SAPS  H12A18953   0.757   2.992   7.072  2.1517  2.2202  2.5404
  168SAPS   C1318954   0.910   3.135   7.011 -0.1033  0.6545  0.0070
  168SAPS  O13A18955   1.026   3.132   6.963 -0.0478 -0.0516 -0.2774
  168SAPS  O13B18956   0.866   3.247   7.041 -0.0079 -0.4969  0.2037
  168SAPS   C1118957   0.703   3.064   6.885 -0.5467  0.2760  0.3181
  168SAPS  H11A18958   0.754   3.094   6.791 -0.7279 -0.1542  0.0836
  168SAPS  H11B18959   0.643   3.147   6.928 -0.5131 -0.0062  0.9282
  168SAPS     P18960   0.491   2.983   6.778  0.3933 -0.0636 -0.3573
  168SAPS   O1318961   0.426   2.851   6.758  0.1670  0.0669 -0.6710
  168SAPS   O1418962   0.418   3.093   6.842 -0.3351 -0.4373 -0.2956
  168SAPS   O1218963   0.620   2.956   6.855  0.5695 -0.0231  0.0135
  168SAPS   O1118964   0.541   3.040   6.641 -0.1966  0.5061 -0.0512
  168SAPS    C118965   0.585   2.943   6.537 -0.4231  0.1866  0.1890
  168SAPS    HA18966   0.546   2.839   6.540 -0.0111 -0.2219 -3.3292
  168SAPS    HB18967   0.553   2.978   6.436 -0.1059  0.5018  0.1965
  168SAPS    C218968   0.738   2.954   6.530 -1.0377 -0.1531 -0.4656
  168SAPS    HS18969   0.779   2.960   6.633 -4.8523  1.0676  1.1507
  168SAPS   O2118970   0.752   3.087   6.473 -0.7953  0.0113 -0.4804
  168SAPS   C2118971   0.868   3.152   6.500 -0.6170 -0.7451 -0.2958
  168SAPS   O2218972   0.958   3.111   6.577 -0.6122  0.0085 -0.7141
  168SAPS   C2218973   0.880   3.279   6.421  0.3465  0.7126  0.4049
  168SAPS   H2R18974   0.827   3.273   6.324  0.9509  1.6556 -0.0038
  168SAPS   H2S18975   0.839   3.358   6.488  0.1046  1.6267 -0.7840
  168SAPS    C318976   0.818   2.859   6.447 -0.1092 -0.3097  0.4263
  168SAPS    HX18977   0.830   2.768   6.508 -1.9903 -1.6125 -1.0243
  168SAPS    HY18978   0.917   2.901   6.419 -0.3876 -0.5404 -1.0024
  168SAPS   O3118979   0.746   2.820   6.330  0.0517  0.3982 -0.3792
  168SAPS   C3118980   0.737   2.895   6.219  0.1312  0.0424  0.2224
  168SAPS   O3218981   0.782   3.008   6.202 -0.1258  0.0432 -0.6196
  168SAPS   C3218982   0.683   2.802   6.111 -0.1459 -0.0010  0.6247
  168SAPS   H2X18983   0.597   2.752   6.159 -0.1233  0.6681  1.3802
  168SAPS   H2Y18984   0.759   2.725   6.084  0.3494  0.7962 -0.3194
  168SAPS   C2318985   1.021   3.320   6.385 -0.7323 -0.0018  0.1231
  168SAPS   H3R18986   1.082   3.316   6.477  1.3768  0.0339 -1.2139
  168SAPS   H3S18987   1.022   3.417   6.331 -0.2487 -0.3332 -0.4676
  168SAPS   C2418988   1.072   3.218   6.277  0.2009  0.5862 -0.5024
  168SAPS   H4R18989   0.994   3.213   6.197 -1.2617 -0.5851  0.9261
  168SAPS   H4S18990   1.073   3.118   6.324 -2.6047  0.4795 -0.4917
  168SAPS   C2518991   1.211   3.260   6.227 -0.1104 -0.2195  0.0052
  168SAPS   H5R18992   1.290   3.293   6.296  1.5814 -1.1782 -1.4065
  168SAPS   C2618993   1.259   3.232   6.103 -0.0480 -0.6977  0.7482
  168SAPS   H6R18994   1.359   3.270   6.078 -0.6267  1.0552  0.9542
  168SAPS   C2718995   1.187   3.178   5.986  0.3049  0.4538  0.6755
  168SAPS   H7R18996   1.106   3.108   6.017  0.2593 -0.7231 -1.8222
  168SAPS   H7S18997   1.248   3.108   5.925 -3.2882 -1.8268 -0.6669
  168SAPS   C2818998   1.125   3.297   5.904 -0.1562  0.2751  0.1200
  168SAPS   H8R18999   1.065   3.367   5.964  0.2405  1.6422 -1.0108
  168SAPS   C2919000   1.126   3.326   5.770  0.2337  1.0677  0.2065
  168SAPS   H9R19001   1.055   3.400   5.729 -0.5451  0.1480 -0.1248
  168SAPS  C21019002   1.199   3.244   5.670  0.6763 -0.1372 -0.2379
  168SAPS  H10R19003   1.123   3.187   5.613 -1.3245 -0.2649  2.3745
  168SAPS  H10S19004   1.276   3.182   5.722  2.1520  1.4115 -0.4896
  168SAPS  C21119005   1.288   3.336   5.580  0.2541 -0.3604  0.0464
  168SAPS  H11R19006   1.372   3.386   5.630 -0.7732  0.7916  0.6772
  168SAPS  C21219007   1.283   3.340   5.447 -0.0714 -0.0632 -0.4257
  168SAPS  H12R19008   1.358   3.398   5.392  0.6160  0.0546  0.6244
  168SAPS  C21319009   1.177   3.280   5.360 -0.1772  0.6565  0.2183
  168SAPS  H13R19010   1.074   3.270   5.400 -0.5177 -0.5287 -0.9011
  168SAPS  H13S19011   1.211   3.175   5.345 -0.7285  0.1798  2.0587
  168SAPS  C21419012   1.162   3.358   5.228 -0.1288  0.5203  0.1505
  168SAPS  H14R19013   1.160   3.466   5.251  0.2502  0.9057 -1.4996
  168SAPS  C21519014   1.160   3.319   5.103  0.6115  0.2527  0.3456
  168SAPS  H15R19015   1.154   3.396   5.024  1.3818  0.5059  0.5307
  168SAPS  C21619016   1.166   3.177   5.048 -0.5099  0.3690  0.0240
  168SAPS  H16R19017   1.061   3.154   5.021 -0.5479  0.3004  0.2296
  168SAPS  H16S19018   1.202   3.105   5.124 -1.8637 -2.4430 -1.8264
  168SAPS  C21719019   1.242   3.166   4.913 -0.0464 -0.6413 -0.5708
  168SAPS  H17R19020   1.351   3.179   4.931 -0.2225 -0.7799  0.6591
  168SAPS  H17S19021   1.228   3.249   4.840  0.3281  0.8560  0.9885
  168SAPS  C21819022   1.216   3.036   4.835  0.2841 -0.0019 -0.2982
  168SAPS  H18R19023   1.234   3.035   4.725 -0.3034 -1.6785 -0.4101
  168SAPS  H18S19024   1.107   3.012   4.833  0.1546  0.6030 -0.8802
  168SAPS  C21919025   1.296   2.919   4.897  0.0966 -0.1425  0.5687
  168SAPS  H19R19026   1.256   2.904   5.000  0.0772 -2.6062  0.2757
  168SAPS  H19S19027   1.401   2.956   4.898 -0.6041  1.9582 -0.1291
  168SAPS  C22019028   1.285   2.792   4.814 -0.6311 -0.0916 -0.6337
  168SAPS  H20R19029   1.307   2.808   4.706  0.6484 -0.3761 -0.4395
  168SAPS  H20S19030   1.184   2.747   4.819  0.5970 -3.1700 -1.0691
  168SAPS  H20T19031   1.349   2.716   4.865 -1.8691  0.1470  1.3792
  168SAPS   C3319032   0.643   2.878   5.985  0.2372 -0.7623 -0.1374
  168SAPS   H3X19033   0.729   2.921   5.928  0.9728 -0.7471  0.9585
  168SAPS   H3Y19034   0.582   2.965   6.019 -0.2156 -2.4137  3.7542
  168SAPS   C3419035   0.565   2.787   5.889 -0.5236  0.1986  0.4843
  168SAPS   H4X19036   0.479   2.749   5.948 -3.0974 -0.6990 -3.4703
  168SAPS   H4Y19037   0.623   2.696   5.866 -0.8255  0.1686 -0.1819
  168SAPS   C3519038   0.517   2.859   5.761 -0.2260 -0.4495  0.4657
  168SAPS   H5X19039   0.605   2.881   5.698  0.2020 -1.2507  0.7706
  168SAPS   H5Y19040   0.465   2.955   5.780  1.0891  0.5819 -0.9415
  168SAPS   C3619041   0.431   2.764   5.675  0.0827  0.3897  0.2132
  168SAPS   H6X19042   0.350   2.719   5.737 -0.2602  1.4153  0.5261
  168SAPS   H6Y19043   0.493   2.683   5.631  0.7883  0.4015  1.1757
  168SAPS   C3719044   0.341   2.832   5.572  0.2873 -0.2674  0.4441
  168SAPS   H7X19045   0.287   2.921   5.611 -1.5262 -1.2335  0.2577
  168SAPS   H7Y19046   0.266   2.758   5.537  1.3029 -0.9801 -0.2920
  168SAPS   C3819047   0.423   2.882   5.446  0.4584 -0.8376 -0.1879
  168SAPS   H8X19048   0.462   2.790   5.398  0.4598  0.2639 -2.3898
  168SAPS   H8Y19049   0.511   2.944   5.474  0.3260 -0.6871 -0.1004
  168SAPS   C3919050   0.331   2.963   5.356  0.0804 -0.6522  0.6271
  168SAPS   H9X19051   0.315   3.062   5.403 -1.9461 -0.0413 -1.2167
  168SAPS   H9Y19052   0.230   2.917   5.365 -2.1032  2.7061 -3.4139
  168SAPS  C31019053   0.373   2.976   5.211  0.8786 -0.0248 -0.4027
  168SAPS  H10X19054   0.408   2.880   5.166  1.7774 -0.3391  0.8987
  168SAPS  H10Y19055   0.463   3.039   5.201 -0.3621  2.0158  0.6978
  168SAPS  C31119056   0.267   3.047   5.119  1.0270 -0.5058 -0.3879
  168SAPS  H11X19057   0.210   3.126   5.173 -0.4677 -0.7571 -1.5543
  168SAPS  H11Y19058   0.196   2.965   5.092  0.4457 -0.1833  0.1186
  168SAPS  C31219059   0.318   3.094   4.983 -0.0748  0.2342 -0.3337
  168SAPS  H12X19060   0.392   3.176   4.989  0.3166 -0.1586  4.8245
  168SAPS  H12Y19061   0.227   3.148   4.948 -1.6795  0.7867  3.9519
  168SAPS  C31319062   0.374   2.972   4.901 -0.0229  0.6683 -0.3538
  168SAPS  H13X19063   0.305   2.886   4.909  2.3827 -1.2423  1.5963
  168SAPS  H13Y19064   0.461   2.935   4.959  0.1879  1.5130 -0.1186
  168SAPS  C31419065   0.408   3.016   4.755 -0.0410 -0.4196  0.3388
  168SAPS  H14X19066   0.480   3.101   4.752 -0.4194 -0.1160 -0.7401
  168SAPS  H14Y19067   0.318   3.052   4.700 -0.9415 -1.6297  0.9582
  168SAPS  C31519068   0.475   2.901   4.673 -0.0830  0.3744  0.2895
  168SAPS  H15X19069   0.405   2.819   4.701 -2.1490  2.5134  1.7974
  168SAPS  H15Y19070   0.572   2.868   4.716  0.6388  2.3066  0.2588
  168SAPS  C31619071   0.468   2.922   4.527  0.4959 -0.1941 -0.0742
  168SAPS  H16X19072   0.372   2.969   4.497 -0.0670 -1.4948 -0.3688
  168SAPS  H16Y19073   0.468   2.827   4.470 -1.0261 -0.2625 -0.0141
  168SAPS  C31719074   0.577   3.013   4.474 -0.4836 -1.1152  0.1758
  168SAPS  H17X19075   0.574   3.115   4.520  2.4082 -1.0306  0.3728
  168SAPS  H17Y19076   0.568   3.017   4.364 -4.3700  1.1937  0.3836
  168SAPS  C31819077   0.718   2.952   4.501  1.6544 -0.4779  0.4717
  168SAPS  H18X19078   0.796   3.001   4.439  1.2515 -1.1370 -0.5800
  168SAPS  H18Y19079   0.723   2.843   4.482  1.6472 -0.1657 -1.5543
  168SAPS  H18Z19080   0.745   2.976   4.606  0.0561  2.8368  0.2683
  169SAPS     N19081   2.667   4.785   7.121 -0.0448  0.0211 -0.1439
  169SAPS   HN119082   2.565   4.788   7.103  0.1696  4.2501 -1.6766
  169SAPS   HN219083   2.707   4.731   7.200  0.9846  0.3410 -0.4224
  169SAPS   HN319084   2.695   4.881   7.148  0.6668 -0.2413  0.0875
  169SAPS   C1219085   2.749   4.739   7.000  0.1006  0.1527 -0.2694
  169SAPS  H12A19086   2.838   4.798   6.990  1.9182 -2.3421  0.1052
  169SAPS   C1319087   2.784   4.588   6.993 -0.4196  0.0324 -0.1238
  169SAPS  O13A19088   2.742   4.504   7.076  0.1518 -0.2324 -0.6181
  169SAPS  O13B19089   2.871   4.555   6.913 -0.1771  0.3358  0.1588
  169SAPS   C1119090   2.664   4.776   6.871  0.4842  0.5076 -0.0867
  169SAPS  H11A19091   2.578   4.707   6.856 -0.8221  1.8626  1.0104
  169SAPS  H11B19092   2.722   4.772   6.776  0.0335 -0.7696 -0.3370
  169SAPS     P19093   2.602   5.024   6.797  0.0275  0.1232  0.0351
  169SAPS   O1319094   2.483   5.095   6.858 -0.4115 -0.2896  0.3394
  169SAPS   O1419095   2.729   5.094   6.783  0.2397  0.4411  0.7156
  169SAPS   O1219096   2.625   4.917   6.893  0.2284  0.5233 -0.5372
  169SAPS   O1119097   2.559   4.952   6.662 -0.9119 -0.5176 -0.0390
  169SAPS    C119098   2.616   4.998   6.540  0.4811 -0.2849  0.9935
  169SAPS    HA19099   2.586   5.103   6.521  2.0894  0.3143  1.6040
  169SAPS    HB19100   2.727   5.006   6.547  0.6010 -2.1559  1.6919
  169SAPS    C219101   2.586   4.911   6.423 -0.6181  0.1060  0.2063
  169SAPS    HS19102   2.647   4.960   6.344  3.0364 -1.5772  1.8084
  169SAPS   O2119103   2.444   4.915   6.406 -0.3229 -0.0531  0.2677
  169SAPS   C2119104   2.392   5.024   6.358  0.5609  0.4422  0.3520
  169SAPS   O2219105   2.459   5.112   6.308 -0.6566 -0.6591  0.4540
  169SAPS   C2219106   2.237   5.011   6.382  0.0197 -0.4916  0.5675
  169SAPS   H2R19107   2.212   4.933   6.457 -0.6256 -0.0256  0.8477
  169SAPS   H2S19108   2.203   5.112   6.414 -0.9671 -0.5550 -0.2528
  169SAPS    C319109   2.630   4.760   6.437 -0.2696 -0.2587 -0.3808
  169SAPS    HX19110   2.554   4.728   6.512 -0.4194 -0.0547 -0.4431
  169SAPS    HY19111   2.731   4.753   6.483 -1.7380 -0.9937  3.0241
  169SAPS   O3119112   2.638   4.697   6.309 -0.4014 -0.0489  0.3033
  169SAPS   C3119113   2.525   4.650   6.264  0.8872  0.2881 -0.3384
  169SAPS   O3219114   2.423   4.632   6.329  0.0588  0.1033 -0.2872
  169SAPS   C3219115   2.534   4.587   6.128 -0.0061 -0.0828 -0.8498
  169SAPS   H2X19116   2.430   4.565   6.094 -0.9414  1.8056  0.5656
  169SAPS   H2Y19117   2.592   4.493   6.122 -0.9308 -0.6655 -0.9773
  169SAPS   C2319118   2.168   4.974   6.250  0.1176 -0.3666  0.3686
  169SAPS   H3R19119   2.167   5.066   6.188  0.0691 -0.4566  0.2338
  169SAPS   H3S19120   2.061   4.956   6.275 -0.3607  0.4394 -0.9723
  169SAPS   C2419121   2.227   4.862   6.166 -0.0780 -0.4400  1.0484
  169SAPS   H4R19122   2.230   4.769   6.226 -0.5195 -0.3944  1.1473
  169SAPS   H4S19123   2.332   4.892   6.143 -0.8174  1.0318 -0.5954
  169SAPS   C2519124   2.138   4.840   6.041 -0.2459 -0.2794  0.3146
  169SAPS   H5R19125   2.051   4.777   6.067 -0.0020 -0.7220  0.0759
  169SAPS   C2619126   2.165   4.872   5.912 -0.0553  0.2800 -0.5575
  169SAPS   H6R19127   2.092   4.839   5.836 -1.2833  1.0971  0.2316
  169SAPS   C2719128   2.287   4.940   5.863 -0.5117 -0.3064  0.4220
  169SAPS   H7R19129   2.372   4.906   5.927  1.9781  0.2051 -2.3606
  169SAPS   H7S19130   2.274   5.048   5.880 -2.8108 -0.2788 -1.1235
  169SAPS   C2819131   2.337   4.922   5.723 -0.0879 -0.2491  0.9026
  169SAPS   H8R19132   2.434   4.870   5.725 -0.6475 -1.3633  0.0050
  169SAPS   C2919133   2.277   4.965   5.604  0.1853  0.0054  0.0681
  169SAPS   H9R19134   2.321   4.950   5.505 -1.2602  2.7518 -1.1078
  169SAPS  C21019135   2.150   5.045   5.582  0.2600 -0.0146  0.3613
  169SAPS  H10R19136   2.179   5.141   5.534  0.5908  0.1927  0.9648
  169SAPS  H10S19137   2.111   5.084   5.679 -1.7935  2.4212 -1.3226
  169SAPS  C21119138   2.052   4.982   5.490  0.2717  0.4289  0.0007
  169SAPS  H11R19139   1.969   4.925   5.536  1.3595 -0.3503  1.0631
  169SAPS  C21219140   2.047   4.992   5.351 -0.4378 -0.5848  0.1485
  169SAPS  H12R19141   1.975   4.927   5.299 -0.3771 -1.9576  1.6709
  169SAPS  C21319142   2.155   5.067   5.278  1.0686 -0.7479 -0.3036
  169SAPS  H13R19143   2.247   5.090   5.336 -0.7624  0.8764  2.1648
  169SAPS  H13S19144   2.114   5.166   5.251  0.5884 -1.0874 -0.8246
  169SAPS  C21419145   2.209   4.997   5.155  0.2431  0.5547 -0.0761
  169SAPS  H14R19146   2.293   4.929   5.175  0.9042  1.3215 -0.2126
  169SAPS  C21519147   2.174   5.010   5.023 -0.3082 -0.7965 -0.1782
  169SAPS  H15R19148   2.228   4.953   4.947 -0.9935 -0.3719 -0.9971
  169SAPS  C21619149   2.068   5.096   4.965  0.2680 -0.1630  0.7818
  169SAPS  H16R19150   2.111   5.185   4.914  3.1871 -2.4112 -0.9785
  169SAPS  H16S19151   2.007   5.140   5.047  0.6473  0.8397  0.5397
  169SAPS  C21719152   1.963   5.035   4.866 -0.0440 -0.1731 -0.0770
  169SAPS  H17R19153   2.012   4.972   4.789 -0.9734  0.7913 -1.5162
  169SAPS  H17S19154   1.930   5.123   4.808  1.1894 -0.1699 -0.8012
  169SAPS  C21819155   1.850   4.967   4.939  0.1604  0.2357  0.0446
  169SAPS  H18R19156   1.802   5.034   5.014 -2.2154  0.4362 -1.5298
  169SAPS  H18S19157   1.876   4.882   5.005  0.4987  0.0929 -0.2699
  169SAPS  C21919158   1.743   4.909   4.848 -0.0017 -0.3068  0.8510
  169SAPS  H19R19159   1.786   4.828   4.785 -1.1520 -0.0483 -0.3061
  169SAPS  H19S19160   1.714   4.987   4.775  0.4594 -0.7219  0.2129
  169SAPS  C22019161   1.619   4.855   4.918  0.8318 -0.0676  0.3043
  169SAPS  H20R19162   1.560   4.793   4.847  1.7334 -1.4881  0.7612
  169SAPS  H20S19163   1.554   4.932   4.965  0.5646 -1.0119  1.5303
  169SAPS  H20T19164   1.667   4.793   4.996  1.9630  1.4956  0.9110
  169SAPS   C3319165   2.596   4.681   6.018 -0.6190  0.7102 -0.0486
  169SAPS   H3X19166   2.680   4.743   6.055 -0.4566  0.2543  0.3544
  169SAPS   H3Y19167   2.524   4.755   5.976 -0.6408  0.9306  0.3759
  169SAPS   C3419168   2.658   4.604   5.893 -0.3073  0.2033 -0.2370
  169SAPS   H4X19169   2.587   4.527   5.855 -2.0031  0.5243  2.0572
  169SAPS   H4Y19170   2.748   4.552   5.931  0.3257  1.3702 -0.1083
  169SAPS   C3519171   2.686   4.700   5.776  0.5141 -0.5218  0.6596
  169SAPS   H5X19172   2.764   4.777   5.794 -0.9036  1.6997 -1.8874
  169SAPS   H5Y19173   2.597   4.767   5.770  0.3967 -0.8374 -2.6753
  169SAPS   C3619174   2.715   4.635   5.646 -0.0462 -0.5627 -0.0511
  169SAPS   H6X19175   2.635   4.564   5.614 -1.8303  1.2457  0.2261
  169SAPS   H6Y19176   2.811   4.579   5.650  0.7748  0.7895 -0.3563
  169SAPS   C3719177   2.735   4.749   5.542  0.2261 -0.1290  0.0005
  169SAPS   H7X19178   2.827   4.805   5.569  0.8009 -0.8458 -0.4247
  169SAPS   H7Y19179   2.659   4.830   5.550 -1.1115 -1.1334 -1.7710
  169SAPS   C3819180   2.745   4.699   5.395 -0.5268  1.0519  0.2820
  169SAPS   H8X19181   2.810   4.610   5.408 -1.9752  0.1231  1.5444
  169SAPS   H8Y19182   2.786   4.779   5.330 -0.1679  1.6133  1.1763
  169SAPS   C3919183   2.610   4.640   5.343  0.2589  0.0771  0.0946
  169SAPS   H9X19184   2.528   4.712   5.363  1.5554  1.6739 -0.2063
  169SAPS   H9Y19185   2.598   4.546   5.401  0.6433 -0.8381 -1.2463
  169SAPS  C31019186   2.599   4.598   5.197 -0.7348 -0.4241  0.1804
  169SAPS  H10X19187   2.502   4.546   5.194 -1.0583 -0.0464  2.5373
  169SAPS  H10Y19188   2.676   4.522   5.172 -1.4322 -1.3268  0.7145
  169SAPS  C31119189   2.613   4.705   5.095  0.5919 -0.4330  0.3067
  169SAPS  H11X19190   2.718   4.739   5.097  0.6371 -0.5720  0.3072
  169SAPS  H11Y19191   2.546   4.789   5.125  2.2009  0.9124  0.2877
  169SAPS  C31219192   2.574   4.667   4.949 -0.7602 -0.7995 -0.2156
  169SAPS  H12X19193   2.467   4.639   4.959 -0.4658 -1.7094  0.4625
  169SAPS  H12Y19194   2.633   4.586   4.901  0.2106  0.6136 -1.5159
  169SAPS  C31319195   2.591   4.783   4.853 -0.3758 -0.3555  0.6649
  169SAPS  H13X19196   2.698   4.815   4.844  0.0721 -2.0931 -0.8596
  169SAPS  H13Y19197   2.538   4.873   4.889 -0.5114 -0.0965 -0.1498
  169SAPS  C31419198   2.527   4.758   4.716  0.0742 -0.4654 -0.0947
  169SAPS  H14X19199   2.423   4.725   4.737 -0.5256  1.5867  0.3986
  169SAPS  H14Y19200   2.581   4.680   4.659  1.0303 -0.4712  0.7864
  169SAPS  C31519201   2.528   4.887   4.635 -0.2902  0.2208 -0.2090
  169SAPS  H15X19202   2.635   4.909   4.615  0.0789 -0.5496  0.8288
  169SAPS  H15Y19203   2.481   4.972   4.688  0.9938  2.1908 -2.0495
  169SAPS  C31619204   2.456   4.873   4.501  0.0440  0.1626  0.0495
  169SAPS  H16X19205   2.348   4.859   4.523 -0.2247 -1.0809 -1.8344
  169SAPS  H16Y19206   2.496   4.781   4.452 -0.2007 -0.0291  0.2106
  169SAPS  C31719207   2.483   4.981   4.389 -0.3283  0.0144  0.3368
  169SAPS  H17X19208   2.479   5.067   4.459 -0.1216 -1.2353  1.9431
  169SAPS  H17Y19209   2.396   4.993   4.321  1.9534  2.9367 -2.4044
  169SAPS  C31819210   2.622   4.978   4.322  0.0874 -0.0725  0.1604
  169SAPS  H18X19211   2.693   4.901   4.358 -0.7800 -0.7606  0.4317
  169SAPS  H18Y19212   2.670   5.078   4.332  2.5468 -1.0939 -0.6603
  169SAPS  H18Z19213   2.607   4.963   4.213 -0.1356 -1.3098  0.3433
  170SAPS     N19214   4.315   3.959   7.144 -0.1251  0.3903 -0.5658
  170SAPS   HN119215   4.216   3.927   7.140  1.4061 -5.7425 -0.3989
  170SAPS   HN219216   4.330   4.018   7.060 -3.1980 -0.4842 -1.8775
  170SAPS   HN319217   4.381   3.883   7.115 -0.5896 -0.2469  0.0123
  170SAPS   C1219218   4.339   4.012   7.278 -0.1825 -1.0194 -0.5304
  170SAPS  H12A19219   4.281   4.100   7.301  0.9403 -0.9623  2.5640
  170SAPS   C1319220   4.308   3.913   7.392  0.1391 -0.2084 -0.4359
  170SAPS  O13A19221   4.256   3.804   7.363 -0.0191 -0.2483 -0.6928
  170SAPS  O13B19222   4.339   3.934   7.513  0.0792 -0.8836  0.0569
  170SAPS   C1119223   4.488   4.064   7.290  0.7732 -0.2684  0.5741
  170SAPS  H11A19224   4.561   3.979   7.290 -1.1109 -1.9597  0.9600
  170SAPS  H11B19225   4.489   4.122   7.385 -0.4727  1.0205 -0.1719
  170SAPS     P19226   4.635   4.220   7.137 -0.0692  0.3780 -0.3510
  170SAPS   O1319227   4.626   4.365   7.137  0.1604  0.2367 -0.2367
  170SAPS   O1419228   4.743   4.157   7.212 -0.4830 -0.1044  0.0146
  170SAPS   O1219229   4.506   4.165   7.195 -0.1177  0.0990 -0.3091
  170SAPS   O1119230   4.631   4.153   6.988 -0.2595 -0.6237  0.1679
  170SAPS    C119231   4.739   4.179   6.892  0.6912  0.1807 -0.4025
  170SAPS    HA19232   4.830   4.215   6.944 -0.2847  1.5760  0.3961
  170SAPS    HB19233   4.764   4.092   6.827  0.4081 -0.6091  0.5273
  170SAPS    C219234   4.708   4.305   6.802 -0.1463  0.1940 -0.4107
  170SAPS    HS19235   4.694   4.398   6.861  0.0914 -0.5389  0.8342
  170SAPS   O2119236   4.593   4.269   6.724  0.7132 -0.2983 -0.0579
  170SAPS   C2119237   4.530   4.368   6.657 -0.1215  0.5516  0.0283
  170SAPS   O2219238   4.538   4.487   6.676 -0.2402  0.0477  0.7212
  170SAPS   C2219239   4.456   4.302   6.546 -0.0225 -0.5252 -0.2406
  170SAPS   H2R19240   4.478   4.193   6.548 -0.5546 -0.6568 -0.9712
  170SAPS   H2S19241   4.348   4.312   6.572 -0.1299  1.0013 -1.1623
  170SAPS    C319242   4.833   4.329   6.712  0.3380  0.0769  0.7690
  170SAPS    HX19243   4.869   4.237   6.659  1.5542  1.5537 -1.1170
  170SAPS    HY19244   4.913   4.356   6.784  0.6770 -0.1994  0.5038
  170SAPS   O3119245   4.801   4.428   6.613  0.2684  0.4986  0.2370
  170SAPS   C3119246   4.893   4.506   6.570  0.0846 -0.3364  0.2016
  170SAPS   O3219247   5.013   4.507   6.608  0.7115  0.1675 -1.0848
  170SAPS   C3219248   4.837   4.572   6.450  0.8209  0.0954  0.2419
  170SAPS   H2X19249   4.798   4.667   6.493 -0.8305 -0.8266  0.8437
  170SAPS   H2Y19250   4.758   4.502   6.415  0.5597 -0.0701  1.1398
  170SAPS   C2319251   4.481   4.358   6.400  0.0913  0.4220  1.0251
  170SAPS   H3R19252   4.582   4.341   6.357  0.2069  2.7324  0.2002
  170SAPS   H3S19253   4.474   4.467   6.422  0.4613  0.7524 -0.4076
  170SAPS   C2419254   4.380   4.321   6.288  0.2210  0.2870 -0.0902
  170SAPS   H4R19255   4.419   4.375   6.199  0.4040  1.9849  0.9647
  170SAPS   H4S19256   4.285   4.372   6.317  0.0586  0.0204 -0.1524
  170SAPS   C2519257   4.370   4.170   6.282  0.7383  1.1524 -0.5107
  170SAPS   H5R19258   4.355   4.129   6.383 -2.1674  0.3762 -1.1627
  170SAPS   C2619259   4.387   4.084   6.175 -0.4074 -0.3426  0.0430
  170SAPS   H6R19260   4.370   3.977   6.192 -1.1491 -0.3863 -0.9194
  170SAPS   C2719261   4.425   4.118   6.028  0.6393 -0.1027  0.1213
  170SAPS   H7R19262   4.463   4.025   5.981 -2.1658 -0.6061 -1.3575
  170SAPS   H7S19263   4.511   4.187   6.043  0.8846 -0.6763  1.5190
  170SAPS   C2819264   4.313   4.184   5.944  0.3776 -0.2023 -0.3460
  170SAPS   H8R19265   4.245   4.255   5.994 -0.6081 -1.3703  0.0347
  170SAPS   C2919266   4.284   4.142   5.819  0.4509 -0.0154  0.8492
  170SAPS   H9R19267   4.202   4.193   5.766  1.5710  2.6147  1.4914
  170SAPS  C21019268   4.346   4.035   5.729  0.2165 -0.0479 -0.3943
  170SAPS  H10R19269   4.429   3.989   5.787  1.1177  2.3208  0.2939
  170SAPS  H10S19270   4.406   4.087   5.651  0.5569  0.7095  0.3524
  170SAPS  C21119271   4.249   3.930   5.688 -0.2960 -0.5543  0.7914
  170SAPS  H11R19272   4.200   3.882   5.773 -1.7404 -1.4017 -0.4851
  170SAPS  C21219273   4.196   3.904   5.566  0.0631 -0.2734  0.3818
  170SAPS  H12R19274   4.116   3.829   5.561 -1.7457  1.6073  0.2889
  170SAPS  C21319275   4.236   3.973   5.435  0.7742 -0.0074  0.2683
  170SAPS  H13R19276   4.189   4.072   5.422 -0.0398 -0.5819 -1.5206
  170SAPS  H13S19277   4.170   3.923   5.361  1.2835  0.7212 -0.6991
  170SAPS  C21419278   4.378   3.964   5.389 -0.3923 -0.2249 -0.4881
  170SAPS  H14R19279   4.442   3.970   5.479 -0.2977 -1.7570 -0.4316
  170SAPS  C21519280   4.433   3.942   5.264  0.2669 -0.0045 -0.2413
  170SAPS  H15R19281   4.541   3.961   5.264  0.0950  1.0818  0.3494
  170SAPS  C21619282   4.358   3.932   5.133 -0.1856  0.4184 -0.2742
  170SAPS  H16R19283   4.259   3.887   5.155  0.7114 -1.1256  0.8440
  170SAPS  H16S19284   4.416   3.863   5.068  1.2425  1.9199 -0.6515
  170SAPS  C21719285   4.343   4.061   5.066  0.2278  0.1165 -0.1349
  170SAPS  H17R19286   4.431   4.130   5.068 -0.5474  1.1158  0.9993
  170SAPS  H17S19287   4.273   4.127   5.122  1.9474  1.5872  0.3760
  170SAPS  C21819288   4.279   4.034   4.923  1.0958 -0.2279  1.0529
  170SAPS  H18R19289   4.181   3.984   4.940  0.8558 -0.3502 -0.5160
  170SAPS  H18S19290   4.343   3.963   4.866  1.0230  1.7668 -1.7480
  170SAPS  C21919291   4.256   4.167   4.850 -0.0464 -0.6367  0.4843
  170SAPS  H19R19292   4.214   4.155   4.747 -0.4717  0.2709  0.5370
  170SAPS  H19S19293   4.358   4.211   4.844 -0.2659 -0.0539  0.9340
  170SAPS  C22019294   4.153   4.267   4.902 -0.5940 -0.5041  0.8861
  170SAPS  H20R19295   4.164   4.289   5.011  0.2034 -0.3225  0.7730
  170SAPS  H20S19296   4.050   4.227   4.887 -0.2225 -1.2246  0.2307
  170SAPS  H20T19297   4.171   4.365   4.854 -2.0473  0.3569  1.9878
  170SAPS   C3319298   4.937   4.604   6.338 -0.4837 -0.2646  0.3086
  170SAPS   H3X19299   5.014   4.665   6.390  0.5263 -1.7110  0.5878
  170SAPS   H3Y19300   4.889   4.659   6.255  0.9668 -0.8586 -0.9921
  170SAPS   C3419301   5.011   4.476   6.281  0.0677  0.2896  0.6591
  170SAPS   H4X19302   4.944   4.390   6.259  0.4030 -0.3808  2.0890
  170SAPS   H4Y19303   5.080   4.444   6.363  0.5831 -3.6433 -1.0811
  170SAPS   C3519304   5.088   4.506   6.157 -1.0578  0.0465 -0.3366
  170SAPS   H5X19305   5.171   4.435   6.139 -1.4928 -0.1564 -1.7085
  170SAPS   H5Y19306   5.131   4.604   6.186  0.8027 -1.0409  0.7747
  170SAPS   C3619307   4.994   4.511   6.038  0.3461  0.1771  0.1452
  170SAPS   H6X19308   4.901   4.562   6.069 -0.4596 -0.7515 -0.6731
  170SAPS   H6Y19309   4.942   4.417   6.010 -0.5400  1.6059 -3.5924
  170SAPS   C3719310   5.059   4.583   5.913  0.0559 -0.1001  0.1847
  170SAPS   H7X19311   5.168   4.563   5.918  0.3631  1.2460 -0.6295
  170SAPS   H7Y19312   5.049   4.693   5.921  1.2111  0.0640 -0.3808
  170SAPS   C3819313   4.999   4.532   5.782 -0.1772 -0.3955 -0.1315
  170SAPS   H8X19314   4.890   4.553   5.774  0.1292  1.1122 -0.5706
  170SAPS   H8Y19315   5.003   4.421   5.781  0.5509 -0.3687 -0.1007
  170SAPS   C3919316   5.073   4.586   5.661  0.0481 -0.1314 -0.3003
  170SAPS   H9X19317   5.182   4.577   5.679  0.1439  2.8239  1.0989
  170SAPS   H9Y19318   5.060   4.695   5.650 -0.4141 -0.3417 -2.1496
  170SAPS  C31019319   5.033   4.512   5.528 -0.5256 -0.8066  0.4069
  170SAPS  H10X19320   4.924   4.510   5.504 -0.2910 -2.0851 -0.7069
  170SAPS  H10Y19321   5.063   4.406   5.543 -0.9284 -0.9042  0.5385
  170SAPS  C31119322   5.105   4.572   5.402 -0.4539 -0.4328 -0.2708
  170SAPS  H11X19323   5.215   4.566   5.420 -0.3941 -2.7209 -1.1145
  170SAPS  H11Y19324   5.073   4.678   5.388 -0.5762 -0.4183  0.1053
  170SAPS  C31219325   5.095   4.494   5.273 -0.2853  0.5842 -0.3203
  170SAPS  H12X19326   5.050   4.395   5.296  1.5237  0.2312  2.1433
  170SAPS  H12Y19327   5.199   4.470   5.243  0.0600  3.2780 -1.6279
  170SAPS  C31319328   5.023   4.553   5.153  0.0113 -0.7811 -0.2824
  170SAPS  H13X19329   5.080   4.641   5.118  2.3815 -2.7195 -1.5870
  170SAPS  H13Y19330   4.924   4.585   5.193  1.9519  2.7481  2.2774
  170SAPS  C31419331   5.002   4.460   5.041 -0.0919  0.3487  0.4443
  170SAPS  H14X19332   4.970   4.526   4.958 -0.1590  2.2016  1.8655
  170SAPS  H14Y19333   4.930   4.380   5.070 -1.6321  2.2187  2.0632
  170SAPS  C31519334   5.133   4.390   4.985  0.1350 -0.1355 -0.1842
  170SAPS  H15X19335   5.157   4.312   5.059 -0.2454  0.1561  0.2555
  170SAPS  H15Y19336   5.213   4.465   5.005  2.1765 -2.3584  0.3696
  170SAPS  C31619337   5.126   4.340   4.841 -0.2231 -1.2009  0.0320
  170SAPS  H16X19338   5.101   4.431   4.784 -2.5505 -2.4382 -1.0871
  170SAPS  H16Y19339   5.043   4.270   4.814 -1.9273  0.8970 -0.4812
  170SAPS  C31719340   5.251   4.272   4.795 -0.0184 -0.1468  0.5997
  170SAPS  H17X19341   5.335   4.340   4.819 -0.4562  0.8136 -0.4848
  170SAPS  H17Y19342   5.255   4.268   4.684 -0.2464  1.8240  0.4930
  170SAPS  C31819343   5.273   4.125   4.850 -0.1712  0.0349  0.5274
  170SAPS  H18X19344   5.372   4.081   4.825 -0.8137 -0.4369 -1.3643
  170SAPS  H18Y19345   5.203   4.057   4.798 -3.3046  2.4324  1.2994
  170SAPS  H18Z19346   5.250   4.108   4.958  1.3583  0.1160  0.8979
  171SAPS     N19347   4.574   3.789   6.799 -0.1054 -0.2517 -0.0522
  171SAPS   HN119348   4.643   3.824   6.729  0.1964  3.1967  1.7417
  171SAPS   HN219349   4.508   3.711   6.782 -2.8053  1.7155  0.8811
  171SAPS   HN319350   4.513   3.864   6.837 -0.8852 -0.9613  0.1109
  171SAPS   C1219351   4.674   3.743   6.903 -0.1540  0.3099  0.9909
  171SAPS  H12A19352   4.769   3.795   6.893  0.8203 -1.0852  2.4572
  171SAPS   C1319353   4.621   3.755   7.045  0.0141  0.3273 -0.7804
  171SAPS  O13A19354   4.501   3.771   7.068 -0.0408  0.1655  0.4400
  171SAPS  O13B19355   4.698   3.726   7.143  0.4488 -0.0098  0.1334
  171SAPS   C1119356   4.710   3.596   6.873  0.4557  0.1629 -0.4166
  171SAPS  H11A19357   4.627   3.522   6.869  0.0007  0.6788 -0.5833
  171SAPS  H11B19358   4.777   3.571   6.958 -1.7984 -0.9259  1.1538
  171SAPS     P19359   4.865   3.459   6.701 -0.5366 -0.3867 -0.1857
  171SAPS   O1319360   4.981   3.509   6.624  0.0608  0.3125  0.8200
  171SAPS   O1419361   4.902   3.375   6.813 -0.1105  0.0803 -0.0168
  171SAPS   O1219362   4.787   3.582   6.753  0.1624 -0.8112 -0.7117
  171SAPS   O1119363   4.768   3.372   6.615 -0.7435 -0.0156 -0.1271
  171SAPS    C119364   4.625   3.401   6.606 -0.3461  0.0141  0.1250
  171SAPS    HA19365   4.572   3.338   6.681  0.3137 -0.6560  0.0308
  171SAPS    HB19366   4.607   3.510   6.619 -1.7087 -0.2712  0.8877
  171SAPS    C219367   4.563   3.357   6.474  0.0496 -0.3908  0.1471
  171SAPS    HS19368   4.543   3.247   6.477 -1.1807 -0.1743  0.3696
  171SAPS   O2119369   4.638   3.391   6.357  0.0443 -0.1265 -0.3370
  171SAPS   C2119370   4.727   3.298   6.307 -0.7206 -0.3946  0.9053
  171SAPS   O2219371   4.735   3.186   6.346  0.4935  0.6159 -0.0569
  171SAPS   C2219372   4.816   3.364   6.209 -0.0023  0.0296 -0.4383
  171SAPS   H2R19373   4.865   3.459   6.238 -2.7434  0.7821  2.2203
  171SAPS   H2S19374   4.901   3.292   6.209  1.5307  1.7781  0.2487
  171SAPS    C319375   4.420   3.427   6.464 -0.1918 -0.1042  0.0712
  171SAPS    HX19376   4.433   3.529   6.504 -1.3059 -0.7747  2.3168
  171SAPS    HY19377   4.350   3.376   6.534 -0.0390  1.8362  1.7043
  171SAPS   O3119378   4.367   3.419   6.327  0.2703  0.0246  0.3377
  171SAPS   C3119379   4.347   3.539   6.267  0.4994  0.2912 -0.1336
  171SAPS   O3219380   4.369   3.648   6.314  0.5028 -0.0017 -0.0473
  171SAPS   C3219381   4.281   3.515   6.140  0.4510 -0.5337 -0.4859
  171SAPS   H2X19382   4.232   3.611   6.113  0.9434 -0.8639 -2.7312
  171SAPS   H2Y19383   4.199   3.442   6.159  0.6592 -0.1729  2.2589
  171SAPS   C2319384   4.743   3.380   6.071 -0.1336  0.4583  0.0839
  171SAPS   H3R19385   4.817   3.437   6.010  1.6150  0.2953  1.9598
  171SAPS   H3S19386   4.654   3.447   6.081 -3.2881 -2.7373 -3.3263
  171SAPS   C2419387   4.697   3.260   5.989 -0.0101 -0.1928 -0.1285
  171SAPS   H4R19388   4.658   3.298   5.892 -4.0922  1.1118  1.7849
  171SAPS   H4S19389   4.613   3.214   6.045  1.2691 -0.0932  1.9646
  171SAPS   C2519390   4.800   3.152   5.991 -0.2292 -0.4849  0.0308
  171SAPS   H5R19391   4.844   3.134   6.090  0.9904 -0.3239 -0.4644
  171SAPS   C2619392   4.853   3.085   5.894 -0.3950 -0.3866 -0.2615
  171SAPS   H6R19393   4.937   3.016   5.917 -0.5618  0.1174  2.1382
  171SAPS   C2719394   4.820   3.093   5.751 -0.2503 -1.0964 -0.4077
  171SAPS   H7R19395   4.894   3.021   5.710 -0.1702  0.1084 -2.5143
  171SAPS   H7S19396   4.855   3.192   5.715  0.3455 -0.6036  1.3782
  171SAPS   C2819397   4.683   3.072   5.704  0.0085  0.2086  0.3156
  171SAPS   H8R19398   4.604   3.103   5.774 -0.7401 -0.6147 -0.1473
  171SAPS   C2919399   4.658   3.021   5.585  0.1511  0.5943 -0.7141
  171SAPS   H9R19400   4.551   3.001   5.568  0.7240 -1.2187 -2.6033
  171SAPS  C21019401   4.757   2.978   5.484  1.4310  0.5270  0.4699
  171SAPS  H10R19402   4.702   2.928   5.401 -0.0933  1.6719  0.7480
  171SAPS  H10S19403   4.829   2.903   5.525  0.5522  0.9883  3.0415
  171SAPS  C21119404   4.825   3.091   5.410  0.0249  0.5242 -0.1249
  171SAPS  H11R19405   4.782   3.191   5.425 -0.4103  0.0999  1.7545
  171SAPS  C21219406   4.944   3.094   5.332  0.2053  0.3841 -0.6924
  171SAPS  H12R19407   4.974   3.197   5.310 -0.0583  0.7207  0.4378
  171SAPS  C21319408   5.022   2.972   5.287 -0.5125  0.2461  0.3874
  171SAPS  H13R19409   5.033   2.909   5.379 -0.8096 -0.3171  0.0453
  171SAPS  H13S19410   5.125   3.006   5.266  0.9009 -4.0354 -0.7872
  171SAPS  C21419411   4.956   2.902   5.174  0.0246  0.2862 -0.1157
  171SAPS  H14R19412   4.879   2.959   5.120 -0.7755  0.1410  0.8223
  171SAPS  C21519413   4.987   2.778   5.135 -0.0323  1.1420 -0.0094
  171SAPS  H15R19414   4.936   2.747   5.042  0.1121 -0.7562  0.4957
  171SAPS  C21619415   5.066   2.677   5.213  0.2625 -0.1724 -0.0871
  171SAPS  H16R19416   5.074   2.701   5.322 -1.4538 -0.0001  0.0333
  171SAPS  H16S19417   5.170   2.684   5.175  0.6031  3.7977  1.1204
  171SAPS  C21719418   5.022   2.529   5.187 -0.4935  0.1400  0.1933
  171SAPS  H17R19419   4.912   2.523   5.201 -0.4191 -2.3995  0.2158
  171SAPS  H17S19420   5.084   2.466   5.255  0.0357 -0.2504 -0.6378
  171SAPS  C21819421   5.049   2.486   5.044  0.8566 -0.3312 -0.3868
  171SAPS  H18R19422   5.155   2.455   5.055  0.1621 -2.3991  1.1059
  171SAPS  H18S19423   5.051   2.577   4.981  0.3986 -1.1889 -1.6692
  171SAPS  C21919424   4.950   2.384   5.005 -0.5431  1.4085  0.2103
  171SAPS  H19R19425   4.846   2.414   5.030 -0.6779 -0.2434  1.9011
  171SAPS  H19S19426   4.977   2.300   5.074 -0.5671  1.7024  0.5802
  171SAPS  C22019427   4.970   2.337   4.858  0.4799  0.4999  0.2651
  171SAPS  H20R19428   4.903   2.250   4.844  0.7335  0.0759  1.5869
  171SAPS  H20S19429   5.073   2.301   4.834  0.7825  1.1532  0.5546
  171SAPS  H20T19430   4.943   2.419   4.787 -0.0971 -0.2496 -0.3970
  171SAPS   C3319431   4.376   3.478   6.026  0.7755  0.7836 -0.6195
  171SAPS   H3X19432   4.408   3.372   6.035 -1.4076 -0.0343 -1.6418
  171SAPS   H3Y19433   4.469   3.539   6.031  0.9453  0.7528 -2.5465
  171SAPS   C3419434   4.307   3.485   5.892  0.2318 -0.4596 -0.2211
  171SAPS   H4X19435   4.290   3.594   5.880  0.3253 -0.6195 -2.2134
  171SAPS   H4Y19436   4.211   3.430   5.898  1.5056 -2.6957  0.8306
  171SAPS   C3519437   4.390   3.444   5.766  0.6350  0.1279 -0.0350
  171SAPS   H5X19438   4.399   3.334   5.763 -1.1562 -0.0491 -3.4260
  171SAPS   H5Y19439   4.495   3.478   5.779  0.8160 -0.4795  0.1417
  171SAPS   C3619440   4.328   3.488   5.634 -0.8285  0.3128 -1.0063
  171SAPS   H6X19441   4.267   3.574   5.666  0.5776  0.0483  2.9005
  171SAPS   H6Y19442   4.257   3.408   5.603 -1.4095  0.6578 -0.5795
  171SAPS   C3719443   4.423   3.526   5.525 -0.2194  0.4089 -0.2420
  171SAPS   H7X19444   4.465   3.628   5.538 -0.8870  0.3816  3.0889
  171SAPS   H7Y19445   4.365   3.533   5.431 -1.5321  0.4067  0.5451
  171SAPS   C3819446   4.552   3.441   5.498  0.1707 -0.4818  0.5079
  171SAPS   H8X19447   4.529   3.336   5.469  2.4924 -1.2389  1.1944
  171SAPS   H8Y19448   4.603   3.434   5.596  0.5576  2.2480  0.5811
  171SAPS   C3919449   4.643   3.509   5.387  0.0518  0.2512 -0.1576
  171SAPS   H9X19450   4.742   3.459   5.374  0.2198 -0.0604  1.9811
  171SAPS   H9Y19451   4.657   3.617   5.407 -1.4344  0.8520 -2.1081
  171SAPS  C31019452   4.573   3.500   5.245 -0.4027  0.0931  0.0899
  171SAPS  H10X19453   4.473   3.549   5.241 -0.5865 -0.3751 -2.6601
  171SAPS  H10Y19454   4.568   3.393   5.216 -0.9669  0.6355 -2.0197
  171SAPS  C31119455   4.661   3.578   5.148  0.5832  1.1216 -0.2246
  171SAPS  H11X19456   4.763   3.534   5.138 -0.8613 -2.8031  0.5351
  171SAPS  H11Y19457   4.670   3.683   5.184 -2.9379  0.8469  1.8702
  171SAPS  C31219458   4.597   3.564   5.007 -0.1829  0.1996  0.8356
  171SAPS  H12X19459   4.488   3.578   5.022 -1.0943 -0.9874 -3.3754
  171SAPS  H12Y19460   4.612   3.465   4.959 -0.8883  1.2954 -1.7996
  171SAPS  C31319461   4.633   3.669   4.901 -0.9063 -0.7059 -0.1016
  171SAPS  H13X19462   4.736   3.643   4.867 -0.3785  0.2779  0.6969
  171SAPS  H13Y19463   4.646   3.766   4.953 -1.8067 -2.0979  3.0084
  171SAPS  C31419464   4.531   3.666   4.792  0.0979 -0.4204  0.5482
  171SAPS  H14X19465   4.542   3.761   4.735  0.9227 -0.1098  1.2103
  171SAPS  H14Y19466   4.431   3.691   4.833 -0.5757  0.8734 -1.7230
  171SAPS  C31519467   4.532   3.530   4.716  0.4819  1.1071  0.8050
  171SAPS  H15X19468   4.437   3.528   4.658  1.3399  0.0171 -0.6498
  171SAPS  H15Y19469   4.532   3.442   4.784  0.9655  1.9383  1.9052
  171SAPS  C31619470   4.644   3.509   4.624  0.1351  0.0960 -0.0148
  171SAPS  H16X19471   4.634   3.419   4.560  0.7162 -0.5657  0.8039
  171SAPS  H16Y19472   4.743   3.483   4.666  1.4416  2.9352 -1.0521
  171SAPS  C31719473   4.669   3.625   4.528  0.1371 -0.3776 -0.3182
  171SAPS  H17X19474   4.676   3.722   4.582 -1.7073 -0.6857  0.5160
  171SAPS  H17Y19475   4.574   3.632   4.472  1.0375  1.7968 -1.7177
  171SAPS  C31819476   4.791   3.607   4.434 -1.1166 -0.1975 -0.2191
  171SAPS  H18X19477   4.784   3.689   4.360  0.9060  2.5998  2.4284
  171SAPS  H18Y19478   4.808   3.505   4.392 -0.2988 -0.1725  0.0301
  171SAPS  H18Z19479   4.883   3.616   4.497 -0.5762 -0.2005 -0.9881
  172SAPS     N19480   4.417   3.613   7.266 -0.1228 -0.9134 -0.0221
  172SAPS   HN119481   4.347   3.679   7.304 -1.0838 -1.4437 -0.8190
  172SAPS   HN219482   4.494   3.596   7.334 -0.5341 -3.7934 -0.1493
  172SAPS   HN319483   4.459   3.651   7.179 -1.3105 -2.6052 -1.4024
  172SAPS   C1219484   4.354   3.484   7.231  0.3386  0.6517 -0.0646
  172SAPS  H12A19485   4.439   3.421   7.213  0.7665  0.5154  2.1767
  172SAPS   C1319486   4.285   3.405   7.341  0.3101 -0.1290  0.1020
  172SAPS  O13A19487   4.281   3.452   7.456 -0.1231 -0.5483 -0.6732
  172SAPS  O13B19488   4.250   3.288   7.313 -0.4343 -0.3701 -0.3148
  172SAPS   C1119489   4.275   3.495   7.098 -0.8977 -0.5469 -0.2154
  172SAPS  H11A19490   4.184   3.556   7.109  0.0918  0.8875  0.2634
  172SAPS  H11B19491   4.236   3.394   7.073 -3.3823  0.9899 -3.1370
  172SAPS     P19492   4.321   3.502   6.838  0.0240 -0.2136  0.2114
  172SAPS   O1319493   4.356   3.614   6.752 -0.0842 -0.2097  0.4296
  172SAPS   O1419494   4.363   3.366   6.807 -0.3572  0.4657  0.2173
  172SAPS   O1219495   4.357   3.537   6.991  0.1947 -0.4719 -0.1334
  172SAPS   O1119496   4.165   3.507   6.851 -0.4085 -0.1947  0.1088
  172SAPS    C119497   4.086   3.387   6.846 -0.0161  0.5713  0.0248
  172SAPS    HA19498   4.143   3.296   6.874 -1.5121  0.2180  2.1281
  172SAPS    HB19499   4.002   3.417   6.911 -0.8856  1.5152 -1.4738
  172SAPS    C219500   4.039   3.366   6.699 -0.5126 -0.0395 -0.4388
  172SAPS    HS19501   4.134   3.334   6.650  0.9099  0.8046  1.6307
  172SAPS   O2119502   3.981   3.489   6.648 -0.1496 -0.0065  0.2267
  172SAPS   C2119503   4.013   3.519   6.520  0.0319 -0.0085 -0.3771
  172SAPS   O2219504   4.101   3.468   6.457 -0.3347  0.5217  0.2302
  172SAPS   C2219505   3.927   3.635   6.482 -0.3458 -0.1920 -0.0785
  172SAPS   H2R19506   3.888   3.678   6.577 -2.2302  0.7744 -1.2211
  172SAPS   H2S19507   3.997   3.702   6.428  0.6148 -1.9296 -1.0728
  172SAPS    C319508   3.944   3.240   6.689  0.8186  0.3962 -0.2205
  172SAPS    HX19509   3.846   3.252   6.739  1.6126  0.3831  1.4338
  172SAPS    HY19510   3.990   3.149   6.734 -1.6091 -0.0498  1.5925
  172SAPS   O3119511   3.903   3.222   6.553  0.3873 -0.5012 -0.0549
  172SAPS   C3119512   3.954   3.120   6.479  0.6368  0.1938  0.1691
  172SAPS   O3219513   4.043   3.048   6.521  0.3187  0.0325 -0.5817
  172SAPS   C3219514   3.902   3.125   6.339 -0.5142  0.1934 -0.0672
  172SAPS   H2X19515   3.844   3.219   6.329 -0.2582  0.8393  3.2906
  172SAPS   H2Y19516   3.829   3.041   6.328 -0.3797  0.1287 -0.4626
  172SAPS   C2319517   3.821   3.582   6.377 -0.4378 -0.2877  0.6352
  172SAPS   H3R19518   3.757   3.668   6.347  1.1595 -0.4410 -3.8297
  172SAPS   H3S19519   3.751   3.513   6.430 -1.5508  0.6960  0.4871
  172SAPS   C2419520   3.875   3.508   6.261 -0.6689  0.4026  0.3648
  172SAPS   H4R19521   3.930   3.415   6.287 -0.6430  0.4665  0.5351
  172SAPS   H4S19522   3.950   3.568   6.206 -0.1277 -0.3778  0.2339
  172SAPS   C2519523   3.765   3.460   6.176 -0.4669  0.2329  0.2277
  172SAPS   H5R19524   3.672   3.433   6.229  0.5753  0.8591  2.5200
  172SAPS   C2619525   3.763   3.469   6.038 -0.5092 -0.4848 -0.9137
  172SAPS   H6R19526   3.675   3.428   5.987  0.4582 -1.9648 -1.4362
  172SAPS   C2719527   3.886   3.509   5.954 -0.4419 -0.1993 -0.3268
  172SAPS   H7R19528   3.975   3.484   6.017 -1.6028 -2.8821  0.4103
  172SAPS   H7S19529   3.891   3.617   5.932  0.6747  0.4161  2.4826
  172SAPS   C2819530   3.905   3.414   5.834 -0.0747 -0.0294  0.6448
  172SAPS   H8R19531   3.920   3.308   5.859  2.0000  0.1114  0.1261
  172SAPS   C2919532   3.920   3.448   5.702  0.2453 -0.4571 -0.2306
  172SAPS   H9R19533   3.940   3.371   5.626 -0.4982  0.8576 -1.8131
  172SAPS  C21019534   3.913   3.589   5.650 -0.1459  0.7985 -0.4115
  172SAPS  H10R19535   4.013   3.627   5.620 -0.0443 -0.6750 -2.0805
  172SAPS  H10S19536   3.884   3.662   5.729 -1.7045 -0.5487  0.3193
  172SAPS  C21119537   3.815   3.608   5.537  0.3131 -0.4950 -0.2000
  172SAPS  H11R19538   3.725   3.666   5.561 -0.7637 -2.0622 -0.2820
  172SAPS  C21219539   3.842   3.577   5.410  0.2443 -1.0780 -0.2600
  172SAPS  H12R19540   3.763   3.597   5.337 -0.2443  0.7631  0.7082
  172SAPS  C21319541   3.962   3.511   5.348 -0.0368 -0.4394 -0.4122
  172SAPS  H13R19542   3.917   3.470   5.255 -3.6480 -1.6657  1.6840
  172SAPS  H13S19543   3.977   3.415   5.400 -0.6680 -0.8896 -1.0396
  172SAPS  C21419544   4.085   3.594   5.341 -0.0416  0.1426  0.9420
  172SAPS  H14R19545   4.102   3.671   5.419 -2.6024  0.8086  0.9189
  172SAPS  C21519546   4.173   3.589   5.239  0.4304 -0.2651  0.3682
  172SAPS  H15R19547   4.258   3.659   5.233 -0.7757  1.1259 -1.7413
  172SAPS  C21619548   4.157   3.507   5.115 -0.2798  0.0751  0.6049
  172SAPS  H16R19549   4.105   3.411   5.135 -0.5153  0.1657  0.4278
  172SAPS  H16S19550   4.254   3.465   5.080  0.3667  1.6198  0.4763
  172SAPS  C21719551   4.095   3.586   5.002  0.0925 -0.1261  0.0645
  172SAPS  H17R19552   4.153   3.679   4.986  0.5285 -0.3753  0.2004
  172SAPS  H17S19553   3.987   3.609   5.021 -0.2750 -1.8377  0.1802
  172SAPS  C21819554   4.098   3.504   4.870  0.1545 -0.1675  0.0504
  172SAPS  H18R19555   4.045   3.407   4.875 -0.5433  0.2834  3.2616
  172SAPS  H18S19556   4.205   3.482   4.848 -0.0364 -0.1455 -0.9632
  172SAPS  C21919557   4.042   3.577   4.751 -0.0082 -0.5402 -0.4737
  172SAPS  H19R19558   3.955   3.639   4.784 -1.2059 -2.2414 -0.2750
  172SAPS  H19S19559   3.992   3.505   4.684  1.0794 -1.2451 -0.5405
  172SAPS  C22019560   4.142   3.668   4.673  0.2396 -0.2213  0.1256
  172SAPS  H20R19561   4.171   3.753   4.739 -1.5729  0.2513  0.3763
  172SAPS  H20S19562   4.082   3.719   4.595  0.0064 -0.4288  0.1686
  172SAPS  H20T19563   4.217   3.605   4.621  0.2188  0.6675 -1.0103
  172SAPS   C3319564   4.009   3.122   6.227  0.0881 -0.2623  0.2572
  172SAPS   H3X19565   4.089   3.046   6.242  1.6048  0.9721 -1.2128
  172SAPS   H3Y19566   4.059   3.220   6.216 -0.3054 -0.2555 -1.6876
  172SAPS   C3419567   3.962   3.106   6.071  1.2164 -0.7735 -0.1678
  172SAPS   H4X19568   3.912   3.197   6.032  2.4984 -1.1481 -2.8578
  172SAPS   H4Y19569   3.891   3.021   6.065  2.5390 -1.7977 -2.2396
  172SAPS   C3519570   4.087   3.087   5.982  0.1344  0.2676 -0.6518
  172SAPS   H5X19571   4.158   3.013   6.027  0.2142  0.7209 -0.0257
  172SAPS   H5Y19572   4.143   3.183   5.983  0.5536  0.0407 -1.3216
  172SAPS   C3619573   4.061   3.045   5.840 -0.2393  0.0255  0.1755
  172SAPS   H6X19574   3.984   3.106   5.790 -1.8237 -1.2777  0.9352
  172SAPS   H6Y19575   4.020   2.942   5.849 -0.6868  0.2623  0.8639
  172SAPS   C3719576   4.189   3.039   5.745  1.4199 -0.1528 -0.3958
  172SAPS   H7X19577   4.220   2.933   5.745 -2.2720 -1.3806 -0.3817
  172SAPS   H7Y19578   4.265   3.110   5.785 -0.3773  1.2803  0.6247
  172SAPS   C3819579   4.153   3.082   5.600  0.0291  0.1300  0.0962
  172SAPS   H8X19580   4.101   3.180   5.599  0.4386  0.3725  1.1668
  172SAPS   H8Y19581   4.083   3.003   5.566 -2.2354  2.7423 -1.7522
  172SAPS   C3919582   4.273   3.073   5.506 -0.0969  0.6952 -0.3596
  172SAPS   H9X19583   4.296   2.964   5.510  0.8756  0.9175  0.8402
  172SAPS   H9Y19584   4.353   3.126   5.562  0.3806 -1.5028  1.1737
  172SAPS  C31019585   4.225   3.132   5.370 -0.6763  1.0555 -0.3267
  172SAPS  H10X19586   4.219   3.243   5.379  0.9791  1.0942  0.9449
  172SAPS  H10Y19587   4.118   3.106   5.356 -0.4320 -0.9939  1.1959
  172SAPS  C31119588   4.304   3.088   5.242  1.0363  0.3429  0.4706
  172SAPS  H11X19589   4.287   2.978   5.241 -4.7203  0.9266  0.9297
  172SAPS  H11Y19590   4.409   3.122   5.246  1.0412  0.8523 -1.9554
  172SAPS  C31219591   4.234   3.131   5.110 -0.2197  0.4711 -0.0574
  172SAPS  H12X19592   4.228   3.242   5.118 -0.8312  0.4150  0.3951
  172SAPS  H12Y19593   4.140   3.072   5.112 -0.8801  1.5047  0.2376
  172SAPS  C31319594   4.310   3.090   4.984 -0.1240 -0.0556  0.2099
  172SAPS  H13X19595   4.328   2.981   4.970  0.4781 -0.1985  1.8597
  172SAPS  H13Y19596   4.411   3.137   4.979 -1.0758  2.0048 -1.0706
  172SAPS  C31419597   4.215   3.139   4.870  0.3874  0.2382  0.3619
  172SAPS  H14X19598   4.180   3.241   4.898 -0.9297  0.5551 -2.1488
  172SAPS  H14Y19599   4.123   3.076   4.867  0.4806  0.1435 -0.7414
  172SAPS  C31519600   4.276   3.175   4.731 -0.0746 -0.6618  0.1429
  172SAPS  H15X19601   4.370   3.234   4.741  0.6510 -1.4980 -1.3746
  172SAPS  H15Y19602   4.197   3.220   4.668 -0.9766 -2.5388 -0.1274
  172SAPS  C31619603   4.317   3.052   4.638 -0.1892  0.7153 -0.0272
  172SAPS  H16X19604   4.356   2.965   4.696 -0.3619 -0.3747 -1.4796
  172SAPS  H16Y19605   4.223   3.010   4.597  1.0758 -1.4073 -0.9369
  172SAPS  C31719606   4.414   3.087   4.524  0.3834 -0.7186 -0.3237
  172SAPS  H17X19607   4.425   2.997   4.461 -3.3413 -0.8844 -0.9753
  172SAPS  H17Y19608   4.518   3.115   4.551 -0.1185  1.2219 -0.2431
  172SAPS  C31819609   4.357   3.196   4.432 -0.2370 -0.4656 -0.1868
  172SAPS  H18X19610   4.326   3.283   4.495  3.4064  1.5399 -0.8551
  172SAPS  H18Y19611   4.284   3.158   4.357  3.7781 -0.6623 -4.4222
  172SAPS  H18Z19612   4.440   3.243   4.375  0.1318 -0.5600  0.2662
  173SAPS     N19613   6.517   1.440   2.089  0.2316 -0.1277 -0.5388
  173SAPS   HN119614   6.460   1.357   2.117  0.9770 -0.2692  0.6081
  173SAPS   HN219615   6.570   1.482   2.167 -0.1314  1.7649 -1.2433
  173SAPS   HN319616   6.445   1.512   2.066  1.2105  1.1040  0.1760
  173SAPS   C1219617   6.605   1.405   1.979 -0.1913 -0.3793  0.0200
  173SAPS  H12A19618   6.544   1.419   1.891  0.8716 -2.0709 -1.0519
  173SAPS   C1319619   6.728   1.498   1.964  0.4092 -0.0175 -0.0615
  173SAPS  O13A19620   6.746   1.583   2.054  0.0535 -0.7505 -0.3134
  173SAPS  O13B19621   6.807   1.491   1.863 -0.4725  1.1415  0.5769
  173SAPS   C1119622   6.638   1.256   1.987 -0.2681 -0.4343 -0.2486
  173SAPS  H11A19623   6.687   1.226   1.892 -1.8096 -2.8690 -0.3583
  173SAPS  H11B19624   6.544   1.198   1.981 -0.7156  0.1542  0.8423
  173SAPS     P19625   6.786   1.063   2.113 -0.0259  0.3307 -0.1268
  173SAPS   O1319626   6.791   0.987   1.982 -0.7267 -0.3955  0.3757
  173SAPS   O1419627   6.911   1.061   2.200 -0.2600 -0.0416 -0.1404
  173SAPS   O1219628   6.726   1.210   2.097  0.2135  0.5050 -0.5072
  173SAPS   O1119629   6.678   0.984   2.198  0.2660  0.4333 -0.6055
  173SAPS    C119630   6.626   1.031   2.321 -0.2729  0.4464  0.0520
  173SAPS    HA19631   6.604   1.140   2.314  0.8640  0.5948 -2.4415
  173SAPS    HB19632   6.530   0.978   2.337  1.9893 -3.8746  1.0761
  173SAPS    C219633   6.707   1.003   2.445  0.3778  0.2298 -0.6964
  173SAPS    HS19634   6.793   1.072   2.458 -0.2679  1.1733 -1.2966
  173SAPS   O2119635   6.740   0.858   2.448 -0.6552  0.1465 -0.3436
  173SAPS   C2119636   6.866   0.833   2.493  0.2833 -0.2624  0.7105
  173SAPS   O2219637   6.948   0.924   2.509 -0.3374 -0.2912 -0.1697
  173SAPS   C2219638   6.884   0.681   2.531  0.1481 -1.2880 -0.5856
  173SAPS   H2R19639   6.785   0.633   2.548 -0.8946  1.0058  0.1521
  173SAPS   H2S19640   6.912   0.640   2.432  0.4987 -1.0773 -0.5754
  173SAPS    C319641   6.617   1.041   2.570  0.5442 -0.1403 -0.2482
  173SAPS    HX19642   6.519   0.989   2.564  1.4375 -1.7097 -2.2809
  173SAPS    HY19643   6.585   1.147   2.561 -1.2421 -0.4909  1.3524
  173SAPS   O3119644   6.682   1.001   2.691 -0.1688 -0.0892  0.1131
  173SAPS   C3119645   6.758   1.101   2.739 -0.2961 -0.4400 -0.4155
  173SAPS   O3219646   6.777   1.207   2.680 -0.0462  0.0957  0.5767
  173SAPS   C3219647   6.823   1.080   2.876 -0.1380 -0.2492  0.5273
  173SAPS   H2X19648   6.840   1.180   2.923  0.0701 -0.2745  0.5060
  173SAPS   H2Y19649   6.923   1.048   2.841 -0.3326  1.2395 -1.6049
  173SAPS   C2319650   6.986   0.654   2.640 -0.7156 -0.6648  0.1434
  173SAPS   H3R19651   7.077   0.712   2.612 -0.6062 -0.8679  0.0793
  173SAPS   H3S19652   7.019   0.549   2.632  0.9427 -0.0617 -1.5951
  173SAPS   C2419653   6.930   0.692   2.779 -0.3448  0.1750  0.1347
  173SAPS   H4R19654   6.835   0.640   2.804  0.2274  0.0899  2.3758
  173SAPS   H4S19655   6.916   0.802   2.784 -0.7957  0.1805 -1.0268
  173SAPS   C2519656   7.032   0.647   2.883  0.2912 -0.2074  0.3631
  173SAPS   H5R19657   7.137   0.664   2.854  0.9384 -3.7888  0.1048
  173SAPS   C2619658   7.010   0.571   2.990  0.0370  1.0171  0.0164
  173SAPS   H6R19659   7.096   0.531   3.046  0.4686  3.2923  1.0850
  173SAPS   C2719660   6.879   0.547   3.054 -0.6853 -0.1267  0.7231
  173SAPS   H7R19661   6.800   0.600   2.996 -0.3142 -0.7703 -0.4144
  173SAPS   H7S19662   6.881   0.600   3.152 -0.4008  0.2862  0.4995
  173SAPS   C2819663   6.849   0.397   3.061 -0.1762 -0.3944 -0.7959
  173SAPS   H8R19664   6.890   0.335   2.980  1.4184 -1.8358  0.9957
  173SAPS   C2919665   6.816   0.335   3.172 -0.1608  0.2899 -0.1779
  173SAPS   H9R19666   6.811   0.226   3.165 -0.0962  0.3070 -0.4872
  173SAPS  C21019667   6.764   0.411   3.293 -1.0628 -0.1243 -0.4242
  173SAPS  H10R19668   6.697   0.344   3.352  0.5048 -0.6578  0.8422
  173SAPS  H10S19669   6.695   0.492   3.263 -2.4110 -0.8538  0.5722
  173SAPS  C21119670   6.881   0.465   3.377  0.1375 -0.3073  0.2914
  173SAPS  H11R19671   6.974   0.497   3.327 -0.0440  0.8338  0.6440
  173SAPS  C21219672   6.867   0.483   3.509 -0.1863  0.6809  0.7145
  173SAPS  H12R19673   6.947   0.534   3.564 -0.4062  1.4121  0.3742
  173SAPS  C21319674   6.755   0.428   3.589  0.1156  0.0654 -0.2748
  173SAPS  H13R19675   6.710   0.336   3.547  1.6901  0.7275 -3.8144
  173SAPS  H13S19676   6.677   0.507   3.583 -0.8993 -0.9945 -1.8087
  173SAPS  C21419677   6.806   0.404   3.732  0.6573 -0.0999 -0.1021
  173SAPS  H14R19678   6.903   0.354   3.743 -0.1049 -1.5197  0.3964
  173SAPS  C21519679   6.732   0.427   3.844 -0.0636 -0.6095 -0.2662
  173SAPS  H15R19680   6.775   0.398   3.941 -0.5362  0.7980  0.3926
  173SAPS  C21619681   6.596   0.502   3.854 -0.4834 -0.0244 -0.0287
  173SAPS  H16R19682   6.555   0.513   3.751  0.2994 -1.2341 -0.4983
  173SAPS  H16S19683   6.595   0.602   3.902 -5.1672  0.3976 -0.5585
  173SAPS  C21719684   6.496   0.424   3.939  0.0756 -0.0262  0.4270
  173SAPS  H17R19685   6.489   0.323   3.894 -2.4060  1.0148 -1.8052
  173SAPS  H17S19686   6.395   0.469   3.925  0.5697  0.3079 -3.1681
  173SAPS  C21819687   6.525   0.419   4.088  0.9179 -0.2282 -0.2005
  173SAPS  H18R19688   6.517   0.523   4.127 -2.3841  0.1126 -1.4163
  173SAPS  H18S19689   6.628   0.380   4.099  0.4384 -2.1206 -1.8066
  173SAPS  C21919690   6.429   0.323   4.158  0.4863  0.5442 -0.0817
  173SAPS  H19R19691   6.437   0.217   4.123 -0.3066 -0.6426  2.9995
  173SAPS  H19S19692   6.325   0.362   4.154  0.2268 -0.2223 -1.2496
  173SAPS  C22019693   6.469   0.306   4.308  0.5786 -0.4195 -0.0036
  173SAPS  H20R19694   6.388   0.247   4.356 -0.6886  1.0096 -0.3001
  173SAPS  H20S19695   6.462   0.405   4.359  2.0900 -1.1250  1.6714
  173SAPS  H20T19696   6.574   0.278   4.329  0.5013 -0.1461  0.7997
  173SAPS   C3319697   6.756   0.974   2.974  0.4612 -0.0470 -0.2175
  173SAPS   H3X19698   6.740   0.879   2.917  0.3210  0.0307 -0.3080
  173SAPS   H3Y19699   6.660   1.014   3.012  1.1002  1.5122 -0.1941
  173SAPS   C3419700   6.854   0.957   3.089 -0.4248 -0.8927 -0.3192
  173SAPS   H4X19701   6.899   1.055   3.116 -3.3563  0.5724 -0.4080
  173SAPS   H4Y19702   6.945   0.900   3.060  0.1044 -0.4442  0.4099
  173SAPS   C3519703   6.797   0.899   3.219  0.1246  0.0900  0.0228
  173SAPS   H5X19704   6.781   0.790   3.204 -2.0552  0.2302  0.9517
  173SAPS   H5Y19705   6.696   0.938   3.244  0.5352  0.3840  1.2802
  173SAPS   C3619706   6.881   0.913   3.342  0.0515  0.2447 -0.5273
  173SAPS   H6X19707   6.908   1.020   3.349 -0.5981  0.4959 -1.7011
  173SAPS   H6Y19708   6.972   0.850   3.330 -1.1766 -1.8150  0.3609
  173SAPS   C3719709   6.807   0.874   3.467  0.4770 -0.0033  0.7339
  173SAPS   H7X19710   6.761   0.773   3.453  0.1705  0.3312 -0.8307
  173SAPS   H7Y19711   6.730   0.948   3.497 -0.4775 -0.5000 -0.3844
  173SAPS   C3819712   6.906   0.870   3.575  0.1779 -0.1518 -0.2030
  173SAPS   H8X19713   6.943   0.972   3.600 -0.6096  0.0332  0.2498
  173SAPS   H8Y19714   6.999   0.815   3.549  1.3919  1.3043  0.8715
  173SAPS   C3919715   6.852   0.806   3.703  0.8104  0.0834 -0.3187
  173SAPS   H9X19716   6.805   0.708   3.679  0.9227  0.7241 -3.5686
  173SAPS   H9Y19717   6.767   0.868   3.738  0.8298 -0.4815  0.7624
  173SAPS  C31019718   6.960   0.790   3.805 -0.3632 -0.2077 -0.0533
  173SAPS  H10X19719   7.000   0.892   3.825 -1.1996  0.3442 -1.0627
  173SAPS  H10Y19720   7.043   0.736   3.755  0.5164  2.1188 -1.2592
  173SAPS  C31119721   6.920   0.744   3.950 -0.1675 -0.9553 -0.3154
  173SAPS  H11X19722   6.879   0.643   3.925  1.4379 -1.7436  0.0850
  173SAPS  H11Y19723   6.844   0.812   3.994  0.0576 -1.3418  0.7067
  173SAPS  C31219724   7.038   0.719   4.047 -0.2226  0.5387 -0.2191
  173SAPS  H12X19725   7.110   0.804   4.039  1.7548 -1.0602 -0.0408
  173SAPS  H12Y19726   7.091   0.627   4.014 -0.8549  0.5885 -1.4223
  173SAPS  C31319727   7.005   0.703   4.192  0.8321  0.3428  0.7383
  173SAPS  H13X19728   6.953   0.793   4.229 -2.4203 -1.0098 -0.2463
  173SAPS  H13Y19729   7.102   0.682   4.244  0.6220 -0.1274  0.9541
  173SAPS  C31419730   6.910   0.580   4.207 -0.0733 -0.1674 -0.6028
  173SAPS  H14X19731   6.930   0.497   4.135  1.2032 -0.0610 -0.4023
  173SAPS  H14Y19732   6.806   0.606   4.178 -0.9714 -3.3134 -0.5085
  173SAPS  C31519733   6.930   0.534   4.357 -0.5131 -0.5213 -0.4630
  173SAPS  H15X19734   6.929   0.622   4.424 -1.5631  1.6331 -3.0865
  173SAPS  H15Y19735   7.028   0.482   4.362 -0.0901  0.4169  2.4761
  173SAPS  C31619736   6.821   0.430   4.400 -0.1953  0.6344 -0.1360
  173SAPS  H16X19737   6.815   0.353   4.321 -0.3766 -0.4108  0.8798
  173SAPS  H16Y19738   6.721   0.474   4.421 -0.3928 -0.2609  0.9120
  173SAPS  C31719739   6.867   0.352   4.527  0.0948  0.6593 -0.0902
  173SAPS  H17X19740   6.768   0.336   4.575  0.8920 -0.6326  1.1810
  173SAPS  H17Y19741   6.929   0.417   4.592 -0.2356  0.3794  0.5087
  173SAPS  C31819742   6.922   0.218   4.496 -0.1789 -0.2986  0.1194
  173SAPS  H18X19743   6.832   0.169   4.452 -0.8915  2.1564 -1.3640
  173SAPS  H18Y19744   6.955   0.167   4.590  0.5847 -0.5254 -0.2683
  173SAPS  H18Z19745   7.007   0.232   4.427 -1.2190  1.2150 -0.9163
  174SAPS     N19746   2.990   6.046   1.931  0.5342 -0.0084  0.3948
  174SAPS   HN119747   3.092   6.032   1.940  0.4798 -1.2355 -0.6960
  174SAPS   HN219748   2.987   6.131   1.870  0.8301 -0.3246 -0.0583
  174SAPS   HN319749   2.957   6.069   2.027 -0.7645 -1.7319  0.4001
  174SAPS   C1219750   2.933   5.934   1.862 -0.3330  0.1509 -0.4183
  174SAPS  H12A19751   2.825   5.941   1.866 -0.2851  1.4674 -0.7594
  174SAPS   C1319752   2.988   5.928   1.710 -0.0100  0.2050 -0.1406
  174SAPS  O13A19753   3.027   6.039   1.664  0.8348  0.3815  0.1303
  174SAPS  O13B19754   2.958   5.824   1.645  0.3622 -0.3771 -0.1746
  174SAPS   C1119755   2.991   5.811   1.950  0.1982  0.0011  0.5641
  174SAPS  H11A19756   3.099   5.820   1.927  0.2695  0.4174  1.0474
  174SAPS  H11B19757   2.961   5.716   1.901  0.1202 -0.0864  0.7818
  174SAPS     P19758   2.990   5.714   2.199 -0.3238 -0.9722  0.4014
  174SAPS   O1319759   2.883   5.721   2.305  0.3709  0.7394 -0.1755
  174SAPS   O1419760   3.016   5.596   2.119 -0.3334 -0.3662 -0.1111
  174SAPS   O1219761   2.964   5.832   2.092 -0.2946  0.7008  0.6248
  174SAPS   O1119762   3.131   5.763   2.263  0.5975  0.2142  0.3132
  174SAPS    C119763   3.140   5.895   2.315  0.6242  0.3356 -0.2435
  174SAPS    HA19764   3.097   5.977   2.254 -0.2924  0.4821  0.5582
  174SAPS    HB19765   3.115   5.905   2.423 -0.5972 -2.1434 -0.2305
  174SAPS    C219766   3.282   5.935   2.319 -0.4096 -0.0434  0.5220
  174SAPS    HS19767   3.321   5.934   2.214  1.3411 -1.9907  1.1256
  174SAPS   O2119768   3.350   5.839   2.396  1.2135  0.0352 -0.3952
  174SAPS   C2119769   3.480   5.843   2.386  0.2413  0.3494  0.8993
  174SAPS   O2219770   3.545   5.918   2.315  0.0298  0.5781 -0.2603
  174SAPS   C2219771   3.529   5.736   2.473 -0.2320 -0.0393 -1.1463
  174SAPS   H2R19772   3.441   5.676   2.505 -0.6747  1.6094  0.9566
  174SAPS   H2S19773   3.601   5.672   2.417  1.3703  0.0181  0.7399
  174SAPS    C319774   3.306   6.079   2.377 -0.4878 -0.6858  0.6024
  174SAPS    HX19775   3.244   6.148   2.315 -0.5729  0.1699  1.6205
  174SAPS    HY19776   3.410   6.112   2.359  0.4959 -3.2130  1.2166
  174SAPS   O3119777   3.252   6.093   2.509 -0.0669 -0.2477  0.2882
  174SAPS   C3119778   3.338   6.103   2.605  0.0344 -0.0476  0.3388
  174SAPS   O3219779   3.461   6.099   2.598  0.3269  0.3508  0.1753
  174SAPS   C3219780   3.261   6.119   2.735  0.1262 -0.9989  1.0468
  174SAPS   H2X19781   3.161   6.071   2.730  0.8993 -2.5611 -2.7859
  174SAPS   H2Y19782   3.247   6.228   2.753 -0.1674 -0.9444  0.4988
  174SAPS   C2319783   3.584   5.778   2.612  0.5230 -0.4626  0.2699
  174SAPS   H3R19784   3.501   5.816   2.675 -0.6158  0.0687 -1.4662
  174SAPS   H3S19785   3.644   5.870   2.591  1.5227 -0.6360  2.1618
  174SAPS   C2419786   3.653   5.659   2.683  0.6035  0.0427 -0.0811
  174SAPS   H4R19787   3.734   5.697   2.749  0.0245  0.2282  0.5317
  174SAPS   H4S19788   3.709   5.596   2.610  0.9917 -1.0041  1.0927
  174SAPS   C2519789   3.565   5.577   2.773  0.0631 -0.4257  0.8102
  174SAPS   H5R19790   3.484   5.527   2.718  0.0388  0.6792 -0.1844
  174SAPS   C2619791   3.568   5.565   2.914 -0.3814  0.0904  0.1948
  174SAPS   H6R19792   3.484   5.512   2.962  0.5457 -0.4140  1.2776
  174SAPS   C2719793   3.650   5.635   3.018  0.1189 -0.1676  0.1051
  174SAPS   H7R19794   3.722   5.700   2.965 -0.4643 -0.4671 -1.0998
  174SAPS   H7S19795   3.707   5.561   3.078  0.6125 -1.3309 -1.7237
  174SAPS   C2819796   3.570   5.725   3.105 -0.3217  0.5209 -0.2578
  174SAPS   H8R19797   3.554   5.826   3.064  0.6428  0.3181 -1.1698
  174SAPS   C2919798   3.526   5.700   3.230 -0.0564  0.5452 -0.1130
  174SAPS   H9R19799   3.459   5.770   3.281 -0.6467 -1.2422  1.6927
  174SAPS  C21019800   3.536   5.575   3.312 -0.5947  0.0723  1.0687
  174SAPS  H10R19801   3.607   5.510   3.257 -1.7452 -0.4678  0.1775
  174SAPS  H10S19802   3.443   5.515   3.322 -0.5554  0.0743  1.4496
  174SAPS  C21119803   3.584   5.604   3.447  0.4196  0.1315 -0.8063
  174SAPS  H11R19804   3.694   5.615   3.449  0.6149 -1.6290 -0.4004
  174SAPS  C21219805   3.525   5.606   3.570 -0.2930  0.4438 -0.5423
  174SAPS  H12R19806   3.588   5.639   3.653  1.0129 -2.9293 -0.0430
  174SAPS  C21319807   3.384   5.574   3.619  0.2865 -0.4766 -0.0723
  174SAPS  H13R19808   3.329   5.584   3.523  3.3313 -1.6375 -2.1274
  174SAPS  H13S19809   3.334   5.652   3.680  1.0924 -0.6000  0.7808
  174SAPS  C21419810   3.385   5.435   3.667 -0.3487 -0.1192  0.1714
  174SAPS  H14R19811   3.379   5.364   3.583  0.0974 -0.3515  0.3381
  174SAPS  C21519812   3.369   5.393   3.798  0.7983  0.1160  0.6135
  174SAPS  H15R19813   3.379   5.287   3.827  0.2545 -0.9290 -2.5584
  174SAPS  C21619814   3.365   5.485   3.920  0.2576  0.0300  0.2495
  174SAPS  H16R19815   3.269   5.464   3.971  0.3065  2.7990  1.6289
  174SAPS  H16S19816   3.365   5.595   3.908  0.9058  0.1856  1.5551
  174SAPS  C21719817   3.476   5.468   4.025  0.1513  0.5836 -0.0584
  174SAPS  H17R19818   3.572   5.486   3.971 -0.3154  2.4085 -0.3391
  174SAPS  H17S19819   3.480   5.362   4.060 -0.2309 -0.3492 -2.6053
  174SAPS  C21819820   3.471   5.561   4.144  1.3735 -0.1568 -0.3710
  174SAPS  H18R19821   3.367   5.558   4.183  1.0644  0.1258 -1.1537
  174SAPS  H18S19822   3.498   5.659   4.100  0.5206  1.2998  2.1264
  174SAPS  C21919823   3.568   5.529   4.256 -0.1316 -0.1684  0.0077
  174SAPS  H19R19824   3.570   5.602   4.340 -0.9204 -0.1672  0.0347
  174SAPS  H19S19825   3.672   5.540   4.220 -0.2937 -1.2757 -0.8508
  174SAPS  C22019826   3.548   5.403   4.327  0.6033  0.9037 -0.7010
  174SAPS  H20R19827   3.641   5.386   4.386  1.8098 -0.6448 -2.9330
  174SAPS  H20S19828   3.546   5.318   4.256  1.6380  0.1973  0.0834
  174SAPS  H20T19829   3.453   5.407   4.385  0.2476 -0.9549 -1.1040
  174SAPS   C3319830   3.341   6.052   2.846 -0.5156  0.3036  0.4654
  174SAPS   H3X19831   3.439   6.101   2.864 -1.3630  1.9635  0.7470
  174SAPS   H3Y19832   3.358   5.943   2.832 -1.4769 -0.0714  2.0051
  174SAPS   C3419833   3.264   6.068   2.975  0.7141 -0.1990 -0.9661
  174SAPS   H4X19834   3.183   5.993   2.965  1.7761 -1.2231 -2.0902
  174SAPS   H4Y19835   3.220   6.170   2.983  0.9774 -0.0731 -1.1166
  174SAPS   C3519836   3.342   6.052   3.102  0.4301  0.0757  0.0987
  174SAPS   H5X19837   3.421   6.129   3.112 -1.6064  2.5572 -1.5778
  174SAPS   H5Y19838   3.389   5.951   3.106  1.4089  0.5409  0.7496
  174SAPS   C3619839   3.259   6.082   3.233 -0.3672 -1.4719 -0.2096
  174SAPS   H6X19840   3.173   6.011   3.228 -1.3010 -0.5633  1.6979
  174SAPS   H6Y19841   3.225   6.188   3.238  2.5330 -0.5060  1.4016
  174SAPS   C3719842   3.333   6.050   3.364 -0.1729  0.5992  0.8005
  174SAPS   H7X19843   3.437   6.090   3.367 -1.1499  3.2955  1.9223
  174SAPS   H7Y19844   3.331   5.940   3.371 -2.5699  0.3363 -1.8910
  174SAPS   C3819845   3.257   6.100   3.489 -0.4314  0.4257 -0.2098
  174SAPS   H8X19846   3.156   6.053   3.488  0.4624 -1.7250  2.0862
  174SAPS   H8Y19847   3.244   6.210   3.496 -0.5854  0.3326  1.1936
  174SAPS   C3919848   3.324   6.070   3.626 -0.2138  0.3824 -0.1059
  174SAPS   H9X19849   3.408   5.998   3.612 -0.3964  0.4766 -1.9078
  174SAPS   H9Y19850   3.250   6.024   3.695  1.6139  0.6313  2.1584
  174SAPS  C31019851   3.376   6.199   3.696 -0.2873 -0.8982 -0.2837
  174SAPS  H10X19852   3.305   6.283   3.682  3.6419  2.8199 -0.2158
  174SAPS  H10Y19853   3.472   6.231   3.649  0.0199  2.2303  2.0612
  174SAPS  C31119854   3.411   6.174   3.841  0.5894 -0.4988 -0.0245
  174SAPS  H11X19855   3.449   6.070   3.851  0.8213 -0.4361 -0.2504
  174SAPS  H11Y19856   3.323   6.171   3.909  0.2135 -0.2971 -0.4990
  174SAPS  C31219857   3.519   6.271   3.889  0.9129  0.6861  0.5557
  174SAPS  H12X19858   3.497   6.368   3.840 -1.8015 -0.8854 -1.7025
  174SAPS  H12Y19859   3.620   6.233   3.864  0.9233 -0.9017  2.7519
  174SAPS  C31319860   3.521   6.275   4.046 -0.3506  0.1814  1.3954
  174SAPS  H13X19861   3.518   6.166   4.067 -0.3769 -0.4663 -1.5835
  174SAPS  H13Y19862   3.429   6.322   4.087 -1.2490  0.0641 -0.3938
  174SAPS  C31419863   3.651   6.336   4.103  0.1598  0.0933  0.5817
  174SAPS  H14X19864   3.745   6.291   4.063 -0.7352  1.2908 -3.3152
  174SAPS  H14Y19865   3.647   6.321   4.213  1.1958  2.7926  1.0578
  174SAPS  C31519866   3.648   6.486   4.081  1.2325 -0.2537 -0.3468
  174SAPS  H15X19867   3.552   6.535   4.111  0.8231 -0.3881 -1.3934
  174SAPS  H15Y19868   3.659   6.503   3.972 -1.0963 -0.4268 -0.6695
  174SAPS  C31619869   3.766   6.562   4.146 -1.0432 -0.0547  0.3893
  174SAPS  H16X19870   3.777   6.665   4.107  1.5554 -1.0098 -1.7163
  174SAPS  H16Y19871   3.854   6.501   4.118 -0.2515  0.5202  1.5802
  174SAPS  C31719872   3.763   6.566   4.301 -0.2781 -0.2943  0.0089
  174SAPS  H17X19873   3.729   6.468   4.341  0.2139 -0.2754  0.4896
  174SAPS  H17Y19874   3.691   6.637   4.347  0.2230 -1.4157  2.7413
  174SAPS  C31819875   3.901   6.599   4.361 -0.1961  0.5753 -0.2629
  174SAPS  H18X19876   3.912   6.707   4.335  0.4166  0.5951  0.0508
  174SAPS  H18Y19877   3.978   6.542   4.305 -0.2022  0.5596 -0.2548
  174SAPS  H18Z19878   3.905   6.583   4.471 -2.4740 -1.5909 -0.4244
  175SAPS     N19879   6.748   5.366   2.015 -0.4354 -0.4873 -0.3096
  175SAPS   HN119880   6.656   5.354   1.968  0.1512 -0.3785 -1.5120
  175SAPS   HN219881   6.805   5.279   2.018 -1.8106 -1.4329  2.7343
  175SAPS   HN319882   6.732   5.399   2.113 -0.8571  1.1944 -0.9123
  175SAPS   C1219883   6.827   5.465   1.933  0.4995  0.1739 -0.7410
  175SAPS  H12A19884   6.848   5.437   1.831 -0.2786  1.5806 -1.3278
  175SAPS   C1319885   6.749   5.599   1.911 -0.1612  0.0509 -0.3322
  175SAPS  O13A19886   6.631   5.628   1.951  0.6311 -0.2543  0.1741
  175SAPS  O13B19887   6.819   5.692   1.873 -0.1073 -0.7297 -0.0771
  175SAPS   C1119888   6.965   5.486   1.993 -0.7287 -0.4848  0.0708
  175SAPS  H11A19889   6.960   5.526   2.096 -0.5522  2.2931 -0.9126
  175SAPS  H11B19890   7.011   5.565   1.930 -1.3131 -0.7124 -0.6544
  175SAPS     P19891   7.188   5.373   2.003  0.0445  0.3019  0.4599
  175SAPS   O1319892   7.261   5.334   1.883  0.0450 -0.3295 -0.5083
  175SAPS   O1419893   7.223   5.497   2.080  0.2881  0.4618  0.3316
  175SAPS   O1219894   7.025   5.366   1.982 -0.5016  0.7061  0.6918
  175SAPS   O1119895   7.203   5.236   2.097  0.5141 -0.4342 -0.0159
  175SAPS    C119896   7.108   5.200   2.191  0.1475 -0.3252 -0.4491
  175SAPS    HA19897   7.004   5.216   2.157  0.1586 -1.2267 -0.9402
  175SAPS    HB19898   7.104   5.089   2.199 -0.1534 -0.1969  2.0621
  175SAPS    C219899   7.131   5.258   2.331 -0.3721  0.2530  0.0384
  175SAPS    HS19900   7.081   5.357   2.336 -3.5074 -1.2197  0.4919
  175SAPS   O2119901   7.271   5.260   2.359  0.1830 -0.1574 -0.2154
  175SAPS   C2119902   7.322   5.373   2.404 -0.0895 -0.2905  0.1393
  175SAPS   O2219903   7.266   5.481   2.411  0.2721  0.1666 -0.0147
  175SAPS   C2219904   7.463   5.350   2.455 -0.2191 -0.4551  0.2529
  175SAPS   H2R19905   7.455   5.268   2.530 -2.3090  1.6963  2.5775
  175SAPS   H2S19906   7.516   5.305   2.369 -1.1090 -1.5211  0.2329
  175SAPS    C319907   7.047   5.180   2.435 -0.2304 -0.6175 -0.4001
  175SAPS    HX19908   7.097   5.083   2.459 -0.7489 -0.5540  0.9892
  175SAPS    HY19909   6.948   5.153   2.393 -0.7844  0.6709  0.0343
  175SAPS   O3119910   7.033   5.269   2.553 -0.4694  0.5563 -0.4764
  175SAPS   C3119911   7.139   5.256   2.642 -0.2139 -0.6171 -0.2228
  175SAPS   O3219912   7.215   5.164   2.647 -0.4517  0.0286  0.1005
  175SAPS   C3219913   7.116   5.370   2.748 -1.1279 -0.1830  0.4434
  175SAPS   H2X19914   7.008   5.367   2.777 -1.7991 -0.2836 -1.8989
  175SAPS   H2Y19915   7.125   5.473   2.706 -1.7012  0.3627  1.6048
  175SAPS   C2319916   7.526   5.483   2.501 -0.1875  0.4104  0.3969
  175SAPS   H3R19917   7.478   5.524   2.592  1.2853  2.9161  0.1229
  175SAPS   H3S19918   7.508   5.567   2.430  0.7898  1.5538  1.4613
  175SAPS   C2419919   7.677   5.476   2.533  0.8743 -0.4360 -0.2099
  175SAPS   H4R19920   7.696   5.574   2.580  0.8080  0.5509 -2.1459
  175SAPS   H4S19921   7.734   5.466   2.438 -1.5348  0.3908 -1.8413
  175SAPS   C2519922   7.712   5.354   2.616 -0.2204 -0.0856 -0.6079
  175SAPS   H5R19923   7.680   5.255   2.580 -1.6367 -0.2099  0.8618
  175SAPS   C2619924   7.767   5.356   2.737 -0.2435  0.3079 -0.3837
  175SAPS   H6R19925   7.818   5.264   2.770  0.5330  0.4617 -1.1250
  175SAPS   C2719926   7.808   5.485   2.809 -0.5687  0.2128 -0.0204
  175SAPS   H7R19927   7.866   5.549   2.739 -1.0429  0.4306 -0.2237
  175SAPS   H7S19928   7.878   5.452   2.889 -0.7388  0.4180  0.2131
  175SAPS   C2819929   7.693   5.558   2.864  0.1564 -0.3174 -0.0547
  175SAPS   H8R19930   7.607   5.564   2.796 -0.2740 -0.4629  0.4705
  175SAPS   C2919931   7.689   5.618   2.986 -0.4984  0.7970 -0.0460
  175SAPS   H9R19932   7.599   5.676   3.010 -0.0082  2.3279 -1.6592
  175SAPS  C21019933   7.788   5.607   3.099  0.0812 -0.3233 -0.0150
  175SAPS  H10R19934   7.817   5.713   3.113 -0.3663 -0.2915  0.6891
  175SAPS  H10S19935   7.881   5.558   3.061  0.1300 -0.4653  0.2871
  175SAPS  C21119936   7.740   5.528   3.211 -0.5222  0.3514 -1.2110
  175SAPS  H11R19937   7.724   5.421   3.188  1.6713  0.0259 -1.3944
  175SAPS  C21219938   7.718   5.553   3.342 -0.8241  0.0487 -0.5132
  175SAPS  H12R19939   7.684   5.474   3.411 -1.3920  1.5110  0.9481
  175SAPS  C21319940   7.746   5.684   3.417  0.2238  0.8228  0.8347
  175SAPS  H13R19941   7.664   5.701   3.489 -2.2342  2.5629 -2.1423
  175SAPS  H13S19942   7.746   5.770   3.346 -0.3957  0.8812  0.9036
  175SAPS  C21419943   7.889   5.668   3.468 -0.8446  0.4920 -0.2399
  175SAPS  H14R19944   7.967   5.696   3.396  1.3140  0.8144  2.1125
  175SAPS  C21519945   7.927   5.620   3.590 -0.0823  0.1038  0.2248
  175SAPS  H15R19946   8.032   5.608   3.620 -0.2836 -0.0987  0.8829
  175SAPS  C21619947   7.831   5.576   3.700  0.7150 -0.7491  0.4835
  175SAPS  H16R19948   7.799   5.472   3.677 -1.8593 -0.1683  1.0682
  175SAPS  H16S19949   7.740   5.639   3.700  0.9350 -0.4016  1.6709
  175SAPS  C21719950   7.880   5.580   3.842  0.0945 -0.5415 -0.8141
  175SAPS  H17R19951   7.928   5.677   3.866 -1.1022 -0.0514 -0.3458
  175SAPS  H17S19952   7.969   5.513   3.851  0.2162 -0.1822  0.9664
  175SAPS  C21819953   7.781   5.537   3.948 -0.1058  0.1981 -0.3368
  175SAPS  H18R19954   7.723   5.447   3.916 -0.1756 -0.1639  0.7738
  175SAPS  H18S19955   7.712   5.620   3.975 -0.0053  0.9266 -2.1746
  175SAPS  C21919956   7.856   5.489   4.077 -0.2216 -0.2891 -0.2224
  175SAPS  H19R19957   7.928   5.562   4.121 -1.5776  0.6601  0.5237
  175SAPS  H19S19958   7.922   5.408   4.042  1.8248  1.0425  0.3457
  175SAPS  C22019959   7.759   5.427   4.175 -0.3300 -0.3338 -0.4409
  175SAPS  H20R19960   7.712   5.494   4.250  0.3169 -1.2993  0.8619
  175SAPS  H20S19961   7.815   5.354   4.237 -0.1121  0.9891  1.0011
  175SAPS  H20T19962   7.673   5.376   4.128 -1.2772  1.2336 -0.5021
  175SAPS   C3319963   7.213   5.350   2.863 -0.3439 -0.0216 -0.1169
  175SAPS   H3X19964   7.319   5.376   2.839 -0.4793  1.4781  0.7347
  175SAPS   H3Y19965   7.219   5.245   2.897 -0.9611  0.1765  0.6370
  175SAPS   C3419966   7.176   5.449   2.980  0.2041  0.5902  0.0593
  175SAPS   H4X19967   7.066   5.453   2.989  0.2327 -0.2815  0.8802
  175SAPS   H4Y19968   7.214   5.548   2.947 -1.4943  1.3091  0.1665
  175SAPS   C3519969   7.238   5.412   3.117  0.1040 -0.2451  0.2783
  175SAPS   H5X19970   7.349   5.419   3.112  0.1186  0.2386  1.0722
  175SAPS   H5Y19971   7.203   5.310   3.142 -3.7510  0.5890 -0.9934
  175SAPS   C3619972   7.205   5.509   3.233  0.1231  0.4055 -0.0870
  175SAPS   H6X19973   7.095   5.513   3.250  0.3139  0.9302  1.1606
  175SAPS   H6Y19974   7.239   5.609   3.196  0.0750 -0.8049 -3.8310
  175SAPS   C3719975   7.273   5.456   3.363 -0.1165 -0.4622  0.1648
  175SAPS   H7X19976   7.377   5.425   3.339  0.9357  1.0690  2.3963
  175SAPS   H7Y19977   7.212   5.370   3.400 -1.4160 -0.2225 -1.3284
  175SAPS   C3819978   7.265   5.569   3.467  0.3476 -0.1082 -0.1968
  175SAPS   H8X19979   7.157   5.585   3.483  0.4263 -0.6399  0.9771
  175SAPS   H8Y19980   7.319   5.664   3.445 -1.9407  1.0418 -1.1061
  175SAPS   C3919981   7.333   5.526   3.597 -0.5689 -0.3779  0.5460
  175SAPS   H9X19982   7.443   5.516   3.588 -0.6811 -0.2006 -1.5869
  175SAPS   H9Y19983   7.292   5.427   3.627 -1.7311  0.6155  2.4281
  175SAPS  C31019984   7.319   5.627   3.712  0.2666  0.1418 -0.7691
  175SAPS  H10X19985   7.212   5.657   3.721 -0.1460 -1.7000  1.3493
  175SAPS  H10Y19986   7.381   5.719   3.705  0.2082  0.4924  1.9706
  175SAPS  C31119987   7.360   5.569   3.847 -0.2152  0.7082  0.6718
  175SAPS  H11X19988   7.467   5.542   3.839  0.4962  3.5725 -1.0280
  175SAPS  H11Y19989   7.307   5.475   3.871 -3.1621  2.0008 -0.2621
  175SAPS  C31219990   7.349   5.671   3.960 -0.3501  0.1589 -0.6268
  175SAPS  H12X19991   7.245   5.708   3.975  0.4618  2.2221  0.2859
  175SAPS  H12Y19992   7.422   5.752   3.943  0.4081 -0.4016 -0.1370
  175SAPS  C31319993   7.406   5.619   4.092 -0.5648 -0.3771  0.0428
  175SAPS  H13X19994   7.417   5.702   4.165  0.6563 -0.7102  0.2564
  175SAPS  H13Y19995   7.512   5.592   4.074 -0.3605  0.7774 -0.5807
  175SAPS  C31419996   7.325   5.516   4.167  0.5927  0.6045  0.2947
  175SAPS  H14X19997   7.326   5.427   4.101 -3.9394 -0.6666  1.5848
  175SAPS  H14Y19998   7.218   5.541   4.183  0.6482  0.9970  0.0745
  175SAPS  C31519999   7.366   5.500   4.313  0.5185 -0.5402  0.3860
  175SAPS  H15X20000   7.368   5.602   4.355 -0.1528 -0.2279 -0.3270
  175SAPS  H15Y20001   7.466   5.456   4.336 -0.0583 -1.7133  0.7510
  175SAPS  C31620002   7.258   5.430   4.397  0.0280  0.2054 -0.2155
  175SAPS  H16X20003   7.269   5.319   4.401 -2.0806 -0.1190 -1.7797
  175SAPS  H16Y20004   7.158   5.453   4.356  0.0384  0.4829 -0.0890
  175SAPS  C31720005   7.240   5.476   4.538  0.3715  0.3213 -0.0816
  175SAPS  H17X20006   7.234   5.587   4.539 -1.7480  0.2445  0.1351
  175SAPS  H17Y20007   7.325   5.438   4.599  0.2691 -0.2313 -0.2756
  175SAPS  C31820008   7.111   5.424   4.608 -0.3496  0.0244  0.1142
  175SAPS  H18X20009   7.097   5.314   4.605  2.6071 -0.4199 -0.0978
  175SAPS  H18Y20010   7.024   5.454   4.545 -0.2635 -0.1173 -0.0723
  175SAPS  H18Z20011   7.097   5.468   4.709  2.3381  1.6633 -0.1442
  176SAPS     N20012   1.020   3.174   2.239 -0.5376  0.8265 -0.2895
  176SAPS   HN120013   0.921   3.174   2.269 -0.7224  0.6097 -0.8846
  176SAPS   HN220014   1.021   3.188   2.136 -0.0600 -0.4342 -0.4706
  176SAPS   HN320015   1.052   3.078   2.261 -0.1148  1.0121 -0.0850
  176SAPS   C1220016   1.092   3.284   2.319 -0.6734  0.5185 -0.1097
  176SAPS  H12A20017   1.096   3.244   2.419  0.1648 -2.5478 -1.2718
  176SAPS   C1320018   1.234   3.330   2.267 -0.1578 -0.1693 -0.1955
  176SAPS  O13A20019   1.270   3.290   2.156 -0.6226 -0.5198 -0.3364
  176SAPS  O13B20020   1.297   3.421   2.332 -0.1740 -0.0366  0.0454
  176SAPS   C1120021   1.002   3.412   2.325  0.7466 -0.0707  0.3435
  176SAPS  H11A20022   0.990   3.446   2.220  1.8368  0.2840  0.3174
  176SAPS  H11B20023   1.054   3.491   2.384  2.1604  0.4662 -1.5178
  176SAPS     P20024   0.825   3.371   2.523  0.0641 -0.1409  0.2367
  176SAPS   O1320025   0.685   3.329   2.536  0.3614  0.3939 -0.5116
  176SAPS   O1420026   0.915   3.278   2.593  0.3564 -0.6097  0.2149
  176SAPS   O1220027   0.871   3.374   2.373 -0.4890  0.4159  0.3792
  176SAPS   O1120028   0.838   3.519   2.573 -1.0945  0.4792 -0.1281
  176SAPS    C120029   0.745   3.624   2.536 -0.5947  0.2054  1.0146
  176SAPS    HA20030   0.804   3.714   2.508  0.5012 -0.0564  2.3793
  176SAPS    HB20031   0.683   3.595   2.449 -0.0337 -1.5169  1.1591
  176SAPS    C220032   0.655   3.657   2.658 -0.3007  0.3523 -0.3360
  176SAPS    HS20033   0.598   3.744   2.617  0.5379  0.7000 -0.7982
  176SAPS   O2120034   0.742   3.697   2.766  0.0319  0.2646  0.8277
  176SAPS   C2120035   0.795   3.815   2.750  0.0425 -0.5156 -1.0377
  176SAPS   O2220036   0.773   3.893   2.660 -0.0904  0.2424 -0.0399
  176SAPS   C2220037   0.879   3.853   2.878  0.0276  0.0959  0.2641
  176SAPS   H2R20038   0.815   3.825   2.964 -1.3172  1.3354 -0.2884
  176SAPS   H2S20039   0.964   3.784   2.860 -1.0824 -0.8718 -1.6788
  176SAPS    C320040   0.566   3.546   2.707  0.2502  0.8298 -0.0377
  176SAPS    HX20041   0.623   3.462   2.752 -1.2195 -1.1055 -1.6531
  176SAPS    HY20042   0.504   3.514   2.621  0.5093  1.1163 -0.3359
  176SAPS   O3120043   0.476   3.598   2.809  0.4711  0.0547  0.0071
  176SAPS   C3120044   0.365   3.540   2.829  0.7101  0.0845  0.1021
  176SAPS   O3220045   0.326   3.437   2.770  0.9748  0.0867 -0.2247
  176SAPS   C3220046   0.278   3.619   2.927 -0.9616  0.7539 -0.5461
  176SAPS   H2X20047   0.178   3.570   2.927 -0.4696 -0.3396  0.9392
  176SAPS   H2Y20048   0.275   3.724   2.889 -0.8663  0.4468 -1.4361
  176SAPS   C2320049   0.912   4.007   2.870  0.0016  0.5193  0.2795
  176SAPS   H3R20050   0.823   4.047   2.817 -0.2981 -2.7739 -1.9652
  176SAPS   H3S20051   1.003   4.024   2.808  0.4600  1.6988  1.2407
  176SAPS   C2420052   0.923   4.082   3.002  0.1628 -0.0826  0.2311
  176SAPS   H4R20053   0.829   4.069   3.060 -0.7404 -0.5896 -1.2759
  176SAPS   H4S20054   0.927   4.189   2.972  2.9559 -0.2457 -0.2035
  176SAPS   C2520055   1.046   4.051   3.078  0.1419 -0.3015  0.2763
  176SAPS   H5R20056   1.141   4.086   3.036 -1.6599  2.3621 -2.0305
  176SAPS   C2620057   1.049   4.001   3.202  0.3420  0.4989  0.4148
  176SAPS   H6R20058   1.144   3.966   3.244  0.2318 -3.0334 -1.8481
  176SAPS   C2720059   0.931   3.952   3.276 -0.6661  0.1762  0.1110
  176SAPS   H7R20060   0.859   3.895   3.212 -2.5587  2.1019  0.4190
  176SAPS   H7S20061   0.869   4.031   3.323 -1.6821 -0.9808  0.8003
  176SAPS   C2820062   0.967   3.849   3.382 -0.2394 -0.2929 -0.5384
  176SAPS   H8R20063   0.972   3.749   3.337  1.5337  0.2415 -1.6512
  176SAPS   C2920064   0.959   3.867   3.517 -0.4324  0.4459  0.5803
  176SAPS   H9R20065   0.980   3.779   3.579  0.3937  0.8481  0.8779
  176SAPS  C21020066   0.927   3.995   3.589 -0.6122 -0.0178 -0.5438
  176SAPS  H10R20067   0.860   3.964   3.672  0.1810 -3.9185 -1.1963
  176SAPS  H10S20068   0.882   4.078   3.530  1.1791 -1.8319 -4.9231
  176SAPS  C21120069   1.052   4.058   3.637  0.2179 -0.0446 -1.5882
  176SAPS  H11R20070   1.122   4.088   3.557  1.5221  0.0411 -0.4470
  176SAPS  C21220071   1.090   4.086   3.766 -0.1456 -0.0129 -0.3389
  176SAPS  H12R20072   1.171   4.158   3.783  0.4710 -0.7612 -0.0638
  176SAPS  C21320073   1.010   4.048   3.891  0.1147 -0.3711 -0.2494
  176SAPS  H13R20074   1.080   3.995   3.960 -0.5291 -0.4335  0.3632
  176SAPS  H13S20075   0.927   3.978   3.867 -0.1899 -0.3805  0.8019
  176SAPS  C21420076   0.959   4.173   3.963 -0.5001  0.4587  0.2386
  176SAPS  H14R20077   0.983   4.273   3.924 -0.7360 -0.0144 -1.1667
  176SAPS  C21520078   0.874   4.166   4.064 -0.5214  0.3215 -0.2725
  176SAPS  H15R20079   0.854   4.269   4.099  2.5679  1.2425 -0.9045
  176SAPS  C21620080   0.804   4.047   4.122 -0.6198 -0.6188 -0.4019
  176SAPS  H16R20081   0.818   3.950   4.069  2.5319 -0.9137  0.7399
  176SAPS  H16S20082   0.693   4.054   4.119 -0.7184 -1.1907  0.9527
  176SAPS  C21720083   0.837   4.035   4.277  0.3139 -0.2417 -0.5964
  176SAPS  H17R20084   0.755   3.966   4.309 -0.0068  0.9912  1.3488
  176SAPS  H17S20085   0.828   4.132   4.330  2.0421  0.7795 -2.0661
  176SAPS  C21820086   0.973   3.972   4.287  0.3481  0.0338 -0.0494
  176SAPS  H18R20087   1.046   4.057   4.278  0.2305  0.2087  0.6514
  176SAPS  H18S20088   0.979   3.919   4.189 -0.8929  0.3706 -0.3215
  176SAPS  C21920089   0.984   3.892   4.413  0.6480  0.1743 -0.1506
  176SAPS  H19R20090   1.072   3.824   4.414 -1.6644 -3.0683 -0.6379
  176SAPS  H19S20091   0.900   3.819   4.416  2.1227 -1.5635  0.6685
  176SAPS  C22020092   0.993   3.972   4.540 -0.4761 -0.3175  1.0018
  176SAPS  H20R20093   1.003   3.907   4.629 -0.4790 -1.6351  0.0652
  176SAPS  H20S20094   0.902   4.033   4.557 -0.0891  0.8159 -0.7567
  176SAPS  H20T20095   1.081   4.039   4.530  0.8139 -2.1603 -0.6785
  176SAPS   C3320096   0.321   3.615   3.072 -0.8451 -0.4162 -0.0794
  176SAPS   H3X20097   0.322   3.510   3.108  1.5569 -0.5825 -0.4514
  176SAPS   H3Y20098   0.236   3.668   3.120 -0.9699 -1.6690  1.1635
  176SAPS   C3420099   0.458   3.673   3.116 -0.1198  0.3128 -0.4603
  176SAPS   H4X20100   0.485   3.750   3.039 -0.9106  1.2925  0.2205
  176SAPS   H4Y20101   0.528   3.587   3.114 -3.8841 -3.0902  0.8172
  176SAPS   C3520102   0.461   3.733   3.259  0.5351  0.0041  0.6138
  176SAPS   H5X20103   0.382   3.810   3.272 -1.0796 -1.6665  1.2009
  176SAPS   H5Y20104   0.564   3.774   3.255 -0.2655  2.0030 -1.8774
  176SAPS   C3620105   0.442   3.626   3.368 -0.0286 -0.0447 -0.3047
  176SAPS   H6X20106   0.505   3.535   3.365 -0.7712 -0.6003  0.3977
  176SAPS   H6Y20107   0.335   3.596   3.361  0.3815 -1.6296  0.0015
  176SAPS   C3720108   0.458   3.681   3.511  0.0091 -0.8105 -0.2749
  176SAPS   H7X20109   0.407   3.608   3.577  1.2205 -1.7228 -0.2975
  176SAPS   H7Y20110   0.408   3.780   3.510 -0.0201 -0.8246 -0.1740
  176SAPS   C3820111   0.603   3.700   3.561  0.0461 -0.3130  0.5206
  176SAPS   H8X20112   0.653   3.762   3.483 -1.3650 -0.2536 -0.3784
  176SAPS   H8Y20113   0.651   3.600   3.556 -1.0318 -0.7825 -1.6998
  176SAPS   C3920114   0.625   3.754   3.702 -0.2434  0.6818  0.0579
  176SAPS   H9X20115   0.578   3.853   3.721 -2.0245 -0.1228  0.0841
  176SAPS   H9Y20116   0.735   3.766   3.708  0.3767 -0.9318 -4.2980
  176SAPS  C31020117   0.577   3.648   3.802 -0.4006 -0.0753  0.2032
  176SAPS  H10X20118   0.634   3.555   3.781 -0.7605 -0.8696  2.5503
  176SAPS  H10Y20119   0.467   3.647   3.788 -0.0765 -0.1094 -3.3490
  176SAPS  C31120120   0.602   3.685   3.953  0.3984  0.3928  0.3225
  176SAPS  H11X20121   0.553   3.781   3.981  0.6091  0.0557  1.9207
  176SAPS  H11Y20122   0.712   3.700   3.958  0.4279  2.1991 -2.9855
  176SAPS  C31220123   0.537   3.592   4.058 -0.7533  0.1216 -0.6819
  176SAPS  H12X20124   0.431   3.571   4.034 -0.5502 -2.4943  0.3807
  176SAPS  H12Y20125   0.563   3.619   4.162  3.5487 -1.1333 -1.2032
  176SAPS  C31320126   0.599   3.449   4.057  0.1111 -0.2495 -1.0429
  176SAPS  H13X20127   0.709   3.450   4.073  0.1158 -2.8703 -0.4520
  176SAPS  H13Y20128   0.581   3.398   3.960  0.7796  0.0263 -1.3188
  176SAPS  C31420129   0.537   3.352   4.158 -0.7173  0.7405  0.2461
  176SAPS  H14X20130   0.523   3.403   4.256  0.0919  2.2316 -0.3866
  176SAPS  H14Y20131   0.604   3.264   4.173 -1.7846  0.0678  1.2261
  176SAPS  C31520132   0.397   3.306   4.113 -0.1418 -0.1381 -0.1511
  176SAPS  H15X20133   0.410   3.285   4.005  1.3681  1.5729 -0.3542
  176SAPS  H15Y20134   0.311   3.376   4.122 -3.4014 -3.8702  0.6782
  176SAPS  C31620135   0.351   3.183   4.193 -0.4551 -0.1106  0.0556
  176SAPS  H16X20136   0.335   3.211   4.299 -0.1611  0.6127 -0.0869
  176SAPS  H16Y20137   0.427   3.102   4.191 -1.8554 -1.4969 -1.8763
  176SAPS  C31720138   0.233   3.100   4.139  0.1878  0.0432  0.2098
  176SAPS  H17X20139   0.273   3.041   4.054 -0.9244 -3.0288  1.6784
  176SAPS  H17Y20140   0.155   3.165   4.093  0.3093 -0.3250 -0.5390
  176SAPS  C31820141   0.172   3.009   4.254  0.2940 -0.3573 -0.0411
  176SAPS  H18X20142   0.109   2.934   4.202 -1.1282 -0.0252  1.1545
  176SAPS  H18Y20143   0.112   3.069   4.325 -0.3102 -0.9334 -0.0530
  176SAPS  H18Z20144   0.243   2.943   4.309  0.3226  0.0575  0.4238
  177SAPS     N20145   2.959   0.373   2.766  0.1422 -0.1767 -0.6152
  177SAPS   HN120146   2.943   0.278   2.727  0.5995 -1.6376  2.4297
  177SAPS   HN220147   3.053   0.377   2.812 -0.2024  3.7021  0.0816
  177SAPS   HN320148   2.889   0.397   2.839  1.7060  1.9408  0.3088
  177SAPS   C1220149   2.968   0.485   2.665 -0.5367 -0.9890  0.5980
  177SAPS  H12A20150   2.960   0.581   2.713  2.8109 -0.5151  0.4404
  177SAPS   C1320151   3.112   0.484   2.598  0.2100  0.7616 -0.6574
  177SAPS  O13A20152   3.204   0.406   2.633 -0.4032  0.1743  0.0476
  177SAPS  O13B20153   3.133   0.579   2.522 -0.3395 -0.1134  0.3436
  177SAPS   C1120154   2.853   0.474   2.562  0.0282  0.4043 -0.0171
  177SAPS  H11A20155   2.876   0.383   2.502  0.1536 -0.3448  1.1340
  177SAPS  H11B20156   2.860   0.563   2.496 -0.0035  0.4982  0.1085
  177SAPS     P20157   2.595   0.531   2.577  0.0404 -0.1319  0.1710
  177SAPS   O1320158   2.605   0.678   2.598  0.1267  0.6148  0.4237
  177SAPS   O1420159   2.561   0.483   2.445  0.1972 -0.4367 -0.1671
  177SAPS   O1220160   2.725   0.460   2.624 -0.1216 -0.0344  0.1777
  177SAPS   O1120161   2.496   0.479   2.687 -0.1445  0.2504  0.2879
  177SAPS    C120162   2.500   0.340   2.728 -0.0737 -0.0283  0.5162
  177SAPS    HA20163   2.488   0.261   2.651  2.2320 -0.5608  0.6348
  177SAPS    HB20164   2.598   0.317   2.776 -0.0609 -0.9093  0.0810
  177SAPS    C220165   2.387   0.319   2.836 -0.4192  0.1176 -0.2857
  177SAPS    HS20166   2.387   0.412   2.896  1.2013  2.3974 -3.4833
  177SAPS   O2120167   2.406   0.197   2.914 -0.0494  0.3851 -1.1356
  177SAPS   C2120168   2.491   0.220   3.015  1.1112  1.8207 -0.1238
  177SAPS   O2220169   2.543   0.322   3.052 -0.4329  0.0813  0.3571
  177SAPS   C2220170   2.514   0.082   3.082 -0.5360  0.3924 -0.0814
  177SAPS   H2R20171   2.420   0.051   3.132  0.1218  1.4213  1.9332
  177SAPS   H2S20172   2.531   0.011   2.999  0.4694 -0.1423  0.5629
  177SAPS    C320173   2.244   0.317   2.762 -0.4286 -0.0674 -0.6192
  177SAPS    HX20174   2.247   0.234   2.688  0.4970  0.3424 -1.0594
  177SAPS    HY20175   2.237   0.417   2.714  0.4704 -0.2824 -1.2289
  177SAPS   O3120176   2.134   0.292   2.862 -0.4444  0.6290  0.2250
  177SAPS   C3120177   2.030   0.371   2.860  0.1709  0.2706 -0.0438
  177SAPS   O3220178   2.008   0.469   2.785 -0.2372 -0.2358 -0.2925
  177SAPS   C3220179   1.924   0.318   2.965  0.0271  0.4655  0.5017
  177SAPS   H2X20180   1.983   0.263   3.041  1.1322  2.3139  1.0243
  177SAPS   H2Y20181   1.866   0.237   2.916  2.5659 -0.1204 -1.7105
  177SAPS   C2320182   2.628   0.075   3.188 -0.0818  0.5052 -0.6236
  177SAPS   H3R20183   2.724   0.104   3.140  0.6624  0.6285  0.8710
  177SAPS   H3S20184   2.622  -0.033   3.215  1.5573  0.9496  1.8446
  177SAPS   C2420185   2.597   0.158   3.319 -0.2089 -0.1136 -0.2259
  177SAPS   H4R20186   2.593   0.268   3.301  1.1937 -0.3706 -2.4537
  177SAPS   H4S20187   2.690   0.156   3.380 -0.3518  0.0687 -0.0016
  177SAPS   C2520188   2.485   0.102   3.399  0.0279 -0.8650  0.1416
  177SAPS   H5R20189   2.510   0.007   3.449  1.4974 -0.8997 -0.5985
  177SAPS   C2620190   2.363   0.160   3.416 -0.1442 -0.7246  0.2531
  177SAPS   H6R20191   2.283   0.131   3.486 -0.1539 -0.2980  0.4194
  177SAPS   C2720192   2.319   0.287   3.351 -0.0882  0.5049  0.1049
  177SAPS   H7R20193   2.384   0.326   3.269 -0.7769  0.2212 -0.5874
  177SAPS   H7S20194   2.326   0.367   3.428  1.2422  0.1143  0.4149
  177SAPS   C2820195   2.190   0.285   3.282  0.3356  1.0449 -0.6748
  177SAPS   H8R20196   2.199   0.227   3.189  2.6970  0.2972 -0.0545
  177SAPS   C2920197   2.076   0.337   3.324  0.4938 -0.0887 -0.3196
  177SAPS   H9R20198   1.984   0.324   3.265  0.5256 -1.2292 -0.1478
  177SAPS  C21020199   2.047   0.400   3.460 -0.4335 -0.0545  0.1406
  177SAPS  H10R20200   2.047   0.511   3.455 -1.3452 -0.0748 -0.8613
  177SAPS  H10S20201   2.132   0.366   3.523  0.3208  0.1855 -0.7173
  177SAPS  C21120202   1.914   0.374   3.518 -0.5084 -0.0084 -0.3299
  177SAPS  H11R20203   1.879   0.275   3.485  1.2852 -1.5460  2.0217
  177SAPS  C21220204   1.840   0.430   3.621 -0.5245  0.0139 -0.1124
  177SAPS  H12R20205   1.736   0.397   3.631 -1.1045  1.1026 -1.9513
  177SAPS  C21320206   1.893   0.553   3.704  0.8997  0.2775  0.3582
  177SAPS  H13R20207   1.824   0.638   3.686 -1.4555 -1.4798  0.7579
  177SAPS  H13S20208   1.995   0.583   3.669  1.0262 -0.9404 -0.3501
  177SAPS  C21420209   1.895   0.535   3.854 -0.5177 -0.3141  0.3525
  177SAPS  H14R20210   1.829   0.455   3.890 -1.7611 -1.0730 -3.1971
  177SAPS  C21520211   1.976   0.602   3.941 -0.6616 -0.1020 -0.0923
  177SAPS  H15R20212   1.970   0.590   4.050 -1.8670  0.6680 -0.0605
  177SAPS  C21620213   2.075   0.708   3.898 -0.6505 -0.3431 -0.0249
  177SAPS  H16R20214   2.048   0.811   3.930  4.8460  0.5186  3.3620
  177SAPS  H16S20215   2.108   0.710   3.792  0.8422  1.5251  0.4079
  177SAPS  C21720216   2.207   0.688   3.982 -0.6223  0.5181  0.5309
  177SAPS  H17R20217   2.186   0.704   4.090 -1.1128 -0.5312  0.6027
  177SAPS  H17S20218   2.260   0.772   3.933  0.2683  0.2316  0.9782
  177SAPS  C21820219   2.295   0.562   3.953  0.5377 -0.1211 -0.4881
  177SAPS  H18R20220   2.246   0.467   3.983 -0.0787  0.2749 -0.2243
  177SAPS  H18S20221   2.382   0.578   4.021 -1.1147  4.9145  0.9400
  177SAPS  C21920222   2.334   0.554   3.805 -0.0141 -0.4438  0.6670
  177SAPS  H19R20223   2.375   0.653   3.774 -0.9099 -0.5030 -0.7618
  177SAPS  H19S20224   2.245   0.542   3.740  0.9182 -0.0138 -0.7397
  177SAPS  C22020225   2.436   0.438   3.792 -0.2706 -0.2666 -0.6060
  177SAPS  H20R20226   2.377   0.345   3.776 -0.3545 -0.1596 -0.9138
  177SAPS  H20S20227   2.505   0.435   3.879 -1.5629 -1.8456  0.4296
  177SAPS  H20T20228   2.500   0.454   3.703  1.0643  0.5332  0.4499
  177SAPS   C3320229   1.846   0.433   3.031  0.5097 -0.0151 -0.2096
  177SAPS   H3X20230   1.904   0.527   3.025  0.1409  0.3429  1.5652
  177SAPS   H3Y20231   1.839   0.408   3.139  1.6107  0.3844 -0.0387
  177SAPS   C3420232   1.715   0.462   2.968  0.3350  0.1041 -0.3305
  177SAPS   H4X20233   1.643   0.377   2.970  0.0494  0.3483  0.8415
  177SAPS   H4Y20234   1.733   0.483   2.861  0.5442  0.6682 -0.1908
  177SAPS   C3520235   1.639   0.591   3.019  0.4008  0.1068 -0.0227
  177SAPS   H5X20236   1.546   0.604   2.960  0.7817  1.8683 -0.2649
  177SAPS   H5Y20237   1.702   0.682   3.011 -1.0301  1.0927 -0.4371
  177SAPS   C3620238   1.582   0.571   3.162  0.0904  1.1028 -0.6552
  177SAPS   H6X20239   1.659   0.547   3.238 -2.0715 -0.9959  1.0570
  177SAPS   H6Y20240   1.514   0.483   3.155 -0.3711  1.5342 -1.9449
  177SAPS   C3720241   1.527   0.701   3.205  0.1610  0.3899  0.6939
  177SAPS   H7X20242   1.448   0.743   3.139 -0.7334  0.5593  1.8412
  177SAPS   H7Y20243   1.601   0.784   3.214 -1.1804  1.7434 -0.3279
  177SAPS   C3820244   1.470   0.685   3.347  0.7465 -0.1105  0.5578
  177SAPS   H8X20245   1.556   0.656   3.410  1.0778 -1.2367 -0.3706
  177SAPS   H8Y20246   1.404   0.595   3.343 -2.6490  2.2066 -0.3425
  177SAPS   C3920247   1.389   0.808   3.395 -0.4907 -0.1470  0.2120
  177SAPS   H9X20248   1.356   0.783   3.498 -0.5099 -2.4937 -0.2936
  177SAPS   H9Y20249   1.301   0.833   3.332  0.2119  1.4992 -0.1621
  177SAPS  C31020250   1.473   0.939   3.405 -0.0484  0.3470  0.0212
  177SAPS  H10X20251   1.501   0.979   3.305  3.6762 -1.3456  0.1913
  177SAPS  H10Y20252   1.569   0.913   3.456 -0.3354  0.4306  0.6102
  177SAPS  C31120253   1.404   1.046   3.494 -0.1796 -0.1162 -0.2856
  177SAPS  H11X20254   1.306   1.087   3.462  0.2397  2.6283  1.6086
  177SAPS  H11Y20255   1.457   1.143   3.506  0.7218 -0.9077  3.8458
  177SAPS  C31220256   1.372   0.996   3.641  0.3675 -0.5460  0.1912
  177SAPS  H12X20257   1.464   0.943   3.674  2.1448  1.8212 -0.6659
  177SAPS  H12Y20258   1.285   0.927   3.642  0.1501 -0.3354 -1.7790
  177SAPS  C31320259   1.342   1.116   3.735  0.0631 -0.3319 -0.0553
  177SAPS  H13X20260   1.244   1.159   3.707 -1.6335 -3.7117  0.1142
  177SAPS  H13Y20261   1.424   1.191   3.728 -0.9057  0.6787 -0.7515
  177SAPS  C31420262   1.329   1.064   3.882 -0.1967  0.5929 -0.2594
  177SAPS  H14X20263   1.430   1.048   3.926 -1.2045  0.3682  2.1067
  177SAPS  H14Y20264   1.282   0.964   3.890 -1.9108  1.4284  0.9635
  177SAPS  C31520265   1.253   1.165   3.974  0.1943  0.5776 -0.3934
  177SAPS  H15X20266   1.143   1.153   3.965  0.1356  1.9127 -1.9868
  177SAPS  H15Y20267   1.280   1.263   3.929  1.7249 -0.0891 -1.0338
  177SAPS  C31620268   1.291   1.154   4.127  0.3021 -0.0892  0.4119
  177SAPS  H16X20269   1.253   1.244   4.179  0.7290  1.5058 -1.9009
  177SAPS  H16Y20270   1.401   1.143   4.131  0.2892 -1.2937 -1.1708
  177SAPS  C31720271   1.219   1.032   4.192  0.0085  0.2650  0.6065
  177SAPS  H17X20272   1.229   0.940   4.132 -0.7934  0.5225  0.0596
  177SAPS  H17Y20273   1.110   1.050   4.179 -0.2088 -1.5376 -0.2575
  177SAPS  C31820274   1.268   0.991   4.326  0.3232 -0.2112  0.4392
  177SAPS  H18X20275   1.247   1.077   4.393 -0.4195  0.6307 -0.8504
  177SAPS  H18Y20276   1.378   0.970   4.330  0.4429  0.3936  0.4210
  177SAPS  H18Z20277   1.218   0.896   4.354  0.1012 -0.4204 -0.6267
  178SAPS     N20278   6.634   1.808   2.121 -0.0518  0.3098  0.2988
  178SAPS   HN120279   6.715   1.859   2.161 -0.4082  1.3232 -0.2453
  178SAPS   HN220280   6.574   1.772   2.198 -0.2778  0.9946  0.4467
  178SAPS   HN320281   6.673   1.725   2.073  0.1687 -0.0935  1.1526
  178SAPS   C1220282   6.553   1.880   2.022  0.3419  0.1394  0.3090
  178SAPS  H12A20283   6.622   1.897   1.940 -0.9679 -1.4743 -1.2212
  178SAPS   C1320284   6.448   1.791   1.951 -0.4695  0.3736  0.1185
  178SAPS  O13A20285   6.417   1.676   1.985  0.2260  0.2192  0.1353
  178SAPS  O13B20286   6.379   1.860   1.869 -0.7534  0.0158 -0.1577
  178SAPS   C1120287   6.478   2.002   2.094 -0.0677  0.6606  0.1857
  178SAPS  H11A20288   6.387   1.944   2.121  0.0709 -0.6267 -1.8270
  178SAPS  H11B20289   6.446   2.076   2.018 -0.9970  0.4365  0.3417
  178SAPS     P20290   6.637   2.197   2.183 -0.1221 -0.1963 -0.6112
  178SAPS   O1320291   6.751   2.166   2.091  0.7411 -0.3688 -0.4239
  178SAPS   O1420292   6.542   2.308   2.154  0.2561  0.1509 -0.2182
  178SAPS   O1220293   6.552   2.060   2.203  0.0857  0.6027 -0.0193
  178SAPS   O1120294   6.701   2.224   2.327  0.2530  0.1736  0.4988
  178SAPS    C120295   6.817   2.148   2.360  0.3366 -0.1188  0.0078
  178SAPS    HA20296   6.793   2.041   2.342 -0.5467  0.2110 -0.8383
  178SAPS    HB20297   6.909   2.182   2.308 -0.5033  1.3546 -0.5703
  178SAPS    C220298   6.853   2.167   2.513 -0.0760 -0.9653 -1.0936
  178SAPS    HS20299   6.946   2.107   2.529  1.6046  1.6960 -0.2846
  178SAPS   O2120300   6.740   2.124   2.593  0.4814  0.3683  0.0573
  178SAPS   C2120301   6.715   1.996   2.600  0.4474  0.1678  0.1202
  178SAPS   O2220302   6.776   1.905   2.546  0.1483 -0.1741 -0.0304
  178SAPS   C2220303   6.592   1.979   2.688 -0.3616  0.2063 -0.6918
  178SAPS   H2R20304   6.502   1.945   2.633  0.9150 -3.0637 -0.9603
  178SAPS   H2S20305   6.626   1.910   2.768  0.0383  0.1115 -0.9426
  178SAPS    C320306   6.889   2.317   2.556  0.2503  0.1301 -0.4932
  178SAPS    HX20307   6.797   2.371   2.524  0.5458  1.1137  0.2705
  178SAPS    HY20308   6.972   2.359   2.495  0.7521 -0.2114 -0.0517
  178SAPS   O3120309   6.898   2.323   2.704 -0.2170  0.1344 -0.7063
  178SAPS   C3120310   6.792   2.350   2.785  0.0317  0.3130 -0.5171
  178SAPS   O3220311   6.685   2.371   2.734 -0.3702  0.1599  0.1894
  178SAPS   C3220312   6.826   2.337   2.936 -0.4884  0.7930 -0.1004
  178SAPS   H2X20313   6.911   2.267   2.948  0.1967  1.2757 -1.9644
  178SAPS   H2Y20314   6.733   2.303   2.988 -0.0096  0.1124  0.3334
  178SAPS   C2320315   6.547   2.098   2.775  0.3644  0.4199  0.0819
  178SAPS   H3R20316   6.495   2.176   2.715  0.1367 -0.3346 -0.7082
  178SAPS   H3S20317   6.621   2.149   2.841 -0.0782  0.1294  0.8237
  178SAPS   C2420318   6.431   2.060   2.872 -0.3453  0.5439  0.8478
  178SAPS   H4R20319   6.365   1.982   2.828  1.6780  0.1147 -1.6637
  178SAPS   H4S20320   6.364   2.144   2.897 -0.1627  0.9444  0.0224
  178SAPS   C2520321   6.484   1.980   2.995 -0.1299  0.6543  0.3977
  178SAPS   H5R20322   6.469   1.871   2.988 -0.8042  0.7111  0.8054
  178SAPS   C2620323   6.524   2.035   3.108  0.1552  0.9882 -1.1710
  178SAPS   H6R20324   6.568   1.971   3.185 -0.5928  0.3979 -1.2185
  178SAPS   C2720325   6.517   2.177   3.148 -0.0678  0.3884 -0.0000
  178SAPS   H7R20326   6.510   2.235   3.053  0.4679  1.2698  0.4898
  178SAPS   H7S20327   6.617   2.211   3.182  1.5433 -2.0085 -1.9882
  178SAPS   C2820328   6.396   2.223   3.232  0.1455 -0.4179  0.1710
  178SAPS   H8R20329   6.303   2.238   3.176 -1.1245 -0.2429  2.2412
  178SAPS   C2920330   6.396   2.228   3.366  0.2862 -0.5007  0.5814
  178SAPS   H9R20331   6.311   2.272   3.422  0.3945  3.3449 -1.8832
  178SAPS  C21020332   6.513   2.193   3.448 -0.2038 -0.1008 -0.0296
  178SAPS  H10R20333   6.594   2.268   3.450 -1.2560  1.0482  1.3297
  178SAPS  H10S20334   6.562   2.099   3.414  0.3494  0.7223 -1.5858
  178SAPS  C21120335   6.457   2.162   3.587 -0.3334  0.5176 -0.6117
  178SAPS  H11R20336   6.448   2.054   3.603  1.4340  0.3353 -0.6259
  178SAPS  C21220337   6.425   2.240   3.688  0.8487 -0.5109  0.5805
  178SAPS  H12R20338   6.414   2.202   3.791  3.3582  1.8595  1.8635
  178SAPS  C21320339   6.429   2.390   3.693 -0.0985  0.0584 -0.4306
  178SAPS  H13R20340   6.418   2.424   3.588  2.5005 -0.0364 -0.7952
  178SAPS  H13S20341   6.535   2.422   3.703  0.2231 -0.1044 -2.7531
  178SAPS  C21420342   6.332   2.457   3.795 -0.1606 -0.1627  0.2738
  178SAPS  H14R20343   6.229   2.467   3.759  0.4702  0.5304 -1.4493
  178SAPS  C21520344   6.354   2.495   3.922 -0.7282 -0.2170  0.1944
  178SAPS  H15R20345   6.275   2.548   3.977 -0.0930 -0.3781  1.2988
  178SAPS  C21620346   6.482   2.489   4.002  0.7102 -0.6009 -0.3545
  178SAPS  H16R20347   6.506   2.584   4.054 -1.0103 -0.6471  0.5856
  178SAPS  H16S20348   6.564   2.451   3.937 -0.3940 -1.4076 -1.3291
  178SAPS  C21720349   6.466   2.390   4.121 -0.0673  0.9861  0.8824
  178SAPS  H17R20350   6.370   2.410   4.175 -2.6865 -1.6542 -2.3221
  178SAPS  H17S20351   6.537   2.397   4.206 -1.3881 -2.3059  2.4638
  178SAPS  C21820352   6.474   2.243   4.063  1.2128  0.6450 -0.3699
  178SAPS  H18R20353   6.573   2.230   4.014  1.0751  0.0028 -0.4827
  178SAPS  H18S20354   6.395   2.226   3.987  2.9059 -0.2384 -2.0034
  178SAPS  C21920355   6.461   2.121   4.158  0.4306 -0.1728 -0.3356
  178SAPS  H19R20356   6.355   2.117   4.193  0.5280 -0.0857 -0.0344
  178SAPS  H19S20357   6.521   2.138   4.249  0.3975  0.6982 -0.4728
  178SAPS  C22020358   6.499   1.995   4.091 -0.3668  0.6902  0.7719
  178SAPS  H20R20359   6.438   1.978   4.000 -0.3826  0.9902  0.7274
  178SAPS  H20S20360   6.490   1.903   4.154 -1.1831  0.2983  0.0981
  178SAPS  H20T20361   6.608   2.003   4.068 -0.2040 -0.7393  0.9379
  178SAPS   C3320362   6.873   2.464   2.993 -0.4773 -0.2195 -0.0989
  178SAPS   H3X20363   6.799   2.547   2.988 -1.6598 -1.0662  1.8801
  178SAPS   H3Y20364   6.969   2.497   2.949 -0.8983 -0.0327 -0.8824
  178SAPS   C3420365   6.890   2.463   3.141 -0.0720 -0.9289 -0.3516
  178SAPS   H4X20366   6.963   2.544   3.162 -1.4986  0.4709 -0.5765
  178SAPS   H4Y20367   6.928   2.365   3.177 -1.9126 -3.0315 -3.6250
  178SAPS   C3520368   6.758   2.497   3.211 -0.6156 -0.4456  0.0142
  178SAPS   H5X20369   6.683   2.422   3.182  0.5941 -2.0301  0.8480
  178SAPS   H5Y20370   6.717   2.596   3.181  0.3977  0.0882  0.3373
  178SAPS   C3620371   6.762   2.466   3.361 -0.2504  0.2578  0.2906
  178SAPS   H6X20372   6.792   2.359   3.370  3.0645  0.8951 -1.4216
  178SAPS   H6Y20373   6.664   2.491   3.405 -0.3173  0.8673 -0.1835
  178SAPS   C3720374   6.875   2.539   3.440 -0.0684 -0.2665 -0.3376
  178SAPS   H7X20375   6.871   2.649   3.422  1.0375 -0.0791  0.4346
  178SAPS   H7Y20376   6.976   2.504   3.410 -0.1700  1.0841 -2.4910
  178SAPS   C3820377   6.870   2.523   3.592 -0.2759 -0.4190  0.3977
  178SAPS   H8X20378   6.971   2.537   3.635 -1.2338 -1.2306  3.1400
  178SAPS   H8Y20379   6.834   2.420   3.616 -0.6947 -0.2493  0.5187
  178SAPS   C3920380   6.781   2.621   3.672  0.5636  0.5382 -0.0686
  178SAPS   H9X20381   6.762   2.571   3.770 -1.6972  1.4809  0.0371
  178SAPS   H9Y20382   6.690   2.626   3.609  1.8231  2.0127 -1.8942
  178SAPS  C31020383   6.847   2.755   3.705 -0.1061  0.3528  0.1960
  178SAPS  H10X20384   6.879   2.798   3.608  1.5620  0.2267  0.6554
  178SAPS  H10Y20385   6.934   2.749   3.774  1.0294 -0.8529 -1.2669
  178SAPS  C31120386   6.747   2.860   3.766 -0.2991  0.4790 -0.5076
  178SAPS  H11X20387   6.728   2.843   3.875 -0.7211 -0.1059 -0.6675
  178SAPS  H11Y20388   6.651   2.827   3.722  0.2090  0.9931 -2.0537
  178SAPS  C31220389   6.803   2.998   3.736  0.3401 -0.1495 -0.0211
  178SAPS  H12X20390   6.763   3.024   3.636  0.7229  0.1425 -0.0992
  178SAPS  H12Y20391   6.913   2.986   3.749  0.1997 -2.4801 -0.5467
  178SAPS  C31320392   6.739   3.110   3.816 -0.1446 -0.2549 -0.3526
  178SAPS  H13X20393   6.714   3.070   3.916 -2.7615 -2.9622 -1.9162
  178SAPS  H13Y20394   6.637   3.139   3.782 -1.0829 -1.3187  1.4568
  178SAPS  C31420395   6.821   3.236   3.830 -0.2653  0.1434 -0.3675
  178SAPS  H14X20396   6.908   3.216   3.895  0.2183  0.2170 -0.9781
  178SAPS  H14Y20397   6.762   3.318   3.875 -0.8211 -0.3993 -0.0940
  178SAPS  C31520398   6.875   3.280   3.697  0.2030  0.1058  0.6454
  178SAPS  H15X20399   6.791   3.313   3.632  0.4174 -0.8786 -0.1598
  178SAPS  H15Y20400   6.918   3.194   3.642 -1.8590 -1.6256  1.6115
  178SAPS  C31620401   6.988   3.382   3.720 -0.5362  0.5758  0.1783
  178SAPS  H16X20402   6.949   3.453   3.797 -1.9772  2.9419 -2.5638
  178SAPS  H16Y20403   7.005   3.443   3.629  1.9945 -1.5885 -0.9277
  178SAPS  C31720404   7.121   3.327   3.744 -0.5669  0.1793 -0.5713
  178SAPS  H17X20405   7.115   3.239   3.813 -1.0448  1.9310  1.7456
  178SAPS  H17Y20406   7.175   3.407   3.798  0.2793  1.2726 -2.8965
  178SAPS  C31820407   7.216   3.311   3.626  0.5574 -0.0545 -1.2319
  178SAPS  H18X20408   7.313   3.265   3.657 -0.3390 -1.1095  0.1409
  178SAPS  H18Y20409   7.238   3.405   3.572  3.9298 -0.6894 -1.2196
  178SAPS  H18Z20410   7.165   3.242   3.555  2.8106 -0.0460 -2.9973
  179SAPS     N20411   2.128   6.505   2.198  0.2899  0.7612 -0.4390
  179SAPS   HN120412   2.216   6.465   2.158  0.4748  0.6304  0.0837
  179SAPS   HN220413   2.149   6.606   2.213 -1.0352  1.2858 -1.9107
  179SAPS   HN320414   2.112   6.467   2.294  0.4109  2.1840  0.1797
  179SAPS   C1220415   2.012   6.495   2.104  1.2553  0.5939  0.1951
  179SAPS  H12A20416   1.929   6.530   2.163 -0.3684 -2.1004 -0.3366
  179SAPS   C1320417   2.010   6.575   1.971 -0.2742 -0.8865  0.0036
  179SAPS  O13A20418   2.104   6.657   1.946  0.0247  0.2822 -1.2524
  179SAPS  O13B20419   1.925   6.562   1.885  0.0363 -0.0900  0.2849
  179SAPS   C1120420   1.984   6.351   2.062  0.1118  0.2672 -1.1334
  179SAPS  H11A20421   1.898   6.349   1.992 -2.0530 -0.6162  1.3712
  179SAPS  H11B20422   1.959   6.299   2.157  1.8655  1.7128  0.1974
  179SAPS     P20423   2.128   6.143   1.990  0.3497 -0.2560  0.1497
  179SAPS   O1320424   2.018   6.088   1.900  0.2267 -0.4673 -0.2107
  179SAPS   O1420425   2.266   6.108   1.950 -0.2669 -0.1814  0.4337
  179SAPS   O1220426   2.108   6.302   2.015 -0.2920 -0.0040  0.3269
  179SAPS   O1120427   2.109   6.095   2.139  0.2706 -0.2878 -0.3870
  179SAPS    C120428   2.210   6.136   2.237  0.1223 -0.1605 -0.3623
  179SAPS    HA20429   2.277   6.214   2.196 -1.1559  2.5110  2.2334
  179SAPS    HB20430   2.161   6.183   2.326  0.8202 -1.5562  0.7887
  179SAPS    C220431   2.314   6.029   2.280  0.4845 -0.3575 -1.1735
  179SAPS    HS20432   2.369   5.992   2.190  0.9271 -0.6768 -0.7776
  179SAPS   O2120433   2.256   5.921   2.353 -0.0527  0.5756  0.0906
  179SAPS   C2120434   2.191   5.819   2.298  0.5485 -0.3328  0.9255
  179SAPS   O2220435   2.180   5.801   2.177  0.1063  0.2609  0.5058
  179SAPS   C2220436   2.152   5.710   2.391  0.4144 -0.1484 -0.3623
  179SAPS   H2R20437   2.188   5.737   2.493 -1.4976  2.2657 -0.2269
  179SAPS   H2S20438   2.041   5.712   2.401  0.3058 -1.9596 -0.9300
  179SAPS    C320439   2.422   6.101   2.364 -0.0166  0.2210 -0.2392
  179SAPS    HX20440   2.459   6.185   2.301  1.2670 -0.5481 -0.5197
  179SAPS    HY20441   2.510   6.041   2.394  0.2298 -1.0280 -3.1233
  179SAPS   O3120442   2.359   6.160   2.480  0.9028  0.3506  0.4736
  179SAPS   C3120443   2.345   6.082   2.590 -0.6878 -0.2394  0.8143
  179SAPS   O3220444   2.397   5.971   2.597 -0.0477 -0.1263 -0.2456
  179SAPS   C3220445   2.251   6.154   2.685  0.0539 -0.1694 -0.2204
  179SAPS   H2X20446   2.147   6.150   2.645 -0.1165  0.6064  0.1093
  179SAPS   H2Y20447   2.273   6.263   2.693 -1.8803  0.4275 -1.9985
  179SAPS   C2320448   2.213   5.574   2.351  0.4448 -0.0588 -0.5236
  179SAPS   H3R20449   2.321   5.581   2.324  0.4339 -1.5161 -1.0690
  179SAPS   H3S20450   2.168   5.544   2.254  0.3362 -1.5046 -0.0486
  179SAPS   C2420451   2.194   5.462   2.455  0.3637 -0.0039  0.3373
  179SAPS   H4R20452   2.201   5.366   2.400 -0.3087 -0.0009  0.2315
  179SAPS   H4S20453   2.091   5.471   2.495  1.0768 -0.5897  2.4495
  179SAPS   C2520454   2.287   5.471   2.580  0.3326 -0.1024 -0.7729
  179SAPS   H5R20455   2.312   5.577   2.597  0.4362 -0.3605  0.7860
  179SAPS   C2620456   2.337   5.369   2.658 -0.0221  1.1982  0.0814
  179SAPS   H6R20457   2.406   5.394   2.740  0.8868  0.3592 -0.4095
  179SAPS   C2720458   2.319   5.224   2.644  0.0231  0.2273 -0.4691
  179SAPS   H7R20459   2.404   5.161   2.678  0.2209 -0.8288 -2.7154
  179SAPS   H7S20460   2.295   5.205   2.537 -1.9219  0.3179 -0.0865
  179SAPS   C2820461   2.203   5.182   2.733  0.9495  0.7551 -0.4731
  179SAPS   H8R20462   2.108   5.169   2.679  0.1887  0.6388  0.8599
  179SAPS   C2920463   2.206   5.158   2.868 -0.0135 -0.0924 -0.4053
  179SAPS   H9R20464   2.111   5.133   2.917  0.0167  0.1621 -0.2170
  179SAPS  C21020465   2.335   5.164   2.949  0.1662 -0.4518 -0.1382
  179SAPS  H10R20466   2.307   5.211   3.045 -0.0587 -0.3388 -0.2595
  179SAPS  H10S20467   2.416   5.222   2.899 -1.2742  1.3124 -0.5086
  179SAPS  C21120468   2.383   5.017   2.969  0.2815  0.7643  0.0732
  179SAPS  H11R20469   2.413   4.953   2.885 -1.1803 -0.6880  0.6153
  179SAPS  C21220470   2.389   4.950   3.089 -0.3096 -0.3098  0.2115
  179SAPS  H12R20471   2.447   4.857   3.085 -0.4080 -0.3969  0.7586
  179SAPS  C21320472   2.334   4.992   3.226 -0.0183  0.6972 -0.3316
  179SAPS  H13R20473   2.355   4.902   3.288 -1.2095 -0.2424 -1.2532
  179SAPS  H13S20474   2.223   5.003   3.223 -0.6436 -3.2296  1.8927
  179SAPS  C21420475   2.410   5.101   3.289 -0.7150 -0.9284 -1.2143
  179SAPS  H14R20476   2.433   5.182   3.218  2.9609  0.7265  1.5009
  179SAPS  C21520477   2.465   5.105   3.415  0.1354 -0.3583 -0.6561
  179SAPS  H15R20478   2.512   5.191   3.464  1.5723 -2.3595  1.7445
  179SAPS  C21620479   2.446   4.996   3.518  0.2087 -0.1919  0.8159
  179SAPS  H16R20480   2.509   4.913   3.482 -0.1661 -0.4226  0.6806
  179SAPS  H16S20481   2.344   4.952   3.515  0.6651 -1.2670  0.6614
  179SAPS  C21720482   2.488   5.031   3.657 -0.3398 -0.5398 -0.3450
  179SAPS  H17R20483   2.580   5.092   3.652 -1.1289  0.5322 -2.7253
  179SAPS  H17S20484   2.504   4.928   3.697 -3.9069 -1.1350 -0.1593
  179SAPS  C21820485   2.368   5.095   3.740  0.2710  0.0403  0.0524
  179SAPS  H18R20486   2.285   5.022   3.726 -1.0232  1.4654 -0.0079
  179SAPS  H18S20487   2.321   5.186   3.696 -1.4690 -0.7073  0.2487
  179SAPS  C21920488   2.402   5.137   3.877 -0.5789  0.0168 -0.1351
  179SAPS  H19R20489   2.481   5.215   3.877 -0.2807 -0.2375 -1.9424
  179SAPS  H19S20490   2.446   5.056   3.939  0.0342  0.9775  0.7140
  179SAPS  C22020491   2.272   5.180   3.949 -0.6759 -0.1204 -0.0160
  179SAPS  H20R20492   2.210   5.243   3.882 -0.6448  0.2447  0.2927
  179SAPS  H20S20493   2.295   5.242   4.039 -0.9244 -1.2433  0.8438
  179SAPS  H20T20494   2.195   5.103   3.967 -1.5374  0.4734 -1.0384
  179SAPS   C3320495   2.245   6.084   2.826  0.0564 -0.2721  0.0162
  179SAPS   H3X20496   2.344   6.099   2.874  0.2563 -1.0072 -0.1465
  179SAPS   H3Y20497   2.231   5.974   2.817 -1.7734  0.0077 -1.1352
  179SAPS   C3420498   2.140   6.147   2.922 -0.5089 -0.1036 -0.6069
  179SAPS   H4X20499   2.035   6.151   2.885 -0.7783  3.3201  0.1464
  179SAPS   H4Y20500   2.165   6.255   2.916  0.2030 -0.3285 -2.4048
  179SAPS   C3520501   2.158   6.094   3.066 -0.4683 -0.4122 -0.6476
  179SAPS   H5X20502   2.257   6.129   3.101 -2.2790  2.2206  2.2616
  179SAPS   H5Y20503   2.155   5.983   3.073 -0.7956 -0.3378  0.5423
  179SAPS   C3620504   2.057   6.161   3.155 -0.2494 -0.2362  0.1173
  179SAPS   H6X20505   1.956   6.136   3.117  0.1760 -1.8995 -0.0293
  179SAPS   H6Y20506   2.070   6.271   3.153  1.7172 -0.3457  2.1426
  179SAPS   C3720507   2.070   6.102   3.291  0.3170  0.1124 -0.3163
  179SAPS   H7X20508   2.173   6.086   3.329  1.0720 -1.3473 -2.7315
  179SAPS   H7Y20509   2.026   6.000   3.293  0.5006  0.0140 -0.9685
  179SAPS   C3820510   1.990   6.178   3.397  0.0695 -0.2332  0.5533
  179SAPS   H8X20511   1.886   6.195   3.362 -0.7913  0.5956  3.2481
  179SAPS   H8Y20512   2.038   6.277   3.381 -2.0200  0.6079 -0.8899
  179SAPS   C3920513   1.982   6.125   3.541  0.3657 -0.3488 -0.2172
  179SAPS   H9X20514   2.090   6.113   3.567  0.5917 -0.7621 -1.3197
  179SAPS   H9Y20515   1.927   6.029   3.534  0.2000 -0.4814  2.1285
  179SAPS  C31020516   1.910   6.222   3.634 -0.4776 -0.8121 -0.5437
  179SAPS  H10X20517   1.812   6.252   3.590  0.9526  2.7988 -1.5621
  179SAPS  H10Y20518   1.966   6.317   3.636  0.7273 -1.5155  0.7328
  179SAPS  C31120519   1.884   6.177   3.773 -0.2905  0.4119  0.4316
  179SAPS  H11X20520   1.979   6.165   3.830  0.1282  1.4328 -0.0352
  179SAPS  H11Y20521   1.833   6.079   3.759  0.6609  0.1121 -1.1054
  179SAPS  C31220522   1.788   6.267   3.849 -0.0807 -0.5251  0.4431
  179SAPS  H12X20523   1.682   6.265   3.815 -0.0715  1.1252  0.1993
  179SAPS  H12Y20524   1.807   6.375   3.827  0.1087 -0.6915 -0.2222
  179SAPS  C31320525   1.812   6.247   3.996 -0.6219  0.4002 -0.4965
  179SAPS  H13X20526   1.737   6.305   4.055 -0.2342  0.4125 -0.0129
  179SAPS  H13Y20527   1.911   6.283   4.030  0.3634 -2.3962 -0.1468
  179SAPS  C31420528   1.787   6.100   4.056  0.9622 -0.1422  0.1862
  179SAPS  H14X20529   1.872   6.037   4.022  0.3648 -1.0893  0.4034
  179SAPS  H14Y20530   1.698   6.060   4.004  0.1215  0.1656  1.3601
  179SAPS  C31520531   1.768   6.086   4.212 -0.3459 -0.1923 -0.2209
  179SAPS  H15X20532   1.748   5.977   4.222 -0.1466 -0.0815  1.5500
  179SAPS  H15Y20533   1.675   6.141   4.240  0.7168  2.0882 -0.9456
  179SAPS  C31620534   1.890   6.142   4.288 -0.9637  0.1610  0.2076
  179SAPS  H16X20535   1.941   6.219   4.226  0.3069 -1.3174 -0.6680
  179SAPS  H16Y20536   1.966   6.061   4.281  0.2397  1.2567  0.1988
  179SAPS  C31720537   1.873   6.189   4.429  0.8390 -0.7848  0.0079
  179SAPS  H17X20538   1.791   6.264   4.428  2.5955  1.2636  0.7911
  179SAPS  H17Y20539   1.970   6.238   4.454  0.8282 -0.5814 -0.3428
  179SAPS  C31820540   1.850   6.076   4.527 -0.3936 -0.0353 -0.4636
  179SAPS  H18X20541   1.944   6.017   4.524 -0.3562  0.0007 -0.0723
  179SAPS  H18Y20542   1.784   5.995   4.491  2.2659 -2.5742  0.0241
  179SAPS  H18Z20543   1.818   6.109   4.628  0.3697 -1.8438  0.4202
  180SAPS     N20544   3.069   3.998   2.572  0.5128  0.1859  0.0296
  180SAPS   HN120545   3.039   3.967   2.667 -2.8056  1.0004 -0.6091
  180SAPS   HN220546   2.996   4.062   2.536 -0.7202 -1.8267 -1.2927
  180SAPS   HN320547   3.073   3.914   2.511 -0.3344  0.6701 -0.7138
  180SAPS   C1220548   3.196   4.078   2.566 -0.3698  0.2848  0.7735
  180SAPS  H12A20549   3.220   4.120   2.663 -1.3739 -2.4936  2.3643
  180SAPS   C1320550   3.324   4.001   2.520 -0.7623 -0.5600 -0.0158
  180SAPS  O13A20551   3.324   3.879   2.489  0.1905  0.2002 -0.6768
  180SAPS  O13B20552   3.424   4.076   2.504  0.5221 -0.5928  0.2198
  180SAPS   C1120553   3.179   4.183   2.458 -0.4759  0.0353 -0.6068
  180SAPS  H11A20554   3.154   4.129   2.365  0.0421 -0.9476 -0.1843
  180SAPS  H11B20555   3.270   4.245   2.443 -1.6111  2.2853  0.9710
  180SAPS     P20556   3.114   4.413   2.580 -0.2678  0.2096 -0.3165
  180SAPS   O1320557   3.247   4.387   2.650 -0.7706  0.3430 -0.6563
  180SAPS   O1420558   3.100   4.532   2.498 -0.6450 -0.9085  0.2356
  180SAPS   O1220559   3.073   4.281   2.493 -0.0640  0.4910  0.4155
  180SAPS   O1120560   2.995   4.416   2.682  0.5125 -0.5386  0.6477
  180SAPS    C120561   2.957   4.310   2.767  0.5043  0.6648  0.6877
  180SAPS    HA20562   2.847   4.295   2.761  0.3295  1.4680  1.6437
  180SAPS    HB20563   3.010   4.213   2.759 -0.3709 -0.2717  4.4223
  180SAPS    C220564   2.980   4.336   2.917 -0.3822 -0.5427 -0.2729
  180SAPS    HS20565   2.952   4.241   2.969 -0.7020 -0.9161 -1.1111
  180SAPS   O2120566   2.900   4.452   2.952  0.2593  0.1777 -0.1437
  180SAPS   C2120567   2.845   4.459   3.071  0.0945  0.3447 -0.1976
  180SAPS   O2220568   2.848   4.370   3.156 -0.2223  0.3769 -0.0768
  180SAPS   C2220569   2.760   4.589   3.080  0.0427 -0.1450 -0.4394
  180SAPS   H2R20570   2.829   4.674   3.100 -0.7580  0.0166  1.8113
  180SAPS   H2S20571   2.718   4.615   2.980 -1.4512 -0.0657  0.1989
  180SAPS    C320572   3.129   4.366   2.944 -0.3056  0.1106  0.0727
  180SAPS    HX20573   3.147   4.465   2.899  0.0054 -0.2967 -0.7180
  180SAPS    HY20574   3.188   4.290   2.888  0.8292 -0.0775  1.4448
  180SAPS   O3120575   3.160   4.362   3.082 -0.0901 -0.4742  0.0159
  180SAPS   C3120576   3.290   4.376   3.107 -0.0102 -0.2192  0.2875
  180SAPS   O3220577   3.382   4.381   3.023 -0.1322 -0.3779  0.7732
  180SAPS   C3220578   3.316   4.402   3.259  0.5165 -0.5148 -0.0598
  180SAPS   H2X20579   3.245   4.330   3.305  0.3312 -1.0278 -1.1250
  180SAPS   H2Y20580   3.286   4.507   3.280 -1.0833 -1.0848  0.6686
  180SAPS   C2320581   2.635   4.586   3.174 -0.0785  0.2276 -0.3253
  180SAPS   H3R20582   2.594   4.483   3.158  1.3033 -0.3567 -0.2118
  180SAPS   H3S20583   2.555   4.658   3.148 -0.6164 -0.1220  0.3286
  180SAPS   C2420584   2.667   4.611   3.324  0.5530 -0.2232 -0.1374
  180SAPS   H4R20585   2.731   4.527   3.357  0.2431 -0.3769  0.0723
  180SAPS   H4S20586   2.574   4.614   3.385  0.3752  0.8024 -0.4301
  180SAPS   C2520587   2.736   4.739   3.355 -0.8993 -0.7539 -0.5093
  180SAPS   H5R20588   2.669   4.827   3.360 -1.5374 -1.1574 -1.5630
  180SAPS   C2620589   2.869   4.764   3.387  0.7323  0.2601  0.6568
  180SAPS   H6R20590   2.895   4.869   3.409  2.2455 -0.1404  0.8852
  180SAPS   C2720591   2.974   4.664   3.393 -0.3595 -0.0823 -0.3777
  180SAPS   H7R20592   2.940   4.564   3.357 -1.0336 -0.2041  0.5641
  180SAPS   H7S20593   3.005   4.640   3.497 -0.7538  1.0681  0.0208
  180SAPS   C2820594   3.095   4.706   3.311  0.3415 -0.6070 -0.1927
  180SAPS   H8R20595   3.073   4.705   3.203  0.3739  1.7567 -0.2718
  180SAPS   C2920596   3.202   4.781   3.359  0.1352 -0.7010 -0.0894
  180SAPS   H9R20597   3.277   4.820   3.289  0.2117 -1.0699 -0.2141
  180SAPS  C21020598   3.230   4.815   3.504  0.0940  0.3373 -0.2687
  180SAPS  H10R20599   3.131   4.836   3.551  0.3478  3.2542 -0.8355
  180SAPS  H10S20600   3.282   4.913   3.502 -2.2821  1.6643 -1.1575
  180SAPS  C21120601   3.311   4.709   3.581 -0.3145  0.0850  0.2455
  180SAPS  H11R20602   3.354   4.627   3.523 -1.9919  0.1260 -1.1426
  180SAPS  C21220603   3.313   4.696   3.716 -0.3626 -0.1047 -0.6543
  180SAPS  H12R20604   3.390   4.627   3.752  0.9987 -0.0568 -3.2382
  180SAPS  C21320605   3.237   4.787   3.809  0.1445 -0.7637 -0.5606
  180SAPS  H13R20606   3.274   4.891   3.792  0.6742 -0.8891 -0.2144
  180SAPS  H13S20607   3.268   4.761   3.913 -1.7475 -0.7688  0.0325
  180SAPS  C21420608   3.082   4.769   3.819 -0.3972  0.4358  1.5347
  180SAPS  H14R20609   3.021   4.854   3.784  1.1300  1.9333  2.3817
  180SAPS  C21520610   3.014   4.685   3.896 -0.0791 -0.5687  0.4471
  180SAPS  H15R20611   2.905   4.670   3.885  0.2037 -2.1034 -0.5300
  180SAPS  C21620612   3.068   4.571   3.976  0.0882 -0.2859  0.2701
  180SAPS  H16R20613   3.178   4.563   3.959  0.1297  0.0201  0.3817
  180SAPS  H16S20614   3.028   4.470   3.952 -0.6658 -0.0699  0.6000
  180SAPS  C21720615   3.025   4.596   4.120  0.4073  0.1223  0.0829
  180SAPS  H17R20616   3.029   4.501   4.178  3.1712  1.5828  2.5935
  180SAPS  H17S20617   2.920   4.633   4.120  0.4408  0.4099 -2.6124
  180SAPS  C21820618   3.125   4.692   4.200  0.4145 -0.3959  0.5660
  180SAPS  H18R20619   3.115   4.794   4.159  0.9570 -0.3952  0.4387
  180SAPS  H18S20620   3.228   4.655   4.184 -0.0180 -2.1928  1.5423
  180SAPS  C21920621   3.089   4.696   4.347  0.5457 -0.4863 -0.3900
  180SAPS  H19R20622   2.980   4.714   4.351  0.6166 -0.2131  0.6663
  180SAPS  H19S20623   3.137   4.785   4.392  2.5352 -1.0159 -1.3403
  180SAPS  C22020624   3.120   4.575   4.435  0.4657  0.0806 -0.1923
  180SAPS  H20R20625   3.094   4.582   4.542 -0.0478 -3.3275  0.0344
  180SAPS  H20S20626   3.085   4.474   4.402 -0.2440  0.6038 -1.0983
  180SAPS  H20T20627   3.230   4.558   4.433  0.2157 -2.4589  1.8956
  180SAPS   C3320628   3.459   4.366   3.292  0.9384 -0.5892  0.2998
  180SAPS   H3X20629   3.537   4.416   3.231  2.3349 -3.7530 -0.7428
  180SAPS   H3Y20630   3.460   4.259   3.260  0.9878 -0.5241  0.0818
  180SAPS   C3420631   3.498   4.380   3.442  0.1309 -0.0700  0.1651
  180SAPS   H4X20632   3.502   4.488   3.466 -0.0432  0.1567 -0.7843
  180SAPS   H4Y20633   3.600   4.336   3.450 -0.6392 -2.1769 -0.7925
  180SAPS   C3520634   3.411   4.316   3.542  0.0491  0.5999  0.0242
  180SAPS   H5X20635   3.386   4.212   3.513 -0.2096 -0.9698  4.9884
  180SAPS   H5Y20636   3.310   4.363   3.537 -0.1664  0.1946  0.5138
  180SAPS   C3620637   3.474   4.329   3.683  0.5582 -1.2773  0.2357
  180SAPS   H6X20638   3.519   4.430   3.690 -1.7827  0.1164 -2.3120
  180SAPS   H6Y20639   3.553   4.254   3.703 -0.6830 -3.3302 -1.9729
  180SAPS   C3720640   3.361   4.303   3.785 -0.2527  0.1618 -0.1361
  180SAPS   H7X20641   3.342   4.194   3.775 -0.3084  0.0565  0.9701
  180SAPS   H7Y20642   3.266   4.358   3.769 -1.8097 -1.3038  3.1134
  180SAPS   C3820643   3.385   4.327   3.936 -0.1265 -0.8390 -1.1657
  180SAPS   H8X20644   3.297   4.297   3.998 -0.3046  1.3816 -0.2727
  180SAPS   H8Y20645   3.401   4.431   3.970 -1.8856 -0.6370 -0.8481
  180SAPS   C3920646   3.508   4.244   3.986 -0.1014 -0.5313 -0.2722
  180SAPS   H9X20647   3.600   4.295   3.952 -1.3967  0.6276 -2.2348
  180SAPS   H9Y20648   3.492   4.139   3.953  0.6863 -2.0177  3.5549
  180SAPS  C31020649   3.530   4.241   4.142 -0.9178  0.1020 -0.0570
  180SAPS  H10X20650   3.471   4.151   4.173  0.3825 -0.3822  1.0909
  180SAPS  H10Y20651   3.503   4.331   4.202  1.7974 -0.6058  2.4547
  180SAPS  C31120652   3.683   4.228   4.169 -0.1599 -0.1349  0.5736
  180SAPS  H11X20653   3.733   4.324   4.145  0.2697  0.1017  2.2892
  180SAPS  H11Y20654   3.736   4.147   4.113 -0.8400 -0.8937  1.0148
  180SAPS  C31220655   3.699   4.202   4.322 -0.5652 -0.1280 -0.5372
  180SAPS  H12X20656   3.657   4.100   4.329 -0.2869 -0.1386  1.7946
  180SAPS  H12Y20657   3.652   4.280   4.386 -1.0975 -0.4447 -0.5403
  180SAPS  C31320658   3.846   4.191   4.358  0.1385  0.1991  0.4968
  180SAPS  H13X20659   3.895   4.288   4.332  0.1013 -0.1201 -0.8740
  180SAPS  H13Y20660   3.901   4.106   4.312 -1.9508 -0.7071 -0.4304
  180SAPS  C31420661   3.863   4.170   4.509  0.0667  0.8639  0.1387
  180SAPS  H14X20662   3.805   4.239   4.573 -1.4424 -2.3061  2.5220
  180SAPS  H14Y20663   3.970   4.177   4.538  1.2856 -0.2880 -3.5293
  180SAPS  C31520664   3.812   4.029   4.550  0.0263  0.6480 -0.5273
  180SAPS  H15X20665   3.879   3.949   4.513 -1.2251 -0.1138 -1.2023
  180SAPS  H15Y20666   3.710   4.009   4.511 -0.1475  1.3417 -0.4537
  180SAPS  C31620667   3.801   4.014   4.705 -0.0066  0.4402  0.3312
  180SAPS  H16X20668   3.784   4.110   4.757  0.7135 -0.2842  1.9804
  180SAPS  H16Y20669   3.901   3.979   4.739  0.6473  1.9733  0.0441
  180SAPS  C31720670   3.699   3.906   4.741  0.5716  0.2294 -0.3381
  180SAPS  H17X20671   3.723   3.820   4.674 -1.6401 -0.3597 -0.4558
  180SAPS  H17Y20672   3.594   3.940   4.727  1.1647  1.8089 -1.0948
  180SAPS  C31820673   3.696   3.859   4.889 -0.2669  0.0997 -0.2968
  180SAPS  H18X20674   3.801   3.838   4.921 -0.5850  1.1780  1.6399
  180SAPS  H18Y20675   3.630   3.771   4.897 -1.4250  0.6879 -2.4228
  180SAPS  H18Z20676   3.655   3.939   4.955  3.0658 -0.2031  2.4515
  181POPC     N20677   1.996   0.507   6.888 -0.0176 -0.6126 -0.1918
  181POPC   C1220678   2.034   0.363   6.851 -0.3403  0.4040 -0.6625
  181POPC  H12A20679   1.977   0.297   6.915 -0.2049 -0.0104 -0.9680
  181POPC  H12B20680   2.138   0.348   6.873 -0.6589 -2.5310 -0.7799
  181POPC   C1320681   2.061   0.548   7.012 -0.5656 -0.3643  0.0607
  181POPC  H13A20682   2.163   0.585   7.005  0.3181 -2.2761  1.6721
  181POPC  H13B20683   2.000   0.625   7.056  0.1278  0.3544 -0.2143
  181POPC  H13C20684   2.077   0.478   7.093 -2.6179  0.0419  0.8809
  181POPC   C1420685   2.042   0.600   6.792 -0.5417 -0.2700 -0.2643
  181POPC  H14A20686   1.989   0.692   6.813 -1.0061 -0.9267  1.5868
  181POPC  H14B20687   2.150   0.606   6.795 -0.4202 -2.2347  1.4372
  181POPC  H14C20688   2.033   0.571   6.688  0.3293  2.1383 -1.0894
  181POPC   C1520689   1.849   0.520   6.894 -0.1223  0.1081  0.2077
  181POPC  H15A20690   1.803   0.458   6.969 -1.7851  1.4102  0.3258
  181POPC  H15B20691   1.798   0.503   6.800 -2.8474  1.5232  1.3230
  181POPC  H15C20692   1.830   0.624   6.916  0.4407 -0.1513  2.1482
  181POPC   C1120693   2.014   0.315   6.703 -1.0418 -0.6209 -0.9096
  181POPC  H11A20694   2.061   0.217   6.680 -1.0006 -0.7584 -0.2577
  181POPC  H11B20695   2.069   0.380   6.632  0.0293 -3.1949 -2.5707
  181POPC     P20696   1.776   0.205   6.721  0.1866  0.0033  0.0075
  181POPC   O1320697   1.646   0.229   6.660  0.1695  0.2416  0.0348
  181POPC   O1420698   1.782   0.195   6.867 -0.4429 -0.2624  0.3517
  181POPC   O1220699   1.876   0.315   6.673  0.4414 -0.0720  0.0336
  181POPC   O1120700   1.845   0.072   6.660  0.4478  0.9481  0.6086
  181POPC    C120701   1.866   0.078   6.517 -0.1275  0.0219  0.1848
  181POPC    HA20702   1.947   0.149   6.489 -0.7633  1.3925  1.6605
  181POPC    HB20703   1.777   0.118   6.465 -0.1020 -1.5061 -1.0975
  181POPC    C220704   1.881  -0.068   6.461 -0.2109  0.3768  0.1499
  181POPC    HS20705   1.958  -0.115   6.526  1.4801  3.2501  0.3637
  181POPC   O2120706   1.912  -0.061   6.321 -0.0196 -1.0760  0.1729
  181POPC   C2120707   2.000  -0.145   6.280  0.2227 -0.0111  0.3022
  181POPC   O2220708   2.068  -0.225   6.345 -0.3212  0.2149 -1.0073
  181POPC   C2220709   2.014  -0.137   6.127  0.4814 -0.6998  0.8057
  181POPC   H2R20710   2.091  -0.058   6.118 -1.6224  1.4278  0.7409
  181POPC   H2S20711   1.921  -0.096   6.083 -0.1024 -0.6547  2.0308
  181POPC    C320712   1.747  -0.151   6.468 -0.5656  0.0461 -0.2385
  181POPC    HX20713   1.662  -0.088   6.433 -0.6569  1.0987  1.7490
  181POPC    HY20714   1.727  -0.166   6.576  1.9050  3.7483  0.8971
  181POPC   O3120715   1.748  -0.279   6.393  0.2440 -0.0841  0.1013
  181POPC   C3120716   1.794  -0.388   6.458 -0.2947  0.0708  0.3554
  181POPC   O3220717   1.816  -0.394   6.576  0.3413  0.1129 -0.4542
  181POPC   C3220718   1.831  -0.501   6.363 -0.2798 -0.0636  0.0296
  181POPC   H2X20719   1.836  -0.603   6.407 -0.4864  0.4063  1.1573
  181POPC   H2Y20720   1.930  -0.481   6.318 -0.0287 -0.0368  0.5915
  181POPC   C2320721   2.050  -0.265   6.058 -0.1590 -0.0570 -0.3108
  181POPC   H3R20722   1.966  -0.338   6.066  0.3920 -0.6647  0.0965
  181POPC   H3S20723   2.128  -0.320   6.114 -1.2567 -3.2689 -1.6823
  181POPC   C2420724   2.094  -0.251   5.916 -0.8269  0.0671 -0.3989
  181POPC   H4R20725   2.113  -0.346   5.861  1.2315 -0.5272  1.2080
  181POPC   H4S20726   2.194  -0.203   5.908 -0.7856 -0.2545 -2.2740
  181POPC   C2520727   1.984  -0.174   5.830 -0.2457  0.4406 -0.0618
  181POPC   H5R20728   1.958  -0.078   5.879  0.9088  0.9521 -0.4023
  181POPC   H5S20729   1.895  -0.238   5.814  0.3090 -0.7148  1.2060
  181POPC   C2620730   2.032  -0.137   5.686 -0.1845  0.4806 -0.7023
  181POPC   H6R20731   2.127  -0.079   5.688  1.3335 -1.8740  0.3865
  181POPC   H6S20732   1.953  -0.073   5.641 -0.8240  1.0656  1.1593
  181POPC   C2720733   2.035  -0.252   5.580 -0.1406  0.3240 -0.5858
  181POPC   H7R20734   1.939  -0.306   5.572 -1.1336  1.8783  0.2665
  181POPC   H7S20735   2.106  -0.329   5.617 -1.9001 -1.0025  0.1393
  181POPC   C2820736   2.040  -0.202   5.432  0.1559  0.7389  0.1759
  181POPC   H8R20737   1.989  -0.103   5.429  0.3509  0.8924  1.3601
  181POPC   H8S20738   1.975  -0.268   5.371 -1.9439  4.0781 -1.5018
  181POPC   C2920739   2.181  -0.200   5.376  0.1909 -0.7488  0.3011
  181POPC   H9120740   2.257  -0.165   5.448  1.1882  0.0949 -1.1206
  181POPC  C21020741   2.218  -0.242   5.255 -0.3813 -0.8086  0.1125
  181POPC  H10120742   2.323  -0.224   5.228 -0.4071  0.7297  0.9668
  181POPC  C21120743   2.125  -0.294   5.151  0.3474  0.1603  0.3165
  181POPC  H11R20744   2.017  -0.280   5.170 -0.0166 -0.4763 -1.0780
  181POPC  H11S20745   2.154  -0.401   5.138  2.5240  1.0174 -3.6464
  181POPC  C21220746   2.136  -0.249   5.004 -0.0844 -0.0292 -0.7998
  181POPC  H12R20747   2.078  -0.316   4.937  1.4097 -0.7449 -1.4478
  181POPC  H12S20748   2.243  -0.263   4.978 -0.0333  0.4908 -0.8723
  181POPC  C21320749   2.113  -0.100   4.981  0.1261  0.6568  0.3261
  181POPC  H13R20750   2.174  -0.049   5.059  1.0261 -0.1240  0.1613
  181POPC  H13S20751   2.006  -0.091   5.009 -0.3356 -3.0697  0.3229
  181POPC  C21420752   2.149  -0.069   4.840 -0.1629  0.2428 -0.1063
  181POPC  H14R20753   2.249  -0.109   4.815 -0.2777  0.1475 -0.4153
  181POPC  H14S20754   2.151   0.040   4.817 -2.0868 -0.2479 -3.2151
  181POPC  C21520755   2.042  -0.123   4.742 -0.5359  0.9979 -0.8464
  181POPC  H15R20756   1.962  -0.048   4.759 -0.6704  0.4599  1.2289
  181POPC  H15S20757   1.996  -0.217   4.779  0.5423  0.7900  0.0224
  181POPC  C21620758   2.081  -0.111   4.593  0.4176  0.2421 -0.2445
  181POPC  H16R20759   2.159  -0.183   4.563 -0.8546 -0.5706 -1.7873
  181POPC  H16S20760   2.128  -0.011   4.580 -0.5939  0.5154 -2.2747
  181POPC  C21720761   1.963  -0.114   4.497  0.2389 -0.1859  0.0952
  181POPC  H17R20762   2.003  -0.090   4.396  0.2727  2.2985  0.6207
  181POPC  H17S20763   1.886  -0.037   4.521  0.2764 -0.0884 -0.0926
  181POPC  C21820764   1.905  -0.255   4.479 -0.1705 -0.1224 -0.1403
  181POPC  H18R20765   1.890  -0.307   4.576 -0.0108 -2.2023 -1.1892
  181POPC  H18S20766   1.984  -0.312   4.426  0.3023 -0.2227  0.6443
  181POPC  H18T20767   1.824  -0.266   4.404  0.0332  1.3531 -0.6066
  181POPC   C3320768   1.721  -0.517   6.263 -0.2159 -0.3464  0.4909
  181POPC   H3X20769   1.721  -0.420   6.208  1.4362 -1.2671 -1.2438
  181POPC   H3Y20770   1.615  -0.529   6.296 -0.7348  0.9256 -0.6001
  181POPC   C3420771   1.760  -0.630   6.164 -0.0693 -0.5977  0.1108
  181POPC   H4X20772   1.760  -0.727   6.218  1.6746 -0.4751  0.3749
  181POPC   H4Y20773   1.863  -0.604   6.134 -0.1991  1.9371  1.5330
  181POPC   C3520774   1.680  -0.643   6.032  0.2867  0.1411  0.7608
  181POPC   H5X20775   1.653  -0.549   5.980 -0.8251 -1.0466 -0.9409
  181POPC   H5Y20776   1.581  -0.688   6.051  0.4653 -0.5811  0.0330
  181POPC   C3620777   1.738  -0.725   5.916 -0.2330  0.7033  0.1610
  181POPC   H6X20778   1.765  -0.826   5.955 -0.8508 -0.4599 -2.2237
  181POPC   H6Y20779   1.842  -0.694   5.891 -0.2185  0.1296 -0.5272
  181POPC   C3720780   1.648  -0.735   5.795 -0.4431 -0.4320 -0.7037
  181POPC   H7X20781   1.622  -0.633   5.761 -0.1800  0.4031  1.4262
  181POPC   H7Y20782   1.550  -0.784   5.815  0.4651 -1.1781  2.4195
  181POPC   C3820783   1.713  -0.825   5.693 -0.5132  0.0140  0.1163
  181POPC   H8X20784   1.696  -0.934   5.710 -0.9725 -0.2965 -1.9773
  181POPC   H8Y20785   1.822  -0.806   5.695 -0.6145  0.8996 -1.2928
  181POPC   C3920786   1.670  -0.801   5.545 -0.6713 -0.6593  0.6994
  181POPC   H9X20787   1.559  -0.801   5.535 -0.5634 -1.4068 -0.7339
  181POPC   H9Y20788   1.711  -0.878   5.477 -2.5446  1.1756 -2.8138
  181POPC  C31020789   1.718  -0.662   5.493  0.2204  0.6304 -0.0987
  181POPC  H10X20790   1.829  -0.658   5.490  0.2310 -0.0036 -1.2798
  181POPC  H10Y20791   1.693  -0.582   5.565  0.8568  0.7360  0.0170
  181POPC  C31120792   1.676  -0.619   5.352  0.2641  0.1972  0.6571
  181POPC  H11X20793   1.579  -0.565   5.361 -0.8852 -1.9016  1.4713
  181POPC  H11Y20794   1.672  -0.691   5.268 -1.6078  2.4961 -1.3812
  181POPC  C31220795   1.774  -0.498   5.325 -0.3364 -0.2071  0.1047
  181POPC  H12X20796   1.878  -0.528   5.300 -0.2042 -1.1478  1.6678
  181POPC  H12Y20797   1.768  -0.439   5.418  0.5164  1.0104 -0.5906
  181POPC  C31320798   1.722  -0.402   5.215  0.0040  0.1554 -0.5260
  181POPC  H13X20799   1.771  -0.304   5.234  1.1761 -0.5844  0.4602
  181POPC  H13Y20800   1.611  -0.401   5.210 -0.0138 -1.5963 -1.2639
  181POPC  C31420801   1.775  -0.439   5.076 -0.3689 -0.0776  0.2359
  181POPC  H14X20802   1.748  -0.546   5.063 -0.6872  0.0508 -0.1785
  181POPC  H14Y20803   1.885  -0.424   5.078 -0.2405 -0.9254 -0.0270
  181POPC  C31520804   1.713  -0.352   4.963  0.7395  0.1017  0.0975
  181POPC  H15X20805   1.776  -0.262   4.950  0.9712  0.0989  1.1814
  181POPC  H15Y20806   1.607  -0.325   4.983  0.5809  1.2245 -1.9223
  181POPC  C31620807   1.708  -0.417   4.823 -0.6382 -0.6875 -0.6976
  181POPC  H16X20808   1.746  -0.354   4.741 -0.6542 -0.6376 -0.6660
  181POPC  H16Y20809   1.609  -0.453   4.789 -0.9971 -1.8122  1.3238
  181POPC  H16Z20810   1.784  -0.499   4.827 -1.8817 -1.9337 -1.6947
  182POPC     N20811   5.927   5.428   7.143  1.3554  0.4337 -1.1071
  182POPC   C1220812   5.791   5.489   7.185  0.4815 -1.1843 -0.1269
  182POPC  H12A20813   5.823   5.579   7.235 -2.7474  0.8936 -1.4581
  182POPC  H12B20814   5.746   5.435   7.267  2.6844 -1.9312  0.6634
  182POPC   C1320815   5.906   5.308   7.060 -0.0817 -0.2806  0.6110
  182POPC  H13A20816   5.823   5.313   6.991  1.7744 -0.3922 -1.7793
  182POPC  H13B20817   6.000   5.283   7.013 -0.1846  0.0003  0.2567
  182POPC  H13C20818   5.885   5.223   7.123  1.2074 -0.0783  1.3335
  182POPC   C1420819   6.006   5.525   7.055 -0.3671 -0.3129  0.5092
  182POPC  H14A20820   6.101   5.478   7.037  0.4246  1.7911 -1.1429
  182POPC  H14B20821   5.966   5.561   6.962  2.5040  2.5882  0.2486
  182POPC  H14C20822   6.038   5.615   7.104  0.0374 -0.5577  0.6981
  182POPC   C1520823   6.006   5.398   7.267 -0.2920  0.0565  0.5298
  182POPC  H15A20824   6.018   5.480   7.337  0.2742  1.9275 -1.6270
  182POPC  H15B20825   6.100   5.355   7.237 -0.5736 -0.8618  0.9376
  182POPC  H15C20826   5.955   5.320   7.322 -3.6992  0.5875 -1.5552
  182POPC   C1120827   5.694   5.549   7.075  0.3852  0.6066  0.3720
  182POPC  H11A20828   5.604   5.485   7.062  0.3767  0.7241 -0.1677
  182POPC  H11B20829   5.750   5.561   6.980  0.6042  1.0051  0.5507
  182POPC     P20830   5.723   5.807   7.065  0.6969 -0.2362  0.2158
  182POPC   O1320831   5.833   5.777   6.968 -0.4428 -0.0657  0.5326
  182POPC   O1420832   5.757   5.889   7.180 -0.0284  0.4363 -0.4230
  182POPC   O1220833   5.654   5.671   7.124 -0.3336 -0.2169  0.1453
  182POPC   O1120834   5.609   5.879   6.996 -0.1552  0.1099 -0.6343
  182POPC    C120835   5.603   6.017   6.949 -0.0143  0.2834 -0.1340
  182POPC    HA20836   5.652   6.087   7.021  0.9992 -0.6315  0.0957
  182POPC    HB20837   5.502   6.054   6.924  0.0671 -0.4266 -1.6452
  182POPC    C220838   5.676   6.037   6.805 -0.5880 -0.7212 -0.8124
  182POPC    HS20839   5.628   6.131   6.769 -0.3960  0.0886  0.9457
  182POPC   O2120840   5.650   5.935   6.713 -0.2871  0.2349  0.3055
  182POPC   C2120841   5.525   5.921   6.667  0.3654 -0.2540  0.1330
  182POPC   O2220842   5.438   6.008   6.681 -0.3862  0.2105 -0.1823
  182POPC   C2220843   5.504   5.787   6.593 -0.1383  0.7555 -0.8758
  182POPC   H2R20844   5.396   5.763   6.582 -0.1109 -1.0456  1.7717
  182POPC   H2S20845   5.547   5.709   6.659 -2.6524 -2.0264 -2.3052
  182POPC    C320846   5.827   6.064   6.824  0.1068  0.1152  0.3004
  182POPC    HX20847   5.865   5.960   6.838 -0.4855 -0.0245  0.9256
  182POPC    HY20848   5.846   6.124   6.915  1.3476  0.8072 -0.3926
  182POPC   O3120849   5.879   6.135   6.707  0.5045 -0.4734  0.3159
  182POPC   C3120850   5.906   6.063   6.597 -0.4539 -0.7007  0.3545
  182POPC   O3220851   5.961   5.953   6.595  0.5105  0.0868 -0.7711
  182POPC   C3220852   5.862   6.137   6.471 -0.4218 -0.7816 -0.3439
  182POPC   H2X20853   5.927   6.227   6.461 -4.1199  2.1851  0.1579
  182POPC   H2Y20854   5.759   6.174   6.491 -0.0929  0.2738 -0.5362
  182POPC   C2320855   5.570   5.781   6.448 -1.1265 -0.1623  0.2838
  182POPC   H3R20856   5.679   5.764   6.461 -0.9749 -0.2218 -0.9525
  182POPC   H3S20857   5.553   5.876   6.393  0.0388 -1.5743 -2.7630
  182POPC   C2420858   5.520   5.666   6.363  0.2698  0.7903  0.2827
  182POPC   H4R20859   5.417   5.645   6.398  0.6187  0.9114  1.4589
  182POPC   H4S20860   5.579   5.577   6.394  0.1775  0.6677  0.1049
  182POPC   C2520861   5.524   5.699   6.216 -0.2452  0.0643  0.2384
  182POPC   H5R20862   5.622   5.746   6.193 -0.9819  1.7264  0.3169
  182POPC   H5S20863   5.438   5.768   6.202 -1.3590 -1.1592  0.7483
  182POPC   C2620864   5.491   5.575   6.128 -0.0644 -0.5537 -0.6571
  182POPC   H6R20865   5.397   5.528   6.164 -1.7760  2.7778 -0.3127
  182POPC   H6S20866   5.577   5.506   6.135 -0.3030 -0.8087 -0.2230
  182POPC   C2720867   5.479   5.611   5.975 -0.0948  0.3606 -0.1937
  182POPC   H7R20868   5.574   5.662   5.950  2.4154 -3.1756  1.2753
  182POPC   H7S20869   5.389   5.674   5.957  0.0856  0.7827  0.3570
  182POPC   C2820870   5.478   5.490   5.878 -0.2480 -0.7211  0.7150
  182POPC   H8R20871   5.563   5.422   5.898  0.8703  0.6922  0.9634
  182POPC   H8S20872   5.507   5.531   5.779 -1.0638  0.4383  0.9396
  182POPC   C2920873   5.349   5.416   5.871  0.0413 -0.4052 -0.4982
  182POPC   H9120874   5.320   5.360   5.962  1.4177  0.3493  0.4320
  182POPC  C21020875   5.266   5.411   5.763 -0.4868 -0.2570 -0.1196
  182POPC  H10120876   5.171   5.359   5.779 -0.2360 -0.1965  1.8276
  182POPC  C21120877   5.270   5.480   5.632  0.3255 -0.5271  0.0431
  182POPC  H11R20878   5.335   5.569   5.648 -0.3361 -0.0726  0.2175
  182POPC  H11S20879   5.166   5.505   5.603  0.1126 -1.4538 -0.0287
  182POPC  C21220880   5.341   5.419   5.514  0.1243 -0.2023 -0.0833
  182POPC  H12R20881   5.292   5.323   5.486  0.3078 -0.5878  0.8556
  182POPC  H12S20882   5.449   5.406   5.538 -0.1223  1.3382  2.1573
  182POPC  C21320883   5.351   5.514   5.390 -0.1221  0.0097 -0.1679
  182POPC  H13R20884   5.244   5.531   5.365  0.0603 -1.2022 -2.0393
  182POPC  H13S20885   5.411   5.455   5.318  1.0069 -0.7148  1.3189
  182POPC  C21420886   5.411   5.650   5.413  0.4414 -0.1675  0.3599
  182POPC  H14R20887   5.488   5.633   5.492  0.2136 -1.0353  0.3997
  182POPC  H14S20888   5.346   5.728   5.457 -2.2809 -2.1973  0.1621
  182POPC  C21520889   5.489   5.715   5.286  0.3892  0.0706 -0.4363
  182POPC  H15R20890   5.584   5.660   5.271  0.9132  0.9566 -0.4235
  182POPC  H15S20891   5.521   5.812   5.329  1.8202 -0.1927 -0.8710
  182POPC  C21620892   5.399   5.724   5.157  0.4445 -0.1734  0.6668
  182POPC  H16R20893   5.302   5.757   5.201  0.4750  1.2659 -0.2698
  182POPC  H16S20894   5.383   5.622   5.115  0.5307  0.4490 -0.9438
  182POPC  C21720895   5.454   5.816   5.049 -0.2242  0.1612 -0.6097
  182POPC  H17R20896   5.558   5.787   5.023 -1.7898 -4.4021 -2.9542
  182POPC  H17S20897   5.444   5.916   5.097 -3.8420 -0.6850  0.7450
  182POPC  C21820898   5.363   5.824   4.934 -0.3687  0.1989  1.1662
  182POPC  H18R20899   5.401   5.909   4.874  0.2237 -0.7065  0.2174
  182POPC  H18S20900   5.256   5.842   4.959 -0.2722  1.7611  0.5792
  182POPC  H18T20901   5.373   5.725   4.885  1.3478  1.3587 -1.0282
  182POPC   C3320902   5.863   6.044   6.344 -0.2431  0.2810  0.2374
  182POPC   H3X20903   5.790   5.963   6.367  0.5563 -0.6810 -0.4918
  182POPC   H3Y20904   5.963   5.996   6.340  0.4995  1.7958  0.1483
  182POPC   C3420905   5.820   6.094   6.207 -0.2897 -0.3171  0.6613
  182POPC   H4X20906   5.888   6.178   6.181  1.9239 -2.0344  0.6004
  182POPC   H4Y20907   5.712   6.121   6.205 -0.6903 -1.8311 -1.0170
  182POPC   C3520908   5.842   5.982   6.101 -0.3214  0.5602  0.2509
  182POPC   H5X20909   5.783   5.890   6.124 -0.7113  0.7514  0.0254
  182POPC   H5Y20910   5.947   5.947   6.108 -0.5397 -0.2375 -0.3400
  182POPC   C3620911   5.795   6.025   5.965  0.2817 -0.6213  0.0412
  182POPC   H6X20912   5.828   5.956   5.885  2.8733  1.2351 -0.6341
  182POPC   H6Y20913   5.846   6.122   5.945  2.0190 -1.6196 -0.6086
  182POPC   C3720914   5.638   6.017   5.943 -0.0164 -0.0744 -0.0379
  182POPC   H7X20915   5.581   6.043   6.034 -0.6336 -0.6066 -0.2617
  182POPC   H7Y20916   5.616   5.912   5.916  1.5937 -0.1075 -1.4330
  182POPC   C3820917   5.595   6.119   5.839  0.0741  0.3845 -0.7267
  182POPC   H8X20918   5.643   6.215   5.868  2.4053 -1.3801  1.7160
  182POPC   H8Y20919   5.484   6.119   5.843 -0.0032  1.3846 -2.0898
  182POPC   C3920920   5.635   6.086   5.694 -0.4652 -0.0883 -0.1569
  182POPC   H9X20921   5.579   5.992   5.675  0.7614 -0.2655 -3.7279
  182POPC   H9Y20922   5.743   6.057   5.694 -1.0578 -2.4601 -0.0912
  182POPC  C31020923   5.593   6.174   5.580 -0.3507  0.5617  0.1125
  182POPC  H10X20924   5.643   6.274   5.581 -2.1723  1.5393 -0.7224
  182POPC  H10Y20925   5.484   6.195   5.593 -0.6415 -0.3662 -0.7417
  182POPC  C31120926   5.625   6.111   5.445  0.3041  0.0146  0.1769
  182POPC  H11X20927   5.569   6.016   5.435 -1.6422  0.8984  1.8825
  182POPC  H11Y20928   5.735   6.096   5.439  0.1931 -0.3095 -1.2816
  182POPC  C31220929   5.573   6.200   5.327 -0.7678 -0.3442  0.7666
  182POPC  H12X20930   5.611   6.304   5.333 -0.4195 -0.4684  0.7301
  182POPC  H12Y20931   5.463   6.193   5.334 -0.7550 -0.6782  0.6518
  182POPC  C31320932   5.626   6.142   5.195  0.3050  0.4991  0.0470
  182POPC  H13X20933   5.606   6.033   5.199  0.4440  0.4714 -0.0131
  182POPC  H13Y20934   5.736   6.155   5.195  0.5773 -0.8830  3.4697
  182POPC  C31420935   5.560   6.196   5.066 -0.2040  0.3244  0.3339
  182POPC  H14X20936   5.571   6.305   5.084  2.5892  0.2128 -0.2429
  182POPC  H14Y20937   5.458   6.157   5.049  0.3535  0.0855 -3.2807
  182POPC  C31520938   5.630   6.151   4.929  0.0693 -0.1397 -0.3771
  182POPC  H15X20939   5.598   6.046   4.910 -0.0535 -0.1939  0.1156
  182POPC  H15Y20940   5.740   6.155   4.948 -0.2125  1.7127  1.1834
  182POPC  C31620941   5.598   6.242   4.818  0.1270  0.2959 -0.1596
  182POPC  H16X20942   5.498   6.219   4.774 -0.4599 -0.3906  1.4796
  182POPC  H16Y20943   5.662   6.228   4.728 -0.4228 -0.4402 -0.4508
  182POPC  H16Z20944   5.608   6.350   4.843  1.9671  0.2141 -0.4497
  183POPC     N20945   0.371   3.487   6.970 -0.5392 -0.6830  0.2788
  183POPC   C1220946   0.269   3.580   6.913  1.2563  0.8696  0.2916
  183POPC  H12A20947   0.226   3.641   6.991 -1.5090  0.3430 -0.7057
  183POPC  H12B20948   0.190   3.522   6.869  2.9813 -1.6872  0.3207
  183POPC   C1320949   0.456   3.545   7.080  0.2469 -0.2465  0.0635
  183POPC  H13A20950   0.529   3.472   7.113 -2.0809 -2.3262  0.9324
  183POPC  H13B20951   0.503   3.640   7.061  0.0127  0.1663  1.3920
  183POPC  H13C20952   0.406   3.563   7.174 -2.4207 -0.1888 -1.2721
  183POPC   C1420953   0.304   3.366   7.045 -0.8133  0.5562 -0.0623
  183POPC  H14A20954   0.284   3.404   7.145  2.6423  3.1835 -0.1748
  183POPC  H14B20955   0.207   3.343   7.005 -0.2265 -0.0911 -1.1685
  183POPC  H14C20956   0.369   3.279   7.049 -2.4017 -0.8739 -2.5924
  183POPC   C1520957   0.462   3.433   6.871 -0.3008  0.2042 -0.0070
  183POPC  H15A20958   0.419   3.413   6.774  2.7020  0.9595 -1.6283
  183POPC  H15B20959   0.509   3.344   6.909 -0.5285 -0.4723 -1.2530
  183POPC  H15C20960   0.537   3.502   6.836 -0.8564  0.9904  0.3396
  183POPC   C1120961   0.323   3.677   6.802  0.8723 -0.0019 -0.2504
  183POPC  H11A20962   0.354   3.621   6.711  0.8037  0.1304 -0.3542
  183POPC  H11B20963   0.411   3.730   6.845 -0.8625  0.8773  2.4352
  183POPC     P20964   0.205   3.915   6.770 -0.1242  0.4144  0.2119
  183POPC   O1320965   0.303   3.968   6.867 -0.0321 -0.2307  0.4581
  183POPC   O1420966   0.062   3.952   6.798 -0.0377 -0.2596 -0.8017
  183POPC   O1220967   0.205   3.751   6.774 -0.3486 -0.6201 -0.3028
  183POPC   O1120968   0.254   3.959   6.628  0.2086 -0.0530 -0.0913
  183POPC    C120969   0.186   3.905   6.513  0.2055  0.6302 -0.3761
  183POPC    HA20970   0.198   3.978   6.430 -0.1893  1.1829  0.0498
  183POPC    HB20971   0.076   3.903   6.528 -0.2404 -3.3000 -2.7875
  183POPC    C220972   0.247   3.772   6.459  0.3898  0.1775 -0.2702
  183POPC    HS20973   0.223   3.698   6.539 -0.0865  1.1174  0.4781
  183POPC   O2120974   0.385   3.798   6.444  0.2622 -0.1542 -0.4673
  183POPC   C2120975   0.460   3.684   6.458 -0.1942 -0.1480 -1.1337
  183POPC   O2220976   0.419   3.576   6.480 -0.2162  0.5239  0.0192
  183POPC   C2220977   0.612   3.721   6.451 -0.0913 -0.0093 -0.0524
  183POPC   H2R20978   0.635   3.730   6.559 -2.4711  0.9072  0.4316
  183POPC   H2S20979   0.627   3.811   6.388 -0.6293 -0.3499 -0.6789
  183POPC    C320980   0.178   3.733   6.325 -0.2620  0.7574  0.1608
  183POPC    HX20981   0.243   3.667   6.263  1.6702  0.9004  1.9235
  183POPC    HY20982   0.156   3.820   6.260 -2.0052  0.0441 -0.2633
  183POPC   O3120983   0.051   3.667   6.345 -0.5429 -0.2292  0.0972
  183POPC   C3120984   0.060   3.533   6.351  0.0023  0.2760  0.0292
  183POPC   O3220985   0.156   3.463   6.359 -0.1315 -0.4921 -0.2359
  183POPC   C3220986  -0.075   3.471   6.339 -0.3827  0.4338  0.6043
  183POPC   H2X20987  -0.134   3.507   6.426 -1.3581  0.3164  0.0013
  183POPC   H2Y20988  -0.065   3.361   6.350  0.3938  0.5121  0.7484
  183POPC   C2320989   0.708   3.614   6.399 -0.2077  0.1503  0.0463
  183POPC   H3R20990   0.689   3.522   6.459  0.1793 -0.5471 -0.8768
  183POPC   H3S20991   0.811   3.645   6.425 -0.1095 -0.4426  0.3819
  183POPC   C2420992   0.691   3.596   6.247  0.3444 -0.2381 -0.0945
  183POPC   H4R20993   0.585   3.578   6.219  0.6730  0.3166 -1.8074
  183POPC   H4S20994   0.759   3.513   6.218  2.9280  2.5054 -2.5539
  183POPC   C2520995   0.745   3.719   6.168 -0.2727 -0.0719 -0.2878
  183POPC   H5R20996   0.846   3.743   6.207 -0.2690  1.6853 -1.2981
  183POPC   H5S20997   0.680   3.804   6.196  0.3382  0.1838  0.3718
  183POPC   C2620998   0.744   3.712   6.020 -0.5489 -0.1588  0.5590
  183POPC   H6R20999   0.763   3.809   5.970  1.9090 -0.1096  1.4419
  183POPC   H6S21000   0.646   3.686   5.976  0.2131 -0.1682 -1.1959
  183POPC   C2721001   0.856   3.624   5.961  0.1275  0.3698 -0.1276
  183POPC   H7R21002   0.834   3.613   5.852 -0.6284 -0.6826  0.1199
  183POPC   H7S21003   0.846   3.524   6.007  0.0679 -0.1786 -1.2817
  183POPC   C2821004   1.001   3.668   5.994  0.0971  0.2642 -0.3030
  183POPC   H8R21005   1.061   3.576   5.977  0.8914  0.5105  1.0838
  183POPC   H8S21006   1.024   3.682   6.102 -0.9046  0.2408 -0.0757
  183POPC   C2921007   1.044   3.798   5.931  1.2387 -0.1806  0.2949
  183POPC   H9121008   1.034   3.881   6.003 -0.9286 -1.9181  2.1798
  183POPC  C21021009   1.089   3.816   5.804  0.0531  0.0738  0.0622
  183POPC  H10121010   1.108   3.920   5.775 -0.5126  0.2875  0.4373
  183POPC  C21121011   1.116   3.709   5.703  1.0663 -0.1920  0.9484
  183POPC  H11R21012   1.040   3.632   5.728 -0.5303  0.9002 -0.2993
  183POPC  H11S21013   1.217   3.668   5.723  0.3191 -3.8319 -1.6048
  183POPC  C21221014   1.110   3.746   5.558 -0.2668 -0.1609  0.0154
  183POPC  H12R21015   1.135   3.652   5.504  0.0625 -1.0604  1.6582
  183POPC  H12S21016   1.176   3.831   5.533  0.0171 -0.4267 -0.1471
  183POPC  C21321017   0.967   3.778   5.516  0.5203 -0.4032 -0.2770
  183POPC  H13R21018   0.940   3.868   5.576  1.7903  1.1023 -1.8594
  183POPC  H13S21019   0.900   3.695   5.550  1.3253 -0.4871  1.1868
  183POPC  C21421020   0.947   3.812   5.370 -0.1766  0.1682  0.3811
  183POPC  H14R21021   1.009   3.898   5.337 -3.3494  2.8072  0.7587
  183POPC  H14S21022   0.842   3.839   5.344 -0.0845 -1.2902 -1.7506
  183POPC  C21521023   0.966   3.687   5.273 -0.6314 -0.2766  0.2150
  183POPC  H15R21024   0.933   3.590   5.317  1.9462 -1.5948 -0.5271
  183POPC  H15S21025   1.077   3.697   5.273 -0.6359  1.1517 -3.3044
  183POPC  C21621026   0.939   3.696   5.124  0.3582  0.2226  0.6885
  183POPC  H16R21027   0.844   3.639   5.118  1.3787 -1.7992  2.3630
  183POPC  H16S21028   1.018   3.638   5.072  0.4504  0.8271  0.1535
  183POPC  C21721029   0.930   3.839   5.063  0.0371  0.8896 -0.3988
  183POPC  H17R21030   1.036   3.869   5.055  0.2007  0.2987 -0.4491
  183POPC  H17S21031   0.864   3.899   5.129  0.0289 -0.0278  0.4456
  183POPC  C21821032   0.869   3.851   4.922 -0.6657 -0.5448 -0.3225
  183POPC  H18R21033   0.762   3.821   4.922 -1.4824  1.9221  1.6926
  183POPC  H18S21034   0.915   3.770   4.862  0.5036  0.8317 -1.3493
  183POPC  H18T21035   0.887   3.954   4.884 -1.0794  0.4134  1.8905
  183POPC   C3321036  -0.144   3.486   6.203 -0.1270  0.2613  0.3517
  183POPC   H3X21037  -0.177   3.592   6.191  1.6404  1.0161  1.6686
  183POPC   H3Y21038  -0.226   3.414   6.181 -0.3438  0.6545 -0.1494
  183POPC   C3421039  -0.059   3.455   6.073 -0.0571 -0.9730 -0.0005
  183POPC   H4X21040  -0.034   3.348   6.063  1.2770 -0.4900 -2.5568
  183POPC   H4Y21041   0.037   3.511   6.079 -1.1394  0.9046  1.2795
  183POPC   C3521042  -0.131   3.499   5.940  0.2281 -0.1585 -0.1272
  183POPC   H5X21043  -0.159   3.607   5.944  2.5968  0.5010  2.7978
  183POPC   H5Y21044  -0.230   3.451   5.929 -0.5592  1.8032 -2.4366
  183POPC   C3621045  -0.029   3.474   5.826 -0.3204  0.1451 -0.5448
  183POPC   H6X21046   0.002   3.367   5.830 -0.2643  0.1181 -1.6287
  183POPC   H6Y21047   0.068   3.525   5.843 -1.0059  1.7813 -1.3853
  183POPC   C3721048  -0.091   3.495   5.688 -0.2130 -0.6212  0.0665
  183POPC   H7X21049  -0.122   3.602   5.688  0.1478 -0.5110 -0.4636
  183POPC   H7Y21050  -0.174   3.422   5.682 -0.0843 -0.8647  1.1305
  183POPC   C3821051   0.005   3.469   5.574 -0.1761  0.2785  0.5909
  183POPC   H8X21052   0.047   3.366   5.577 -0.2979  0.2196  0.3288
  183POPC   H8Y21053   0.087   3.543   5.582  0.8594 -0.5917 -1.1752
  183POPC   C3921054  -0.062   3.478   5.440  0.4868  0.8139 -0.4478
  183POPC   H9X21055  -0.104   3.580   5.426 -0.3051  0.2122 -2.8772
  183POPC   H9Y21056  -0.146   3.405   5.440 -0.6812  2.0717 -2.9403
  183POPC  C31021057   0.028   3.448   5.324 -0.0593  0.2539  0.0041
  183POPC  H10X21058   0.059   3.342   5.332  1.1900  0.6932  1.4162
  183POPC  H10Y21059   0.116   3.511   5.300  0.7502 -1.6758 -2.5352
  183POPC  C31121060  -0.053   3.461   5.198 -0.0701  0.4927  0.2761
  183POPC  H11X21061  -0.092   3.565   5.202 -0.2419  0.4784 -0.6943
  183POPC  H11Y21062  -0.137   3.390   5.203  0.9934 -0.8311 -0.1107
  183POPC  C31221063   0.017   3.454   5.066 -0.1046  0.5287 -0.3084
  183POPC  H12X21064   0.069   3.356   5.062 -1.6321 -0.3257  0.1797
  183POPC  H12Y21065   0.094   3.534   5.058 -0.1583  0.6027 -0.0974
  183POPC  C31321066  -0.083   3.463   4.951 -0.3393  0.0390  0.2970
  183POPC  H13X21067  -0.077   3.561   4.898 -0.4062  0.0648  0.3374
  183POPC  H13Y21068  -0.186   3.452   4.991 -0.2510  0.7459  0.7425
  183POPC  C31421069  -0.056   3.357   4.841 -0.5189  0.2006 -0.0487
  183POPC  H14X21070  -0.057   3.256   4.887 -0.5615 -0.7018 -1.9144
  183POPC  H14Y21071   0.043   3.377   4.793  0.4091 -1.1834  1.2131
  183POPC  C31521072  -0.158   3.350   4.728  0.9494 -0.6056 -0.2976
  183POPC  H15X21073  -0.167   3.451   4.682  0.6298 -1.7452 -2.9248
  183POPC  H15Y21074  -0.253   3.329   4.783  0.1587 -0.3134 -1.4979
  183POPC  C31621075  -0.135   3.233   4.627 -0.1277  0.0515  0.7100
  183POPC  H16X21076  -0.041   3.250   4.569 -0.3315  0.7018  0.5597
  183POPC  H16Y21077  -0.210   3.243   4.546 -0.8317 -0.0791  1.3363
  183POPC  H16Z21078  -0.137   3.127   4.661  0.5722 -0.8923 -1.9561
  184POPC     N21079   1.623   3.776   7.178 -0.3321 -0.1915 -0.1647
  184POPC   C1221080   1.576   3.831   7.048 -0.4357 -1.2684 -0.5071
  184POPC  H12A21081   1.581   3.938   7.055  1.2238 -1.3701  0.3211
  184POPC  H12B21082   1.470   3.819   7.033 -0.8392  0.5829  0.6111
  184POPC   C1321083   1.540   3.822   7.289 -0.3737 -0.1521  0.2336
  184POPC  H13A21084   1.552   3.928   7.309  0.5591 -0.2333  0.1586
  184POPC  H13B21085   1.437   3.797   7.267 -0.4436 -0.2620  0.6857
  184POPC  H13C21086   1.563   3.778   7.384 -5.0739 -0.1434  1.6294
  184POPC   C1421087   1.633   3.628   7.176  0.0284 -0.4137 -0.0778
  184POPC  H14A21088   1.707   3.602   7.101  1.0810  0.5872  0.5768
  184POPC  H14B21089   1.663   3.587   7.271  0.2386 -1.2009 -0.4752
  184POPC  H14C21090   1.543   3.579   7.142 -0.5806  0.0608  0.8329
  184POPC   C1521091   1.765   3.830   7.213 -0.0308 -0.3151 -0.4985
  184POPC  H15A21092   1.771   3.938   7.204  1.4755 -0.4843 -2.1009
  184POPC  H15B21093   1.832   3.790   7.138  1.6854  0.7247  0.4070
  184POPC  H15C21094   1.794   3.792   7.310 -1.5662 -3.4924 -1.1442
  184POPC   C1121095   1.644   3.789   6.915  0.0446 -0.1519 -0.3682
  184POPC  H11A21096   1.576   3.820   6.833 -0.6881 -1.3373 -0.2278
  184POPC  H11B21097   1.656   3.679   6.915  0.3411 -0.1192 -0.2370
  184POPC     P21098   1.804   3.986   6.849  0.0687  0.0733  0.4031
  184POPC   O1321099   1.937   4.031   6.895  0.2694  0.2961 -0.0803
  184POPC   O1421100   1.692   4.073   6.879 -0.5779 -0.6977  0.3730
  184POPC   O1221101   1.771   3.845   6.905 -0.5805  0.1595 -0.0878
  184POPC   O1121102   1.817   3.975   6.692  0.0922  0.6016 -0.0444
  184POPC    C121103   1.875   3.859   6.631 -0.7857 -0.2446 -0.1828
  184POPC    HA21104   1.800   3.780   6.608 -1.5151 -0.8636  3.6311
  184POPC    HB21105   1.946   3.808   6.700 -0.6856 -1.3832 -1.0877
  184POPC    C221106   1.937   3.898   6.492 -0.7391 -0.3209  0.1764
  184POPC    HS21107   2.010   3.976   6.522 -0.0368 -0.3578 -1.3555
  184POPC   O2121108   1.842   3.953   6.404  0.3555  0.2891  0.1995
  184POPC   C2121109   1.882   4.050   6.330 -0.3155 -0.7590  0.1151
  184POPC   O2221110   1.994   4.102   6.323  0.0888  0.2696 -0.2733
  184POPC   C2221111   1.766   4.092   6.235 -0.6967  0.5393  0.3376
  184POPC   H2R21112   1.749   4.199   6.257 -0.7347  0.3369  1.3377
  184POPC   H2S21113   1.671   4.040   6.258 -1.5793  1.4990 -1.0135
  184POPC    C321114   2.006   3.778   6.431 -0.0913  0.7145 -0.1232
  184POPC    HX21115   1.925   3.703   6.421 -0.3425  1.1306 -1.3060
  184POPC    HY21116   2.064   3.732   6.514 -3.6112 -1.0960  1.5887
  184POPC   O3121117   2.074   3.793   6.299 -0.0135  0.1404  0.7245
  184POPC   C3121118   2.199   3.849   6.316 -0.5435  0.5417 -0.8040
  184POPC   O3221119   2.251   3.879   6.418 -0.3647  0.1534 -0.0274
  184POPC   C3221120   2.275   3.859   6.183  0.5841 -0.4725  0.0662
  184POPC   H2X21121   2.218   3.808   6.101  0.9346  0.2192 -0.6199
  184POPC   H2Y21122   2.371   3.805   6.199  1.6522  1.2090 -0.4693
  184POPC   C2321123   1.823   4.082   6.093 -0.1193  0.1060 -0.7199
  184POPC   H3R21124   1.926   4.121   6.078  0.3281 -1.0116 -0.6376
  184POPC   H3S21125   1.757   4.154   6.039  0.6317 -0.2120 -2.1263
  184POPC   C2421126   1.819   3.942   6.034  0.2427  0.0819 -0.1304
  184POPC   H4R21127   1.713   3.912   6.050  0.1580 -0.1930 -1.1190
  184POPC   H4S21128   1.880   3.874   6.097 -0.1361  0.3812  0.5706
  184POPC   C2521129   1.853   3.929   5.889 -0.1661 -0.5010  0.1993
  184POPC   H5R21130   1.804   4.020   5.848  0.6000 -0.4965 -0.7437
  184POPC   H5S21131   1.803   3.848   5.832 -1.0966  1.5079 -1.9968
  184POPC   C2621132   2.003   3.933   5.865  0.0863 -0.1876 -0.2766
  184POPC   H6R21133   2.053   3.858   5.930 -2.5052  0.1626  2.2894
  184POPC   H6S21134   2.048   4.034   5.880  1.5779 -0.6558 -1.3457
  184POPC   C2721135   2.036   3.885   5.717  0.0528 -0.4849 -0.5283
  184POPC   H7R21136   1.945   3.886   5.655  1.1442  0.8225 -2.1955
  184POPC   H7S21137   2.088   3.787   5.709 -1.3704 -1.2310 -0.9439
  184POPC   C2821138   2.129   3.986   5.648  0.0110  0.4086  0.2033
  184POPC   H8R21139   2.225   4.006   5.699 -1.1130  3.0316  1.4808
  184POPC   H8S21140   2.079   4.085   5.657  0.6611  0.6843  0.8757
  184POPC   C2921141   2.155   3.962   5.505  0.3364  0.7558 -0.6314
  184POPC   H9121142   2.212   3.870   5.484 -0.9411  0.0150 -0.9692
  184POPC  C21021143   2.105   4.029   5.400 -0.1604  0.5578  0.5749
  184POPC  H10121144   2.129   4.009   5.294 -0.9953  2.3391  0.0187
  184POPC  C21121145   2.020   4.156   5.410  0.1063 -0.0170  0.5786
  184POPC  H11R21146   2.038   4.231   5.330 -1.1300 -1.1492 -0.8044
  184POPC  H11S21147   2.047   4.200   5.508 -1.9358 -1.6465  1.9796
  184POPC  C21221148   1.869   4.133   5.414  0.4404  0.3749  0.7214
  184POPC  H12R21149   1.853   4.073   5.506 -1.1626  0.2486  0.3893
  184POPC  H12S21150   1.824   4.074   5.331 -0.8809  2.9298 -0.4861
  184POPC  C21321151   1.778   4.262   5.429  0.2105  0.4257 -0.4853
  184POPC  H13R21152   1.675   4.231   5.456 -0.2079  1.6511 -0.6223
  184POPC  H13S21153   1.783   4.313   5.331  1.9398 -0.1131 -0.7095
  184POPC  C21421154   1.829   4.356   5.546 -0.2070 -0.6598 -0.1436
  184POPC  H14R21155   1.927   4.400   5.518 -0.9361  1.1312  0.0268
  184POPC  H14S21156   1.847   4.305   5.643  1.4732  0.3632  0.1244
  184POPC  C21521157   1.734   4.473   5.570  0.0133 -0.1385 -0.0808
  184POPC  H15R21158   1.776   4.540   5.648  1.5757 -2.2241  0.9774
  184POPC  H15S21159   1.641   4.428   5.611 -0.9236  2.4366  0.7994
  184POPC  C21621160   1.701   4.545   5.448  0.3069  0.0263  0.5480
  184POPC  H16R21161   1.639   4.479   5.384  1.3647  1.8726 -2.5800
  184POPC  H16S21162   1.795   4.574   5.395  0.3224  1.4493  1.3055
  184POPC  C21721163   1.631   4.684   5.472 -0.0810  0.0163 -0.1575
  184POPC  H17R21164   1.692   4.736   5.549 -0.0033 -0.2717 -0.0241
  184POPC  H17S21165   1.536   4.657   5.523  0.9409 -1.4362  1.0622
  184POPC  C21821166   1.615   4.763   5.347 -0.0264  0.4733 -0.5315
  184POPC  H18R21167   1.716   4.779   5.304 -0.8633 -0.8072 -3.1982
  184POPC  H18S21168   1.578   4.863   5.377 -0.7854  0.2359 -0.6596
  184POPC  H18T21169   1.553   4.715   5.268 -2.6659  1.1205  1.0168
  184POPC   C3321170   2.306   4.008   6.159  0.7966 -0.3956  0.1559
  184POPC   H3X21171   2.365   4.054   6.241  0.3433 -3.0754  2.1265
  184POPC   H3Y21172   2.205   4.053   6.150 -0.0556 -2.4953 -1.5813
  184POPC   C3421173   2.382   4.024   6.025  0.2983 -0.3505  0.0490
  184POPC   H4X21174   2.323   3.982   5.941 -0.8695  2.2104 -0.4904
  184POPC   H4Y21175   2.471   3.959   6.045 -1.3560 -2.3900  1.2194
  184POPC   C3521176   2.418   4.170   6.006 -0.3291 -0.3840  0.5530
  184POPC   H5X21177   2.465   4.213   6.097  1.5011 -0.3291 -0.3681
  184POPC   H5Y21178   2.327   4.229   5.983 -0.1864  0.3324  1.7190
  184POPC   C3621179   2.516   4.195   5.893  0.1635 -0.2732  0.5946
  184POPC   H6X21180   2.615   4.146   5.903  0.9401  1.1689  0.3010
  184POPC   H6Y21181   2.530   4.306   5.891 -1.4327 -0.0489 -1.2510
  184POPC   C3721182   2.468   4.154   5.759 -0.3770 -0.1577  0.4639
  184POPC   H7X21183   2.377   4.214   5.740  0.0149 -0.4679 -2.8865
  184POPC   H7Y21184   2.440   4.047   5.764  1.8575 -0.7961  0.6178
  184POPC   C3821185   2.568   4.177   5.645  0.0577  0.2610  0.2080
  184POPC   H8X21186   2.658   4.112   5.652 -0.1997 -0.1116  0.0867
  184POPC   H8Y21187   2.604   4.282   5.643  1.4479 -0.1991 -1.4546
  184POPC   C3921188   2.490   4.144   5.512  0.0492  0.0430  0.0643
  184POPC   H9X21189   2.407   4.216   5.497 -0.0233  0.5065  2.3077
  184POPC   H9Y21190   2.456   4.038   5.519  3.0681 -1.0897 -0.4915
  184POPC  C31021191   2.578   4.145   5.394 -0.1274 -0.1802  0.1540
  184POPC  H10X21192   2.653   4.065   5.376 -0.6118 -0.1974 -2.0167
  184POPC  H10Y21193   2.646   4.233   5.396  2.3980 -2.0123  0.0458
  184POPC  C31121194   2.498   4.160   5.257 -0.5127  0.2831 -0.6015
  184POPC  H11X21195   2.465   4.266   5.259  1.2820  0.9493 -2.8942
  184POPC  H11Y21196   2.408   4.095   5.263 -0.3975  0.1825  0.1451
  184POPC  C31221197   2.569   4.134   5.127  0.4798 -0.7942 -0.1519
  184POPC  H12X21198   2.589   4.026   5.115 -2.4291 -1.4435  0.1807
  184POPC  H12Y21199   2.665   4.191   5.135  0.6435 -0.9153 -1.1515
  184POPC  C31321200   2.472   4.177   5.008  0.2638 -0.6573 -0.3767
  184POPC  H13X21201   2.380   4.131   5.050  1.4230 -0.4142  2.6663
  184POPC  H13Y21202   2.497   4.114   4.920  0.2221  1.5414 -2.0587
  184POPC  C31421203   2.466   4.327   4.975  0.7957 -0.4929  0.4992
  184POPC  H14X21204   2.560   4.380   4.950  0.1507  0.6730  0.4683
  184POPC  H14Y21205   2.416   4.366   5.066 -1.5957  1.3321 -1.4486
  184POPC  C31521206   2.368   4.358   4.854  0.8409 -0.1364  0.1028
  184POPC  H15X21207   2.437   4.333   4.770  0.5919 -1.2883  0.2199
  184POPC  H15Y21208   2.356   4.468   4.864  1.0509 -0.0404 -0.6801
  184POPC  C31621209   2.236   4.285   4.841  0.4779 -0.1994  0.1687
  184POPC  H16X21210   2.162   4.313   4.920  2.2545 -1.1776  2.3005
  184POPC  H16Y21211   2.255   4.176   4.828  1.3783  0.0055 -0.3225
  184POPC  H16Z21212   2.195   4.315   4.742  0.2127 -0.0644  0.3166
  185POPC     N21213   0.604   6.384   2.031  0.8192 -0.2981 -0.0356
  185POPC   C1221214   0.716   6.303   2.067 -0.5767  0.4648  0.6183
  185POPC  H12A21215   0.732   6.302   2.174 -0.4843  2.4713  0.6483
  185POPC  H12B21216   0.807   6.342   2.026 -0.1186 -1.4643 -0.3170
  185POPC   C1321217   0.560   6.371   1.883 -0.4289 -0.5591 -0.3950
  185POPC  H13A21218   0.519   6.275   1.857 -0.0965 -0.2797 -2.0133
  185POPC  H13B21219   0.473   6.434   1.869  1.3816  2.5339  1.2222
  185POPC  H13C21220   0.640   6.414   1.826  0.8965  1.8254  2.9340
  185POPC   C1421221   0.493   6.354   2.123  0.5618  0.0927  0.6220
  185POPC  H14A21222   0.453   6.256   2.100 -1.4788  0.3188  2.8078
  185POPC  H14B21223   0.506   6.351   2.230  1.6812 -2.1040  0.4789
  185POPC  H14C21224   0.405   6.414   2.105  1.5764  1.4089 -0.0204
  185POPC   C1521225   0.631   6.534   2.049  0.4700 -0.6107 -0.5590
  185POPC  H15A21226   0.541   6.589   2.025  0.3942  1.0723  2.8861
  185POPC  H15B21227   0.711   6.568   1.985  0.2599  1.2860  0.1167
  185POPC  H15C21228   0.644   6.557   2.154  1.1381  1.9645 -1.1388
  185POPC   C1121229   0.714   6.154   2.027  0.1699 -0.2531  0.4627
  185POPC  H11A21230   0.817   6.121   2.050  0.8936  1.7458  0.2845
  185POPC  H11B21231   0.702   6.149   1.917  0.8021  0.0440  0.3781
  185POPC     P21232   0.608   6.022   2.239  0.7994 -0.0802  0.1607
  185POPC   O1321233   0.573   5.877   2.234  0.0769  0.2734 -0.2483
  185POPC   O1421234   0.524   6.111   2.326 -0.1432 -0.5525 -0.1725
  185POPC   O1221235   0.610   6.082   2.092 -0.0086 -0.0935  0.3040
  185POPC   O1121236   0.763   6.026   2.284 -0.1834  0.1058  0.2316
  185POPC    C121237   0.807   5.924   2.376 -0.0086 -0.3188  0.1939
  185POPC    HA21238   0.918   5.928   2.373  0.1245 -0.9467  2.5280
  185POPC    HB21239   0.776   5.822   2.343  0.0380 -0.0874 -0.5729
  185POPC    C221240   0.766   5.959   2.521  0.2288 -0.5492 -0.1554
  185POPC    HS21241   0.658   5.982   2.508  0.7143  0.6336 -2.6732
  185POPC   O2121242   0.829   6.083   2.565 -0.0756  0.0800 -0.3491
  185POPC   C2121243   0.754   6.162   2.643 -0.6459  0.1797 -1.0851
  185POPC   O2221244   0.637   6.142   2.665 -0.2810  0.7792 -0.1320
  185POPC   C2221245   0.841   6.277   2.694 -0.4888 -0.1268  1.2441
  185POPC   H2R21246   0.845   6.360   2.620  2.1111  1.0671  2.5967
  185POPC   H2S21247   0.944   6.238   2.702 -0.7945 -1.3091 -0.2041
  185POPC    C321248   0.779   5.843   2.624  0.3928  0.5319 -0.3782
  185POPC    HX21249   0.884   5.840   2.661  0.2925 -1.8669 -0.1301
  185POPC    HY21250   0.758   5.751   2.566  0.9657  0.7076 -0.8894
  185POPC   O3121251   0.694   5.870   2.742 -0.2846 -0.2214 -0.1945
  185POPC   C3121252   0.563   5.843   2.728 -0.6079  0.3069 -0.1633
  185POPC   O3221253   0.517   5.810   2.617  0.1573  0.2097 -0.1410
  185POPC   C3221254   0.494   5.856   2.862 -0.0384  0.1869 -0.3034
  185POPC   H2X21255   0.496   5.963   2.891  1.0144  0.4210 -1.1791
  185POPC   H2Y21256   0.556   5.789   2.925 -1.3495 -3.4628 -2.5930
  185POPC   C2321257   0.800   6.339   2.829 -0.4923 -0.0570 -0.4468
  185POPC   H3R21258   0.691   6.356   2.840 -0.8595 -2.0174 -0.5370
  185POPC   H3S21259   0.855   6.434   2.843 -1.9592  0.5726  1.4583
  185POPC   C2421260   0.851   6.262   2.948 -0.0563  0.3937  0.1838
  185POPC   H4R21261   0.829   6.319   3.041 -1.3370 -1.1422  0.8822
  185POPC   H4S21262   0.962   6.254   2.953 -0.0115  1.4357  1.6838
  185POPC   C2521263   0.793   6.123   2.974 -0.3402  0.9441 -0.1246
  185POPC   H5R21264   0.857   6.055   2.914 -0.7298  1.2799 -0.9262
  185POPC   H5S21265   0.690   6.113   2.935 -0.3462 -2.0334  0.4528
  185POPC   C2621266   0.791   6.076   3.117  0.5570  0.9895 -0.6058
  185POPC   H6R21267   0.736   6.147   3.182 -2.1846 -2.2234  0.8986
  185POPC   H6S21268   0.895   6.065   3.153  0.2574  2.0253  0.6342
  185POPC   C2721269   0.715   5.940   3.142 -0.1659  0.0390  0.1531
  185POPC   H7R21270   0.770   5.859   3.089 -0.0658  0.0116  0.2989
  185POPC   H7S21271   0.618   5.946   3.088 -0.0891 -0.8584 -0.0961
  185POPC   C2821272   0.699   5.905   3.300  0.0551 -0.2954  0.4178
  185POPC   H8R21273   0.802   5.913   3.340  0.0411 -1.2097  0.6624
  185POPC   H8S21274   0.669   5.799   3.314  0.4852 -0.4247  0.3688
  185POPC   C2921275   0.606   5.997   3.377 -0.3193  0.1615 -0.2347
  185POPC   H9121276   0.499   5.991   3.352 -0.6663  1.5405  0.8258
  185POPC  C21021277   0.646   6.083   3.472 -0.0034  0.5095  0.6012
  185POPC  H10121278   0.562   6.134   3.521 -2.7739 -1.2728 -1.9322
  185POPC  C21121279   0.779   6.114   3.526  0.4690 -0.5289  0.6234
  185POPC  H11R21280   0.789   6.225   3.538  2.7014 -0.6720  0.6355
  185POPC  H11S21281   0.864   6.100   3.455  0.8512 -0.8099  1.1252
  185POPC  C21221282   0.815   6.036   3.654  0.2831 -0.8609  0.1685
  185POPC  H12R21283   0.786   5.929   3.643 -0.5187 -0.4550 -2.1284
  185POPC  H12S21284   0.758   6.084   3.737  2.3493 -2.5664  2.7532
  185POPC  C21321285   0.963   6.036   3.704 -0.5735  0.2365  0.0815
  185POPC  H13R21286   1.002   6.136   3.732  0.7165 -0.2860  0.1845
  185POPC  H13S21287   1.043   6.010   3.631 -0.9782  1.1573 -0.7110
  185POPC  C21421288   0.983   5.938   3.822 -0.2085  0.2225 -0.9586
  185POPC  H14R21289   1.088   5.961   3.849 -1.0584  0.3134  2.8397
  185POPC  H14S21290   0.968   5.833   3.788  1.2015 -0.0419 -0.8155
  185POPC  C21521291   0.907   5.977   3.950  0.0106 -0.0927 -0.4820
  185POPC  H15R21292   0.798   5.960   3.931 -0.4408  1.3611  0.6591
  185POPC  H15S21293   0.912   6.087   3.963 -0.7473 -0.3513  2.7541
  185POPC  C21621294   0.956   5.904   4.075 -0.1826 -0.1645  0.9883
  185POPC  H16R21295   1.064   5.926   4.088  0.0840  0.1084 -1.2876
  185POPC  H16S21296   0.947   5.795   4.054 -2.4408 -0.6771  3.8782
  185POPC  C21721297   0.878   5.945   4.202 -0.6336 -0.0925 -0.2108
  185POPC  H17R21298   0.768   5.939   4.186 -0.7333 -1.6417  0.8586
  185POPC  H17S21299   0.902   6.053   4.210  1.8230 -0.4502 -1.7062
  185POPC  C21821300   0.928   5.864   4.325 -0.0374  0.1170  0.1760
  185POPC  H18R21301   1.036   5.877   4.348 -0.7116  1.2616  3.1424
  185POPC  H18S21302   0.924   5.754   4.310 -2.6388 -0.1708  2.1562
  185POPC  H18T21303   0.865   5.885   4.415  1.8502 -2.0143  2.1250
  185POPC   C3321304   0.347   5.810   2.848 -0.2867  0.1188  0.7947
  185POPC   H3X21305   0.327   5.713   2.797 -1.2503 -0.1519  1.6661
  185POPC   H3Y21306   0.292   5.882   2.783 -0.9910 -1.6416 -0.6475
  185POPC   C3421307   0.277   5.816   2.988 -0.6757 -0.2232  0.6013
  185POPC   H4X21308   0.328   5.745   3.057 -2.0816 -2.0831 -0.1969
  185POPC   H4Y21309   0.176   5.772   2.980 -0.0723 -1.2464 -2.2505
  185POPC   C3521310   0.252   5.958   3.040  0.2098 -0.3472  0.6544
  185POPC   H5X21311   0.211   6.025   2.961 -0.0123  0.0233  1.0800
  185POPC   H5Y21312   0.355   5.990   3.066  0.7373 -1.1317 -0.3838
  185POPC   C3621313   0.177   5.964   3.174 -0.2077 -0.5611  0.1354
  185POPC   H6X21314   0.069   5.963   3.151 -0.5744  0.1531  1.7374
  185POPC   H6Y21315   0.203   6.066   3.208  0.5443 -0.9620  0.8052
  185POPC   C3721316   0.206   5.858   3.278  0.2741  0.0842 -0.8512
  185POPC   H7X21317   0.313   5.830   3.282  0.2105 -0.5597 -2.8019
  185POPC   H7Y21318   0.138   5.775   3.247 -0.0940  0.8390 -2.1201
  185POPC   C3821319   0.166   5.898   3.417  0.5021  0.3006  0.3579
  185POPC   H8X21320   0.130   5.808   3.472 -1.8483  0.6682 -0.4441
  185POPC   H8Y21321   0.074   5.959   3.426  1.6925  1.9081  2.3010
  185POPC   C3921322   0.273   5.949   3.512  0.4007  0.0510 -0.2823
  185POPC   H9X21323   0.306   6.050   3.479 -3.0840  1.6277  0.6097
  185POPC   H9Y21324   0.353   5.872   3.518 -1.1760 -1.5002  2.5890
  185POPC  C31021325   0.234   5.962   3.664  0.8892  1.0525  0.2492
  185POPC  H10X21326   0.216   5.858   3.701  1.7396  0.3442 -1.2786
  185POPC  H10Y21327   0.136   6.014   3.662 -0.0988 -0.5908  1.9196
  185POPC  C31121328   0.334   6.020   3.758  0.6227  0.3564 -0.0429
  185POPC  H11X21329   0.353   6.130   3.750 -1.9747  0.8451 -0.2728
  185POPC  H11Y21330   0.424   5.955   3.759  0.5927  0.2283 -1.9893
  185POPC  C31221331   0.288   6.007   3.908  0.2132 -0.0810  0.0147
  185POPC  H12X21332   0.256   5.901   3.917  1.6241 -0.4951  0.3773
  185POPC  H12Y21333   0.199   6.071   3.922 -0.8407 -1.3597 -0.6506
  185POPC  C31321334   0.389   6.050   4.018  0.6172  0.3510 -0.6506
  185POPC  H13X21335   0.390   6.161   4.012  1.2680  0.3117 -1.4630
  185POPC  H13Y21336   0.495   6.023   3.998  0.6354 -0.4091  0.4175
  185POPC  C31421337   0.349   6.021   4.162  0.2981 -0.5867 -0.1378
  185POPC  H14X21338   0.249   6.063   4.187  0.3953 -1.1797  1.3749
  185POPC  H14Y21339   0.416   6.082   4.227  2.9646 -2.5126 -0.9174
  185POPC  C31521340   0.386   5.878   4.205 -0.0005 -0.1169 -0.0814
  185POPC  H15X21341   0.497   5.872   4.215  0.1220 -1.2046 -1.7110
  185POPC  H15Y21342   0.364   5.807   4.123 -1.3099  0.4279 -0.2286
  185POPC  C31621343   0.318   5.842   4.330  0.8091 -0.5906 -0.0177
  185POPC  H16X21344   0.211   5.873   4.333  0.9329 -0.1029 -0.5061
  185POPC  H16Y21345   0.367   5.892   4.417  2.3141 -3.9703  1.2333
  185POPC  H16Z21346   0.308   5.736   4.360 -2.4886 -0.8066 -1.4147
  186POPC     N21347   2.460   2.644   2.656 -0.9668 -0.4097  0.8712
  186POPC   C1221348   2.604   2.643   2.592  0.4382  0.1248 -0.0046
  186POPC  H12A21349   2.600   2.584   2.501  1.1629  0.7189 -0.4373
  186POPC  H12B21350   2.671   2.602   2.666 -0.4839 -1.7373 -0.1301
  186POPC   C1321351   2.354   2.679   2.554 -0.3850  0.3111 -0.5000
  186POPC  H13A21352   2.369   2.780   2.518 -0.3881  0.6066  0.2978
  186POPC  H13B21353   2.357   2.618   2.466  0.1687  0.3269 -0.4942
  186POPC  H13C21354   2.261   2.650   2.601  0.0646 -0.1773  0.1174
  186POPC   C1421355   2.435   2.501   2.701  0.5179 -0.8355  0.1783
  186POPC  H14A21356   2.516   2.458   2.758  0.8347 -0.1624  0.2442
  186POPC  H14B21357   2.346   2.482   2.758  0.9806 -1.0840  0.8234
  186POPC  H14C21358   2.427   2.436   2.615  0.5966 -0.2686 -0.2636
  186POPC   C1521359   2.465   2.726   2.775  0.0538  1.0897 -0.1610
  186POPC  H15A21360   2.371   2.725   2.827 -0.3287  1.3762 -0.8331
  186POPC  H15B21361   2.491   2.828   2.749 -0.4552  1.1059 -0.6212
  186POPC  H15C21362   2.536   2.686   2.846  0.1560  0.9994 -0.3123
  186POPC   C1121363   2.677   2.773   2.553 -0.8217  0.2708  0.2619
  186POPC  H11A21364   2.765   2.737   2.496  0.1676  1.6614  0.8500
  186POPC  H11B21365   2.704   2.837   2.640 -0.0399 -0.7063  0.7661
  186POPC     P21366   2.610   3.003   2.440  0.0784 -0.3756 -0.2080
  186POPC   O1321367   2.502   3.047   2.342 -0.7198 -0.0036 -0.2669
  186POPC   O1421368   2.747   3.038   2.406  0.4926 -0.1556  0.5224
  186POPC   O1221369   2.599   2.840   2.458 -0.1553 -0.7597  0.1617
  186POPC   O1121370   2.574   3.045   2.585  0.1586 -0.5469  0.3678
  186POPC    C121371   2.434   3.068   2.616  0.3495 -0.9207  0.8471
  186POPC    HA21372   2.366   2.985   2.587 -0.4805  0.6883 -2.2253
  186POPC    HB21373   2.401   3.161   2.566  1.6785 -0.6515  0.4263
  186POPC    C221374   2.390   3.076   2.766 -0.3765  0.3285 -0.0585
  186POPC    HS21375   2.388   3.185   2.788  0.2454  0.6848 -1.6213
  186POPC   O2121376   2.474   2.997   2.844 -0.0813 -0.2717 -0.2050
  186POPC   C2121377   2.564   3.057   2.927  0.2182 -0.4719 -0.1791
  186POPC   O2221378   2.573   3.177   2.945  0.7095  0.5591  0.2182
  186POPC   C2221379   2.655   2.959   2.994  0.7943  0.1023  0.8922
  186POPC   H2R21380   2.740   2.947   2.923  0.6759 -1.4985  0.9776
  186POPC   H2S21381   2.598   2.863   2.992  0.7147  0.1523 -0.0136
  186POPC    C321382   2.245   3.028   2.784  0.7630 -0.3567  0.1889
  186POPC    HX21383   2.241   2.923   2.747 -0.0459 -0.0280 -0.6865
  186POPC    HY21384   2.184   3.101   2.727  0.5877  1.2578  2.3356
  186POPC   O3121385   2.200   3.045   2.922  0.4859  0.8791  0.4746
  186POPC   C3121386   2.211   2.940   2.991 -0.0533  0.3135 -0.3655
  186POPC   O3221387   2.246   2.828   2.952  0.3601 -0.3044 -0.7578
  186POPC   C3221388   2.170   2.966   3.134  0.0394  0.4948 -0.3979
  186POPC   H2X21389   2.060   2.978   3.143 -0.1501 -1.1017 -0.1380
  186POPC   H2Y21390   2.217   3.062   3.165 -0.1834  0.6131 -0.4281
  186POPC   C2321391   2.710   2.999   3.134  0.9591 -0.2965  0.0243
  186POPC   H3R21392   2.738   3.107   3.137  1.5231 -0.4387  2.5955
  186POPC   H3S21393   2.801   2.936   3.139  0.7382 -0.6920 -0.7258
  186POPC   C2421394   2.608   2.973   3.243 -0.2470  0.1951  0.7728
  186POPC   H4R21395   2.547   2.885   3.212 -0.2288  1.2123 -2.5120
  186POPC   H4S21396   2.544   3.056   3.277 -0.5648  0.2500  0.0514
  186POPC   C2521397   2.691   2.942   3.373 -0.2737  0.0626 -0.2013
  186POPC   H5R21398   2.761   3.024   3.398 -1.4792  0.2520  2.9065
  186POPC   H5S21399   2.746   2.846   3.373 -1.0936 -0.5564  3.8196
  186POPC   C2621400   2.606   2.948   3.503  0.0374  0.6258 -0.0100
  186POPC   H6R21401   2.547   2.854   3.510 -0.5433  1.0599  1.3312
  186POPC   H6S21402   2.532   3.031   3.500 -0.7995 -0.1177 -0.4075
  186POPC   C2721403   2.702   2.974   3.621  0.4165  0.6954  0.2416
  186POPC   H7R21404   2.731   3.081   3.620  0.0004  0.8307  1.3923
  186POPC   H7S21405   2.796   2.915   3.613 -0.5479 -1.0684  1.2724
  186POPC   C2821406   2.642   2.922   3.758  0.6489  0.7451  0.5477
  186POPC   H8R21407   2.724   2.933   3.831 -0.4393  1.8957  1.6443
  186POPC   H8S21408   2.621   2.815   3.736  0.8432  0.6824  0.6668
  186POPC   C2921409   2.519   3.005   3.796  0.4921  0.1872  0.5783
  186POPC   H9121410   2.445   3.041   3.722 -1.0172 -1.9802  0.9504
  186POPC  C21021411   2.505   3.063   3.919  0.1450 -1.2065  0.0847
  186POPC  H10121412   2.412   3.121   3.927 -0.9933 -2.9800  0.2889
  186POPC  C21121413   2.586   3.039   4.037  0.1397 -0.0980  0.2578
  186POPC  H11R21414   2.687   3.009   4.002 -0.0502  0.6439 -0.9672
  186POPC  H11S21415   2.547   2.953   4.096 -0.0239  1.1100  1.9779
  186POPC  C21221416   2.591   3.163   4.129 -0.7146 -0.3493  0.2107
  186POPC  H12R21417   2.596   3.259   4.075  2.5612  1.5272  3.3800
  186POPC  H12S21418   2.687   3.157   4.186 -0.5839  0.5152  0.0884
  186POPC  C21321419   2.475   3.156   4.224  0.1708 -0.8149 -0.4567
  186POPC  H13R21420   2.379   3.120   4.181 -1.0724  1.1438  0.5395
  186POPC  H13S21421   2.462   3.264   4.247  2.6295 -0.1702 -1.7360
  186POPC  C21421422   2.503   3.062   4.342  0.1095 -0.2376 -0.3471
  186POPC  H14R21423   2.557   2.976   4.297 -2.3805 -1.1101 -1.9151
  186POPC  H14S21424   2.405   3.020   4.373  0.0751  0.7609  0.9483
  186POPC  C21521425   2.562   3.135   4.464  0.0333 -0.9485 -0.1475
  186POPC  H15R21426   2.498   3.223   4.489 -0.1202 -1.5037  1.4901
  186POPC  H15S21427   2.662   3.172   4.431  0.0527 -1.7109 -0.9853
  186POPC  C21621428   2.564   3.049   4.586  0.8818 -0.2440  0.1244
  186POPC  H16R21429   2.650   2.980   4.571  0.0507 -0.8179 -2.5251
  186POPC  H16S21430   2.471   2.989   4.597  1.0313 -0.4432  0.3158
  186POPC  C21721431   2.580   3.135   4.713  0.3518  0.1742 -0.0798
  186POPC  H17R21432   2.611   3.063   4.792  1.6173 -0.9382 -1.5355
  186POPC  H17S21433   2.479   3.165   4.746  1.6962  2.9911  1.9122
  186POPC  C21821434   2.679   3.252   4.700 -0.2813 -0.0248 -0.3874
  186POPC  H18R21435   2.688   3.313   4.793  0.5499  1.2996 -1.3015
  186POPC  H18S21436   2.779   3.210   4.674 -0.0719  0.4373 -0.3403
  186POPC  H18T21437   2.661   3.318   4.613  0.0860 -0.1540 -0.5612
  186POPC   C3321438   2.216   2.856   3.237  0.0858  0.1813 -0.0686
  186POPC   H3X21439   2.319   2.816   3.223  0.2625 -0.0644  1.6927
  186POPC   H3Y21440   2.148   2.770   3.226 -1.4092  1.0516  1.8128
  186POPC   C3421441   2.212   2.911   3.383  0.2849 -0.4497 -0.7215
  186POPC   H4X21442   2.135   2.989   3.367  1.2757  0.8048  0.4753
  186POPC   H4Y21443   2.307   2.962   3.410 -0.7891  0.9246  0.6187
  186POPC   C3521444   2.174   2.811   3.488  0.0572 -0.5409 -0.1116
  186POPC   H5X21445   2.220   2.712   3.466  0.7371 -1.0214  3.0038
  186POPC   H5Y21446   2.065   2.800   3.474  0.3337 -2.0832 -1.3465
  186POPC   C3621447   2.226   2.859   3.625  0.7398  0.2886  0.0139
  186POPC   H6X21448   2.237   2.970   3.626  0.9495  0.2735  1.4839
  186POPC   H6Y21449   2.326   2.817   3.647  1.3922  1.4930 -0.5356
  186POPC   C3721450   2.123   2.809   3.736  0.0570 -0.1700  0.1014
  186POPC   H7X21451   2.098   2.702   3.723 -1.1749 -0.4975  3.8022
  186POPC   H7Y21452   2.029   2.864   3.714 -0.6105 -0.7503  1.3807
  186POPC   C3821453   2.177   2.831   3.880 -0.7539 -0.6071  0.1032
  186POPC   H8X21454   2.225   2.929   3.898 -0.2138 -1.3240  3.1844
  186POPC   H8Y21455   2.260   2.759   3.897  0.2847  0.4223 -0.4748
  186POPC   C3921456   2.076   2.801   3.995  0.9363  0.0702 -0.2232
  186POPC   H9X21457   2.019   2.708   3.975 -1.6008  1.5150 -0.2315
  186POPC   H9Y21458   1.989   2.870   3.989  1.5909  0.9545  0.2603
  186POPC  C31021459   2.131   2.806   4.141 -0.3751  0.1980  0.0943
  186POPC  H10X21460   2.139   2.914   4.168 -1.1139  0.6310 -1.3114
  186POPC  H10Y21461   2.234   2.769   4.123 -0.0856  1.7791 -1.9400
  186POPC  C31121462   2.067   2.724   4.257 -0.6143 -0.4109  0.2340
  186POPC  H11X21463   2.120   2.761   4.347 -1.6681 -2.2689  1.7060
  186POPC  H11Y21464   2.064   2.616   4.231 -0.8395 -0.5024  0.6365
  186POPC  C31221465   1.918   2.773   4.276 -0.2079 -0.3403 -0.9262
  186POPC  H12X21466   1.867   2.753   4.179 -0.8841 -0.8399 -0.4688
  186POPC  H12Y21467   1.895   2.872   4.322 -1.8875 -2.6250  3.7372
  186POPC  C31321468   1.849   2.688   4.382  0.5216  0.8502 -0.4809
  186POPC  H13X21469   1.897   2.715   4.479  1.5753  0.9607 -1.0144
  186POPC  H13Y21470   1.889   2.585   4.366 -0.3727  0.4038  0.0928
  186POPC  C31421471   1.695   2.688   4.385 -0.0806 -0.1870  0.4890
  186POPC  H14X21472   1.654   2.614   4.456 -0.1786  0.9373  1.6451
  186POPC  H14Y21473   1.658   2.685   4.280  1.5948 -0.1790 -0.1486
  186POPC  C31521474   1.629   2.817   4.443 -0.0360 -0.8105  0.4775
  186POPC  H15X21475   1.678   2.912   4.412  1.6241 -1.6635  0.3549
  186POPC  H15Y21476   1.646   2.807   4.552 -0.5238  0.1564  0.6521
  186POPC  C31621477   1.479   2.817   4.414 -0.4139  0.2447  0.3460
  186POPC  H16X21478   1.426   2.909   4.448 -2.0637 -0.5672  0.0847
  186POPC  H16Y21479   1.439   2.725   4.463 -0.8253  0.2842  0.0913
  186POPC  H16Z21480   1.455   2.812   4.306  1.1968 -1.8487  0.0150
  187POPC     N21481   5.709   4.298   1.960 -0.3418 -0.2964 -1.1328
  187POPC   C1221482   5.663   4.196   2.057  0.2017  0.5390 -0.2763
  187POPC  H12A21483   5.742   4.174   2.127 -0.1854  0.5634  0.1772
  187POPC  H12B21484   5.643   4.103   2.006  0.0355  0.0033  0.7399
  187POPC   C1321485   5.603   4.336   1.868 -0.1918  0.5126 -0.0466
  187POPC  H13A21486   5.574   4.249   1.811 -0.1499 -0.1090  0.8715
  187POPC  H13B21487   5.511   4.359   1.921  0.0464 -1.8654  1.5339
  187POPC  H13C21488   5.622   4.420   1.802 -3.3240  0.8221 -0.7171
  187POPC   C1421489   5.762   4.418   2.033 -0.2952 -0.6795 -0.0379
  187POPC  H14A21490   5.690   4.458   2.103  0.0115 -0.7275  0.3045
  187POPC  H14B21491   5.852   4.406   2.091  0.8504  1.2904 -1.2977
  187POPC  H14C21492   5.786   4.498   1.965  1.4912 -1.6754 -0.6196
  187POPC   C1521493   5.824   4.237   1.879 -0.3740 -0.2621 -0.3474
  187POPC  H15A21494   5.914   4.223   1.937 -0.9261 -0.7781  0.3909
  187POPC  H15B21495   5.869   4.303   1.806  1.4825  0.0617  1.0427
  187POPC  H15C21496   5.790   4.149   1.826  2.0540 -0.2159 -2.1481
  187POPC   C1121497   5.533   4.217   2.144 -0.2788 -0.0661 -0.1853
  187POPC  H11A21498   5.557   4.296   2.219  1.9130  0.3067 -1.1922
  187POPC  H11B21499   5.504   4.130   2.208  0.8585  0.1346  0.6451
  187POPC     P21500   5.296   4.181   2.029  0.5268 -0.0509 -0.0421
  187POPC   O1321501   5.348   4.060   1.969 -0.7562 -0.0686 -0.0369
  187POPC   O1421502   5.204   4.267   1.959  0.1534 -0.3138 -0.0655
  187POPC   O1221503   5.420   4.270   2.072  0.5406 -0.4425  0.2070
  187POPC   O1121504   5.231   4.143   2.170  0.1665  0.0053 -0.3551
  187POPC    C121505   5.153   4.247   2.230  0.4337  1.0406 -0.3616
  187POPC    HA21506   5.078   4.198   2.295  0.5485  2.2400  0.7168
  187POPC    HB21507   5.096   4.314   2.161 -0.0395  0.8628 -0.1501
  187POPC    C221508   5.222   4.344   2.327 -0.2171 -0.7317 -0.2788
  187POPC    HS21509   5.254   4.430   2.264 -1.7402 -0.1231 -0.2686
  187POPC   O2121510   5.326   4.289   2.404 -0.7308 -0.1609  0.4457
  187POPC   C2121511   5.412   4.373   2.451  0.2867  0.3396 -0.2578
  187POPC   O2221512   5.443   4.477   2.396 -0.0975  0.1680 -0.4451
  187POPC   C2221513   5.480   4.311   2.575 -0.4925  0.6316  0.0772
  187POPC   H2R21514   5.552   4.386   2.615 -0.2641 -0.5215  1.9584
  187POPC   H2S21515   5.537   4.220   2.548 -0.4145  1.1339 -1.5653
  187POPC    C321516   5.117   4.406   2.429  0.4006  0.4640  0.6490
  187POPC    HX21517   5.115   4.329   2.510  1.5032 -0.1669  0.1100
  187POPC    HY21518   5.022   4.422   2.375  0.5863  1.9203  0.7183
  187POPC   O3121519   5.169   4.522   2.494  0.0854  0.2802  0.1868
  187POPC   C3121520   5.149   4.634   2.421  0.2378  0.4366 -0.0290
  187POPC   O3221521   5.110   4.640   2.306 -0.6159 -0.2055 -0.0858
  187POPC   C3221522   5.173   4.762   2.507  0.2548 -0.3759  0.0506
  187POPC   H2X21523   5.080   4.821   2.498  1.2494  1.9071  2.9154
  187POPC   H2Y21524   5.258   4.815   2.459 -0.1805  1.7850  1.5260
  187POPC   C2321525   5.389   4.281   2.695  0.0171 -0.3355 -0.0194
  187POPC   H3R21526   5.319   4.200   2.665  0.0470 -0.0345 -0.9571
  187POPC   H3S21527   5.331   4.374   2.712 -0.8641 -1.0616  1.0929
  187POPC   C2421528   5.471   4.244   2.821 -0.3632 -0.0072 -0.5897
  187POPC   H4R21529   5.565   4.304   2.820  0.1587 -0.7830 -2.2179
  187POPC   H4S21530   5.496   4.136   2.819 -2.5743 -0.5950 -3.0326
  187POPC   C2521531   5.403   4.283   2.951  0.2653  0.4444 -0.2433
  187POPC   H5R21532   5.300   4.248   2.977 -0.0104  1.6961  0.4535
  187POPC   H5S21533   5.378   4.392   2.952 -3.2711 -0.2487 -0.4309
  187POPC   C2621534   5.482   4.251   3.080 -0.0173 -0.7512 -0.2444
  187POPC   H6R21535   5.587   4.287   3.070 -0.5570  1.5037  1.4610
  187POPC   H6S21536   5.485   4.142   3.103  0.7604 -0.8605 -0.8347
  187POPC   C2721537   5.415   4.318   3.205 -0.2206  0.5799 -0.1927
  187POPC   H7R21538   5.307   4.295   3.216  0.3281 -1.3138  1.7729
  187POPC   H7S21539   5.420   4.427   3.183  0.0627  0.2477 -1.9173
  187POPC   C2821540   5.497   4.296   3.329  0.7210  0.2637  0.5659
  187POPC   H8R21541   5.492   4.393   3.384  0.5813 -0.1188  1.2325
  187POPC   H8S21542   5.606   4.280   3.316  0.8553  1.3309  0.2774
  187POPC   C2921543   5.443   4.180   3.410  0.8256 -0.1594  0.3153
  187POPC   H9121544   5.426   4.083   3.360 -2.6449 -0.2078  1.3805
  187POPC  C21021545   5.423   4.182   3.547 -0.2419 -0.2036  0.3453
  187POPC  H10121546   5.373   4.098   3.596  0.5305 -1.8884 -1.5877
  187POPC  C21121547   5.441   4.305   3.634  0.2921  0.6095 -0.2588
  187POPC  H11R21548   5.346   4.363   3.638 -0.1896 -0.2373  2.2614
  187POPC  H11S21549   5.519   4.376   3.600  0.8214  0.3813  0.4610
  187POPC  C21221550   5.478   4.262   3.777  0.0060 -0.1184 -0.0290
  187POPC  H12R21551   5.584   4.228   3.785 -0.2011 -0.6150  0.6753
  187POPC  H12S21552   5.414   4.177   3.810  0.0676 -0.1847 -0.0813
  187POPC  C21321553   5.452   4.377   3.883 -0.4293  1.3911  0.3396
  187POPC  H13R21554   5.350   4.418   3.871 -2.3896 -2.2105  2.7044
  187POPC  H13S21555   5.530   4.452   3.858  0.0460  1.0953  0.8932
  187POPC  C21421556   5.465   4.338   4.033  0.8679 -0.0220  0.3506
  187POPC  H14R21557   5.432   4.424   4.095 -1.0878  0.9432 -1.8661
  187POPC  H14S21558   5.575   4.326   4.045  0.8230 -2.7164 -1.1653
  187POPC  C21521559   5.410   4.203   4.076 -0.1867  0.9693  0.2667
  187POPC  H15R21560   5.474   4.118   4.044  1.7001  2.3678  0.1294
  187POPC  H15S21561   5.310   4.194   4.028 -0.9031  2.9683  1.2766
  187POPC  C21621562   5.389   4.189   4.234 -0.3002 -0.3068 -0.4829
  187POPC  H16R21563   5.338   4.092   4.249 -0.5120  0.1449  2.1158
  187POPC  H16S21564   5.318   4.272   4.258  1.1083  0.4771  1.1923
  187POPC  C21721565   5.521   4.209   4.309 -0.2059 -0.4293  0.0293
  187POPC  H17R21566   5.555   4.314   4.306  0.2420 -0.5384 -4.3425
  187POPC  H17S21567   5.585   4.138   4.252 -1.3719 -0.1500 -1.7187
  187POPC  C21821568   5.516   4.174   4.451  0.0767 -0.3241 -0.6458
  187POPC  H18R21569   5.487   4.069   4.474 -4.6044  0.8933 -0.0542
  187POPC  H18S21570   5.449   4.240   4.510  2.8025  2.9221 -0.9160
  187POPC  H18T21571   5.618   4.184   4.493  0.4121 -1.2981 -1.2024
  187POPC   C3321572   5.214   4.732   2.652  0.1768 -0.4127  0.1322
  187POPC   H3X21573   5.150   4.656   2.701  0.3572  0.1079  1.2254
  187POPC   H3Y21574   5.214   4.826   2.712 -0.0288  0.2162 -0.8224
  187POPC   C3421575   5.359   4.692   2.670  0.1434 -0.2285 -0.6252
  187POPC   H4X21576   5.425   4.773   2.632  1.8472 -0.9763  0.6294
  187POPC   H4Y21577   5.395   4.612   2.602 -2.3850 -1.4848 -0.5980
  187POPC   C3521578   5.397   4.666   2.820 -0.2509 -0.4818 -0.1245
  187POPC   H5X21579   5.332   4.587   2.864 -0.1718 -1.0582 -1.0261
  187POPC   H5Y21580   5.378   4.764   2.870  1.4266 -0.4258  0.4693
  187POPC   C3621581   5.547   4.629   2.839 -0.2045  0.1173  0.0630
  187POPC   H6X21582   5.618   4.698   2.788  1.5821 -0.6459  1.4154
  187POPC   H6Y21583   5.557   4.533   2.784 -0.6567  1.0243 -1.6748
  187POPC   C3721584   5.588   4.613   2.987  0.1873  0.2514 -0.1928
  187POPC   H7X21585   5.685   4.558   2.985  0.2475  0.2190  1.5868
  187POPC   H7Y21586   5.510   4.556   3.041 -0.4374  0.4394 -0.8805
  187POPC   C3821587   5.607   4.758   3.044  0.6021  0.4248  0.4447
  187POPC   H8X21588   5.511   4.814   3.032 -0.2920 -0.8228  1.5128
  187POPC   H8Y21589   5.687   4.804   2.982  2.6069 -0.2661  2.3979
  187POPC   C3921590   5.652   4.754   3.192 -0.1322 -0.0497  0.2531
  187POPC   H9X21591   5.674   4.856   3.230 -0.5184 -0.3289  1.2623
  187POPC   H9Y21592   5.748   4.697   3.185 -0.2962 -0.5023  1.4038
  187POPC  C31021593   5.563   4.675   3.291 -0.0148  0.3331  0.5692
  187POPC  H10X21594   5.544   4.574   3.248 -2.0852  0.5260  0.9314
  187POPC  H10Y21595   5.466   4.727   3.304  0.2441  1.0922 -0.4382
  187POPC  C31121596   5.642   4.641   3.419  0.2627  0.0548  1.0177
  187POPC  H11X21597   5.709   4.556   3.393 -0.3843  0.1449 -1.1178
  187POPC  H11Y21598   5.567   4.586   3.479 -2.2906  0.9083 -1.2167
  187POPC  C31221599   5.713   4.749   3.512 -0.4974 -0.4144 -0.1566
  187POPC  H12X21600   5.665   4.850   3.508  0.9366  0.3320  0.7004
  187POPC  H12Y21601   5.818   4.768   3.480 -0.7998  1.5711 -0.1311
  187POPC  C31321602   5.731   4.698   3.654  0.4987  0.0632 -0.2375
  187POPC  H13X21603   5.812   4.623   3.657  1.1285  0.7502  0.0653
  187POPC  H13Y21604   5.638   4.644   3.684  1.5251 -2.2005 -0.8469
  187POPC  C31421605   5.757   4.811   3.750  0.2343 -0.8850 -0.4394
  187POPC  H14X21606   5.672   4.883   3.741 -0.4658 -1.6825 -0.3390
  187POPC  H14Y21607   5.857   4.857   3.737  0.1810 -0.2339  1.1623
  187POPC  C31521608   5.745   4.760   3.900  0.4957  0.0563  0.5703
  187POPC  H15X21609   5.805   4.835   3.956 -2.2859  2.0611  1.0909
  187POPC  H15Y21610   5.801   4.665   3.892  2.3993  1.2006 -0.4850
  187POPC  C31621611   5.601   4.751   3.953  0.0714 -0.5895  0.4325
  187POPC  H16X21612   5.609   4.725   4.061 -1.2775  0.3195  0.7714
  187POPC  H16Y21613   5.534   4.680   3.899  0.7321 -0.6739 -0.3007
  187POPC  H16Z21614   5.549   4.849   3.953 -1.4201 -1.3238  2.1967
  188POPC     N21615   1.320   0.654   2.163  0.4119 -0.7038  0.0935
  188POPC   C1221616   1.251   0.675   2.298 -0.0582  0.2324 -0.9637
  188POPC  H12A21617   1.244   0.779   2.329 -0.6273 -0.2895  0.7637
  188POPC  H12B21618   1.305   0.623   2.376 -0.6224 -1.2025 -1.5020
  188POPC   C1321619   1.331   0.505   2.131 -0.0379  0.3000  0.2304
  188POPC  H13A21620   1.319   0.442   2.218 -0.3394  0.2508  0.1568
  188POPC  H13B21621   1.271   0.468   2.049  0.0404 -0.1849  0.3881
  188POPC  H13C21622   1.427   0.485   2.087  0.0457 -1.6124  1.1718
  188POPC   C1421623   1.228   0.706   2.052 -0.9586  0.0208  1.1494
  188POPC  H14A21624   1.206   0.812   2.063  1.0836  0.8494 -1.6400
  188POPC  H14B21625   1.283   0.696   1.960 -0.4176 -1.8236  1.6459
  188POPC  H14C21626   1.137   0.652   2.030 -0.2346  0.1900 -3.0785
  188POPC   C1521627   1.454   0.706   2.162 -0.0374  0.1082 -0.7477
  188POPC  H15A21628   1.494   0.698   2.061  0.6444  0.8900 -0.5505
  188POPC  H15B21629   1.524   0.646   2.219 -1.2716 -1.8085 -1.1549
  188POPC  H15C21630   1.462   0.811   2.186  1.0065  0.2951 -1.7867
  188POPC   C1121631   1.108   0.615   2.317 -0.1880 -0.1649  0.3172
  188POPC  H11A21632   1.049   0.656   2.231  0.4208  1.0015  0.4276
  188POPC  H11B21633   1.068   0.648   2.415  2.8184  0.9514  1.2845
  188POPC     P21634   1.170   0.392   2.420  0.3082 -0.2731  0.1024
  188POPC   O1321635   1.321   0.408   2.410  0.2260  0.2742 -0.0850
  188POPC   O1421636   1.122   0.253   2.410  0.4186  0.4498 -0.2016
  188POPC   O1221637   1.101   0.473   2.301  0.0904 -0.0812  0.7744
  188POPC   O1121638   1.129   0.468   2.549  0.0425 -0.4566 -0.2899
  188POPC    C121639   1.027   0.420   2.630  0.0315 -0.2762  0.3096
  188POPC    HA21640   0.974   0.334   2.583  1.1528 -0.6768 -0.2680
  188POPC    HB21641   0.957   0.504   2.648  1.9585  1.2485  1.0302
  188POPC    C221642   1.074   0.361   2.774  0.1524 -0.8719  0.1018
  188POPC    HS21643   0.983   0.339   2.834 -0.5986 -0.7927 -0.9801
  188POPC   O2121644   1.156   0.455   2.851  0.3494  0.0310  0.4889
  188POPC   C2121645   1.097   0.575   2.876 -0.4255 -0.2920  0.4940
  188POPC   O2221646   0.984   0.608   2.846 -0.6246 -0.5133 -0.7568
  188POPC   C2221647   1.188   0.654   2.971 -0.9572 -0.2172 -0.5989
  188POPC   H2R21648   1.220   0.744   2.913  1.2946 -0.8341 -0.4096
  188POPC   H2S21649   1.276   0.593   2.999  0.3949  1.0525 -1.8724
  188POPC    C321650   1.155   0.232   2.754  0.3068  0.7933  0.2310
  188POPC    HX21651   1.244   0.250   2.690  0.4050 -0.7391 -0.0953
  188POPC    HY21652   1.103   0.161   2.687  1.1833  1.5699 -1.3308
  188POPC   O3121653   1.190   0.169   2.881 -0.0937  0.0607  0.1816
  188POPC   C3121654   1.303   0.101   2.866 -0.0717  0.0053  0.5728
  188POPC   O3221655   1.356   0.071   2.762 -0.1134 -0.6831 -0.5813
  188POPC   C3221656   1.358   0.082   3.006 -0.1327 -0.1130 -0.5687
  188POPC   H2X21657   1.422  -0.008   2.992 -0.0921 -0.3133  0.7028
  188POPC   H2Y21658   1.281   0.057   3.083  1.4630 -3.8542  0.0131
  188POPC   C2321659   1.110   0.704   3.092 -1.3286  0.1342  1.5395
  188POPC   H3R21660   1.017   0.749   3.052 -1.7346  0.1572  2.4857
  188POPC   H3S21661   1.161   0.783   3.152 -0.2813  0.4459  0.2868
  188POPC   C2421662   1.074   0.591   3.193  0.3105 -0.5067 -0.5821
  188POPC   H4R21663   1.150   0.510   3.200  0.5993 -0.0996  1.3567
  188POPC   H4S21664   0.984   0.544   3.147 -1.3239  1.8776  0.0481
  188POPC   C2521665   1.023   0.643   3.330 -0.4486 -0.0635  0.5997
  188POPC   H5R21666   1.107   0.673   3.397 -1.1278 -0.5640  1.7160
  188POPC   H5S21667   0.968   0.560   3.379  2.8420 -1.7101  1.8369
  188POPC   C2621668   0.923   0.761   3.333 -0.1744 -0.5309 -0.0540
  188POPC   H6R21669   0.834   0.730   3.274  0.8352  0.6610 -2.3655
  188POPC   H6S21670   0.967   0.849   3.281 -0.5263  1.0244  2.1491
  188POPC   C2721671   0.881   0.796   3.477  0.1647  0.2990  0.4648
  188POPC   H7R21672   0.810   0.726   3.525  2.1396 -2.0186  0.2131
  188POPC   H7S21673   0.843   0.899   3.458 -0.6127 -0.4139 -2.2575
  188POPC   C2821674   1.000   0.808   3.576  0.3738 -0.0265  0.1731
  188POPC   H8R21675   1.085   0.859   3.525 -0.8526  2.4439  0.4488
  188POPC   H8S21676   1.034   0.707   3.607 -0.8902  0.5110  3.7247
  188POPC   C2921677   0.966   0.890   3.690 -0.3569  0.5914 -0.2818
  188POPC   H9121678   1.004   0.993   3.685 -0.8653  0.7729 -0.4905
  188POPC  C21021679   0.873   0.860   3.772  0.4053 -0.3254 -0.2589
  188POPC  H10121680   0.854   0.937   3.849 -1.6447 -2.1636  1.1946
  188POPC  C21121681   0.810   0.722   3.799 -0.8354 -0.5931  0.7874
  188POPC  H11R21682   0.868   0.640   3.751 -1.1949 -0.0097 -0.7164
  188POPC  H11S21683   0.708   0.729   3.756 -0.2553 -1.2110 -0.7861
  188POPC  C21221684   0.773   0.681   3.941 -0.1801  0.0103 -0.9177
  188POPC  H12R21685   0.739   0.575   3.949  2.1478 -0.8329 -1.4040
  188POPC  H12S21686   0.700   0.752   3.985 -2.0677  0.1526 -4.0538
  188POPC  C21321687   0.907   0.686   4.025 -0.0296 -0.4058  0.7192
  188POPC  H13R21688   0.930   0.795   4.036 -1.4296  0.0979 -0.9721
  188POPC  H13S21689   0.979   0.633   3.960  0.8693  1.5588  0.0356
  188POPC  C21421690   0.883   0.619   4.164 -0.3505 -0.3456  0.2835
  188POPC  H14R21691   0.974   0.571   4.206 -0.4308 -1.0655 -0.3187
  188POPC  H14S21692   0.796   0.549   4.158 -1.4412  0.9307  0.8101
  188POPC  C21521693   0.845   0.728   4.272 -0.7826 -0.2253  0.2138
  188POPC  H15R21694   0.773   0.796   4.223 -1.6624 -0.3737  1.2689
  188POPC  H15S21695   0.942   0.782   4.277  0.8728 -2.7261 -1.9567
  188POPC  C21621696   0.803   0.661   4.394  0.0038  0.0971 -0.5453
  188POPC  H16R21697   0.823   0.552   4.387 -1.5118 -0.1440 -1.6640
  188POPC  H16S21698   0.695   0.667   4.418  0.1063 -0.1522 -0.0062
  188POPC  C21721699   0.880   0.717   4.520 -0.2068 -0.3544 -0.0097
  188POPC  H17R21700   0.842   0.821   4.532 -0.0105 -0.1851 -0.8454
  188POPC  H17S21701   0.988   0.734   4.500 -0.1996  0.3533  0.5858
  188POPC  C21821702   0.872   0.623   4.641  0.5950  0.4034  0.2665
  188POPC  H18R21703   0.928   0.532   4.612  0.5191  0.7498 -0.9918
  188POPC  H18S21704   0.766   0.592   4.658  0.4909  1.2880  1.3731
  188POPC  H18T21705   0.913   0.678   4.729 -0.0461  3.6005 -1.2851
  188POPC   C3321706   1.455   0.197   3.056 -0.0057  0.0774  0.2137
  188POPC   H3X21707   1.387   0.282   3.077 -1.9799 -1.1229 -0.9612
  188POPC   H3Y21708   1.493   0.214   2.953 -5.0094  0.6406 -1.8088
  188POPC   C3421709   1.567   0.156   3.153  0.2152  0.4219  0.6451
  188POPC   H4X21710   1.649   0.230   3.150  0.4705  0.1320 -2.4798
  188POPC   H4Y21711   1.615   0.059   3.130  1.1089  0.7582  1.0530
  188POPC   C3521712   1.516   0.151   3.297  0.1058  0.2911  0.8302
  188POPC   H5X21713   1.568   0.073   3.357 -1.7247 -0.4325  1.5467
  188POPC   H5Y21714   1.412   0.114   3.292 -0.3963  1.6304  1.1144
  188POPC   C3621715   1.517   0.292   3.362  0.5604  0.0132 -1.3002
  188POPC   H6X21716   1.448   0.353   3.300 -0.1466 -0.7677 -1.3051
  188POPC   H6Y21717   1.622   0.327   3.363  0.7839 -0.6191  0.3551
  188POPC   C3721718   1.455   0.285   3.499 -0.9649  0.2692 -0.3124
  188POPC   H7X21719   1.517   0.220   3.565  1.6538  2.2616 -0.6432
  188POPC   H7Y21720   1.361   0.230   3.479 -0.7853  0.1691 -0.9116
  188POPC   C3821721   1.417   0.413   3.568 -0.3447  0.5208  0.2239
  188POPC   H8X21722   1.325   0.454   3.522 -0.1514  1.5948  0.7793
  188POPC   H8Y21723   1.493   0.492   3.551  1.0874 -0.6106  1.1244
  188POPC   C3921724   1.405   0.398   3.726 -0.2780 -0.0816 -0.4601
  188POPC   H9X21725   1.507   0.393   3.770  0.7350 -0.5591 -2.6966
  188POPC   H9Y21726   1.347   0.305   3.744  1.6838 -0.7668  3.3026
  188POPC  C31021727   1.323   0.506   3.796  0.5964  0.2437 -0.2874
  188POPC  H10X21728   1.296   0.475   3.899 -1.0704 -0.9846 -1.0411
  188POPC  H10Y21729   1.230   0.524   3.737  2.7486  1.1618 -3.7386
  188POPC  C31121730   1.388   0.644   3.787 -0.3108 -0.1004 -0.2102
  188POPC  H11X21731   1.314   0.725   3.802 -2.0272 -1.1512 -2.4924
  188POPC  H11Y21732   1.428   0.659   3.685  0.3064 -0.4073 -0.0252
  188POPC  C31221733   1.505   0.654   3.885  0.1413  0.1622 -0.0407
  188POPC  H12X21734   1.560   0.749   3.873  0.4785 -0.3897 -4.1364
  188POPC  H12Y21735   1.578   0.576   3.854 -0.0289 -0.7162  1.6122
  188POPC  C31321736   1.469   0.620   4.028  0.2233 -0.2908  0.8259
  188POPC  H13X21737   1.462   0.509   4.038 -3.4682 -0.2555 -0.0820
  188POPC  H13Y21738   1.371   0.667   4.051 -0.0470 -0.8266  0.7968
  188POPC  C31421739   1.582   0.659   4.138 -0.7097 -0.2267  0.5232
  188POPC  H14X21740   1.650   0.724   4.078 -2.4100  1.6054  0.4546
  188POPC  H14Y21741   1.628   0.564   4.171 -0.7134 -0.6187 -0.5405
  188POPC  C31521742   1.540   0.747   4.256 -0.0042 -0.2822  0.2728
  188POPC  H15X21743   1.475   0.692   4.327  0.7759 -4.2026 -1.7781
  188POPC  H15Y21744   1.476   0.828   4.216  0.1527 -0.3833 -0.1939
  188POPC  C31621745   1.660   0.793   4.337 -0.7686 -0.0011  0.5914
  188POPC  H16X21746   1.627   0.891   4.377  1.2324  0.6140  0.8773
  188POPC  H16Y21747   1.746   0.803   4.267 -3.7099  1.2877 -3.1495
  188POPC  H16Z21748   1.690   0.715   4.410  1.3298  0.3606  0.1873
  189SAPI   C1221749   0.650   6.209   7.098 -0.3665  0.2004  0.7126
  189SAPI    H221750   0.742   6.193   7.159 -0.3724 -3.0655  0.0283
  189SAPI    O221751   0.548   6.119   7.137  0.2075  0.0690  0.2000
  189SAPI   HO221752   0.552   6.108   7.232  0.0152 -2.1893  0.0076
  189SAPI   C1321753   0.611   6.348   7.133 -0.1829  0.1007 -0.0072
  189SAPI    H321754   0.693   6.418   7.105  0.7691 -0.6396  0.8851
  189SAPI    O321755   0.590   6.361   7.271 -0.2706 -0.2843 -0.6728
  189SAPI   HO321756   0.673   6.396   7.307 -0.9441 -1.6761  2.6616
  189SAPI   C1421757   0.486   6.390   7.050 -0.0119 -0.1685  0.0163
  189SAPI    H421758   0.397   6.335   7.089 -0.0506 -1.7292 -2.0903
  189SAPI    O421759   0.468   6.534   7.070 -0.1247  0.0182  0.0217
  189SAPI   HO421760   0.554   6.570   7.092 -0.2802 -0.6643  1.9036
  189SAPI   C1521761   0.493   6.354   6.899  0.3552 -0.9846 -0.6997
  189SAPI    H521762   0.547   6.438   6.851 -0.6906 -1.5475 -2.9728
  189SAPI    O521763   0.362   6.353   6.844  0.8934 -0.1919 -0.2479
  189SAPI   HO521764   0.342   6.447   6.842  3.0791  0.3172 -1.9220
  189SAPI   C1621765   0.573   6.229   6.865  0.1598 -0.1748 -0.0430
  189SAPI    H621766   0.506   6.142   6.882 -2.8873  1.9732 -0.1918
  189SAPI    O621767   0.612   6.228   6.723 -0.2478 -0.1403 -0.3266
  189SAPI   HO621768   0.610   6.141   6.682  0.0541 -0.1392 -0.3456
  189SAPI   C1121769   0.696   6.212   6.957  0.0779  0.7498  0.6089
  189SAPI    H121770   0.756   6.304   6.939  0.8319  0.0290 -0.6947
  189SAPI     P21771   0.927   6.080   6.946 -0.4117 -0.1879  0.2623
  189SAPI   O1321772   0.962   5.945   6.987  0.5021 -0.1233 -0.1115
  189SAPI   O1421773   0.962   6.188   7.039  0.4394 -0.3436  0.9024
  189SAPI   O1221774   0.765   6.088   6.933 -0.5084  0.2737  0.6548
  189SAPI   O1121775   0.986   6.107   6.802  0.2914 -0.1706  0.1749
  189SAPI    C121776   0.986   6.002   6.700 -0.7050 -0.4035 -0.0869
  189SAPI    HA21777   1.087   5.992   6.655 -1.3490 -2.2932 -1.2305
  189SAPI    HB21778   0.977   5.903   6.750  4.4225 -0.0743  2.0878
  189SAPI    C221779   0.875   6.029   6.596  0.2117  0.2881  0.5163
  189SAPI    HS21780   0.789   6.056   6.661  0.8135  0.5499  1.2271
  189SAPI   O2121781   0.864   5.905   6.522  0.5906 -0.3289 -0.0959
  189SAPI   C2121782   0.746   5.908   6.461  0.7493 -0.0452 -0.1828
  189SAPI   O2221783   0.655   5.988   6.480 -0.8015  0.5766  0.1047
  189SAPI   C2221784   0.730   5.787   6.369 -0.1853 -0.3797  0.2763
  189SAPI   H2R21785   0.822   5.724   6.373  0.4367  0.5710  1.2843
  189SAPI   H2S21786   0.640   5.732   6.403 -1.4816  0.3075 -1.8196
  189SAPI    C321787   0.915   6.149   6.507 -0.1382  0.4116  0.3884
  189SAPI    HX21788   0.937   6.233   6.577 -0.0151  0.2601  0.5334
  189SAPI    HY21789   0.825   6.180   6.450 -0.0355  0.0660  0.0316
  189SAPI   O3121790   1.023   6.123   6.414 -0.2855 -0.3948  0.0334
  189SAPI   C3121791   0.996   6.130   6.285 -0.4258  0.2187  0.1730
  189SAPI   O3221792   0.882   6.125   6.241 -0.0608 -0.3722  0.1684
  189SAPI   C3221793   1.124   6.163   6.201 -0.6190  0.2691  0.2486
  189SAPI   H2X21794   1.208   6.133   6.267  2.6726  1.0613 -3.1937
  189SAPI   H2Y21795   1.131   6.273   6.215  0.9264 -0.2026  4.5003
  189SAPI   C2321796   0.693   5.833   6.221  0.2795  0.2572 -0.2311
  189SAPI   H3R21797   0.767   5.911   6.193  0.5147  0.1881  0.1888
  189SAPI   H3S21798   0.595   5.884   6.227  0.3251  0.2289  1.0172
  189SAPI   C2421799   0.706   5.714   6.119  0.3477  0.8250  0.0019
  189SAPI   H4R21800   0.620   5.646   6.136  1.9354 -0.9742  1.4623
  189SAPI   H4S21801   0.791   5.650   6.154  0.8431  1.7590  0.5437
  189SAPI   C2521802   0.735   5.752   5.974 -0.0756  0.2642 -0.2472
  189SAPI   H5R21803   0.799   5.841   5.961 -1.5013  1.4648  0.6159
  189SAPI   C2621804   0.698   5.684   5.863  0.2144 -0.3945  0.3309
  189SAPI   H6R21805   0.743   5.702   5.764  0.3513 -0.1609  0.4356
  189SAPI   C2721806   0.616   5.558   5.865  0.3682  0.1023  0.0591
  189SAPI   H7R21807   0.610   5.508   5.963  0.7550 -0.6870 -0.3109
  189SAPI   H7S21808   0.664   5.484   5.797 -1.7151 -0.1643 -1.2322
  189SAPI   C2821809   0.469   5.583   5.825  0.1549  0.0710 -0.4184
  189SAPI   H8R21810   0.391   5.602   5.900  0.4090 -0.5263  0.0105
  189SAPI   C2921811   0.432   5.588   5.693 -0.1363  0.0547  0.8333
  189SAPI   H9R21812   0.326   5.586   5.665 -0.3191 -4.2444  1.1685
  189SAPI  C21021813   0.513   5.570   5.567  0.0720  0.7156  0.0042
  189SAPI  H10R21814   0.451   5.502   5.504 -1.3652  1.8390  0.1556
  189SAPI  H10S21815   0.609   5.516   5.586 -0.5094 -0.1665  0.5523
  189SAPI  C21121816   0.534   5.700   5.494 -0.0057  0.0263 -0.1733
  189SAPI  H11R21817   0.521   5.795   5.547 -1.3830 -0.6558  0.7783
  189SAPI  C21221818   0.582   5.701   5.369 -0.3253  0.3176 -0.3093
  189SAPI  H12R21819   0.591   5.797   5.315 -0.0197 -0.3489 -1.4762
  189SAPI  C21321820   0.626   5.581   5.285 -0.5262 -0.3675 -0.1796
  189SAPI  H13R21821   0.678   5.514   5.357  0.6022  2.6153  1.9538
  189SAPI  H13S21822   0.702   5.608   5.209  0.7804  1.6071  1.7100
  189SAPI  C21421823   0.509   5.515   5.217 -0.4170  0.0823 -0.0924
  189SAPI  H14R21824   0.409   5.543   5.253 -0.1432  1.0190 -0.0444
  189SAPI  C21521825   0.516   5.408   5.137  0.6205  0.0194 -0.2396
  189SAPI  H15R21826   0.424   5.358   5.103  0.6572  0.2569 -0.6874
  189SAPI  C21621827   0.653   5.349   5.102 -0.3304  0.3468 -0.2189
  189SAPI  H16R21828   0.650   5.241   5.131 -1.5398 -0.2152 -2.2528
  189SAPI  H16S21829   0.743   5.399   5.144  0.3608 -0.0901 -1.1404
  189SAPI  C21721830   0.672   5.346   4.948 -0.0686 -0.2538  0.4522
  189SAPI  H17R21831   0.774   5.303   4.935 -0.5930 -1.1421 -0.9762
  189SAPI  H17S21832   0.676   5.448   4.904  0.6199 -0.4216  0.1153
  189SAPI  C21821833   0.569   5.260   4.862 -0.3739 -0.5976 -0.0803
  189SAPI  H18R21834   0.610   5.246   4.760 -0.7961  0.5383 -0.4183
  189SAPI  H18S21835   0.476   5.320   4.856 -1.5043 -2.0626  1.5969
  189SAPI  C21921836   0.537   5.123   4.921  0.4613  0.0943  0.0558
  189SAPI  H19R21837   0.495   5.116   5.023  0.6784  1.6693  0.2716
  189SAPI  H19S21838   0.631   5.064   4.933  0.5744  0.1185 -0.6300
  189SAPI  C22021839   0.446   5.039   4.830  0.1064 -0.1856 -0.4908
  189SAPI  H20R21840   0.340   5.072   4.831 -0.0269 -0.5862  0.9070
  189SAPI  H20S21841   0.432   4.939   4.878  0.2782 -0.1788 -0.4251
  189SAPI  H20T21842   0.492   5.030   4.729 -0.7212  0.3625 -0.9267
  189SAPI   C3321843   1.126   6.103   6.066  0.5242 -0.1788 -0.0026
  189SAPI   H3X21844   1.034   6.132   6.011 -0.7011 -0.3465  1.8454
  189SAPI   H3Y21845   1.139   5.992   6.072 -2.4504 -0.6407 -0.6541
  189SAPI   C3421846   1.243   6.161   5.985 -0.2593  0.6812 -0.2450
  189SAPI   H4X21847   1.338   6.168   6.044 -0.1632 -0.6344 -0.2226
  189SAPI   H4Y21848   1.205   6.262   5.960 -2.4918 -0.5408 -2.1312
  189SAPI   C3521849   1.290   6.091   5.855  0.1493 -0.0406 -0.4283
  189SAPI   H5X21850   1.344   5.996   5.873  1.5475  0.7413 -0.3547
  189SAPI   H5Y21851   1.373   6.154   5.817  0.5095  0.6200  1.3521
  189SAPI   C3621852   1.173   6.076   5.761  0.2591 -1.1680  0.5460
  189SAPI   H6X21853   1.113   6.169   5.763 -2.8051 -2.9907 -0.2264
  189SAPI   H6Y21854   1.100   6.000   5.797 -1.6878  0.3695 -0.0054
  189SAPI   C3721855   1.229   6.047   5.625  1.0086  0.3834  0.3150
  189SAPI   H7X21856   1.140   6.010   5.571  0.3757  2.5924 -0.2422
  189SAPI   H7Y21857   1.304   5.966   5.618  1.6405  0.8533  1.3532
  189SAPI   C3821858   1.287   6.164   5.543 -1.0620  0.2478 -0.2373
  189SAPI   H8X21859   1.389   6.178   5.585 -1.2013  1.0937 -0.1626
  189SAPI   H8Y21860   1.230   6.259   5.555  0.1067  0.8878  0.4698
  189SAPI   C3921861   1.288   6.131   5.392  0.3069  0.2306  0.1764
  189SAPI   H9X21862   1.193   6.077   5.372  1.3005 -1.0755 -1.2437
  189SAPI   H9Y21863   1.368   6.055   5.381  0.7086  0.9055 -1.8388
  189SAPI  C31021864   1.296   6.250   5.301  0.3401  0.9129  0.1908
  189SAPI  H10X21865   1.384   6.312   5.330  1.1343 -0.2900  0.4404
  189SAPI  H10Y21866   1.200   6.302   5.322 -0.3196 -0.9083  1.9571
  189SAPI  C31121867   1.305   6.206   5.157  0.0255 -0.0798 -0.5776
  189SAPI  H11X21868   1.229   6.128   5.137 -0.2913 -0.0211  0.3296
  189SAPI  H11Y21869   1.407   6.177   5.126  0.2326  0.1287 -0.1092
  189SAPI  C31221870   1.257   6.329   5.072  0.2651  0.1319  0.1429
  189SAPI  H12X21871   1.322   6.417   5.091  0.9894  0.2371 -2.4014
  189SAPI  H12Y21872   1.148   6.338   5.092  0.0284  0.0177 -1.0066
  189SAPI  C31321873   1.263   6.286   4.925 -0.5904  0.0758  1.0435
  189SAPI  H13X21874   1.230   6.180   4.921 -0.9291  0.1878  0.7598
  189SAPI  H13Y21875   1.369   6.286   4.892 -0.5576 -3.8457  0.6303
  189SAPI  C31421876   1.191   6.381   4.830 -0.7385  0.9049 -0.0555
  189SAPI  H14X21877   1.084   6.393   4.855 -0.7455 -1.6239  1.5239
  189SAPI  H14Y21878   1.191   6.331   4.731 -1.1136 -1.1178  0.9061
  189SAPI  C31521879   1.252   6.521   4.804 -0.6650 -0.9216 -0.4886
  189SAPI  H15X21880   1.355   6.506   4.842 -0.5995  1.9494  0.7663
  189SAPI  H15Y21881   1.206   6.595   4.874  0.7138 -2.2357  1.9321
  189SAPI  C31621882   1.227   6.559   4.658 -0.2698 -0.0208  0.3641
  189SAPI  H16X21883   1.117   6.562   4.647 -0.4757 -0.2666  2.0057
  189SAPI  H16Y21884   1.272   6.479   4.596  0.0453  0.0236  0.5319
  189SAPI  C31721885   1.288   6.691   4.616 -0.6019  0.7127  0.4743
  189SAPI  H17X21886   1.241   6.775   4.671 -2.1859  1.0086 -1.2583
  189SAPI  H17Y21887   1.264   6.703   4.508  2.2850 -0.0482 -0.3343
  189SAPI  C31821888   1.442   6.704   4.630  0.0266 -0.3284  0.1286
  189SAPI  H18X21889   1.471   6.695   4.737  0.0385 -2.4415 -0.0106
  189SAPI  H18Y21890   1.473   6.805   4.598 -0.8977  0.9174  2.8172
  189SAPI  H18Z21891   1.484   6.623   4.566 -3.1298 -3.4486  1.6548
  190SAPI   C1221892   1.239   4.055   6.697 -0.1785  0.2012 -0.0447
  190SAPI    H221893   1.148   4.007   6.655  0.0287  0.8256 -1.2514
  190SAPI    O221894   1.257   4.026   6.835 -0.4206  0.0223  0.5155
  190SAPI   HO221895   1.172   4.007   6.875 -0.3131  0.1904  0.8280
  190SAPI   C1321896   1.355   4.002   6.609 -0.3844  0.0247  0.4693
  190SAPI    H321897   1.323   4.024   6.505 -1.5370 -3.5630 -0.0669
  190SAPI    O321898   1.361   3.864   6.636 -0.7308 -0.7482 -1.2735
  190SAPI   HO321899   1.368   3.849   6.731  0.0510 -0.5395 -1.2890
  190SAPI   C1421900   1.490   4.059   6.637 -0.1134  0.0341 -0.3024
  190SAPI    H421901   1.514   4.026   6.740 -0.0145  1.6303  0.2149
  190SAPI    O421902   1.588   4.015   6.541 -0.1024  0.5095  0.2964
  190SAPI   HO421903   1.658   3.995   6.604  1.6320 -0.9170 -1.9505
  190SAPI   C1521904   1.484   4.210   6.653  0.2999 -0.3125 -0.2974
  190SAPI    H521905   1.469   4.244   6.548  0.0262 -0.4817 -0.3137
  190SAPI    O521906   1.606   4.271   6.696  0.3337  0.4984 -0.5433
  190SAPI   HO521907   1.633   4.221   6.773  0.3841  0.5148 -0.5500
  190SAPI   C1621908   1.361   4.274   6.728 -0.1098 -0.5310 -0.7439
  190SAPI    H621909   1.372   4.265   6.839 -1.0121  2.4890 -0.3031
  190SAPI    O621910   1.349   4.415   6.700 -0.3729  0.2994  0.4386
  190SAPI   HO621911   1.268   4.420   6.650  0.2964  0.0298 -0.7240
  190SAPI   C1121912   1.235   4.206   6.681  1.1933  0.2275 -0.9299
  190SAPI    H121913   1.237   4.214   6.570 -0.9594 -1.9089 -1.2100
  190SAPI     P21914   1.016   4.365   6.664 -0.1453 -0.5741 -0.0167
  190SAPI   O1321915   1.104   4.464   6.594 -0.0554 -0.5735 -0.2864
  190SAPI   O1421916   0.920   4.422   6.765  0.2728 -0.2147 -0.3648
  190SAPI   O1221917   1.109   4.258   6.734 -0.4673  0.4124 -0.2258
  190SAPI   O1121918   0.938   4.285   6.547  0.6257  0.1085  0.3038
  190SAPI    C121919   0.883   4.155   6.566  0.5047 -0.4691  0.1553
  190SAPI    HA21920   0.952   4.087   6.620 -1.2734 -0.5298  2.5124
  190SAPI    HB21921   0.799   4.160   6.637 -0.8920  0.3037 -1.4711
  190SAPI    C221922   0.816   4.101   6.434 -0.6219 -0.2470 -0.3800
  190SAPI    HS21923   0.758   4.013   6.469 -0.6877  0.3358  1.0828
  190SAPI   O2121924   0.910   4.061   6.337 -0.3916 -0.0411 -0.1672
  190SAPI   C2121925   0.992   3.969   6.383  0.3211  0.6851  0.3554
  190SAPI   O2221926   0.983   3.899   6.480 -0.3854 -0.1386 -1.0599
  190SAPI   C2221927   1.105   3.964   6.274  0.3524 -0.3092 -0.4005
  190SAPI   H2R21928   1.058   3.956   6.174 -0.8891  1.5875 -0.0412
  190SAPI   H2S21929   1.158   4.061   6.285  0.2330 -0.4020  1.2077
  190SAPI    C321930   0.724   4.211   6.372 -0.1630  0.5158 -0.7955
  190SAPI    HX21931   0.789   4.300   6.364  1.8265 -0.7464  0.7038
  190SAPI    HY21932   0.644   4.247   6.441  0.5178 -1.8349  1.3459
  190SAPI   O3121933   0.671   4.185   6.243 -0.3493 -0.1268  0.2380
  190SAPI   C3121934   0.578   4.098   6.247 -0.0800 -0.4545 -0.2159
  190SAPI   O3221935   0.525   4.051   6.354 -0.3836  0.2787  0.4688
  190SAPI   C3221936   0.515   4.067   6.113 -0.6833  0.4223  0.1345
  190SAPI   H2X21937   0.596   4.039   6.043  0.4281  1.1973  1.0679
  190SAPI   H2Y21938   0.453   4.154   6.084  0.9154  1.8640  0.9289
  190SAPI   C2321939   1.216   3.853   6.284  0.4786  0.5583 -0.7837
  190SAPI   H3R21940   1.182   3.752   6.255 -1.7217  0.5915  1.3275
  190SAPI   H3S21941   1.250   3.854   6.389 -3.7445  2.1274  0.8135
  190SAPI   C2421942   1.334   3.885   6.188 -0.2117  0.3733  0.1630
  190SAPI   H4R21943   1.284   3.899   6.089 -0.9954 -0.4294  0.4383
  190SAPI   H4S21944   1.394   3.792   6.179 -1.1510 -0.0757 -2.2103
  190SAPI   C2521945   1.408   4.011   6.225  0.2044  0.0314  0.2169
  190SAPI   H5R21946   1.465   4.004   6.319  1.4744  0.9059 -0.4632
  190SAPI   C2621947   1.441   4.118   6.152 -0.0036 -0.1430 -0.0569
  190SAPI   H6R21948   1.490   4.201   6.206 -1.0488  0.9073 -0.6947
  190SAPI   C2721949   1.392   4.149   6.009  0.4105 -0.1436 -0.1425
  190SAPI   H7R21950   1.307   4.220   6.019  1.2613  0.8518  0.1046
  190SAPI   H7S21951   1.360   4.054   5.960  2.1108 -0.8607  0.0762
  190SAPI   C2821952   1.507   4.209   5.923  1.0209  1.2147 -0.3164
  190SAPI   H8R21953   1.594   4.251   5.975  1.1149  1.1745 -0.4420
  190SAPI   C2921954   1.509   4.225   5.795 -0.8473 -0.0839  0.0310
  190SAPI   H9R21955   1.596   4.271   5.746 -2.1065 -0.0641 -2.3280
  190SAPI  C21021956   1.404   4.188   5.694 -0.0829  0.3771  0.9916
  190SAPI  H10R21957   1.420   4.263   5.613 -0.2372 -0.5900  0.0370
  190SAPI  H10S21958   1.299   4.183   5.730 -0.3099 -0.2054  0.2822
  190SAPI  C21121959   1.435   4.049   5.643 -0.3663  0.0007  0.0204
  190SAPI  H11R21960   1.476   3.976   5.715 -0.0724  1.0945  0.9963
  190SAPI  C21221961   1.394   4.011   5.521  0.3600  0.2597 -0.0579
  190SAPI  H12R21962   1.415   3.907   5.492 -1.8025 -0.3713  0.4457
  190SAPI  C21321963   1.332   4.105   5.413  0.2531  0.2935 -0.1185
  190SAPI  H13R21964   1.413   4.178   5.389 -1.4870  1.7744 -1.7154
  190SAPI  H13S21965   1.252   4.159   5.468  0.8148 -1.1962  2.3090
  190SAPI  C21421966   1.291   4.022   5.296  0.3291 -0.1337  0.2700
  190SAPI  H14R21967   1.219   3.945   5.327  1.8684 -0.5123  3.1564
  190SAPI  C21521968   1.332   4.021   5.167  0.0107 -0.2977 -0.2354
  190SAPI  H15R21969   1.278   3.960   5.093  1.1150 -0.3299 -1.0303
  190SAPI  C21621970   1.435   4.109   5.102  0.1688 -0.7573  0.2019
  190SAPI  H16R21971   1.493   4.166   5.178 -0.1966  1.0863 -0.8438
  190SAPI  H16S21972   1.382   4.181   5.037 -0.7904 -0.8154  0.9072
  190SAPI  C21721973   1.532   4.032   5.017  0.7436 -0.4374  0.3403
  190SAPI  H17R21974   1.558   4.084   4.922  0.1267  1.8616  1.3615
  190SAPI  H17S21975   1.483   3.937   4.987  0.6904 -0.1680 -0.4548
  190SAPI  C21821976   1.666   4.004   5.084  0.1287  0.0389 -0.4351
  190SAPI  H18R21977   1.651   3.932   5.167  1.1810  2.2142  1.7605
  190SAPI  H18S21978   1.709   4.092   5.136 -2.7654  0.2374  1.8770
  190SAPI  C21921979   1.776   3.939   5.004 -0.7457  0.3121  0.2557
  190SAPI  H19R21980   1.792   3.999   4.912 -3.4411  0.8446  0.0491
  190SAPI  H19S21981   1.745   3.843   4.959  1.7445  0.1148 -1.2102
  190SAPI  C22021982   1.901   3.901   5.087 -0.5775 -0.0303 -0.4834
  190SAPI  H20R21983   1.856   3.884   5.188  0.8568  0.2907  0.2420
  190SAPI  H20S21984   1.973   3.985   5.100  1.9895 -2.0900 -0.4341
  190SAPI  H20T21985   1.960   3.813   5.052  1.8749  0.2067  2.5876
  190SAPI   C3321986   0.416   3.940   6.127  0.1066 -0.4919 -0.2794
  190SAPI   H3X21987   0.343   3.971   6.205  1.2767  1.7188  0.0238
  190SAPI   H3Y21988   0.474   3.859   6.175 -2.0572 -0.8941  1.8678
  190SAPI   C3421989   0.335   3.919   6.000  0.2410 -0.0182 -0.0574
  190SAPI   H4X21990   0.276   4.012   5.984 -0.6687 -0.8075 -1.5089
  190SAPI   H4Y21991   0.265   3.835   6.020 -0.0457  0.1595 -0.3035
  190SAPI   C3521992   0.410   3.900   5.869 -1.1319  0.9107 -0.4886
  190SAPI   H5X21993   0.482   3.816   5.878  0.0820  1.8561 -1.0563
  190SAPI   H5Y21994   0.465   3.992   5.840 -0.4733  1.0232  1.0425
  190SAPI   C3621995   0.324   3.863   5.747  0.0097 -0.1891  0.3122
  190SAPI   H6X21996   0.243   3.939   5.750 -1.2587 -1.5027  0.9717
  190SAPI   H6Y21997   0.274   3.766   5.770  1.3801 -0.6221  1.6577
  190SAPI   C3721998   0.392   3.857   5.610  0.1617 -0.3517  0.3697
  190SAPI   H7X21999   0.471   3.780   5.600  0.3768 -0.0701 -0.1260
  190SAPI   H7Y22000   0.439   3.958   5.611 -3.1073  1.3200  1.9061
  190SAPI   C3822001   0.287   3.840   5.494 -1.3601 -0.8228 -0.2836
  190SAPI   H8X22002   0.194   3.894   5.521 -1.1635 -1.3606  1.6374
  190SAPI   H8Y22003   0.261   3.732   5.499 -1.5679 -0.7147  2.7944
  190SAPI   C3922004   0.352   3.883   5.362  0.2647  0.0552 -0.0432
  190SAPI   H9X22005   0.417   3.972   5.376  2.0593 -1.1299 -0.4641
  190SAPI   H9Y22006   0.278   3.912   5.285  0.3922 -1.5001 -0.7902
  190SAPI  C31022007   0.455   3.789   5.305  0.1616 -0.6015  0.3095
  190SAPI  H10X22008   0.420   3.683   5.299  1.7334 -1.1953  1.0142
  190SAPI  H10Y22009   0.538   3.765   5.375  0.9118 -1.5000 -0.8384
  190SAPI  C31122010   0.489   3.815   5.157 -0.3615 -0.2584 -0.1106
  190SAPI  H11X22011   0.575   3.756   5.117 -0.5734  0.6390 -1.9436
  190SAPI  H11Y22012   0.532   3.917   5.146  0.3128 -0.4215  0.8181
  190SAPI  C31222013   0.369   3.792   5.068 -0.5694  0.6486  0.3542
  190SAPI  H12X22014   0.324   3.892   5.052  1.1716  1.6538  1.4114
  190SAPI  H12Y22015   0.303   3.711   5.105  1.1850 -2.0772 -2.0670
  190SAPI  C31322016   0.409   3.731   4.936 -0.5383  0.4288  0.3510
  190SAPI  H13X22017   0.448   3.634   4.974  0.3935  0.0619 -1.4703
  190SAPI  H13Y22018   0.481   3.786   4.872  0.6338  0.1945  1.4324
  190SAPI  C31422019   0.291   3.692   4.842 -0.5426  0.1321  0.2843
  190SAPI  H14X22020   0.221   3.773   4.811 -0.1919 -0.1233 -1.3023
  190SAPI  H14Y22021   0.224   3.619   4.892 -0.6970  0.0676 -0.0102
  190SAPI  C31522022   0.342   3.626   4.714 -0.2923 -0.3650  0.2282
  190SAPI  H15X22023   0.442   3.664   4.684 -0.5193 -1.7651 -2.5611
  190SAPI  H15Y22024   0.274   3.666   4.637 -0.6264  0.2161  0.8183
  190SAPI  C31622025   0.355   3.476   4.717  0.3662 -0.4621  0.7510
  190SAPI  H16X22026   0.257   3.432   4.745 -0.1490  0.7447  0.9000
  190SAPI  H16Y22027   0.437   3.443   4.784  1.9563 -0.2055 -0.9729
  190SAPI  C31722028   0.401   3.415   4.583  1.1598 -1.0128 -0.4647
  190SAPI  H17X22029   0.379   3.306   4.591  0.9358 -0.8668  1.8811
  190SAPI  H17Y22030   0.509   3.436   4.579  1.2164 -0.5354  1.8514
  190SAPI  C31822031   0.330   3.465   4.464  0.2826 -0.4353  0.7097
  190SAPI  H18X22032   0.222   3.471   4.493  0.8468 -0.0016  2.9396
  190SAPI  H18Y22033   0.348   3.402   4.375  2.1818 -0.5277  1.1144
  190SAPI  H18Z22034   0.365   3.562   4.426 -0.9053 -0.2551  0.0129
  191SAPI   C1222035   3.939   2.076   2.212  0.9047  0.0889 -0.6203
  191SAPI    H222036   3.950   1.990   2.281  0.9238  1.4491  1.1341
  191SAPI    O222037   3.995   2.028   2.088  0.6363 -0.6109 -0.1088
  191SAPI   HO222038   4.091   2.037   2.094  0.5828  2.1645 -1.6092
  191SAPI   C1322039   3.791   2.109   2.213  0.1484 -0.7346 -0.2909
  191SAPI    H322040   3.759   2.152   2.310  1.9819 -1.9397  0.9082
  191SAPI    O322041   3.706   1.994   2.189 -0.4321  0.5292 -0.2796
  191SAPI   HO322042   3.628   2.030   2.148 -0.9999 -1.2943 -0.9099
  191SAPI   C1422043   3.764   2.216   2.099  0.5688  0.7985 -0.4662
  191SAPI    H422044   3.780   2.153   2.009  1.6581  2.7519 -1.7036
  191SAPI    O422045   3.628   2.259   2.100  0.5261 -0.8475 -0.1381
  191SAPI   HO422046   3.591   2.261   2.012 -0.6202  3.7251  0.2018
  191SAPI   C1522047   3.868   2.322   2.079  0.9189  0.2267 -0.2988
  191SAPI    H522048   3.817   2.407   2.129 -0.7746 -0.0099 -1.5653
  191SAPI    O522049   3.884   2.372   1.947  0.3022  0.1860  0.2084
  191SAPI   HO522050   3.818   2.442   1.945 -1.3055 -1.2637 -1.8965
  191SAPI   C1622051   4.004   2.319   2.157  0.2162  0.7458 -0.3924
  191SAPI    H622052   4.085   2.295   2.084 -2.1895 -0.2450 -2.8937
  191SAPI    O622053   4.038   2.444   2.215 -0.2619  0.6254  0.3168
  191SAPI   HO622054   4.124   2.463   2.176 -1.0554  0.0594 -1.8132
  191SAPI   C1122055   4.011   2.202   2.259 -0.0782 -0.1826 -0.2465
  191SAPI    H122056   3.960   2.242   2.349 -1.8345 -2.4599 -0.1354
  191SAPI     P22057   4.193   2.101   2.425 -0.0108  0.2483 -0.1263
  191SAPI   O1322058   4.310   2.014   2.407  0.5189 -1.1676 -0.1387
  191SAPI   O1422059   4.071   2.043   2.492 -0.2267  0.4801 -0.2930
  191SAPI   O1222060   4.144   2.177   2.285 -0.5820  0.1531  0.2547
  191SAPI   O1122061   4.246   2.210   2.529  0.1709 -0.1935  0.1604
  191SAPI    C122062   4.246   2.350   2.493  0.8483  0.1380 -0.1368
  191SAPI    HA22063   4.296   2.381   2.399 -0.6443 -0.0314 -1.0260
  191SAPI    HB22064   4.146   2.394   2.471  0.5078 -0.1045  0.8423
  191SAPI    C222065   4.330   2.439   2.594  0.3123 -0.0396 -0.0844
  191SAPI    HS22066   4.306   2.542   2.561 -0.0568 -0.0215  0.2352
  191SAPI   O2122067   4.467   2.396   2.591  0.4976  0.3876 -0.3625
  191SAPI   C2122068   4.539   2.481   2.660 -1.1146 -0.4721  0.1570
  191SAPI   O2222069   4.509   2.595   2.689 -0.3134 -0.1739  0.8088
  191SAPI   C2222070   4.672   2.411   2.685  0.2542  0.2927 -0.0905
  191SAPI   H2R22071   4.694   2.334   2.608 -1.6138  1.2614 -1.6874
  191SAPI   H2S22072   4.751   2.489   2.688  0.2672  0.3009 -0.5943
  191SAPI    C322073   4.257   2.417   2.727  0.3749 -0.2212 -0.0360
  191SAPI    HX22074   4.269   2.318   2.778 -1.6233 -0.2389  0.5030
  191SAPI    HY22075   4.150   2.425   2.696  0.1054  0.0080  0.9318
  191SAPI   O3122076   4.286   2.524   2.814  0.7049 -0.1360 -0.0470
  191SAPI   C3122077   4.336   2.504   2.940  0.5188  0.1423 -0.1723
  191SAPI   O3222078   4.362   2.394   2.989  0.2364 -0.3782 -0.3142
  191SAPI   C3222079   4.312   2.628   3.031  0.1756 -0.0175  0.1248
  191SAPI   H2X22080   4.213   2.614   3.079 -0.1208 -1.0440 -0.7285
  191SAPI   H2Y22081   4.301   2.710   2.957  0.0194 -1.6034 -1.7266
  191SAPI   C2322082   4.673   2.332   2.822 -0.0064  0.0055 -0.7451
  191SAPI   H3R22083   4.742   2.246   2.811 -0.2593 -0.1601 -1.0553
  191SAPI   H3S22084   4.571   2.297   2.851  0.1349  0.2614  0.0974
  191SAPI   C2422085   4.721   2.424   2.945 -0.2356  0.6644  0.2667
  191SAPI   H4R22086   4.694   2.390   3.047  1.3425  1.9611  1.1647
  191SAPI   H4S22087   4.663   2.518   2.932 -0.6358  0.1559 -2.0223
  191SAPI   C2522088   4.863   2.460   2.953  0.3812 -0.0915 -0.3460
  191SAPI   H5R22089   4.935   2.378   2.941 -1.7102 -2.2598  1.1046
  191SAPI   C2622090   4.910   2.584   2.965  0.5181  0.4788  0.5050
  191SAPI   H6R22091   5.019   2.602   2.960  0.3197  1.3066 -1.9608
  191SAPI   C2722092   4.828   2.708   3.001 -0.2547  0.4802  0.1703
  191SAPI   H7R22093   4.884   2.774   3.072 -2.0343 -0.4130  2.5269
  191SAPI   H7S22094   4.740   2.685   3.064  0.3412  2.4909  1.8906
  191SAPI   C2822095   4.775   2.782   2.881 -0.0384  0.1937  0.1098
  191SAPI   H8R22096   4.753   2.715   2.797  2.2126 -0.0289 -0.3611
  191SAPI   C2922097   4.760   2.913   2.867 -0.2309  0.7285  0.4960
  191SAPI   H9R22098   4.713   2.946   2.773  1.0830 -0.8530 -0.7848
  191SAPI  C21022099   4.796   3.007   2.979 -0.6917 -0.0133 -0.2847
  191SAPI  H10R22100   4.856   3.086   2.928 -2.8724  1.0056 -1.3805
  191SAPI  H10S22101   4.860   2.960   3.056 -1.8350  0.1959  0.8136
  191SAPI  C21122102   4.673   3.077   3.032 -0.0931  0.9089  0.1503
  191SAPI  H11R22103   4.613   3.140   2.964 -0.2516 -1.0569 -1.6625
  191SAPI  C21222104   4.633   3.072   3.166 -0.6824  0.1147  0.2156
  191SAPI  H12R22105   4.550   3.131   3.208 -1.1926  0.0078 -0.6195
  191SAPI  C21322106   4.698   2.999   3.286 -0.1940  0.0622 -0.1737
  191SAPI  H13R22107   4.786   2.940   3.252  1.0409  0.3692  2.3166
  191SAPI  H13S22108   4.623   2.923   3.318 -0.1982  0.3152  0.4190
  191SAPI  C21422109   4.736   3.099   3.393  0.1020 -0.4774  0.8629
  191SAPI  H14R22110   4.785   3.193   3.364 -1.5781 -0.2996 -1.7653
  191SAPI  C21522111   4.708   3.079   3.522  0.1828 -0.0360  0.4360
  191SAPI  H15R22112   4.747   3.150   3.596  1.9315  2.2956 -2.4665
  191SAPI  C21622113   4.645   2.956   3.587 -0.3583  0.3717  0.6512
  191SAPI  H16R22114   4.718   2.877   3.614  0.8841  1.0894 -0.4884
  191SAPI  H16S22115   4.581   2.908   3.510  0.8569  1.3008 -0.9901
  191SAPI  C21722116   4.560   2.980   3.708 -0.2534  1.2616 -0.4205
  191SAPI  H17R22117   4.518   2.883   3.742  0.8593  1.1040  0.5425
  191SAPI  H17S22118   4.465   3.035   3.686 -0.9630  0.0266 -0.5421
  191SAPI  C21822119   4.640   3.038   3.823 -0.1487  0.0862  0.2093
  191SAPI  H18R22120   4.679   3.140   3.801  0.3424  0.0548  0.8894
  191SAPI  H18S22121   4.726   2.972   3.848  1.2867  0.8772 -2.2671
  191SAPI  C21922122   4.553   3.064   3.947  0.3190  0.2161  0.1409
  191SAPI  H19R22123   4.523   2.962   3.980  1.4145  0.0182  0.5542
  191SAPI  H19S22124   4.460   3.115   3.915 -0.3508 -1.3918 -0.5747
  191SAPI  C22022125   4.620   3.128   4.069 -0.8331 -0.4742 -0.4787
  191SAPI  H20R22126   4.651   3.233   4.050 -0.3039 -0.4574  0.4309
  191SAPI  H20S22127   4.701   3.060   4.104  1.0898  0.3578 -3.0219
  191SAPI  H20T22128   4.541   3.138   4.147 -0.4133  0.0068 -0.1146
  191SAPI   C3322129   4.421   2.669   3.136  0.4817 -0.4187  0.2670
  191SAPI   H3X22130   4.405   2.768   3.182  0.1182 -0.0305 -0.6656
  191SAPI   H3Y22131   4.518   2.667   3.082 -0.0235 -0.2759 -0.6663
  191SAPI   C3422132   4.411   2.576   3.257 -0.1728 -0.4933  0.6893
  191SAPI   H4X22133   4.450   2.481   3.216 -2.6291 -1.4702  0.4550
  191SAPI   H4Y22134   4.305   2.557   3.283 -1.2791  0.8757 -2.4196
  191SAPI   C3522135   4.500   2.613   3.380  0.1099  0.1257 -0.8057
  191SAPI   H5X22136   4.531   2.719   3.368 -1.7052  0.6188 -1.6003
  191SAPI   H5Y22137   4.581   2.538   3.382 -0.0290 -0.0643  2.1731
  191SAPI   C3622138   4.433   2.597   3.519  0.8299 -0.1908 -0.1405
  191SAPI   H6X22139   4.389   2.496   3.523  0.6784 -0.1608 -0.8525
  191SAPI   H6Y22140   4.357   2.673   3.547  2.2754  1.1195  0.4200
  191SAPI   C3722141   4.534   2.594   3.635  0.7284  0.1529  0.7386
  191SAPI   H7X22142   4.577   2.697   3.636 -2.6193  1.7197  3.4020
  191SAPI   H7Y22143   4.606   2.512   3.612 -0.9296 -1.5928  1.5553
  191SAPI   C3822144   4.461   2.567   3.765 -0.0772 -0.7344  0.4787
  191SAPI   H8X22145   4.395   2.477   3.766  0.5259 -1.2255 -1.2297
  191SAPI   H8Y22146   4.392   2.648   3.799  0.7916 -0.5410  1.8457
  191SAPI   C3922147   4.544   2.561   3.890 -0.8833  0.5234 -0.4371
  191SAPI   H9X22148   4.638   2.502   3.875  0.3497  2.3930 -0.3780
  191SAPI   H9Y22149   4.476   2.510   3.962 -1.3516  3.1943  1.1419
  191SAPI  C31022150   4.604   2.692   3.953  0.2585 -1.0290 -0.3296
  191SAPI  H10X22151   4.525   2.743   4.013  1.5928  0.7439 -0.0033
  191SAPI  H10Y22152   4.622   2.760   3.867 -2.4557 -0.9372 -0.9157
  191SAPI  C31122153   4.727   2.690   4.042 -0.4877 -0.3392 -0.1623
  191SAPI  H11X22154   4.747   2.793   4.080  1.3087  0.5183 -3.0778
  191SAPI  H11Y22155   4.822   2.657   3.993  0.0631 -0.9829  1.2619
  191SAPI  C31222156   4.719   2.594   4.166  0.4665 -0.2188  0.1038
  191SAPI  H12X22157   4.797   2.614   4.242  0.5186 -1.0235  0.2691
  191SAPI  H12Y22158   4.727   2.491   4.123  1.3814  0.5369 -1.6307
  191SAPI  C31322159   4.578   2.614   4.234 -0.4166  0.2805 -0.0750
  191SAPI  H13X22160   4.494   2.561   4.183 -0.5547 -0.7307  1.1475
  191SAPI  H13Y22161   4.557   2.723   4.224  1.6975  0.6837 -0.4691
  191SAPI  C31422162   4.577   2.583   4.386  0.5352  0.3344 -0.2253
  191SAPI  H14X22163   4.643   2.642   4.453 -0.1385  0.0262  0.7270
  191SAPI  H14Y22164   4.619   2.482   4.406 -2.5592 -0.8656  0.8266
  191SAPI  C31522165   4.433   2.579   4.445 -0.4194 -0.2945  0.4535
  191SAPI  H15X22166   4.391   2.477   4.425 -1.5022  0.2767 -0.3330
  191SAPI  H15Y22167   4.366   2.651   4.392 -1.5950 -2.6781 -1.5269
  191SAPI  C31622168   4.427   2.617   4.595 -0.0107  0.2890  0.4616
  191SAPI  H16X22169   4.454   2.725   4.598  1.0650  0.0389  3.5662
  191SAPI  H16Y22170   4.497   2.558   4.658 -0.1260  0.4561  0.7435
  191SAPI  C31722171   4.279   2.606   4.638 -0.6845  0.5856  0.0911
  191SAPI  H17X22172   4.277   2.641   4.743 -0.4331  0.2277  0.2185
  191SAPI  H17Y22173   4.255   2.498   4.645  3.7248 -0.6888 -1.0349
  191SAPI  C31822174   4.176   2.683   4.557 -0.1028  0.0453  0.4623
  191SAPI  H18X22175   4.076   2.683   4.605 -1.1532 -2.3514 -1.5277
  191SAPI  H18Y22176   4.180   2.651   4.451  1.4624  0.7235  0.2834
  191SAPI  H18Z22177   4.216   2.786   4.548  3.6299 -1.2851  0.0548
  192SAPI   C1222178   6.023   0.413   1.928  0.1540  0.3127  1.2242
  192SAPI    H222179   6.028   0.520   1.899 -0.0620  0.3780  1.4308
  192SAPI    O222180   5.914   0.404   2.023  0.0314  0.3099 -0.4701
  192SAPI   HO222181   5.934   0.457   2.101  0.9411  0.3597 -0.7259
  192SAPI   C1322182   5.986   0.334   1.802  0.5320  0.1158  0.0382
  192SAPI    H322183   6.068   0.326   1.727  0.8356  0.8175  0.2900
  192SAPI    O322184   5.870   0.382   1.738  0.5145 -0.7171  0.3299
  192SAPI   HO322185   5.802   0.352   1.798 -0.7880  0.9624 -0.2211
  192SAPI   C1422186   5.961   0.189   1.832  0.0678  0.6356  0.0869
  192SAPI    H422187   5.863   0.187   1.883 -0.2917 -1.3829 -0.6101
  192SAPI    O422188   5.944   0.115   1.712  0.5049  0.5288  0.0937
  192SAPI   HO422189   5.888   0.163   1.651 -2.5274 -3.5174 -0.7171
  192SAPI   C1522190   6.060   0.126   1.932 -0.4149 -0.3008  0.5101
  192SAPI    H522191   6.141   0.079   1.872  0.7251  0.5027  1.3771
  192SAPI    O522192   5.988   0.032   2.018 -0.5542 -0.4151  0.6170
  192SAPI   HO522193   5.924   0.083   2.069 -1.3503 -0.8934  0.1125
  192SAPI   C1622194   6.145   0.223   2.028 -0.0798  0.4133  0.2166
  192SAPI    H622195   6.089   0.216   2.124  0.5422  0.4080  0.5851
  192SAPI    O622196   6.276   0.175   2.052 -0.2434  0.0222  0.5949
  192SAPI   HO622197   6.314   0.228   2.122 -0.3964  0.8841  0.0450
  192SAPI   C1122198   6.156   0.369   1.975  0.0068 -1.1348 -0.6368
  192SAPI    H122199   6.228   0.359   1.890 -1.2272 -4.3973 -1.4721
  192SAPI     P22200   6.258   0.602   2.059  0.0234  0.1441  0.7817
  192SAPI   O1322201   6.148   0.699   2.092 -0.0453  0.2713  0.1323
  192SAPI   O1422202   6.298   0.617   1.914  0.1073 -0.6516  0.1840
  192SAPI   O1222203   6.211   0.446   2.085  0.0947  0.1713 -0.5360
  192SAPI   O1122204   6.369   0.626   2.158 -0.4306 -0.4733  0.1103
  192SAPI    C122205   6.475   0.535   2.203 -0.4194 -0.8989 -0.3531
  192SAPI    HA22206   6.459   0.430   2.171  2.2266 -2.2154  2.1949
  192SAPI    HB22207   6.576   0.574   2.179  0.6081 -2.3750  1.2693
  192SAPI    C222208   6.479   0.530   2.361 -0.2260 -0.6153  0.5255
  192SAPI    HS22209   6.562   0.463   2.392  0.2581 -1.1808 -1.8553
  192SAPI   O2122210   6.354   0.487   2.420  0.0605  0.0521  0.1457
  192SAPI   C2122211   6.324   0.359   2.379 -0.7502 -1.0038 -0.1077
  192SAPI   O2222212   6.405   0.283   2.325 -0.1723 -0.3803 -0.7240
  192SAPI   C2222213   6.185   0.321   2.440  0.2282  0.2997 -0.0614
  192SAPI   H2R22214   6.199   0.355   2.545 -0.0749  0.2259  0.0046
  192SAPI   H2S22215   6.097   0.370   2.392 -1.4754 -1.3984  1.1514
  192SAPI    C322216   6.511   0.666   2.416  0.4487 -0.8799  0.4997
  192SAPI    HX22217   6.434   0.743   2.390  1.1513 -0.9101 -1.9613
  192SAPI    HY22218   6.597   0.702   2.356 -0.7229  2.6409  0.6882
  192SAPI   O3122219   6.543   0.672   2.552  0.3215  0.0127  0.4841
  192SAPI   C3122220   6.445   0.682   2.640  0.2353  0.4455 -0.8421
  192SAPI   O3222221   6.326   0.683   2.623  0.0317  0.3595  0.1867
  192SAPI   C3222222   6.512   0.674   2.780  0.2040 -0.2426  1.2278
  192SAPI   H2X22223   6.611   0.723   2.768 -0.2837  0.7092  1.0127
  192SAPI   H2Y22224   6.520   0.565   2.799 -0.2430 -0.6195 -0.5994
  192SAPI   C2322225   6.166   0.167   2.429 -0.3312 -0.6021 -0.1934
  192SAPI   H3R22226   6.255   0.104   2.448 -0.2763  0.0899  2.2706
  192SAPI   H3S22227   6.141   0.142   2.324 -0.3369  1.5589 -0.7569
  192SAPI   C2422228   6.057   0.114   2.521 -0.1905  0.4743 -0.5886
  192SAPI   H4R22229   6.025   0.013   2.488 -0.4015  0.3619 -0.0527
  192SAPI   H4S22230   5.967   0.175   2.498  0.4286  0.9182 -1.9145
  192SAPI   C2522231   6.106   0.110   2.658  0.2862 -0.5335  0.7402
  192SAPI   H5R22232   6.157   0.017   2.688  1.5543  0.5789  2.2065
  192SAPI   C2622233   6.075   0.193   2.756 -0.4203 -0.0535  0.6434
  192SAPI   H6R22234   6.111   0.170   2.857  1.3369 -0.4717 -0.0368
  192SAPI   C2722235   5.987   0.311   2.750  0.0213 -0.4601 -0.2709
  192SAPI   H7R22236   5.900   0.279   2.811  1.3644  1.2072  2.7668
  192SAPI   H7S22237   5.941   0.324   2.650 -0.9834 -2.1359 -0.0503
  192SAPI   C2822238   6.053   0.426   2.809 -0.5527  0.4210 -0.0376
  192SAPI   H8R22239   6.117   0.480   2.738 -1.1010  1.9177  0.5516
  192SAPI   C2922240   6.057   0.461   2.941 -0.1020  0.3235  0.7420
  192SAPI   H9R22241   6.103   0.555   2.974  1.0980  0.1172 -0.2648
  192SAPI  C21022242   5.980   0.391   3.052  0.0227  0.1501  0.3215
  192SAPI  H10R22243   5.884   0.349   3.016  0.9714 -1.1633 -0.7472
  192SAPI  H10S22244   5.945   0.465   3.128  0.4419  0.9060 -0.2062
  192SAPI  C21122245   6.071   0.286   3.119 -0.4398 -0.1865  0.0340
  192SAPI  H11R22246   6.129   0.220   3.053  0.4580  0.7033 -0.0930
  192SAPI  C21222247   6.094   0.269   3.252  0.0277 -0.4422 -0.6786
  192SAPI  H12R22248   6.153   0.182   3.285  0.8516 -0.5298 -2.2715
  192SAPI  C21322249   6.038   0.351   3.365 -0.5102  0.0687 -0.5371
  192SAPI  H13R22250   5.947   0.306   3.408  0.1778  1.4035  2.5621
  192SAPI  H13S22251   5.997   0.446   3.325 -0.5987 -0.7535 -2.5429
  192SAPI  C21422252   6.151   0.368   3.467  0.4742 -0.4347 -0.1786
  192SAPI  H14R22253   6.249   0.399   3.428  0.4690 -1.0145 -0.6632
  192SAPI  C21522254   6.137   0.359   3.601  0.8061 -0.2138 -0.1672
  192SAPI  H15R22255   6.223   0.363   3.670  0.5278 -1.7651  0.3116
  192SAPI  C21622256   6.011   0.323   3.677 -0.8393  0.1169  0.8176
  192SAPI  H16R22257   6.010   0.214   3.694  1.8040 -0.4781 -1.9153
  192SAPI  H16S22258   5.933   0.345   3.601  0.2839  0.7649 -0.2010
  192SAPI  C21722259   5.983   0.410   3.795  0.2887  0.6224  0.0667
  192SAPI  H17R22260   5.873   0.422   3.808 -0.2540  2.3452 -4.3804
  192SAPI  H17S22261   6.004   0.518   3.782 -2.7802  1.2638 -0.4293
  192SAPI  C21822262   6.041   0.365   3.927  0.0780  0.0547 -0.1151
  192SAPI  H18R22263   6.152   0.373   3.919  0.0086  1.4727  0.0601
  192SAPI  H18S22264   6.004   0.262   3.944 -3.6058  1.4216  1.0639
  192SAPI  C21922265   5.988   0.438   4.052  0.6459  0.3495 -0.2693
  192SAPI  H19R22266   6.014   0.381   4.143 -1.5172  0.0750  0.2222
  192SAPI  H19S22267   5.877   0.448   4.050  0.7626  1.9773 -0.0512
  192SAPI  C22022268   6.055   0.571   4.070 -0.8486 -0.3454  0.5948
  192SAPI  H20R22269   6.017   0.623   4.161 -0.7212  0.1185  0.3869
  192SAPI  H20S22270   6.058   0.639   3.982  1.5451  1.0164  1.6107
  192SAPI  H20T22271   6.166   0.570   4.083 -0.6900  0.8321 -0.4388
  192SAPI   C3322272   6.431   0.721   2.902  0.0170 -0.2712 -0.7186
  192SAPI   H3X22273   6.323   0.705   2.880  0.2129 -0.9479 -1.2464
  192SAPI   H3Y22274   6.444   0.831   2.904  1.1628 -0.4057  0.7943
  192SAPI   C3422275   6.467   0.658   3.037  0.0450  0.2425 -0.2673
  192SAPI   H4X22276   6.567   0.699   3.064  1.1709 -2.3854 -0.1172
  192SAPI   H4Y22277   6.474   0.547   3.034 -0.2468  0.1288  1.8692
  192SAPI   C3522278   6.362   0.692   3.147  0.1507  0.3372  0.0343
  192SAPI   H5X22279   6.290   0.608   3.140  1.7741 -1.0644 -0.7437
  192SAPI   H5Y22280   6.315   0.792   3.139  0.1852  0.3082 -0.5806
  192SAPI   C3622281   6.411   0.686   3.294 -0.4592  0.7163 -0.3189
  192SAPI   H6X22282   6.472   0.774   3.321 -0.2459  0.5025 -0.1065
  192SAPI   H6Y22283   6.457   0.585   3.299 -0.7925  0.4841 -1.4472
  192SAPI   C3722284   6.303   0.693   3.404  0.4731  0.1428  0.1949
  192SAPI   H7X22285   6.218   0.623   3.390  0.2693  0.5185 -0.4428
  192SAPI   H7Y22286   6.266   0.798   3.409  1.2082  0.3709  1.1198
  192SAPI   C3822287   6.353   0.669   3.548  0.1451 -0.5988 -0.0361
  192SAPI   H8X22288   6.433   0.744   3.570 -0.9351  0.6709 -0.2742
  192SAPI   H8Y22289   6.403   0.570   3.544 -0.7939 -1.0369 -1.5948
  192SAPI   C3922290   6.249   0.683   3.660  0.6348 -0.6517 -0.5059
  192SAPI   H9X22291   6.272   0.628   3.754  1.4219 -2.6006 -1.7862
  192SAPI   H9Y22292   6.153   0.643   3.622 -0.1297  1.5241 -1.0113
  192SAPI  C31022293   6.208   0.831   3.702 -0.5041 -1.0297  0.2808
  192SAPI  H10X22294   6.100   0.836   3.725 -0.4439 -0.2194  0.4232
  192SAPI  H10Y22295   6.227   0.908   3.623  3.4527 -0.3050  1.6959
  192SAPI  C31122296   6.278   0.879   3.837  0.2768  0.1291  0.7457
  192SAPI  H11X22297   6.249   0.815   3.923 -2.8716 -0.5010 -0.6239
  192SAPI  H11Y22298   6.238   0.979   3.863 -1.1532 -0.0042 -0.7540
  192SAPI  C31222299   6.427   0.894   3.822 -0.5464 -0.7057  0.5843
  192SAPI  H12X22300   6.441   0.985   3.760  0.6048 -0.9738  0.4236
  192SAPI  H12Y22301   6.488   0.808   3.787  0.6789 -0.5096  2.1347
  192SAPI  C31322302   6.496   0.928   3.954 -0.0430 -0.5900 -0.3751
  192SAPI  H13X22303   6.469   1.029   3.989 -0.4857 -0.9740  0.4074
  192SAPI  H13Y22304   6.605   0.930   3.935  0.0059 -1.6367 -0.2601
  192SAPI  C31422305   6.463   0.826   4.066 -0.5735  0.1723  0.0191
  192SAPI  H14X22306   6.430   0.726   4.031 -1.1632  0.9942 -1.8776
  192SAPI  H14Y22307   6.373   0.863   4.120 -0.0005  0.1546  1.0139
  192SAPI  C31522308   6.572   0.813   4.174 -0.1132 -0.2412 -0.5445
  192SAPI  H15X22309   6.666   0.795   4.118 -0.3808  0.4530 -1.2275
  192SAPI  H15Y22310   6.560   0.729   4.247  0.9697  0.7771  0.8628
  192SAPI  C31622311   6.605   0.948   4.254 -0.4362 -0.0134 -0.6416
  192SAPI  H16X22312   6.526   0.972   4.328  0.6782 -1.2437  1.0523
  192SAPI  H16Y22313   6.615   1.028   4.178 -0.4810 -1.3529 -2.0951
  192SAPI  C31722314   6.735   0.928   4.338  0.2523 -0.3158  0.2566
  192SAPI  H17X22315   6.814   0.950   4.264  1.5806 -2.1713  1.0493
  192SAPI  H17Y22316   6.756   0.829   4.385  1.1218 -0.1757  0.1714
  192SAPI  C31822317   6.753   1.029   4.447 -0.6696 -0.1721 -0.1114
  192SAPI  H18X22318   6.852   1.026   4.497  0.0408  0.0222 -1.4584
  192SAPI  H18Y22319   6.670   1.024   4.521 -0.2514  0.2012  0.3905
  192SAPI  H18Z22320   6.747   1.128   4.398 -0.3336  0.2346  0.6587
  193SOD    SOD22321   1.234   2.442   0.563  0.3541  0.3215 -0.5564
  194SOD    SOD22322   4.658   5.658   7.567 -0.0555 -0.0221 -0.3365
  195SOD    SOD22323   5.093   4.028   1.351 -0.4082  0.0211  0.1975
  196SOD    SOD22324   4.322   6.334   7.200 -0.4357  0.0561  0.1982
  197SOD    SOD22325   2.280   6.506   6.703  0.0715 -0.3260 -0.2197
  198SOD    SOD22326   4.656   1.299   1.566  0.4375 -0.0896  0.6547
  199SOD    SOD22327   2.033   1.519   1.904 -0.2729  0.0011  0.1021
  200SOD    SOD22328   3.308   6.354   7.536 -0.1242  0.2406 -0.0138
  201SOD    SOD22329   6.726   0.824   1.185 -0.4809  0.1825 -0.4790
  202SOD    SOD22330   1.781   1.117   7.551 -0.0935  0.1201 -0.2892
  203SOD    SOD22331   0.718   4.389   7.462  0.2107 -0.3079 -0.1639
  204SOD    SOD22332   0.366   1.469   1.966 -0.1006  0.5120 -0.3648
  205SOD    SOD22333   6.704   3.400   1.088 -0.1695  0.5096 -0.4575
  206SOD    SOD22334   6.155   2.688   2.212 -0.4693 -0.0864  0.1319
  207SOD    SOD22335   0.332   3.374   6.502 -0.1438 -0.2447  0.1838
  208SOD    SOD22336   0.566   5.464   1.704 -0.3409 -0.3811 -0.3535
  209SOD    SOD22337   5.833   2.509   1.602 -0.4770  0.5293 -0.3402
  210SOD    SOD22338   3.490   4.313   7.596  0.6888  0.1196 -0.1963
  211SOD    SOD22339   3.711   0.152   8.920 -0.0116  0.2355  0.7041
  212SOD    SOD22340   5.061   6.632   7.091 -0.2725  0.0178  0.3698
  213SOD    SOD22341   1.039   4.086   2.073 -0.1001  0.0954 -0.0939
  214SOD    SOD22342   4.688   5.753   1.389 -0.4591  0.3422 -0.6128
  215SOD    SOD22343   3.794   3.400   7.165  0.0420  0.3693 -0.0699
  216SOD    SOD22344   3.809   0.866   1.652  0.0725 -0.0920  0.1487
  217SOD    SOD22345   2.118   5.005   6.787 -0.0182 -0.0971 -0.2760
  218SOD    SOD22346   0.905   2.765   8.151 -0.2005 -0.3774 -0.2896
  219SOD    SOD22347   3.937   3.735   1.602 -0.9493 -0.2195  0.7301
  220SOD    SOD22348   6.663   5.857   1.937 -0.4188 -0.2073  0.3435
  221SOD    SOD22349   5.178   1.427   7.071 -0.0464  0.4930  0.1076
  222SOD    SOD22350   6.455   6.579   8.638 -0.2566  0.2175 -0.4294
  223SOD    SOD22351   1.623   0.522   0.424 -0.0574  0.3687 -0.3191
  224SOD    SOD22352   2.805   3.564   7.445  0.0690  0.1206 -0.4190
  225SOD    SOD22353   3.642   0.909   0.325  0.0824  0.1506  0.1155
  226SOD    SOD22354   0.843   0.182   2.281 -0.0576  0.3789 -0.3425
  227SOD    SOD22355   4.325   6.345   0.393 -0.3342 -0.0588  0.4667
  228SOD    SOD22356   6.030   5.728   1.878  0.4683  0.1258  0.0326
  229SOD    SOD22357   3.759   5.794   8.435  0.6223  0.5349 -0.5256
  230CLA    CLA22358   6.283   2.296   8.685  0.4480 -0.3811  0.3242
  231CLA    CLA22359   4.255   5.435   7.972 -0.0160  0.1385 -0.2365
  232CLA    CLA22360   1.312   2.964   0.565 -0.0420  0.1279  0.2690
  233CLA    CLA22361   6.342   6.686   1.193 -0.2270  0.2340 -0.4372
  234CLA    CLA22362   5.140   4.342   9.015 -0.2434 -0.2050  0.2539
  235CLA    CLA22363   5.950   6.342   0.210  0.0625 -0.3021 -0.1430
  236CLA    CLA22364   0.551   0.743   0.609  0.0187 -0.0941 -0.3197
  237CLA    CLA22365   0.420   6.146   8.081  0.0632  0.5393  0.4299
  238CLA    CLA22366   0.670   0.228   0.622  0.3113 -0.1669  0.3002
  239CLA    CLA22367   3.973   6.190   8.577  0.3389  0.2039  0.2238
  240CLA    CLA22368   2.475   1.231   1.948 -0.2510  0.1454  0.5027
  241CLA    CLA22369   4.206   4.302   0.202 -0.4326 -0.3568  0.1279
  242CLA    CLA22370   6.341   1.546   0.370  0.2165 -0.0518 -0.1499
  243CLA    CLA22371   2.999   1.663   0.891 -0.3246  0.0677  0.0383
  244CLA    CLA22372   6.547   3.117   8.912  0.1386  0.1683  0.0398
  245CLA    CLA22373   3.167   5.550   7.762  0.0313 -0.0102  0.1318
  246CLA    CLA22374   5.015   0.301   8.198 -0.0641  0.4460  0.0591
  247TIP3   OH222375   1.277   4.452   7.816  0.0063 -0.3052 -0.5835
  247TIP3    H122376   1.300   4.406   7.898  1.7289  0.8844 -0.3466
  247TIP3    H222377   1.351   4.511   7.801 -0.3250 -0.4141 -2.9622
  248TIP3   OH222378   0.064   0.817   7.325  0.2812  0.0639 -0.0662
  248TIP3    H122379   0.049   0.890   7.265  0.1346 -0.0732 -0.1984
  248TIP3    H222380   0.159   0.816   7.339  0.4224 -0.4509 -0.9948
  249TIP3   OH222381   2.603   0.605   1.844 -0.0535  0.1713  1.1535
  249TIP3    H122382   2.575   0.546   1.774 -0.9310  0.1749  1.4855
  249TIP3    H222383   2.667   0.555   1.894 -0.2367 -0.2335  0.9865
  250TIP3   OH222384   3.919   5.110   1.703  0.2192 -0.1433  0.1298
  250TIP3    H122385   3.976   5.076   1.772  2.1965 -0.3645 -1.5124
  250TIP3    H222386   3.978   5.132   1.632 -1.5611  1.8203 -0.8455
  251TIP3   OH222387   5.816   5.035   0.263  0.1208  0.3104 -0.2123
  251TIP3    H122388   5.729   5.075   0.262 -0.1273 -0.2215 -1.2587
  251TIP3    H222389   5.799   4.943   0.285  0.5011  0.3745  0.3602
  252TIP3   OH222390   6.587   1.224   6.684 -0.4535 -0.2719  0.0617
  252TIP3    H122391   6.657   1.263   6.631 -0.3690 -0.0090  0.3637
  252TIP3    H222392   6.604   1.130   6.681 -0.4592 -0.2593 -0.3932
  253TIP3   OH222393   3.223   1.840   1.831  0.0609  0.1552  0.4846
  253TIP3    H122394   3.252   1.822   1.920 -1.2848  0.9331  1.1233
  253TIP3    H222395   3.130   1.819   1.832  0.5191 -2.2868 -1.4815
  254TIP3   OH222396   2.294   6.334   0.855  0.0007 -0.2994  0.4772
  254TIP3    H122397   2.361   6.383   0.901  1.8951 -1.2641 -1.0762
  254TIP3    H222398   2.235   6.401   0.819  2.8089  1.0696 -2.0719
  255TIP3   OH222399   1.598   4.116   7.360 -0.3433 -0.4989  0.5137
  255TIP3    H122400   1.691   4.138   7.370 -0.5442 -0.1553  1.8852
  255TIP3    H222401   1.558   4.195   7.327  0.0267 -1.0315 -1.3006
  256TIP3   OH222402   3.648   0.464   7.742  0.5385  0.0158 -0.0436
  256TIP3    H122403   3.664   0.389   7.685  2.6520  1.8560 -2.0924
  256TIP3    H222404   3.571   0.507   7.704  0.6802  0.1014 -0.2343
  257TIP3   OH222405   2.824   6.455   6.980  0.1783 -0.0456  0.5933
  257TIP3    H122406   2.778   6.530   6.941  0.6053 -0.3890 -0.6007
  257TIP3    H222407   2.785   6.446   7.067 -0.9608  0.5924  0.1673
  258TIP3   OH222408   5.273   4.239   8.632 -0.2177  0.4634  0.0468
  258TIP3    H122409   5.206   4.173   8.613 -1.4459  1.2696  1.2846
  258TIP3    H222410   5.356   4.196   8.612 -1.0700 -0.7606 -1.0437
  259TIP3   OH222411   6.474   5.473   7.263 -0.2366  0.8254  0.8634
  259TIP3    H122412   6.443   5.533   7.195  1.1113  2.6481  1.7503
  259TIP3    H222413   6.402   5.411   7.276 -0.9468  1.0924 -1.4173
  260TIP3   OH222414   5.794   0.795   7.752 -0.1171 -0.0804  0.7257
  260TIP3    H122415   5.855   0.760   7.816  0.1429  0.2576  0.6682
  260TIP3    H222416   5.778   0.885   7.781 -2.7596 -0.9568  2.3304
  261TIP3   OH222417   0.144   3.517   1.074  0.6012 -0.4161  0.1831
  261TIP3    H122418   0.195   3.518   0.992 -0.1671  0.3184 -0.3115
  261TIP3    H222419   0.182   3.588   1.125 -1.3263  1.7184 -1.1381
  262TIP3   OH222420   2.298   0.878   1.162  0.2064  0.5995  0.3041
  262TIP3    H122421   2.344   0.928   1.229 -1.9541  1.5313  1.1701
  262TIP3    H222422   2.332   0.789   1.172 -1.0562  0.3237  3.7391
  263TIP3   OH222423   1.705   2.633   8.508  0.3723 -0.7014  0.5057
  263TIP3    H122424   1.631   2.691   8.492  1.7117  0.6488 -1.2265
  263TIP3    H222425   1.734   2.653   8.597 -0.5773 -0.3617  0.7381
  264TIP3   OH222426   5.578   5.769   7.684  1.1282  0.3108 -0.3557
  264TIP3    H122427   5.654   5.770   7.743  1.9998 -1.1660 -1.3846
  264TIP3    H222428   5.549   5.677   7.686  0.3907  0.5173 -1.2554
  265TIP3   OH222429   0.003   3.062   8.683  0.0003  0.4120 -0.3766
  265TIP3    H122430  -0.087   3.066   8.717 -0.1676 -2.9169 -0.0952
  265TIP3    H222431   0.057   3.090   8.756 -0.6992 -0.6098  0.5703
  266TIP3   OH222432   4.394   1.336   7.591  0.3915  0.5118  0.4288
  266TIP3    H122433   4.393   1.294   7.677 -0.6515 -0.0310  0.1709
  266TIP3    H222434   4.328   1.405   7.598 -1.5261 -1.0987 -0.6493
  267TIP3   OH222435   3.143   3.318   1.527  0.3823 -0.2357  0.0884
  267TIP3    H122436   3.217   3.372   1.553 -0.1492  0.4226  0.2639
  267TIP3    H222437   3.128   3.341   1.435 -1.0760  1.4206  0.6850
  268TIP3   OH222438   2.379   4.252   0.727 -0.2131 -0.1802  0.2510
  268TIP3    H122439   2.390   4.247   0.632 -1.7555  1.8777 -0.1266
  268TIP3    H222440   2.290   4.223   0.743 -0.0226 -0.3615  1.0566
  269TIP3   OH222441   5.069   2.690   0.076  0.6452  0.6745 -0.0770
  269TIP3    H122442   5.142   2.635   0.101  0.7737  1.0916  0.4961
  269TIP3    H222443   5.033   2.721   0.159 -0.9394 -0.4870 -0.2755
  270TIP3   OH222444   0.774   4.358   8.266 -0.7515 -0.5975 -0.5183
  270TIP3    H122445   0.787   4.277   8.216 -1.0722 -0.3240 -1.0470
  270TIP3    H222446   0.756   4.327   8.355 -1.7387 -1.1542 -0.8911
  271TIP3   OH222447   4.596   2.717   7.742 -0.3414  0.6665 -0.4497
  271TIP3    H122448   4.521   2.758   7.784 -1.0571 -1.0111 -0.0061
  271TIP3    H222449   4.592   2.747   7.651 -1.5128  0.6699 -0.4134
  272TIP3   OH222450   6.558   6.485   7.736 -0.5271  0.1443  0.1642
  272TIP3    H122451   6.648   6.486   7.704 -0.1392  0.0889  1.2371
  272TIP3    H222452   6.513   6.548   7.680 -0.2367 -1.0670 -1.5090
  273TIP3   OH222453   1.002   3.375   8.892 -0.1825 -0.5457 -0.0863
  273TIP3    H122454   1.043   3.420   8.818 -0.6712 -1.9087 -1.2281
  273TIP3    H222455   0.970   3.446   8.949  1.9608  0.5431 -0.1454
  274TIP3   OH222456   2.588   5.241   1.227  0.7926 -0.0823 -0.0508
  274TIP3    H122457   2.666   5.214   1.178  0.2348 -1.2196 -0.3473
  274TIP3    H222458   2.622   5.268   1.313  1.6844  1.1160 -0.7460
  275TIP3   OH222459   4.312   0.513   7.317 -0.4054 -0.4052 -0.0232
  275TIP3    H122460   4.239   0.523   7.255 -0.5753 -0.7996  0.1090
  275TIP3    H222461   4.386   0.487   7.262 -0.7943 -1.7362  0.0380
  276TIP3   OH222462   5.688   0.527   8.353  0.4280 -0.4018  1.0283
  276TIP3    H122463   5.659   0.437   8.337 -0.1372 -0.1558  0.6359
  276TIP3    H222464   5.757   0.542   8.288  1.1058 -0.8312  1.6499
  277TIP3   OH222465   0.387   4.891   8.830 -0.3182  0.4172  0.0520
  277TIP3    H122466   0.294   4.892   8.807 -0.4118 -0.9953  0.2452
  277TIP3    H222467   0.424   4.823   8.774  0.5208  0.6759  0.2807
  278TIP3   OH222468   6.520   0.127   8.205 -0.0485  0.2280 -0.1505
  278TIP3    H122469   6.510   0.056   8.142 -0.4695  0.2329 -0.0883
  278TIP3    H222470   6.614   0.145   8.205  0.1766 -0.8437  0.4000
  279TIP3   OH222471   3.378   5.153   7.980  0.1790  0.4766  0.8179
  279TIP3    H122472   3.299   5.165   7.928 -0.1719 -1.6515  0.7462
  279TIP3    H222473   3.361   5.074   8.031  2.0945  0.2159  1.1315
  280TIP3   OH222474   3.972   4.209   8.057 -0.4342 -0.1774  0.2699
  280TIP3    H122475   4.023   4.260   7.994 -0.0321  0.8210  1.3583
  280TIP3    H222476   3.881   4.223   8.032 -0.3392  1.2598  0.6663
  281TIP3   OH222477   1.810   6.221   6.893  0.2179 -0.3067 -0.1318
  281TIP3    H122478   1.729   6.250   6.850 -0.0253  0.3402  0.7570
  281TIP3    H222479   1.806   6.258   6.981  0.2291 -2.4170  0.8282
  282TIP3   OH222480   0.510   4.279   8.371 -0.4561  0.3189  0.1664
  282TIP3    H122481   0.594   4.241   8.396 -0.8596  0.3460  1.6657
  282TIP3    H222482   0.482   4.227   8.295  0.8317  0.2338 -0.2833
  283TIP3   OH222483   5.459   5.801   1.520 -0.0933 -0.3860 -0.2460
  283TIP3    H122484   5.553   5.799   1.504  0.1654 -0.6369  1.1561
  283TIP3    H222485   5.432   5.890   1.494  0.4581 -0.4196 -0.9628
  284TIP3   OH222486   1.542   0.807   7.268  0.4407  0.3090 -0.4051
  284TIP3    H122487   1.471   0.751   7.300  0.5603 -0.9480 -2.1908
  284TIP3    H222488   1.543   0.792   7.174  3.9038 -0.7211 -0.3290
  285TIP3   OH222489   3.090   2.423   0.574  0.2120 -0.5539  0.8650
  285TIP3    H122490   3.041   2.353   0.532  0.4883  0.0108 -0.4456
  285TIP3    H222491   3.177   2.420   0.533  0.7784 -0.5416  2.0295
  286TIP3   OH222492   6.082   6.496   7.698  0.3570  0.2995 -0.4897
  286TIP3    H122493   6.158   6.472   7.752 -0.4363 -1.0841  0.0530
  286TIP3    H222494   6.047   6.412   7.668  0.4646  1.0046 -2.7672
  287TIP3   OH222495   1.750   5.876   6.753  0.1013 -0.8249 -0.2884
  287TIP3    H122496   1.781   5.924   6.676  0.0963  0.3919  0.4503
  287TIP3    H222497   1.684   5.816   6.719  1.2616 -1.4892 -1.4755
  288TIP3   OH222498   1.904   1.851   1.649  0.1996  0.0718  0.0190
  288TIP3    H122499   1.942   1.830   1.563 -0.2447  0.7837 -0.3621
  288TIP3    H222500   1.965   1.913   1.688  0.5294 -0.4437  0.3265
  289TIP3   OH222501   2.952   5.820   8.176  0.4650 -0.2045  0.7224
  289TIP3    H122502   2.976   5.839   8.085 -3.3969  0.8126 -0.2682
  289TIP3    H222503   2.945   5.725   8.180  0.3269 -0.2407 -0.1480
  290TIP3   OH222504   6.709   3.902   7.017 -0.1588  0.1693 -0.4420
  290TIP3    H122505   6.769   3.920   6.945  0.9077  3.8472  1.0950
  290TIP3    H222506   6.665   3.986   7.033 -2.7863 -1.3652  1.0991
  291TIP3   OH222507   6.412   0.716   0.525  0.1557 -0.3675  0.0853
  291TIP3    H122508   6.394   0.640   0.470  1.1723 -0.7247  0.2212
  291TIP3    H222509   6.502   0.742   0.503 -0.9603  2.3603 -1.7738
  292TIP3   OH222510   1.463   0.328   0.359 -0.1315  0.1625 -0.1843
  292TIP3    H122511   1.509   0.332   0.276  1.1394 -0.0796  0.4828
  292TIP3    H222512   1.467   0.235   0.384  3.7636  0.7711  2.3724
  293TIP3   OH222513   4.611   2.434   0.692  0.2931 -0.3965  0.3788
  293TIP3    H122514   4.551   2.509   0.688  2.9789  2.0563  1.8349
  293TIP3    H222515   4.663   2.442   0.612  2.2928  1.0397  1.7016
  294TIP3   OH222516   0.073   4.496   0.364  0.8455  0.3531 -0.2640
  294TIP3    H122517   0.012   4.521   0.434  0.1630  0.6963 -0.9643
  294TIP3    H222518   0.039   4.413   0.332  0.4494  0.7789 -0.9759
  295TIP3   OH222519   0.277   1.760   0.095 -0.0179  0.0137  0.2003
  295TIP3    H122520   0.316   1.673   0.108 -0.3860 -0.1230  0.4015
  295TIP3    H222521   0.291   1.805   0.178  1.2197  0.5729 -0.2818
  296TIP3   OH222522   2.097   2.000   1.030  0.5917  0.1175 -0.2477
  296TIP3    H122523   2.080   2.093   1.045  1.3189  0.3369 -0.7685
  296TIP3    H222524   2.021   1.956   1.068 -0.0249  0.9545 -0.4788
  297TIP3   OH222525   1.879   3.931   8.255 -0.1174 -0.1025 -0.1917
  297TIP3    H122526   1.926   3.988   8.194 -0.7276 -0.0554 -0.6386
  297TIP3    H222527   1.855   3.988   8.328  2.1179 -0.5389  0.9675
  298TIP3   OH222528   4.582   6.630   9.017 -0.6187  0.0734  0.5435
  298TIP3    H122529   4.594   6.724   9.007 -0.5776  0.4412  3.3465
  298TIP3    H222530   4.504   6.621   9.072 -1.2209 -1.6044 -0.4844
  299TIP3   OH222531   6.416   4.949   2.552 -0.0888  0.0339 -0.1321
  299TIP3    H122532   6.424   4.884   2.621 -3.0468  0.3860  0.6840
  299TIP3    H222533   6.452   5.029   2.589 -0.2342 -0.1609  0.4360
  300TIP3   OH222534   2.916   4.865   8.195 -0.0959  0.2004  0.3637
  300TIP3    H122535   2.944   4.956   8.203  0.7769  0.0406 -0.6290
  300TIP3    H222536   2.922   4.847   8.101 -1.3085 -0.5612  0.4157
  301TIP3   OH222537   1.358   6.050   6.529  0.3815  0.0682 -0.0055
  301TIP3    H122538   1.314   6.113   6.586 -0.8682  1.1494 -2.0195
  301TIP3    H222539   1.318   5.966   6.550 -1.0618  0.6768 -0.1891
  302TIP3   OH222540   0.889   1.711   0.204 -0.0893  0.3270  0.1110
  302TIP3    H122541   0.848   1.760   0.275 -1.3247 -0.1852 -0.2203
  302TIP3    H222542   0.819   1.698   0.140  0.9163  0.5451 -1.0951
  303TIP3   OH222543   0.830   2.718   2.031 -0.7780 -0.4551 -0.5695
  303TIP3    H122544   0.889   2.793   2.037 -1.3243 -0.1013  0.4733
  303TIP3    H222545   0.843   2.670   2.112  0.2193 -2.0175 -1.5848
  304TIP3   OH222546   4.303   0.334   0.964  0.6443  0.0342  0.8995
  304TIP3    H122547   4.370   0.329   1.031  0.7168  1.9128  1.0257
  304TIP3    H222548   4.292   0.428   0.948  1.6548 -0.2988 -2.7476
  305TIP3   OH222549   1.243   5.820   1.179 -0.5552 -0.5055  0.1236
  305TIP3    H122550   1.325   5.787   1.141 -0.4917 -0.7099  0.4362
  305TIP3    H222551   1.213   5.749   1.236  0.2336  0.4440  1.7883
  306TIP3   OH222552   1.274   5.370   2.478 -0.5459 -0.1554 -0.1015
  306TIP3    H122553   1.364   5.370   2.512 -0.1365  1.1152 -1.1047
  306TIP3    H222554   1.227   5.310   2.536  1.4746 -2.7646 -0.9808
  307TIP3   OH222555   6.624   6.735   8.584 -0.5875 -0.5798  0.0645
  307TIP3    H122556   6.604   6.827   8.598 -0.1709 -0.6295  1.0681
  307TIP3    H222557   6.686   6.735   8.511 -2.9128 -0.3276 -2.0359
  308TIP3   OH222558   2.200   5.674   8.030  0.2676 -0.1720 -0.2290
  308TIP3    H122559   2.248   5.607   8.079 -0.3997 -0.3589  0.1834
  308TIP3    H222560   2.259   5.699   7.959  0.0773 -2.0649 -1.1113
  309TIP3   OH222561   3.688   0.375   0.429 -0.3350  0.2692  0.0569
  309TIP3    H122562   3.740   0.296   0.440  0.7400  0.9745  0.2387
  309TIP3    H222563   3.637   0.360   0.349  1.1774  0.0712 -0.9163
  310TIP3   OH222564   5.736   0.410   2.347 -0.2662 -0.0901 -0.5542
  310TIP3    H122565   5.691   0.455   2.418  2.9885 -0.0008  1.6272
  310TIP3    H222566   5.817   0.458   2.335  2.2648 -3.7628  0.2348
  311TIP3   OH222567   6.177   2.019   0.344  0.6862  0.3445 -0.5870
  311TIP3    H122568   6.141   1.935   0.371  0.1859  0.9777  0.8354
  311TIP3    H222569   6.237   1.998   0.273  1.6665 -1.3985  0.6790
  312TIP3   OH222570   5.131   2.924   0.967  0.0937  0.1691  0.3023
  312TIP3    H122571   5.082   2.981   0.908 -0.7218 -0.6640  0.1537
  312TIP3    H222572   5.124   2.837   0.928  2.3450  0.1149 -0.1445
  313TIP3   OH222573   0.482   5.484   8.850  0.1927 -0.2508 -0.1546
  313TIP3    H122574   0.421   5.492   8.923 -0.5629  1.4047 -0.9231
  313TIP3    H222575   0.553   5.430   8.884  0.2059  1.0299  2.0354
  314TIP3   OH222576   4.795   3.692   1.062 -0.0780  0.1046 -0.1359
  314TIP3    H122577   4.884   3.658   1.071 -0.5052 -0.7505  1.3813
  314TIP3    H222578   4.742   3.614   1.045 -0.9682  0.0064  2.5663
  315TIP3   OH222579   4.277   2.840   1.182 -0.3598  0.6135  0.0259
  315TIP3    H122580   4.296   2.747   1.190 -1.4150  0.4264  0.4792
  315TIP3    H222581   4.322   2.867   1.102  1.3313  0.0926  0.7458
  316TIP3   OH222582   2.115   0.743   8.865  0.1716 -0.1601  0.0304
  316TIP3    H122583   2.067   0.781   8.791  0.5305  0.4335  0.0944
  316TIP3    H222584   2.046   0.706   8.921 -0.1946  0.4235 -0.0239
  317TIP3   OH222585   1.324   5.819   7.615  0.3553  0.2653  0.2686
  317TIP3    H122586   1.404   5.872   7.613 -0.2873  1.2904 -1.9675
  317TIP3    H222587   1.323   5.775   7.530 -1.3557  0.1383  0.3338
  318TIP3   OH222588   4.923   4.443   1.129  0.3360  0.3708 -0.3707
  318TIP3    H122589   4.852   4.505   1.115  1.8902  1.9265 -1.9165
  318TIP3    H222590   4.909   4.375   1.064 -0.6333 -0.2614  0.4586
  319TIP3   OH222591   5.938   2.325   0.975 -0.0861  0.1624 -0.1329
  319TIP3    H122592   5.869   2.362   1.029  1.4670  2.0695  0.6877
  319TIP3    H222593   5.958   2.241   1.016 -0.9844  0.1998  0.4061
  320TIP3   OH222594   2.208   5.360   7.861  0.4354  0.1653 -0.3762
  320TIP3    H122595   2.143   5.429   7.852 -1.1316 -1.2643 -0.4661
  320TIP3    H222596   2.278   5.385   7.801 -0.7921  0.8895 -1.5455
  321TIP3   OH222597   1.876   2.836   7.968  0.8417  0.0241 -0.5851
  321TIP3    H122598   1.970   2.828   7.987  1.8779  1.3864 -4.3179
  321TIP3    H222599   1.847   2.745   7.957  1.9031 -0.3828 -0.2082
  322TIP3   OH222600   5.991   3.578   7.342 -0.0114 -0.2085  0.7128
  322TIP3    H122601   6.010   3.487   7.321  0.9249  0.1846 -0.2255
  322TIP3    H222602   5.901   3.592   7.312  0.3640 -0.4146 -0.5716
  323TIP3   OH222603   4.726   4.749   2.587 -0.0198 -0.2402  0.1337
  323TIP3    H122604   4.687   4.669   2.552  0.4887  0.3671 -1.9926
  323TIP3    H222605   4.690   4.757   2.675 -3.5941 -0.4474 -1.1358
  324TIP3   OH222606   6.523   5.411   8.699 -0.3550  0.1478  0.5314
  324TIP3    H122607   6.501   5.321   8.673  1.7375 -0.3488  0.3456
  324TIP3    H222608   6.583   5.401   8.773  0.5105  1.3591  0.0296
  325TIP3   OH222609   2.482   3.510   8.188  0.0666 -0.5459 -0.1879
  325TIP3    H122610   2.415   3.541   8.128 -0.2016 -0.9706 -0.1082
  325TIP3    H222611   2.535   3.588   8.206 -0.7599 -0.0565  0.2202
  326TIP3   OH222612   2.744   4.510   8.004  0.2173  0.3793 -0.0735
  326TIP3    H122613   2.780   4.567   8.072  0.5638  1.6097 -1.2368
  326TIP3    H222614   2.804   4.520   7.930 -0.8141  0.0544 -0.9830
  327TIP3   OH222615   5.722   4.685   0.085 -0.8878 -0.0687 -0.2388
  327TIP3    H122616   5.702   4.740   0.160 -0.8065  0.8926 -0.9119
  327TIP3    H222617   5.637   4.667   0.044 -0.7682  0.8833 -0.9276
  328TIP3   OH222618   0.750   3.458   1.959  0.8625  0.4221  0.6620
  328TIP3    H122619   0.822   3.436   1.899  0.0789 -1.9938  0.5087
  328TIP3    H222620   0.761   3.398   2.032 -0.2556  0.9433  1.2769
  329TIP3   OH222621   4.788   4.821   7.223 -0.2577 -0.1328 -0.1660
  329TIP3    H122622   4.876   4.849   7.197  0.3506 -0.7742  1.1426
  329TIP3    H222623   4.786   4.834   7.318 -1.1840 -1.1759 -0.0301
  330TIP3   OH222624   0.146   4.858   8.435  0.0781 -0.0224 -0.7662
  330TIP3    H122625   0.081   4.925   8.413  0.2135  0.4747  0.2840
  330TIP3    H222626   0.154   4.806   8.355  1.8959  2.7562 -2.5701
  331TIP3   OH222627   2.881   5.603   0.815  0.1044  0.5550  0.1409
  331TIP3    H122628   2.908   5.542   0.883 -0.5644 -0.6388 -0.6328
  331TIP3    H222629   2.961   5.620   0.765  0.0821 -0.6432 -0.3468
  332TIP3   OH222630   0.118   6.632   8.826 -0.4496 -0.5149 -0.2687
  332TIP3    H122631   0.082   6.568   8.765 -1.4225 -1.4642  1.2152
  332TIP3    H222632   0.044   6.656   8.882  0.8356 -1.3562  1.9206
  333TIP3   OH222633   3.699   1.281   1.500 -1.0178  0.2699  0.2007
  333TIP3    H122634   3.610   1.253   1.480 -0.2801 -0.7919 -1.8537
  333TIP3    H222635   3.706   1.369   1.463 -1.0891  0.1861 -0.0108
  334TIP3   OH222636   6.255   3.210   8.790  0.8285  0.3557 -0.0498
  334TIP3    H122637   6.290   3.215   8.701 -0.7161 -1.8516 -0.8587
  334TIP3    H222638   6.332   3.199   8.845  1.6712 -1.5792 -1.4945
  335TIP3   OH222639   1.219   3.260   1.332 -0.2511  0.0990 -0.0840
  335TIP3    H122640   1.150   3.306   1.284 -1.6636 -1.4808  0.3291
  335TIP3    H222641   1.298   3.274   1.281 -1.1703  0.7242 -1.3787
  336TIP3   OH222642   3.100   6.530   7.005  0.4194  0.0867 -0.0574
  336TIP3    H122643   3.096   6.619   6.968 -0.2782  0.1470  0.1462
  336TIP3    H222644   3.013   6.494   6.988  1.0723 -1.0130 -1.2454
  337TIP3   OH222645   3.843   0.688   8.533 -0.3900  0.4401  0.0698
  337TIP3    H122646   3.783   0.624   8.571  0.9045 -0.0571  1.3652
  337TIP3    H222647   3.888   0.641   8.463 -0.0920  0.2196  0.4121
  338TIP3   OH222648   0.331   5.511   0.033  0.5024 -0.0479  0.6056
  338TIP3    H122649   0.275   5.586   0.055  2.2791  1.8145 -0.8422
  338TIP3    H222650   0.368   5.484   0.117  0.3270  1.1327  1.0906
  339TIP3   OH222651   5.998   6.765   8.732 -0.2159  0.3488 -0.0055
  339TIP3    H122652   6.014   6.723   8.647 -0.0744  0.0843  0.1513
  339TIP3    H222653   5.966   6.853   8.709  1.1868  0.8086 -0.3378
  340TIP3   OH222654   6.023   4.281   0.341 -0.0648  0.6502  0.6414
  340TIP3    H122655   6.117   4.270   0.326 -0.1319  1.3697 -0.4099
  340TIP3    H222656   6.002   4.365   0.302 -1.2295  0.3185  0.5026
  341TIP3   OH222657   3.374   0.997   2.483  0.0117 -0.2005  0.1880
  341TIP3    H122658   3.354   0.985   2.575  1.2842 -1.2749  0.3430
  341TIP3    H222659   3.331   0.924   2.438 -2.2888  1.3576 -0.3916
  342TIP3   OH222660   3.511   2.181   8.331 -0.3686 -0.5103 -0.0601
  342TIP3    H122661   3.438   2.207   8.275  1.0449  0.0918 -1.7293
  342TIP3    H222662   3.527   2.257   8.386  0.1147  0.0413 -0.9426
  343TIP3   OH222663   3.339   5.806   1.842 -0.0700 -0.4753  0.0158
  343TIP3    H122664   3.386   5.867   1.898  1.3941 -1.3859 -0.1694
  343TIP3    H222665   3.344   5.845   1.754  1.5412 -1.1781 -0.2447
  344TIP3   OH222666   1.775   4.412   2.396  0.1380  0.0553 -0.1139
  344TIP3    H122667   1.710   4.468   2.439 -0.0123  1.5667 -2.1841
  344TIP3    H222668   1.848   4.471   2.374  1.3132 -1.1815  0.2786
  345TIP3   OH222669   3.896   2.743   2.078 -0.4654 -0.2385 -0.0644
  345TIP3    H122670   3.977   2.761   2.031  0.2942 -1.8293  0.5407
  345TIP3    H222671   3.921   2.745   2.171 -1.2089 -0.3305  0.1430
  346TIP3   OH222672   6.414   1.282   8.897 -0.3661 -0.0155  0.2625
  346TIP3    H122673   6.331   1.322   8.924 -0.0870 -0.3116  1.6536
  346TIP3    H222674   6.388   1.209   8.841 -0.9481  1.0258 -0.8868
  347TIP3   OH222675   3.495   0.463   0.654 -0.0557  0.2609  0.2727
  347TIP3    H122676   3.528   0.440   0.567 -0.5304 -1.4993  0.5057
  347TIP3    H222677   3.406   0.428   0.655 -0.9368  2.3653  0.6597
  348TIP3   OH222678   1.047   4.410   7.655  0.2012 -0.1526 -0.4729
  348TIP3    H122679   1.143   4.404   7.651  0.3185  1.1738 -0.0516
  348TIP3    H222680   1.027   4.419   7.748 -0.3197 -0.1874 -0.5789
  349TIP3   OH222681   6.188   2.729   1.411  0.1603  0.0902  0.1865
  349TIP3    H122682   6.190   2.730   1.507  0.6654  0.6137  0.1712
  349TIP3    H222683   6.195   2.636   1.388  0.1991 -0.0233  0.6502
  350TIP3   OH222684   6.481   2.414   1.935  0.1579 -0.4933 -0.3543
  350TIP3    H122685   6.541   2.364   1.879 -2.4697 -2.9808 -1.1565
  350TIP3    H222686   6.502   2.386   2.024  1.7501  0.5505 -0.3494
  351TIP3   OH222687   4.960   4.951   1.787 -0.1254  0.2265  0.3371
  351TIP3    H122688   5.024   5.019   1.806  1.6042 -0.9340 -1.0851
  351TIP3    H222689   4.955   4.899   1.867 -1.0804  1.6608  1.2567
  352TIP3   OH222690   6.292   2.734   7.954 -0.0344 -0.2241  0.1346
  352TIP3    H122691   6.363   2.798   7.955 -0.5580  0.3546  1.0006
  352TIP3    H222692   6.216   2.783   7.924  0.1291 -1.0926 -1.8791
  353TIP3   OH222693   2.716   6.690   0.082 -0.3760  0.1924 -0.2688
  353TIP3    H122694   2.673   6.628   0.140  2.0171  0.2980  1.8184
  353TIP3    H222695   2.705   6.654  -0.006  0.2025 -2.7518  0.7689
  354TIP3   OH222696   6.032   1.270   1.643  0.0239  0.0243 -0.0738
  354TIP3    H122697   6.094   1.206   1.608  0.3318 -0.0560  0.6020
  354TIP3    H222698   5.958   1.216   1.672 -0.1609  0.0749 -0.4508
  355TIP3   OH222699   4.812   2.075   8.060  0.3838 -0.7580  0.1983
  355TIP3    H122700   4.821   1.988   8.099  0.7452 -0.0751  1.7133
  355TIP3    H222701   4.835   2.135   8.131 -0.4675  0.5973 -0.6389
  356TIP3   OH222702   1.131   1.422   1.011  0.6192  0.6201  0.1860
  356TIP3    H122703   1.129   1.422   0.915 -0.3995  2.0660  0.1805
  356TIP3    H222704   1.059   1.364   1.036  0.7401  0.4230  0.0801
  357TIP3   OH222705   2.796   5.892   0.732  0.2691 -0.4237 -0.0567
  357TIP3    H122706   2.832   5.803   0.744 -0.8008 -0.8107  0.4215
  357TIP3    H222707   2.805   5.909   0.639 -1.7551 -2.0632 -0.6229
  358TIP3   OH222708   5.233   5.339   0.065  0.1347  0.5019 -0.0368
  358TIP3    H122709   5.148   5.383   0.059 -0.3525  0.1216  2.5457
  358TIP3    H222710   5.211   5.248   0.084  1.1065  0.3618  0.4620
  359TIP3   OH222711   2.859   4.950   7.539 -0.9948 -0.4428  0.9663
  359TIP3    H122712   2.769   4.952   7.571 -1.4958 -1.4897 -0.3214
  359TIP3    H222713   2.902   4.883   7.592 -1.0582 -0.2085  1.3214
  360TIP3   OH222714   5.150   5.410   0.345  0.3559 -0.1856 -0.4424
  360TIP3    H122715   5.241   5.417   0.316 -0.0291 -2.7006 -2.6605
  360TIP3    H222716   5.099   5.432   0.267 -0.9165 -0.2419  0.3501
  361TIP3   OH222717   1.105   1.559   8.585 -0.0081 -0.2166  0.4432
  361TIP3    H122718   1.063   1.634   8.542  1.1061 -0.5881 -1.4122
  361TIP3    H222719   1.171   1.530   8.522  3.5455  0.7483  3.3461
  362TIP3   OH222720   4.870   5.746   1.552  0.5826  0.8294 -0.0959
  362TIP3    H122721   4.888   5.695   1.631  1.3566  1.7464  0.3535
  362TIP3    H222722   4.957   5.764   1.515  0.2567  0.8553 -0.8741
  363TIP3   OH222723   5.183   0.409   0.309 -0.0592 -0.3142 -0.4022
  363TIP3    H122724   5.180   0.314   0.311 -2.6197 -0.3031 -0.5737
  363TIP3    H222725   5.250   0.429   0.243  0.2859 -1.9855 -0.6031
  364TIP3   OH222726   6.366   3.939   0.280  0.8219 -0.4083  0.1912
  364TIP3    H122727   6.349   3.926   0.374  0.9697 -2.1666  0.0184
  364TIP3    H222728   6.372   3.850   0.245  2.9821  0.1690 -1.0946
  365TIP3   OH222729   4.796   0.079   8.187 -0.2673 -0.6994  0.1224
  365TIP3    H122730   4.864   0.146   8.183 -0.7284 -0.2424 -2.7853
  365TIP3    H222731   4.829   0.009   8.131 -0.9057 -1.8117  1.1006
  366TIP3   OH222732   1.098   5.948   0.977 -0.3213 -0.0303  0.0664
  366TIP3    H122733   1.157   6.017   0.949 -0.7259 -0.0850 -0.9534
  366TIP3    H222734   1.136   5.915   1.059  0.5923  0.4928 -0.1399
  367TIP3   OH222735   2.719   3.414   0.091  0.8722 -0.1148  0.3523
  367TIP3    H122736   2.737   3.325   0.121  0.7547 -0.7872 -1.4101
  367TIP3    H222737   2.706   3.405  -0.004  0.0439  1.6573  0.2491
  368TIP3   OH222738   2.978   5.503   7.529  0.3485 -0.3596 -0.3817
  368TIP3    H122739   3.050   5.449   7.498  0.7211 -0.4756  0.6550
  368TIP3    H222740   3.000   5.523   7.620  0.3203  1.6765 -0.7621
  369TIP3   OH222741   0.946   0.370   0.564 -0.0571  0.5832 -0.1068
  369TIP3    H122742   0.877   0.308   0.586 -0.1662  0.4083 -0.9123
  369TIP3    H222743   1.018   0.316   0.531 -1.0947  0.9533 -3.3494
  370TIP3   OH222744   0.319   3.274   0.446  0.1620 -0.3313  0.4220
  370TIP3    H122745   0.341   3.319   0.364  0.9250 -1.9871 -0.3392
  370TIP3    H222746   0.404   3.259   0.488 -0.1462 -0.3550  1.0415
  371TIP3   OH222747   0.223   2.095   6.245  0.6046  0.2666  0.0180
  371TIP3    H122748   0.129   2.107   6.252  0.6410  0.4907  0.1223
  371TIP3    H222749   0.234   2.001   6.229  0.3063  0.4257 -1.2317
  372TIP3   OH222750   3.125   1.283   1.870 -0.1504  0.0593 -0.2479
  372TIP3    H122751   3.109   1.205   1.923 -1.8489  0.1513 -0.5776
  372TIP3    H222752   3.142   1.352   1.934 -1.3482 -0.0143  0.1847
  373TIP3   OH222753   3.569   3.193   8.609  0.5787  0.8638 -0.2372
  373TIP3    H122754   3.550   3.285   8.627  0.0985  0.9472 -1.0946
  373TIP3    H222755   3.602   3.193   8.519  0.5656  0.1987 -0.2443
  374TIP3   OH222756   3.833   4.784   0.939  0.4595 -0.1089  0.4269
  374TIP3    H122757   3.812   4.716   1.002  0.6355 -0.2751  0.3073
  374TIP3    H222758   3.920   4.761   0.906 -0.2569 -0.8992 -1.0305
  375TIP3   OH222759   3.008   5.214   7.207 -0.0269  0.0330  0.3273
  375TIP3    H122760   3.029   5.293   7.156  1.1098 -0.3794  0.1265
  375TIP3    H222761   3.090   5.190   7.249 -1.0370  0.6664  2.8433
  376TIP3   OH222762   2.767   0.679   2.274 -0.2356 -0.4107 -0.2778
  376TIP3    H122763   2.706   0.751   2.256 -0.1612 -0.1945  0.3283
  376TIP3    H222764   2.717   0.600   2.254 -1.1220 -0.2911  1.3449
  377TIP3   OH222765   3.774   3.367   1.956  0.0684  0.1202  0.3772
  377TIP3    H122766   3.716   3.376   2.031 -0.8435  1.1595 -0.4091
  377TIP3    H222767   3.794   3.273   1.951 -0.3603 -0.0371  1.5257
  378TIP3   OH222768   0.516   0.166   1.555 -0.2697 -0.2357 -0.3945
  378TIP3    H122769   0.502   0.202   1.643 -0.0849 -0.3816 -0.3045
  378TIP3    H222770   0.608   0.143   1.553 -0.1306  0.3344 -0.8410
  379TIP3   OH222771   3.691   3.368   7.366  0.4499  0.4028 -0.3562
  379TIP3    H122772   3.754   3.325   7.424  0.0366 -0.1040 -0.2760
  379TIP3    H222773   3.606   3.356   7.409  0.5643  3.5740  1.0474
  380TIP3   OH222774   6.085   2.479   2.166  0.6185  0.0218 -0.1015
  380TIP3    H122775   6.043   2.447   2.087  0.3321 -1.3336  0.5728
  380TIP3    H222776   6.154   2.416   2.184 -0.0014 -0.3097  1.3005
  381TIP3   OH222777   5.569   3.895   2.678  0.0659 -0.2998 -0.1714
  381TIP3    H122778   5.576   3.950   2.600  0.0701 -0.6982 -0.4554
  381TIP3    H222779   5.660   3.878   2.704  0.1186  1.9515  1.4575
  382TIP3   OH222780   6.548   3.426   0.497 -0.1139  0.0517  0.1391
  382TIP3    H122781   6.556   3.461   0.586 -0.3259 -1.0812  0.6201
  382TIP3    H222782   6.637   3.431   0.461  0.1638 -0.3247  0.7502
  383TIP3   OH222783   1.558   3.275   2.334  0.2528 -0.5990 -0.3308
  383TIP3    H122784   1.483   3.334   2.327  0.1810 -0.4472  1.2910
  383TIP3    H222785   1.520   3.192   2.362  0.5366 -0.9349 -0.9398
  384TIP3   OH222786   5.995   0.472   1.255  0.0363 -0.2024 -0.6245
  384TIP3    H122787   6.080   0.453   1.295  0.1169 -1.4984 -1.3591
  384TIP3    H222788   5.941   0.503   1.327  0.9933  0.1803 -0.0523
  385TIP3   OH222789   6.724   5.622   7.699  0.6451 -0.5483  0.1722
  385TIP3    H122790   6.697   5.585   7.784 -0.1861  0.6228  0.4453
  385TIP3    H222791   6.805   5.668   7.719 -0.2685  0.9204  0.6861
  386TIP3   OH222792   0.442   2.834   9.036 -0.6951 -0.2793 -0.1421
  386TIP3    H122793   0.429   2.844   8.941 -0.4093 -2.4387 -0.4647
  386TIP3    H222794   0.415   2.744   9.054 -1.8880  0.4516  2.0722
  387TIP3   OH222795   6.593   3.661   7.910 -0.0621  0.3295  0.0882
  387TIP3    H122796   6.589   3.633   7.819  0.4718  1.1356 -0.1861
  387TIP3    H222797   6.684   3.684   7.925  0.2353 -1.4022  1.3295
  388TIP3   OH222798   0.596   6.535   7.503  0.3943 -0.2015  0.2964
  388TIP3    H122799   0.551   6.581   7.432  0.3574 -1.2557 -0.3908
  388TIP3    H222800   0.677   6.503   7.464  1.8404  1.6857  1.5223
  389TIP3   OH222801   3.582   1.484   8.935 -0.4961  0.2432  0.5605
  389TIP3    H122802   3.635   1.539   8.877 -0.1212 -2.3716 -1.7985
  389TIP3    H222803   3.495   1.486   8.896 -0.6251 -0.3228  0.8195
  390TIP3   OH222804   1.896   5.520   1.932 -0.0913 -0.8655 -1.0794
  390TIP3    H122805   1.877   5.466   2.008 -0.5706  1.6554  0.7263
  390TIP3    H222806   1.987   5.547   1.943 -1.1011  2.4077  0.7529
  391TIP3   OH222807   3.832   5.938   7.960  0.0505  0.0766 -0.4204
  391TIP3    H122808   3.899   5.871   7.973 -0.4536 -0.5600 -0.9926
  391TIP3    H222809   3.777   5.903   7.889  1.1658  2.1403 -2.4580
  392TIP3   OH222810   4.271   6.506   7.423 -0.5053  0.1356 -0.3511
  392TIP3    H122811   4.327   6.581   7.440  0.5251 -0.7077  0.0263
  392TIP3    H222812   4.190   6.544   7.387 -0.4967  1.5036  1.0125
  393TIP3   OH222813   0.564   3.301   8.644 -0.4467  0.1633 -0.1039
  393TIP3    H122814   0.521   3.338   8.568 -1.6772 -4.1827 -1.8019
  393TIP3    H222815   0.494   3.292   8.709 -0.0138  1.3013  0.5420
  394TIP3   OH222816   1.425   4.033   0.783  0.3327 -0.2535  0.6930
  394TIP3    H122817   1.397   3.979   0.709 -0.6486 -0.7711  1.4055
  394TIP3    H222818   1.399   4.122   0.760  0.8015 -0.2806  0.0550
  395TIP3   OH222819   6.204   2.240   6.718  0.1771 -0.0974  0.2634
  395TIP3    H122820   6.125   2.186   6.715  0.1504 -0.0718  0.4637
  395TIP3    H222821   6.229   2.251   6.626 -1.1152  1.4222  0.0455
  396TIP3   OH222822   3.067   1.344   2.316 -0.1066  0.3240  0.2170
  396TIP3    H122823   3.017   1.268   2.284 -1.0003  1.0444 -0.1432
  396TIP3    H222824   3.100   1.316   2.401  0.5705 -0.8869 -0.4002
  397TIP3   OH222825   1.917   1.562   7.804 -0.0018  0.0753 -0.4329
  397TIP3    H122826   1.998   1.558   7.854 -0.6167 -2.1396  0.4867
  397TIP3    H222827   1.944   1.540   7.714  0.4701 -0.3322 -0.1990
  398TIP3   OH222828   6.597   0.654   1.329 -0.4467 -0.7337 -0.6120
  398TIP3    H122829   6.524   0.621   1.276 -0.7296 -0.8816 -0.1366
  398TIP3    H222830   6.557   0.680   1.411 -0.5572  2.5320 -1.5532
  399TIP3   OH222831   4.511   1.025   7.077  0.9674 -0.3492 -0.5702
  399TIP3    H122832   4.438   1.054   7.132 -0.0343  0.5052 -2.2656
  399TIP3    H222833   4.519   0.931   7.097 -1.6249 -0.8469 -1.3823
  400TIP3   OH222834   2.401   6.452   2.176 -0.1869  0.4030 -0.5757
  400TIP3    H122835   2.420   6.545   2.182  0.7001  0.2275 -0.4443
  400TIP3    H222836   2.475   6.410   2.220 -0.2344 -0.3832 -1.2250
  401TIP3   OH222837   1.768   0.435   0.262  0.0511 -0.5510  0.2170
  401TIP3    H122838   1.855   0.474   0.255 -0.0472 -0.4780 -0.7450
  401TIP3    H222839   1.728   0.451   0.177 -0.3979 -1.7929  0.1735
  402TIP3   OH222840   2.855   1.215   6.982  0.0387 -0.1375  0.0026
  402TIP3    H122841   2.830   1.307   6.972  2.1346  0.3493 -1.2696
  402TIP3    H222842   2.926   1.202   6.920  2.0302 -1.7618  2.3980
  403TIP3   OH222843   3.202   5.418   7.365 -0.6977  0.6547 -0.2062
  403TIP3    H122844   3.215   5.323   7.374 -0.2691  0.6338 -0.9074
  403TIP3    H222845   3.291   5.454   7.357 -0.6595  1.4793  2.8936
  404TIP3   OH222846   6.523   3.438   9.009  0.0550  0.6821 -0.1417
  404TIP3    H122847   6.521   3.375   8.938  0.2379  0.7607 -0.2174
  404TIP3    H222848   6.606   3.421   9.055  1.1181  2.1776 -1.3736
  405TIP3   OH222849   4.836   0.942   6.131 -0.5764  0.7755  0.3968
  405TIP3    H122850   4.856   0.999   6.204 -0.6368  0.2517  0.8302
  405TIP3    H222851   4.801   1.000   6.064 -0.8431  1.2093  0.9053
  406TIP3   OH222852   2.013   1.550   1.671  0.4164 -0.1625 -0.9067
  406TIP3    H122853   2.005   1.635   1.628  1.5717  0.2669 -0.2975
  406TIP3    H222854   1.966   1.490   1.613 -0.4214  0.8813 -1.3391
  407TIP3   OH222855   4.745   5.475   7.773  0.2977 -0.1205  0.3670
  407TIP3    H122856   4.678   5.433   7.827  1.4703 -1.0675  1.1188
  407TIP3    H222857   4.800   5.403   7.742  0.3797  0.5425 -1.0866
  408TIP3   OH222858   0.308   5.301   1.035  0.2479 -0.5894 -0.6161
  408TIP3    H122859   0.238   5.245   1.000  0.1940 -0.2295 -1.0927
  408TIP3    H222860   0.282   5.316   1.126 -0.3870 -0.3323 -0.8298
  409TIP3   OH222861   1.708   1.195   1.278 -0.5833  0.4746 -0.1893
  409TIP3    H122862   1.693   1.227   1.189  4.1678  1.7530 -0.8191
  409TIP3    H222863   1.687   1.270   1.334 -1.5161  0.3920 -0.4140
  410TIP3   OH222864   3.890   6.394   7.349  0.2358 -0.0157  0.3676
  410TIP3    H122865   3.815   6.350   7.309  1.0997 -1.0579 -0.1381
  410TIP3    H222866   3.867   6.401   7.442 -0.3638 -0.6089  0.2718
  411TIP3   OH222867   3.026   0.895   0.537 -0.0138  0.3481 -0.3477
  411TIP3    H122868   3.110   0.869   0.500  0.2436  1.4029 -0.5532
  411TIP3    H222869   3.048   0.929   0.624 -0.6307 -2.2478  0.9085
  412TIP3   OH222870   2.993   1.720   2.168  0.3760 -0.2800 -0.2144
  412TIP3    H122871   3.006   1.766   2.251 -0.9309 -1.0329  0.4357
  412TIP3    H222872   2.918   1.763   2.128  0.3901 -0.5536 -0.5398
  413TIP3   OH222873   4.268   1.295   1.717 -0.1402 -0.3429  0.1666
  413TIP3    H122874   4.302   1.352   1.786  0.2256 -0.0732 -0.2326
  413TIP3    H222875   4.337   1.231   1.702  0.3215  0.3569 -0.8185
  414TIP3   OH222876   4.857   6.330   0.505 -0.0915 -0.7046  0.1186
  414TIP3    H122877   4.910   6.250   0.496 -1.1195 -1.4138  0.1979
  414TIP3    H222878   4.847   6.363   0.416  0.8171 -0.3363  0.1463
  415TIP3   OH222879   3.790   6.753   7.987  0.0528  0.8267  0.6810
  415TIP3    H122880   3.863   6.692   7.996 -1.1647 -1.0192 -0.9333
  415TIP3    H222881   3.814   6.809   7.913  1.3056  2.6075  2.3538
  416TIP3   OH222882   1.575   1.448   0.625  0.1395  0.5697  0.4734
  416TIP3    H122883   1.660   1.443   0.580 -0.9406 -0.5349 -1.5814
  416TIP3    H222884   1.587   1.395   0.704  1.0501 -0.5625 -0.3797
  417TIP3   OH222885   2.035   5.823   0.118  0.4394 -0.0220  0.3031
  417TIP3    H122886   1.943   5.807   0.096  0.6364 -0.9931  0.1514
  417TIP3    H222887   2.079   5.834   0.033  1.0516 -2.9659  0.1283
  418TIP3   OH222888   5.698   1.066   1.129 -0.1307  0.0009 -0.3440
  418TIP3    H122889   5.761   1.076   1.057  2.2040 -2.4276  1.1543
  418TIP3    H222890   5.688   0.972   1.139  0.5241  0.1669  3.1563
  419TIP3   OH222891   0.840   4.805   1.435 -0.6263 -0.1733  0.0498
  419TIP3    H122892   0.840   4.900   1.441 -0.0867 -0.0861 -1.1604
  419TIP3    H222893   0.806   4.786   1.348  4.5539 -0.8499 -2.1444
  420TIP3   OH222894   5.001   2.402   0.661 -0.1350 -0.1565  0.1776
  420TIP3    H122895   5.016   2.476   0.602 -1.6554  0.7821  0.9067
  420TIP3    H222896   5.085   2.387   0.703  0.5137  0.3298 -0.8879
  421TIP3   OH222897   2.776   3.955   1.584 -0.4365 -0.3910  0.1697
  421TIP3    H122898   2.806   3.884   1.528 -2.2132  0.1358 -1.5415
  421TIP3    H222899   2.771   4.031   1.527 -0.1121  0.7553  1.5961
  422TIP3   OH222900   4.802   4.022   0.210 -0.6013  0.3171 -0.7758
  422TIP3    H122901   4.848   4.096   0.171 -1.1500 -0.1128 -2.3320
  422TIP3    H222902   4.861   3.948   0.197 -0.4316  0.3180 -0.0234
  423TIP3   OH222903   4.992   6.639   8.393  0.5129  0.1306  0.4932
  423TIP3    H122904   5.024   6.608   8.308  0.7742  0.3972  0.4921
  423TIP3    H222905   5.052   6.602   8.457  0.7668  0.5483  0.4991
  424TIP3   OH222906   1.012   5.774   1.845  0.4325 -0.1040 -0.2077
  424TIP3    H122907   0.949   5.807   1.909 -1.8941 -1.3011 -1.7361
  424TIP3    H222908   1.071   5.719   1.896 -0.4546  0.1291  1.1304
  425TIP3   OH222909   0.283   4.897   1.324 -0.2438  0.1025 -0.4481
  425TIP3    H122910   0.212   4.919   1.384  1.3188  1.9716  0.8258
  425TIP3    H222911   0.252   4.925   1.238 -0.4806  2.3493  0.3270
  426TIP3   OH222912   4.353   6.581   0.785 -0.3147  0.1502  0.2001
  426TIP3    H122913   4.439   6.542   0.800 -0.5065 -0.8857 -1.2003
  426TIP3    H222914   4.363   6.672   0.811  0.0053 -0.8054  4.1554
  427TIP3   OH222915   2.124   6.133   1.281  0.7322  0.5028 -0.1642
  427TIP3    H122916   2.131   6.220   1.321 -0.6802  0.8135 -0.5332
  427TIP3    H222917   2.214   6.109   1.258  1.4224  0.9189  1.9087
  428TIP3   OH222918   3.989   0.808   0.105  0.1391 -0.3520  0.1724
  428TIP3    H122919   4.079   0.829   0.131 -0.3712  0.5537  1.2943
  428TIP3    H222920   3.998   0.764   0.020  1.6219 -0.1561  0.2021
  429TIP3   OH222921   5.129   2.237   2.098 -0.4910 -0.4087  0.0785
  429TIP3    H122922   5.140   2.188   2.179 -0.0680 -0.7771 -0.1969
  429TIP3    H222923   5.205   2.213   2.045 -1.1403 -0.7536 -0.7205
  430TIP3   OH222924   4.303   2.882   0.379  0.0701 -0.1695  0.3688
  430TIP3    H122925   4.387   2.928   0.374  1.0075 -1.8994 -2.0217
  430TIP3    H222926   4.269   2.885   0.289 -2.4714  0.4466  1.2731
  431TIP3   OH222927   5.979   6.097   1.225  0.3449 -0.4505 -0.0166
  431TIP3    H122928   6.047   6.099   1.158  0.7180 -1.5618  0.3130
  431TIP3    H222929   5.908   6.046   1.185 -0.3421  0.7626 -0.3874
  432TIP3   OH222930   4.125   6.709   0.418  0.4477  0.6623  0.3404
  432TIP3    H122931   4.088   6.751   0.496  2.3652  1.9737  0.6129
  432TIP3    H222932   4.208   6.672   0.448  0.6074  0.0527 -0.8060
  433TIP3   OH222933   4.588   0.233   8.135  0.2131  0.1655 -0.0672
  433TIP3    H122934   4.643   0.165   8.173 -0.3821 -0.0999  0.3369
  433TIP3    H222935   4.511   0.186   8.103  0.5814  0.4105 -1.3913
  434TIP3   OH222936   0.511   6.595   8.694  0.0906  0.4036  0.2633
  434TIP3    H122937   0.471   6.682   8.696  0.8203  0.7872 -0.9155
  434TIP3    H222938   0.467   6.547   8.764  1.0605  2.3029  2.2861
  435TIP3   OH222939   1.249   2.698   1.774  0.2722 -0.8668 -0.5405
  435TIP3    H122940   1.254   2.731   1.685 -0.3824  0.6448 -0.0506
  435TIP3    H222941   1.202   2.615   1.766  1.5497 -1.5199 -1.7547
  436TIP3   OH222942   5.945   1.189   1.940  0.3347  0.8841 -0.0017
  436TIP3    H122943   5.916   1.149   2.021 -0.3980  0.4904 -0.4420
  436TIP3    H222944   5.870   1.242   1.911  1.3151  2.6883  0.6203
  437TIP3   OH222945   0.112   5.528   7.313  0.4927  0.6582  0.1800
  437TIP3    H122946   0.157   5.585   7.250 -1.1514 -0.0118 -1.7018
  437TIP3    H222947   0.034   5.577   7.337 -1.3063 -0.9528 -1.9954
  438TIP3   OH222948   2.610   6.158   1.081 -0.2951 -0.3155 -0.0410
  438TIP3    H122949   2.588   6.230   1.140 -2.2297 -0.2329 -0.8038
  438TIP3    H222950   2.691   6.121   1.117 -0.3065  1.0273  1.4460
  439TIP3   OH222951   2.356   0.229   6.931  0.2434  0.3565  0.7910
  439TIP3    H122952   2.330   0.153   6.984 -2.0768  0.5557  0.0431
  439TIP3    H222953   2.349   0.198   6.840  3.1901  0.3227  0.4700
  440TIP3   OH222954   0.148   6.325   8.715 -0.2522 -0.0572  0.2910
  440TIP3    H122955   0.244   6.328   8.710 -0.3399  0.9433 -2.3696
  440TIP3    H222956   0.128   6.232   8.728  1.0387 -0.0686  3.0678
  441TIP3   OH222957   5.858   6.002   8.634 -0.0432  0.1373 -0.3147
  441TIP3    H122958   5.867   5.907   8.637 -0.5382  0.0680 -0.8997
  441TIP3    H222959   5.767   6.018   8.659 -0.3826  0.3537 -1.5986
  442TIP3   OH222960   1.394   0.080   8.762  0.2192  0.5837  0.0129
  442TIP3    H122961   1.326   0.097   8.827  0.9478 -2.4957  1.7716
  442TIP3    H222962   1.345   0.057   8.683 -0.7160  1.3904  0.3258
  443TIP3   OH222963   6.642   2.923   0.904 -0.3890 -0.1302  0.2295
  443TIP3    H122964   6.585   2.929   0.981  1.4553  4.9979  1.6106
  443TIP3    H222965   6.587   2.950   0.831 -0.7751  0.8258  0.8497
  444TIP3   OH222966   0.013   0.197   0.438 -0.0565  0.2376 -0.1757
  444TIP3    H122967   0.004   0.110   0.398  1.1345  0.8223 -1.8754
  444TIP3    H222968  -0.049   0.252   0.390 -0.5962  0.3976  0.6922
  445TIP3   OH222969   4.848   5.155   8.268 -0.4986 -0.1790 -0.1651
  445TIP3    H122970   4.888   5.210   8.336  0.5235 -0.9126 -0.1509
  445TIP3    H222971   4.812   5.080   8.316 -1.7581  0.3724 -0.2026
  446TIP3   OH222972   4.740   3.025   0.539 -0.0414 -0.0015 -0.6443
  446TIP3    H122973   4.785   3.106   0.565  1.5975 -0.9707 -0.3312
  446TIP3    H222974   4.757   3.018   0.445 -2.8285  1.5607 -1.4034
  447TIP3   OH222975   2.569   1.528   1.781  0.0083 -0.0253  0.5695
  447TIP3    H122976   2.660   1.501   1.767  0.2682  0.0580  1.9615
  447TIP3    H222977   2.522   1.447   1.798 -0.4188 -0.1884 -1.2010
  448TIP3   OH222978   1.190   5.276   8.048  0.0484  0.2476  0.5302
  448TIP3    H122979   1.189   5.332   7.971  1.5126  0.3383  0.5506
  448TIP3    H222980   1.120   5.310   8.104  0.7439  1.9219  0.4427
  449TIP3   OH222981   5.961   4.725   0.956  0.3007 -0.5504  0.3081
  449TIP3    H122982   5.923   4.638   0.967  0.5692 -0.8667 -1.1032
  449TIP3    H222983   6.052   4.714   0.984  0.3210 -0.7084  0.1824
  450TIP3   OH222984   5.426   2.162   0.196  0.1215  0.0240 -0.6267
  450TIP3    H122985   5.354   2.145   0.135 -1.5282  2.5042  0.4533
  450TIP3    H222986   5.501   2.184   0.140 -0.2684 -1.3985 -1.7529
  451TIP3   OH222987   3.675   1.184   0.962 -0.6857  0.3724 -0.1618
  451TIP3    H122988   3.641   1.229   1.039  3.2236  2.0319  0.7962
  451TIP3    H222989   3.661   1.245   0.890 -0.7779  0.5260 -0.0136
  452TIP3   OH222990   5.227   1.842   8.447 -0.2598  0.1577 -1.2481
  452TIP3    H122991   5.265   1.929   8.454  0.7832 -0.3362 -0.2614
  452TIP3    H222992   5.134   1.855   8.464 -0.3720  1.2599 -2.6090
  453TIP3   OH222993   3.770   4.364   1.790 -0.3636 -0.5888  0.6040
  453TIP3    H122994   3.691   4.343   1.840 -0.0231 -0.1487  1.3472
  453TIP3    H222995   3.791   4.454   1.815 -0.4380 -0.1913 -0.6875
  454TIP3   OH222996   5.557   2.018   7.425  0.5998 -0.0383  0.1381
  454TIP3    H122997   5.505   2.083   7.377  0.1113 -0.6961 -0.2389
  454TIP3    H222998   5.558   2.051   7.515 -1.7164 -0.7014  0.4949
  455TIP3   OH222999   3.599   5.070   0.309 -0.1704 -0.4654  0.5723
  455TIP3    H123000   3.535   5.010   0.347  0.3096 -1.6582 -0.4378
  455TIP3    H223001   3.590   5.057   0.214  2.2492 -1.4351  0.4145
  456TIP3   OH223002   2.712   3.249   1.793 -0.1008  0.1061 -0.5007
  456TIP3    H123003   2.735   3.163   1.827  0.1104 -0.3168 -1.6710
  456TIP3    H223004   2.795   3.296   1.786 -0.3000  0.7170  0.8975
  457TIP3   OH223005   3.480   0.168   7.880  0.0283  0.4364 -0.7153
  457TIP3    H123006   3.455   0.167   7.972  1.8666 -0.3944 -0.1717
  457TIP3    H223007   3.562   0.118   7.877  0.5428  1.3057 -2.6430
  458TIP3   OH223008   3.573   1.749   8.048  0.0434 -0.2651  0.3985
  458TIP3    H123009   3.568   1.664   8.094  2.5546 -1.2203 -0.8797
  458TIP3    H223010   3.574   1.725   7.955  0.7471  1.1745  0.0205
  459TIP3   OH223011   0.157   0.645   7.987  0.3791 -0.5734  0.2545
  459TIP3    H123012   0.090   0.604   7.931 -0.3061 -0.8533  1.2587
  459TIP3    H223013   0.240   0.611   7.953  0.1804  1.1294 -2.1424
  460TIP3   OH223014   6.245   0.490   0.355 -0.2222  0.4748  0.2484
  460TIP3    H123015   6.298   0.415   0.379  1.5355  2.2491  2.3026
  460TIP3    H223016   6.170   0.452   0.309  0.6499 -2.4871  1.0363
  461TIP3   OH223017   4.093   0.011   6.483 -0.4599  0.8292 -0.6396
  461TIP3    H123018   4.006  -0.015   6.512  0.5888 -0.6423  1.5304
  461TIP3    H223019   4.136   0.043   6.563  1.2851  0.6250 -1.4432
  462TIP3   OH223020   6.249   0.137   8.100  0.3309  0.0929  0.4732
  462TIP3    H123021   6.343   0.146   8.118  0.1900 -1.8469  2.8386
  462TIP3    H223022   6.239   0.045   8.075 -1.0016  0.0677  1.0145
  463TIP3   OH223023   3.373   0.180   0.444  0.6853  0.2977  0.0850
  463TIP3    H123024   3.332   0.221   0.520  1.7613  1.0492  0.2739
  463TIP3    H223025   3.315   0.106   0.423 -0.2043  0.7221  0.9579
  464TIP3   OH223026   3.720   6.367   8.127 -0.2811  0.0463 -0.3365
  464TIP3    H123027   3.769   6.422   8.189  0.4890 -0.5737 -0.3703
  464TIP3    H223028   3.741   6.278   8.153 -2.7390 -0.3071  0.6818
  465TIP3   OH223029   0.561   4.523   7.155  0.0269 -0.1138 -0.3133
  465TIP3    H123030   0.497   4.499   7.222  1.0201 -0.8647  0.3906
  465TIP3    H223031   0.537   4.472   7.079  0.9794 -1.9903  0.5839
  466TIP3   OH223032   2.628   4.201   0.847  0.7520 -0.6645 -0.0697
  466TIP3    H123033   2.704   4.206   0.790  2.0830 -0.3892  1.6342
  466TIP3    H223034   2.554   4.226   0.792  1.8355 -1.2036 -1.8421
  467TIP3   OH223035   1.909   0.539   1.421 -0.2032 -0.0822 -0.3389
  467TIP3    H123036   1.920   0.492   1.338 -0.7159  2.9244 -2.2670
  467TIP3    H223037   1.994   0.579   1.437 -0.8303  1.5756 -0.9597
  468TIP3   OH223038   2.395   0.086   1.226 -0.4973 -0.5218 -0.5749
  468TIP3    H123039   2.459   0.155   1.243  1.1989 -2.5198  2.0960
  468TIP3    H223040   2.310   0.126   1.242  0.3153  1.2827 -0.5944
  469TIP3   OH223041   3.062   3.418   1.827  0.0275 -0.3225  0.3874
  469TIP3    H123042   3.157   3.427   1.817 -0.1859  2.0114 -0.0132
  469TIP3    H223043   3.051   3.338   1.877  2.1902 -0.8234  0.1634
  470TIP3   OH223044   1.633   1.763   1.500 -0.2061  0.3263 -0.3027
  470TIP3    H123045   1.696   1.810   1.555 -0.5973  1.6884 -0.9744
  470TIP3    H223046   1.550   1.809   1.514 -0.9842 -1.1766  0.2403
  471TIP3   OH223047   5.459   4.104   1.580  0.4849  0.5977  0.1383
  471TIP3    H123048   5.407   4.172   1.537  0.1252  0.6742  0.6872
  471TIP3    H223049   5.514   4.069   1.510 -3.8122 -3.0211 -1.9589
  472TIP3   OH223050   3.614   6.297   6.130  0.2340  0.1258  0.0156
  472TIP3    H123051   3.607   6.247   6.211 -0.0391  0.8664  0.4537
  472TIP3    H223052   3.524   6.324   6.110  0.5541  1.7756  0.6433
  473TIP3   OH223053   4.634   0.831   2.445 -0.1387 -0.1307 -0.5959
  473TIP3    H123054   4.558   0.785   2.409 -1.1990  0.5038  0.7677
  473TIP3    H223055   4.657   0.895   2.377 -0.1918 -0.9558 -1.4271
  474TIP3   OH223056   3.711   1.783   0.319  0.5130  0.3200 -0.1557
  474TIP3    H123057   3.747   1.820   0.400 -0.6135 -0.0535  0.5220
  474TIP3    H223058   3.687   1.859   0.267  1.7515  0.5722 -0.3916
  475TIP3   OH223059   2.837   5.249   0.384 -0.0905  0.0718  0.1830
  475TIP3    H123060   2.901   5.203   0.439  1.3506 -0.1490 -1.5870
  475TIP3    H223061   2.890   5.292   0.317 -1.7312  1.0248 -0.5448
  476TIP3   OH223062   2.979   5.122   0.600 -0.3622  0.2246  1.0582
  476TIP3    H123063   3.056   5.147   0.651  0.6590 -0.4616 -0.0837
  476TIP3    H223064   2.906   5.164   0.645  0.3713 -0.9081  3.4929
  477TIP3   OH223065   1.830   3.134   7.981 -0.0241  0.0380 -0.0747
  477TIP3    H123066   1.802   3.045   7.962  2.0759 -1.3993  2.8741
  477TIP3    H223067   1.780   3.159   8.059  1.3388  0.3047  0.7578
  478TIP3   OH223068   5.420   5.363   8.347 -0.2523  0.4176  0.2344
  478TIP3    H123069   5.410   5.388   8.439 -1.9217 -0.4596  0.3304
  478TIP3    H223070   5.482   5.290   8.349  0.9377  1.4127  0.4674
  479TIP3   OH223071   3.162   5.293   8.926  0.1800  0.4138 -0.6484
  479TIP3    H123072   3.178   5.229   8.857  0.3145  1.0114 -1.1861
  479TIP3    H223073   3.248   5.309   8.964 -0.0284 -0.6243  0.3216
  480TIP3   OH223074   5.578   0.416   2.132  0.7410  0.3322  0.2363
  480TIP3    H123075   5.648   0.419   2.197  0.9556  2.0064 -0.0224
  480TIP3    H223076   5.499   0.440   2.180  0.7509  0.7120  0.0687
  481TIP3   OH223077   3.058   0.092   8.072 -0.3466  0.3513 -0.2802
  481TIP3    H123078   3.129   0.034   8.043  1.4748  1.6873  1.2633
  481TIP3    H223079   2.979   0.053   8.036  0.5129 -4.0210  1.9371
  482TIP3   OH223080   5.099   0.861   7.520  0.5196  0.4012 -0.2839
  482TIP3    H123081   5.128   0.776   7.553 -1.0139  0.1303  0.4856
  482TIP3    H223082   5.151   0.924   7.569  0.6682 -0.0702  0.1802
  483TIP3   OH223083   1.571   1.649   7.638  0.1490 -0.3737 -0.2646
  483TIP3    H123084   1.602   1.733   7.670  0.9067 -0.9388  0.5217
  483TIP3    H223085   1.543   1.667   7.548 -0.1811  0.8138  0.0555
  484TIP3   OH223086   3.035   3.276   2.293  1.0874 -0.2227  0.2851
  484TIP3    H123087   3.019   3.364   2.327  0.1402 -0.3978  0.3208
  484TIP3    H223088   3.105   3.241   2.348  0.8125  0.1620  0.8890
  485TIP3   OH223089   6.532   5.828   9.019 -0.1177 -0.3873 -0.3243
  485TIP3    H123090   6.491   5.767   8.957  1.4298 -0.7909 -0.9869
  485TIP3    H223091   6.461   5.851   9.079 -0.7964 -2.8007 -0.0720
  486TIP3   OH223092   6.358   3.762   2.150 -0.2032  0.1012  0.5515
  486TIP3    H123093   6.401   3.775   2.235  1.3990 -0.5755 -0.1163
  486TIP3    H223094   6.423   3.791   2.086 -0.9454 -0.4826 -0.4946
  487TIP3   OH223095   4.107   4.411   8.965  0.0234 -0.1639 -0.0648
  487TIP3    H123096   4.148   4.378   9.044  0.6298 -0.8614 -0.6519
  487TIP3    H223097   4.044   4.477   8.995  2.1578  1.6048  0.8250
  488TIP3   OH223098   0.505   2.573   1.791 -0.1971  0.2034  0.7510
  488TIP3    H123099   0.428   2.516   1.797 -1.4510  1.7700  0.3761
  488TIP3    H223100   0.472   2.659   1.816  1.4744  0.9044  0.6336
  489TIP3   OH223101   1.977   1.769   2.350  0.1477  0.1969  0.7579
  489TIP3    H123102   1.918   1.741   2.420  0.3196  0.5223  1.0341
  489TIP3    H223103   2.060   1.787   2.393  0.1896  0.6260  0.5089
  490TIP3   OH223104   0.526   1.037   0.161  0.3368 -0.0708 -0.4730
  490TIP3    H123105   0.590   1.098   0.123  4.4048 -3.9685 -0.6545
  490TIP3    H223106   0.560   1.019   0.248 -1.0516 -1.6458 -0.2274
  491TIP3   OH223107   5.567   2.963   2.719  0.0736  0.2252 -0.5227
  491TIP3    H123108   5.515   2.925   2.647 -1.7131  1.4269  0.0532
  491TIP3    H223109   5.539   3.055   2.722  0.4659  0.3210  1.3822
  492TIP3   OH223110   4.064   0.986   8.288 -0.3471 -0.5629 -0.0841
  492TIP3    H123111   4.112   0.916   8.331 -1.1850 -1.0467  0.0875
  492TIP3    H223112   4.088   0.979   8.195  1.0402  0.1417  0.1954
  493TIP3   OH223113   4.650   4.496   7.365  0.2008 -0.0614  0.1610
  493TIP3    H123114   4.633   4.462   7.277 -0.3743  1.7511 -0.4888
  493TIP3    H223115   4.591   4.572   7.372 -0.3416 -0.6211  2.4151
  494TIP3   OH223116   3.601   4.535   0.827  0.3606 -0.1967 -0.1090
  494TIP3    H123117   3.611   4.611   0.886  0.4595  0.3703 -0.8427
  494TIP3    H223118   3.690   4.510   0.804  0.3608  2.0232 -3.0532
  495TIP3   OH223119   4.656   4.365   8.104 -0.0833 -0.5837  0.1475
  495TIP3    H123120   4.711   4.308   8.050 -0.1074 -0.3793 -0.0923
  495TIP3    H223121   4.567   4.336   8.088  0.0349 -1.9525  1.7243
  496TIP3   OH223122   1.414   3.787   0.222  0.1192  0.4539 -0.5876
  496TIP3    H123123   1.489   3.839   0.193 -0.5843  0.6141 -2.2450
  496TIP3    H223124   1.339   3.844   0.206 -0.5433 -0.5652 -1.2112
  497TIP3   OH223125   3.328   3.269   2.657  0.3631 -0.2303  0.1683
  497TIP3    H123126   3.242   3.281   2.697  0.6762  0.3082  0.6977
  497TIP3    H223127   3.387   3.256   2.731  0.8335  0.0519 -0.1532
  498TIP3   OH223128   3.349   2.363   1.797 -0.0295  0.2886  0.0566
  498TIP3    H123129   3.276   2.309   1.827  0.8818 -0.2869  1.3472
  498TIP3    H223130   3.372   2.416   1.873  0.5845  0.8165 -0.4844
  499TIP3   OH223131   2.874   1.036   8.187 -0.3201  1.0134  0.3584
  499TIP3    H123132   2.882   1.085   8.105  0.9471 -0.3894 -0.4092
  499TIP3    H223133   2.798   0.979   8.173 -0.4411  1.1708  0.3750
  500TIP3   OH223134   4.773   3.972   1.055  0.0348  0.3948  0.1069
  500TIP3    H123135   4.775   3.882   1.025  0.6255  0.2624  0.5178
  500TIP3    H223136   4.711   3.973   1.128  0.4807  0.1941  0.4896
  501TIP3   OH223137   5.738   4.033   8.566  0.0104 -0.1829 -0.0250
  501TIP3    H123138   5.809   3.970   8.551 -1.1721 -1.3089 -1.1432
  501TIP3    H223139   5.671   4.008   8.503 -1.9203  0.0213  1.8487
  502TIP3   OH223140   2.019   3.238   2.004  0.1637  0.0395 -0.1510
  502TIP3    H123141   1.953   3.170   1.996 -0.5352  0.6293  0.4553
  502TIP3    H223142   2.076   3.225   1.928  0.2368 -1.4045  0.1379
  503TIP3   OH223143   4.498   1.959   0.529  0.0223 -0.3319 -0.0451
  503TIP3    H123144   4.542   1.951   0.445  2.9871 -1.9917  1.5093
  503TIP3    H223145   4.419   1.906   0.520 -0.4918  0.6804 -2.1522
  504TIP3   OH223146   3.699   3.017   1.847  0.4727  0.5078  0.6163
  504TIP3    H123147   3.656   3.069   1.779  1.6978  0.8910  0.1109
  504TIP3    H223148   3.632   3.006   1.914 -0.8785 -0.1555 -0.7836
  505TIP3   OH223149   6.766   5.443   6.714 -0.4866 -0.8086 -0.9160
  505TIP3    H123150   6.833   5.487   6.662 -0.8699  1.5809  0.4843
  505TIP3    H223151   6.687   5.495   6.700 -1.5096 -2.2744 -0.7689
  506TIP3   OH223152   6.576   5.797   0.309 -0.4763 -0.3498 -1.0346
  506TIP3    H123153   6.506   5.776   0.371 -1.8187 -0.5376 -2.5657
  506TIP3    H223154   6.594   5.714   0.265 -0.2642  0.0053 -1.6263
  507TIP3   OH223155   6.079   0.438   0.003  0.0909  0.1543  0.0762
  507TIP3    H123156   6.153   0.394  -0.039 -1.4861 -1.0838 -1.5916
  507TIP3    H223157   6.089   0.530  -0.021  2.0986  0.3664  1.5117
  508TIP3   OH223158   3.770   1.174   7.263  0.2550  0.0602  0.1186
  508TIP3    H123159   3.754   1.246   7.325  0.9919 -0.2432  0.6625
  508TIP3    H223160   3.857   1.142   7.284  0.0244 -0.8595 -0.2693
  509TIP3   OH223161   6.148   3.924   8.057  0.0900 -0.6801 -0.1494
  509TIP3    H123162   6.157   4.011   8.020  0.4576 -0.4654  0.4397
  509TIP3    H223163   6.233   3.882   8.042  0.9456  0.1026  2.2068
  510TIP3   OH223164   1.214   5.075   0.549 -0.4397  0.2119  0.0461
  510TIP3    H123165   1.151   5.070   0.621  1.1502  0.1720  1.5025
  510TIP3    H223166   1.183   5.011   0.486 -0.9171 -1.0958  1.5284
  511TIP3   OH223167   1.877   5.825   7.763 -0.3032 -0.1258 -0.3437
  511TIP3    H123168   1.830   5.749   7.727 -1.7451  0.4655  0.1991
  511TIP3    H223169   1.882   5.808   7.857 -0.3105  0.2815 -0.2673
  512TIP3   OH223170   0.462   2.713   0.896  0.2200  0.2094 -0.0843
  512TIP3    H123171   0.371   2.714   0.867 -0.5019  0.2214  2.0150
  512TIP3    H223172   0.496   2.630   0.862 -0.6955  0.0025 -0.5451
  513TIP3   OH223173   5.735   1.910   7.062 -0.4460 -0.4250 -0.3996
  513TIP3    H123174   5.653   1.865   7.041 -2.0511  1.9015  0.5187
  513TIP3    H223175   5.733   1.989   7.008  1.2105 -0.3224 -0.3509
  514TIP3   OH223176   0.353   2.960   0.717  0.2345  0.0176  0.1395
  514TIP3    H123177   0.330   3.030   0.779 -0.7506 -0.2808  0.1368
  514TIP3    H223178   0.292   2.889   0.738  0.9526 -0.6850 -0.1295
  515TIP3   OH223179   3.554   1.313   2.666 -0.1781  0.5317 -0.4847
  515TIP3    H123180   3.509   1.387   2.704  0.1752  0.5008  0.0003
  515TIP3    H223181   3.493   1.240   2.674  0.9699 -0.2263  2.8283
  516TIP3   OH223182   3.326   0.141   8.422 -0.0848  0.6858  0.2443
  516TIP3    H123183   3.309   0.193   8.501 -0.0780 -0.1377  0.7977
  516TIP3    H223184   3.275   0.061   8.434  0.7674  0.0732 -0.0626
  517TIP3   OH223185   3.613   2.397   7.569 -0.6584 -0.5703 -0.1189
  517TIP3    H123186   3.662   2.478   7.555  0.5282 -1.2215  0.1366
  517TIP3    H223187   3.614   2.353   7.484  0.9657 -1.5074  0.3362
  518TIP3   OH223188   6.575   6.233   0.890  0.2545 -0.1596 -0.3923
  518TIP3    H123189   6.593   6.186   0.972  1.7865 -0.3392 -0.7949
  518TIP3    H223190   6.582   6.326   0.914 -1.4500 -0.1307  0.1157
  519TIP3   OH223191   4.093   1.874   7.531 -0.3533 -0.2344  0.1644
  519TIP3    H123192   4.096   1.954   7.478  1.1117 -1.1033 -1.1752
  519TIP3    H223193   4.001   1.863   7.553 -0.6815  1.4251 -0.2240
  520TIP3   OH223194   3.447   3.582   7.466 -0.0087 -0.1203  0.2463
  520TIP3    H123195   3.403   3.497   7.473 -0.4479 -0.0195 -0.9499
  520TIP3    H223196   3.401   3.638   7.528 -0.0340 -0.6293  0.6957
  521TIP3   OH223197   4.584   4.929   0.615 -0.3640  0.1713 -0.0954
  521TIP3    H123198   4.642   5.001   0.590 -0.8497  0.0912 -1.4988
  521TIP3    H223199   4.615   4.854   0.565 -1.5863  0.0950 -0.7693
  522TIP3   OH223200   2.718   1.406   8.557  0.1148 -0.1606 -0.1477
  522TIP3    H123201   2.641   1.356   8.584 -0.5149  1.0237  0.3118
  522TIP3    H223202   2.779   1.397   8.630  0.9501 -2.1119 -1.0186
  523TIP3   OH223203   1.791   3.071   8.495 -0.3317  1.1172  1.0067
  523TIP3    H123204   1.833   3.157   8.491 -0.1706  0.9960 -0.5574
  523TIP3    H223205   1.840   3.018   8.432 -0.1141 -0.2808  2.2936
  524TIP3   OH223206   1.058   4.639   7.873 -0.0640  0.2641  0.0238
  524TIP3    H123207   1.129   4.593   7.828 -0.0241  1.1210 -0.8214
  524TIP3    H223208   1.087   4.645   7.964 -1.2751 -3.7589  0.8459
  525TIP3   OH223209   5.921   3.814   6.696 -0.0351  0.1074 -0.3525
  525TIP3    H123210   5.945   3.729   6.660 -0.8827 -0.0139 -0.6602
  525TIP3    H223211   6.002   3.865   6.694  0.6567 -0.9120  0.5107
  526TIP3   OH223212   5.449   4.002   1.044 -0.6095  0.1799 -0.4477
  526TIP3    H123213   5.510   3.935   1.012 -2.1486 -3.4493  3.3947
  526TIP3    H223214   5.362   3.965   1.030 -1.5397  1.3456  1.7305
  527TIP3   OH223215   2.707   4.760   8.920  0.5678  0.2169  0.4537
  527TIP3    H123216   2.708   4.756   8.824 -1.6502  1.0305  0.3414
  527TIP3    H223217   2.778   4.701   8.947  3.3913  2.3258 -1.6645
  528TIP3   OH223218   5.381   1.157   0.141  0.3234 -0.4935 -0.4270
  528TIP3    H123219   5.391   1.252   0.150  3.1105 -0.6947 -0.5536
  528TIP3    H223220   5.310   1.147   0.078 -0.9422  1.4312  0.5622
  529TIP3   OH223221   6.263   4.568   2.677 -0.7504  0.0114 -0.2116
  529TIP3    H123222   6.276   4.536   2.588 -0.2905  0.4661 -0.3117
  529TIP3    H223223   6.194   4.512   2.713  0.9701 -1.9886  0.1003
  530TIP3   OH223224   3.025   3.078   8.400 -0.1092 -0.2668 -0.0727
  530TIP3    H123225   2.994   3.029   8.324 -0.7840 -0.3858  0.2700
  530TIP3    H223226   3.058   3.012   8.460 -1.3927 -0.3746  0.5639
  531TIP3   OH223227   1.944   1.288   7.472 -0.1423 -0.6186 -0.4318
  531TIP3    H123228   1.950   1.296   7.377  2.9694 -0.2228 -0.3018
  531TIP3    H223229   1.917   1.375   7.501  0.6980 -0.2031 -0.8663
  532TIP3   OH223230   5.539   2.259   6.584  0.0008  0.6655 -0.0269
  532TIP3    H123231   5.630   2.281   6.604  0.1770 -0.2137  0.2040
  532TIP3    H223232   5.522   2.180   6.636 -1.3081  1.5483  0.9276
  533TIP3   OH223233   3.329   6.251   1.348  0.0581 -0.3445 -0.6437
  533TIP3    H123234   3.321   6.206   1.263  0.5435  0.5738 -1.1932
  533TIP3    H223235   3.302   6.341   1.331 -0.5696 -0.3245  0.3675
  534TIP3   OH223236   3.396   5.935   0.924 -0.3636 -1.0830 -0.6177
  534TIP3    H123237   3.420   6.021   0.889  0.0819  0.3651  2.8042
  534TIP3    H223238   3.475   5.882   0.913  0.4392 -0.0437 -0.0383
  535TIP3   OH223239   4.133   0.268   7.879 -0.7178  0.5761 -0.0887
  535TIP3    H123240   4.207   0.266   7.818  0.0526  1.8392  0.7496
  535TIP3    H223241   4.095   0.355   7.867 -1.6139  0.2008  0.0135
  536TIP3   OH223242   2.688   2.645   7.672  0.1743 -0.2929 -0.2765
  536TIP3    H123243   2.760   2.616   7.615 -0.5549 -0.9256 -0.9061
  536TIP3    H223244   2.719   2.627   7.760  0.8634 -0.4094 -0.5351
  537TIP3   OH223245   6.581   2.583   0.261 -0.2262 -0.1415  0.6332
  537TIP3    H123246   6.588   2.671   0.299 -1.2611  0.3175 -0.1862
  537TIP3    H223247   6.586   2.598   0.167 -2.8657 -0.6662  0.3445
  538TIP3   OH223248   1.706   2.607   2.454  0.0461  0.6611  0.2285
  538TIP3    H123249   1.779   2.641   2.505  0.4307  0.9264 -0.4725
  538TIP3    H223250   1.730   2.626   2.363 -1.3797  1.6707  0.0406
  539TIP3   OH223251   4.256   2.350   8.314 -0.7538 -0.0190  0.4865
  539TIP3    H123252   4.271   2.257   8.297 -0.2023  0.2583 -0.6694
  539TIP3    H223253   4.202   2.380   8.240 -0.6782  0.6328  0.6888
  540TIP3   OH223254   3.468   1.835   0.662 -0.0455 -0.3894  0.0324
  540TIP3    H123255   3.374   1.854   0.667  0.0025 -0.3142  0.9859
  540TIP3    H223256   3.498   1.881   0.584 -0.5401  0.7742  0.5003
  541TIP3   OH223257   3.123   3.890   1.600  0.0585  0.3244  0.2257
  541TIP3    H123258   3.205   3.895   1.550 -0.3147  0.1799 -0.4188
  541TIP3    H223259   3.147   3.915   1.689  1.0145 -0.7856  0.2984
  542TIP3   OH223260   0.294   2.521   8.526  0.3090 -0.4050  0.1411
  542TIP3    H123261   0.303   2.451   8.461 -2.2224 -1.1855  0.4838
  542TIP3    H223262   0.233   2.484   8.591  0.9411  1.2038  1.7329
  543TIP3   OH223263   5.823   5.301   1.187 -0.5306  0.0404  0.1751
  543TIP3    H123264   5.856   5.255   1.264  0.7985 -0.9172 -0.9078
  543TIP3    H223265   5.806   5.232   1.123 -0.0496  0.9207 -0.9494
  544TIP3   OH223266   3.663   0.803   7.187  0.4385  0.5421  0.0190
  544TIP3    H123267   3.600   0.733   7.205  0.3968  0.5130 -0.2436
  544TIP3    H223268   3.747   0.758   7.175  0.7639  0.6653  1.5755
  545TIP3   OH223269   3.857   0.271   8.750 -0.4785 -0.6115  0.0458
  545TIP3    H123270   3.881   0.364   8.750 -2.3619 -0.0631  1.1662
  545TIP3    H223271   3.934   0.226   8.716  1.1466  1.1885  1.1622
  546TIP3   OH223272   6.420   4.380   1.218 -0.0858 -0.1488 -0.5905
  546TIP3    H123273   6.372   4.330   1.152 -1.2113  0.5505 -0.3363
  546TIP3    H223274   6.361   4.380   1.294  0.7358 -0.0640  0.0546
  547TIP3   OH223275   4.690   1.236   7.640 -0.4949  0.5176  0.3771
  547TIP3    H123276   4.693   1.320   7.596 -2.1003  0.7236  0.5816
  547TIP3    H223277   4.622   1.187   7.593  0.2680 -0.5802  0.3994
  548TIP3   OH223278   3.116   1.084   6.843 -0.5118  0.1042  0.2228
  548TIP3    H123279   3.049   1.066   6.778 -0.0847 -0.8091  0.0190
  548TIP3    H223280   3.123   1.004   6.894  1.0070 -0.1390 -0.2975
  549TIP3   OH223281   1.950   2.737   2.361 -0.0745  0.4514 -0.1594
  549TIP3    H123282   1.967   2.831   2.360 -0.9431  0.6665  1.7783
  549TIP3    H223283   1.984   2.707   2.445  0.8664 -1.1280 -1.0597
  550TIP3   OH223284   3.213   3.059   6.570  0.5191 -0.0223  0.3883
  550TIP3    H123285   3.282   3.119   6.541 -0.1223  0.6401  0.1975
  550TIP3    H223286   3.253   2.972   6.564  1.9149  0.4470  1.9043
  551TIP3   OH223287   6.209   4.542   1.878 -0.0052  0.2696  0.0861
  551TIP3    H123288   6.204   4.492   1.960  0.4584  0.9727  0.5530
  551TIP3    H223289   6.296   4.581   1.878  0.1162  0.0231 -0.9028
  552TIP3   OH223290   3.329   5.737   1.238  0.4538 -0.1552  0.1680
  552TIP3    H123291   3.292   5.819   1.272  0.4546 -0.7695  1.7433
  552TIP3    H223292   3.266   5.706   1.174 -0.5603  0.0459  1.0483
  553TIP3   OH223293   1.244   6.227   6.687  0.4368 -0.3968 -0.2570
  553TIP3    H123294   1.222   6.317   6.663  3.3187  0.2420 -0.9715
  553TIP3    H223295   1.162   6.188   6.716 -1.0044  2.2895 -0.4618
  554TIP3   OH223296   4.395   4.249   8.102 -0.4632 -0.1161  0.5420
  554TIP3    H123297   4.368   4.169   8.056 -0.1512 -0.1049  0.3385
  554TIP3    H223298   4.427   4.217   8.187 -1.2337 -0.1171  0.8393
  555TIP3   OH223299   2.310   3.396   8.672 -0.0539  0.0887  0.4007
  555TIP3    H123300   2.263   3.313   8.669 -0.8358  0.5328 -1.7701
  555TIP3    H223301   2.371   3.392   8.598  0.6512  1.0445  0.9037
  556TIP3   OH223302   5.729   4.312   7.410  0.2958 -0.1886 -0.1265
  556TIP3    H123303   5.760   4.372   7.343 -1.1665  1.6577  0.7610
  556TIP3    H223304   5.700   4.235   7.361 -1.1537  1.2789 -1.7061
  557TIP3   OH223305   1.654   6.047   1.326  0.5510 -0.0751 -0.5825
  557TIP3    H123306   1.699   6.129   1.348  0.2514 -0.3005  1.0070
  557TIP3    H223307   1.724   5.987   1.301  1.0231  0.0057  0.4725
  558TIP3   OH223308   3.784   2.152   1.648  0.3447 -0.1956  0.0238
  558TIP3    H123309   3.817   2.070   1.611  0.8586  0.2801 -0.5759
  558TIP3    H223310   3.769   2.209   1.572  2.1729  1.0729  0.5635
  559TIP3   OH223311   4.633   1.890   1.074  0.6221  0.2751 -0.8922
  559TIP3    H123312   4.729   1.897   1.078  0.6476  0.9352 -2.2528
  559TIP3    H223313   4.602   1.979   1.086  0.0550 -0.1727  1.4477
  560TIP3   OH223314   4.710   1.177   8.840 -0.3261 -0.4702 -0.0182
  560TIP3    H123315   4.678   1.087   8.845 -1.3303 -0.1315 -0.1192
  560TIP3    H223316   4.639   1.226   8.798 -0.2771  0.5933  1.0675
  561TIP3   OH223317   2.553   1.146   8.616  0.2417  0.4059  0.4142
  561TIP3    H123318   2.585   1.133   8.706  0.8463  0.3689  0.1976
  561TIP3    H223319   2.463   1.113   8.618  0.7449 -1.0151  0.6386
  562TIP3   OH223320   3.279   6.756   0.103 -0.7871  0.5021  0.8047
  562TIP3    H123321   3.252   6.752   0.195 -4.0276 -1.0274 -0.0796
  562TIP3    H223322   3.198   6.746   0.054  1.0138 -0.2149 -2.2543
  563TIP3   OH223323   5.724   4.477   8.687 -0.2321 -0.2287  0.3383
  563TIP3    H123324   5.703   4.547   8.750  2.1797  0.9495 -0.0879
  563TIP3    H223325   5.781   4.418   8.736 -1.3648 -1.3500  0.3476
  564TIP3   OH223326   6.480   2.914   2.092 -1.5646 -0.1374 -0.1187
  564TIP3    H123327   6.568   2.922   2.128 -1.9159  0.2429  0.6821
  564TIP3    H223328   6.492   2.925   1.997 -0.7408 -0.2301 -0.0318
  565TIP3   OH223329   2.494   5.001   7.237  0.3534 -0.0764 -0.0787
  565TIP3    H123330   2.515   5.073   7.177  1.0346  0.0757  0.3310
  565TIP3    H223331   2.399   4.994   7.235  0.3672 -0.0866 -1.1992
  566TIP3   OH223332   2.653   0.156   8.573  0.2749 -0.3554 -0.0978
  566TIP3    H123333   2.739   0.179   8.538 -0.1884 -0.0028 -1.0335
  566TIP3    H223334   2.593   0.221   8.536 -0.5568 -1.1980 -0.2895
  567TIP3   OH223335   5.848   2.464   0.500 -0.1172 -0.2634  0.7111
  567TIP3    H123336   5.909   2.408   0.452 -0.3448  1.1270 -1.3715
  567TIP3    H223337   5.890   2.479   0.584  1.2596 -1.2957  0.2548
  568TIP3   OH223338   4.552   5.801   1.576  0.1741 -0.1551 -0.0333
  568TIP3    H123339   4.466   5.810   1.536 -0.5394  0.2898  1.5164
  568TIP3    H223340   4.553   5.711   1.610  0.1074  0.0048  0.3995
  569TIP3   OH223341   1.182   5.673   8.861  0.5940  0.5969  0.7065
  569TIP3    H123342   1.212   5.584   8.877  0.5322  0.7297  1.6285
  569TIP3    H223343   1.158   5.706   8.947 -2.9299  0.2473  0.0359
  570TIP3   OH223344   3.023   4.111   9.039 -0.1241  0.2202 -0.1440
  570TIP3    H123345   2.956   4.142   8.979 -0.0158 -0.9641 -0.9094
  570TIP3    H223346   3.056   4.191   9.082 -1.7195  0.8575 -0.0333
  571TIP3   OH223347   6.331   4.729   0.888  0.0304 -0.0341  0.1596
  571TIP3    H123348   6.413   4.777   0.896  0.5788 -1.2394  2.8347
  571TIP3    H223349   6.350   4.657   0.829  1.7235 -1.7164  2.5875
  572TIP3   OH223350   3.588   0.444   8.017  0.1829  0.2786 -0.4733
  572TIP3    H123351   3.608   0.458   7.924 -1.4525 -2.6460 -1.3981
  572TIP3    H223352   3.644   0.370   8.042  1.0025  1.3774  1.0998
  573TIP3   OH223353   6.293   5.895   0.118  0.4088  0.3914  0.0031
  573TIP3    H123354   6.198   5.901   0.126  0.3382  0.3504 -0.7420
  573TIP3    H223355   6.323   5.878   0.208 -0.3344 -0.2601  0.1417
  574TIP3   OH223356   1.692   3.711   8.291  0.4475 -0.0807  0.4202
  574TIP3    H123357   1.750   3.638   8.271  1.7645  0.3982  2.2252
  574TIP3    H223358   1.743   3.789   8.269 -0.6785  0.3403 -0.8270
  575TIP3   OH223359   1.331   3.696   6.874  0.2216 -0.0099  0.5326
  575TIP3    H123360   1.402   3.638   6.901  0.2795 -0.5073 -0.6348
  575TIP3    H223361   1.291   3.724   6.956  1.5774  0.0486  1.1974
  576TIP3   OH223362   5.766   3.248   8.565  0.3342  0.9538 -0.0016
  576TIP3    H123363   5.767   3.232   8.471  0.3782 -1.4274  0.3286
  576TIP3    H223364   5.858   3.256   8.589  0.5804 -1.7599  0.2405
  577TIP3   OH223365   0.178   2.654   1.103  0.5483 -0.6788 -0.7369
  577TIP3    H123366   0.116   2.593   1.143  1.0775 -1.0913 -0.5394
  577TIP3    H223367   0.258   2.603   1.091  1.9503  0.6487  1.9855
  578TIP3   OH223368   5.008   3.864   6.726 -0.4874  0.3154  0.2226
  578TIP3    H123369   5.051   3.797   6.673 -0.8436 -1.4814  2.1059
  578TIP3    H223370   5.019   3.835   6.816  0.3626  3.4209  1.2632
  579TIP3   OH223371   1.147   3.948   0.232  0.0729 -0.0092  0.2605
  579TIP3    H123372   1.113   3.858   0.230  1.8366 -0.7250  0.5319
  579TIP3    H223373   1.098   3.993   0.163  2.5460 -2.5334 -3.5448
  580TIP3   OH223374   0.400   0.328   1.320  0.3262 -0.3179 -0.2712
  580TIP3    H123375   0.476   0.302   1.372  0.3535  0.8767  0.3278
  580TIP3    H223376   0.325   0.293   1.366  0.2865  1.3983  1.0782
  581TIP3   OH223377   3.516   3.304   1.401 -0.2808  0.0221  0.1618
  581TIP3    H123378   3.567   3.383   1.383  0.8461 -0.7357 -0.0616
  581TIP3    H223379   3.550   3.272   1.485 -1.3909  0.2772  0.7279
  582TIP3   OH223380   0.991   5.907   1.473 -0.5933 -0.2655  0.1859
  582TIP3    H123381   0.901   5.934   1.458  0.1839  2.0054 -0.9142
  582TIP3    H223382   1.040   5.989   1.476  1.5025 -1.4493  0.2817
  583TIP3   OH223383   0.707   4.619   1.112 -0.4400  0.0774 -0.0646
  583TIP3    H123384   0.668   4.539   1.147 -0.8642  0.2665 -0.1021
  583TIP3    H223385   0.790   4.591   1.073  0.4419 -0.0416  1.7612
  584TIP3   OH223386   0.956   3.357   1.775  0.5134  0.0887  0.5034
  584TIP3    H123387   1.040   3.349   1.729 -0.1291 -0.6249 -0.5894
  584TIP3    H223388   0.931   3.449   1.762 -0.2146 -0.3598 -1.6442
  585TIP3   OH223389   4.038   4.759   8.717 -0.2604  0.0379  0.2775
  585TIP3    H123390   4.041   4.720   8.805 -0.7175 -0.1479  0.2139
  585TIP3    H223391   4.103   4.830   8.720 -0.3680  0.1194  0.8062
  586TIP3   OH223392   1.469   2.735   6.405 -0.0239 -0.4306 -0.6771
  586TIP3    H123393   1.486   2.816   6.357  1.8903 -0.7070 -0.5598
  586TIP3    H223394   1.554   2.691   6.409 -0.5493 -1.3979  1.1815
  587TIP3   OH223395   1.834   0.128   1.029 -0.1315 -0.6811 -0.1458
  587TIP3    H123396   1.779   0.162   1.100 -2.4202 -0.1001 -2.0535
  587TIP3    H223397   1.847   0.204   0.972 -1.0347 -1.7805 -1.9016
  588TIP3   OH223398   4.188   1.506   2.158  0.2032 -0.0096 -0.8908
  588TIP3    H123399   4.202   1.597   2.183 -1.6185 -0.0219  0.3461
  588TIP3    H223400   4.215   1.502   2.066  0.9774  1.6007 -0.7643
  589TIP3   OH223401   0.789   2.637   7.987 -0.2766 -0.5200  0.6722
  589TIP3    H123402   0.717   2.682   8.031  1.1138  1.3918  1.0938
  589TIP3    H223403   0.799   2.684   7.904  0.6496 -0.6009  0.7319
  590TIP3   OH223404   6.136   0.776   7.648 -0.0658 -0.1876 -0.5472
  590TIP3    H123405   6.053   0.742   7.683 -0.6812 -0.6953 -2.3786
  590TIP3    H223406   6.168   0.706   7.592  2.0382 -0.3087  0.7244
  591TIP3   OH223407   2.889   6.597   0.428  0.7147 -0.1929  0.1480
  591TIP3    H123408   2.815   6.612   0.369 -0.6424 -0.2057  1.7740
  591TIP3    H223409   2.939   6.528   0.386  0.2220  0.3380 -1.3654
  592TIP3   OH223410   3.428   5.159   0.907 -0.9699  0.3270  0.0448
  592TIP3    H123411   3.466   5.111   0.981 -0.3465  0.3077 -0.2792
  592TIP3    H223412   3.408   5.245   0.943  0.3698  0.6987 -0.0206
  593TIP3   OH223413   2.554   3.524   1.195 -0.3136  0.2613  0.0564
  593TIP3    H123414   2.478   3.582   1.193 -0.4081  0.1194 -1.4973
  593TIP3    H223415   2.618   3.565   1.137 -0.2026 -0.9346 -0.7092
  594TIP3   OH223416   3.325   0.165   1.107 -0.3779 -0.2477 -0.9475
  594TIP3    H123417   3.232   0.148   1.092 -0.0602 -1.8354 -1.2013
  594TIP3    H223418   3.363   0.171   1.020 -0.2798  0.7215 -0.8488
  595TIP3   OH223419   2.271   2.001   1.271 -0.0296 -0.0735 -0.6365
  595TIP3    H123420   2.236   2.083   1.306  2.8213  2.0792 -2.4012
  595TIP3    H223421   2.230   1.994   1.184 -2.3002 -2.0804  0.4755
  596TIP3   OH223422   5.507   1.567   1.905 -0.1571  0.0065  0.3230
  596TIP3    H123423   5.413   1.559   1.915 -0.0829  0.8002  2.0821
  596TIP3    H223424   5.522   1.569   1.810 -2.0427  1.2457  0.0052
  597TIP3   OH223425   3.435   0.313   1.514  0.2944  0.0623 -0.1836
  597TIP3    H123426   3.413   0.332   1.606  2.4587 -2.3641  0.9486
  597TIP3    H223427   3.381   0.238   1.492  0.8866 -0.3102 -0.3779
  598TIP3   OH223428   3.482   1.795   7.159  0.4001  0.9684  0.2319
  598TIP3    H123429   3.536   1.868   7.129  0.6129  1.4945  1.8331
  598TIP3    H223430   3.537   1.717   7.145  1.9350  1.5511  2.4723
  599TIP3   OH223431   5.722   2.508   7.415  0.8085  0.2179  0.3568
  599TIP3    H123432   5.790   2.521   7.481  0.5269  1.1229  0.4773
  599TIP3    H223433   5.689   2.596   7.396 -1.3654 -0.3176  1.3788
  600TIP3   OH223434   3.187   3.200   7.657  0.5989  0.0094  0.5415
  600TIP3    H123435   3.212   3.180   7.747 -0.1768 -1.0870  0.5277
  600TIP3    H223436   3.209   3.122   7.607 -1.8432 -0.6525  0.3559
  601TIP3   OH223437   6.306   5.760   8.108  0.2121 -0.2088 -0.0877
  601TIP3    H123438   6.367   5.699   8.149 -0.3138 -0.4737  0.3221
  601TIP3    H223439   6.357   5.840   8.094  1.2722 -1.1169 -1.7589
  602TIP3   OH223440   2.624   3.828   7.175 -0.0789  0.2789 -0.2973
  602TIP3    H123441   2.701   3.876   7.204 -0.4499  0.3133  0.6966
  602TIP3    H223442   2.613   3.851   7.083  2.2539 -1.2988 -1.0345
  603TIP3   OH223443   5.289   1.034   7.644 -0.2659  0.1765 -0.1598
  603TIP3    H123444   5.267   1.111   7.591 -0.9264  0.2555  0.2115
  603TIP3    H223445   5.292   1.067   7.733 -2.4339 -0.5478  0.2490
  604TIP3   OH223446   4.993   0.061   1.410  0.0435 -0.0835  0.4159
  604TIP3    H123447   4.918   0.120   1.406 -0.2279 -0.4258  0.4630
  604TIP3    H223448   5.068   0.119   1.419 -0.2989  0.2379  1.3485
  605TIP3   OH223449   4.263   2.836   8.046  0.5372  0.3233  0.1808
  605TIP3    H123450   4.333   2.796   8.098 -0.9816 -1.4077  0.9943
  605TIP3    H223451   4.260   2.927   8.077  2.0022  0.2724  0.5516
  606TIP3   OH223452   5.587   1.251   8.052 -0.5960 -0.3870  0.4206
  606TIP3    H123453   5.651   1.186   8.082  0.9104  0.6126 -0.4729
  606TIP3    H223454   5.582   1.237   7.957 -2.0666 -0.7413  0.5376
  607TIP3   OH223455   5.553   5.123   8.375 -0.1321  0.2169  0.5578
  607TIP3    H123456   5.499   5.048   8.348  0.1962 -0.1319  0.8520
  607TIP3    H223457   5.603   5.091   8.450 -0.8804  1.1115  1.4570
  608TIP3   OH223458   3.371   0.198   7.605  0.4433 -0.1678  1.1457
  608TIP3    H123459   3.351   0.291   7.616 -0.0932 -0.0375 -0.5749
  608TIP3    H223460   3.404   0.170   7.690  0.3194  1.5210  1.7869
  609TIP3   OH223461   4.921   0.140   8.445  0.1620  0.0046  0.0758
  609TIP3    H123462   4.947   0.051   8.424  0.4405  0.1106 -0.0327
  609TIP3    H223463   4.931   0.188   8.363 -0.6281 -0.0078 -0.0364
  610TIP3   OH223464   5.193   0.191   1.132 -0.1885  0.3405  0.3150
  610TIP3    H123465   5.124   0.132   1.101  1.2821 -2.1919  1.4900
  610TIP3    H223466   5.271   0.136   1.137  1.6688  2.7862  0.1977
  611TIP3   OH223467   5.252   4.167   1.297  0.1714 -0.0345  0.1917
  611TIP3    H123468   5.237   4.206   1.211 -1.1643  0.8042  0.7712
  611TIP3    H223469   5.270   4.242   1.354 -1.1406 -0.3397  1.0625
  612TIP3   OH223470   3.865   4.512   0.720  0.0961 -0.3009  0.3474
  612TIP3    H123471   3.909   4.597   0.719 -2.0209  0.8577 -0.5214
  612TIP3    H223472   3.857   4.488   0.627 -0.3315 -0.8882  0.5291
  613TIP3   OH223473   0.643   1.086   8.802  0.3254  0.1407 -0.5500
  613TIP3    H123474   0.583   1.160   8.799  1.0511  0.7695  0.1383
  613TIP3    H223475   0.594   1.016   8.845 -0.3044  0.2641 -1.0524
  614TIP3   OH223476   1.221   3.768   7.140  0.3426 -0.2067  0.2642
  614TIP3    H123477   1.221   3.736   7.231 -0.9054  0.5098  0.5374
  614TIP3    H223478   1.199   3.861   7.148 -1.2700 -0.4621 -0.8549
  615TIP3   OH223479   1.873   0.903   2.077 -0.2837 -0.0079 -0.3575
  615TIP3    H123480   1.803   0.867   2.132 -0.9475  0.5741 -0.8182
  615TIP3    H223481   1.867   0.853   1.995  1.6721 -1.9463  0.5669
  616TIP3   OH223482   1.402   4.786   1.228  0.2537  0.1062 -0.0003
  616TIP3    H123483   1.449   4.854   1.180 -0.0203  0.0648 -0.3332
  616TIP3    H223484   1.429   4.797   1.319  2.1483 -0.9332 -0.3850
  617TIP3   OH223485   5.154   5.674   1.104 -0.3552  0.7223  0.4970
  617TIP3    H123486   5.159   5.619   1.182  1.8092 -1.2913 -0.9422
  617TIP3    H223487   5.175   5.762   1.136 -0.4498  0.1173  2.3305
  618TIP3   OH223488   4.479   4.076   0.464 -0.1475  0.5626  0.3598
  618TIP3    H123489   4.476   4.166   0.431 -0.6628  0.6929  0.7430
  618TIP3    H223490   4.513   4.085   0.553  1.9362  0.1440 -0.3482
  619TIP3   OH223491   3.710   4.867   0.653  0.6299  0.4608 -0.1147
  619TIP3    H123492   3.708   4.858   0.748 -0.3618 -0.3268 -0.1929
  619TIP3    H223493   3.677   4.783   0.620  0.4372  0.9186 -1.1377
  620TIP3   OH223494   2.836   3.128   0.767  0.4034 -0.4204 -0.1616
  620TIP3    H123495   2.827   3.142   0.672 -2.2654 -1.8175 -0.2223
  620TIP3    H223496   2.763   3.178   0.805 -0.0568 -1.8175  0.8860
  621TIP3   OH223497   4.582   1.275   1.133  0.2414  0.0570  0.5178
  621TIP3    H123498   4.651   1.214   1.108  1.5277  1.5677  0.2433
  621TIP3    H223499   4.563   1.323   1.053  0.4830  1.1879  1.1306
  622TIP3   OH223500   1.336   6.617   2.613 -0.0981 -0.5165  0.9031
  622TIP3    H123501   1.358   6.668   2.690  0.3242 -1.1822  1.2364
  622TIP3    H223502   1.262   6.663   2.573 -1.4831 -1.0926  2.6505
  623TIP3   OH223503   0.188   2.542   8.073  0.0606  0.2029  0.2884
  623TIP3    H123504   0.195   2.527   7.979 -0.7543  2.2489 -0.1526
  623TIP3    H223505   0.094   2.533   8.091  0.2115 -0.1561  0.9011
  624TIP3   OH223506   4.890   1.821   8.140  0.2991  0.4088  0.3104
  624TIP3    H123507   4.971   1.861   8.174 -2.1632  2.3002  4.9380
  624TIP3    H223508   4.891   1.732   8.176  0.0330  0.6998  1.0686
  625TIP3   OH223509   6.010   0.207   8.168 -0.0923  0.3155  0.2269
  625TIP3    H123510   6.093   0.178   8.129 -1.1994 -1.2740 -1.0730
  625TIP3    H223511   6.029   0.217   8.261  1.0534 -2.1484  0.3318
  626TIP3   OH223512   2.351   4.994   8.481  0.2966  0.2595 -0.3905
  626TIP3    H123513   2.438   5.020   8.513  0.1354 -0.1925  0.4425
  626TIP3    H223514   2.320   4.930   8.545 -0.7135  0.5166 -0.6014
  627TIP3   OH223515   6.000   6.403   7.207 -0.3824  0.8012  0.1830
  627TIP3    H123516   6.071   6.394   7.271 -0.1251  0.7974 -0.0967
  627TIP3    H223517   6.045   6.427   7.126 -0.7509  1.3323  0.1274
  628TIP3   OH223518   5.677   1.924   7.708 -0.0823 -0.0923  0.4006
  628TIP3    H123519   5.738   1.853   7.730  0.3762  0.2780  0.3340
  628TIP3    H223520   5.731   1.990   7.665 -0.3684  0.6475  1.1630
  629TIP3   OH223521   0.766   4.387   0.746  0.6339 -0.1713  0.0217
  629TIP3    H123522   0.793   4.336   0.669 -0.1228 -1.3326  0.4914
  629TIP3    H223523   0.719   4.462   0.710 -1.0147 -1.4583 -0.6514
  630TIP3   OH223524   1.010   0.614   8.434 -0.3179 -0.1131 -0.6728
  630TIP3    H123525   1.044   0.673   8.367  0.5276 -0.3841 -0.4934
  630TIP3    H223526   0.956   0.552   8.386 -2.6437  1.7733 -0.6823
  631TIP3   OH223527   5.632   0.065   1.690  0.2469  0.1269  0.7002
  631TIP3    H123528   5.618   0.121   1.766 -1.5753  0.5590  0.0921
  631TIP3    H223529   5.594  -0.019   1.714  2.6357 -0.8200  1.4645
  632TIP3   OH223530   5.091   4.711   1.500  0.8797 -0.4697  0.1685
  632TIP3    H123531   5.028   4.774   1.534  2.7937  0.6728  1.8404
  632TIP3    H223532   5.045   4.668   1.428 -0.4925  3.0653 -1.3358
  633TIP3   OH223533   0.079   0.668   8.995  0.2437 -0.5619  0.1143
  633TIP3    H123534   0.047   0.650   8.907  0.2064 -0.7054  0.1573
  633TIP3    H223535   0.011   0.722   9.035  0.7863  0.4980 -0.3399
  634TIP3   OH223536   3.970   0.468   7.771  0.4287 -0.0539 -0.1307
  634TIP3    H123537   3.978   0.456   7.676 -0.5449 -0.6549 -0.1607
  634TIP3    H223538   3.879   0.443   7.790 -0.1378  2.3299  0.6335
  635TIP3   OH223539   4.613   3.424   0.089 -0.3106  0.0763  0.5890
  635TIP3    H123540   4.537   3.372   0.112 -0.0580 -0.3334  0.5169
  635TIP3    H223541   4.607   3.502   0.143 -1.2208  0.4371 -0.0176
  636TIP3   OH223542   1.202   2.085   1.723 -0.5363  0.2103 -0.3503
  636TIP3    H123543   1.176   2.124   1.640 -0.1764  1.9445  0.3065
  636TIP3    H223544   1.296   2.070   1.714 -0.8424 -1.5620 -0.9775
  637TIP3   OH223545   3.415   1.185   8.808  0.4036 -0.1825 -0.0773
  637TIP3    H123546   3.460   1.187   8.724 -0.8331 -1.9600 -0.8379
  637TIP3    H223547   3.395   1.277   8.827  0.1215  0.1970 -2.0437
  638TIP3   OH223548   4.371   6.680   0.141  0.3956  0.2764  0.0971
  638TIP3    H123549   4.345   6.738   0.069 -1.8267 -1.1342 -0.3183
  638TIP3    H223550   4.383   6.739   0.216 -0.2390  1.4480 -0.6925
  639TIP3   OH223551   0.342   5.422   7.501  0.1663 -0.0100  0.1747
  639TIP3    H123552   0.342   5.331   7.531 -0.3861  0.3899  1.4661
  639TIP3    H223553   0.259   5.431   7.454 -0.9265  0.4293  2.0959
  640TIP3   OH223554   4.012   4.311   8.305  0.0199  0.1872  0.4572
  640TIP3    H123555   4.084   4.360   8.266 -0.3004 -0.0364 -0.4403
  640TIP3    H223556   3.982   4.252   8.235 -2.3483  1.6973  0.0964
  641TIP3   OH223557   5.454   0.673   7.998 -0.5208 -0.4511 -0.2008
  641TIP3    H123558   5.539   0.692   8.039 -0.9954 -0.4944  0.8297
  641TIP3    H223559   5.476   0.647   7.909  0.4094  1.6333 -0.6579
  642TIP3   OH223560   0.792   0.792   8.302 -0.0969 -0.1903  0.3851
  642TIP3    H123561   0.808   0.839   8.384  0.3839 -1.1097  0.8330
  642TIP3    H223562   0.710   0.746   8.317 -1.0299  1.1549 -0.3717
  643TIP3   OH223563   3.165   6.372   7.335  0.3768 -0.2075 -0.1384
  643TIP3    H123564   3.070   6.363   7.326  0.6534 -3.3830 -1.4177
  643TIP3    H223565   3.182   6.463   7.313 -2.4013  0.6152  0.6705
  644TIP3   OH223566   4.536   3.539   2.368 -0.1841 -0.8939 -0.5784
  644TIP3    H123567   4.445   3.528   2.395  0.0960 -1.2529  0.2368
  644TIP3    H223568   4.567   3.615   2.416 -0.2013 -0.4553 -1.2542
  645TIP3   OH223569   6.665   4.422   8.800 -0.7999 -0.8795  1.0209
  645TIP3    H123570   6.750   4.459   8.777 -0.9850 -0.7246  0.5554
  645TIP3    H223571   6.682   4.362   8.872 -0.4696  0.0057  1.6909
  646TIP3   OH223572   6.214   2.964   2.617  0.2090  0.2904 -0.0128
  646TIP3    H123573   6.220   3.057   2.639 -2.1488  0.5841 -0.3172
  646TIP3    H223574   6.290   2.947   2.562  1.2593  1.7546  0.8998
  647TIP3   OH223575   5.394   5.830   0.478  0.4505  0.7068  0.2388
  647TIP3    H123576   5.464   5.846   0.415 -0.0402  1.8288 -0.0472
  647TIP3    H223577   5.435   5.843   0.564  0.4665  1.9896  0.0591
  648TIP3   OH223578   3.763   3.763   1.757 -0.6202 -0.5989  0.0610
  648TIP3    H123579   3.781   3.767   1.851  0.5153  1.4130 -0.1630
  648TIP3    H223580   3.679   3.809   1.746 -0.2266  0.1316  0.0174
  649TIP3   OH223581   1.420   3.698   8.349 -0.2670 -0.0014  0.1442
  649TIP3    H123582   1.510   3.688   8.318  0.1470  1.8706  0.6702
  649TIP3    H223583   1.385   3.772   8.299 -1.4339 -0.4980  0.1783
  650TIP3   OH223584   5.620   5.724   2.370 -0.4579 -0.3723 -0.0564
  650TIP3    H123585   5.562   5.667   2.420 -0.2347 -1.4365 -0.9811
  650TIP3    H223586   5.701   5.726   2.420 -1.2636  1.1790  1.2810
  651TIP3   OH223587   5.279   1.840   1.247  0.0645  0.0711  0.3949
  651TIP3    H123588   5.203   1.856   1.192  0.0363 -0.3720  0.3044
  651TIP3    H223589   5.249   1.857   1.336  0.1733  1.0228  0.2581
  652TIP3   OH223590   0.752   3.096   8.215 -0.5477  0.3084 -0.2099
  652TIP3    H123591   0.743   3.001   8.211 -0.7326  0.3550 -1.5631
  652TIP3    H223592   0.836   3.110   8.260 -0.2275 -0.5185 -0.5175
  653TIP3   OH223593   1.915   1.516   0.254  0.1261 -0.0087 -0.1440
  653TIP3    H123594   1.950   1.434   0.287  1.5709 -0.3190 -2.2499
  653TIP3    H223595   1.975   1.542   0.185  0.0430  3.1358  0.7961
  654TIP3   OH223596   5.307   5.476   0.599  0.1140  0.4994  0.2766
  654TIP3    H123597   5.343   5.511   0.517 -0.8358  1.5169  0.2692
  654TIP3    H223598   5.273   5.390   0.575 -2.5901  1.8270 -1.1177
  655TIP3   OH223599   5.416   0.637   6.753  0.2321  0.0900  0.2210
  655TIP3    H123600   5.415   0.544   6.774 -1.3274  0.0441  0.0868
  655TIP3    H223601   5.328   0.655   6.718  0.9936  1.2732 -1.2203
  656TIP3   OH223602   4.008   5.581   7.514  0.0520  0.1401 -0.5609
  656TIP3    H123603   4.086   5.606   7.564 -0.5252 -0.2718  0.5683
  656TIP3    H223604   3.995   5.488   7.535 -2.0007  0.7403  1.0080
  657TIP3   OH223605   6.659   3.262   8.259 -0.0326  0.0729 -0.3140
  657TIP3    H123606   6.567   3.285   8.244  0.1125  1.0142  0.1471
  657TIP3    H223607   6.707   3.314   8.195  0.1948 -0.3077 -0.4544
  658TIP3   OH223608   4.957   3.689   7.793 -0.6340 -0.3332 -0.2081
  658TIP3    H123609   4.995   3.678   7.706 -0.7868 -0.0847 -0.3093
  658TIP3    H223610   4.901   3.767   7.784  1.0256  1.0157  0.6736
  659TIP3   OH223611   0.534   6.089   0.194  0.2579 -0.2362 -0.5823
  659TIP3    H123612   0.563   6.178   0.213  1.7591 -1.0660  1.4604
  659TIP3    H223613   0.506   6.054   0.279 -0.1573 -1.7414 -1.3055
  660TIP3   OH223614   4.391   4.649   1.699  0.4949 -1.2984 -0.2267
  660TIP3    H123615   4.433   4.717   1.751 -0.4368 -0.1438 -0.9386
  660TIP3    H223616   4.299   4.652   1.724  0.3771 -2.0684 -0.5273
  661TIP3   OH223617   1.917   3.109   7.199 -0.6639  0.1961  0.2656
  661TIP3    H123618   1.973   3.037   7.171 -0.3922 -0.0785  1.4793
  661TIP3    H223619   1.891   3.152   7.117  1.5255  0.5162 -0.3226
  662TIP3   OH223620   2.313   4.575   6.833 -0.0459  0.6128  0.6014
  662TIP3    H123621   2.323   4.624   6.752 -0.6550  1.4210  0.9990
  662TIP3    H223622   2.275   4.492   6.806  1.5699  0.0798 -0.1536
  663TIP3   OH223623   3.811   1.141   8.942  0.1408  0.0468 -0.2764
  663TIP3    H123624   3.850   1.222   8.974 -1.4494  1.0398 -0.6877
  663TIP3    H223625   3.850   1.128   8.856 -0.3377  0.9926 -0.6590
  664TIP3   OH223626   6.519   3.044   1.772  0.3088  0.5068 -0.5948
  664TIP3    H123627   6.582   3.106   1.735  3.1750 -0.8924  1.4611
  664TIP3    H223628   6.568   2.962   1.777 -1.3419 -0.4294  2.0317
  665TIP3   OH223629   3.001   4.243   0.986 -0.4015 -0.0134 -0.6077
  665TIP3    H123630   3.081   4.191   0.996  1.1315  2.3144  0.2042
  665TIP3    H223631   3.002   4.270   0.894 -0.6422 -0.5487 -0.7713
  666TIP3   OH223632   4.465   1.228   8.677 -0.5187  0.5304  0.2299
  666TIP3    H123633   4.484   1.137   8.657 -1.4045 -0.2915  2.7546
  666TIP3    H223634   4.502   1.277   8.604  2.3938 -1.6474  0.0751
  667TIP3   OH223635   5.708   0.793   0.087  0.1526 -0.1222  0.1114
  667TIP3    H123636   5.687   0.870   0.034  0.1789 -0.6274 -0.6482
  667TIP3    H223637   5.746   0.731   0.025 -1.5750 -1.4680  0.3231
  668TIP3   OH223638   0.259   5.985   1.307 -0.1194  0.1777  0.5408
  668TIP3    H123639   0.240   6.042   1.232  2.0741  2.3997  1.5367
  668TIP3    H223640   0.267   5.898   1.269 -1.6974  0.7769 -1.3666
  669TIP3   OH223641   6.320   0.338   6.727 -0.4462 -0.3724  0.1480
  669TIP3    H123642   6.270   0.288   6.792 -0.2290  0.7715  1.2328
  669TIP3    H223643   6.268   0.332   6.647 -1.6618 -0.3307  0.9014
  670TIP3   OH223644   3.549   6.133   0.797  0.1829 -0.2169  0.0741
  670TIP3    H123645   3.607   6.171   0.731  0.3488 -0.4014  0.1154
  670TIP3    H223646   3.488   6.204   0.819  2.4913  1.1708  2.5573
  671TIP3   OH223647   2.377   2.443   7.954 -0.1165 -1.1169  0.4668
  671TIP3    H123648   2.312   2.512   7.963  1.8819  1.2211 -1.5347
  671TIP3    H223649   2.439   2.458   8.025  1.6432  0.8702 -1.3464
  672TIP3   OH223650   2.357   4.783   7.783 -0.1491 -0.0209 -0.2087
  672TIP3    H123651   2.377   4.842   7.856 -0.6553  0.2399 -0.2767
  672TIP3    H223652   2.432   4.725   7.778  1.4668  2.0227 -1.5513
  673TIP3   OH223653   6.306   0.887   7.097 -0.1920  0.0630 -0.6891
  673TIP3    H123654   6.261   0.971   7.097 -0.4216 -0.0603 -0.6555
  673TIP3    H223655   6.392   0.906   7.135 -0.0420  0.3899 -1.1676
  674TIP3   OH223656   2.705   4.484   1.031  0.0077  0.0576 -0.6658
  674TIP3    H123657   2.615   4.461   1.010 -0.1381  0.5934 -0.6382
  674TIP3    H223658   2.742   4.404   1.067  0.1243 -0.7474 -2.4810
  675TIP3   OH223659   3.294   4.566   2.315 -0.1439  0.0034 -0.4356
  675TIP3    H123660   3.331   4.653   2.327  0.1380 -0.2256  0.4350
  675TIP3    H223661   3.208   4.570   2.356 -0.0489 -0.1817 -0.2140
  676TIP3   OH223662   1.467   4.729   8.302 -0.4453  0.2339  0.2903
  676TIP3    H123663   1.521   4.685   8.236  0.4136  0.8704  0.5501
  676TIP3    H223664   1.425   4.658   8.350  0.9480 -0.3258  0.7331
  677TIP3   OH223665   1.691   6.507   8.957 -0.0880  0.3842 -0.1724
  677TIP3    H123666   1.702   6.522   8.864 -1.4715  0.1661 -0.3928
  677TIP3    H223667   1.637   6.428   8.963  1.5601 -0.7058  0.8607
  678TIP3   OH223668   3.852   4.551   2.871 -0.3185 -0.0919 -0.0834
  678TIP3    H123669   3.836   4.614   2.942 -0.4226  1.0842 -1.1059
  678TIP3    H223670   3.799   4.584   2.798  2.0115  0.4530 -1.6539
  679TIP3   OH223671   2.186   3.081   8.179  0.0130  0.3916  0.2488
  679TIP3    H123672   2.134   3.060   8.257 -0.9650  1.8932  0.0341
  679TIP3    H223673   2.208   3.173   8.189  0.4530  0.4332 -0.9397
  680TIP3   OH223674   0.544   2.882   7.488  0.1970 -0.1535 -0.3782
  680TIP3    H123675   0.512   2.909   7.574  0.8494  1.0707 -0.4958
  680TIP3    H223676   0.466   2.880   7.433 -0.0789  0.0436  0.0021
  681TIP3   OH223677   2.357   5.812   8.250  0.2224 -0.2344  0.5351
  681TIP3    H123678   2.298   5.832   8.178  0.7933 -1.2052 -0.2301
  681TIP3    H223679   2.302   5.819   8.328 -0.1686  1.8260  0.1354
  682TIP3   OH223680   1.441   6.513   8.481 -0.0784  0.3729 -0.3633
  682TIP3    H123681   1.373   6.577   8.501  0.0087  0.6007 -0.7662
  682TIP3    H223682   1.394   6.439   8.442 -0.2440 -0.0638  0.6489
  683TIP3   OH223683   0.251   0.318   0.468 -0.0073 -0.5094  0.4109
  683TIP3    H123684   0.288   0.311   0.380  2.1641 -0.7233  1.2763
  683TIP3    H223685   0.166   0.273   0.462 -0.0007 -0.3531 -1.5896
  684TIP3   OH223686   3.292   1.560   0.159  0.2595  0.1229  0.8886
  684TIP3    H123687   3.385   1.583   0.158  0.4772 -0.6740 -0.4649
  684TIP3    H223688   3.272   1.544   0.251  1.7326 -0.6970  1.0974
  685TIP3   OH223689   3.195   5.229   1.160  0.5762  0.1580  0.2440
  685TIP3    H123690   3.195   5.146   1.112 -0.5466  0.6123 -0.5833
  685TIP3    H223691   3.264   5.280   1.120  0.6557 -0.0334  0.1333
  686TIP3   OH223692   0.253   5.750   8.516  0.4261  0.1639  0.0431
  686TIP3    H123693   0.207   5.756   8.599  0.4719  1.1859  0.0085
  686TIP3    H223694   0.333   5.702   8.536  0.8691  1.1724  0.7976
  687TIP3   OH223695   1.602   1.561   1.672 -0.0036  0.7847 -0.3467
  687TIP3    H123696   1.582   1.627   1.606  0.1075  0.2696 -0.9040
  687TIP3    H223697   1.669   1.602   1.728 -0.4140  1.3816 -0.2902
  688TIP3   OH223698   5.429   1.551   7.425  0.0040 -0.2101  0.0145
  688TIP3    H123699   5.455   1.635   7.388 -1.2158 -0.3683 -1.2852
  688TIP3    H223700   5.378   1.575   7.503 -0.0738  0.2389 -0.1698
  689TIP3   OH223701   0.941   0.176   1.119  0.4328 -0.2779  0.2723
  689TIP3    H123702   0.858   0.132   1.139  0.4085 -0.7977 -0.9126
  689TIP3    H223703   0.922   0.269   1.129  0.0008 -0.4338  1.0224
  690TIP3   OH223704   5.193   2.296   1.278 -0.3983  0.2399  0.6180
  690TIP3    H123705   5.174   2.282   1.186 -2.6874 -1.3244  1.2510
  690TIP3    H223706   5.270   2.241   1.296 -1.5407 -1.5862  0.1763
  691TIP3   OH223707   3.682   0.855   1.458  0.2218  0.0789 -0.4044
  691TIP3    H123708   3.591   0.854   1.427  0.0760  0.7728 -0.0177
  691TIP3    H223709   3.734   0.831   1.381 -0.4085 -2.3625 -0.1268
  692TIP3   OH223710   6.350   3.712   8.566  0.4914 -0.5267  0.0357
  692TIP3    H123711   6.398   3.659   8.503 -0.4938 -1.8761  0.3575
  692TIP3    H223712   6.326   3.791   8.518 -0.4306 -1.6172 -1.4097
  693TIP3   OH223713   0.513   3.476   1.232  0.3436  0.4606 -0.4757
  693TIP3    H123714   0.585   3.417   1.253 -0.7598 -0.9685 -0.5269
  693TIP3    H223715   0.435   3.422   1.241 -0.7202  1.9188 -0.5869
  694TIP3   OH223716   1.817   3.636   1.275 -0.2351 -0.3018  0.0006
  694TIP3    H123717   1.861   3.555   1.251  0.5851  0.1530 -0.0574
  694TIP3    H223718   1.790   3.623   1.366  0.2049 -0.4972  0.1013
  695TIP3   OH223719   5.076   2.934   1.613  0.0398  0.6655  0.0439
  695TIP3    H123720   4.987   2.957   1.638 -0.1448  0.1713 -0.1436
  695TIP3    H223721   5.073   2.840   1.597  0.5522  0.6775 -0.1495
  696TIP3   OH223722   5.857   0.513   1.501 -0.2648 -0.0522 -0.1321
  696TIP3    H123723   5.835   0.467   1.582 -0.9728  0.2551 -0.1447
  696TIP3    H223724   5.882   0.601   1.530 -0.0535 -0.0850 -0.2105
  697TIP3   OH223725   1.753   3.657   8.932  0.0596  0.2981 -0.3193
  697TIP3    H123726   1.805   3.697   9.001 -0.3663  1.3813 -0.6176
  697TIP3    H223727   1.665   3.692   8.944 -0.6573 -1.5537  0.2101
  698TIP3   OH223728   0.073   6.474   8.422  0.4022  0.2037  0.7065
  698TIP3    H123729   0.086   6.401   8.483  0.1808  0.0576  0.5819
  698TIP3    H223730   0.116   6.444   8.341  0.5021  0.3043  0.7225
  699TIP3   OH223731   4.006   6.479   8.086  0.2434  0.2479 -0.1880
  699TIP3    H123732   4.029   6.404   8.141  2.1864  1.9479  1.4702
  699TIP3    H223733   3.946   6.530   8.139  0.1317  0.6457 -0.6893
  700TIP3   OH223734   4.406   2.920   0.950  0.1306  0.1472 -0.1370
  700TIP3    H123735   4.339   2.881   0.894  0.0796  1.1432 -0.7888
  700TIP3    H223736   4.437   2.996   0.901  0.1252  1.0179  1.1576
  701TIP3   OH223737   5.223   0.508   8.672 -0.0332  0.0636  0.2722
  701TIP3    H123738   5.260   0.596   8.682 -2.1168  0.8302  2.3161
  701TIP3    H223739   5.173   0.512   8.590 -0.0813  0.8081  0.3280
  702TIP3   OH223740   2.636   1.915   0.493 -0.2293 -0.0206 -0.4786
  702TIP3    H123741   2.687   1.983   0.450 -1.7205  1.2473 -0.3145
  702TIP3    H223742   2.689   1.890   0.569  0.8381  0.1587 -1.1455
  703TIP3   OH223743   0.381   3.738   8.404 -0.0423  0.0409  0.1978
  703TIP3    H123744   0.374   3.733   8.499  0.6442  0.2181  0.2585
  703TIP3    H223745   0.384   3.646   8.375  0.3600 -0.0090  0.3937
  704TIP3   OH223746   4.622   2.815   1.158  0.7227  0.3407 -0.1235
  704TIP3    H123747   4.558   2.857   1.100 -0.9175 -1.0231  0.6079
  704TIP3    H223748   4.684   2.773   1.098  0.4418  0.9348 -0.8597
  705TIP3   OH223749   2.002   1.145   1.321  0.0548 -0.1536  0.2682
  705TIP3    H123750   2.023   1.149   1.228 -1.0568  0.9526  0.0439
  705TIP3    H223751   1.943   1.070   1.329 -2.0243  1.3172 -0.4247
  706TIP3   OH223752   1.721   6.283   7.196  0.2502 -0.1422 -0.1109
  706TIP3    H123753   1.664   6.340   7.145 -0.4855 -1.1242 -0.4030
  706TIP3    H223754   1.797   6.338   7.217 -0.8738  1.2339  0.4519
  707TIP3   OH223755   5.248   2.670   1.484  0.2065  0.6313  0.5076
  707TIP3    H123756   5.263   2.761   1.460 -0.7922  0.6426 -0.0823
  707TIP3    H223757   5.232   2.625   1.401 -2.6034  0.5515  0.9893
  708TIP3   OH223758   6.692   2.237   8.037  0.2179 -0.0939  0.4119
  708TIP3    H123759   6.705   2.301   7.967  1.3354  1.8873  2.3092
  708TIP3    H223760   6.604   2.202   8.021 -1.3968  3.5014  0.3914
  709TIP3   OH223761   0.186   2.529   0.491  0.2417  0.0824  0.0101
  709TIP3    H123762   0.106   2.478   0.484  1.0587 -1.1706 -0.6026
  709TIP3    H223763   0.172   2.587   0.565 -1.4384  0.2857 -0.4322
  710TIP3   OH223764   2.330   2.710   0.252  0.2818 -0.3959  0.3947
  710TIP3    H123765   2.374   2.755   0.324 -2.1110  1.5434  0.7593
  710TIP3    H223766   2.239   2.740   0.257 -0.1897 -0.9961 -2.8150
  711TIP3   OH223767   6.114   3.905   0.002  0.7631  0.4088  0.2327
  711TIP3    H123768   6.079   3.816   0.004  0.0067  0.6456 -1.0381
  711TIP3    H223769   6.056   3.955   0.060  0.7664  0.2075  0.4097
  712TIP3   OH223770   6.232   2.747   0.030  0.0326  0.4679  0.1993
  712TIP3    H123771   6.316   2.776  -0.004 -0.0736  2.0035  1.1118
  712TIP3    H223772   6.214   2.664  -0.014  1.8035  0.3421 -0.3299
  713TIP3   OH223773   3.567   1.281   0.558 -0.2306 -0.0758  0.1400
  713TIP3    H123774   3.483   1.295   0.514 -1.1168 -0.7043  1.5624
  713TIP3    H223775   3.544   1.247   0.645  1.5160 -1.3227  0.1809
  714TIP3   OH223776   4.887   5.716   0.763  0.0398  0.4480  0.1161
  714TIP3    H123777   4.886   5.625   0.791 -0.7926  0.1244 -0.9136
  714TIP3    H223778   4.796   5.735   0.739  0.2434  1.4880  0.1042
  715TIP3   OH223779   5.870   3.421   8.111 -0.2083 -0.0366  0.3644
  715TIP3    H123780   5.897   3.348   8.168 -0.1698  0.6691  1.2686
  715TIP3    H223781   5.881   3.499   8.165 -0.5920  0.6129 -0.4766
  716TIP3   OH223782   1.554   1.471   0.059  0.0662  0.1072  0.0542
  716TIP3    H123783   1.533   1.446  -0.031  2.6672  0.4918 -0.7227
  716TIP3    H223784   1.519   1.399   0.113 -5.4990  1.8308 -0.6438
  717TIP3   OH223785   6.288   3.947   8.398 -0.1519  0.4845  0.2710
  717TIP3    H123786   6.271   4.011   8.330  0.6531 -0.1874 -0.5820
  717TIP3    H223787   6.250   3.865   8.365 -1.2271  0.5135  1.3718
  718TIP3   OH223788   6.013   2.361   1.896 -0.3407 -0.3861  0.0454
  718TIP3    H123789   6.029   2.279   1.943  0.4250  0.2864  1.0219
  718TIP3    H223790   6.100   2.393   1.873 -0.5600  0.6335  0.5614
  719TIP3   OH223791   4.736   6.533   1.726 -0.4191 -0.3388  0.5731
  719TIP3    H123792   4.819   6.539   1.773 -0.2135  0.0941  0.1697
  719TIP3    H223793   4.733   6.442   1.695  0.6589  0.0298 -0.7226
  720TIP3   OH223794   0.180   3.921   7.836 -0.1021 -0.4583 -0.3522
  720TIP3    H123795   0.162   3.942   7.744 -0.6181  1.5573  0.1626
  720TIP3    H223796   0.175   4.005   7.881  0.5893 -1.3441  1.4698
  721TIP3   OH223797   1.653   5.307   1.660 -0.0197 -0.4153 -0.7366
  721TIP3    H123798   1.693   5.393   1.648  1.3944 -0.6057  1.8770
  721TIP3    H223799   1.709   5.248   1.610  1.9095 -0.3840  1.2271
  722TIP3   OH223800   5.703   4.053   2.476 -0.3423 -0.0039 -0.3150
  722TIP3    H123801   5.709   4.004   2.394  1.9067 -0.9101  0.3195
  722TIP3    H223802   5.749   4.135   2.458 -1.1195  0.4403 -0.3499
  723TIP3   OH223803   4.324   3.299   0.439 -0.4578 -0.6768  0.1496
  723TIP3    H123804   4.307   3.388   0.469  1.4659  0.5057 -1.9458
  723TIP3    H223805   4.247   3.276   0.387 -0.7151  0.0109  0.2145
  724TIP3   OH223806   6.666   4.011   1.628  0.4471 -0.4020  0.1496
  724TIP3    H123807   6.743   3.954   1.624  0.1686 -0.7115 -2.6494
  724TIP3    H223808   6.671   4.063   1.548 -1.6207  0.4469  0.5222
  725TIP3   OH223809   4.236   5.466   7.669  0.4147 -0.0841 -0.4048
  725TIP3    H123810   4.262   5.376   7.649  1.9528  0.0249  0.8973
  725TIP3    H223811   4.192   5.460   7.754  0.8091  0.4299 -0.1598
  726TIP3   OH223812   6.397   4.629   2.078  0.2004 -0.0674 -0.0659
  726TIP3    H123813   6.445   4.567   2.132 -0.5961  0.4824  1.3283
  726TIP3    H223814   6.356   4.688   2.141 -0.5733  0.7386 -1.2956
  727TIP3   OH223815   3.133   3.417   1.281 -0.5882 -0.7963  0.0222
  727TIP3    H123816   3.129   3.398   1.188  1.7776 -1.8651  0.0557
  727TIP3    H223817   3.198   3.487   1.289  0.4686 -1.8276  0.9433
  728TIP3   OH223818   4.614   5.480   0.672 -0.0959 -0.0734  0.3507
  728TIP3    H123819   4.594   5.421   0.599  3.2649 -0.1185 -0.7139
  728TIP3    H223820   4.677   5.431   0.725  0.9805  1.6380  0.7302
  729TIP3   OH223821   4.555   1.650   7.393 -0.4610  0.0054  0.6327
  729TIP3    H123822   4.492   1.692   7.451  0.6300  1.3415  0.9101
  729TIP3    H223823   4.502   1.602   7.330 -1.7075 -0.1599  1.7614
  730TIP3   OH223824   3.007   4.875   1.659  0.0366  0.2879 -0.0076
  730TIP3    H123825   2.962   4.930   1.722 -1.2781  0.1876 -0.8082
  730TIP3    H223826   2.937   4.841   1.603  1.0928 -0.0717 -1.1614
  731TIP3   OH223827   2.843   0.892   1.968  0.2921  0.1311 -0.3060
  731TIP3    H123828   2.820   0.799   1.973  0.2694  0.0571 -1.5667
  731TIP3    H223829   2.794   0.925   1.893  0.6249  1.0755 -0.1268
  732TIP3   OH223830   5.334   4.039   7.424  0.0709  0.1043 -0.2612
  732TIP3    H123831   5.412   3.996   7.390 -0.0875 -2.5851  2.3266
  732TIP3    H223832   5.262   3.982   7.397 -0.2635 -0.9042  2.4550
  733TIP3   OH223833   2.474   4.443   0.256  0.2861  0.6515 -0.2371
  733TIP3    H123834   2.450   4.382   0.186  1.4733  0.4512 -0.4921
  733TIP3    H223835   2.566   4.425   0.272  0.7483  2.5494 -0.4897
  734TIP3   OH223836   3.221   0.497   2.269  0.0933 -0.5457 -0.0703
  734TIP3    H123837   3.314   0.482   2.249 -0.0586  0.6755 -1.9274
  734TIP3    H223838   3.217   0.495   2.364  2.6834  2.7458  0.3029
  735TIP3   OH223839   0.940   6.192   7.480  0.4438  0.0139 -0.0838
  735TIP3    H123840   0.960   6.118   7.422  0.3078  0.4580 -0.7067
  735TIP3    H223841   0.941   6.155   7.568  0.2661 -0.7518 -0.4013
  736TIP3   OH223842   3.651   0.771   1.779 -0.7100 -0.0994 -0.4037
  736TIP3    H123843   3.695   0.759   1.864  1.2378  1.2015 -1.1686
  736TIP3    H223844   3.656   0.685   1.738  3.0593  0.3432 -1.2602
  737TIP3   OH223845   1.882   5.188   1.930 -0.0792 -0.9524 -0.1257
  737TIP3    H123846   1.911   5.104   1.966 -0.0995 -1.3706 -1.0519
  737TIP3    H223847   1.855   5.239   2.006  0.2529 -1.6606  0.4799
  738TIP3   OH223848   6.595   0.868   8.863 -0.7866  0.0970  0.6089
  738TIP3    H123849   6.610   0.914   8.946  1.0145  0.9996 -0.1580
  738TIP3    H223850   6.504   0.887   8.841 -0.8690  1.0473  1.6703
  739TIP3   OH223851   6.024   2.734   0.789  0.0766 -0.3686 -0.4584
  739TIP3    H123852   6.091   2.746   0.722  1.1679  0.8225  0.7886
  739TIP3    H223853   5.945   2.772   0.751  1.1462  2.1258 -0.3735
  740TIP3   OH223854   2.383   5.276   0.340  0.3085  0.7460 -0.0115
  740TIP3    H123855   2.440   5.341   0.299  0.3792 -0.4398 -1.8949
  740TIP3    H223856   2.441   5.226   0.398  1.4045 -0.7901 -2.3039
  741TIP3   OH223857   5.803   1.065   6.685  0.0639  0.1081 -0.0503
  741TIP3    H123858   5.739   1.120   6.639 -0.1037  1.4002  1.6588
  741TIP3    H223859   5.793   0.979   6.645 -3.1896  0.1015  0.5213
  742TIP3   OH223860   5.811   1.011   7.385  0.4784 -0.1176 -0.0440
  742TIP3    H123861   5.730   0.972   7.417  0.8602 -0.5412  0.4039
  742TIP3    H223862   5.796   1.106   7.392  0.2262 -0.1985  0.5510
  743TIP3   OH223863   2.308   4.535   0.439 -0.2047 -0.1154  0.5434
  743TIP3    H123864   2.392   4.519   0.395 -0.3596  0.0564  0.1815
  743TIP3    H223865   2.243   4.497   0.380 -0.7420  2.9199 -1.0222
  744TIP3   OH223866   5.696   6.485   7.299 -0.0137  0.1540 -0.3032
  744TIP3    H123867   5.615   6.537   7.303 -0.9315 -0.9766 -2.3515
  744TIP3    H223868   5.666   6.394   7.304  1.2069 -0.2601 -0.3239
  745TIP3   OH223869   0.572   5.250   0.114  0.5638  0.5654  0.5085
  745TIP3    H123870   0.514   5.175   0.099 -0.4973  1.6312 -1.0508
  745TIP3    H223871   0.653   5.212   0.147  0.4035 -1.3732 -1.1513
  746TIP3   OH223872   0.651   6.139   7.784 -0.3785  0.2997 -0.2302
  746TIP3    H123873   0.594   6.114   7.857  0.1948 -1.6021 -0.3900
  746TIP3    H223874   0.689   6.223   7.811 -3.1582  1.6749 -0.1016
  747TIP3   OH223875   1.581   5.203   6.656  0.2056 -0.7780 -0.1343
  747TIP3    H123876   1.575   5.107   6.655 -0.5068 -0.8045  1.8839
  747TIP3    H223877   1.640   5.222   6.730  0.6808  0.3483 -0.7778
  748TIP3   OH223878   1.323   5.324   0.614  0.8028 -0.0134  0.3885
  748TIP3    H123879   1.283   5.237   0.617  1.2487 -0.2564 -0.4217
  748TIP3    H223880   1.403   5.312   0.563  0.6476  0.9592 -0.1137
  749TIP3   OH223881   6.502   1.523   7.405  0.5234  0.3493  0.1208
  749TIP3    H123882   6.590   1.507   7.439 -0.0185  0.6251  1.7639
  749TIP3    H223883   6.478   1.441   7.361  1.4721  0.1722 -0.0914
  750TIP3   OH223884   6.039   6.413   1.215  0.2157 -0.3672 -0.5509
  750TIP3    H123885   6.093   6.466   1.274  0.6605 -0.3380 -0.9822
  750TIP3    H223886   5.949   6.444   1.230  0.5374  0.9691 -1.2675
  751TIP3   OH223887   2.488   4.649   7.326 -1.0048 -0.0299  0.5972
  751TIP3    H123888   2.454   4.694   7.249 -0.1904  2.4541  1.5914
  751TIP3    H223889   2.413   4.646   7.386 -1.1118 -0.1438  0.4576
  752TIP3   OH223890   3.482   4.379   1.846  0.1769  0.3433  0.1669
  752TIP3    H123891   3.433   4.362   1.927 -0.2147  1.0185  0.0739
  752TIP3    H223892   3.424   4.434   1.794 -0.1410 -1.1643 -1.1593
  753TIP3   OH223893   2.087   6.400   2.467 -0.0968 -0.4936 -0.3707
  753TIP3    H123894   2.001   6.421   2.505  0.1722  0.0327 -0.0480
  753TIP3    H223895   2.150   6.439   2.527  0.3349  0.5395 -1.4427
  754TIP3   OH223896   4.966   1.940   8.472 -0.0851  0.2626  0.3937
  754TIP3    H123897   4.887   1.886   8.474 -1.0082  1.5713  1.9434
  754TIP3    H223898   4.966   1.979   8.385  1.2471 -2.9989 -1.2400
  755TIP3   OH223899   0.189   1.234   7.059 -0.0522 -0.0124 -0.1328
  755TIP3    H123900   0.122   1.178   7.020  0.1599 -1.3896  1.3995
  755TIP3    H223901   0.201   1.200   7.147  1.5851  1.1690  0.1459
  756TIP3   OH223902   0.079   1.094   7.277  0.6385 -0.2287 -0.4984
  756TIP3    H123903   0.022   1.153   7.228 -0.6651 -1.3821 -0.4271
  756TIP3    H223904   0.051   1.103   7.368  0.5344 -0.8295 -0.4662
  757TIP3   OH223905   3.729   5.658   0.500 -0.0063  0.1961  0.0502
  757TIP3    H123906   3.755   5.582   0.447  0.7959  0.9060 -0.6097
  757TIP3    H223907   3.676   5.621   0.571 -0.3560 -0.8844 -0.7416
  758TIP3   OH223908   4.820   3.284   7.051 -0.0139 -0.3528  0.3804
  758TIP3    H123909   4.862   3.334   6.982  0.8449 -0.8277  0.5453
  758TIP3    H223910   4.751   3.234   7.006 -0.6760  0.7205  0.1718
  759TIP3   OH223911   3.754   5.974   8.615  0.5427  0.3641 -0.0869
  759TIP3    H123912   3.827   6.035   8.604  2.4918 -1.7902  0.1163
  759TIP3    H223913   3.772   5.931   8.699 -0.9729 -0.2663 -0.0553
  760TIP3   OH223914   3.996   3.301   7.192 -0.3429 -0.3001 -0.0892
  760TIP3    H123915   3.978   3.210   7.216  1.3253 -1.4655 -2.7605
  760TIP3    H223916   4.073   3.325   7.243 -0.8013 -0.3596  0.6419
  761TIP3   OH223917   0.277   4.173   0.257  0.2452 -0.1848  0.3364
  761TIP3    H123918   0.296   4.241   0.322  0.1989  0.2094 -0.0548
  761TIP3    H223919   0.191   4.198   0.222  1.1251  0.7241 -1.2701
  762TIP3   OH223920   0.405   6.108   2.551  0.2342 -0.5026  0.6259
  762TIP3    H123921   0.477   6.119   2.612 -0.2569  1.6005  0.9057
  762TIP3    H223922   0.443   6.124   2.465 -0.0708  2.1188  0.8759
  763TIP3   OH223923   4.415   5.326   2.190  0.0721 -0.0704 -0.7851
  763TIP3    H123924   4.493   5.311   2.244 -0.6732 -0.2647  0.2628
  763TIP3    H223925   4.400   5.242   2.146 -0.1118 -0.3394 -0.2223
  764TIP3   OH223926   2.764   1.926   8.692  1.1260 -0.1174  0.1704
  764TIP3    H123927   2.678   1.967   8.697  0.0025 -2.3884  1.3733
  764TIP3    H223928   2.807   1.949   8.774  0.9011 -0.4778  0.3933
  765TIP3   OH223929   2.875   6.528   1.235  0.4901 -0.3385  0.3518
  765TIP3    H123930   2.863   6.540   1.140  1.4035  0.0537  0.2777
  765TIP3    H223931   2.858   6.615   1.272  1.2819 -0.2065  0.4217
  766TIP3   OH223932   1.108   0.053   8.769  0.1395  0.6279  0.7360
  766TIP3    H123933   1.085  -0.037   8.750  1.3223  0.3449  0.5201
  766TIP3    H223934   1.085   0.066   8.861 -1.3992  0.5876  0.3836
  767TIP3   OH223935   0.772   3.394   6.814  0.5265  0.2279  0.2099
  767TIP3    H123936   0.851   3.416   6.765 -0.2786  0.9149 -0.8372
  767TIP3    H223937   0.803   3.344   6.889  1.6938 -3.2037 -2.2754
  768TIP3   OH223938   2.361   4.261   6.859  0.3474 -0.3584 -0.1193
  768TIP3    H123939   2.398   4.301   6.938 -0.8292 -0.1593  0.3481
  768TIP3    H223940   2.268   4.251   6.878 -0.0371  0.0740 -1.6470
  769TIP3   OH223941   1.671   5.139   8.099 -0.4854  0.1591  0.4890
  769TIP3    H123942   1.738   5.159   8.034 -0.4509 -0.0734  0.4537
  769TIP3    H223943   1.598   5.104   8.049 -0.7157  0.6108  0.5049
  770TIP3   OH223944   4.391   4.461   7.836  0.2351 -0.0713 -0.2415
  770TIP3    H123945   4.462   4.496   7.783  0.7407 -0.1483  0.3701
  770TIP3    H223946   4.428   4.454   7.924 -1.0648  1.5786  0.4888
  771TIP3   OH223947   5.091   0.123   7.101 -0.3417 -0.2413 -0.1426
  771TIP3    H123948   5.164   0.155   7.048 -0.4876 -0.5320 -0.5229
  771TIP3    H223949   5.038   0.200   7.120 -1.0154 -0.3259 -1.5409
  772TIP3   OH223950   5.896   3.351   1.417  0.0580 -0.5614  0.0532
  772TIP3    H123951   5.961   3.296   1.374  1.1269  0.9680 -0.3776
  772TIP3    H223952   5.887   3.314   1.505 -0.6786 -2.5381 -0.8037
  773TIP3   OH223953   3.183   6.498   1.829 -0.4459 -0.3693  0.0570
  773TIP3    H123954   3.237   6.431   1.871  1.3930  0.9862  0.0374
  773TIP3    H223955   3.244   6.544   1.771 -1.2903  2.0541  0.9591
  774TIP3   OH223956   2.965   2.359   1.140  0.3561  0.4007  0.3696
  774TIP3    H123957   2.925   2.417   1.076 -0.3016  0.2017  0.5878
  774TIP3    H223958   2.969   2.411   1.221  0.1462  0.2771  0.4592
  775TIP3   OH223959   0.670   0.587   7.252  0.6543  0.7304 -0.4370
  775TIP3    H123960   0.762   0.602   7.231  0.9609 -0.3361  0.0768
  775TIP3    H223961   0.672   0.543   7.337 -0.2012 -1.0242 -1.2683
  776TIP3   OH223962   4.926   3.346   2.251  0.3845 -0.3010  0.1139
  776TIP3    H123963   4.839   3.312   2.271 -0.4912  2.8288  2.4998
  776TIP3    H223964   4.914   3.390   2.166  0.2577 -1.6276 -0.5853
  777TIP3   OH223965   5.961   2.474   0.755 -0.4183  0.4527  0.2707
  777TIP3    H123966   5.939   2.443   0.843 -0.2487  0.3772  0.2859
  777TIP3    H223967   5.980   2.567   0.767 -1.1413  0.6128  0.1890
  778TIP3   OH223968   5.806   5.703   8.621  0.2099 -0.1903 -0.1903
  778TIP3    H123969   5.856   5.681   8.700  0.9002  0.9039 -0.2940
  778TIP3    H223970   5.716   5.680   8.643  0.1962  1.1430  1.3747
  779TIP3   OH223971   2.824   4.515   7.735 -0.5522  0.0021 -0.1031
  779TIP3    H123972   2.814   4.420   7.729  0.4741 -0.1097 -0.0966
  779TIP3    H223973   2.870   4.540   7.655  3.5756 -0.1606  1.9585
  780TIP3   OH223974   1.476   1.579   0.943 -0.3252 -0.3094 -0.5645
  780TIP3    H123975   1.528   1.650   0.907 -1.2535 -0.1900 -1.7195
  780TIP3    H223976   1.393   1.620   0.967  0.4814 -0.1982  2.5293
  781TIP3   OH223977   4.266   2.485   2.043  0.2996 -0.0630 -0.2327
  781TIP3    H123978   4.222   2.440   1.970  0.8734  0.6805 -1.0628
  781TIP3    H223979   4.356   2.499   2.012 -0.0452  2.3448 -0.3549
  782TIP3   OH223980   6.612   4.151   7.287  0.1067 -0.1873 -0.1970
  782TIP3    H123981   6.630   4.241   7.260 -0.9657  0.5163  1.2563
  782TIP3    H223982   6.696   4.107   7.284  0.7171  0.9715 -0.5996
  783TIP3   OH223983   1.630   6.746   7.605 -0.4675  0.3365 -0.5481
  783TIP3    H123984   1.537   6.726   7.619 -0.5669  1.3676  0.3258
  783TIP3    H223985   1.674   6.713   7.684 -0.0257 -0.4721 -1.1141
  784TIP3   OH223986   2.990   4.412   0.785  0.7771 -0.3078  1.0166
  784TIP3    H123987   3.063   4.454   0.738  0.4266  0.8335  1.4491
  784TIP3    H223988   2.971   4.472   0.857  0.2453 -1.2364  1.6583
  785TIP3   OH223989   6.339   3.545   8.024 -0.1768  0.1713 -0.3716
  785TIP3    H123990   6.263   3.564   7.968 -0.1993 -0.2763 -0.4991
  785TIP3    H223991   6.414   3.576   7.974 -0.2994  0.9169 -0.1043
  786TIP3   OH223992   5.403   0.940   7.091 -0.3148 -0.3963  0.5300
  786TIP3    H123993   5.464   0.867   7.090  1.3884  0.8747  3.0574
  786TIP3    H223994   5.454   1.014   7.058 -1.6584 -0.0168 -0.8289
  787TIP3   OH223995   2.860   2.682   8.547  0.2544  0.6880 -0.2147
  787TIP3    H123996   2.768   2.658   8.539  0.1987  0.6389  0.5174
  787TIP3    H223997   2.897   2.616   8.605  0.1360  2.2334  1.7216
  788TIP3   OH223998   4.844   1.764   8.690 -0.7909 -0.0737  0.0124
  788TIP3    H123999   4.920   1.706   8.699 -1.8756 -1.5569  0.1079
  788TIP3    H224000   4.839   1.810   8.773  0.3128  0.4763 -0.2009
  789TIP3   OH224001   1.845   3.940   2.239 -0.2256  0.0351 -0.0408
  789TIP3    H124002   1.840   4.035   2.249 -1.6703 -0.0906  0.8139
  789TIP3    H224003   1.847   3.926   2.144  0.9828  0.9274 -0.1682
  790TIP3   OH224004   4.068   4.421   1.628 -0.4620  0.0372 -0.0627
  790TIP3    H124005   4.045   4.392   1.716  1.7288  0.6459  0.7726
  790TIP3    H224006   4.013   4.368   1.570 -1.2982 -1.0230  1.6254
  791TIP3   OH224007   2.837   0.072   7.910  0.0475 -0.4442 -0.0892
  791TIP3    H124008   2.798  -0.013   7.887 -0.4423 -0.8207  1.8920
  791TIP3    H224009   2.886   0.098   7.833 -1.3520 -1.6190 -1.4473
  792TIP3   OH224010   0.225   3.497   7.371  0.4760  0.1566  0.6813
  792TIP3    H124011   0.234   3.403   7.385  0.0984 -0.0799 -0.5713
  792TIP3    H224012   0.196   3.531   7.456 -2.2913 -1.2830  0.4272
  793TIP3   OH224013   6.595   1.923   7.874 -0.3370 -0.5086  0.2060
  793TIP3    H124014   6.580   1.841   7.921  0.2340 -1.3575 -1.0497
  793TIP3    H224015   6.542   1.916   7.795 -2.2483  1.4242  1.2067
  794TIP3   OH224016   5.526   0.932   7.791  0.0557 -0.4425 -0.8278
  794TIP3    H124017   5.526   0.852   7.844 -1.5904  0.5404  0.8017
  794TIP3    H224018   5.433   0.950   7.776  0.4388  0.4865 -2.2612
  795TIP3   OH224019   3.555   4.524   7.521  0.4278  0.1616  0.0414
  795TIP3    H124020   3.518   4.575   7.450 -0.2484 -0.1542  0.1566
  795TIP3    H224021   3.625   4.579   7.557  0.0225  0.8019 -0.1338
  796TIP3   OH224022   2.941   0.230   0.336  0.2868  0.7707  0.2561
  796TIP3    H124023   2.955   0.321   0.309  0.8292  0.5984 -0.0632
  796TIP3    H224024   2.965   0.228   0.429  3.0701  0.3752 -0.3731
  797TIP3   OH224025   6.689   6.174   0.115 -0.1686  0.0563  0.2498
  797TIP3    H124026   6.616   6.134   0.067  0.4640  0.8305 -1.4317
  797TIP3    H224027   6.767   6.142   0.071  0.4038  1.6492  0.0460
  798TIP3   OH224028   2.462   1.370   0.112 -0.6841  0.3891 -0.5507
  798TIP3    H124029   2.386   1.426   0.097  0.5060  2.0476 -0.7537
  798TIP3    H224030   2.534   1.432   0.127  0.7131 -1.1037 -0.8123
  799TIP3   OH224031   1.377   6.747   7.686  0.6671 -0.2202 -0.2458
  799TIP3    H124032   1.286   6.719   7.692  0.3771  0.9602  2.0865
  799TIP3    H224033   1.408   6.748   7.777  3.2478 -1.2431 -1.0230
  800TIP3   OH224034   2.423   0.559   1.225 -0.4259 -0.6669 -0.0042
  800TIP3    H124035   2.448   0.467   1.217 -1.9299 -1.2144  1.1248
  800TIP3    H224036   2.336   0.563   1.187 -0.1944  0.3938 -0.4407
  801TIP3   OH224037   4.870   4.494   8.215 -0.6939  0.2816 -0.9326
  801TIP3    H124038   4.791   4.452   8.180 -1.9264  2.3490 -0.8024
  801TIP3    H224039   4.919   4.522   8.137 -0.0517 -0.9749 -1.0124
  802TIP3   OH224040   5.578   4.780   1.648  0.1368 -0.0104  0.1541
  802TIP3    H124041   5.567   4.707   1.587 -1.2955 -0.0177  0.3868
  802TIP3    H224042   5.490   4.801   1.677  0.1562  3.3335 -1.6472
  803TIP3   OH224043   6.387   2.649   2.161 -0.0830 -0.0088 -0.5958
  803TIP3    H124044   6.450   2.646   2.089  1.4110  0.3994  0.6484
  803TIP3    H224045   6.438   2.677   2.237 -1.8026  0.4659  0.4369
  804TIP3   OH224046   4.722   4.645   6.793  0.9081 -0.4942 -0.2345
  804TIP3    H124047   4.652   4.614   6.735  0.7355 -1.0156  0.2450
  804TIP3    H224048   4.692   4.622   6.881  1.4922 -0.3463  0.0078
  805TIP3   OH224049   0.761   0.908   8.070 -0.4246  0.2829 -0.1097
  805TIP3    H124050   0.782   0.861   8.151 -0.2777  1.2040  0.3942
  805TIP3    H224051   0.674   0.944   8.085 -0.0559  1.1620 -0.0294
  806TIP3   OH224052   6.516   6.468   8.419 -0.4592  1.1850 -0.0591
  806TIP3    H124053   6.578   6.472   8.347  0.6287  0.4936  0.8027
  806TIP3    H224054   6.486   6.376   8.420 -0.8528  1.3117  0.0566
  807TIP3   OH224055   5.166   0.692   7.761  0.2644  0.4935 -0.3254
  807TIP3    H124056   5.189   0.603   7.733  0.1985  0.3051  0.2164
  807TIP3    H224057   5.125   0.681   7.846 -1.9718  0.8043 -1.2863
  808TIP3   OH224058   0.906   3.748   6.688 -0.0587  0.4366 -0.7089
  808TIP3    H124059   0.980   3.687   6.687  0.2761  0.7727  0.9058
  808TIP3    H224060   0.931   3.818   6.628  0.0139 -0.4673 -1.7580
  809TIP3   OH224061   5.940   5.351   8.446  0.5879 -0.1136 -0.8161
  809TIP3    H124062   5.992   5.421   8.406  0.8659 -0.8656 -1.8197
  809TIP3    H224063   5.879   5.325   8.377  0.9091 -1.2772 -0.6743
  810TIP3   OH224064   4.213   3.829   7.938  0.1612 -0.0311 -0.2942
  810TIP3    H124065   4.260   3.909   7.960  1.8253 -0.6703 -1.3136
  810TIP3    H224066   4.200   3.785   8.023 -2.2538  1.9835  0.5107
  811TIP3   OH224067   1.164   1.369   7.959 -0.2063 -0.2344  0.1039
  811TIP3    H124068   1.242   1.398   8.006  0.2341 -0.3289 -0.5452
  811TIP3    H224069   1.109   1.327   8.025 -0.9021  2.0878  1.0799
  812TIP3   OH224070   0.806   3.175   7.631  0.1335 -0.4023  0.2382
  812TIP3    H124071   0.817   3.140   7.542 -0.0983 -1.4900  0.6174
  812TIP3    H224072   0.895   3.191   7.661  0.1866  2.4780 -1.0938
  813TIP3   OH224073   4.638   5.419   6.880  0.0631 -0.1735  0.1222
  813TIP3    H124074   4.611   5.357   6.811  2.9847 -2.0251  0.4730
  813TIP3    H224075   4.645   5.503   6.835 -1.2755 -0.6293 -1.0414
  814TIP3   OH224076   0.139   0.395   7.342 -0.0282 -0.2390 -0.1317
  814TIP3    H124077   0.211   0.449   7.308 -0.1520 -1.1381 -1.9357
  814TIP3    H224078   0.060   0.444   7.318 -0.0818  0.7374  1.8303
  815TIP3   OH224079   4.737   2.097   0.223 -0.1244 -0.9370  0.4567
  815TIP3    H124080   4.674   2.028   0.241 -0.8016 -0.3654  0.3436
  815TIP3    H224081   4.797   2.096   0.298  0.2210 -2.0129  0.1755
  816TIP3   OH224082   4.320   4.589   0.698  0.2997  0.0565 -0.3532
  816TIP3    H124083   4.284   4.510   0.658  0.4194 -0.5533  0.6999
  816TIP3    H224084   4.289   4.660   0.642 -1.2878 -0.5762 -0.3447
  817TIP3   OH224085   6.350   4.668   7.561  0.7171 -0.1072  0.3485
  817TIP3    H124086   6.367   4.639   7.651  1.2810 -0.1245  0.2391
  817TIP3    H224087   6.305   4.752   7.570  0.3592 -0.3303  0.6523
  818TIP3   OH224088   4.296   4.296   0.963 -0.8898  0.0392  0.1976
  818TIP3    H124089   4.241   4.250   1.026 -0.5673 -1.3153 -0.4601
  818TIP3    H224090   4.236   4.356   0.918 -1.0362  1.3285  2.0195
  819TIP3   OH224091   2.648   4.931   0.181  0.4141  0.0681 -0.9552
  819TIP3    H124092   2.714   4.863   0.197 -0.2428 -0.4274 -0.2414
  819TIP3    H224093   2.567   4.882   0.166 -0.6844  0.6628  2.3147
  820TIP3   OH224094   5.579   4.939   2.129  0.5921  0.1838  0.0474
  820TIP3    H124095   5.516   4.870   2.109  0.4982  0.6381 -1.3204
  820TIP3    H224096   5.601   4.925   2.221 -1.5046  0.0118  0.5760
  821TIP3   OH224097   5.786   2.850   0.142 -0.0523 -0.3891  0.2354
  821TIP3    H124098   5.808   2.785   0.208  1.0377 -0.5568 -0.2762
  821TIP3    H224099   5.711   2.897   0.179  0.7998 -0.1854  1.7713
  822TIP3   OH224100   0.926   2.129   0.840  0.2017 -0.5424  0.7391
  822TIP3    H124101   0.948   2.045   0.798  1.4705  0.2856 -0.3223
  822TIP3    H224102   0.966   2.123   0.927 -1.6466 -1.8969  1.5698
  823TIP3   OH224103   4.860   5.884   0.979 -0.9641 -0.6087  0.1302
  823TIP3    H124104   4.935   5.944   0.976 -1.2929 -0.1883  0.2905
  823TIP3    H224105   4.873   5.827   0.903 -0.5972 -0.3937  0.0280
  824TIP3   OH224106   3.865   3.281   8.542 -0.5511 -0.3359 -0.1769
  824TIP3    H124107   3.854   3.367   8.501 -1.1701 -0.3272 -0.0005
  824TIP3    H224108   3.797   3.226   8.503 -0.7203 -0.5076  0.3496
  825TIP3   OH224109   5.417   4.315   7.421 -0.4543  0.4631 -0.4129
  825TIP3    H124110   5.503   4.328   7.379 -0.0984 -0.1267  0.1119
  825TIP3    H224111   5.411   4.220   7.434  0.4853  0.7357  2.9443
  826TIP3   OH224112   0.676   2.439   7.458 -0.6243  0.3361  0.3307
  826TIP3    H124113   0.664   2.347   7.436  0.7675 -0.1004  1.2129
  826TIP3    H224114   0.708   2.437   7.549 -2.4600  1.8117  1.0708
  827TIP3   OH224115   6.722   2.544   6.311 -0.0110 -0.0665 -0.4199
  827TIP3    H124116   6.628   2.565   6.303 -0.0762 -0.5420 -0.9174
  827TIP3    H224117   6.757   2.614   6.366 -0.8974 -0.5561  0.8115
  828TIP3   OH224118   2.174   1.730   1.864  1.0184  0.4015  0.1606
  828TIP3    H124119   2.166   1.773   1.949  1.2458 -1.0774  0.9654
  828TIP3    H224120   2.235   1.784   1.815  3.3083 -0.2970  2.0562
  829TIP3   OH224121   5.906   0.528   6.764 -0.2295 -0.0406  0.4140
  829TIP3    H124122   5.899   0.467   6.691 -1.4026 -1.4614  1.6623
  829TIP3    H224123   5.853   0.489   6.833  0.8435  1.2557  2.0354
  830TIP3   OH224124   5.238   1.535   1.860  0.5128 -0.2371  0.9222
  830TIP3    H124125   5.228   1.505   1.950 -1.3348  0.1695  0.8979
  830TIP3    H224126   5.182   1.477   1.808  0.1320  0.6536  0.3037
  831TIP3   OH224127   1.570   2.788   1.142 -0.8109 -0.1722 -0.1494
  831TIP3    H124128   1.598   2.828   1.059 -2.2869  0.5105 -0.3417
  831TIP3    H224129   1.587   2.855   1.208 -2.1526  0.3359 -0.2998
  832TIP3   OH224130   3.001   2.978   1.350  0.0278 -0.9403 -0.3383
  832TIP3    H124131   3.017   3.017   1.264  0.5696 -2.4969 -0.9904
  832TIP3    H224132   2.926   3.027   1.385 -0.4837 -0.5500 -1.8878
  833TIP3   OH224133   1.623   6.736   8.430 -0.1173  0.5333  0.5637
  833TIP3    H124134   1.563   6.689   8.488  1.5560  1.3203  3.0992
  833TIP3    H224135   1.576   6.817   8.408 -1.0111 -0.0397  0.3343
  834TIP3   OH224136   3.251   6.680   7.976 -0.1374  0.2634 -0.0189
  834TIP3    H124137   3.213   6.664   7.889 -1.2103 -1.4176  0.7120
  834TIP3    H224138   3.343   6.699   7.959 -0.4638  0.5758 -1.5690
  835TIP3   OH224139   4.538   6.421   8.581 -0.8835 -0.1553 -0.0465
  835TIP3    H124140   4.502   6.338   8.613  0.0627  0.2659  2.3012
  835TIP3    H224141   4.521   6.483   8.652 -1.2195  1.6040 -1.5954
  836TIP3   OH224142   3.756   0.667   2.018  0.3492  0.2173  0.0155
  836TIP3    H124143   3.757   0.599   2.085  0.6188  0.6282  0.4284
  836TIP3    H224144   3.808   0.738   2.055  0.2137  0.5795 -0.4874
  837TIP3   OH224145   6.105   5.707   8.490  0.0981 -0.2015  0.0565
  837TIP3    H124146   6.029   5.690   8.434 -1.3621 -0.5919  2.0639
  837TIP3    H224147   6.130   5.621   8.523  0.3207  0.1289  0.7636
  838TIP3   OH224148   2.632   5.524   0.652 -0.0623  0.7180 -0.4174
  838TIP3    H124149   2.713   5.542   0.700 -1.1754  0.4945  1.7033
  838TIP3    H224150   2.598   5.443   0.692 -2.2147  1.7784  0.0848
  839TIP3   OH224151   6.243   5.284   1.393 -0.6374 -0.0411  0.3153
  839TIP3    H124152   6.279   5.210   1.443 -2.5968 -1.1217  0.2393
  839TIP3    H224153   6.232   5.353   1.459  0.6909  0.0293  0.5018
  840TIP3   OH224154   5.641   0.306   1.883 -0.2669  0.2778 -0.0927
  840TIP3    H124155   5.549   0.318   1.861 -0.0143  0.2004 -1.2783
  840TIP3    H224156   5.644   0.313   1.978 -1.5161  0.1311 -0.0207
  841TIP3   OH224157   5.316   4.331   6.961  0.3444 -0.1230  0.5981
  841TIP3    H124158   5.295   4.378   7.042 -1.5592  0.3485 -0.1078
  841TIP3    H224159   5.308   4.239   6.984  0.3739 -0.0013  1.0969
  842TIP3   OH224160   6.573   2.531   8.391 -0.2042 -0.2013  0.1054
  842TIP3    H124161   6.539   2.532   8.480  0.3013  0.8496  0.2912
  842TIP3    H224162   6.512   2.585   8.341 -0.0874 -0.2083 -0.0438
  843TIP3   OH224163   3.637   2.168   7.985  0.4212 -0.2025  0.5172
  843TIP3    H124164   3.681   2.228   8.045  0.4594 -0.0715  0.3575
  843TIP3    H224165   3.682   2.180   7.901  0.4666 -0.4912  0.4964
  844TIP3   OH224166   2.630   2.168   8.924 -0.2206 -0.5167 -0.2360
  844TIP3    H124167   2.547   2.143   8.966 -0.0773  0.6396  0.7785
  844TIP3    H224168   2.606   2.183   8.833 -1.7801  2.5078  0.5498
  845TIP3   OH224169   0.260   0.212   8.397  0.3907  0.7450 -0.3215
  845TIP3    H124170   0.264   0.303   8.367  3.7025  0.5228 -1.0116
  845TIP3    H224171   0.209   0.166   8.330 -1.0266  1.9775 -0.1392
  846TIP3   OH224172   1.415   2.420   1.635  0.4638  0.0599 -0.3213
  846TIP3    H124173   1.353   2.478   1.679  1.4648  0.6261  0.3575
  846TIP3    H224174   1.501   2.448   1.666  1.0379 -1.0321 -0.8791
  847TIP3   OH224175   2.947   1.032   8.855 -0.7408  0.4161  0.0639
  847TIP3    H124176   2.965   1.040   8.761  0.7375 -1.1221  0.1713
  847TIP3    H224177   3.025   1.067   8.898 -0.4652 -0.8650  0.6557
  848TIP3   OH224178   4.070   4.759   0.811 -0.9289 -0.3832  0.7341
  848TIP3    H124179   4.145   4.814   0.834 -0.6907 -0.4521  0.1372
  848TIP3    H224180   4.078   4.746   0.716 -0.6868 -1.8882  0.9450
  849TIP3   OH224181   3.780   5.082   7.591 -0.0519  0.3770  0.0717
  849TIP3    H124182   3.841   5.080   7.665 -0.2580 -0.3239  0.2270
  849TIP3    H224183   3.720   5.154   7.611 -0.3289 -0.0444  0.7685
  850TIP3   OH224184   4.737   4.570   7.041 -0.0203  0.0584  0.2720
  850TIP3    H124185   4.766   4.627   7.112  0.2662  0.0962  0.1242
  850TIP3    H224186   4.693   4.497   7.085  1.2628 -0.5716  0.5622
  851TIP3   OH224187   5.219   5.017   1.236  0.3942 -0.1200 -0.2303
  851TIP3    H124188   5.265   4.933   1.229  1.8783  0.6861 -0.5995
  851TIP3    H224189   5.256   5.057   1.315 -0.4734  0.0968  0.0705
  852TIP3   OH224190   3.916   1.517   8.760  0.2651 -0.6396  0.3235
  852TIP3    H124191   3.829   1.540   8.793  0.9846  0.8830  1.2579
  852TIP3    H224192   3.912   1.537   8.666 -0.1219  0.3428  0.5317
  853TIP3   OH224193   6.566   3.495   7.686 -0.6607  0.2941 -0.2594
  853TIP3    H124194   6.474   3.472   7.673 -0.3621 -0.1401 -1.7489
  853TIP3    H224195   6.614   3.432   7.633  0.4472  1.2533 -0.4255
  854TIP3   OH224196   0.942   2.390   8.285 -0.1917  0.1000 -0.1627
  854TIP3    H124197   1.027   2.414   8.248 -0.8979  0.1480 -1.8465
  854TIP3    H224198   0.930   2.450   8.358  1.3852 -0.1771  0.3536
  855TIP3   OH224199   0.235   6.336   8.211  0.2316  0.3426 -0.1471
  855TIP3    H124200   0.164   6.294   8.162 -0.4377  0.3232  0.8093
  855TIP3    H224201   0.315   6.303   8.170 -0.3041 -0.1514 -0.8186
  856TIP3   OH224202   4.510   3.993   0.200  0.3239 -0.0461  0.1381
  856TIP3    H124203   4.604   3.987   0.183  0.4646 -0.6099  1.0742
  856TIP3    H224204   4.503   4.047   0.278 -0.1521  0.1913 -0.0613
  857TIP3   OH224205   2.489   5.874   8.011 -0.1944 -0.0792  0.2827
  857TIP3    H124206   2.478   5.851   8.104  1.2504  0.5146  0.6246
  857TIP3    H224207   2.462   5.795   7.964  1.1211 -1.1786  1.2848
  858TIP3   OH224208   6.106   3.752   2.050 -0.1283 -0.2967 -0.1973
  858TIP3    H124209   6.056   3.691   2.103  0.9481 -0.9823  0.0546
  858TIP3    H224210   6.196   3.745   2.082  0.2976  0.2856 -1.1937
  859TIP3   OH224211   4.821   0.586   7.860  0.1989 -0.1594 -0.1825
  859TIP3    H124212   4.754   0.633   7.811  0.0260 -1.6030 -1.4191
  859TIP3    H224213   4.787   0.582   7.949 -1.7723 -1.5074 -0.9242
  860TIP3   OH224214   3.102   4.337   7.781  0.2143  0.1227 -0.2045
  860TIP3    H124215   3.015   4.348   7.743 -0.9504  0.6074  2.4024
  860TIP3    H224216   3.087   4.327   7.875  2.8879 -1.2626  0.1952
  861TIP3   OH224217   6.721   4.648   2.103 -0.5254 -0.3598 -0.0235
  861TIP3    H124218   6.673   4.591   2.163  1.1859 -1.7231  0.1342
  861TIP3    H224219   6.656   4.712   2.073 -2.1639 -1.5186  0.9028
  862TIP3   OH224220   1.795   4.619   2.116 -0.0521 -0.1526 -0.4977
  862TIP3    H124221   1.822   4.608   2.208 -0.8370 -1.1610 -0.3621
  862TIP3    H224222   1.875   4.645   2.070  0.1954  1.1340  0.5941
  863TIP3   OH224223   0.080   6.102   8.183  0.3838  0.2334 -0.4943
  863TIP3    H124224   0.136   6.027   8.205 -0.2678 -0.8430 -2.3230
  863TIP3    H224225   0.049   6.083   8.095  0.5565  2.9010 -1.1965
  864TIP3   OH224226   6.754   2.309   7.536 -0.2860  0.1284  0.0305
  864TIP3    H124227   6.801   2.227   7.520 -0.2769  0.5398 -2.6476
  864TIP3    H224228   6.817   2.377   7.511 -0.9495  0.8572  0.3106
  865TIP3   OH224229   3.181   5.662   1.673  0.4137  0.1590  0.3290
  865TIP3    H124230   3.128   5.738   1.648 -0.3317 -0.1668  0.8735
  865TIP3    H224231   3.245   5.697   1.734  0.4761  0.4670  0.0870
  866TIP3   OH224232   4.740   3.902   7.820 -0.1007 -0.1995 -0.1419
  866TIP3    H124233   4.693   3.907   7.737 -1.1571 -0.5557  0.4132
  866TIP3    H224234   4.821   3.949   7.805 -0.5912  0.3378 -1.1715
  867TIP3   OH224235   5.692   5.246   7.968 -0.4739 -0.4112  0.1167
  867TIP3    H124236   5.619   5.242   7.907 -0.3528 -1.2782  0.0193
  867TIP3    H224237   5.766   5.277   7.916 -0.2732 -1.5289 -0.2837
  868TIP3   OH224238   2.528   0.711   0.780 -0.1936 -0.0312  0.1451
  868TIP3    H124239   2.516   0.761   0.699  1.4957 -0.4109 -0.3830
  868TIP3    H224240   2.574   0.771   0.838  1.5050 -0.7889 -0.3571
  869TIP3   OH224241   4.884   4.190   0.625 -0.3063 -0.4134  0.1974
  869TIP3    H124242   4.922   4.238   0.551  0.6182 -0.9971  0.2820
  869TIP3    H224243   4.934   4.109   0.630 -1.1182 -0.9021  0.7596
  870TIP3   OH224244   1.954   0.658   7.520  0.7256 -0.1067 -0.2629
  870TIP3    H124245   1.982   0.671   7.430  1.7919 -1.6404 -0.1983
  870TIP3    H224246   1.962   0.563   7.534 -1.9267 -0.3017  0.6401
  871TIP3   OH224247   3.470   4.386   0.138 -0.0390 -0.3224 -0.2143
  871TIP3    H124248   3.516   4.359   0.058 -0.9992 -0.2693 -0.7987
  871TIP3    H224249   3.540   4.407   0.200  0.7197 -0.8976 -0.8572
  872TIP3   OH224250   3.605   2.724   1.182 -0.0946  0.3913 -0.2604
  872TIP3    H124251   3.548   2.800   1.166 -0.8483  0.1457  1.1058
  872TIP3    H224252   3.661   2.751   1.255 -0.4721 -0.4056  0.3366
  873TIP3   OH224253   1.894   0.326   2.542  0.4556 -0.0754  0.7237
  873TIP3    H124254   1.849   0.305   2.460  2.3272 -1.3059 -0.0582
  873TIP3    H224255   1.941   0.407   2.523 -0.3623  0.5177  1.1375
  874TIP3   OH224256   4.284   0.046   8.786  1.2234 -0.4238  0.1775
  874TIP3    H124257   4.373   0.064   8.754  1.8015 -1.3860  1.1764
  874TIP3    H224258   4.272   0.105   8.860  0.0394  1.5084 -1.4645
  875TIP3   OH224259   5.353   5.275   8.052 -0.5485 -0.2238  0.1578
  875TIP3    H124260   5.408   5.325   8.112 -3.4533  2.0496  1.2134
  875TIP3    H224261   5.404   5.268   7.972  0.8795  2.6670  0.6894
  876TIP3   OH224262   6.471   3.254   0.288  0.2204  0.0224  0.2955
  876TIP3    H124263   6.477   3.325   0.224 -0.7788 -0.2196 -0.0905
  876TIP3    H224264   6.497   3.294   0.371 -1.8837  1.3172  0.4044
  877TIP3   OH224265   5.569   2.644   7.753 -0.0230 -0.1896  0.1262
  877TIP3    H124266   5.492   2.700   7.740  0.4922  0.3340 -0.7879
  877TIP3    H224267   5.643   2.703   7.740  0.5449 -1.1741 -1.2942
  878TIP3   OH224268   4.011   3.516   0.391  0.3159 -0.3116  0.0273
  878TIP3    H124269   3.949   3.571   0.440 -1.8631 -0.3569 -2.4604
  878TIP3    H224270   4.006   3.549   0.301  1.5746 -2.3519 -0.8485
  879TIP3   OH224271   5.492   2.825   8.706 -0.2741  0.4308 -0.0782
  879TIP3    H124272   5.583   2.846   8.684 -0.2988  1.9521  1.1749
  879TIP3    H224273   5.497   2.737   8.744  0.4296 -0.1537 -1.4251
  880TIP3   OH224274   3.256   6.106   1.971 -0.1840  0.1118 -0.8086
  880TIP3    H124275   3.344   6.077   1.946 -0.5047 -0.9139 -0.8061
  880TIP3    H224276   3.267   6.198   1.996  1.1096 -0.3282  0.3441
  881TIP3   OH224277   4.370   1.026   7.951 -0.0932  0.1510 -0.0111
  881TIP3    H124278   4.439   0.961   7.960 -0.2967 -0.2008 -0.9129
  881TIP3    H224279   4.297   0.978   7.911 -0.5979  0.6970  0.2358
  882TIP3   OH224280   0.433   5.438   8.231  0.1150 -0.0340 -0.0324
  882TIP3    H124281   0.463   5.412   8.318  1.6537  1.0480 -0.2078
  882TIP3    H224282   0.424   5.355   8.183  1.4746 -0.5072  0.4832
  883TIP3   OH224283   1.647   2.078   9.041 -0.1635 -0.6734 -0.3868
  883TIP3    H124284   1.624   2.009   9.104 -2.6976 -0.5284 -1.0306
  883TIP3    H224285   1.567   2.090   8.989  1.1499  0.7265 -2.2149
  884TIP3   OH224286   0.684   2.800   8.181  0.1431  0.1793  0.2036
  884TIP3    H124287   0.628   2.828   8.109  2.2613 -1.3801 -2.2127
  884TIP3    H224288   0.635   2.730   8.223 -0.4254 -0.0772 -0.8509
  885TIP3   OH224289   5.016   4.710   0.476 -0.1942 -0.0997  0.3784
  885TIP3    H124290   5.078   4.703   0.549  0.5780  0.1391 -0.2381
  885TIP3    H224291   5.072   4.708   0.397 -0.9937 -0.1417 -0.1976
  886TIP3   OH224292   3.176   5.776   0.790  0.0684 -0.5358 -0.8537
  886TIP3    H124293   3.109   5.823   0.839  0.3691 -0.5906 -0.3859
  886TIP3    H224294   3.256   5.827   0.804  0.1220 -0.4551 -1.4311
  887TIP3   OH224295   1.279   4.389   0.721  0.1465  0.1704 -0.0654
  887TIP3    H124296   1.250   4.481   0.718  0.3876  0.2920  1.0929
  887TIP3    H224297   1.210   4.341   0.676 -0.8152  0.7147  0.7969
  888TIP3   OH224298   2.655   0.167   0.245 -0.6853 -0.1911  0.4618
  888TIP3    H124299   2.714   0.175   0.321 -0.7258  1.6620  0.3423
  888TIP3    H224300   2.689   0.092   0.196 -0.4471 -1.2211  2.1079
  889TIP3   OH224301   4.724   0.097   7.421 -0.1727 -0.6087 -0.6157
  889TIP3    H124302   4.773   0.179   7.434 -0.1716 -0.1444 -3.1104
  889TIP3    H224303   4.769   0.034   7.477  2.3684  0.1799 -1.6077
  890TIP3   OH224304   6.053   2.452   0.205  0.2571 -0.1114 -0.6506
  890TIP3    H124305   6.037   2.369   0.251 -0.7777 -0.0052 -0.7949
  890TIP3    H224306   6.135   2.484   0.241 -0.2606 -0.2948  0.7487
  891TIP3   OH224307   4.115   3.887   7.676 -0.0648 -0.0022 -0.6182
  891TIP3    H124308   4.154   3.864   7.761  0.1257 -1.0940 -0.9814
  891TIP3    H224309   4.186   3.872   7.613 -0.9944 -1.9350 -1.2859
  892TIP3   OH224310   1.969   4.261   0.511  0.1802 -0.1877 -0.2482
  892TIP3    H124311   1.989   4.332   0.449 -0.2521 -0.6508 -0.9371
  892TIP3    H224312   1.875   4.270   0.528  0.3836  0.2185  0.7158
  893TIP3   OH224313   4.976   2.098   8.687 -0.3094 -0.0470 -0.2078
  893TIP3    H124314   4.925   2.056   8.756  1.7158 -0.2459  1.2488
  893TIP3    H224315   4.973   2.036   8.614 -1.4453 -0.4055  0.1206
  894TIP3   OH224316   2.060   0.796   7.242  0.0112 -0.0030 -0.0659
  894TIP3    H124317   2.087   0.853   7.170  0.5920  2.1378  1.7441
  894TIP3    H224318   1.969   0.775   7.224  0.1403  0.4900 -1.4035
  895TIP3   OH224319   4.354   6.560   7.784 -0.4411  0.3261  0.8556
  895TIP3    H124320   4.393   6.645   7.804 -1.1827  0.6487  0.9549
  895TIP3    H224321   4.354   6.514   7.868 -1.7592  0.9481  1.2327
  896TIP3   OH224322   4.789   3.246   0.917  0.1539  0.7140 -0.0138
  896TIP3    H124323   4.800   3.195   0.997 -0.1063  0.6167 -0.0385
  896TIP3    H224324   4.730   3.317   0.943 -0.2151  0.4798 -0.2078
  897TIP3   OH224325   5.533   5.393   1.313 -0.7362 -0.4722 -0.4257
  897TIP3    H124326   5.489   5.404   1.229 -1.0828  0.5908 -0.1232
  897TIP3    H224327   5.614   5.444   1.306 -0.1880 -1.3404 -0.5170
  898TIP3   OH224328   2.886   0.156   2.054 -0.5814 -0.2818  0.0785
  898TIP3    H124329   2.982   0.162   2.053 -0.4679 -1.1762  1.6585
  898TIP3    H224330   2.858   0.238   2.096 -0.4968 -0.0808 -0.2575
  899TIP3   OH224331   4.533   1.915   0.255  0.5824  0.1326  0.4185
  899TIP3    H124332   4.504   1.824   0.255 -0.5971  0.4632 -0.7173
  899TIP3    H224333   4.462   1.962   0.211  2.1749  1.2525 -1.1110
  900TIP3   OH224334   1.167   4.033   7.138 -0.3039  0.2257  0.2568
  900TIP3    H124335   1.257   4.055   7.164  0.1682 -0.2163 -0.9254
  900TIP3    H224336   1.133   4.113   7.098 -0.1256  0.1323 -0.0842
  901TIP3   OH224337   4.339   0.733   7.479  0.0013 -0.0556  0.0991
  901TIP3    H124338   4.319   0.650   7.435 -0.2446 -0.4486  0.9231
  901TIP3    H224339   4.318   0.800   7.414 -0.2779 -0.6208 -0.4108
  902TIP3   OH224340   4.282   3.808   2.327 -0.3606 -0.0652 -0.6502
  902TIP3    H124341   4.190   3.832   2.337 -0.8404 -1.5380 -1.2525
  902TIP3    H224342   4.297   3.739   2.392 -0.0203 -0.6741 -1.3569
  903TIP3   OH224343   2.183   5.376   8.467 -0.5891 -0.0033  0.0490
  903TIP3    H124344   2.097   5.343   8.443 -0.1860 -1.6570  0.7273
  903TIP3    H224345   2.237   5.361   8.389 -0.4974 -0.6908  0.2311
  904TIP3   OH224346   3.522   4.425   8.595  0.2058 -0.3610  0.3114
  904TIP3    H124347   3.565   4.342   8.573 -0.0204 -0.5134  0.4396
  904TIP3    H224348   3.585   4.470   8.650  0.2423 -0.5410  0.4180
  905TIP3   OH224349   0.389   1.776   1.762  0.3218  0.4520 -0.1234
  905TIP3    H124350   0.326   1.718   1.806  0.2613  0.2295 -0.4913
  905TIP3    H224351   0.449   1.803   1.831 -1.9453  3.1897  0.9886
  906TIP3   OH224352   4.277   4.457   1.437  0.0083  0.0424 -0.0649
  906TIP3    H124353   4.226   4.428   1.513 -0.1079  2.2416  0.7445
  906TIP3    H224354   4.359   4.490   1.473  0.8449 -0.7685 -1.1233
  907TIP3   OH224355   1.653   4.095   1.086  0.3196 -0.2655 -0.4686
  907TIP3    H124356   1.663   4.020   1.144  0.5866  0.1530  0.0379
  907TIP3    H224357   1.734   4.145   1.098 -0.6845  1.1802  0.7685
  908TIP3   OH224358   1.532   5.335   2.575 -0.6629  0.2392  0.8413
  908TIP3    H124359   1.582   5.288   2.641 -0.3097  0.6708  0.8835
  908TIP3    H224360   1.592   5.344   2.501 -1.9343 -2.8120 -0.7373
  909TIP3   OH224361   0.785   3.555   7.438  0.2261  0.3596 -0.1974
  909TIP3    H124362   0.787   3.566   7.533  1.0517 -0.1099 -0.1523
  909TIP3    H224363   0.693   3.570   7.414  0.3857  2.6222  0.3935
  910TIP3   OH224364   3.975   3.680   6.881  0.1058  0.3729  0.6173
  910TIP3    H124365   4.005   3.771   6.890  0.9847  0.1522  0.0388
  910TIP3    H224366   4.056   3.630   6.867 -0.5467 -0.1632 -1.6081
  911TIP3   OH224367   5.937   1.283   0.621  0.7755  1.3181  0.5728
  911TIP3    H124368   5.854   1.284   0.670 -0.7557  0.0637 -1.7751
  911TIP3    H224369   5.972   1.195   0.636 -0.1320  0.6223 -1.1251
  912TIP3   OH224370   5.677   1.619   7.608  0.0881  0.1144 -0.0584
  912TIP3    H124371   5.702   1.535   7.645  2.6492  1.4788  1.5658
  912TIP3    H224372   5.601   1.647   7.660 -0.6805 -1.0341 -0.5083
  913TIP3   OH224373   0.453   4.178   1.267 -0.6486  0.2619  0.0042
  913TIP3    H124374   0.529   4.157   1.320 -1.1996  0.9318  1.0909
  913TIP3    H224375   0.488   4.189   1.178  0.4740  0.2829  0.4373
  914TIP3   OH224376   1.144   3.181   6.732  0.5945 -0.0316 -0.0890
  914TIP3    H124377   1.095   3.123   6.673 -0.4421  0.8845 -0.1671
  914TIP3    H224378   1.094   3.179   6.813  0.5914  0.6834 -0.0666
  915TIP3   OH224379   6.713   1.477   1.128  0.5028  0.2091 -0.3032
  915TIP3    H124380   6.792   1.425   1.111 -1.2365 -2.3446 -1.2157
  915TIP3    H224381   6.699   1.526   1.047  1.0131  0.4950 -0.2215
  916TIP3   OH224382   3.753   4.558   8.029  0.0665  0.2365 -0.8348
  916TIP3    H124383   3.784   4.520   7.947 -0.5026 -0.3373 -0.7903
  916TIP3    H224384   3.832   4.590   8.073  0.3942  0.3559 -1.5083
  917TIP3   OH224385   4.322   0.672   7.055 -0.1494 -0.6287  0.2952
  917TIP3    H124386   4.234   0.640   7.077 -0.7828  1.8319  1.7619
  917TIP3    H224387   4.335   0.647   6.964 -1.7254 -2.3535  0.4846
  918TIP3   OH224388   0.190   3.502   2.281 -0.3252  0.1579 -0.1050
  918TIP3    H124389   0.167   3.472   2.369 -0.6448  0.2213 -0.1655
  918TIP3    H224390   0.262   3.564   2.294  0.3423 -0.6242  0.0220
  919TIP3   OH224391   2.487   4.177   8.225 -0.2392 -0.4099 -0.2748
  919TIP3    H124392   2.438   4.246   8.271 -0.9112 -0.5032 -0.8201
  919TIP3    H224393   2.576   4.184   8.259  0.0068  1.5248 -1.1673
  920TIP3   OH224394   2.304   1.946   2.278 -0.0965  0.3460  0.0848
  920TIP3    H124395   2.320   1.981   2.365  0.5663 -0.6819  0.3964
  920TIP3    H224396   2.320   1.852   2.287 -0.5370  0.1527 -1.0223
  921TIP3   OH224397   2.395   3.007   1.018 -0.2985  0.2275  0.1996
  921TIP3    H124398   2.472   2.986   0.965 -0.1680 -0.2523  0.5710
  921TIP3    H224399   2.399   3.101   1.031  0.8502  0.0661  1.1578
  922TIP3   OH224400   4.527   1.164   1.725  0.4627  0.5124 -0.0415
  922TIP3    H124401   4.483   1.082   1.700  1.2558  0.2004 -0.4460
  922TIP3    H224402   4.510   1.172   1.819  0.1909 -0.0003 -0.0412
  923TIP3   OH224403   5.705   4.410   6.645  0.3617  0.1023  0.4704
  923TIP3    H124404   5.717   4.499   6.679  0.2898  0.9479 -1.6178
  923TIP3    H224405   5.611   4.393   6.655  0.3157  0.3903  0.5365
  924TIP3   OH224406   3.659   2.568   7.246  0.2449  0.0511 -0.3237
  924TIP3    H124407   3.624   2.630   7.183 -0.5044  0.0681  0.0927
  924TIP3    H224408   3.685   2.622   7.321  2.8221  0.2434 -1.2913
  925TIP3   OH224409   3.821   0.137   1.309 -0.2674  0.1908  0.1062
  925TIP3    H124410   3.830   0.067   1.373  0.5022 -0.3645 -0.5939
  925TIP3    H224411   3.730   0.130   1.278  0.2015 -1.4449 -1.0111
  926TIP3   OH224412   6.750   2.042   0.214 -0.3078 -0.9240  0.4564
  926TIP3    H124413   6.717   2.111   0.157 -0.7174 -1.1754  0.3846
  926TIP3    H224414   6.692   2.042   0.290 -0.4678 -1.3507  0.3390
  927TIP3   OH224415   1.973   5.242   8.746 -0.1353 -1.0090 -0.2592
  927TIP3    H124416   1.994   5.231   8.839 -0.5017 -0.7249 -0.1418
  927TIP3    H224417   2.056   5.228   8.701 -0.3372 -3.2384 -0.0439
  928TIP3   OH224418   4.257   5.665   1.806 -0.2508 -0.4420  0.1950
  928TIP3    H124419   4.217   5.579   1.795 -1.5796  0.2215 -0.2713
  928TIP3    H224420   4.274   5.672   1.900 -2.2568 -0.3155  0.5859
  929TIP3   OH224421   6.040   4.844   1.560 -0.1044  0.5362  0.5551
  929TIP3    H124422   6.028   4.778   1.492 -1.2832 -1.2076  2.3522
  929TIP3    H224423   5.977   4.913   1.539 -1.1215 -0.4231  0.3947
  930TIP3   OH224424   5.874   4.215   8.746 -0.2445 -0.3532 -0.4585
  930TIP3    H124425   5.905   4.145   8.803 -1.1468 -0.0825  0.3873
  930TIP3    H224426   5.836   4.170   8.671 -1.4515 -0.8173  0.4030
  931TIP3   OH224427   6.572   1.418   8.665  0.2618  0.1058 -0.4829
  931TIP3    H124428   6.606   1.507   8.656  0.5528 -0.0628 -1.0836
  931TIP3    H224429   6.499   1.427   8.726  0.6593  0.6571 -0.0734
  932TIP3   OH224430   4.119   3.781   0.631 -0.1373 -0.0930 -0.4619
  932TIP3    H124431   4.168   3.845   0.579 -0.9094  0.0745 -0.9999
  932TIP3    H224432   4.093   3.828   0.709 -1.4679  0.5546 -1.2551
  933TIP3   OH224433   2.597   5.184   0.524 -0.3886  0.5236 -0.0763
  933TIP3    H124434   2.631   5.107   0.569 -0.3475  0.6501  0.1074
  933TIP3    H224435   2.661   5.201   0.454  0.2004  1.0666  0.5804
  934TIP3   OH224436   6.757   3.235   1.223 -0.0423 -0.2110 -0.0385
  934TIP3    H124437   6.702   3.164   1.258 -1.3044  1.8482  2.5110
  934TIP3    H224438   6.842   3.221   1.264 -0.5575  0.2178  1.2444
  935TIP3   OH224439   6.194   4.479   1.418  0.3139  0.1639 -0.1964
  935TIP3    H124440   6.136   4.546   1.383 -0.3291 -0.6778 -0.8003
  935TIP3    H224441   6.134   4.410   1.450  0.9575 -0.2240  0.2045
  936TIP3   OH224442   0.129   6.726   0.261  0.7987  0.2147 -0.1111
  936TIP3    H124443   0.215   6.767   0.250  1.0306 -0.4287 -0.7465
  936TIP3    H224444   0.077   6.760   0.188  1.4991 -1.8997 -1.6527
  937TIP3   OH224445   2.935   2.947   8.169  0.0483  0.1176  0.5045
  937TIP3    H124446   3.026   2.950   8.139  0.6315  0.4230  2.1812
  937TIP3    H224447   2.896   2.875   8.121  1.1899 -0.0513 -0.2158
  938TIP3   OH224448   5.454   6.470   1.437 -0.4327 -0.6319 -0.0134
  938TIP3    H124449   5.426   6.525   1.363  0.0224 -1.4599 -0.8281
  938TIP3    H224450   5.514   6.407   1.398  0.5240 -0.5330  1.2376
  939TIP3   OH224451   3.817   3.400   1.247 -0.0130 -0.1609  0.5076
  939TIP3    H124452   3.726   3.427   1.258 -0.0130  0.2031 -0.2557
  939TIP3    H224453   3.812   3.317   1.200  0.0354 -0.5790  1.2249
  940TIP3   OH224454   0.757   3.330   1.347  0.1167 -0.1547  0.2896
  940TIP3    H124455   0.744   3.238   1.371 -2.3362  0.2855  0.9110
  940TIP3    H224456   0.767   3.329   1.251  1.2560 -1.1453  0.4047
  941TIP3   OH224457   5.241   3.881   0.297 -0.7803 -0.1049  0.4128
  941TIP3    H124458   5.244   3.947   0.228  0.5512 -1.6361 -1.0805
  941TIP3    H224459   5.310   3.906   0.358  0.2525 -0.5151 -0.5607
  942TIP3   OH224460   4.577   5.064   7.028 -0.1710  0.0287  0.1737
  942TIP3    H124461   4.655   5.010   7.013  0.6025  1.0507  0.4467
  942TIP3    H224462   4.532   5.064   6.944 -0.9306 -2.1680  0.5195
  943TIP3   OH224463   3.754   4.688   7.297 -0.3284  0.4028 -0.1701
  943TIP3    H124464   3.843   4.654   7.290 -0.6591 -0.5009 -0.1330
  943TIP3    H224465   3.735   4.687   7.390 -0.5851  0.0094 -0.2210
  944TIP3   OH224466   4.164   5.947   1.844 -0.2974  0.5067 -1.2614
  944TIP3    H124467   4.197   5.861   1.818 -1.5220 -0.3192 -0.2345
  944TIP3    H224468   4.214   5.970   1.922 -2.0619 -0.7548  0.3083
  945TIP3   OH224469   1.195   5.438   2.231 -0.2880 -0.5903  0.2396
  945TIP3    H124470   1.241   5.403   2.307  1.1952  0.6659 -0.0198
  945TIP3    H224471   1.154   5.519   2.263  0.4764  0.0293 -0.2954
  946TIP3   OH224472   4.378   0.624   1.794 -0.3699 -0.2405  0.0216
  946TIP3    H124473   4.418   0.596   1.876  2.7598  1.4998 -0.7774
  946TIP3    H224474   4.356   0.717   1.808  0.3953  0.1368 -1.1417
  947TIP3   OH224475   0.705   4.001   8.255  0.6322 -0.0119  0.3928
  947TIP3    H124476   0.737   3.999   8.345  1.0300  3.3165  0.4558
  947TIP3    H224477   0.774   4.046   8.206  0.2663 -1.4174 -1.5256
  948TIP3   OH224478   1.978   0.969   9.002  0.4143  0.0371 -0.1696
  948TIP3    H124479   1.957   0.879   8.980  0.0482 -0.4356  1.8501
  948TIP3    H224480   1.952   1.020   8.925 -0.7012 -1.4218 -0.8063
  949TIP3   OH224481   0.956   2.736   0.925  0.3304  0.1985 -0.1026
  949TIP3    H124482   0.898   2.667   0.958 -0.4595  0.5917 -0.6399
  949TIP3    H224483   0.898   2.799   0.883  0.9415  1.6446  1.1212
  950TIP3   OH224484   4.037   6.702   2.296  0.0297  0.2273 -0.3905
  950TIP3    H124485   4.002   6.627   2.249 -0.6940  0.9692 -1.0729
  950TIP3    H224486   4.017   6.685   2.388 -0.3312 -0.3052 -0.5659
  951TIP3   OH224487   1.856   5.523   0.873 -0.1373 -0.0419 -0.3289
  951TIP3    H124488   1.878   5.600   0.820 -0.4671  1.5574  1.6928
  951TIP3    H224489   1.924   5.522   0.942  0.1436 -1.8851 -0.5974
  952TIP3   OH224490   4.229   5.036   7.395 -0.2927 -0.1310 -0.3526
  952TIP3    H124491   4.290   4.979   7.348  0.8751 -0.9067  1.9652
  952TIP3    H224492   4.158   4.979   7.422  0.6576 -0.4979  1.5790
  953TIP3   OH224493   2.668   6.464   7.636  0.0238 -0.0790  0.0115
  953TIP3    H124494   2.575   6.471   7.616  0.1160 -1.5188 -1.0555
  953TIP3    H224495   2.690   6.372   7.619  1.1266 -0.3764  2.5437
  954TIP3   OH224496   0.845   1.145   0.560  0.4318  0.2121 -0.0742
  954TIP3    H124497   0.776   1.079   0.561  0.4673  0.1575  1.5412
  954TIP3    H224498   0.922   1.099   0.594  1.6386 -0.0493 -2.8756
  955TIP3   OH224499   4.344   6.412   8.023 -0.0452  0.2214 -0.2458
  955TIP3    H124500   4.438   6.430   8.028  0.0663 -0.1038 -0.9902
  955TIP3    H224501   4.315   6.410   8.114  0.0752  3.3136 -0.0193
  956TIP3   OH224502   0.069   4.468   7.452 -0.0962 -0.4281 -0.0152
  956TIP3    H124503   0.004   4.532   7.424  0.7939  0.4584 -0.0878
  956TIP3    H224504   0.057   4.460   7.546  0.6974  0.9122  0.2273
  957TIP3   OH224505   1.146   4.798   8.897 -0.2601 -0.5023 -0.2862
  957TIP3    H124506   1.155   4.870   8.834 -0.9509  0.5300  0.7640
  957TIP3    H224507   1.236   4.778   8.923 -0.1157  0.8518  0.3423
  958TIP3   OH224508   1.176   2.927   8.504 -0.7861  0.9155 -0.5102
  958TIP3    H124509   1.099   2.907   8.557  0.0357 -1.5062 -0.0947
  958TIP3    H224510   1.249   2.893   8.554 -0.0120 -2.1758 -3.3246
  959TIP3   OH224511   0.371   2.615   1.365  0.3301 -0.5216  0.3099
  959TIP3    H124512   0.406   2.565   1.291 -0.2770 -0.8677  0.2546
  959TIP3    H224513   0.359   2.703   1.331  0.6913 -0.5150  0.1914
  960TIP3   OH224514   3.593   6.161   1.409 -0.7555 -0.2832  0.2159
  960TIP3    H124515   3.633   6.074   1.419  0.1587  0.1414  0.4110
  960TIP3    H224516   3.499   6.145   1.411 -0.6404 -1.4727 -1.4824
  961TIP3   OH224517   5.850   4.522   1.420  0.1046  0.8168  0.3050
  961TIP3    H124518   5.871   4.612   1.395  2.3328  0.2325 -0.1399
  961TIP3    H224519   5.900   4.507   1.500  1.1501 -0.5473 -0.5748
  962TIP3   OH224520   5.669   6.531   8.563 -0.2207 -0.1803  0.2775
  962TIP3    H124521   5.710   6.450   8.533 -0.4342  0.4178 -1.7635
  962TIP3    H224522   5.678   6.529   8.658 -1.5363 -3.2998  0.4400
  963TIP3   OH224523   4.214   5.036   0.952  0.3846  0.4068  0.1529
  963TIP3    H124524   4.281   4.990   1.003 -0.9503 -2.0893 -0.1520
  963TIP3    H224525   4.153   5.069   1.018  0.1298 -0.3638  0.3160
  964TIP3   OH224526   6.040   4.990   0.117  0.1998 -0.0105 -0.5887
  964TIP3    H124527   6.084   5.075   0.120  0.3441 -0.0970 -0.1003
  964TIP3    H224528   5.977   4.993   0.189 -1.8067  0.7465 -2.2657
  965TIP3   OH224529   1.471   2.145   1.655  0.8758 -0.0030 -0.0943
  965TIP3    H124530   1.558   2.126   1.688  0.9919  0.4715 -0.1130
  965TIP3    H224531   1.474   2.238   1.631  0.7016 -0.2526 -1.1361
  966TIP3   OH224532   2.485   2.189   1.156 -0.2582 -0.3011  0.4316
  966TIP3    H124533   2.522   2.138   1.084  0.5925 -0.4061  0.9323
  966TIP3    H224534   2.427   2.128   1.202 -1.8677  0.1314 -0.9264
  967TIP3   OH224535   0.833   5.291   7.838 -0.3517 -0.1101 -0.1106
  967TIP3    H124536   0.785   5.273   7.919  1.2398 -2.2978  0.4495
  967TIP3    H224537   0.910   5.339   7.867  0.3343 -1.0915 -0.2632
  968TIP3   OH224538   2.467   1.045   0.807 -0.6775  0.7415  0.1432
  968TIP3    H124539   2.389   0.989   0.804  1.2458 -2.3209  2.0980
  968TIP3    H224540   2.517   1.021   0.729 -0.5265  0.8808  0.1955
  969TIP3   OH224541   0.988   3.870   7.800 -0.2539 -0.1928 -0.1413
  969TIP3    H124542   0.989   3.859   7.895  0.4662  0.4689 -0.0596
  969TIP3    H224543   0.904   3.911   7.781 -0.9083 -1.4006  0.0666
  970TIP3   OH224544   6.113   2.206   8.928  0.4172 -0.6840  0.1058
  970TIP3    H124545   6.167   2.248   8.995  1.2028 -0.5458 -0.6039
  970TIP3    H224546   6.154   2.230   8.845 -0.9181 -0.3091 -0.4730
  971TIP3   OH224547   0.727   0.239   1.868 -0.2381 -0.0508  0.3166
  971TIP3    H124548   0.643   0.225   1.824  0.0393  0.2593 -0.3314
  971TIP3    H224549   0.785   0.173   1.830 -0.3848 -0.7732  1.3275
  972TIP3   OH224550   1.916   1.547   8.796 -0.8268 -0.5273  0.6469
  972TIP3    H124551   1.861   1.497   8.736  0.5223 -0.5972 -0.5773
  972TIP3    H224552   1.862   1.622   8.820 -1.7106 -0.9429  0.0286
  973TIP3   OH224553   6.442   5.352   8.154  0.3826 -0.8724  0.0421
  973TIP3    H124554   6.436   5.281   8.090 -1.0295 -0.5545 -0.1990
  973TIP3    H224555   6.352   5.381   8.167  0.9352  0.9722  0.0435
  974TIP3   OH224556   1.644   6.766   8.808 -0.2572 -0.3693  0.1694
  974TIP3    H124557   1.689   6.773   8.724  0.0469  1.2269  0.4398
  974TIP3    H224558   1.552   6.784   8.788  0.0408  1.6005  0.3672
  975TIP3   OH224559   5.257   1.280   7.496  0.3226 -0.7450 -0.2965
  975TIP3    H124560   5.300   1.337   7.432  0.2063  0.4745  0.6658
  975TIP3    H224561   5.164   1.299   7.487  0.3981  0.5253  1.1786
  976TIP3   OH224562   2.118   4.418   2.282  0.0796 -0.0460  0.2245
  976TIP3    H124563   2.073   4.501   2.301  2.5384  1.0190  1.9017
  976TIP3    H224564   2.150   4.388   2.367  1.5766 -1.2849 -0.7155
  977TIP3   OH224565   5.932   2.512   7.648 -0.6990 -0.2323 -0.2200
  977TIP3    H124566   6.026   2.525   7.636 -1.0492  2.0247 -1.1614
  977TIP3    H224567   5.901   2.593   7.689 -2.2963 -0.7425 -0.3290
  978TIP3   OH224568   0.277   2.396   1.905  0.1780  0.3135  0.0255
  978TIP3    H124569   0.283   2.342   1.984  1.4681  0.2275 -0.1137
  978TIP3    H224570   0.260   2.334   1.835 -2.1196  0.5003  0.3495
  979TIP3   OH224571   4.757   2.623   8.287 -0.5521 -0.2002 -0.2069
  979TIP3    H124572   4.729   2.536   8.258  1.8671 -1.2519  0.3740
  979TIP3    H224573   4.731   2.682   8.216 -2.2454 -1.3582 -0.6092
  980TIP3   OH224574   5.698   0.397   6.921 -0.0266 -0.3282 -0.2459
  980TIP3    H124575   5.633   0.338   6.881 -0.7622 -0.8934  1.6918
  980TIP3    H224576   5.778   0.345   6.925 -0.2134 -0.6078 -0.0934
  981TIP3   OH224577   1.349   3.573   2.887 -0.3889 -0.3411 -0.0863
  981TIP3    H124578   1.288   3.633   2.931 -1.8545 -0.3540 -1.9762
  981TIP3    H224579   1.295   3.528   2.822  1.8509  0.5252 -2.7266
  982TIP3   OH224580   2.735   1.708   7.659  0.1618  0.4383 -0.0680
  982TIP3    H124581   2.781   1.626   7.645 -1.2625 -0.3843 -0.1176
  982TIP3    H224582   2.741   1.723   7.754  1.8732  1.1850 -0.2691
  983TIP3   OH224583   2.027   2.942   6.969 -0.0346  0.4503  0.2111
  983TIP3    H124584   2.020   3.020   6.913  0.2516 -0.6581 -1.4385
  983TIP3    H224585   2.122   2.930   6.980 -0.0163 -0.6285 -0.9870
  984TIP3   OH224586   2.976   3.111   1.090  0.0559  0.1259  0.2704
  984TIP3    H124587   2.914   3.178   1.120 -1.6492 -0.7837 -1.0103
  984TIP3    H224588   3.050   3.161   1.056 -1.1483  1.4053 -0.6318
  985TIP3   OH224589   4.540   6.198   8.294  0.0013  0.4500  0.0211
  985TIP3    H124590   4.462   6.254   8.291 -0.1726  0.2560  0.7543
  985TIP3    H224591   4.609   6.254   8.327  0.5625  1.0361 -1.9698
  986TIP3   OH224592   6.105   4.128   0.815 -0.1190 -0.1636  0.2528
  986TIP3    H124593   6.041   4.120   0.744 -0.4844  3.4973 -0.0285
  986TIP3    H224594   6.190   4.126   0.771 -0.2834  0.3384 -0.1019
  987TIP3   OH224595   3.531   6.033   1.926  0.4096 -0.2740 -0.5611
  987TIP3    H124596   3.594   6.031   1.997  0.5078  1.3085 -0.5774
  987TIP3    H224597   3.575   6.082   1.856 -0.2600 -0.4880 -1.1446
  988TIP3   OH224598   3.513   2.535   1.624  0.1843  0.2574 -0.0345
  988TIP3    H124599   3.454   2.476   1.670  0.4058 -0.9646 -1.2656
  988TIP3    H224600   3.481   2.623   1.646 -1.3183 -0.3491  0.3302
  989TIP3   OH224601   0.155   5.096   0.929  0.0926  0.5082  0.2367
  989TIP3    H124602   0.076   5.148   0.946  1.2932  2.1077  1.1699
  989TIP3    H224603   0.157   5.031   0.999 -0.2188  0.6792  0.4074
  990TIP3   OH224604   2.652   2.175   8.029 -0.7712 -0.3386 -0.0504
  990TIP3    H124605   2.580   2.238   8.037 -1.3693 -0.9207 -0.6435
  990TIP3    H224606   2.726   2.228   7.999 -0.9131  0.2880  0.6603
  991TIP3   OH224607   4.475   5.074   1.307 -0.2580  0.3308  0.2372
  991TIP3    H124608   4.494   5.143   1.244  0.2535 -0.1003 -0.0816
  991TIP3    H224609   4.506   5.108   1.391 -0.3886  0.6579  0.1513
  992TIP3   OH224610   1.978   2.801   2.730  0.4264 -0.0890  0.3664
  992TIP3    H124611   1.933   2.858   2.668  0.7199 -0.4645 -0.1894
  992TIP3    H224612   2.032   2.744   2.676  0.7690 -0.3426  0.9713
  993TIP3   OH224613   2.212   4.613   8.978 -0.2049  0.0715 -0.5028
  993TIP3    H124614   2.121   4.627   8.950 -0.2769 -0.9215 -0.8185
  993TIP3    H224615   2.205   4.574   9.065 -0.0211  1.5942  0.2203
  994TIP3   OH224616   0.397   1.513   0.126  0.3391  0.1949 -0.0983
  994TIP3    H124617   0.381   1.445   0.191  0.4134  1.1995  1.0250
  994TIP3    H224618   0.425   1.466   0.047 -0.3290 -1.0902  0.4065
  995TIP3   OH224619   3.038   1.962   7.492 -0.0675 -0.3274  0.0852
  995TIP3    H124620   3.035   1.995   7.582 -0.1561  0.3137 -0.1462
  995TIP3    H224621   2.951   1.926   7.476  0.5169 -2.2125  0.8933
  996TIP3   OH224622   0.572   4.482   8.692 -0.0923  0.0798  0.5607
  996TIP3    H124623   0.656   4.500   8.649  0.3430 -0.8849  0.9890
  996TIP3    H224624   0.594   4.476   8.785 -0.4997 -0.9324  0.5999
  997TIP3   OH224625   6.742   5.888   1.038 -0.0927  0.2268 -0.2066
  997TIP3    H124626   6.751   5.944   1.115  0.2490  3.5204 -2.4300
  997TIP3    H224627   6.650   5.896   1.014  0.0707  0.3101 -0.8336
  998TIP3   OH224628   3.719   3.895   7.903  0.0209 -0.1884 -0.0371
  998TIP3    H124629   3.800   3.857   7.937 -0.3336 -0.3232  0.6537
  998TIP3    H224630   3.653   3.878   7.970 -0.7245 -0.5959 -0.8572
  999TIP3   OH224631   1.687   6.217   7.495 -0.4515 -0.2309 -0.3986
  999TIP3    H124632   1.723   6.192   7.410  1.6648  2.3943 -0.4059
  999TIP3    H224633   1.645   6.301   7.479 -1.7048 -0.5972  0.8085
 1000TIP3   OH224634   3.657   5.803   0.294  0.5210  0.0134  0.3553
 1000TIP3    H124635   3.599   5.876   0.318  3.0515  2.2393  0.1839
 1000TIP3    H224636   3.693   5.772   0.378 -0.2950 -0.8531  0.3982
 1001TIP3   OH224637   4.867   5.448   0.823 -0.8703 -0.0687 -0.1633
 1001TIP3    H124638   4.861   5.363   0.780  1.6609  0.1740 -1.1334
 1001TIP3    H224639   4.887   5.428   0.914  3.3344 -0.6599 -1.0291
 1002TIP3   OH224640   1.044   2.202   1.902 -1.2825  0.7079 -0.1326
 1002TIP3    H124641   1.004   2.123   1.938 -0.4673  0.4085  0.1283
 1002TIP3    H224642   1.108   2.171   1.839  1.3300  0.9620  2.2096
 1003TIP3   OH224643   0.543   5.404   0.930 -0.2430  0.2134 -0.1776
 1003TIP3    H124644   0.532   5.497   0.907 -1.3605  0.0073 -0.5371
 1003TIP3    H224645   0.454   5.370   0.934  0.1597 -0.8442 -0.0238
 1004TIP3   OH224646   6.111   0.752   0.666  0.4239 -0.6936 -0.4029
 1004TIP3    H124647   6.184   0.725   0.610 -1.2156  2.4123 -4.6184
 1004TIP3    H224648   6.033   0.720   0.620 -1.0448  0.6077  1.0367
 1005TIP3   OH224649   2.231   2.931   2.319 -0.1070 -0.0455  0.0018
 1005TIP3    H124650   2.316   2.931   2.275 -0.0302 -1.4769  0.1138
 1005TIP3    H224651   2.167   2.927   2.248 -0.0865  0.7064 -0.0696
 1006TIP3   OH224652   4.567   2.624   0.249  0.3390  0.6023  0.6970
 1006TIP3    H124653   4.477   2.620   0.281  0.1470 -0.9761  0.0347
 1006TIP3    H224654   4.595   2.532   0.245  2.0233  1.0693  0.9948
 1007TIP3   OH224655   2.218   1.212   8.237  0.1471  0.3248 -0.3490
 1007TIP3    H124656   2.190   1.121   8.241 -0.1348  0.2997 -2.0843
 1007TIP3    H224657   2.310   1.211   8.262  0.0204 -0.3659  0.0958
 1008TIP3   OH224658   4.212   2.122   7.945  0.2218  0.1193 -0.0645
 1008TIP3    H124659   4.288   2.067   7.963 -0.0900 -0.8675 -1.5853
 1008TIP3    H224660   4.245   2.192   7.889  0.4303  1.0096  1.1212
 1009TIP3   OH224661   2.295   5.446   1.850 -0.8403  0.0082  0.0780
 1009TIP3    H124662   2.379   5.487   1.830 -1.2666  0.9423  0.1507
 1009TIP3    H224663   2.236   5.519   1.866 -0.7741 -0.5944  3.9186
 1010TIP3   OH224664   2.459   0.930   2.926 -0.1009 -0.5479 -0.5906
 1010TIP3    H124665   2.452   0.880   3.007 -0.1821 -0.0752 -0.2978
 1010TIP3    H224666   2.384   0.989   2.929  1.5259  1.6249  0.5026
 1011TIP3   OH224667   0.521   6.436   7.920  0.2654  0.1894 -0.0332
 1011TIP3    H124668   0.500   6.355   7.967 -0.2457  0.7906  0.7986
 1011TIP3    H224669   0.459   6.500   7.954  2.5625  1.7176  1.5835
 1012TIP3   OH224670   0.989   6.153   7.881 -0.2282 -0.4827 -0.3616
 1012TIP3    H124671   0.931   6.229   7.874 -0.9562 -0.9089  0.7140
 1012TIP3    H224672   1.050   6.176   7.950  0.6868 -0.1796 -1.2505
 1013TIP3   OH224673   1.390   2.971   7.450  0.1610  0.5202 -0.3501
 1013TIP3    H124674   1.340   2.967   7.531  0.5939 -1.6462 -0.1218
 1013TIP3    H224675   1.480   2.986   7.477  0.6636 -2.3346 -0.1815
 1014TIP3   OH224676   5.554   3.463   1.016  0.2203  0.2796 -0.5382
 1014TIP3    H124677   5.617   3.497   1.079 -1.0487  1.9185 -0.0822
 1014TIP3    H224678   5.580   3.372   1.003  1.3181  0.2662  1.3372
 1015TIP3   OH224679   5.330   1.110   1.095  0.0836 -0.1086  0.0327
 1015TIP3    H124680   5.236   1.105   1.082 -0.1861  0.9139  1.3644
 1015TIP3    H224681   5.353   1.026   1.136 -0.3063 -0.2034  0.0585
 1016TIP3   OH224682   3.696   4.872   8.766  0.3606 -0.5914 -0.1433
 1016TIP3    H124683   3.734   4.785   8.764  1.2051 -0.2321  0.0555
 1016TIP3    H224684   3.601   4.857   8.761  0.5198 -1.4892 -0.5572
 1017TIP3   OH224685   4.818   6.321   1.432  0.7093 -0.1126 -0.0435
 1017TIP3    H124686   4.854   6.410   1.429  1.4633 -0.4101 -2.9281
 1017TIP3    H224687   4.799   6.306   1.524  1.5441  2.6443  0.6745
 1018TIP3   OH224688   2.435   0.764   2.028 -0.3370  0.1341 -0.2715
 1018TIP3    H124689   2.477   0.705   1.966  2.3355  1.0136  0.5771
 1018TIP3    H224690   2.345   0.732   2.035  0.5531 -2.7865 -1.0710
 1019TIP3   OH224691   3.041   4.706   2.210  0.2386 -0.4991 -0.2117
 1019TIP3    H124692   3.065   4.663   2.127  0.5907  1.3384 -1.1229
 1019TIP3    H224693   3.003   4.790   2.183  2.4676  1.1925  1.5040
 1020TIP3   OH224694   2.063   1.133   2.187 -0.0370 -0.4025 -0.0022
 1020TIP3    H124695   2.013   1.059   2.220  1.7999 -1.1360  1.2472
 1020TIP3    H224696   2.140   1.094   2.145  1.7470  0.7635  1.9882
 1021TIP3   OH224697   2.194   6.534   7.175  0.1240  0.5281  0.3598
 1021TIP3    H124698   2.277   6.515   7.220 -0.1998  0.5135  0.9561
 1021TIP3    H224699   2.153   6.602   7.228 -0.5910  0.0049  0.4779
 1022TIP3   OH224700   1.114   1.018   0.952  0.4572  0.1809  0.1965
 1022TIP3    H124701   1.071   0.934   0.968 -1.2557  0.8737 -0.4713
 1022TIP3    H224702   1.062   1.081   1.002  1.5264  0.8975  0.4336
 1023TIP3   OH224703   0.312   3.252   8.462  0.2907  0.0156 -0.0243
 1023TIP3    H124704   0.218   3.234   8.473  0.1942 -0.0230 -0.8636
 1023TIP3    H224705   0.354   3.167   8.478  0.1589 -0.0341  0.0622
 1024TIP3   OH224706   2.171   1.750   2.537  0.0188 -0.3294 -0.0717
 1024TIP3    H124707   2.150   1.671   2.588  1.0667 -0.4958  0.1226
 1024TIP3    H224708   2.215   1.807   2.600 -2.2298  1.1537  0.2555
 1025TIP3   OH224709   0.407   0.178   7.800  0.4071 -0.0537  0.8277
 1025TIP3    H124710   0.321   0.142   7.821 -0.1506  0.5010 -0.4106
 1025TIP3    H224711   0.446   0.114   7.741 -0.3143  0.9896 -0.8412
 1026TIP3   OH224712   3.970   1.680   7.749 -0.2847  0.2545 -0.2378
 1026TIP3    H124713   4.011   1.715   7.828  1.9199  2.0364 -2.0264
 1026TIP3    H224714   3.911   1.750   7.720 -0.7660 -0.2156 -0.4111
 1027TIP3   OH224715   5.052   4.648   7.206 -0.2170  0.2739 -0.0721
 1027TIP3    H124716   5.144   4.645   7.230 -0.4845  1.1307  1.1850
 1027TIP3    H224717   5.010   4.586   7.266 -0.5485  0.4304 -0.1394
 1028TIP3   OH224718   4.642   4.105   8.571 -0.1219  0.0864  0.2539
 1028TIP3    H124719   4.628   4.063   8.655  1.2902 -0.7215  0.1083
 1028TIP3    H224720   4.613   4.040   8.507  1.1469 -0.3211  0.0616
 1029TIP3   OH224721   4.052   3.427   8.103 -0.2315 -0.5320  0.1887
 1029TIP3    H124722   4.080   3.376   8.180  0.2334  0.1683  0.4893
 1029TIP3    H224723   4.096   3.511   8.112  0.0437 -0.5309 -0.9972
 1030TIP3   OH224724   6.321   3.356   7.718  0.1035  0.4561 -0.1642
 1030TIP3    H124725   6.311   3.320   7.630  1.3904  1.0860 -0.5960
 1030TIP3    H224726   6.251   3.421   7.726 -0.0878  0.3116 -0.6729
 1031TIP3   OH224727   5.887   4.946   8.749  0.9229  0.6435  0.7767
 1031TIP3    H124728   5.879   4.883   8.677  0.7534 -0.1775  1.5045
 1031TIP3    H224729   5.910   4.893   8.825 -0.9832  1.2161  1.8148
 1032TIP3   OH224730   3.852   6.267   1.495 -0.4843 -0.3197  0.2653
 1032TIP3    H124731   3.895   6.218   1.425 -1.0896 -2.5068  1.3633
 1032TIP3    H224732   3.762   6.278   1.464  0.1292  2.1186 -0.9355
 1033TIP3   OH224733   0.650   6.343   0.248  0.2051  0.2538 -0.1297
 1033TIP3    H124734   0.594   6.392   0.309 -1.5313 -0.4285 -1.1131
 1033TIP3    H224735   0.705   6.410   0.208 -0.9769  1.2067 -0.2407
 1034TIP3   OH224736   4.504   3.185   2.503 -0.1808  0.5596 -0.8145
 1034TIP3    H124737   4.424   3.196   2.555  1.0376  0.1075  1.2780
 1034TIP3    H224738   4.478   3.127   2.431 -1.6575  0.1548 -0.0002
 1035TIP3   OH224739   5.387   1.882   8.907 -0.3472 -0.3978 -0.0572
 1035TIP3    H124740   5.465   1.861   8.856  0.1354 -2.1969  1.3048
 1035TIP3    H224741   5.346   1.954   8.860  1.2335 -0.5189 -1.7295
 1036TIP3   OH224742   0.064   4.698   8.200  0.5327 -0.3549  0.0942
 1036TIP3    H124743   0.120   4.655   8.135  2.9145 -0.8544  2.2903
 1036TIP3    H224744   0.003   4.630   8.228  0.8437 -0.7412 -0.1538
 1037TIP3   OH224745   5.365   3.435   8.387 -0.1164  0.0623  0.1316
 1037TIP3    H124746   5.418   3.476   8.456 -0.2259  0.8243 -0.2215
 1037TIP3    H224747   5.427   3.381   8.338  0.1426  0.1916  0.3116
 1038TIP3   OH224748   2.948   5.340   8.461  0.1210  0.5663 -0.9336
 1038TIP3    H124749   2.968   5.322   8.553  1.4449  3.6994 -0.4798
 1038TIP3    H224750   2.861   5.380   8.463 -0.9479 -1.5945 -1.4216
 1039TIP3   OH224751   2.708   2.104   1.649 -0.5652 -0.1820 -0.1229
 1039TIP3    H124752   2.631   2.104   1.593 -0.9684 -0.4360  0.4158
 1039TIP3    H224753   2.737   2.013   1.650  0.8120  0.2015 -1.7359
 1040TIP3   OH224754   3.086   6.726   7.693 -0.7452  0.2380 -0.5483
 1040TIP3    H124755   3.002   6.680   7.696 -0.0560 -1.0344  0.0575
 1040TIP3    H224756   3.062   6.819   7.695 -2.1218 -0.0787  1.5348
 1041TIP3   OH224757   4.190   3.964   2.852 -0.1218  0.3242  0.2797
 1041TIP3    H124758   4.095   3.976   2.856 -0.4093 -1.5421  0.0835
 1041TIP3    H224759   4.226   4.051   2.867 -1.8387  0.8580  1.6868
 1042TIP3   OH224760   5.549   1.585   2.461  0.0976  0.3567 -0.0257
 1042TIP3    H124761   5.635   1.550   2.482  0.4924 -0.0484 -2.0397
 1042TIP3    H224762   5.488   1.515   2.484  0.4076  0.2491  0.4716
 1043TIP3   OH224763   1.002   5.290   0.430  0.0155  0.1577 -0.2843
 1043TIP3    H124764   1.064   5.252   0.492 -1.1898  1.3167  1.7303
 1043TIP3    H224765   1.057   5.336   0.366  1.2523  0.0188  0.6523
 1044TIP3   OH224766   1.836   2.636   1.872  0.6744  0.0710 -0.0655
 1044TIP3    H124767   1.874   2.598   1.951  2.9822  0.3259 -0.9631
 1044TIP3    H224768   1.840   2.730   1.887  1.3512  0.1285 -0.5525
 1045TIP3   OH224769   2.492   1.649   8.335 -0.6677 -0.3506 -0.0742
 1045TIP3    H124770   2.571   1.598   8.322 -1.0415 -1.3897  1.4974
 1045TIP3    H224771   2.479   1.651   8.430  0.3417  4.3006  0.2369
 1046TIP3   OH224772   3.038   6.282   1.288  0.1868 -0.4420 -0.5799
 1046TIP3    H124773   3.067   6.266   1.377  0.0231 -0.4863 -0.5348
 1046TIP3    H224774   2.980   6.359   1.295  0.2057 -0.4207 -0.6529
 1047TIP3   OH224775   6.378   2.109   0.915  0.6573 -0.7470  0.1973
 1047TIP3    H124776   6.344   2.186   0.870 -1.2449 -1.7548 -0.1610
 1047TIP3    H224777   6.309   2.044   0.908  1.5940 -1.9958  1.8546
 1048TIP3   OH224778   0.404   3.774   0.692 -0.5507  0.1886 -0.0113
 1048TIP3    H124779   0.392   3.743   0.603 -1.7874 -0.6040  0.4053
 1048TIP3    H224780   0.499   3.777   0.705 -0.3452  0.8330 -1.5081
 1049TIP3   OH224781   3.660   4.631   1.378 -0.2574  0.1320  0.3010
 1049TIP3    H124782   3.569   4.632   1.408 -1.1531  0.0171 -2.1464
 1049TIP3    H224783   3.691   4.720   1.393 -0.7999  0.2075  1.0454
 1050TIP3   OH224784   5.526   4.772   1.000 -0.6125 -0.3236 -0.0079
 1050TIP3    H124785   5.446   4.736   0.962 -0.9862  0.8247 -0.3801
 1050TIP3    H224786   5.504   4.864   1.018  0.4766 -0.1108  0.3104
 1051TIP3   OH224787   2.833   0.872   0.147  0.3462 -0.2932 -0.0133
 1051TIP3    H124788   2.923   0.902   0.160  0.0924 -0.1149  1.5763
 1051TIP3    H224789   2.838   0.810   0.075  1.7487 -0.2973  0.0710
 1052TIP3   OH224790   4.267   4.375   2.118  0.4801 -0.5170  0.0404
 1052TIP3    H124791   4.341   4.434   2.136  0.1998 -0.4250  0.9189
 1052TIP3    H224792   4.190   4.432   2.124 -0.0239 -1.3711  3.3190
 1053TIP3   OH224793   6.444   2.812   8.883  0.0487  0.4399 -0.3285
 1053TIP3    H124794   6.474   2.902   8.888  1.5561  0.2418 -3.3620
 1053TIP3    H224795   6.394   2.808   8.801  0.0192 -1.4811 -0.2663
 1054TIP3   OH224796   2.003   3.774   0.879 -0.1258  0.3857 -0.2421
 1054TIP3    H124797   1.949   3.706   0.921 -0.0421 -0.4467 -1.4617
 1054TIP3    H224798   1.942   3.847   0.865 -0.4372  0.2210  0.2227
 1055TIP3   OH224799   6.648   4.482   1.078 -0.5270  0.1522  0.4647
 1055TIP3    H124800   6.729   4.439   1.107  0.4590  0.2632 -1.9052
 1055TIP3    H224801   6.581   4.448   1.137  0.9581 -1.2202  1.4694
 1056TIP3   OH224802   4.981   2.911   6.888  0.1455 -0.2068 -0.1711
 1056TIP3    H124803   5.004   3.000   6.860 -0.2923  0.1613  0.6221
 1056TIP3    H224804   4.885   2.911   6.892  0.1875 -0.0766  1.7986
 1057TIP3   OH224805   2.501   5.223   8.857 -0.4492 -0.0564 -0.2289
 1057TIP3    H124806   2.505   5.129   8.840 -0.0049 -0.1430  0.3193
 1057TIP3    H224807   2.486   5.230   8.951 -1.1500  0.4220 -0.3697
 1058TIP3   OH224808   5.609   2.473   1.625  0.3977 -0.2458  0.0377
 1058TIP3    H124809   5.573   2.386   1.608 -1.3440  0.5289 -0.5744
 1058TIP3    H224810   5.547   2.512   1.687  1.8235  0.1336  1.2565
 1059TIP3   OH224811   0.112   0.271   8.634 -0.2460  0.1617 -0.0351
 1059TIP3    H124812   0.110   0.223   8.717 -1.3584  2.2924  1.2727
 1059TIP3    H224813   0.043   0.232   8.581 -1.1453  0.2813  1.0027
 1060TIP3   OH224814   4.511   1.735   6.769  0.1837  0.6908 -0.1739
 1060TIP3    H124815   4.495   1.787   6.848  2.8031  0.3397  0.6904
 1060TIP3    H224816   4.526   1.800   6.700 -2.3824  1.0003 -0.5151
 1061TIP3   OH224817   1.011   0.100   7.184 -0.1778 -0.2651  0.5061
 1061TIP3    H124818   1.065   0.056   7.120 -1.5956  0.3470 -1.1824
 1061TIP3    H224819   0.993   0.034   7.251  1.5058 -0.8375  0.4322
 1062TIP3   OH224820   4.103   0.135   8.620  0.3230 -0.0354 -0.2446
 1062TIP3    H124821   4.131   0.227   8.621  0.0685  0.0410  0.2477
 1062TIP3    H224822   4.165   0.091   8.678 -0.8723  0.2356  1.3089
 1063TIP3   OH224823   0.384   4.311   8.609  0.1846  0.1777 -0.2477
 1063TIP3    H124824   0.426   4.285   8.527  0.6186  0.0107  0.0232
 1063TIP3    H224825   0.439   4.382   8.642  0.1407  0.0935  0.0093
 1064TIP3   OH224826   0.671   4.472   1.771  0.0992 -0.5732  0.6867
 1064TIP3    H124827   0.655   4.379   1.760 -1.0593 -0.4028  0.8510
 1064TIP3    H224828   0.716   4.499   1.691  0.2532 -1.2177  0.5543
 1065TIP3   OH224829   0.149   4.479   1.179 -0.0642 -0.2996  0.2417
 1065TIP3    H124830   0.223   4.536   1.159 -0.7079  0.8353  0.9744
 1065TIP3    H224831   0.168   4.444   1.266  0.2466 -1.0688 -0.1347
 1066TIP3   OH224832   1.757   5.851   0.779 -0.0441 -0.4738 -0.1507
 1066TIP3    H124833   1.757   5.945   0.767 -1.6681 -0.0534  2.2748
 1066TIP3    H224834   1.849   5.828   0.794  0.1705  1.0922  1.2392
 1067TIP3   OH224835   3.049   2.764   0.881 -0.1486 -0.6860 -0.3145
 1067TIP3    H124836   3.055   2.669   0.882  0.8787 -0.6452  1.0491
 1067TIP3    H224837   2.986   2.785   0.950  1.5283 -0.3327  1.1738
 1068TIP3   OH224838   3.275   4.243   6.795 -0.2931  0.0875 -0.3161
 1068TIP3    H124839   3.224   4.320   6.769  0.6854  0.5202 -1.0055
 1068TIP3    H224840   3.366   4.271   6.790  0.1068  0.6608  4.8704
 1069TIP3   OH224841   6.194   1.913   0.899 -0.3827  0.1969 -0.2194
 1069TIP3    H124842   6.201   1.849   0.828  0.3436 -0.4343  0.4047
 1069TIP3    H224843   6.218   1.865   0.978 -2.8634  0.4069  0.7620
 1070TIP3   OH224844   0.428   0.060   2.057 -0.0548 -0.3808 -0.2960
 1070TIP3    H124845   0.438   0.125   1.987  0.4371  1.1160  1.1233
 1070TIP3    H224846   0.340   0.074   2.090 -0.2894 -1.0959 -0.5926
 1071TIP3   OH224847   6.197   1.112   1.858 -0.9213  0.6918 -0.1970
 1071TIP3    H124848   6.106   1.143   1.860 -1.4510 -0.8081  0.2563
 1071TIP3    H224849   6.218   1.107   1.765 -2.1118 -1.1079 -0.4202
 1072TIP3   OH224850   2.213   2.401   8.335  0.3037 -0.4149 -0.7760
 1072TIP3    H124851   2.142   2.343   8.363  1.6183 -0.9370  1.7940
 1072TIP3    H224852   2.273   2.345   8.286 -0.0136 -0.4619 -1.1110
 1073TIP3   OH224853   1.737   5.685   7.346 -0.1212  0.0919 -0.5308
 1073TIP3    H124854   1.816   5.735   7.367 -0.2893 -0.5437  1.9902
 1073TIP3    H224855   1.762   5.594   7.364 -0.9360 -0.3117 -1.3657
 1074TIP3   OH224856   1.299   2.230   8.411 -0.3048  0.0738 -0.4833
 1074TIP3    H124857   1.260   2.172   8.346 -0.5317 -1.1232  0.6830
 1074TIP3    H224858   1.392   2.207   8.411 -0.3222  0.0007 -0.3246
 1075TIP3   OH224859   0.746   4.627   6.663  0.1327  0.2089 -0.4299
 1075TIP3    H124860   0.768   4.549   6.713 -1.2441 -0.3885 -0.7045
 1075TIP3    H224861   0.650   4.634   6.671 -0.0646  0.3949 -2.5243
 1076TIP3   OH224862   0.389   1.962   1.540  0.5765  0.0626  0.1523
 1076TIP3    H124863   0.375   1.876   1.578  1.3077  0.5917  1.6738
 1076TIP3    H224864   0.327   1.966   1.467  1.3002 -2.1635 -0.6714
 1077TIP3   OH224865   4.146   4.326   7.843 -0.2044 -0.4886  0.5958
 1077TIP3    H124866   4.148   4.270   7.766  1.3270  1.4483 -0.8848
 1077TIP3    H224867   4.233   4.364   7.848 -0.7260  0.6419  2.3882
 1078TIP3   OH224868   1.066   1.012   7.712  0.9647  0.2189 -0.3215
 1078TIP3    H124869   1.099   1.062   7.637  0.9386  2.4705  1.0921
 1078TIP3    H224870   1.058   0.922   7.679 -0.9019  1.4135 -3.6298
 1079TIP3   OH224871   0.430   4.359   2.454 -0.0227 -0.1628  0.4001
 1079TIP3    H124872   0.360   4.304   2.490 -0.3703 -1.5975 -2.2207
 1079TIP3    H224873   0.385   4.421   2.397  0.7363 -0.5296 -0.6294
 1080TIP3   OH224874   6.083   6.013   8.443  0.0555 -0.4928  0.7214
 1080TIP3    H124875   6.108   5.921   8.435  1.3447 -0.1450  0.4841
 1080TIP3    H224876   6.039   6.019   8.528  0.0367 -1.3112  0.7745
 1081TIP3   OH224877   3.188   5.110   0.332  0.1135  0.1517  0.4920
 1081TIP3    H124878   3.119   5.146   0.276 -1.0705 -1.9505  0.4733
 1081TIP3    H224879   3.145   5.038   0.379  1.8685 -0.1003  1.8156
 1082TIP3   OH224880   6.008   5.944   7.399  0.1566  0.1344 -0.0173
 1082TIP3    H124881   5.971   6.014   7.346 -1.2766  0.0948  0.8807
 1082TIP3    H224882   5.933   5.902   7.440  1.1778 -0.0545  1.7673
 1083TIP3   OH224883   4.916   4.938   1.508 -0.5611 -0.3863 -0.3576
 1083TIP3    H124884   4.988   4.993   1.475 -0.5971 -0.7972 -1.1563
 1083TIP3    H224885   4.931   4.932   1.602 -0.9296  1.5236 -0.1464
 1084TIP3   OH224886   5.498   1.077   0.626 -0.4660  0.0935  0.1735
 1084TIP3    H124887   5.431   1.119   0.573 -0.3652  0.4907  0.3579
 1084TIP3    H224888   5.503   1.130   0.706 -0.8070 -0.6454  0.7012
 1085TIP3   OH224889   4.069   4.103   0.395 -0.5329  0.4648  0.1929
 1085TIP3    H124890   4.143   4.042   0.402 -0.2749  0.8416  0.9056
 1085TIP3    H224891   4.094   4.162   0.324 -0.8406 -0.3191 -0.5861
 1086TIP3   OH224892   5.570   0.066   9.015 -0.0408 -0.3616  0.1959
 1086TIP3    H124893   5.613  -0.013   9.047  0.1063 -0.1593  0.5079
 1086TIP3    H224894   5.562   0.053   8.921  0.2850 -0.5988  0.1988
 1087TIP3   OH224895   0.829   0.007   7.433  0.1280 -0.5166  0.4174
 1087TIP3    H124896   0.787  -0.048   7.499  0.2626 -0.8579  0.2228
 1087TIP3    H224897   0.840   0.091   7.476  0.8961 -0.9447  1.0923
 1088TIP3   OH224898   0.154   4.440   8.708  0.1997 -0.6990 -0.5402
 1088TIP3    H124899   0.213   4.374   8.672  1.1549  0.2273 -0.7062
 1088TIP3    H224900   0.202   4.522   8.700 -0.3832 -0.1795  0.9725
 1089TIP3   OH224901   2.602   5.752   8.752 -0.4899 -0.3152  0.6342
 1089TIP3    H124902   2.512   5.721   8.745 -0.4014 -0.3781 -0.2914
 1089TIP3    H224903   2.598   5.844   8.725  0.0672 -0.9105 -1.7328
 1090TIP3   OH224904   3.281   2.303   8.175 -0.7470  0.1967  0.0867
 1090TIP3    H124905   3.275   2.399   8.181 -1.5421  0.1660 -0.0967
 1090TIP3    H224906   3.191   2.275   8.158 -1.3519 -0.8902  3.9797
 1091TIP3   OH224907   4.575   0.770   0.946  0.2199  0.0738  0.1151
 1091TIP3    H124908   4.559   0.728   0.861  3.1471  0.6767 -0.8543
 1091TIP3    H224909   4.669   0.757   0.961  0.2668  2.2042  2.0267
 1092TIP3   OH224910   2.761   6.290   8.519  0.6918 -0.1026  0.1826
 1092TIP3    H124911   2.738   6.291   8.612  1.1878  1.2379  0.3190
 1092TIP3    H224912   2.853   6.262   8.518  0.6197 -0.3330  0.0829
 1093TIP3   OH224913   1.704   2.149   2.270 -0.0330  0.4068  0.3140
 1093TIP3    H124914   1.792   2.130   2.305  0.2060 -0.6428 -0.7746
 1093TIP3    H224915   1.714   2.140   2.175 -0.6913  3.0544 -0.0738
 1094TIP3   OH224916   1.135   1.655   2.222 -0.1337 -0.3893  0.2370
 1094TIP3    H124917   1.042   1.679   2.225 -0.0744 -0.1632  0.2633
 1094TIP3    H224918   1.181   1.732   2.255  0.2478  0.4841 -2.1039
 1095TIP3   OH224919   4.185   6.729   8.285 -0.1576 -1.2024 -0.3769
 1095TIP3    H124920   4.250   6.676   8.331  0.8771 -0.7335 -1.2487
 1095TIP3    H224921   4.123   6.756   8.353  0.7305 -1.4104  0.5350
 1096TIP3   OH224922   3.200   5.392   1.717  0.5311 -0.0995 -0.3717
 1096TIP3    H124923   3.187   5.480   1.683  0.5453  0.8038  1.8327
 1096TIP3    H224924   3.206   5.403   1.812 -0.4657 -2.5813  0.0625
 1097TIP3   OH224925   6.710   5.513   0.244  0.4315  0.0704 -0.3284
 1097TIP3    H124926   6.757   5.553   0.170  0.4750 -0.2603 -0.4832
 1097TIP3    H224927   6.729   5.419   0.236 -0.2919 -0.0706 -0.4113
 1098TIP3   OH224928   3.159   3.420   7.491  0.0458  0.1021  0.0443
 1098TIP3    H124929   3.198   3.460   7.569 -0.8175  0.8007  0.1236
 1098TIP3    H224930   3.159   3.326   7.510  0.5204  0.2023  0.5705
 1099TIP3   OH224931   2.130   2.152   7.203 -0.1910  0.3042 -0.5418
 1099TIP3    H124932   2.107   2.059   7.202  0.9328  0.0014 -0.1325
 1099TIP3    H224933   2.126   2.179   7.111  2.4423 -0.9401 -1.1008
 1100TIP3   OH224934   1.446   5.675   8.813 -0.1205 -0.2178 -0.1891
 1100TIP3    H124935   1.357   5.668   8.781  0.0265 -0.4420 -0.5598
 1100TIP3    H224936   1.451   5.762   8.852 -0.5877 -0.3231  0.1154
 1101TIP3   OH224937   2.811   2.267   7.345 -0.1783 -0.0189 -0.1032
 1101TIP3    H124938   2.793   2.191   7.400  0.2761 -0.2828 -0.3055
 1101TIP3    H224939   2.903   2.288   7.363 -0.5039  0.9386  0.4991
 1102TIP3   OH224940   3.014   5.641   1.141  0.5697 -0.4394  0.1674
 1102TIP3    H124941   3.029   5.624   1.234  1.0217 -0.9666  0.0014
 1102TIP3    H224942   2.922   5.667   1.136  0.0378 -2.0822  0.5503
 1103TIP3   OH224943   4.473   2.980   8.480  0.3049 -0.2066 -0.1000
 1103TIP3    H124944   4.436   2.902   8.437 -0.7785 -0.7569  1.7190
 1103TIP3    H224945   4.551   2.948   8.525 -0.7306 -0.5471  1.5490
 1104TIP3   OH224946   3.005   1.785   2.885  0.0241  0.3492  0.2538
 1104TIP3    H124947   3.037   1.764   2.797  0.4846 -1.3132  0.7826
 1104TIP3    H224948   3.078   1.830   2.927 -0.1997  1.1574 -0.2076
 1105TIP3   OH224949   1.149   0.685   7.760  0.4171 -0.2710  0.1837
 1105TIP3    H124950   1.057   0.698   7.783  0.2722  0.0834 -0.5907
 1105TIP3    H224951   1.194   0.676   7.845 -0.1972  0.4404  0.5948
 1106TIP3   OH224952   0.268   5.784   2.015 -0.4827 -0.0276  0.1543
 1106TIP3    H124953   0.188   5.739   1.987  0.5839 -1.7416 -0.2727
 1106TIP3    H224954   0.237   5.860   2.064 -2.3719 -0.2519 -0.6154
 1107TIP3   OH224955   1.261   0.412   7.845  0.1644 -0.2446 -0.5179
 1107TIP3    H124956   1.220   0.491   7.810 -0.9459 -0.4344  0.3160
 1107TIP3    H224957   1.235   0.410   7.937  1.0211 -1.0519 -0.2746
 1108TIP3   OH224958   1.507   4.817   1.479  0.0107  0.2989 -0.0269
 1108TIP3    H124959   1.459   4.874   1.538  0.4053 -0.2677  0.8682
 1108TIP3    H224960   1.591   4.861   1.466  1.1175 -0.9753  2.2754
 1109TIP3   OH224961   5.867   5.842   0.395 -0.2407 -0.3564 -0.3104
 1109TIP3    H124962   5.821   5.912   0.442 -0.7621 -0.2512 -0.9530
 1109TIP3    H224963   5.809   5.766   0.403 -0.9025 -0.0288 -1.7427
 1110TIP3   OH224964   6.424   5.314   7.786  0.0731  0.5109  0.0197
 1110TIP3    H124965   6.443   5.230   7.830 -0.0080  0.8579  0.7420
 1110TIP3    H224966   6.456   5.380   7.848  2.5753  1.0029 -1.6523
 1111TIP3   OH224967   5.727   6.584   0.079 -0.0090 -0.1979  0.0489
 1111TIP3    H124968   5.790   6.653   0.094 -1.1692  0.8652  0.2132
 1111TIP3    H224969   5.714   6.545   0.166  0.9377 -0.9177 -0.1129
 1112TIP3   OH224970   6.500   4.381   0.025  0.0493 -1.3184 -0.1878
 1112TIP3    H124971   6.583   4.428   0.040 -1.3731  0.8505  1.4854
 1112TIP3    H224972   6.488   4.329   0.105 -0.5025 -1.1400 -0.1564
 1113TIP3   OH224973   0.959   4.188   1.469 -0.1176 -0.4397 -0.0031
 1113TIP3    H124974   0.939   4.096   1.486 -0.3306 -0.6373 -1.2434
 1113TIP3    H224975   0.908   4.210   1.391  1.1406  0.2750 -0.6579
 1114TIP3   OH224976   3.955   1.650   8.128 -0.2128  0.4256  0.3243
 1114TIP3    H124977   3.888   1.581   8.127 -0.7262  0.8977 -1.6538
 1114TIP3    H224978   3.906   1.731   8.115  0.2912  1.3464  3.3829
 1115TIP3   OH224979   0.855   1.855   7.887 -0.0425  0.6680 -0.3130
 1115TIP3    H124980   0.889   1.844   7.799 -1.9198 -1.1123 -0.9059
 1115TIP3    H224981   0.841   1.766   7.919 -1.5040  1.2684  0.8833
 1116TIP3   OH224982   4.787   6.433   0.028  0.4646  0.7113  0.1587
 1116TIP3    H124983   4.739   6.372   0.083 -0.0426 -0.5583 -1.6184
 1116TIP3    H224984   4.720   6.494  -0.004  0.7315  1.3564  0.8106
 1117TIP3   OH224985   6.354   2.400   0.898  0.2465  0.1669 -0.2766
 1117TIP3    H124986   6.300   2.425   0.823  0.7113  0.0205 -0.6635
 1117TIP3    H224987   6.315   2.446   0.973  0.1240  0.7665 -0.7026
 1118TIP3   OH224988   1.716   2.341   1.295  0.2446  0.0862 -0.5426
 1118TIP3    H124989   1.751   2.427   1.271 -0.1347  0.3088 -0.3112
 1118TIP3    H224990   1.690   2.302   1.212 -1.5517  1.0681 -0.4854
 1119TIP3   OH224991   6.462   3.830   1.648 -0.2711  0.1737 -0.5541
 1119TIP3    H124992   6.507   3.770   1.588  1.1052  0.3345  0.2733
 1119TIP3    H224993   6.499   3.916   1.628  0.3634  0.1953  0.6386
 1120TIP3   OH224994   1.154   6.677   7.049 -0.0144 -0.4680 -0.1033
 1120TIP3    H124995   1.249   6.677   7.062 -0.0405 -2.7633  0.5624
 1120TIP3    H224996   1.141   6.624   6.971 -0.7943 -1.0760  0.4237
 1121TIP3   OH224997   3.267   3.977   1.837 -0.2380  0.2771  0.1554
 1121TIP3    H124998   3.263   4.067   1.868  1.3831  0.9369 -1.3576
 1121TIP3    H224999   3.256   3.923   1.916  2.0638  1.8209  1.6377
 1122TIP3   OH225000   3.551   4.284   6.753 -0.0355 -0.1885  0.6773
 1122TIP3    H125001   3.645   4.264   6.749  0.0996  0.3717  0.9193
 1122TIP3    H225002   3.525   4.294   6.661 -0.1803 -1.7438  0.5337
 1123TIP3   OH225003   6.582   1.175   8.215  0.0316 -0.5494 -0.0710
 1123TIP3    H125004   6.582   1.218   8.301  0.6337 -1.9950  0.6714
 1123TIP3    H225005   6.493   1.188   8.183  0.0601  0.8479  0.3108
 1124TIP3   OH225006   5.936   1.860   8.597  0.5395  0.4220  0.2131
 1124TIP3    H125007   5.964   1.835   8.685 -0.6493  0.4358  0.6032
 1124TIP3    H225008   5.960   1.952   8.590  3.5045 -0.2965 -0.6624
 1125TIP3   OH225009   2.460   1.638   6.842 -0.5397 -0.4334 -0.5666
 1125TIP3    H125010   2.549   1.665   6.818 -1.1200 -0.0546 -2.5052
 1125TIP3    H225011   2.404   1.703   6.800 -1.7486 -0.3959  1.0180
 1126TIP3   OH225012   4.327   0.678   1.069  0.1019  0.1949  0.0825
 1126TIP3    H125013   4.399   0.696   1.008  0.8322 -0.9268  0.5791
 1126TIP3    H225014   4.256   0.646   1.013  1.0201 -1.5667 -0.1707
 1127TIP3   OH225015   1.887   6.638   1.449  0.0982  0.0564 -0.4079
 1127TIP3    H125016   1.857   6.592   1.370  2.1271 -1.3318 -0.4601
 1127TIP3    H225017   1.863   6.580   1.521  0.7804 -0.0752 -0.2796
 1128TIP3   OH225018   3.887   2.385   7.912  1.1570  0.0584 -0.2004
 1128TIP3    H125019   3.879   2.471   7.870  0.5697  0.5222  0.8144
 1128TIP3    H225020   3.880   2.403   8.005 -2.5801 -1.3941 -0.0263
 1129TIP3   OH225021   2.486   0.406   8.108  0.5456  0.2040  0.3550
 1129TIP3    H125022   2.468   0.313   8.121 -1.3118  0.2719 -1.2101
 1129TIP3    H225023   2.564   0.409   8.053  0.6011 -0.4429  0.3962
 1130TIP3   OH225024   5.173   2.729   1.891  0.5240 -0.0174 -0.5019
 1130TIP3    H125025   5.249   2.712   1.836  1.6929  0.5094  0.8780
 1130TIP3    H225026   5.174   2.658   1.956  1.2545  1.2482  0.9383
 1131TIP3   OH225027   3.705   1.132   7.616 -0.1898  0.0326 -0.3770
 1131TIP3    H125028   3.772   1.191   7.583 -0.1378 -1.0583 -2.3994
 1131TIP3    H225029   3.629   1.148   7.559 -0.1315 -1.8692 -1.0660
 1132TIP3   OH225030   1.505   3.597   1.265 -0.3557 -0.1133 -0.1500
 1132TIP3    H125031   1.596   3.626   1.256  0.3129 -1.6641  1.0634
 1132TIP3    H225032   1.466   3.660   1.325 -0.1523  0.6905 -0.8491
 1133TIP3   OH225033   6.203   3.469   1.254  0.1750  0.0780  0.0613
 1133TIP3    H125034   6.206   3.488   1.347 -0.1269  0.7994 -0.0652
 1133TIP3    H225035   6.254   3.539   1.213  0.8053 -0.5641 -0.2720
 1134TIP3   OH225036   4.712   1.402   2.760  0.1704 -0.0523  0.0380
 1134TIP3    H125037   4.776   1.458   2.716 -0.2476  1.4529  1.2423
 1134TIP3    H225038   4.636   1.403   2.703  1.3170 -2.2833 -1.6716
 1135TIP3   OH225039   6.235   2.766   0.622 -0.4827  0.1659 -0.4754
 1135TIP3    H125040   6.292   2.689   0.628 -1.2669 -0.5234 -1.4702
 1135TIP3    H225041   6.230   2.784   0.528 -0.7147  1.1271 -0.2832
 1136TIP3   OH225042   5.672   2.700   2.025 -0.1238 -0.0237 -0.4317
 1136TIP3    H125043   5.592   2.707   1.972  0.1232 -0.1817 -0.8360
 1136TIP3    H225044   5.650   2.638   2.094 -1.0251  1.5537  0.7497
 1137TIP3   OH225045   3.099   2.421   8.432  0.9237  0.6831  0.2569
 1137TIP3    H125046   3.187   2.445   8.404  1.3981 -1.1511  0.0028
 1137TIP3    H225047   3.059   2.381   8.354 -0.1379  1.4915  0.3681
 1138TIP3   OH225048   3.516   0.583   0.911 -0.3875 -0.3686 -0.3602
 1138TIP3    H125049   3.570   0.532   0.971 -2.8657 -2.4508  0.2904
 1138TIP3    H225050   3.490   0.522   0.843 -2.7051  0.2129 -0.0822
 1139TIP3   OH225051   3.968   4.999   1.162  0.2928  0.1569  0.0931
 1139TIP3    H125052   4.020   4.927   1.127  1.5320 -0.1518  2.4327
 1139TIP3    H225053   3.939   4.969   1.248 -0.7644  1.7352  0.3387
 1140TIP3   OH225054   5.649   0.778   6.396  0.0519  0.3599  0.1425
 1140TIP3    H125055   5.616   0.800   6.309  1.7119  0.4345 -0.5054
 1140TIP3    H225056   5.610   0.844   6.454  0.1712  1.2894 -0.8019
 1141TIP3   OH225057   0.331   6.076   0.659  0.3762  1.1169 -0.1898
 1141TIP3    H125058   0.393   6.127   0.712  0.1418  0.8864  0.3191
 1141TIP3    H225059   0.292   6.014   0.722  0.0053  0.9173 -0.6129
 1142TIP3   OH225060   2.199   2.663   2.226 -0.0624  0.3442 -0.0712
 1142TIP3    H125061   2.248   2.585   2.251  0.2737  0.4645 -0.3462
 1142TIP3    H225062   2.138   2.678   2.299 -0.9941 -0.8828 -0.5587
 1143TIP3   OH225063   6.504   1.652   1.421 -0.1622 -0.2210  0.8615
 1143TIP3    H125064   6.594   1.651   1.453  0.1958  2.2843  0.1755
 1143TIP3    H225065   6.451   1.666   1.499  0.1932  0.0075  1.0635
 1144TIP3   OH225066   3.847   3.081   0.675  0.2905  0.1868 -0.1717
 1144TIP3    H125067   3.849   3.126   0.590  0.7055 -0.3061 -0.4306
 1144TIP3    H225068   3.860   3.151   0.739 -0.6932  0.6554 -0.4694
 1145TIP3   OH225069   6.237   2.907   2.233  0.3865 -0.3484  0.0468
 1145TIP3    H125070   6.280   2.913   2.318  0.0443 -3.3632  0.5530
 1145TIP3    H225071   6.309   2.909   2.170  0.6432  1.8920  0.3261
 1146TIP3   OH225072   0.765   4.693   7.068 -0.1073  0.0673 -0.0747
 1146TIP3    H125073   0.759   4.772   7.121 -1.1997  1.0823 -1.6175
 1146TIP3    H225074   0.728   4.624   7.123  0.6562  0.6602  1.2098
 1147TIP3   OH225075   6.319   1.265   7.650  0.2452  0.1979 -0.3076
 1147TIP3    H125076   6.266   1.333   7.608  0.3364  0.3309 -0.2083
 1147TIP3    H225077   6.256   1.215   7.703  0.6029  2.0469  2.0343
 1148TIP3   OH225078   4.204   5.398   1.732  0.0274  0.3355  0.0324
 1148TIP3    H125079   4.182   5.361   1.818 -0.1368 -1.2786 -0.6621
 1148TIP3    H225080   4.230   5.322   1.680  1.2504  1.4447 -1.0134
 1149TIP3   OH225081   4.117   0.748   2.182  0.2342  0.3485 -0.5298
 1149TIP3    H125082   4.037   0.793   2.158 -0.6769 -0.6820  0.4443
 1149TIP3    H225083   4.111   0.662   2.140  1.1734  0.5121 -1.0356
 1150TIP3   OH225084   5.775   3.383   7.718  0.1731  0.5120 -0.7231
 1150TIP3    H125085   5.817   3.469   7.727  0.4859  0.1846  1.8238
 1150TIP3    H225086   5.811   3.347   7.638  0.3251  2.5927 -1.6641
 1151TIP3   OH225087   0.940   4.498   2.150  0.0265  0.3709 -0.1212
 1151TIP3    H125088   0.890   4.505   2.068  0.3903 -0.2560 -0.4077
 1151TIP3    H225089   0.879   4.528   2.218 -0.4562  0.4079 -0.5624
 1152TIP3   OH225090   4.629   5.469   7.432 -0.8130 -0.2292  0.1351
 1152TIP3    H125091   4.660   5.437   7.347  2.2049  1.2970  0.5410
 1152TIP3    H225092   4.628   5.391   7.487 -1.0664 -0.9243 -0.8114
 1153TIP3   OH225093   2.453   5.361   6.414  0.0288  0.2102  0.0213
 1153TIP3    H125094   2.372   5.410   6.398 -0.2446  0.0764  0.9508
 1153TIP3    H225095   2.441   5.280   6.364 -0.7883 -0.1798  0.8109
 1154TIP3   OH225096   4.096   5.383   8.564 -0.5194 -0.1286 -0.1685
 1154TIP3    H125097   4.027   5.436   8.602  0.4591  0.5953  0.6643
 1154TIP3    H225098   4.093   5.403   8.470 -1.1144  0.2685 -0.0711
 1155TIP3   OH225099   3.433   5.506   1.573  0.1460  0.3166  0.0673
 1155TIP3    H125100   3.408   5.597   1.591 -0.2703  0.1921  0.1320
 1155TIP3    H225101   3.358   5.454   1.603  1.0439 -0.1779  1.5389
 1156TIP3   OH225102   2.133   5.662   1.920 -0.1949 -0.6879 -0.1357
 1156TIP3    H125103   2.171   5.705   1.997  2.3349  0.1501 -1.6999
 1156TIP3    H225104   2.071   5.726   1.885 -0.5921 -0.6520  0.6269
 1157TIP3   OH225105   2.929   3.721   1.491  0.3540 -0.1908  0.0454
 1157TIP3    H125106   2.947   3.635   1.530  1.9935 -0.3951 -1.0315
 1157TIP3    H225107   2.987   3.781   1.539  1.1386 -0.1637 -0.8880
 1158TIP3   OH225108   6.728   2.787   8.330  0.1984 -0.0846 -0.2890
 1158TIP3    H125109   6.709   2.714   8.388  1.0236  0.5834  0.8704
 1158TIP3    H225110   6.823   2.799   8.337  0.2268  0.4135 -1.3006
 1159TIP3   OH225111   2.971   2.923   2.567 -0.1677  0.0535  0.5489
 1159TIP3    H125112   2.905   2.962   2.510 -1.4373 -2.6506  0.0577
 1159TIP3    H225113   3.019   2.863   2.511  2.4240  1.4905  1.0489
 1160TIP3   OH225114   6.242   2.825   0.305  0.8413  0.0431  0.3509
 1160TIP3    H125115   6.213   2.916   0.310 -0.5097 -0.4350  2.8553
 1160TIP3    H225116   6.245   2.805   0.212 -0.2526  2.2167 -0.2045
 1161TIP3   OH225117   2.403   1.623   1.023  0.1062  0.2116  0.4253
 1161TIP3    H125118   2.490   1.584   1.026  1.5700  2.5735 -3.3517
 1161TIP3    H225119   2.366   1.592   0.941 -1.2209  1.8476  0.3591
 1162TIP3   OH225120   5.497   1.352   2.172  0.5077  0.4513 -0.4071
 1162TIP3    H125121   5.427   1.288   2.167  0.2183  0.7411 -0.1329
 1162TIP3    H225122   5.572   1.304   2.206  0.5731  0.0367 -1.1114
 1163TIP3   OH225123   5.793   2.491   0.131  0.0634  0.1804  0.0292
 1163TIP3    H125124   5.877   2.509   0.173 -0.5712 -0.7640  1.8598
 1163TIP3    H225125   5.815   2.446   0.050  1.3341  0.3611  0.2586
 1164TIP3   OH225126   3.555   4.974   6.973 -0.7651  0.6293  0.0124
 1164TIP3    H125127   3.632   4.919   6.990 -0.6236  0.9738  0.4736
 1164TIP3    H225128   3.499   4.919   6.918 -0.1820  0.3837 -0.3512
 1165TIP3   OH225129   3.663   5.880   1.143  0.2137  0.6308 -0.4353
 1165TIP3    H125130   3.568   5.892   1.151  0.2344  0.4937 -0.0036
 1165TIP3    H225131   3.674   5.831   1.062 -0.1692 -0.4882  0.1752
 1166TIP3   OH225132   0.540   3.299   6.582 -0.4346 -0.2527  0.3769
 1166TIP3    H125133   0.629   3.333   6.587  0.3999 -2.1075 -0.7549
 1166TIP3    H225134   0.548   3.206   6.605 -2.0728 -0.4562  0.2774
 1167TIP3   OH225135   4.470   4.524   0.141  0.1905  0.6179  0.2815
 1167TIP3    H125136   4.469   4.538   0.047 -0.0511 -0.1118  0.1647
 1167TIP3    H225137   4.409   4.451   0.155  1.0528 -0.0068  0.8750
 1168TIP3   OH225138   3.491   2.518   8.011 -0.9446  0.1093 -0.3324
 1168TIP3    H125139   3.506   2.604   7.973  2.1831 -0.1531  0.0031
 1168TIP3    H225140   3.474   2.461   7.936 -2.1366  0.8185 -0.6239
 1169TIP3   OH225141   0.014   1.297   6.534 -0.2905  0.6316 -0.9634
 1169TIP3    H125142   0.042   1.382   6.567 -0.4542 -0.2002  1.4700
 1169TIP3    H225143   0.095   1.253   6.508  0.2643  0.1379  1.3600
 1170TIP3   OH225144   2.955   4.595   0.995 -0.4247  0.2151  0.6829
 1170TIP3    H125145   2.965   4.688   1.014 -1.0082  0.3072  0.5700
 1170TIP3    H225146   2.864   4.576   1.018 -1.1178  0.2747 -1.7441
 1171TIP3   OH225147   6.565   4.577   8.240 -0.6944 -0.2614  0.5447
 1171TIP3    H125148   6.518   4.547   8.317 -2.3841  2.5401  0.7401
 1171TIP3    H225149   6.573   4.672   8.252  2.9312 -0.2676 -0.6752
 1172TIP3   OH225150   6.683   0.992   1.366 -0.0113 -0.0801  0.2447
 1172TIP3    H125151   6.678   0.978   1.460  0.2097  0.9000  0.4165
 1172TIP3    H225152   6.754   1.056   1.355 -1.3626  1.3775 -0.3901
 1173TIP3   OH225153   1.399   5.119   7.968 -0.1121  0.0325  0.1907
 1173TIP3    H125154   1.383   5.027   7.990 -1.8446  0.4811  0.9934
 1173TIP3    H225155   1.319   5.164   7.996  0.3398  1.6564 -1.0265
 1174TIP3   OH225156   1.169   4.426   0.988  0.9696  0.1064  0.2560
 1174TIP3    H125157   1.234   4.389   0.928 -1.3268 -1.1609 -1.6711
 1174TIP3    H225158   1.174   4.371   1.066  1.1663 -0.9720 -0.4944
 1175TIP3   OH225159   6.451   2.993   8.004 -0.3870 -0.0486  0.7401
 1175TIP3    H125160   6.383   3.029   8.061  0.3650  1.9598  0.4693
 1175TIP3    H225161   6.488   3.070   7.960  1.8352 -1.1016  0.6316
 1176TIP3   OH225162   2.474   2.490   0.196 -0.1307  0.3829 -0.4165
 1176TIP3    H125163   2.424   2.569   0.215  0.4305  0.9723 -1.3045
 1176TIP3    H225164   2.552   2.497   0.251 -0.6279 -0.1464  0.3779
 1177TIP3   OH225165   3.027   0.356   1.822 -0.0284  0.4821 -0.0078
 1177TIP3    H125166   3.042   0.405   1.741 -0.6862  0.2321 -0.2916
 1177TIP3    H225167   3.040   0.265   1.798 -0.7843  0.3575  0.0161
 1178TIP3   OH225168   5.701   6.722   1.444  0.4274  0.0639 -0.0161
 1178TIP3    H125169   5.757   6.787   1.401  0.0471  0.6140  0.2987
 1178TIP3    H225170   5.663   6.769   1.519  0.1738 -0.5357  0.2402
 1179TIP3   OH225171   1.108   4.825   7.056 -0.2731  0.0210  0.5521
 1179TIP3    H125172   1.152   4.861   6.979  0.1742  1.0228  1.2556
 1179TIP3    H225173   1.039   4.769   7.020 -0.4684  0.9502 -0.5854
 1180TIP3   OH225174   5.939   2.271   7.998 -0.2890 -0.1664 -0.0323
 1180TIP3    H125175   6.014   2.218   8.023 -0.5979 -1.1214 -1.0644
 1180TIP3    H225176   5.866   2.234   8.047 -0.1905  0.4898  0.6393
 1181TIP3   OH225177   6.136   4.791   1.812 -0.0942  0.0464  0.8881
 1181TIP3    H125178   6.101   4.820   1.728  0.6887 -1.3885  0.0199
 1181TIP3    H225179   6.171   4.703   1.794  1.1963  0.2038  2.4222
 1182TIP3   OH225180   4.033   1.438   1.259  0.5581 -0.4676 -0.4178
 1182TIP3    H125181   4.084   1.479   1.189 -0.9460  2.1298 -0.1533
 1182TIP3    H225182   4.084   1.455   1.339  0.0111  0.9436 -0.3269
 1183TIP3   OH225183   5.418   1.384   7.722 -0.5771 -0.2659 -0.0247
 1183TIP3    H125184   5.354   1.326   7.764  1.5672 -3.3632 -0.7131
 1183TIP3    H225185   5.379   1.403   7.636 -1.9227  0.4773  0.7208
 1184TIP3   OH225186   2.717   4.828   7.782  0.3114 -0.2734  0.5266
 1184TIP3    H125187   2.624   4.841   7.799  0.0394 -1.1616 -0.1838
 1184TIP3    H225188   2.732   4.736   7.802  1.1593 -0.0103  1.1314
 1185TIP3   OH225189   2.151   4.904   0.649  0.3477  0.0676  0.0843
 1185TIP3    H125190   2.105   4.988   0.648 -0.1142 -0.1748  0.4209
 1185TIP3    H225191   2.168   4.884   0.557  1.9347  1.3209  0.0592
 1186TIP3   OH225192   1.510   5.857   0.896 -0.2300 -0.6018 -0.4114
 1186TIP3    H125193   1.523   5.826   0.986 -0.9413  1.2537  0.3866
 1186TIP3    H225194   1.597   5.853   0.857  0.0499 -1.6833  0.2576
 1187TIP3   OH225195   5.215   4.371   7.235 -0.2283 -0.4509  0.2455
 1187TIP3    H125196   5.259   4.326   7.308 -0.4354 -0.5637  0.3016
 1187TIP3    H225197   5.130   4.327   7.228 -0.1201 -0.5845 -0.2096
 1188TIP3   OH225198   0.804   5.062   8.709 -0.3874 -0.0334 -0.1693
 1188TIP3    H125199   0.725   5.101   8.745  0.8421  3.1567 -0.5595
 1188TIP3    H225200   0.820   5.111   8.628  0.7878 -2.1560 -1.3104
 1189TIP3   OH225201   4.981   0.188   0.447  0.1965  0.0323 -0.2356
 1189TIP3    H125202   5.075   0.198   0.430  0.0754  0.4829 -0.6596
 1189TIP3    H225203   4.963   0.253   0.516  0.1155  0.2360 -0.4480
 1190TIP3   OH225204   2.124   4.592   8.465  0.3660 -0.2262 -0.4946
 1190TIP3    H125205   2.147   4.566   8.376  0.3705  0.3942 -0.6792
 1190TIP3    H225206   2.137   4.513   8.518 -0.3772 -0.8128 -1.1700
 1191TIP3   OH225207   2.155   5.159   1.501  0.0759 -0.4950  0.4459
 1191TIP3    H125208   2.085   5.203   1.549  0.8944  3.3564 -1.4225
 1191TIP3    H225209   2.232   5.214   1.516  1.0764 -0.8661 -2.5974
 1192TIP3   OH225210   0.208   0.984   1.591  0.4498  0.0476 -0.3369
 1192TIP3    H125211   0.132   1.042   1.589  1.4397  1.3873 -2.4166
 1192TIP3    H225212   0.243   0.994   1.679 -1.6902 -0.5648  0.6612
 1193TIP3   OH225213   4.305   0.169   7.677  0.1404  0.5318  0.4057
 1193TIP3    H125214   4.328   0.255   7.643  0.3256  0.4179  0.2454
 1193TIP3    H225215   4.382   0.141   7.726 -0.6188  1.3171  2.1639
 1194TIP3   OH225216   3.291   3.410   8.867 -0.0860 -0.9300 -0.4111
 1194TIP3    H125217   3.256   3.498   8.880 -0.8952 -1.2644 -0.2929
 1194TIP3    H225218   3.257   3.383   8.781  0.7742 -0.8490 -0.7983
 1195TIP3   OH225219   0.835   2.126   8.280 -0.3824 -0.1700  0.7377
 1195TIP3    H125220   0.898   2.196   8.300  0.2324 -0.6010  0.3355
 1195TIP3    H225221   0.838   2.118   8.185  0.1473 -1.2746  0.8261
 1196TIP3   OH225222   1.824   0.813   1.806 -0.8010 -0.2827  0.0245
 1196TIP3    H125223   1.842   0.818   1.712  0.2638  0.5252  0.2486
 1196TIP3    H225224   1.852   0.725   1.831  3.0714  0.8365  0.3248
 1197TIP3   OH225225   6.241   3.887   7.099 -0.1046 -0.4956 -0.0865
 1197TIP3    H125226   6.245   3.963   7.042  0.3772 -0.9429 -0.6570
 1197TIP3    H225227   6.270   3.814   7.045  0.5619 -0.9003  0.7771
 1198TIP3   OH225228   2.117   4.515   8.216 -0.7831  0.3428 -0.2211
 1198TIP3    H125229   2.173   4.468   8.154  0.2699 -0.1377  1.0560
 1198TIP3    H225230   2.064   4.572   8.161  0.0702 -0.1107 -1.5704
 1199TIP3   OH225231   5.584   4.010   8.324  0.0235 -0.1446  0.0015
 1199TIP3    H125232   5.580   3.966   8.239  0.3802  1.4727 -0.8968
 1199TIP3    H225233   5.573   4.103   8.304  2.4959  0.5589  1.4181
 1200TIP3   OH225234   5.370   4.940   0.111 -0.1075  0.2880  0.0989
 1200TIP3    H125235   5.313   4.922   0.186  1.9475  0.3917  1.7661
 1200TIP3    H225236   5.322   4.904   0.036 -1.5057 -1.3400  1.6584
 1201TIP3   OH225237   5.666   3.149   8.345 -0.1661 -0.2760  0.7197
 1201TIP3    H125238   5.591   3.174   8.291  0.3822 -1.7428 -0.8274
 1201TIP3    H225239   5.742   3.161   8.288  0.6625  0.0658  1.8653
 1202TIP3   OH225240   3.317   6.306   0.873  0.7429 -0.0285  0.3622
 1202TIP3    H125241   3.233   6.282   0.914 -0.3540 -0.2041 -1.8246
 1202TIP3    H225242   3.299   6.389   0.829  1.4307 -0.5343 -0.9147
 1203TIP3   OH225243   3.467   1.258   8.055 -0.4092 -0.0382 -0.1493
 1203TIP3    H125244   3.465   1.171   8.096  0.3565 -0.3368 -0.7246
 1203TIP3    H225245   3.530   1.249   7.984 -0.2127  1.0413 -0.1172
 1204TIP3   OH225246   6.703   2.512   8.149  0.2051  0.4739  0.5655
 1204TIP3    H125247   6.676   2.528   8.239 -0.1264  1.2443  0.3392
 1204TIP3    H225248   6.679   2.421   8.132  0.3211  0.3104  1.2712
 1205TIP3   OH225249   2.048   6.724   8.278 -0.6572 -0.3834  0.1613
 1205TIP3    H125250   1.980   6.754   8.339 -0.4972  0.0807  0.1128
 1205TIP3    H225251   2.066   6.800   8.223 -1.3448 -1.0118 -0.9776
 1206TIP3   OH225252   2.563   1.460   7.030  0.2876  0.1805  0.3116
 1206TIP3    H125253   2.625   1.434   6.962 -0.5061  1.2626 -0.8710
 1206TIP3    H225254   2.504   1.521   6.986  0.0936  1.3501  2.1304
 1207TIP3   OH225255   6.496   2.440   7.551 -0.2718 -0.4244 -0.0226
 1207TIP3    H125256   6.436   2.430   7.625  0.4559  1.0883  0.8066
 1207TIP3    H225257   6.581   2.412   7.584 -0.1023 -0.5838 -0.5684
 1208TIP3   OH225258   4.475   5.511   2.560 -0.3594 -0.0867  0.8447
 1208TIP3    H125259   4.550   5.565   2.583 -0.9636  0.1459  2.3485
 1208TIP3    H225260   4.399   5.567   2.575 -0.8472  0.1569 -1.9674
 1209TIP3   OH225261   1.875   1.549   7.493  0.0680 -0.8075 -0.2154
 1209TIP3    H125262   1.929   1.621   7.459  0.5612 -0.6013  0.9583
 1209TIP3    H225263   1.786   1.583   7.489 -0.2148 -1.6209 -3.3795
 1210TIP3   OH225264   4.345   0.377   2.329  0.3929  0.2530  0.1871
 1210TIP3    H125265   4.304   0.463   2.339 -1.1437 -0.3565 -0.6035
 1210TIP3    H225266   4.437   0.392   2.351 -0.0974  1.8121  1.3441
 1211TIP3   OH225267   2.665   2.138   0.932  0.3430  0.2584  0.2408
 1211TIP3    H125268   2.723   2.178   0.867  0.1964  0.0727 -0.0061
 1211TIP3    H225269   2.722   2.121   1.007  0.9102 -1.0477 -0.4430
 1212TIP3   OH225270   0.037   1.648   0.788  0.0676  0.2485  0.0700
 1212TIP3    H125271   0.001   1.615   0.706 -0.0208  1.7246 -0.5234
 1212TIP3    H225272  -0.039   1.670   0.842  0.1247 -0.7074  0.5625
 1213TIP3   OH225273   3.495   1.722   8.611 -0.0528  0.1842 -0.4632
 1213TIP3    H125274   3.543   1.805   8.606  1.7213 -0.7585 -0.0366
 1213TIP3    H225275   3.451   1.724   8.696 -0.0564  0.6975 -0.4735
 1214TIP3   OH225276   3.694   3.185   7.110 -0.0490 -0.4071  0.8170
 1214TIP3    H125277   3.601   3.184   7.087  0.4596  0.1250 -1.5230
 1214TIP3    H225278   3.711   3.097   7.144 -1.5742 -0.2109  2.2296
 1215TIP3   OH225279   3.774   5.914   1.393 -0.2980  0.0109 -0.0126
 1215TIP3    H125280   3.779   5.927   1.298  2.2289  1.7134  0.2696
 1215TIP3    H225281   3.742   5.824   1.403  0.4418 -0.6010 -2.4828
 1216TIP3   OH225282   4.414   6.472   1.604  0.5662  0.5487  0.7297
 1216TIP3    H125283   4.376   6.560   1.610  1.5076  1.0946 -0.6110
 1216TIP3    H225284   4.477   6.479   1.532  0.5409 -1.2756  0.4948
 1217TIP3   OH225285   1.480   2.688   7.665 -0.7075 -0.4756 -0.2637
 1217TIP3    H125286   1.440   2.644   7.590 -1.6615  1.4236 -0.9422
 1217TIP3    H225287   1.573   2.694   7.642 -0.6150 -1.7872 -0.2986
 1218TIP3   OH225288   5.210   1.599   7.596 -0.0535  0.1487  0.1052
 1218TIP3    H125289   5.174   1.644   7.672  0.8193  1.0250  0.0372
 1218TIP3    H225290   5.165   1.639   7.521  0.3709  0.5926  0.0749
 1219TIP3   OH225291   1.478   1.131   8.165 -0.0304 -0.1164  0.5124
 1219TIP3    H125292   1.498   1.054   8.217  2.4701  0.0339 -0.0749
 1219TIP3    H225293   1.468   1.202   8.229  0.3471 -0.4385  0.9324
 1220TIP3   OH225294   4.935   4.184   1.362  0.7949 -0.3380  0.5071
 1220TIP3    H125295   4.966   4.249   1.299 -0.0159 -0.5320 -0.1096
 1220TIP3    H225296   4.908   4.234   1.438 -0.3916  0.1263 -0.1881
 1221TIP3   OH225297   1.433   3.007   8.773 -0.3328  0.0801  0.0714
 1221TIP3    H125298   1.510   3.004   8.831 -1.3248 -0.0089  1.4272
 1221TIP3    H225299   1.365   3.048   8.826 -1.2050  0.2720 -1.1578
 1222TIP3   OH225300   2.920   6.190   2.152  0.2241 -0.0127  0.4633
 1222TIP3    H125301   2.830   6.160   2.140  0.0369  0.1154  1.4591
 1222TIP3    H225302   2.913   6.263   2.213  0.8305  1.1328 -0.7914
 1223TIP3   OH225303   5.235   3.557   0.275 -0.0548 -0.1080  0.0883
 1223TIP3    H125304   5.158   3.578   0.329  0.0116 -0.4667  0.3216
 1223TIP3    H225305   5.279   3.486   0.322  0.1095 -0.2905 -0.3385
 1224TIP3   OH225306   1.302   4.235   0.264 -0.2539  0.0466 -0.0897
 1224TIP3    H125307   1.272   4.177   0.194 -1.9651  0.4346  0.2614
 1224TIP3    H225308   1.393   4.255   0.242  0.0773 -1.9349 -0.7618
 1225TIP3   OH225309   2.179   0.106   0.106  0.2932  0.3554  0.0109
 1225TIP3    H125310   2.213   0.046   0.040  1.5218 -0.1037  1.0240
 1225TIP3    H225311   2.154   0.050   0.179 -0.9485  0.8658  0.0006
 1226TIP3   OH225312   6.030   1.037   0.677 -0.3750  0.2483 -0.5014
 1226TIP3    H125313   6.111   1.049   0.627 -0.2762  0.7337 -0.2320
 1226TIP3    H225314   6.018   0.942   0.681 -0.3445  0.1955 -1.3834
 1227TIP3   OH225315   5.658   0.794   7.084 -0.2785 -0.3402 -0.3438
 1227TIP3    H125316   5.715   0.814   7.010 -0.1313  0.3270 -0.0534
 1227TIP3    H225317   5.717   0.762   7.152 -0.3694 -0.5751 -0.3718
 1228TIP3   OH225318   4.221   2.275   1.324  0.3726 -0.4491 -0.4072
 1228TIP3    H125319   4.189   2.197   1.369 -0.8806 -1.2047 -2.4418
 1228TIP3    H225320   4.147   2.336   1.327  1.0572  0.3596  0.4477
 1229TIP3   OH225321   6.096   5.707   0.528 -0.5193  0.2202  0.2242
 1229TIP3    H125322   6.041   5.779   0.497  2.5824  3.3016  1.2446
 1229TIP3    H225323   6.181   5.723   0.488  0.0062 -3.8971 -0.7197
 1230TIP3   OH225324   0.224   1.665   1.938  0.1847  0.4925  0.1918
 1230TIP3    H125325   0.156   1.600   1.920 -0.8665  1.1995  1.4322
 1230TIP3    H225326   0.181   1.731   1.992  1.3183  2.0581 -0.7314
 1231TIP3   OH225327   5.126   3.957   8.751  0.2191  0.2585  0.6313
 1231TIP3    H125328   5.070   4.027   8.785 -0.1745  0.7475 -0.9600
 1231TIP3    H225329   5.070   3.879   8.754 -1.1227  0.9959 -2.2386
 1232TIP3   OH225330   5.319   4.536   0.132  0.4164 -0.1176  0.1756
 1232TIP3    H125331   5.264   4.468   0.092 -0.4420 -0.2704  1.5557
 1232TIP3    H225332   5.408   4.513   0.105 -0.1401  0.0989 -2.0614
 1233TIP3   OH225333   0.395   1.359   1.396  0.1311  0.0832  0.3946
 1233TIP3    H125334   0.453   1.378   1.323  0.0205 -2.8636 -0.5684
 1233TIP3    H225335   0.394   1.441   1.447  2.2006  1.4036 -1.4805
 1234TIP3   OH225336   1.254   2.307   1.461  1.0103 -0.5270 -0.5370
 1234TIP3    H125337   1.308   2.304   1.541 -2.2978  1.9168  2.0755
 1234TIP3    H225338   1.312   2.346   1.395  2.5954  1.8445  2.0398
 1235TIP3   OH225339   5.151   5.923   1.490  0.2453  0.4465 -0.1541
 1235TIP3    H125340   5.232   5.957   1.453 -1.4925  3.2061 -1.8584
 1235TIP3    H225341   5.131   5.982   1.562  0.0020 -0.5221  0.5863
 1236TIP3   OH225342   5.364   4.441   1.014 -0.1286 -0.1992  0.3992
 1236TIP3    H125343   5.292   4.378   1.017  0.4532 -0.9969 -1.1029
 1236TIP3    H225344   5.435   4.397   1.062 -0.8626  0.9961  2.7511
 1237TIP3   OH225345   6.057   4.196   1.317 -0.7970 -0.0888  0.4499
 1237TIP3    H125346   5.969   4.176   1.284 -0.7565  1.2799 -0.5798
 1237TIP3    H225347   6.041   4.238   1.402 -1.1802  0.7510 -0.0287
 1238TIP3   OH225348   4.422   2.985   2.348 -0.4222  0.0698 -0.1268
 1238TIP3    H125349   4.426   2.963   2.255 -1.3635  0.1487 -0.1967
 1238TIP3    H225350   4.416   2.900   2.392 -1.7909  0.0858 -0.2575
 1239TIP3   OH225351   4.989   0.340   7.904 -0.2294 -0.4720  0.1571
 1239TIP3    H125352   4.940   0.416   7.874 -1.9748 -1.0677  1.3405
 1239TIP3    H225353   5.006   0.357   7.997 -0.1532 -1.2558  0.2936
 1240TIP3   OH225354   0.252   5.714   0.379  0.1166  0.6090 -0.3017
 1240TIP3    H125355   0.238   5.672   0.464 -0.9520  0.4786 -0.5271
 1240TIP3    H225356   0.243   5.807   0.396 -0.8122  0.5462 -0.3828
 1241TIP3   OH225357   3.915   0.017   1.026  0.0313  0.3385 -0.2692
 1241TIP3    H125358   3.996   0.062   1.001  0.6481 -1.3470 -1.4877
 1241TIP3    H225359   3.909   0.031   1.121  2.4887 -0.5423  0.1077
 1242TIP3   OH225360   6.374   0.540   1.151 -0.0853 -0.6141  0.2464
 1242TIP3    H125361   6.426   0.570   1.077 -1.2150  0.1829 -0.2520
 1242TIP3    H225362   6.311   0.479   1.113  0.6085 -1.7771  0.8842
 1243TIP3   OH225363   2.050   1.002   1.835 -0.3700 -0.0491 -0.3923
 1243TIP3    H125364   2.032   0.974   1.925  0.7762 -0.5639 -0.3074
 1243TIP3    H225365   2.043   0.922   1.784  1.8699 -0.3502 -0.3073
 1244TIP3   OH225366   0.153   3.686   2.587 -0.0755  0.0731 -0.0488
 1244TIP3    H125367   0.236   3.665   2.543  0.3490 -2.0728  1.6072
 1244TIP3    H225368   0.104   3.738   2.522  1.1839 -1.4705 -2.3851
 1245TIP3   OH225369   1.479   2.520   8.740 -0.1006  0.1138  0.2471
 1245TIP3    H125370   1.436   2.577   8.676 -1.1327 -1.3096 -0.3880
 1245TIP3    H225371   1.520   2.580   8.802 -0.8825  1.5321 -0.5572
 1246TIP3   OH225372   0.694   1.973   0.796  0.0787  0.0202  0.2857
 1246TIP3    H125373   0.750   2.046   0.823  1.8611 -1.4317  0.7704
 1246TIP3    H225374   0.619   1.977   0.855  0.6375  0.8803  0.9608
 1247TIP3   OH225375   4.763   2.691   2.461  0.0496  0.5329  0.1923
 1247TIP3    H125376   4.771   2.786   2.450 -1.8149  0.8686  1.1989
 1247TIP3    H225377   4.823   2.670   2.533 -0.4711  1.2008  0.8467
 1248TIP3   OH225378   6.599   5.616   1.277  0.5497  0.5300  0.0594
 1248TIP3    H125379   6.605   5.530   1.234  0.5025  0.2261  0.6531
 1248TIP3    H225380   6.530   5.605   1.343 -0.5178  1.4572 -0.8464
 1249TIP3   OH225381   3.153   1.594   8.034  1.0519 -0.1896 -0.1385
 1249TIP3    H125382   3.177   1.686   8.049  1.8206 -0.8231  3.3033
 1249TIP3    H225383   3.101   1.570   8.110 -0.8509 -2.1575 -1.9150
 1250TIP3   OH225384   4.690   5.007   1.756 -0.2239 -0.2738 -0.1641
 1250TIP3    H125385   4.785   4.998   1.747  0.1407  2.4514  0.0937
 1250TIP3    H225386   4.678   5.042   1.845 -1.4552 -0.4350 -0.2516
 1251TIP3   OH225387   2.379   1.248   2.306  0.7111  0.1252  0.6591
 1251TIP3    H125388   2.326   1.212   2.235  2.1760 -0.4390 -0.1889
 1251TIP3    H225389   2.335   1.330   2.330  1.2729  1.4113 -2.2852
 1252TIP3   OH225390   5.974   3.053   1.068  0.3365  0.5056 -0.2989
 1252TIP3    H125391   6.037   3.068   1.138  1.6770  0.2815 -1.4169
 1252TIP3    H225392   5.957   3.140   1.032 -1.9663  0.9371  1.5596
 1253TIP3   OH225393   5.037   3.982   1.130  0.2279  0.8155 -0.0307
 1253TIP3    H125394   5.065   3.939   1.050 -0.6457 -2.0712  1.0974
 1253TIP3    H225395   4.941   3.985   1.124  0.0542 -0.6484  1.4213
 1254TIP3   OH225396   3.299   4.488   7.657 -0.7230 -0.3754  0.0986
 1254TIP3    H125397   3.264   4.517   7.573  1.1579  3.0090  0.3339
 1254TIP3    H225398   3.222   4.460   7.707 -2.2687  0.7394 -1.5592
 1255TIP3   OH225399   3.868   1.658   1.186 -0.3928  0.1734  0.3415
 1255TIP3    H125400   3.899   1.569   1.203 -0.8313 -0.2089 -0.7806
 1255TIP3    H225401   3.778   1.659   1.219 -0.3749  0.2128  0.3892
 1256TIP3   OH225402   6.451   0.077   1.616 -0.4421  0.1250  0.4902
 1256TIP3    H125403   6.459   0.131   1.695  0.1870  0.4302  0.2347
 1256TIP3    H225404   6.370   0.106   1.575  0.1325  1.2665  0.0967
 1257TIP3   OH225405   1.603   2.738   8.947 -0.0304  0.3047 -0.4114
 1257TIP3    H125406   1.661   2.705   9.016 -0.2732  0.7376  0.0000
 1257TIP3    H225407   1.528   2.774   8.993 -0.1956  0.6042 -0.9041
 1258TIP3   OH225408   1.910   0.088   2.669 -0.5878 -0.0200  0.5508
 1258TIP3    H125409   1.901   0.180   2.644  1.5986  0.4562  1.2420
 1258TIP3    H225410   1.902   0.039   2.587 -2.2072  0.7097  0.2330
 1259TIP3   OH225411   5.917   2.916   0.439  0.6428 -0.1721  0.5063
 1259TIP3    H125412   5.860   2.845   0.466  0.1307  0.0023 -0.0971
 1259TIP3    H225413   5.942   2.894   0.350 -0.2790  0.8627 -0.0332
 1260TIP3   OH225414   2.355   3.270   1.385 -0.0084 -0.3336  0.1257
 1260TIP3    H125415   2.338   3.178   1.401 -2.7190 -0.0751 -0.7214
 1260TIP3    H225416   2.387   3.273   1.294 -0.8390 -0.3794 -0.1754
 1261TIP3   OH225417   3.992   5.140   8.694 -0.7469  0.1649 -0.3448
 1261TIP3    H125418   3.931   5.095   8.636  0.5629 -1.0776 -0.8189
 1261TIP3    H225419   4.026   5.213   8.642 -1.8572  0.9207 -0.0454
 1262TIP3   OH225420   1.696   5.366   8.784  0.1735 -0.2911  0.0293
 1262TIP3    H125421   1.685   5.450   8.740  0.1340 -0.2385  0.1407
 1262TIP3    H225422   1.789   5.346   8.774 -0.0600 -0.8589 -1.1319
 1263TIP3   OH225423   5.724   4.014   0.264  0.7895 -0.7438  0.5954
 1263TIP3    H125424   5.766   3.942   0.310  0.0693  0.1685  2.8070
 1263TIP3    H225425   5.661   4.049   0.327  1.3333  2.0124 -0.2819
 1264TIP3   OH225426   6.045   0.870   1.457 -0.0818  0.2814  0.6155
 1264TIP3    H125427   6.093   0.825   1.387  1.8552  2.3968  0.4657
 1264TIP3    H225428   5.999   0.941   1.413 -0.8965  0.1374  1.2032
 1265TIP3   OH225429   2.449   4.478   8.601 -0.2018 -0.0659 -0.5526
 1265TIP3    H125430   2.412   4.468   8.689 -2.2393  0.5146 -1.2821
 1265TIP3    H225431   2.480   4.391   8.578 -1.2390 -0.6183  0.0868
 1266TIP3   OH225432   2.001   2.777   8.457  0.2236 -0.2092 -0.7369
 1266TIP3    H125433   1.954   2.822   8.387  0.2806 -3.4871 -3.1244
 1266TIP3    H225434   1.933   2.739   8.512  0.1638  0.3253 -0.4352
 1267TIP3   OH225435   1.656   1.416   1.434 -0.3023 -0.1754 -0.3972
 1267TIP3    H125436   1.608   1.488   1.394 -4.0399 -0.9121  2.2678
 1267TIP3    H225437   1.651   1.434   1.528 -0.6199 -3.4176  0.3035
 1268TIP3   OH225438   1.463   0.391   1.859 -0.8065 -0.0120 -0.6191
 1268TIP3    H125439   1.393   0.325   1.853 -2.7559  1.9491 -0.6076
 1268TIP3    H225440   1.445   0.451   1.787  1.0279  0.4620 -0.7284
 1269TIP3   OH225441   5.799   3.458   8.794  0.3092  0.5062 -0.0663
 1269TIP3    H125442   5.881   3.411   8.803  0.0646 -0.0433 -0.6115
 1269TIP3    H225443   5.759   3.454   8.881  0.8370  0.7481  0.1909
 1270TIP3   OH225444   4.055   5.744   8.779  0.1907 -0.7126 -0.5822
 1270TIP3    H125445   4.031   5.705   8.863  0.1808 -0.4859 -0.4792
 1270TIP3    H225446   3.984   5.805   8.760  1.2479  0.8957  0.3266
 1271TIP3   OH225447   5.048   2.937   8.940 -0.5779 -0.0052 -0.0444
 1271TIP3    H125448   5.060   2.905   8.851  0.6013  1.3181 -0.3905
 1271TIP3    H225449   5.043   2.858   8.994  0.3644 -0.7858 -1.0772
 1272TIP3   OH225450   3.349   2.133   0.374  0.7312 -0.8282 -0.0739
 1272TIP3    H125451   3.294   2.211   0.364  0.1206 -1.2035  0.3101
 1272TIP3    H225452   3.289   2.065   0.405  1.3456 -1.3369  0.0148
 1273TIP3   OH225453   4.329   3.784   6.545 -0.0424  0.0610 -0.5491
 1273TIP3    H125454   4.354   3.731   6.468 -0.8305  0.3847 -1.0444
 1273TIP3    H225455   4.345   3.726   6.619  1.3170 -0.0496 -0.8988
 1274TIP3   OH225456   6.705   1.612   1.647 -0.0606 -0.0200  0.3382
 1274TIP3    H125457   6.750   1.695   1.633 -1.1476  0.4466 -0.6319
 1274TIP3    H225458   6.750   1.572   1.721  0.1467  1.6793  1.1800
 1275TIP3   OH225459   0.435   2.251   1.219  0.5335  0.0679  0.0435
 1275TIP3    H125460   0.342   2.260   1.200  0.4301 -1.4667 -0.2990
 1275TIP3    H225461   0.452   2.158   1.211  1.8775  0.1851  1.1827
 1276TIP3   OH225462   0.402   0.969   8.969  0.3113  0.0781  0.5826
 1276TIP3    H125463   0.329   1.027   8.946  2.3270  1.9150 -1.6476
 1276TIP3    H225464   0.425   0.994   9.058 -0.2471  1.1980  0.4272
 1277TIP3   OH225465   3.062   3.762   2.427 -0.1924  0.2224 -0.2818
 1277TIP3    H125466   3.064   3.676   2.470  1.5464  0.0681 -0.5758
 1277TIP3    H225467   3.127   3.754   2.357  1.8658  2.5076  1.2039
 1278TIP3   OH225468   4.130   2.448   1.825 -0.1393 -0.5683 -0.1019
 1278TIP3    H125469   4.046   2.411   1.854 -0.0170  0.4889  1.7489
 1278TIP3    H225470   4.110   2.538   1.802  0.9293  0.8041  3.5819
 1279TIP3   OH225471   5.574   6.587   2.155  0.1029  0.6252 -0.0680
 1279TIP3    H125472   5.613   6.535   2.084  0.3057 -2.6831  2.2471
 1279TIP3    H225473   5.480   6.582   2.138  0.2226  1.5345 -1.1160
 1280TIP3   OH225474   0.338   1.508   6.618 -0.2354 -0.1328 -0.0012
 1280TIP3    H125475   0.326   1.520   6.712 -2.1498 -0.1247 -0.2165
 1280TIP3    H225476   0.369   1.593   6.587 -0.2729  0.0745  0.5104
 1281TIP3   OH225477   3.243   6.109   1.117 -0.3812  0.1271 -0.0154
 1281TIP3    H125478   3.282   6.054   1.050  0.3001 -0.7443  1.0641
 1281TIP3    H225479   3.168   6.151   1.074 -0.8352 -1.5296 -0.9133
 1282TIP3   OH225480   3.288   3.843   2.231  0.3729 -0.7362 -0.5088
 1282TIP3    H125481   3.305   3.881   2.318 -0.6315 -0.7016 -0.3222
 1282TIP3    H225482   3.368   3.861   2.182  1.2635 -1.4118  0.6331
 1283TIP3   OH225483   2.535   1.812   1.657 -0.0161  0.3944  0.8597
 1283TIP3    H125484   2.455   1.849   1.694 -0.5044  0.8014 -0.5357
 1283TIP3    H225485   2.548   1.730   1.705  0.8684  2.0681  3.7582
 1284TIP3   OH225486   0.532   3.743   1.164 -0.2248  0.3795  0.0805
 1284TIP3    H125487   0.620   3.738   1.129 -0.0936 -1.2671  0.5330
 1284TIP3    H225488   0.508   3.651   1.180 -1.9669  0.8009  0.0704
 1285TIP3   OH225489   1.169   5.137   8.860 -0.5846 -0.5292 -0.1010
 1285TIP3    H125490   1.262   5.159   8.852 -0.8903  0.4787 -1.2771
 1285TIP3    H225491   1.163   5.087   8.941  0.7303  0.7680  0.8544
 1286TIP3   OH225492   0.132   1.931   2.126  0.7749  0.0891  0.3153
 1286TIP3    H125493   0.192   1.933   2.201  0.6318  0.5815  0.4250
 1286TIP3    H225494   0.144   2.016   2.084  0.8100 -0.1622 -0.1928
 1287TIP3   OH225495   6.709   2.939   7.892  0.0554  0.6449  0.4023
 1287TIP3    H125496   6.618   2.947   7.923  0.1062  0.0152  0.7269
 1287TIP3    H225497   6.761   2.938   7.972  0.1950 -0.9623  0.3164
 1288TIP3   OH225498   2.323   1.387   7.753  0.0290 -0.0263  0.2447
 1288TIP3    H125499   2.261   1.324   7.715 -0.9862  0.5026  0.9874
 1288TIP3    H225500   2.400   1.382   7.695  0.0733 -2.0770  0.3979
 1289TIP3   OH225501   4.318   4.512   8.414 -0.8568  1.0075  0.0600
 1289TIP3    H125502   4.366   4.547   8.489  0.6698  1.9472 -1.2729
 1289TIP3    H225503   4.237   4.563   8.411 -0.1651  2.1391  0.1089
 1290TIP3   OH225504   3.566   2.755   7.074  0.5507  0.0783  0.1659
 1290TIP3    H125505   3.474   2.734   7.062 -0.4623  3.8802  0.1954
 1290TIP3    H225506   3.598   2.775   6.986  0.9219  0.2182  0.3301
 1291TIP3   OH225507   5.781   1.956   1.106 -0.5511  0.1573  0.2728
 1291TIP3    H125508   5.757   1.864   1.115  0.7420 -0.1724  0.4590
 1291TIP3    H225509   5.710   2.004   1.149 -2.7769 -0.5596 -2.3392
 1292TIP3   OH225510   6.763   5.987   8.986 -0.3142 -0.1526  0.1733
 1292TIP3    H125511   6.682   5.938   8.975 -0.0342 -0.4719 -0.5570
 1292TIP3    H225512   6.798   5.997   8.897  0.2071  0.3876  0.4272
 1293TIP3   OH225513   2.756   2.287   6.823 -0.1718  0.3260  0.1614
 1293TIP3    H125514   2.744   2.275   6.917  1.6913  1.4713  0.5915
 1293TIP3    H225515   2.706   2.366   6.802 -0.5330  0.1077  0.1882
 1294TIP3   OH225516   2.009   2.814   0.829  0.1382 -0.5839  0.0108
 1294TIP3    H125517   1.932   2.857   0.790  0.7313 -0.2523 -0.8173
 1294TIP3    H225518   2.082   2.873   0.810  0.3599 -0.0346  2.2912
 1295TIP3   OH225519   6.409   4.221   2.691 -0.0813  0.6683  0.4328
 1295TIP3    H125520   6.463   4.284   2.644 -0.7950  1.6779  0.9276
 1295TIP3    H225521   6.412   4.248   2.782 -0.7094  0.2246  0.6000
 1296TIP3   OH225522   2.480   3.178   7.710  0.8209 -0.2740 -0.0056
 1296TIP3    H125523   2.416   3.213   7.773  0.3141 -0.5786 -0.3394
 1296TIP3    H225524   2.565   3.201   7.746  0.5077  1.4297 -0.2803
 1297TIP3   OH225525   3.970   5.069   7.791  0.2586 -0.1921  0.1926
 1297TIP3    H125526   4.066   5.065   7.796  0.1994 -0.9472  0.9681
 1297TIP3    H225527   3.940   5.023   7.870 -0.7426  0.3880  0.1675
 1298TIP3   OH225528   3.916   5.230   0.670  0.0882  0.4233 -0.6712
 1298TIP3    H125529   3.886   5.159   0.727  0.5876  0.4309 -0.3888
 1298TIP3    H225530   3.888   5.204   0.583  0.9642 -0.5232 -0.6932
 1299TIP3   OH225531   5.357   2.840   0.006  0.3855 -0.4301  0.3218
 1299TIP3    H125532   5.358   2.905  -0.064 -1.0296  0.2563  0.9076
 1299TIP3    H225533   5.386   2.888   0.084  1.7432 -1.1384  0.2938
 1300TIP3   OH225534   5.578   6.548   0.462  0.5354 -0.1435  0.8254
 1300TIP3    H125535   5.672   6.536   0.448  0.7723  1.0344  1.2353
 1300TIP3    H225536   5.553   6.614   0.397 -0.4329 -1.8337 -0.5826
 1301TIP3   OH225537   5.204   6.459   0.655  0.3386  0.2130 -0.3308
 1301TIP3    H125538   5.227   6.445   0.563  0.7172  1.8628 -0.5297
 1301TIP3    H225539   5.110   6.442   0.660 -0.3304  2.9290 -1.7330
 1302TIP3   OH225540   1.533   3.718   8.605  0.1713 -0.1191 -0.2573
 1302TIP3    H125541   1.483   3.700   8.525  0.1646 -1.1601 -0.0332
 1302TIP3    H225542   1.619   3.682   8.589  1.4251  2.9321 -1.2063
 1303TIP3   OH225543   1.044   2.876   2.080  0.3030  0.3658 -0.7633
 1303TIP3    H125544   1.092   2.889   2.162  0.3569 -2.7922 -0.2003
 1303TIP3    H225545   1.069   2.952   2.026  2.0417  1.3565  1.2816
 1304TIP3   OH225546   4.598   1.606   8.210  0.1091  0.0102  0.1049
 1304TIP3    H125547   4.691   1.584   8.203  0.6188  2.1432 -0.4907
 1304TIP3    H225548   4.555   1.548   8.147  1.2442  0.0891 -0.7778
 1305TIP3   OH225549   3.273   3.242   2.400  0.3010 -0.2974 -0.1073
 1305TIP3    H125550   3.296   3.261   2.491 -0.3832  1.3551 -0.2379
 1305TIP3    H225551   3.348   3.193   2.366  1.2784  0.4337  0.9140
 1306TIP3   OH225552   6.505   2.220   0.603 -0.3760 -0.2952  0.0149
 1306TIP3    H125553   6.567   2.182   0.541 -0.1243  1.6152 -0.9835
 1306TIP3    H225554   6.560   2.258   0.672 -0.3807  1.3339 -0.8319
 1307TIP3   OH225555   3.205   0.414   1.279  0.1479  0.0215 -0.2393
 1307TIP3    H125556   3.213   0.508   1.265  2.0814  0.4335  2.7418
 1307TIP3    H225557   3.295   0.385   1.296 -0.5788 -2.1126  0.2597
 1308TIP3   OH225558   3.229   1.130   1.679 -0.3402  0.1289  0.1536
 1308TIP3    H125559   3.309   1.114   1.729 -1.3263 -0.8874  1.5158
 1308TIP3    H225560   3.180   1.193   1.733 -0.6818  0.3454 -0.4045
 1309TIP3   OH225561   6.189   6.261   8.421 -0.4532  0.2666  0.1243
 1309TIP3    H125562   6.170   6.167   8.417  1.9389 -0.2305 -1.1110
 1309TIP3    H225563   6.118   6.302   8.372 -0.6267 -1.0660 -0.7886
 1310TIP3   OH225564   0.466   0.040   0.499 -0.0520 -0.2540 -0.0855
 1310TIP3    H125565   0.424   0.018   0.582  0.0762 -0.1089  0.0193
 1310TIP3    H225566   0.523   0.114   0.520  0.5355 -0.6809 -0.1437
 1311TIP3   OH225567   1.044   6.235   0.915 -0.1390  0.2217  0.0061
 1311TIP3    H125568   0.974   6.296   0.894 -0.9922 -0.7812 -0.1019
 1311TIP3    H225569   1.028   6.159   0.859  1.1459  0.0501 -0.1594
 1312TIP3   OH225570   0.827   5.534   7.544 -0.1465 -0.0992 -0.5923
 1312TIP3    H125571   0.885   5.457   7.547  2.2345  1.6027 -0.0834
 1312TIP3    H225572   0.740   5.497   7.529  1.1117 -2.7808 -2.1922
 1313TIP3   OH225573   5.294   5.579   6.833  0.0913  0.2917 -0.0082
 1313TIP3    H125574   5.313   5.662   6.878 -0.4536  1.3940 -1.7125
 1313TIP3    H225575   5.200   5.582   6.817 -0.2982 -1.5579  1.5203
 1314TIP3   OH225576   0.646   6.077   1.088  0.0477 -0.0504 -0.0733
 1314TIP3    H125577   0.697   6.045   1.013  2.7465 -1.2295  2.0723
 1314TIP3    H225578   0.601   5.999   1.120  2.5528 -0.7410  2.1126
 1315TIP3   OH225579   1.246   0.821   0.254 -0.2871 -0.5374  0.3050
 1315TIP3    H125580   1.153   0.799   0.259 -0.2413 -0.5407  1.6043
 1315TIP3    H225581   1.269   0.847   0.343  1.2259 -1.6386  0.2740
 1316TIP3   OH225582   5.824   6.608   0.345  0.9540  0.5462  0.3936
 1316TIP3    H125583   5.870   6.688   0.371  0.1050  0.9781  0.5752
 1316TIP3    H225584   5.894   6.552   0.311  1.7227  0.9491  1.2319
 1317TIP3   OH225585   2.301   4.868   1.605  0.3961 -0.7164  0.3650
 1317TIP3    H125586   2.351   4.883   1.525 -0.2527 -1.3489 -0.1825
 1317TIP3    H225587   2.285   4.955   1.641  0.3873 -0.3997 -0.3946
 1318TIP3   OH225588   2.931   5.113   8.688 -0.0585  0.4084  0.2078
 1318TIP3    H125589   2.861   5.170   8.655  0.9191  1.2913 -0.4033
 1318TIP3    H225590   2.886   5.052   8.747 -1.5927 -0.0740 -1.3667
 1319TIP3   OH225591   3.916   1.447   1.901 -0.2718  0.3553  0.2205
 1319TIP3    H125592   3.844   1.501   1.933 -0.4751  0.3731 -0.2543
 1319TIP3    H225593   3.973   1.508   1.854 -0.0166  0.3165  0.4735
 1320TIP3   OH225594   3.667   5.367   2.443 -0.1137  0.2583 -0.5824
 1320TIP3    H125595   3.600   5.327   2.498  1.1972 -1.5762 -0.2125
 1320TIP3    H225596   3.717   5.292   2.409  1.6785  1.5432 -0.9073
 1321TIP3   OH225597   4.145   3.830   1.749 -0.5571 -0.4799  0.7757
 1321TIP3    H125598   4.201   3.755   1.770 -0.2734 -0.0385  1.6933
 1321TIP3    H225599   4.203   3.905   1.757 -0.7460 -0.1764 -0.5060
 1322TIP3   OH225600   1.132   4.470   0.454  0.0058  0.6731 -0.6930
 1322TIP3    H125601   1.115   4.532   0.525  0.3433 -0.3031  0.2536
 1322TIP3    H225602   1.225   4.480   0.434  0.5683 -0.9860  0.9062
 1323TIP3   OH225603   3.817   4.501   2.461 -0.0984 -0.2943 -0.0260
 1323TIP3    H125604   3.764   4.553   2.521 -0.7094  0.9610 -1.6022
 1323TIP3    H225605   3.906   4.535   2.472 -0.9777  4.3110 -3.9661
 1324TIP3   OH225606   4.267   2.806   7.148  0.3284  0.1125 -0.0333
 1324TIP3    H125607   4.256   2.823   7.054  1.9528 -1.8422 -0.6424
 1324TIP3    H225608   4.182   2.827   7.186 -0.8885 -0.6257 -2.1817
 1325TIP3   OH225609   4.581   5.233   7.568 -0.3531  0.3183 -0.6440
 1325TIP3    H125610   4.619   5.199   7.649  1.7294  0.2544 -1.5671
 1325TIP3    H225611   4.488   5.243   7.587 -0.1861 -1.1150  1.2614
 1326TIP3   OH225612   3.918   1.605   0.614  0.1052 -0.4032  0.1545
 1326TIP3    H125613   3.982   1.659   0.661 -1.0149 -0.2777  1.6117
 1326TIP3    H225614   3.856   1.669   0.578  0.1804 -0.5855 -0.3011
 1327TIP3   OH225615   2.908   4.678   2.778  0.0863  0.4636 -0.0357
 1327TIP3    H125616   2.883   4.586   2.781 -0.8715  0.6951 -0.4158
 1327TIP3    H225617   2.982   4.685   2.838 -0.3480 -0.3941  0.6284
 1328TIP3   OH225618   2.492   4.920   8.825  0.5337 -0.2273 -0.0871
 1328TIP3    H125619   2.405   4.892   8.855  0.7945 -2.3481 -1.1623
 1328TIP3    H225620   2.553   4.861   8.868  1.2060 -0.6877 -1.5942
 1329TIP3   OH225621   5.345   4.349   1.499 -0.1509  0.0851 -0.1642
 1329TIP3    H125622   5.415   4.413   1.485  1.1975 -1.3269 -0.1040
 1329TIP3    H225623   5.290   4.388   1.567  0.4721  1.3047 -0.3376
 1330TIP3   OH225624   6.063   2.578   6.788 -0.3901 -0.0785  0.5132
 1330TIP3    H125625   6.043   2.666   6.758  1.7893  1.3326  2.7484
 1330TIP3    H225626   6.049   2.581   6.883 -1.4984 -2.5535  0.5038
 1331TIP3   OH225627   5.248   2.012   7.476 -0.0021 -0.0669  0.3314
 1331TIP3    H125628   5.283   2.069   7.407 -0.4182 -0.2764 -0.0659
 1331TIP3    H225629   5.197   2.070   7.532 -0.5536 -0.0662 -0.1606
 1332TIP3   OH225630   4.496   4.485   8.904  0.3026 -0.0926  0.3676
 1332TIP3    H125631   4.461   4.457   8.820 -0.9859 -1.6945  1.3781
 1332TIP3    H225632   4.573   4.430   8.917  0.0796 -0.3633  0.5542
 1333TIP3   OH225633   1.394   1.029   1.004 -0.2773 -0.2020  0.4201
 1333TIP3    H125634   1.323   0.968   0.981  0.5222 -1.4077  1.0605
 1333TIP3    H225635   1.352   1.094   1.060 -0.9743 -0.6261  0.4011
 1334TIP3   OH225636   1.277   5.258   7.155  0.4378 -0.2156 -0.3695
 1334TIP3    H125637   1.187   5.285   7.137  0.3081 -0.9262 -0.8133
 1334TIP3    H225638   1.311   5.326   7.213 -0.7083 -0.4609  0.6335
 1335TIP3   OH225639   5.363   5.427   8.620  0.5490 -0.0566 -0.0152
 1335TIP3    H125640   5.357   5.364   8.692  2.0652  0.0172  0.2099
 1335TIP3    H225641   5.285   5.482   8.629 -0.0895 -1.0395  0.6045
 1336TIP3   OH225642   3.109   6.127   8.198  0.1636  0.1959 -0.3674
 1336TIP3    H125643   3.027   6.166   8.227  0.1103  0.8624 -1.3420
 1336TIP3    H225644   3.175   6.194   8.215  1.1034 -1.4339  3.2542
 1337TIP3   OH225645   5.943   0.183   7.691 -0.4151  0.7889 -0.2308
 1337TIP3    H125646   5.987   0.146   7.614 -0.5615  1.1553 -0.4928
 1337TIP3    H225647   6.013   0.228   7.738  0.6559 -2.8347  2.0970
 1338TIP3   OH225648   5.970   0.701   8.537 -0.2849 -0.3693 -0.3242
 1338TIP3    H125649   6.063   0.699   8.517 -0.1875  0.1997  0.0502
 1338TIP3    H225650   5.946   0.609   8.549  0.6433 -0.4309  1.4188
 1339TIP3   OH225651   1.392   1.815   1.135 -0.2361 -0.1653 -0.2412
 1339TIP3    H125652   1.333   1.758   1.085 -0.5050 -0.7299  0.6735
 1339TIP3    H225653   1.392   1.898   1.088 -1.0745 -0.4380 -0.7414
 1340TIP3   OH225654   5.006   3.025   2.046  0.4443  0.1267 -0.3868
 1340TIP3    H125655   4.968   3.111   2.027  2.6174  0.8725 -1.7876
 1340TIP3    H225656   4.936   2.963   2.026 -0.1970  1.4307 -2.5307
 1341TIP3   OH225657   4.530   5.277   1.122  0.5453  0.2400  0.3940
 1341TIP3    H125658   4.499   5.367   1.127  1.8583  0.6575  1.7485
 1341TIP3    H225659   4.548   5.263   1.029 -0.5172  1.0594  0.0470
 1342TIP3   OH225660   4.105   3.284   0.823 -0.3786  0.1394 -0.1258
 1342TIP3    H125661   4.099   3.232   0.903 -0.8774  0.0932 -0.1899
 1342TIP3    H225662   4.168   3.236   0.768  0.1888  0.3295  0.3466
 1343TIP3   OH225663   5.865   3.796   0.370 -0.4509  0.2180  0.2596
 1343TIP3    H125664   5.944   3.778   0.319 -1.6417 -0.2296 -1.5143
 1343TIP3    H225665   5.826   3.710   0.385 -1.5855  0.5684 -0.5580
 1344TIP3   OH225666   0.067   6.681   7.272  0.1584 -0.2096  0.3354
 1344TIP3    H125667   0.139   6.691   7.335  0.4546 -1.4780  0.2329
 1344TIP3    H225668   0.099   6.615   7.210 -0.3969  0.5329 -0.7543
 1345TIP3   OH225669   3.928   3.692   7.684 -0.0125  0.3217  0.0391
 1345TIP3    H125670   4.000   3.630   7.674 -0.9914 -0.9436  0.6552
 1345TIP3    H225671   3.970   3.778   7.684  1.3942 -0.3479 -0.5421
 1346TIP3   OH225672   0.863   1.922   7.627  0.0497 -0.1506  0.1956
 1346TIP3    H125673   0.775   1.937   7.592  0.0910 -0.8753 -0.2318
 1346TIP3    H225674   0.922   1.947   7.555  0.2027  0.4632  0.5278
 1347TIP3   OH225675   5.575   4.415   7.103  0.0906 -0.0272  0.0138
 1347TIP3    H125676   5.507   4.474   7.135  0.7965  0.6532  0.2983
 1347TIP3    H225677   5.621   4.465   7.035 -0.8776 -1.1605 -1.5759
 1348TIP3   OH225678   4.691   4.346   1.374  0.0350 -0.5625 -0.0636
 1348TIP3    H125679   4.703   4.356   1.468  1.6286 -0.3136 -0.2704
 1348TIP3    H225680   4.601   4.377   1.358  0.0030  0.1039  1.2629
 1349TIP3   OH225681   3.323   0.713   8.796 -0.2984 -0.2706  0.2829
 1349TIP3    H125682   3.334   0.630   8.842 -1.1528  0.2910  1.5327
 1349TIP3    H225683   3.384   0.772   8.838  0.6716 -0.3494 -0.9330
 1350TIP3   OH225684   4.386   3.009   2.073 -0.1191 -0.0387  0.5385
 1350TIP3    H125685   4.346   3.094   2.057  0.3327  0.2470  0.8875
 1350TIP3    H225686   4.446   2.997   1.999  1.9460  1.2668  1.8831
 1351TIP3   OH225687   3.243   4.240   8.393  0.4905 -0.0518 -0.2754
 1351TIP3    H125688   3.329   4.281   8.384 -0.1252  1.2059 -0.8139
 1351TIP3    H225689   3.245   4.198   8.479  0.9992  1.6040  0.5728
 1352TIP3   OH225690   2.030   3.210   0.709 -1.0988 -0.3442  0.5786
 1352TIP3    H125691   1.948   3.214   0.660 -1.1596  0.7242  0.7487
 1352TIP3    H225692   2.081   3.284   0.676 -0.2362 -0.9352  0.5445
 1353TIP3   OH225693   0.556   3.184   0.575  0.4727 -0.0223  0.5056
 1353TIP3    H125694   0.630   3.234   0.541  0.6416 -0.5427  0.1036
 1353TIP3    H225695   0.586   3.093   0.576 -0.7679 -0.5248 -1.4774
 1354TIP3   OH225696   5.432   5.014   1.046  0.5518 -0.2857  0.3478
 1354TIP3    H125697   5.383   5.066   1.110  1.7166  0.6982  0.4671
 1354TIP3    H225698   5.476   5.079   0.992  1.4267 -1.1470  0.0128
 1355TIP3   OH225699   3.276   1.701   7.618  0.3250 -0.1444 -0.3036
 1355TIP3    H125700   3.351   1.643   7.611  0.9886  0.5159  1.0168
 1355TIP3    H225701   3.285   1.761   7.544  0.3572 -0.8997 -0.9161
 1356TIP3   OH225702   2.403   6.720   0.046  0.6570  0.2163 -0.3737
 1356TIP3    H125703   2.468   6.746  -0.020  1.1089  2.4639  0.8290
 1356TIP3    H225704   2.434   6.762   0.127 -1.0692 -0.5893  0.7562
 1357TIP3   OH225705   4.791   5.833   7.005  0.4233 -0.4102  0.1605
 1357TIP3    H125706   4.848   5.903   6.974  1.0578 -1.0866 -0.2399
 1357TIP3    H225707   4.702   5.863   6.986  0.7046  0.1076 -0.3620
 1358TIP3   OH225708   1.718   6.745   8.161 -0.0156 -0.1191  0.2564
 1358TIP3    H125709   1.700   6.773   8.250 -0.0787 -0.8272  0.4695
 1358TIP3    H225710   1.775   6.669   8.170  0.8309  0.4245 -0.3403
 1359TIP3   OH225711   3.325   5.256   1.389 -0.2020  0.3892 -0.0862
 1359TIP3    H125712   3.392   5.312   1.349 -1.1203  0.8297 -1.0511
 1359TIP3    H225713   3.252   5.257   1.327 -1.0962 -0.1139  0.9175
 1360TIP3   OH225714   3.062   4.757   7.566  0.1422  0.0591 -0.1785
 1360TIP3    H125715   3.089   4.810   7.491 -0.7143 -0.9661 -1.2369
 1360TIP3    H225716   3.128   4.775   7.633  0.2332  1.9473 -0.7240
 1361TIP3   OH225717   0.151   4.882   8.706  0.1717 -0.2062  0.1742
 1361TIP3    H125718   0.151   4.861   8.613  2.0384  1.3586 -0.2408
 1361TIP3    H225719   0.066   4.924   8.721  0.1961  0.3035 -1.0281
 1362TIP3   OH225720   0.350   4.421   1.698 -0.0716 -0.1721  0.2661
 1362TIP3    H125721   0.369   4.405   1.790 -0.5113  0.2249  0.4340
 1362TIP3    H225722   0.260   4.455   1.698 -0.3737 -0.9325 -0.3866
 1363TIP3   OH225723   3.929   5.969   8.374 -0.1909  0.5798 -0.6099
 1363TIP3    H125724   4.005   5.915   8.396  0.6835  2.0132 -0.0308
 1363TIP3    H225725   3.935   6.045   8.432 -1.7592  1.0096 -0.9507
 1364TIP3   OH225726   6.743   2.495   1.259  0.2735  0.3499  0.2399
 1364TIP3    H125727   6.735   2.431   1.330 -1.3684 -1.5817 -1.5121
 1364TIP3    H225728   6.668   2.553   1.270  0.4236  0.4971  0.4881
 1365TIP3   OH225729   6.115   4.418   8.092  0.0381 -0.1728  0.3495
 1365TIP3    H125730   6.024   4.438   8.069  0.6793  2.4095 -0.2583
 1365TIP3    H225731   6.150   4.501   8.125  1.7885 -1.4770  2.0040
 1366TIP3   OH225732   4.977   5.190   8.720  0.0349  0.3339 -0.1315
 1366TIP3    H125733   4.935   5.184   8.806 -2.2468  2.3919 -0.9842
 1366TIP3    H225734   5.036   5.114   8.717 -1.2900 -0.9442  2.4353
 1367TIP3   OH225735   6.092   3.088   1.397 -0.5950 -0.7906  0.6698
 1367TIP3    H125736   6.104   3.084   1.492 -0.7002 -1.7953  0.6566
 1367TIP3    H225737   5.999   3.068   1.383 -1.4650  2.7655  0.5203
 1368TIP3   OH225738   3.562   4.156   8.600 -0.5644 -0.4423  0.0747
 1368TIP3    H125739   3.639   4.164   8.656 -0.0371  3.2254 -0.8993
 1368TIP3    H225740   3.594   4.106   8.524  1.8110  3.0826 -1.4958
 1369TIP3   OH225741   0.097   4.024   7.285  0.3919 -0.4349  0.2139
 1369TIP3    H125742   0.175   4.079   7.281  1.2004 -1.4124  1.6637
 1369TIP3    H225743   0.127   3.938   7.255 -0.3704 -0.6047 -0.0935
 1370TIP3   OH225744   3.986   2.566   0.398  0.8554  0.0842 -0.0059
 1370TIP3    H125745   3.981   2.633   0.329  2.0803  0.6279  0.3932
 1370TIP3    H225746   3.947   2.488   0.359 -1.3735  1.2103 -0.2161
 1371TIP3   OH225747   5.352   0.310   7.252 -0.0023 -0.0693 -0.0814
 1371TIP3    H125748   5.415   0.336   7.320  0.6809 -2.7055  0.4240
 1371TIP3    H225749   5.378   0.360   7.174  0.6237  1.3176  0.9783
 1372TIP3   OH225750   5.596   2.828   1.359  0.8727 -0.4148  0.2760
 1372TIP3    H125751   5.520   2.879   1.387  0.5940 -1.4819  1.5483
 1372TIP3    H225752   5.560   2.742   1.336  1.4467 -0.3386 -1.0278
 1373TIP3   OH225753   5.857   1.736   0.371  0.2219 -0.1762  0.6596
 1373TIP3    H125754   5.852   1.656   0.424  0.6426  0.0682  1.0799
 1373TIP3    H225755   5.947   1.767   0.382  1.0366 -1.3180 -2.0006
 1374TIP3   OH225756   0.353   2.394   8.272  0.3683  0.1893 -0.5064
 1374TIP3    H125757   0.318   2.469   8.224  0.9821  1.5495  1.0808
 1374TIP3    H225758   0.445   2.389   8.244  0.0530 -0.7233 -1.4620
 1375TIP3   OH225759   2.126   5.241   7.298  0.2815  0.3891  0.0793
 1375TIP3    H125760   2.084   5.256   7.383 -0.2301 -0.4238 -0.0148
 1375TIP3    H225761   2.194   5.307   7.292 -1.5730  2.3946 -0.1599
 1376TIP3   OH225762   1.669   3.901   1.269 -0.3048  0.1560  0.1177
 1376TIP3    H125763   1.714   3.821   1.244  1.6974  1.1624  0.3238
 1376TIP3    H225764   1.612   3.875   1.341  0.4828 -1.0230  0.3439
 1377TIP3   OH225765   1.164   0.830   2.625  0.3440 -0.0004 -0.2436
 1377TIP3    H125766   1.070   0.819   2.631  0.2184  1.3539  0.9649
 1377TIP3    H225767   1.175   0.906   2.568  0.6933 -0.0627 -0.2608
 1378TIP3   OH225768   4.041   4.358   2.888 -0.1042  0.2161  0.0015
 1378TIP3    H125769   4.029   4.309   2.806 -0.1571 -0.0783  0.1864
 1378TIP3    H225770   3.964   4.415   2.892 -1.0941 -1.1328  0.8025
 1379TIP3   OH225771   3.665   3.732   8.595  0.6829  0.1141 -0.7451
 1379TIP3    H125772   3.657   3.667   8.665  1.1316 -1.8171 -2.3938
 1379TIP3    H225773   3.700   3.810   8.639  0.5484 -0.8760  1.2342
 1380TIP3   OH225774   3.166   1.179   1.075  0.1566  0.0703  0.0900
 1380TIP3    H125775   3.232   1.239   1.041  0.5112 -0.1740  0.3337
 1380TIP3    H225776   3.212   1.096   1.086  0.0382  0.1288  1.1033
 1381TIP3   OH225777   4.279   5.534   2.264 -0.4845 -0.2024 -0.2006
 1381TIP3    H125778   4.273   5.518   2.358  0.8649 -3.0737 -0.4800
 1381TIP3    H225779   4.332   5.461   2.231 -0.7561  0.8099 -3.1759
 1382TIP3   OH225780   4.279   4.229   2.850  0.5208 -0.3400 -0.4255
 1382TIP3    H125781   4.192   4.261   2.876  0.9896  0.7820 -0.2186
 1382TIP3    H225782   4.318   4.301   2.801  2.2758  0.1120  1.5300
 1383TIP3   OH225783   6.422   1.550   0.670 -0.0079  0.1254  0.4494
 1383TIP3    H125784   6.515   1.568   0.680 -0.0184 -0.0373  0.8468
 1383TIP3    H225785   6.409   1.544   0.575  0.2460  0.8630  0.3625
 1384TIP3   OH225786   6.531   1.830   1.160 -0.3353 -0.5030 -0.0275
 1384TIP3    H125787   6.563   1.804   1.246 -1.1039  0.3798  0.5464
 1384TIP3    H225788   6.559   1.921   1.150  1.0978 -1.0457 -1.3980
 1385TIP3   OH225789   0.284   4.200   7.224  0.1097 -0.2874 -0.0156
 1385TIP3    H125790   0.348   4.195   7.153  0.6400 -0.1367  0.4421
 1385TIP3    H225791   0.208   4.243   7.185  0.5289  0.1153 -0.3980
 1386TIP3   OH225792   1.982   5.855   1.825  0.0379  0.1418  0.5013
 1386TIP3    H125793   1.922   5.851   1.751 -1.1834 -1.5494  1.5267
 1386TIP3    H225794   1.998   5.949   1.838 -1.1469  0.5446 -0.7441
 1387TIP3   OH225795   4.664   2.386   8.967 -0.0680 -0.7198 -0.6969
 1387TIP3    H125796   4.644   2.377   9.060 -1.6714  0.2765 -0.9166
 1387TIP3    H225797   4.757   2.365   8.961  0.4534  0.6755  1.3718
 1388TIP3   OH225798   1.083   6.685   7.718  0.0867 -0.4818  0.3099
 1388TIP3    H125799   1.015   6.635   7.763 -0.1848 -0.9219 -0.5735
 1388TIP3    H225800   1.064   6.776   7.739 -0.1064 -0.6674  0.9812
 1389TIP3   OH225801   3.298   1.759   2.080 -0.1572  0.2978 -0.2132
 1389TIP3    H125802   3.362   1.802   2.137 -0.3505 -0.1343  0.3360
 1389TIP3    H225803   3.262   1.688   2.133 -2.1424  1.3962  0.0004
 1390TIP3   OH225804   0.677   4.859   1.192  0.1221  0.1448  0.6956
 1390TIP3    H125805   0.677   4.767   1.163  2.1965  0.7604 -1.6896
 1390TIP3    H225806   0.611   4.901   1.137  2.1226  0.7884 -1.3724
 1391TIP3   OH225807   1.553   5.762   1.147 -0.1770  0.0074 -0.7044
 1391TIP3    H125808   1.612   5.688   1.130 -1.0982 -0.4403 -2.1564
 1391TIP3    H225809   1.577   5.792   1.234  3.3795  0.9358 -1.8269
 1392TIP3   OH225810   5.848   5.620   6.733 -0.5255 -0.1777  0.3564
 1392TIP3    H125811   5.929   5.658   6.698  0.2340 -1.1606  0.9945
 1392TIP3    H225812   5.826   5.674   6.809  2.3103 -2.6661  3.2486
 1393TIP3   OH225813   1.393   0.559   2.746 -0.5055  0.4308 -0.6827
 1393TIP3    H125814   1.466   0.497   2.743 -1.8200 -1.2213 -0.4412
 1393TIP3    H225815   1.315   0.504   2.755 -1.6098  2.1960  1.8130
 1394TIP3   OH225816   5.086   1.350   0.726 -0.4673  0.3615 -0.8028
 1394TIP3    H125817   5.158   1.403   0.691 -0.1855  0.5117 -0.0095
 1394TIP3    H225818   5.065   1.289   0.655  2.5397 -1.8317 -0.0634
 1395TIP3   OH225819   0.827   1.564   2.059 -0.1454  0.0963 -0.2435
 1395TIP3    H125820   0.807   1.479   2.098  0.3515  0.1191  0.0803
 1395TIP3    H225821   0.877   1.543   1.980 -0.0387  0.0851 -0.1735
 1396TIP3   OH225822   2.449   0.306   8.453  0.0231 -0.6809 -0.5212
 1396TIP3    H125823   2.363   0.318   8.492  0.2400 -0.8274  0.0238
 1396TIP3    H225824   2.434   0.248   8.378 -0.3545 -0.6840 -0.4451
 1397TIP3   OH225825   1.680   0.983   3.027 -0.1785 -0.1949 -0.2185
 1397TIP3    H125826   1.643   0.954   2.944  0.1294  0.8637 -0.7465
 1397TIP3    H225827   1.743   0.914   3.051 -1.2662 -1.1920 -0.1336
 1398TIP3   OH225828   0.291   5.736   1.235 -0.7405  0.0324 -0.3656
 1398TIP3    H125829   0.294   5.668   1.303  0.4547  0.7307  0.3088
 1398TIP3    H225830   0.270   5.688   1.154 -0.6728 -1.0248  0.2250
 1399TIP3   OH225831   3.745   1.012   0.130  0.8611 -0.1603 -0.4653
 1399TIP3    H125832   3.825   1.056   0.159  1.6961 -0.9321 -1.5003
 1399TIP3    H225833   3.742   1.026   0.035 -0.5714  0.3642 -0.3629
 1400TIP3   OH225834   5.872   1.747   7.750  0.1952  0.2221 -0.0844
 1400TIP3    H125835   5.926   1.699   7.812  2.5531 -0.5537 -2.5085
 1400TIP3    H225836   5.830   1.679   7.696  1.6484  0.7580 -2.0153
 1401TIP3   OH225837   0.983   0.371   7.179 -0.3295  0.0283  0.5945
 1401TIP3    H125838   1.032   0.407   7.252 -0.4542  1.7114 -0.1156
 1401TIP3    H225839   1.002   0.277   7.181 -0.3846  0.0235  2.8025
 1402TIP3   OH225840   5.328   3.128   8.383  0.6675 -0.4270 -0.3457
 1402TIP3    H125841   5.370   3.151   8.300  0.1443 -2.2804 -1.1897
 1402TIP3    H225842   5.383   3.057   8.418  0.9385  0.3926  0.9836
 1403TIP3   OH225843   0.129   2.211   8.211 -0.0790 -0.1977 -0.1926
 1403TIP3    H125844   0.202   2.265   8.178  1.8561 -2.6334 -0.1867
 1403TIP3    H225845   0.061   2.220   8.143  0.4063  1.6782 -0.4970
 1404TIP3   OH225846   3.501   6.428   1.046 -0.4469  0.4040  0.6808
 1404TIP3    H125847   3.437   6.489   1.083 -1.1674 -2.1864  4.1743
 1404TIP3    H225848   3.449   6.363   0.999 -0.5992 -1.5231  3.2548
 1405TIP3   OH225849   2.426   4.206   8.622 -0.5435 -0.2715 -0.8747
 1405TIP3    H125850   2.506   4.157   8.607  0.1354  0.8395 -1.0185
 1405TIP3    H225851   2.391   4.171   8.704  0.9014  0.2526 -0.0027
 1406TIP3   OH225852   1.628   5.591   0.192  0.5110 -0.6356 -0.2078
 1406TIP3    H125853   1.548   5.597   0.140  0.7763  1.0473 -0.4895
 1406TIP3    H225854   1.624   5.505   0.234 -0.9825 -0.9473 -0.9456
 1407TIP3   OH225855   4.399   1.794   8.516  0.8537 -0.4194 -0.8539
 1407TIP3    H125856   4.467   1.860   8.533  0.2837  0.1866 -0.8824
 1407TIP3    H225857   4.448   1.713   8.499  1.5802  0.0860 -1.2442
 1408TIP3   OH225858   0.374   6.221   7.378 -0.5124  0.1402 -0.1328
 1408TIP3    H125859   0.401   6.200   7.467  0.3149 -1.1861 -0.6659
 1408TIP3    H225860   0.450   6.264   7.339 -0.8759  0.7305 -0.2063
 1409TIP3   OH225861   2.849   0.956   7.789 -0.6637 -0.0611 -0.7311
 1409TIP3    H125862   2.797   1.032   7.762 -2.8244 -0.5617  1.5812
 1409TIP3    H225863   2.916   0.991   7.847 -0.5889  0.2436 -1.0016
 1410TIP3   OH225864   6.606   3.480   2.096  0.3145  0.3972  0.0223
 1410TIP3    H125865   6.665   3.430   2.040  1.8863  0.7974  1.2468
 1410TIP3    H225866   6.646   3.566   2.103  0.5575  0.1785  2.2401
 1411TIP3   OH225867   5.504   3.980   1.317 -0.3081 -0.0321 -0.3834
 1411TIP3    H125868   5.428   4.037   1.330 -1.2618 -0.7732 -2.3249
 1411TIP3    H225869   5.514   3.974   1.222  1.5625 -0.7976 -0.1830
 1412TIP3   OH225870   0.257   2.191   8.536 -0.4146 -0.0532 -0.1705
 1412TIP3    H125871   0.321   2.215   8.468 -1.2376  0.8504 -0.6564
 1412TIP3    H225872   0.194   2.136   8.490 -1.4494  1.2564 -0.3975
 1413TIP3   OH225873   3.950   4.278   0.605  0.4862  0.2939  0.2920
 1413TIP3    H125874   3.908   4.307   0.686 -0.4353 -1.5595  0.5371
 1413TIP3    H225875   3.877   4.261   0.546  1.0966  0.4863 -0.5243
 1414TIP3   OH225876   5.840   3.394   6.818 -0.3400 -0.0653 -0.4290
 1414TIP3    H125877   5.789   3.323   6.778 -0.7669  0.3419 -0.6210
 1414TIP3    H225878   5.779   3.468   6.822 -0.8353 -0.4869  2.3343
 1415TIP3   OH225879   6.519   1.816   7.097  0.1973 -0.2097  0.2306
 1415TIP3    H125880   6.610   1.812   7.125  0.4667 -1.4510 -0.7663
 1415TIP3    H225881   6.472   1.758   7.157 -0.0741  0.9397  1.1634
 1416TIP3   OH225882   1.008   6.627   2.584 -0.7803 -0.0604  0.1616
 1416TIP3    H125883   1.009   6.568   2.660  0.9354  0.5125  0.6312
 1416TIP3    H225884   1.004   6.569   2.508  0.5074 -0.8049  0.6234
 1417TIP3   OH225885   3.277   6.330   8.232 -0.6584  0.3122  0.0545
 1417TIP3    H125886   3.349   6.267   8.234 -1.1708 -0.2995 -0.2800
 1417TIP3    H225887   3.319   6.415   8.244  0.0341 -0.0993  0.6331
 1418TIP3   OH225888   1.438   1.129   1.316  0.1921 -0.2593  0.2237
 1418TIP3    H125889   1.533   1.144   1.312  0.7464 -3.1672  0.2921
 1418TIP3    H225890   1.400   1.210   1.282  2.6193  1.4860  1.3425
 1419TIP3   OH225891   2.246   5.051   6.978 -0.3407  0.0081  0.4617
 1419TIP3    H125892   2.271   4.995   7.051 -1.0906  1.3925  1.8288
 1419TIP3    H225893   2.328   5.093   6.952 -0.2237  0.1998  1.1198
 1420TIP3   OH225894   0.407   2.892   8.771 -0.0865 -0.1055 -0.0665
 1420TIP3    H125895   0.359   2.848   8.701 -2.5454  0.5225  1.1001
 1420TIP3    H225896   0.430   2.978   8.734 -1.0359  0.0825 -0.2450
 1421TIP3   OH225897   3.301   4.190   7.645  0.5127 -0.4269  0.0774
 1421TIP3    H125898   3.245   4.253   7.690  1.3768  0.5167 -0.1210
 1421TIP3    H225899   3.243   4.117   7.622 -0.2972 -0.1388  1.1700
 1422TIP3   OH225900   2.464   4.999   2.422 -0.0425 -0.0156 -0.2364
 1422TIP3    H125901   2.370   5.010   2.407 -0.6169 -0.7820  2.2420
 1422TIP3    H225902   2.485   4.915   2.381 -0.5840 -0.1251 -0.2976
 1423TIP3   OH225903   3.327   1.930   7.468 -0.4370  0.5816  0.0881
 1423TIP3    H125904   3.371   2.001   7.422 -0.6221  1.4629  1.2146
 1423TIP3    H225905   3.234   1.945   7.453 -0.4383 -0.3013 -0.8937
 1424TIP3   OH225906   0.996   0.091   1.906  0.3127 -0.3647 -0.0120
 1424TIP3    H125907   1.036   0.020   1.856  0.6830  0.2967 -0.6726
 1424TIP3    H225908   1.004   0.063   1.998  3.3000  0.1678  0.0105
 1425TIP3   OH225909   3.463   5.808   7.362 -0.6070 -0.6881  0.3802
 1425TIP3    H125910   3.550   5.848   7.363 -1.3507  1.1586 -1.5314
 1425TIP3    H225911   3.472   5.730   7.417  2.4029 -0.9028 -0.2467
 1426TIP3   OH225912   1.035   5.581   7.293 -0.3211 -0.2254 -0.4203
 1426TIP3    H125913   0.988   5.531   7.360  0.0819 -1.0980 -0.7746
 1426TIP3    H225914   1.026   5.529   7.214 -0.4822  0.6214 -0.9701
 1427TIP3   OH225915   0.143   4.216   1.066  0.6485 -0.2941 -0.0223
 1427TIP3    H125916   0.221   4.201   1.014  0.7349  0.4051 -0.1050
 1427TIP3    H225917   0.163   4.295   1.117  1.2421 -1.8644  2.3607
 1428TIP3   OH225918   0.536   1.736   0.763 -0.8383 -0.1922 -0.0879
 1428TIP3    H125919   0.583   1.818   0.780  0.8320 -1.5288  2.3175
 1428TIP3    H225920   0.593   1.686   0.705 -1.0362 -0.3821 -0.1232
 1429TIP3   OH225921   1.343   2.038   7.235 -0.0216 -0.0050  0.4124
 1429TIP3    H125922   1.349   1.944   7.253 -1.0223 -0.2057 -0.2064
 1429TIP3    H225923   1.288   2.044   7.157 -0.6357  1.1290  0.8995
 1430TIP3   OH225924   0.181   3.276   7.574 -0.1297  0.3621  0.6951
 1430TIP3    H125925   0.140   3.250   7.656  0.4359  0.2483  0.9505
 1430TIP3    H225926   0.263   3.319   7.601 -0.2348  0.8730  0.2158
 1431TIP3   OH225927   5.380   3.800   0.821  0.0819 -0.6769  0.5028
 1431TIP3    H125928   5.475   3.806   0.838 -0.1205 -1.8706  2.3342
 1431TIP3    H225929   5.374   3.786   0.727  1.5812  1.9246 -0.1027
 1432TIP3   OH225930   0.849   5.671   1.179  0.5685 -0.0076  0.2375
 1432TIP3    H125931   0.821   5.609   1.112  0.0848  0.9428 -0.4574
 1432TIP3    H225932   0.936   5.640   1.206  0.2290 -1.1199  0.0931
 1433TIP3   OH225933   5.427   6.342   0.786  0.1250 -0.3561 -0.1826
 1433TIP3    H125934   5.463   6.276   0.727 -1.3317 -1.3369 -0.0186
 1433TIP3    H225935   5.340   6.362   0.751 -1.0467 -1.4384  1.9315
 1434TIP3   OH225936   5.938   6.314   0.524 -0.8212 -0.3130 -0.0382
 1434TIP3    H125937   5.902   6.334   0.438 -0.5033 -1.4419 -0.4557
 1434TIP3    H225938   6.008   6.378   0.537 -2.6240  1.6055  0.5846
 1435TIP3   OH225939   4.825   0.913   7.393  0.3864 -0.3587 -0.7457
 1435TIP3    H125940   4.871   0.845   7.441  0.8129  0.2633 -0.2457
 1435TIP3    H225941   4.748   0.932   7.447  0.1768 -0.5610 -0.9716
 1436TIP3   OH225942   1.874   0.865   8.371 -0.2537  0.6935 -0.3808
 1436TIP3    H125943   1.863   0.840   8.280 -0.9757  1.9799 -0.6716
 1436TIP3    H225944   1.948   0.813   8.401  1.3626  1.7280 -2.3072
 1437TIP3   OH225945   6.382   1.929   0.599 -0.7218 -0.1721 -0.1620
 1437TIP3    H125946   6.442   1.948   0.527 -1.7344  0.4316 -0.8796
 1437TIP3    H225947   6.417   1.978   0.673  0.7393 -1.3716 -0.0195
 1438TIP3   OH225948   4.953   3.311   1.939  0.4461 -0.6785 -0.2281
 1438TIP3    H125949   4.923   3.276   1.855 -1.1365  1.2081 -0.5158
 1438TIP3    H225950   4.944   3.406   1.931  3.1177 -0.2031  1.0441
 1439TIP3   OH225951   2.639   3.595   0.470  0.0760  0.3082 -0.1495
 1439TIP3    H125952   2.568   3.633   0.418  0.2664  0.3691 -0.3650
 1439TIP3    H225953   2.659   3.512   0.427 -0.5202 -0.1683  0.4747
 1440TIP3   OH225954   2.778   1.452   8.868 -0.2845  0.5338  0.4719
 1440TIP3    H125955   2.827   1.533   8.852  1.2633 -0.3498  0.5815
 1440TIP3    H225956   2.832   1.383   8.829 -1.4353 -0.4991  0.6363
 1441TIP3   OH225957   1.944   3.520   8.325 -0.9080 -0.3913  0.0281
 1441TIP3    H125958   1.983   3.600   8.290 -0.6672 -0.3749  0.3303
 1441TIP3    H225959   1.897   3.481   8.251 -1.4021  0.2628 -0.0061
 1442TIP3   OH225960   4.859   3.074   1.734 -0.0706  0.0029  0.1643
 1442TIP3    H125961   4.830   3.057   1.824  0.9848  0.8769  0.6901
 1442TIP3    H225962   4.816   3.006   1.682 -1.1864 -0.1430  1.2312
 1443TIP3   OH225963   5.159   4.049   1.594  0.4517 -0.1645 -0.3614
 1443TIP3    H125964   5.222   3.978   1.606  0.9620  0.2217 -0.6914
 1443TIP3    H225965   5.211   4.129   1.603 -0.0358  0.1635 -0.4100
 1444TIP3   OH225966   6.129   6.610   0.967 -0.0026  0.0975 -0.6669
 1444TIP3    H125967   6.181   6.633   1.044 -0.5122 -1.1356  0.0654
 1444TIP3    H225968   6.149   6.518   0.950  1.1905  0.6968 -2.8960
 1445TIP3   OH225969   5.680   5.372   0.193  0.2366 -0.2343 -0.1241
 1445TIP3    H125970   5.596   5.417   0.203  0.7873  0.7924 -0.0463
 1445TIP3    H225971   5.667   5.287   0.234 -1.8755 -1.5477 -3.1104
 1446TIP3   OH225972   3.877   1.829   1.908  0.5963 -0.4428 -0.3243
 1446TIP3    H125973   3.936   1.879   1.964 -0.2948  1.5262 -1.0513
 1446TIP3    H225974   3.791   1.868   1.924  0.2565 -0.0951 -2.7184
 1447TIP3   OH225975   2.359   1.549   1.359  0.5609 -0.5010 -0.1644
 1447TIP3    H125976   2.341   1.639   1.388 -0.9659 -1.2294  1.3234
 1447TIP3    H225977   2.334   1.495   1.434 -0.3242 -2.2949 -1.6792
 1448TIP3   OH225978   5.506   2.512   1.325  1.1517 -0.0099  0.0274
 1448TIP3    H125979   5.489   2.418   1.332  1.4785  0.0011  6.0292
 1448TIP3    H225980   5.601   2.520   1.338  1.1420  1.2013 -0.4957
 1449TIP3   OH225981   3.027   0.224   7.742 -0.3204 -0.5902  0.2201
 1449TIP3    H125982   3.066   0.264   7.820  0.9289  0.4338 -0.8684
 1449TIP3    H225983   3.078   0.260   7.669 -2.8114  0.2022 -1.2621
 1450TIP3   OH225984   0.519   4.156   7.094  0.5766 -0.3841  0.0770
 1450TIP3    H125985   0.574   4.091   7.138  0.0371 -2.1970 -1.7954
 1450TIP3    H225986   0.527   4.136   7.001 -2.6529 -0.2429 -0.3423
 1451TIP3   OH225987   3.572   1.347   1.180 -0.3049 -0.3163  0.1671
 1451TIP3    H125988   3.500   1.308   1.230 -0.2784 -0.0331  0.4227
 1451TIP3    H225989   3.619   1.401   1.243 -0.7643  0.7118 -0.3518
 1452TIP3   OH225990   2.564   2.830   7.465 -0.1965 -0.3472 -0.3135
 1452TIP3    H125991   2.545   2.736   7.467 -0.5088 -0.2782  0.1566
 1452TIP3    H225992   2.657   2.835   7.446 -0.4013 -0.7282 -1.5184
 1453TIP3   OH225993   1.686   1.024   7.988 -0.1294  0.0428 -0.0870
 1453TIP3    H125994   1.666   0.932   7.970  2.0252 -0.7546  1.1939
 1453TIP3    H225995   1.615   1.054   8.044 -1.5006 -0.4410 -1.5019
 1454TIP3   OH225996   0.598   0.368   7.887  0.2363  0.8706  0.0371
 1454TIP3    H125997   0.549   0.443   7.921 -0.1596  0.2414  0.8768
 1454TIP3    H225998   0.534   0.297   7.885  0.7987  0.3603 -0.0381
 1455TIP3   OH225999   6.342   0.267   0.479  0.6491  0.2780 -0.4975
 1455TIP3    H126000   6.387   0.286   0.561 -3.7389  1.1794  2.0173
 1455TIP3    H226001   6.354   0.173   0.467  1.0967  0.0525  1.4035
 1456TIP3   OH226002   0.017   2.910   7.630  0.2635  0.1882  0.5651
 1456TIP3    H126003  -0.052   2.904   7.564  0.8914 -3.3573  0.0250
 1456TIP3    H226004  -0.030   2.913   7.714 -0.6048 -0.5535  0.1313
 1457TIP3   OH226005   0.912   2.715   2.826  0.0440  0.0093 -0.0052
 1457TIP3    H126006   0.967   2.722   2.905  0.4681  0.2385 -0.3169
 1457TIP3    H226007   0.949   2.642   2.777 -0.8461 -0.7924  0.4830
 1458TIP3   OH226008   3.808   2.147   8.901  0.1311  0.1686 -0.3544
 1458TIP3    H126009   3.719   2.115   8.893 -0.1082  0.4985  0.7805
 1458TIP3    H226010   3.851   2.084   8.959  1.6959 -2.0000 -3.5314
 1459TIP3   OH226011   6.586   6.026   0.639 -1.1848  0.8422  0.0931
 1459TIP3    H126012   6.613   6.098   0.696 -0.4563  1.7502 -1.3416
 1459TIP3    H226013   6.636   6.039   0.559 -0.8309 -1.4290 -0.1207
 1460TIP3   OH226014   4.245   2.360   1.051 -0.7752 -0.2517 -0.5113
 1460TIP3    H126015   4.166   2.311   1.027 -0.0779 -1.2887 -0.7791
 1460TIP3    H226016   4.289   2.303   1.113  0.1243 -0.0119 -0.9236
 1461TIP3   OH226017   6.572   6.303   7.982  0.0750  0.6759  0.2783
 1461TIP3    H126018   6.576   6.366   7.910 -0.9811  0.2642 -0.1655
 1461TIP3    H226019   6.482   6.311   8.015 -0.6460 -1.8170 -0.9084
 1462TIP3   OH226020   0.503   3.589   7.393  0.3081 -0.3743  0.5575
 1462TIP3    H126021   0.417   3.559   7.421  0.2228 -0.5443  0.1258
 1462TIP3    H226022   0.540   3.634   7.469 -0.6139  0.6592  0.4140
 1463TIP3   OH226023   0.072   4.324   7.101  0.1058  0.0194  0.5165
 1463TIP3    H126024   0.007   4.385   7.137 -1.1582 -0.9182 -0.0959
 1463TIP3    H226025   0.023   4.271   7.038  1.8773  0.5174 -1.3909
 1464TIP3   OH226026   6.248   1.446   8.038  0.2437 -0.0693  0.1551
 1464TIP3    H126027   6.265   1.521   8.095 -0.4438  0.4419 -0.2941
 1464TIP3    H226028   6.275   1.370   8.090  2.1558  0.5497  0.1443
 1465TIP3   OH226029   3.896   0.384   1.227 -0.0336  0.5872  0.0879
 1465TIP3    H126030   3.881   0.289   1.230  3.2264 -0.1809 -2.5015
 1465TIP3    H226031   3.972   0.398   1.285 -1.8695  2.1299  2.3305
 1466TIP3   OH226032   1.570   5.916   8.371  0.3181 -0.2368  0.1876
 1466TIP3    H126033   1.598   5.911   8.463  2.4418 -1.7527 -0.4631
 1466TIP3    H226034   1.641   5.962   8.327 -0.4321  0.0001 -0.8074
 1467TIP3   OH226035   6.715   3.130   0.203  0.0811  0.7906 -0.7114
 1467TIP3    H126036   6.627   3.149   0.235  0.4595 -0.5412  1.3285
 1467TIP3    H226037   6.701   3.082   0.121 -1.0687  0.8462 -0.5657
 1468TIP3   OH226038   4.682   2.872   1.654  0.0155 -0.2099 -0.3125
 1468TIP3    H126039   4.622   2.875   1.579 -1.3041 -0.2910  0.7053
 1468TIP3    H226040   4.703   2.779   1.664  0.3219 -0.1812 -0.6721
 1469TIP3   OH226041   5.557   1.019   9.031 -0.0642  0.0266  0.1835
 1469TIP3    H126042   5.524   1.006   8.942  0.7583  1.1057 -0.3033
 1469TIP3    H226043   5.484   1.060   9.078 -0.1474  0.4281 -0.2893
 1470TIP3   OH226044   5.221   5.226   0.707  0.0634 -0.2075  0.7010
 1470TIP3    H126045   5.268   5.286   0.765 -0.8153  1.2149  0.0118
 1470TIP3    H226046   5.133   5.220   0.745 -0.7217  1.2373 -0.7408
 1471TIP3   OH226047   6.172   4.562   6.581 -0.0686 -0.0819 -0.4169
 1471TIP3    H126048   6.083   4.558   6.546  0.3473 -1.0875 -1.4337
 1471TIP3    H226049   6.183   4.652   6.609 -0.1554  1.0800 -3.6850
 1472TIP3   OH226050   1.567   0.835   8.644  0.4127  0.0067  1.1571
 1472TIP3    H126051   1.609   0.818   8.729  1.9543  0.6443  0.5585
 1472TIP3    H226052   1.506   0.763   8.633  0.2500 -0.1460  2.7635
 1473TIP3   OH226053   0.176   0.029   7.840  0.3082  0.4936  0.0251
 1473TIP3    H126054   0.146  -0.056   7.873  1.1325  0.0055 -0.4533
 1473TIP3    H226055   0.105   0.059   7.784  0.9797 -1.0228 -1.7445
 1474TIP3   OH226056   2.906   3.684   0.444 -0.2646 -0.3188 -0.2546
 1474TIP3    H126057   2.824   3.635   0.440  0.1441 -0.9453 -1.7083
 1474TIP3    H226058   2.904   3.740   0.366 -0.9372  2.4369  1.5830
 1475TIP3   OH226059   6.572   4.683   8.726 -0.8820 -0.0272 -0.0794
 1475TIP3    H126060   6.596   4.599   8.765 -0.8643  0.0698  0.1162
 1475TIP3    H226061   6.519   4.726   8.793 -0.3358  0.3994  0.0832
 1476TIP3   OH226062   0.180   2.877   8.594 -0.2571 -1.1161  0.4885
 1476TIP3    H126063   0.111   2.937   8.621 -0.1623 -1.0678  0.6287
 1476TIP3    H226064   0.161   2.796   8.640 -0.0707 -1.0202  0.7401
 1477TIP3   OH226065   0.815   4.906   0.039 -0.6733 -0.2502 -0.0975
 1477TIP3    H126066   0.769   4.902   0.122 -0.2809 -0.5024  0.1149
 1477TIP3    H226067   0.839   4.998   0.028  0.2000 -0.3875  0.5892
 1478TIP3   OH226068   0.967   2.151   1.517  0.0116 -0.2376  0.5623
 1478TIP3    H126069   0.873   2.168   1.523  0.2026  0.8677  0.6750
 1478TIP3    H226070   0.994   2.197   1.438  0.7491  0.9121  1.4541
 1479TIP3   OH226071   3.209   2.190   7.675  0.2182  0.0216 -0.0677
 1479TIP3    H126072   3.192   2.202   7.582  0.7685 -1.3825 -0.3650
 1479TIP3    H226073   3.168   2.107   7.697 -2.1666  1.5325  1.5759
 1480TIP3   OH226074   2.903   4.298   6.607 -0.0265 -0.4284 -0.1161
 1480TIP3    H126075   2.971   4.317   6.673  1.6216 -2.1156 -1.2217
 1480TIP3    H226076   2.918   4.206   6.584 -0.0187  0.2792 -3.3804
 1481TIP3   OH226077   1.044   3.961   8.299 -0.5780 -0.4310 -0.1312
 1481TIP3    H126078   1.013   3.871   8.308  0.3541 -0.6505  1.2276
 1481TIP3    H226079   1.129   3.954   8.255 -0.0031 -0.3337  0.9302
 1482TIP3   OH226080   1.582   0.533   2.448 -0.8154  0.1762 -0.1641
 1482TIP3    H126081   1.576   0.609   2.505 -2.7511  2.0460 -2.6306
 1482TIP3    H226082   1.494   0.494   2.451 -0.1888 -1.3059  0.1138
 1483TIP3   OH226083   2.294   4.319   7.324  0.1389  0.1001 -0.4993
 1483TIP3    H126084   2.252   4.375   7.258 -1.1094 -1.7998 -1.3824
 1483TIP3    H226085   2.269   4.359   7.408  0.4909  1.6721 -1.0937
 1484TIP3   OH226086   1.741   3.437   7.825 -0.3260  0.0652  0.0679
 1484TIP3    H126087   1.652   3.411   7.849 -0.4969  0.2473 -0.3609
 1484TIP3    H226088   1.736   3.458   7.732  1.2985 -4.9973 -1.4431
 1485TIP3   OH226089   0.045   0.414   2.124 -0.1585 -0.5002 -0.9328
 1485TIP3    H126090   0.133   0.428   2.158 -0.7922 -1.2225  1.1043
 1485TIP3    H226091   0.009   0.503   2.116 -0.2521 -0.3296  1.0556
 1486TIP3   OH226092   2.321   0.604   7.362 -0.4349 -0.7046 -0.1812
 1486TIP3    H126093   2.275   0.677   7.322 -0.4673 -0.0320  1.0261
 1486TIP3    H226094   2.339   0.544   7.289  0.0831  0.7508 -1.3075
 1487TIP3   OH226095   2.553   5.237   8.499  0.9760  0.1865 -0.6826
 1487TIP3    H126096   2.601   5.167   8.544 -1.1644 -1.0004 -0.1467
 1487TIP3    H226097   2.565   5.313   8.555  0.4527 -0.6493  0.6139
 1488TIP3   OH226098   2.728   6.324   1.638  0.1509 -0.0118 -0.2101
 1488TIP3    H126099   2.821   6.311   1.617 -0.3138  0.3767 -2.8614
 1488TIP3    H226100   2.683   6.260   1.583 -1.1795 -0.5263  1.4033
 1489TIP3   OH226101   3.851   1.169   8.160  0.1716  0.0857 -0.7327
 1489TIP3    H126102   3.806   1.145   8.079  0.7334 -0.5250 -0.8781
 1489TIP3    H226103   3.918   1.101   8.171  1.6077  1.3879 -0.9704
 1490TIP3   OH226104   0.632   3.694   8.822 -0.2613 -0.2408  0.0290
 1490TIP3    H126105   0.718   3.687   8.862 -0.3706 -0.1635  0.2785
 1490TIP3    H226106   0.586   3.761   8.873 -0.2771  0.1197 -0.4496
 1491TIP3   OH226107   2.397   4.350   6.327  0.2373 -0.1152 -0.3355
 1491TIP3    H126108   2.483   4.313   6.344 -0.3431 -1.1583  0.4706
 1491TIP3    H226109   2.408   4.444   6.336  0.8684 -0.3517  1.8413
 1492TIP3   OH226110   5.434   2.547   8.794 -0.0788  0.4219 -0.4800
 1492TIP3    H126111   5.446   2.574   8.885 -0.2772  2.4472 -1.0133
 1492TIP3    H226112   5.349   2.503   8.793 -0.2578  0.7417  0.2350
 1493TIP3   OH226113   3.102   4.487   1.206 -0.2620 -0.0552  0.0246
 1493TIP3    H126114   3.062   4.531   1.131  0.2164  0.0912 -0.1453
 1493TIP3    H226115   3.037   4.495   1.276 -0.8210 -0.4202 -0.4469
 1494TIP3   OH226116   1.195   3.765   8.021  0.2865 -0.3961  0.2458
 1494TIP3    H126117   1.124   3.829   8.022  3.2404  3.2242  2.1713
 1494TIP3    H226118   1.263   3.804   7.967  2.0540 -2.2087  1.0052
 1495TIP3   OH226119   1.907   5.378   0.398 -0.0266 -0.2129 -0.4898
 1495TIP3    H126120   1.914   5.471   0.422  0.9973 -0.9074  2.2602
 1495TIP3    H226121   1.996   5.351   0.379 -0.2685 -0.7209 -0.9221
 1496TIP3   OH226122   3.556   1.024   8.515  0.0999  0.8416 -0.0425
 1496TIP3    H126123   3.483   1.081   8.491  0.1723  0.9012 -0.1212
 1496TIP3    H226124   3.630   1.057   8.464  0.0842  0.5303 -0.2678
 1497TIP3   OH226125   2.339   0.113   0.653 -0.0110 -0.3438 -0.3497
 1497TIP3    H126126   2.340   0.054   0.577  0.3866 -0.5396 -0.1972
 1497TIP3    H226127   2.383   0.192   0.622 -0.8142 -0.0019 -0.6463
 1498TIP3   OH226128   1.752   5.228   6.963 -0.2932 -0.0926  0.1236
 1498TIP3    H126129   1.658   5.214   6.949 -0.5119  1.5726 -0.2206
 1498TIP3    H226130   1.764   5.216   7.057 -0.8080 -0.5264  0.1389
 1499TIP3   OH226131   3.724   4.264   7.577 -0.2633  0.0967 -0.1762
 1499TIP3    H126132   3.798   4.231   7.628  0.2186  2.3514  0.7244
 1499TIP3    H226133   3.747   4.245   7.487  1.6800  1.1152  0.0443
 1500TIP3   OH226134   4.050   0.686   0.466 -0.1266 -0.2533 -0.9446
 1500TIP3    H126135   4.049   0.624   0.539  0.7222 -0.4615 -1.0931
 1500TIP3    H226136   4.080   0.635   0.391 -2.6316 -0.4531 -1.8816
 1501TIP3   OH226137   5.762   4.314   1.238 -0.0659  0.0022  0.0135
 1501TIP3    H126138   5.784   4.237   1.291  0.5578  0.0704 -0.1400
 1501TIP3    H226139   5.789   4.389   1.291  0.1124  0.0854 -0.1914
 1502TIP3   OH226140   1.602   6.246   8.938 -0.0074  0.0311 -0.5390
 1502TIP3    H126141   1.570   6.193   9.011  1.1095  1.3705  1.0109
 1502TIP3    H226142   1.687   6.209   8.916 -0.4649 -0.5531 -1.4165
 1503TIP3   OH226143   4.027   3.949   7.091  0.2850  0.1983 -0.2365
 1503TIP3    H126144   3.972   4.027   7.086 -0.6476 -0.4976 -1.5332
 1503TIP3    H226145   3.985   3.895   7.158 -1.3312 -0.7973 -1.9525
 1504TIP3   OH226146   1.692   2.932   2.180 -0.1253  0.8331  0.1590
 1504TIP3    H126147   1.712   2.924   2.273  0.1340  0.5677  0.0844
 1504TIP3    H226148   1.598   2.918   2.174 -0.0939  0.5243  0.3496
 1505TIP3   OH226149   3.755   0.598   8.864  0.0437  0.3460 -0.1284
 1505TIP3    H126150   3.819   0.668   8.856  1.5843 -1.0521 -0.6873
 1505TIP3    H226151   3.683   0.624   8.806 -0.5261  2.5342  1.4554
 1506TIP3   OH226152   1.995   1.806   8.979  0.1054 -0.0801 -0.4245
 1506TIP3    H126153   2.018   1.872   9.044  0.0968 -0.8312  0.3698
 1506TIP3    H226154   2.028   1.724   9.015  1.2871 -0.3434 -2.0126
 1507TIP3   OH226155   2.851   5.515   7.269 -0.4249 -0.1930 -0.0729
 1507TIP3    H126156   2.924   5.562   7.230 -0.7718 -0.6776 -1.3552
 1507TIP3    H226157   2.884   5.486   7.354  0.2661  1.1070  0.1310
 1508TIP3   OH226158   0.729   0.303   1.342 -0.1910  0.4739  0.5967
 1508TIP3    H126159   0.785   0.368   1.300 -2.3135  2.5311  0.7183
 1508TIP3    H226160   0.687   0.256   1.269  0.9339 -0.4450  0.5101
 1509TIP3   OH226161   3.037   2.033   0.882 -0.0010 -0.5374  0.0018
 1509TIP3    H126162   3.015   1.990   0.964  0.6377 -0.3951  0.2563
 1509TIP3    H226163   2.963   2.015   0.824 -1.0560  0.3981  0.9976
 1510TIP3   OH226164   3.739   5.472   7.974 -0.0272  0.5561  0.8024
 1510TIP3    H126165   3.675   5.422   8.024  0.8939 -2.4766 -0.7712
 1510TIP3    H226166   3.686   5.531   7.920 -1.6518 -2.0293 -0.6443
 1511TIP3   OH226167   2.503   3.727   0.974  0.0394  0.1640 -0.2063
 1511TIP3    H126168   2.528   3.816   0.999 -2.1349  1.2925 -1.7187
 1511TIP3    H226169   2.509   3.727   0.878 -1.3948 -0.8386 -0.3265
 1512TIP3   OH226170   5.224   6.182   7.936  0.5809  0.3940 -0.3366
 1512TIP3    H126171   5.193   6.171   8.026  1.4569  1.0053  0.0551
 1512TIP3    H226172   5.235   6.093   7.903 -0.6708  0.1568 -0.1919
 1513TIP3   OH226173   5.045   4.051   8.030 -0.5822  0.1976 -0.3284
 1513TIP3    H126174   4.956   4.045   8.065 -0.7660 -0.7764 -0.9285
 1513TIP3    H226175   5.079   4.133   8.066 -1.4877  0.2591  0.4336
 1514TIP3   OH226176   0.315   1.652   8.867 -0.2971  0.9562 -0.7456
 1514TIP3    H126177   0.244   1.707   8.900 -0.4091  0.4289 -0.0607
 1514TIP3    H226178   0.294   1.637   8.775 -0.4903  1.6933 -0.8252
 1515TIP3   OH226179   4.297   3.279   2.031  0.1693  0.0358 -0.1061
 1515TIP3    H126180   4.392   3.283   2.038  0.3276 -0.5037 -1.6355
 1515TIP3    H226181   4.276   3.328   1.951 -0.8006 -0.2011 -0.0119
 1516TIP3   OH226182   1.260   5.396   0.882  0.3721 -0.2246 -0.0628
 1516TIP3    H126183   1.276   5.366   0.793  1.2125 -0.4627  0.1587
 1516TIP3    H226184   1.267   5.491   0.877 -2.4178  0.0515 -0.7907
 1517TIP3   OH226185   2.419   5.182   0.736  0.3306  0.2050  0.2595
 1517TIP3    H126186   2.427   5.262   0.788  0.5344 -0.4159  1.2184
 1517TIP3    H226187   2.490   5.189   0.672  1.9142 -0.2739  1.8574
 1518TIP3   OH226188   1.035   5.159   0.720  0.2344  0.0402 -0.8174
 1518TIP3    H126189   0.940   5.159   0.711  0.0697 -2.8587 -0.0774
 1518TIP3    H226190   1.050   5.164   0.815  0.7177 -1.1519 -0.8142
 1519TIP3   OH226191   3.928   4.065   1.742 -0.1825 -0.0552 -0.8400
 1519TIP3    H126192   3.922   4.120   1.820 -0.6247 -1.2851  0.0329
 1519TIP3    H226193   3.992   3.998   1.765 -1.1812 -1.1270 -1.0707
 1520TIP3   OH226194   6.314   3.534   1.875 -0.0072  0.4075 -0.0974
 1520TIP3    H126195   6.222   3.516   1.854  0.1418  0.5360 -0.8976
 1520TIP3    H226196   6.326   3.495   1.961 -0.6352 -0.2204 -0.2769
 1521TIP3   OH226197   2.071   5.858   6.540  0.2729 -0.2693 -0.0704
 1521TIP3    H126198   2.144   5.825   6.487  0.3424  0.8363 -0.7068
 1521TIP3    H226199   2.062   5.795   6.612  0.7696 -1.3131 -0.8993
 1522TIP3   OH226200   0.628   0.730   0.918 -0.0012  0.3520 -0.3238
 1522TIP3    H126201   0.548   0.682   0.937  0.9276 -1.2411 -0.2821
 1522TIP3    H226202   0.636   0.728   0.823 -0.1426  0.7555 -0.3477
 1523TIP3   OH226203   5.916   3.832   8.174  0.0137  0.1421 -0.0780
 1523TIP3    H126204   5.862   3.812   8.097  1.6927 -2.4356 -0.6896
 1523TIP3    H226205   5.984   3.891   8.140 -1.1310  1.7327  0.2524
 1524TIP3   OH226206   5.746   4.234   0.837 -0.2788  0.1281  0.0618
 1524TIP3    H126207   5.651   4.229   0.833 -0.3071  1.3094 -1.3937
 1524TIP3    H226208   5.774   4.239   0.746  1.3672 -2.5740  0.3206
 1525TIP3   OH226209   5.328   1.229   1.586  0.0692  0.3182  0.0896
 1525TIP3    H126210   5.393   1.300   1.593 -0.7286  0.9259  2.5169
 1525TIP3    H226211   5.376   1.151   1.612  0.1317  0.5826  0.8010
 1526TIP3   OH226212   2.345   6.472   8.217 -0.3567 -0.2207  0.0561
 1526TIP3    H126213   2.377   6.554   8.253  1.1064 -0.3944 -0.7525
 1526TIP3    H226214   2.410   6.407   8.243 -1.3682 -1.0912  0.4868
 1527TIP3   OH226215   6.406   5.703   7.077  0.2424 -0.3007  0.0255
 1527TIP3    H126216   6.452   5.741   7.002  1.3007 -1.3915  0.0887
 1527TIP3    H226217   6.315   5.697   7.049  0.5969 -0.5226 -1.1090
 1528TIP3   OH226218   6.375   4.530   8.464  0.3165 -0.2882  0.1525
 1528TIP3    H126219   6.293   4.575   8.481 -0.7030 -1.2905 -1.8362
 1528TIP3    H226220   6.385   4.469   8.538  0.4837  1.3976  1.5868
 1529TIP3   OH226221   2.405   0.181   8.209  0.1651 -0.3828 -0.3872
 1529TIP3    H126222   2.416   0.097   8.253  0.5939 -1.3524 -2.2433
 1529TIP3    H226223   2.343   0.163   8.139 -0.9086  1.2372  0.0947
 1530TIP3   OH226224   4.252   0.184   9.023 -0.2861  0.3000  0.2675
 1530TIP3    H126225   4.302   0.265   9.026 -0.7502  0.5817  0.5812
 1530TIP3    H226226   4.163   0.209   9.048 -0.8144 -0.0299 -1.1741
 1531TIP3   OH226227   0.117   6.239   0.571 -0.2229 -0.5023  0.3069
 1531TIP3    H126228   0.204   6.205   0.593  0.0603 -0.3894 -0.6025
 1531TIP3    H226229   0.113   6.324   0.614  1.4586  1.0367 -2.3566
 1532TIP3   OH226230   6.382   4.209   0.673  0.1188  0.1672  0.0046
 1532TIP3    H126231   6.362   4.155   0.597 -1.3642  0.5027  0.1259
 1532TIP3    H226232   6.433   4.152   0.730 -0.0968 -0.5902 -0.5386
 1533TIP3   OH226233   2.636   0.654   7.757  0.0376  0.7044 -0.0436
 1533TIP3    H126234   2.547   0.683   7.738  0.6727  1.8864 -1.4272
 1533TIP3    H226235   2.654   0.688   7.845 -0.8276  0.5343  0.2096
 1534TIP3   OH226236   6.667   0.119   7.725  0.0185 -0.1677 -0.2961
 1534TIP3    H126237   6.661   0.098   7.632 -0.2995  1.2881 -0.6262
 1534TIP3    H226238   6.576   0.129   7.753  0.1443  1.1535 -0.2755
 1535TIP3   OH226239   4.052   6.402   1.648 -0.1776  0.3735 -0.1517
 1535TIP3    H126240   3.986   6.396   1.579  0.3095  0.8744 -0.6727
 1535TIP3    H226241   4.022   6.341   1.716 -1.6257  1.2140  0.0046
 1536TIP3   OH226242   6.113   3.836   7.360  0.3655  0.0127 -0.0125
 1536TIP3    H126243   6.148   3.866   7.276  0.9660  0.0153  0.2340
 1536TIP3    H226244   6.097   3.743   7.348  0.1462  0.0802 -0.2346
 1537TIP3   OH226245   0.726   3.901   8.541 -0.3035 -0.3708 -0.0472
 1537TIP3    H126246   0.735   3.861   8.627 -1.0353 -0.0566  0.1869
 1537TIP3    H226247   0.640   3.944   8.543  0.3975  1.1337 -0.3185
 1538TIP3   OH226248   6.143   5.883   7.747 -0.1414  0.6027  0.1926
 1538TIP3    H126249   6.180   5.800   7.778  1.4107  1.3546  0.4253
 1538TIP3    H226250   6.064   5.894   7.800 -0.4029 -0.7431  0.1223
 1539TIP3   OH226251   0.402   6.649   7.341 -0.0321 -0.1793  0.3535
 1539TIP3    H126252   0.384   6.576   7.283 -0.7622 -0.4399  0.8937
 1539TIP3    H226253   0.448   6.712   7.287 -1.4214 -0.0526 -0.7257
 1540TIP3   OH226254   3.013   6.265   1.557  0.6738  0.0389  0.0696
 1540TIP3    H126255   3.009   6.182   1.603 -0.3941 -0.0687 -0.2089
 1540TIP3    H226256   3.024   6.330   1.626  2.0805 -0.3579  0.2498
 1541TIP3   OH226257   5.151   3.678   6.555 -0.3110 -0.2955 -0.4532
 1541TIP3    H126258   5.163   3.649   6.464 -0.5586 -0.1182 -0.5448
 1541TIP3    H226259   5.089   3.616   6.592 -2.8915  1.5317 -1.4014
 1542TIP3   OH226260   4.207   6.513   2.571  0.3807 -0.2653  0.1259
 1542TIP3    H126261   4.192   6.442   2.508 -0.6613 -1.8413  2.0687
 1542TIP3    H226262   4.124   6.561   2.574  0.6096  0.1544 -0.0843
 1543TIP3   OH226263   0.884   4.750   0.374 -0.3729  0.2457 -0.4109
 1543TIP3    H126264   0.846   4.832   0.341 -1.5897 -0.4617 -0.8031
 1543TIP3    H226265   0.978   4.769   0.381 -0.9331  2.6179  2.3172
 1544TIP3   OH226266   5.548   3.719   1.727 -0.1475 -0.4010 -0.1079
 1544TIP3    H126267   5.456   3.726   1.699 -0.4961 -0.9654  0.8399
 1544TIP3    H226268   5.562   3.625   1.739  0.2057 -0.2344  0.8487
 1545TIP3   OH226269   3.112   6.623   7.273 -0.4276  0.1307 -0.1170
 1545TIP3    H126270   3.090   6.716   7.265  1.2147  0.6047  0.5573
 1545TIP3    H226271   3.120   6.592   7.182 -2.1325  0.3063 -0.3773
 1546TIP3   OH226272   5.509   1.954   0.350 -0.5561 -0.0563  0.1228
 1546TIP3    H126273   5.491   2.030   0.294  0.2214 -0.6447 -0.9672
 1546TIP3    H226274   5.602   1.937   0.338 -0.7445 -1.2567  0.2606
 1547TIP3   OH226275   0.246   3.048   8.021  0.7542 -0.2851 -0.2395
 1547TIP3    H126276   0.164   3.041   8.070  1.1034  1.3888  0.6844
 1547TIP3    H226277   0.291   2.965   8.037 -0.3368 -0.8425  0.0278
 1548TIP3   OH226278   5.124   4.164   7.536  0.6594 -0.4905 -0.6692
 1548TIP3    H126279   5.069   4.160   7.458  1.1791  1.1693 -1.1555
 1548TIP3    H226280   5.201   4.112   7.515  0.6617 -0.2953 -1.1418
 1549TIP3   OH226281   2.383   4.229   0.445  0.0834 -0.3654 -0.4871
 1549TIP3    H126282   2.460   4.181   0.414  2.4056  1.5894  1.7435
 1549TIP3    H226283   2.385   4.312   0.396  1.2388  0.9014  1.5252
 1550TIP3   OH226284   2.697   2.507   1.573  0.1546 -0.0006  0.0387
 1550TIP3    H126285   2.741   2.575   1.523 -0.5271 -0.1314 -0.7673
 1550TIP3    H226286   2.693   2.432   1.514 -0.9444 -0.0557  0.1506
 1551TIP3   OH226287   5.589   1.979   7.960  0.3826 -0.1780 -0.2748
 1551TIP3    H126288   5.550   1.894   7.979  2.5210 -1.1420  0.1032
 1551TIP3    H226289   5.598   1.980   7.865 -0.6532  0.1310 -0.3848
 1552TIP3   OH226290   5.431   1.642   6.774 -0.4669  0.5492 -0.3377
 1552TIP3    H126291   5.470   1.725   6.745 -1.7558  1.0016 -0.8468
 1552TIP3    H226292   5.475   1.575   6.722 -0.1368  1.0142 -0.6602
 1553TIP3   OH226293   4.954   0.426   0.629 -0.7993 -0.3805 -0.1828
 1553TIP3    H126294   4.974   0.481   0.704 -2.5275 -0.6462  0.5318
 1553TIP3    H226295   4.963   0.483   0.553  1.8106 -0.3226  0.0982
 1554TIP3   OH226296   0.371   3.986   0.469  0.6547  0.2975 -0.1695
 1554TIP3    H126297   0.327   4.053   0.417  0.7369  1.0696  0.7318
 1554TIP3    H226298   0.316   3.976   0.547  2.4348  1.8343  1.3439
 1555TIP3   OH226299   1.657   6.678   7.908 -0.9621  0.6877  0.4638
 1555TIP3    H126300   1.635   6.755   7.961 -0.2120  1.3503 -0.1638
 1555TIP3    H226301   1.751   6.669   7.916 -0.9098  0.4632 -0.2938
 1556TIP3   OH226302   1.402   5.837   0.211  0.0565  0.2465 -0.0220
 1556TIP3    H126303   1.402   5.908   0.275 -1.5207 -0.1327  0.4430
 1556TIP3    H226304   1.332   5.860   0.150  0.1743 -0.4256 -0.4195
 1557TIP3   OH226305   4.527   3.346   8.641 -0.1548  0.0323 -0.2993
 1557TIP3    H126306   4.561   3.315   8.725 -0.3839  0.1676 -0.1558
 1557TIP3    H226307   4.468   3.277   8.613 -2.4065  1.2897  1.0908
 1558TIP3   OH226308   6.010   0.917   8.803  0.0515 -0.1421  0.1615
 1558TIP3    H126309   5.977   0.986   8.746  0.0307 -1.7167 -1.8935
 1558TIP3    H226310   5.960   0.839   8.778  2.0693 -1.5530  0.2399
 1559TIP3   OH226311   1.383   0.991   7.642 -0.5718 -0.6677 -0.2172
 1559TIP3    H126312   1.361   1.083   7.658  1.0585 -0.1520 -0.8105
 1559TIP3    H226313   1.372   0.949   7.727  0.2910  0.4187  0.4470
 1560TIP3   OH226314   1.591   0.468   8.622 -1.0763  0.2669  0.7127
 1560TIP3    H126315   1.515   0.526   8.619 -1.4704 -0.2937 -0.8468
 1560TIP3    H226316   1.666   0.528   8.628 -1.5400  0.8870  0.3980
 1561TIP3   OH226317   4.827   3.369   7.323  0.1142  0.5361  0.4998
 1561TIP3    H126318   4.878   3.295   7.354 -2.1841 -0.7418  1.4238
 1561TIP3    H226319   4.805   3.347   7.233  0.3358  0.6267  0.4218
 1562TIP3   OH226320   5.890   4.460   1.036 -0.1651  0.1261 -0.0418
 1562TIP3    H126321   5.980   4.453   1.069  0.8151  1.3190 -2.2180
 1562TIP3    H226322   5.845   4.383   1.072  1.2235  0.3586  2.4599
 1563TIP3   OH226323   6.534   1.307   1.292  0.4743  0.2144 -0.1156
 1563TIP3    H126324   6.565   1.383   1.243 -0.0493  1.4616  1.4081
 1563TIP3    H226325   6.589   1.303   1.370  1.0129 -1.4727 -0.5383
 1564TIP3   OH226326   6.357   1.696   1.650 -0.8706 -0.1505  0.1144
 1564TIP3    H126327   6.322   1.619   1.696  0.8316 -1.1240 -0.1073
 1564TIP3    H226328   6.380   1.757   1.721 -1.3982 -0.2217  0.3513
 1565TIP3   OH226329   0.048   3.724   0.581  0.2202  0.3414 -0.2539
 1565TIP3    H126330   0.134   3.698   0.616  1.0204  1.8023 -1.0406
 1565TIP3    H226331   0.050   3.694   0.490 -1.4490 -2.5196  0.5074
 1566TIP3   OH226332   2.591   6.523   0.289  0.7152 -0.3333  0.3242
 1566TIP3    H126333   2.527   6.519   0.361 -0.1999  0.1885 -0.4451
 1566TIP3    H226334   2.570   6.448   0.234 -0.6658  1.0050 -1.0744
 1567TIP3   OH226335   0.710   0.509   0.424  0.2109 -0.6691 -0.2092
 1567TIP3    H126336   0.738   0.444   0.488 -0.7547 -0.2320  0.6864
 1567TIP3    H226337   0.687   0.586   0.476  1.0142  0.2986 -1.2239
 1568TIP3   OH226338   6.616   6.721   7.024  0.3335  0.0711  0.1937
 1568TIP3    H126339   6.685   6.683   6.969  0.9757  1.0695  0.2767
 1568TIP3    H226340   6.553   6.650   7.037  0.7592 -0.5155 -0.8586
 1569TIP3   OH226341   4.455   5.391   8.218 -0.1060 -0.0256 -1.0162
 1569TIP3    H126342   4.478   5.472   8.262  0.4816  0.6310 -2.4739
 1569TIP3    H226343   4.383   5.415   8.159 -0.6005 -0.7912 -0.7461
 1570TIP3   OH226344   4.274   0.258   8.247  0.2054 -0.0123  0.4381
 1570TIP3    H126345   4.356   0.210   8.261  0.8017  0.6377 -0.6676
 1570TIP3    H226346   4.292   0.345   8.281  0.0436  0.1890  0.0096
 1571TIP3   OH226347   0.629   4.112   0.206  0.1648 -0.0933  0.4449
 1571TIP3    H126348   0.616   4.206   0.217 -0.5965 -0.2726  1.2317
 1571TIP3    H226349   0.546   4.073   0.233  0.9765 -1.0743  1.6740
 1572TIP3   OH226350   3.829   0.326   0.746  0.0616 -0.1338  0.1008
 1572TIP3    H126351   3.753   0.347   0.691 -0.7127 -1.4337  0.6324
 1572TIP3    H226352   3.888   0.278   0.688  0.6932  1.2344 -0.4273
 1573TIP3   OH226353   1.269   2.531   0.087 -0.2944 -0.0382  0.0618
 1573TIP3    H126354   1.256   2.601   0.023 -1.0081 -0.4699 -0.2746
 1573TIP3    H226355   1.359   2.500   0.072 -0.1398  0.4813 -0.0986
 1574TIP3   OH226356   2.533   0.993   6.761 -0.4129 -0.0756 -0.8500
 1574TIP3    H126357   2.541   1.033   6.847 -2.3702  1.0401 -1.1387
 1574TIP3    H226358   2.609   1.025   6.712  0.1635  0.0861  0.1335
 1575TIP3   OH226359   4.693   3.775   8.853 -1.0897 -0.0835 -0.5238
 1575TIP3    H126360   4.627   3.843   8.844 -0.4218  0.5748 -0.5418
 1575TIP3    H226361   4.678   3.717   8.778 -0.9969  0.6268 -1.1022
 1576TIP3   OH226362   2.182   0.179   8.447 -0.2748 -0.4605  0.2743
 1576TIP3    H126363   2.163   0.091   8.481  0.0351 -0.5496  0.2219
 1576TIP3    H226364   2.152   0.177   8.356 -1.9866  0.0766  0.7931
 1577TIP3   OH226365   4.728   4.545   1.637 -0.3116 -0.5034 -0.4546
 1577TIP3    H126366   4.652   4.519   1.689  0.6111 -0.5721  0.9277
 1577TIP3    H226367   4.705   4.631   1.602 -0.5832  0.0500  0.9918
 1578TIP3   OH226368   4.757   2.361   0.487  0.3680  0.1935  0.4030
 1578TIP3    H126369   4.796   2.391   0.405  1.1495 -0.3365  0.5629
 1578TIP3    H226370   4.832   2.348   0.545  0.0257 -1.3641  0.5541
 1579TIP3   OH226371   6.763   3.505   8.536  0.4406  0.2740 -0.2943
 1579TIP3    H126372   6.783   3.413   8.518 -0.2888 -0.2270  1.2529
 1579TIP3    H226373   6.681   3.521   8.488  0.1754 -0.1162  0.0163
 1580TIP3   OH226374   4.139   3.699   8.165  0.0623 -0.0166 -0.0825
 1580TIP3    H126375   4.046   3.720   8.173 -0.2247 -1.2974  0.0806
 1580TIP3    H226376   4.180   3.749   8.235 -0.5734  0.1184  0.2024
 1581TIP3   OH226377   6.411   4.589   7.815 -0.6694 -0.1695 -0.3575
 1581TIP3    H126378   6.429   4.496   7.828  0.3992 -0.0057 -0.5773
 1581TIP3    H226379   6.446   4.632   7.893 -0.0630  0.1618 -0.8056
 1582TIP3   OH226380   6.383   3.186   7.248  0.3307  0.5086 -0.2042
 1582TIP3    H126381   6.419   3.218   7.165 -0.5121  0.5596 -0.5577
 1582TIP3    H226382   6.457   3.143   7.290  0.7925  0.5369 -0.9543
 1583TIP3   OH226383   2.089   2.442   0.366  0.3665  0.6460 -0.1533
 1583TIP3    H126384   2.045   2.414   0.446 -1.0643  0.2183 -1.0611
 1583TIP3    H226385   2.160   2.499   0.396  0.0928  0.1917  1.4264
 1584TIP3   OH226386   3.714   5.649   1.442 -0.4054  0.4339 -0.2540
 1584TIP3    H126387   3.653   5.576   1.449 -0.8834  0.9901  2.8194
 1584TIP3    H226388   3.750   5.659   1.530  3.3277  0.8883 -1.6323
 1585TIP3   OH226389   6.127   4.050   1.713  0.2956 -0.1717  0.3941
 1585TIP3    H126390   6.172   3.967   1.696 -1.0139 -0.9976  0.8569
 1585TIP3    H226391   6.094   4.041   1.802 -0.3993  0.6091  0.2224
 1586TIP3   OH226392   1.810   5.916   6.452  0.0838  0.1059 -0.3406
 1586TIP3    H126393   1.896   5.928   6.491 -0.6488  0.5022  1.2336
 1586TIP3    H226394   1.822   5.845   6.388  1.2768 -0.8064  0.8524
 1587TIP3   OH226395   1.608   0.329   7.022  0.3452  0.3408 -0.2751
 1587TIP3    H126396   1.662   0.305   6.947  0.7705  1.6360 -0.4175
 1587TIP3    H226397   1.519   0.304   6.996  0.8020 -1.6234 -0.1207
 1588TIP3   OH226398   0.608   0.427   8.959  0.0072  0.2068  0.5630
 1588TIP3    H126399   0.600   0.339   8.997 -0.8976 -0.4398 -1.0136
 1588TIP3    H226400   0.539   0.478   9.002 -0.3265 -0.2259  0.5525
 1589TIP3   OH226401   0.870   1.743   2.227  0.2886 -0.1399  0.4507
 1589TIP3    H126402   0.786   1.742   2.273  0.1256  1.7390  0.2707
 1589TIP3    H226403   0.858   1.682   2.154 -0.8436 -0.0926  0.5785
 1590TIP3   OH226404   1.102   4.454   1.503  0.4340  0.4783 -0.2264
 1590TIP3    H126405   1.052   4.372   1.500  0.6943  0.3386 -0.8966
 1590TIP3    H226406   1.067   4.506   1.430  1.6061  0.1721 -1.0341
 1591TIP3   OH226407   1.087   3.254   7.669  0.4446  0.2565  0.5095
 1591TIP3    H126408   1.108   3.328   7.727 -0.6836  0.0995  1.1415
 1591TIP3    H226409   1.140   3.270   7.590  0.0864  1.8470  0.5522
 1592TIP3   OH226410   0.476   1.626   1.238 -0.1941  0.7427 -0.5025
 1592TIP3    H126411   0.554   1.629   1.183  0.6354  0.8016  0.6461
 1592TIP3    H226412   0.415   1.687   1.195  0.0036 -0.0338 -1.9471
 1593TIP3   OH226413   3.986   2.754   0.197  0.3502  0.1183 -0.0843
 1593TIP3    H126414   3.974   2.699   0.119 -1.2492  1.0360 -0.5453
 1593TIP3    H226415   4.047   2.822   0.169 -0.7003  0.8078 -0.7661
 1594TIP3   OH226416   6.259   2.446   1.779 -0.3260  0.4169 -0.4024
 1594TIP3    H126417   6.305   2.406   1.706 -0.7423  1.4734 -1.2821
 1594TIP3    H226418   6.324   2.453   1.849 -0.6635 -3.4215  0.5316
 1595TIP3   OH226419   2.767   1.236   0.980 -0.0155 -0.5785  0.1076
 1595TIP3    H126420   2.847   1.238   0.928 -0.1389 -0.7268 -0.0886
 1595TIP3    H226421   2.734   1.327   0.976  0.7310 -0.2575  1.1142
 1596TIP3   OH226422   3.857   1.404   2.337  0.0570  0.2548 -0.0419
 1596TIP3    H126423   3.851   1.490   2.296  2.9413  0.8414  0.5237
 1596TIP3    H226424   3.815   1.414   2.422 -0.2045  0.9100 -0.2442
 1597TIP3   OH226425   1.934   3.226   7.670 -0.3574  0.1162  0.3539
 1597TIP3    H126426   1.884   3.288   7.722  0.1723  0.2859  0.6663
 1597TIP3    H226427   1.934   3.263   7.581 -0.0889  0.5386  0.5277
 1598TIP3   OH226428   0.419   4.340   0.979  0.0006  0.1066 -0.1568
 1598TIP3    H126429   0.424   4.432   0.951  4.0034 -0.2665 -1.3305
 1598TIP3    H226430   0.387   4.294   0.901  0.8117  0.2130 -0.5597
 1599TIP3   OH226431   5.916   4.951   7.084 -0.0127 -0.1189 -0.2070
 1599TIP3    H126432   5.947   4.863   7.104  1.4127  0.2197 -0.8236
 1599TIP3    H226433   5.954   5.007   7.152 -0.9708  0.0272  0.2259
 1600TIP3   OH226434   0.472   6.738   1.317 -0.4992  0.4044  0.2780
 1600TIP3    H126435   0.415   6.668   1.350 -1.0380  0.1011 -1.2102
 1600TIP3    H226436   0.461   6.809   1.379 -1.0683 -0.3125  1.0231
 1601TIP3   OH226437   2.283   2.081   8.325  0.6062 -0.2114 -0.5379
 1601TIP3    H126438   2.196   2.097   8.360  0.4477 -1.4084 -0.3283
 1601TIP3    H226439   2.313   2.003   8.371  3.0827  1.8996  1.6902
 1602TIP3   OH226440   4.514   4.616   1.429 -0.3405  0.0833  0.1186
 1602TIP3    H126441   4.550   4.665   1.356  0.6961 -2.7448 -1.4122
 1602TIP3    H226442   4.516   4.677   1.502  3.0435  1.6347 -1.0640
 1603TIP3   OH226443   6.142   1.760   7.539 -0.1685  0.1032  0.1405
 1603TIP3    H126444   6.057   1.787   7.574  0.0451  0.8528  0.0977
 1603TIP3    H226445   6.125   1.739   7.447 -0.2825  0.4214  0.0855
 1604TIP3   OH226446   5.796   2.326   7.778  0.1112  0.0026  0.1494
 1604TIP3    H126447   5.854   2.392   7.739 -0.3049  0.9969  1.1932
 1604TIP3    H226448   5.831   2.312   7.866 -0.4400 -0.4016  0.3097
 1605TIP3   OH226449   0.496   3.058   7.174  0.3425 -1.0690  0.4995
 1605TIP3    H126450   0.426   3.021   7.121  0.5523  1.3138 -1.6603
 1605TIP3    H226451   0.454   3.077   7.258 -1.4487 -0.4101 -0.4755
 1606TIP3   OH226452   2.099   4.259   6.905  0.5551  0.0062 -0.2010
 1606TIP3    H126453   2.050   4.329   6.863  1.5494  1.5317  1.0728
 1606TIP3    H226454   2.048   4.180   6.888 -2.6513  1.5405  1.5057
 1607TIP3   OH226455   1.895   3.791   7.487  0.1284  0.3259 -0.6734
 1607TIP3    H126456   1.921   3.715   7.538  0.2232  1.9413  1.8160
 1607TIP3    H226457   1.809   3.815   7.522  0.2534  1.5664 -1.1828
 1608TIP3   OH226458   2.721   2.574   0.753  0.0847 -0.1322 -0.2372
 1608TIP3    H126459   2.797   2.611   0.708  0.2059 -1.3705 -1.0951
 1608TIP3    H226460   2.751   2.560   0.842  0.1073  1.5825  0.0601
 1609TIP3   OH226461   0.464   6.144   6.369 -0.0181 -0.2361 -0.1728
 1609TIP3    H126462   0.531   6.092   6.413  0.1890 -1.6957 -2.1068
 1609TIP3    H226463   0.501   6.163   6.283 -1.3007  0.6033 -0.5647
 1610TIP3   OH226464   6.594   5.238   1.616 -0.4757  0.0031  0.2525
 1610TIP3    H126465   6.606   5.144   1.628 -2.0350 -0.2422  0.0466
 1610TIP3    H226466   6.581   5.272   1.704  0.8383  0.1675  0.4063
 1611TIP3   OH226467   1.774   3.477   1.762 -0.5559  0.0509 -0.0026
 1611TIP3    H126468   1.792   3.384   1.754 -1.3439 -0.1146  0.0665
 1611TIP3    H226469   1.735   3.487   1.848  0.3711  0.5934  0.3706
 1612TIP3   OH226470   3.151   4.768   8.457  0.1038  0.4837 -0.3441
 1612TIP3    H126471   3.105   4.707   8.515  0.8583  0.3860  0.1687
 1612TIP3    H226472   3.232   4.723   8.434  0.1897  0.8672 -0.8101
 1613TIP3   OH226473   3.973   0.705   7.922 -0.1770 -0.2159  0.2175
 1613TIP3    H126474   3.882   0.727   7.902 -0.1532 -1.2028 -1.1095
 1613TIP3    H226475   3.989   0.623   7.875  2.3737  1.5876 -2.3948
 1614TIP3   OH226476   1.761   2.781   0.129  0.0955  0.3772  0.6130
 1614TIP3    H126477   1.849   2.787   0.167  0.4074  0.5176 -0.1190
 1614TIP3    H226478   1.748   2.866   0.086  0.3794 -0.3222 -0.9152
 1615TIP3   OH226479   1.889   5.109   0.859  0.1531 -0.2625  0.0540
 1615TIP3    H126480   1.945   5.160   0.800 -0.7735  0.9787  0.1957
 1615TIP3    H226481   1.945   5.089   0.934  0.8314 -0.3297 -0.4602
 1616TIP3   OH226482   5.041   3.723   7.530  0.2887 -0.4777  0.6744
 1616TIP3    H126483   5.055   3.765   7.446 -1.4985  0.6104  0.8762
 1616TIP3    H226484   5.125   3.732   7.576  0.3002  1.8723  0.2691
 1617TIP3   OH226485   4.442   1.454   7.236 -0.1280  0.5195 -0.1679
 1617TIP3    H126486   4.490   1.400   7.172  2.0343  0.7873  1.1132
 1617TIP3    H226487   4.350   1.437   7.217  0.3251  1.3746 -4.0201
 1618TIP3   OH226488   1.142   0.214   8.352  0.2640 -0.0663  0.2667
 1618TIP3    H126489   1.143   0.241   8.260  0.7469 -2.3248 -0.4499
 1618TIP3    H226490   1.082   0.140   8.355  0.0489  0.1387  1.8439
 1619TIP3   OH226491   6.599   4.633   7.430 -0.0126 -0.3920  0.2676
 1619TIP3    H126492   6.517   4.677   7.453  1.2725  3.4525 -1.6399
 1619TIP3    H226493   6.663   4.666   7.494  0.8746  0.0802 -0.8294
 1620TIP3   OH226494   0.567   5.427   7.825 -0.7054 -0.7917  1.0114
 1620TIP3    H126495   0.549   5.354   7.765  0.5414 -0.0286 -0.3607
 1620TIP3    H226496   0.585   5.384   7.909  0.0780 -2.1078  0.2195
 1621TIP3   OH226497   0.656   5.256   8.054  0.4354 -0.5638 -0.1465
 1621TIP3    H126498   0.678   5.311   8.129 -2.5416  0.4969  0.0959
 1621TIP3    H226499   0.669   5.166   8.084  0.8973 -0.1069  1.0597
 1622TIP3   OH226500   3.078   4.446   6.807  0.1340 -0.3813  0.7649
 1622TIP3    H126501   3.004   4.494   6.844 -0.3261 -0.0511 -0.5213
 1622TIP3    H226502   3.154   4.503   6.823 -0.3504  0.6419 -0.4178
 1623TIP3   OH226503   2.267   1.200   1.396  0.2827 -0.5226  0.4853
 1623TIP3    H126504   2.248   1.227   1.486  0.0168  2.4393 -0.3588
 1623TIP3    H226505   2.182   1.186   1.356  0.3390 -0.2809  0.2775
 1624TIP3   OH226506   1.130   1.178   7.489  0.3187 -0.3085  0.7342
 1624TIP3    H126507   1.086   1.229   7.558  0.8289 -0.4194  1.1487
 1624TIP3    H226508   1.220   1.210   7.491  0.6606 -1.2765  1.0396
 1625TIP3   OH226509   4.836   2.150   1.801 -0.3607 -0.3249 -0.3129
 1625TIP3    H126510   4.872   2.102   1.875 -0.0045  1.6228  0.8585
 1625TIP3    H226511   4.741   2.146   1.814 -0.2804  0.9728  0.9666
 1626TIP3   OH226512   2.363   4.377   2.206 -0.0457 -0.5692 -0.6662
 1626TIP3    H126513   2.419   4.418   2.273  0.9313 -0.7237 -1.3616
 1626TIP3    H226514   2.274   4.395   2.235  0.3629  0.2161  0.1646
 1627TIP3   OH226515   4.207   4.970   8.614  0.1241  1.0296 -0.0638
 1627TIP3    H126516   4.214   4.934   8.526  2.9078 -0.0001  0.4765
 1627TIP3    H226517   4.137   5.035   8.608  0.3336  1.0996 -3.0502
 1628TIP3   OH226518   6.075   3.375   6.996  0.1171  0.5110  0.3942
 1628TIP3    H126519   6.116   3.462   6.994 -0.8267  0.9804  0.6044
 1628TIP3    H226520   6.034   3.365   6.910 -1.1483  0.9853  0.9123
 1629TIP3   OH226521   6.474   3.591   1.490  0.1219 -0.1750  0.6452
 1629TIP3    H126522   6.415   3.660   1.461 -1.0232 -0.2548  2.5980
 1629TIP3    H226523   6.541   3.586   1.422 -1.9798  0.0660 -1.5344
 1630TIP3   OH226524   6.287   5.910   0.445  0.8491  0.2166  0.4727
 1630TIP3    H126525   6.209   5.950   0.406  0.4787 -1.3899 -0.5573
 1630TIP3    H226526   6.353   5.979   0.445  0.6477  0.5168 -2.4354
 1631TIP3   OH226527   2.081   0.709   8.481  0.0331  0.1903  0.7718
 1631TIP3    H126528   2.150   0.774   8.491 -0.4853  0.9738 -0.5135
 1631TIP3    H226529   2.123   0.625   8.503  1.3822  0.6463  0.0223
 1632TIP3   OH226530   1.213   5.561   1.978  0.0577 -0.0211 -0.2760
 1632TIP3    H126531   1.172   5.478   1.955  0.7718 -0.9290  1.5524
 1632TIP3    H226532   1.248   5.547   2.066  1.5994  1.7005 -0.5616
 1633TIP3   OH226533   2.060   4.706   7.102 -0.1271 -0.0463 -0.1514
 1633TIP3    H126534   2.004   4.764   7.051 -1.9174 -0.3772  1.2894
 1633TIP3    H226535   2.083   4.758   7.180  0.5725 -0.3330 -0.1633
 1634TIP3   OH226536   0.303   1.703   8.290 -0.1983 -0.0983  0.1218
 1634TIP3    H126537   0.276   1.795   8.295 -0.1387 -0.0938  0.3935
 1634TIP3    H226538   0.396   1.705   8.314 -0.3644 -0.3116  0.8195
 1635TIP3   OH226539   2.435   0.884   0.561  0.3941 -0.1339 -0.4345
 1635TIP3    H126540   2.382   0.962   0.544 -0.1648 -0.1336  1.1646
 1635TIP3    H226541   2.493   0.878   0.485 -0.5632  0.9810 -1.2939
 1636TIP3   OH226542   3.311   2.517   1.327  0.4047  0.6842  0.4652
 1636TIP3    H126543   3.376   2.448   1.339 -2.8165 -2.9918 -1.2729
 1636TIP3    H226544   3.333   2.556   1.242 -0.0373 -1.1013 -0.5109
 1637TIP3   OH226545   2.889   0.696   2.980 -0.2604  0.0108  0.2850
 1637TIP3    H126546   2.883   0.747   3.061 -1.2790  0.5734 -0.1176
 1637TIP3    H226547   2.820   0.733   2.924  0.6280 -0.1626 -0.9593
 1638TIP3   OH226548   2.984   4.590   1.977 -0.2227  0.3319  0.8990
 1638TIP3    H126549   2.908   4.532   1.983 -0.5655  0.5187 -1.0509
 1638TIP3    H226550   2.948   4.676   1.956  0.4960  0.4227 -0.0401
 1639TIP3   OH226551   1.710   6.259   0.998 -0.1932  0.6131  0.5922
 1639TIP3    H126552   1.743   6.193   0.938 -1.4865  1.2259 -0.8738
 1639TIP3    H226553   1.760   6.246   1.078  1.0416 -0.7557 -0.3453
 1640TIP3   OH226554   6.026   1.644   1.019  0.4966 -0.1940  0.1901
 1640TIP3    H126555   5.940   1.656   1.060  0.2494 -2.1146  0.3170
 1640TIP3    H226556   6.083   1.707   1.064 -0.3273 -0.5093  1.7477
 1641TIP3   OH226557   3.886   3.614   1.415 -0.3057 -0.0150 -0.2953
 1641TIP3    H126558   3.877   3.526   1.379 -0.4094  0.1421 -0.6471
 1641TIP3    H226559   3.804   3.658   1.393  0.7325  0.9992 -2.3781
 1642TIP3   OH226560   5.843   4.031   1.241  0.4412  0.0657 -0.3921
 1642TIP3    H126561   5.866   4.065   1.155  0.5110 -0.9759 -0.7917
 1642TIP3    H226562   5.896   3.951   1.251  0.8489  0.4533  0.8369
 1643TIP3   OH226563   1.888   2.345   1.869 -0.3456  0.3284 -0.4155
 1643TIP3    H126564   1.884   2.438   1.891 -0.0522  0.2531 -0.0347
 1643TIP3    H226565   1.980   2.328   1.850 -0.2676 -0.0509  0.2689
 1644TIP3   OH226566   2.237   4.418   7.578  0.5237  0.0041 -0.0331
 1644TIP3    H126567   2.190   4.423   7.661 -0.3212 -0.6206 -0.4574
 1644TIP3    H226568   2.329   4.427   7.601  0.2157  1.2147  0.8268
 1645TIP3   OH226569   3.419   2.673   7.572 -1.0457 -0.4121  0.6487
 1645TIP3    H126570   3.387   2.608   7.509 -1.7394  1.8929 -1.5698
 1645TIP3    H226571   3.484   2.723   7.524 -0.4754  0.5031  2.2903
 1646TIP3   OH226572   6.676   2.441   7.808  0.4045 -0.3385 -0.3710
 1646TIP3    H126573   6.759   2.434   7.760  0.8045  0.1948  0.2226
 1646TIP3    H226574   6.685   2.521   7.859 -1.9057  1.7939 -2.9949
 1647TIP3   OH226575   0.841   0.484   1.876  0.1992  0.4425 -0.7713
 1647TIP3    H126576   0.933   0.459   1.885 -0.2633 -0.5990  1.8182
 1647TIP3    H226577   0.798   0.407   1.838 -0.0802 -0.2817  0.9276
 1648TIP3   OH226578   2.324   3.695   1.217  0.2393  0.0060  0.6012
 1648TIP3    H126579   2.350   3.765   1.157  2.5670 -1.0483  0.2970
 1648TIP3    H226580   2.334   3.734   1.304 -0.1436  0.5605  0.4064
 1649TIP3   OH226581   4.094   6.033   7.932 -0.1260  0.0269  0.5598
 1649TIP3    H126582   4.002   6.060   7.931 -0.3392 -0.6830  0.6067
 1649TIP3    H226583   4.105   5.980   7.853  0.4144  0.6485  0.2067
 1650TIP3   OH226584   5.033   1.127   0.532 -0.2219  0.0019 -1.0824
 1650TIP3    H126585   5.018   1.130   0.438 -0.6080 -1.4889 -1.0961
 1650TIP3    H226586   5.095   1.055   0.544 -1.4578 -0.9386 -0.0752
 1651TIP3   OH226587   6.574   1.868   8.417 -0.0378 -0.3330  0.1131
 1651TIP3    H126588   6.580   1.937   8.483 -0.2246 -0.7478  0.5677
 1651TIP3    H226589   6.565   1.915   8.334  0.2800  0.1928  0.3690
 1652TIP3   OH226590   1.097   3.134   7.924 -0.6712  0.1686 -0.1165
 1652TIP3    H126591   1.152   3.057   7.934 -0.9698  0.1006  1.2129
 1652TIP3    H226592   1.123   3.171   7.839 -0.8330 -1.6037 -0.9908
 1653TIP3   OH226593   0.156   2.376   6.761  0.5654 -0.3820  0.2070
 1653TIP3    H126594   0.141   2.333   6.845 -2.5863 -0.7772 -0.4487
 1653TIP3    H226595   0.129   2.467   6.774 -2.9585 -1.1044 -1.0123
 1654TIP3   OH226596   0.930   3.899   1.983  0.1648  0.2230 -0.2501
 1654TIP3    H126597   0.852   3.852   2.011  0.0394 -0.3844 -1.5448
 1654TIP3    H226598   0.993   3.830   1.961  0.1441  0.6501 -1.7276
 1655TIP3   OH226599   5.096   0.512   9.023  0.4101  0.7274  0.3446
 1655TIP3    H126600   5.014   0.514   8.974 -0.1779 -0.0425  1.2480
 1655TIP3    H226601   5.138   0.596   9.004 -1.5266  2.0318  1.4225
 1656TIP3   OH226602   5.017   5.439   1.594  0.7728  1.3375  0.0450
 1656TIP3    H126603   5.013   5.534   1.580  2.1450  1.5396  0.8404
 1656TIP3    H226604   4.992   5.427   1.686 -1.1937  0.7185 -0.5184
 1657TIP3   OH226605   2.218   0.316   0.805  0.4393 -0.5769 -0.2749
 1657TIP3    H126606   2.240   0.265   0.883 -0.5891 -0.2765  0.2317
 1657TIP3    H226607   2.253   0.265   0.732  0.7162 -1.2604  0.3243
 1658TIP3   OH226608   1.997   5.564   7.822 -0.0217 -0.2684 -0.1064
 1658TIP3    H126609   1.907   5.546   7.797 -0.4171 -1.6642  1.9759
 1658TIP3    H226610   1.989   5.611   7.905  1.1497 -0.3631  0.0717
 1659TIP3   OH226611   2.282   1.239   0.913  0.3186  0.1788  0.1280
 1659TIP3    H126612   2.354   1.262   0.970  1.7432 -1.4071 -0.9213
 1659TIP3    H226613   2.320   1.177   0.850 -1.5012  0.7492 -1.6461
 1660TIP3   OH226614   1.256   5.771   8.379  0.8010 -0.2839 -0.0838
 1660TIP3    H126615   1.239   5.796   8.288  0.0154  2.1298  0.6359
 1660TIP3    H226616   1.170   5.748   8.414  0.3584  2.5030  0.9657
 1661TIP3   OH226617   5.671   0.803   7.485  0.0109 -0.4012  0.0737
 1661TIP3    H126618   5.581   0.834   7.476  0.5467  0.9183 -1.1214
 1661TIP3    H226619   5.689   0.808   7.579 -0.8914  0.1174  0.2247
 1662TIP3   OH226620   2.157   1.181   7.617 -0.2046  0.3352 -0.6905
 1662TIP3    H126621   2.091   1.196   7.550  0.2368  0.5731 -1.0781
 1662TIP3    H226622   2.206   1.105   7.585  0.0647  0.5061 -0.6862
 1663TIP3   OH226623   0.904   0.604   8.155 -0.0145 -0.4002  0.0642
 1663TIP3    H126624   0.839   0.535   8.159  1.1677 -1.5091  1.6745
 1663TIP3    H226625   0.875   0.669   8.219 -0.0700 -0.3884  0.0268
 1664TIP3   OH226626   3.821   3.249   8.142 -0.1347  0.6787  0.5599
 1664TIP3    H126627   3.884   3.313   8.111 -1.6213  0.7450 -2.6800
 1664TIP3    H226628   3.853   3.165   8.109 -0.8534  0.4833  0.3464
 1665TIP3   OH226629   0.616   3.606   8.069  0.6172  0.1982 -0.3083
 1665TIP3    H126630   0.656   3.527   8.032 -0.3066 -0.3004 -0.2693
 1665TIP3    H226631   0.604   3.586   8.162 -0.2857  0.0947 -0.4396
 1666TIP3   OH226632   4.202   5.929   8.481 -0.3022 -0.0774  0.2557
 1666TIP3    H126633   4.293   5.919   8.451 -0.3219 -0.8048  0.4150
 1666TIP3    H226634   4.197   6.020   8.511  0.3296  0.0214  0.0903
 1667TIP3   OH226635   5.487   2.737   1.827  0.1959  0.0144  0.0586
 1667TIP3    H126636   5.420   2.805   1.818 -0.9388 -1.2997 -2.2452
 1667TIP3    H226637   5.460   2.668   1.766  1.6662 -2.2366  1.7967
 1668TIP3   OH226638   2.092   3.417   6.787  0.7605  0.4700 -0.1591
 1668TIP3    H126639   2.154   3.393   6.718  0.9050 -1.2865  0.5371
 1668TIP3    H226640   2.015   3.448   6.739  0.6209 -1.2935 -1.1799
 1669TIP3   OH226641   2.389   2.896   0.045  0.7868  0.5718 -0.1580
 1669TIP3    H126642   2.338   2.871   0.122 -0.2879  0.4077 -0.8983
 1669TIP3    H226643   2.463   2.836   0.044 -0.5712 -1.1715 -0.6817
 1670TIP3   OH226644   6.746   3.795   8.460  0.2836 -0.4100 -0.3522
 1670TIP3    H126645   6.757   3.714   8.509  0.3650 -0.2111 -0.0379
 1670TIP3    H226646   6.786   3.778   8.375  1.2845 -0.3333  0.0986
 1671TIP3   OH226647   4.644   2.212   1.326  0.1266 -0.0222 -0.0799
 1671TIP3    H126648   4.602   2.252   1.403  1.0462  0.7715  0.0325
 1671TIP3    H226649   4.660   2.286   1.267  0.0034 -0.5358 -0.7633
 1672TIP3   OH226650   1.245   0.414   1.659  0.2673 -0.2177  0.3029
 1672TIP3    H126651   1.216   0.362   1.584 -0.0495  0.1988  0.1322
 1672TIP3    H226652   1.287   0.491   1.620 -1.4311  0.8672  0.5232
 1673TIP3   OH226653   6.235   6.428   0.303 -0.2445  0.3096 -0.2075
 1673TIP3    H126654   6.155   6.380   0.284  0.3167 -0.9200  0.4425
 1673TIP3    H226655   6.220   6.468   0.389 -0.7536  1.4304 -0.7967
 1674TIP3   OH226656   1.246   3.741   8.946  0.0134 -0.2085 -0.1722
 1674TIP3    H126657   1.166   3.788   8.922 -0.4485 -1.5222 -1.3626
 1674TIP3    H226658   1.239   3.729   9.040 -0.6897  0.5681 -0.1074
 1675TIP3   OH226659   4.540   4.397   0.861  0.3328  0.1267  0.1427
 1675TIP3    H126660   4.543   4.491   0.878 -0.6330  0.1037  0.5352
 1675TIP3    H226661   4.450   4.372   0.883  0.3206 -0.7239 -0.8009
 1676TIP3   OH226662   1.610   0.792   0.764 -0.7373 -0.2003 -0.0833
 1676TIP3    H126663   1.641   0.750   0.844  1.2742 -0.1487 -0.7786
 1676TIP3    H226664   1.609   0.885   0.785  1.5235 -0.0073 -0.5911
 1677TIP3   OH226665   6.346   6.669   8.849 -0.1286  0.1550  0.2505
 1677TIP3    H126666   6.293   6.735   8.894  0.1060 -0.1275  0.9640
 1677TIP3    H226667   6.297   6.587   8.859 -0.2121  0.1401 -0.2613
 1678TIP3   OH226668   2.224   1.130   3.130 -0.3896  0.3329 -0.3802
 1678TIP3    H126669   2.316   1.158   3.131 -0.9541  2.3807  1.4526
 1678TIP3    H226670   2.214   1.085   3.046  2.7964 -1.9149  0.2626
 1679TIP3   OH226671   2.622   3.721   8.255  0.2741  0.2007  0.5978
 1679TIP3    H126672   2.633   3.768   8.172 -1.6845 -0.5754 -0.1587
 1679TIP3    H226673   2.608   3.789   8.320 -1.7267  0.7571 -0.3436
 1680TIP3   OH226674   3.496   4.934   8.426  0.0129 -0.2859  0.0325
 1680TIP3    H126675   3.551   4.889   8.362  0.5751 -0.4519  0.6309
 1680TIP3    H226676   3.471   5.016   8.382  1.5664  0.2728  0.1163
 1681TIP3   OH226677   0.668   5.676   2.060  0.0907  0.6417  0.0894
 1681TIP3    H126678   0.618   5.748   2.097  1.1013  0.5950  1.6425
 1681TIP3    H226679   0.606   5.603   2.055 -0.8911  1.5210 -1.3293
 1682TIP3   OH226680   0.433   3.280   8.020 -0.4574  0.1906 -0.3816
 1682TIP3    H126681   0.474   3.256   8.103 -2.1007  1.5054  0.8551
 1682TIP3    H226682   0.372   3.209   8.001 -1.4066  0.7459  0.5074
 1683TIP3   OH226683   1.871   3.654   0.494  0.2625 -0.4625  0.5361
 1683TIP3    H126684   1.911   3.736   0.523 -0.6453 -0.5146  2.0195
 1683TIP3    H226685   1.799   3.639   0.555 -0.3171 -1.7762 -0.4168
 1684TIP3   OH226686   0.195   3.339   0.706  0.1886  0.1381  0.2932
 1684TIP3    H126687   0.244   3.378   0.634  1.7748  0.5137  1.5031
 1684TIP3    H226688   0.262   3.296   0.760 -0.8006  0.6661  2.0351
 1685TIP3   OH226689   0.376   1.846   7.521  0.3076 -0.5012 -0.2236
 1685TIP3    H126690   0.362   1.857   7.427 -0.1402 -0.9957 -0.2181
 1685TIP3    H226691   0.388   1.935   7.553 -0.8497 -0.2049 -0.5498
 1686TIP3   OH226692   3.391   3.803   7.872 -0.2250 -0.1466 -0.5241
 1686TIP3    H126693   3.456   3.759   7.926  1.0546  0.9739 -1.0924
 1686TIP3    H226694   3.402   3.896   7.892 -0.9048  0.1470 -1.4338
 1687TIP3   OH226695   4.911   6.733   0.598  0.2072 -0.2164  0.5557
 1687TIP3    H126696   4.915   6.818   0.642 -0.3269 -0.1984  0.5816
 1687TIP3    H226697   4.991   6.729   0.546  0.2159  0.3204  0.5237
 1688TIP3   OH226698   3.449   4.169   2.248 -0.3203 -0.0674  0.4653
 1688TIP3    H126699   3.470   4.079   2.223  1.4983  0.3293  0.3959
 1688TIP3    H226700   3.412   4.161   2.336 -0.6893 -0.9271  0.2421
 1689TIP3   OH226701   5.778   1.582   1.605 -0.0650 -0.4534 -0.2747
 1689TIP3    H126702   5.854   1.524   1.596 -0.6773 -1.0489 -2.1516
 1689TIP3    H226703   5.815   1.669   1.621  1.0066 -0.7978 -0.8130
 1690TIP3   OH226704   4.317   3.465   0.881 -0.1273  0.6848  0.6504
 1690TIP3    H126705   4.334   3.473   0.787  1.1538  1.9940  0.9649
 1690TIP3    H226706   4.256   3.391   0.888  0.3736  0.0583 -1.1344
 1691TIP3   OH226707   4.566   1.990   7.346  0.6968  0.1926  0.4433
 1691TIP3    H126708   4.503   1.950   7.406  0.1846 -1.1187 -0.9158
 1691TIP3    H226709   4.512   2.023   7.274  1.3622  1.1401  0.3751
 1692TIP3   OH226710   6.410   4.931   7.337  0.0651 -0.7649  0.0803
 1692TIP3    H126711   6.492   4.883   7.319  1.2570  1.2349 -0.1460
 1692TIP3    H226712   6.422   4.967   7.425  0.1526  0.8474 -0.5572
 1693TIP3   OH226713   2.065   4.720   0.855 -0.0527 -0.0295 -0.6850
 1693TIP3    H126714   2.158   4.722   0.875  0.3891  0.0917 -2.5195
 1693TIP3    H226715   2.050   4.797   0.800 -0.6425 -1.4056 -2.5922
 1694TIP3   OH226716   6.243   3.686   8.292 -0.4777  0.4853  0.4447
 1694TIP3    H126717   6.241   3.652   8.202  0.6229  1.3128  0.0862
 1694TIP3    H226718   6.158   3.660   8.329 -1.2556  0.7436 -1.0595
 1695TIP3   OH226719   6.466   1.139   8.653 -0.1815 -0.2209 -0.1394
 1695TIP3    H126720   6.543   1.081   8.662 -1.8411 -2.3911  1.0951
 1695TIP3    H226721   6.501   1.218   8.611  2.6973 -1.1434  0.2500
 1696TIP3   OH226722   3.286   3.426   8.260 -0.0095 -0.5464 -0.0657
 1696TIP3    H126723   3.199   3.391   8.278  0.0010 -1.0661 -0.9625
 1696TIP3    H226724   3.279   3.519   8.279 -0.4475 -0.7701  0.9348
 1697TIP3   OH226725   4.396   5.005   8.092  0.1065 -0.2691 -0.3061
 1697TIP3    H126726   4.352   4.923   8.113  2.7208 -1.6045  0.2431
 1697TIP3    H226727   4.361   5.067   8.156  1.4782 -2.1375  2.4556
 1698TIP3   OH226728   1.161   2.931   1.037 -0.1266  0.4868  0.4052
 1698TIP3    H126729   1.086   2.871   1.037  0.0145  0.3126  0.6190
 1698TIP3    H226730   1.213   2.906   1.114 -0.4806  1.3903  0.9635
 1699TIP3   OH226731   4.607   0.744   7.042  0.9136 -0.2923  0.6274
 1699TIP3    H126732   4.517   0.712   7.051  0.5568  0.4683 -0.0880
 1699TIP3    H226733   4.660   0.664   7.040  0.1408 -0.8149 -0.0837
 1700TIP3   OH226734   5.819   2.341   7.046  0.1065 -0.3782  0.0114
 1700TIP3    H126735   5.825   2.433   7.022  1.6455 -0.4480  0.0274
 1700TIP3    H226736   5.798   2.296   6.964  0.5605 -0.1273 -0.2485
 1701TIP3   OH226737   5.842   1.244   7.579 -0.2156  0.1954  0.3220
 1701TIP3    H126738   5.771   1.245   7.644 -2.2465 -2.5458 -1.5893
 1701TIP3    H226739   5.900   1.174   7.608 -0.3238 -0.0297  0.0085
 1702TIP3   OH226740   6.753   5.610   8.972  0.0163  0.0578 -0.1318
 1702TIP3    H126741   6.817   5.640   9.036 -0.4689 -1.8667  1.3672
 1702TIP3    H226742   6.674   5.660   8.992 -0.6608 -1.7007  2.0514
 1703TIP3   OH226743   1.434   0.010   2.116 -0.1870  0.3055 -0.3802
 1703TIP3    H126744   1.522   0.048   2.117 -1.1193  2.5807 -0.1047
 1703TIP3    H226745   1.442  -0.067   2.060  2.4019 -0.6684  1.1374
 1704TIP3   OH226746   3.209   4.489   1.520  0.0128 -0.0415 -0.6434
 1704TIP3    H126747   3.145   4.480   1.590  1.9437 -0.6647  1.1369
 1704TIP3    H226748   3.244   4.578   1.530  2.0732 -0.9617  0.8633
 1705TIP3   OH226749   0.215   2.246   1.640  0.3603  0.4188  0.2014
 1705TIP3    H126750   0.304   2.231   1.674 -0.3186 -1.0625  1.4223
 1705TIP3    H226751   0.181   2.159   1.622 -0.4097  1.0240 -1.5265
 1706TIP3   OH226752   2.044   3.649   7.871  0.0895  0.6867 -0.1628
 1706TIP3    H126753   1.965   3.631   7.921  1.2298  0.1441  1.5195
 1706TIP3    H226754   2.049   3.745   7.867 -0.5715  0.7238 -0.1765
 1707TIP3   OH226755   5.420   2.116   6.786  0.5426  0.6169 -0.3790
 1707TIP3    H126756   5.399   2.206   6.762 -0.0405  0.5386 -0.1573
 1707TIP3    H226757   5.416   2.115   6.882  3.0702  0.9837 -0.1874
 1708TIP3   OH226758   0.670   6.014   7.389 -0.0508  0.4606  0.2799
 1708TIP3    H126759   0.702   6.087   7.441  0.0276  0.1886  0.6162
 1708TIP3    H226760   0.725   5.940   7.414  0.1013  0.3634 -0.3132
 1709TIP3   OH226761   4.236   6.251   1.442 -0.0254  0.0801 -0.6852
 1709TIP3    H126762   4.222   6.316   1.511 -0.5358 -0.0481 -0.6661
 1709TIP3    H226763   4.187   6.174   1.472  0.1647 -0.1434 -0.9494
 1710TIP3   OH226764   3.436   5.227   2.265  0.2056 -0.4356  0.0617
 1710TIP3    H126765   3.446   5.212   2.359 -0.1191 -2.4177 -0.1896
 1710TIP3    H226766   3.356   5.278   2.257 -0.5882 -1.5471  0.7691
 1711TIP3   OH226767   6.069   5.960   1.873  0.0029 -0.4146  0.3465
 1711TIP3    H126768   6.160   5.981   1.895 -0.2801 -1.1858  2.4701
 1711TIP3    H226769   6.036   6.039   1.830  1.7903 -0.3140 -0.9931
 1712TIP3   OH226770   1.220   3.169   8.872  0.1279  0.2851  0.1932
 1712TIP3    H126771   1.143   3.146   8.820  0.2067 -0.2443  0.3002
 1712TIP3    H226772   1.200   3.255   8.909  0.1510  0.7552 -0.8613
 1713TIP3   OH226773   5.956   3.452   1.132  0.1366 -0.1866  0.7090
 1713TIP3    H126774   6.047   3.468   1.157  0.1115 -0.2364  0.8323
 1713TIP3    H226775   5.908   3.452   1.215 -0.0712  0.4662  0.5913
 1714TIP3   OH226776   6.728   2.083   1.661 -0.4068  0.3321 -0.3909
 1714TIP3    H126777   6.634   2.098   1.673 -0.3784 -0.2198  0.5356
 1714TIP3    H226778   6.739   1.988   1.663  0.3231  0.4214  0.7317
 1715TIP3   OH226779   5.454   5.518   0.049  0.2487 -0.0121  0.1980
 1715TIP3    H126780   5.374   5.466   0.041  0.5433 -1.0549  2.9946
 1715TIP3    H226781   5.488   5.523  -0.040 -1.8241 -1.2961 -0.7514
 1716TIP3   OH226782   1.870   3.942   1.965  0.7807  0.1188  0.5553
 1716TIP3    H126783   1.937   3.878   1.938 -1.5012 -1.6232 -1.4283
 1716TIP3    H226784   1.871   4.008   1.896 -0.1181 -0.4155  0.0095
 1717TIP3   OH226785   1.893   6.580   7.983 -0.6069 -0.1190 -0.2967
 1717TIP3    H126786   1.956   6.549   8.048 -0.7338 -0.0792 -0.1537
 1717TIP3    H226787   1.875   6.504   7.929  0.9706  0.3278 -1.4990
 1718TIP3   OH226788   1.630   0.942   7.512 -0.2776  0.8988 -0.2365
 1718TIP3    H126789   1.613   0.899   7.428  1.1213  0.2594 -0.2176
 1718TIP3    H226790   1.543   0.956   7.549 -0.9428 -3.8512  0.6966
 1719TIP3   OH226791   2.774   5.366   1.003 -0.4625 -0.1332  0.6798
 1719TIP3    H126792   2.832   5.324   1.067  1.1096 -0.4205 -0.8723
 1719TIP3    H226793   2.736   5.440   1.050  2.2411  0.9085  1.3687
 1720TIP3   OH226794   5.694   3.520   1.242  0.2765 -0.1734 -0.2789
 1720TIP3    H126795   5.699   3.445   1.302  2.5201  0.1263 -0.0222
 1720TIP3    H226796   5.668   3.593   1.298 -1.0737 -0.5635 -0.3671
 1721TIP3   OH226797   3.536   0.832   7.583  0.1105  0.3303  0.3577
 1721TIP3    H126798   3.499   0.918   7.564  0.2163  0.7019  1.7053
 1721TIP3    H226799   3.480   0.796   7.652  0.1914 -0.6115 -0.0409
 1722TIP3   OH226800   4.047   1.134   7.739 -0.1025 -0.4092 -0.0441
 1722TIP3    H126801   4.093   1.050   7.732  1.0547  0.1150  0.8951
 1722TIP3    H226802   4.025   1.157   7.649  3.2611  0.2401 -0.8443
 1723TIP3   OH226803   2.887   1.320   8.326 -0.1461 -0.3995  0.2908
 1723TIP3    H126804   2.837   1.349   8.403 -0.7228  1.1714 -0.6438
 1723TIP3    H226805   2.830   1.255   8.284 -0.4340 -0.2325  0.4181
 1724TIP3   OH226806   4.939   5.046   2.444 -0.3872 -0.2572  0.1419
 1724TIP3    H126807   4.950   5.116   2.509 -0.8846 -1.6922  1.8821
 1724TIP3    H226808   4.902   4.973   2.494 -1.7725 -1.1221 -2.0141
 1725TIP3   OH226809   1.723   2.144   1.769 -0.1575 -0.0011  0.1219
 1725TIP3    H126810   1.759   2.076   1.826  0.1923  0.9366  1.0445
 1725TIP3    H226811   1.791   2.211   1.764 -0.5293  0.3393 -0.6987
 1726TIP3   OH226812   3.968   4.492   0.240 -0.3781  0.0782 -0.0941
 1726TIP3    H126813   4.001   4.575   0.275  0.1068  1.1965 -2.9599
 1726TIP3    H226814   4.041   4.431   0.250  0.3407  0.8269 -0.6106
 1727TIP3   OH226815   3.498   5.032   1.830 -0.1714 -0.2276 -0.0661
 1727TIP3    H126816   3.435   5.085   1.781 -0.6736  1.1849  1.9507
 1727TIP3    H226817   3.532   4.970   1.766 -1.9139  0.4682 -1.7834
 1728TIP3   OH226818   5.535   1.858   8.361  0.5165  0.5012  0.0826
 1728TIP3    H126819   5.468   1.789   8.365  1.0385 -0.0477 -0.4407
 1728TIP3    H226820   5.596   1.828   8.294  1.2705  1.0202  0.5271
 1729TIP3   OH226821   5.754   1.827   1.411  0.0627 -0.1229  0.0786
 1729TIP3    H126822   5.763   1.731   1.416  2.1374 -0.0560 -1.0868
 1729TIP3    H226823   5.840   1.857   1.381  1.4550  2.5754  5.4452
 1730TIP3   OH226824   4.644   0.278   1.687  0.4067  0.2747 -0.2993
 1730TIP3    H126825   4.685   0.325   1.759 -1.1101 -0.7968  1.3461
 1730TIP3    H226826   4.551   0.274   1.710 -0.0610 -0.4897 -2.1112
 1731TIP3   OH226827   5.698   6.003   8.987  0.2155 -0.2439 -0.8812
 1731TIP3    H126828   5.792   5.989   8.972 -0.0897 -3.6929 -0.4728
 1731TIP3    H226829   5.662   6.017   8.899  0.8779 -1.1228 -1.3208
 1732TIP3   OH226830   1.966   3.740   8.495  0.0484 -0.4396 -0.2238
 1732TIP3    H126831   1.882   3.703   8.520 -0.6773  1.7253  0.7969
 1732TIP3    H226832   1.948   3.788   8.414  0.4879 -0.6034 -0.4225
 1733TIP3   OH226833   4.925   1.511   0.580  0.1847  0.0542 -0.1905
 1733TIP3    H126834   4.951   1.468   0.661 -2.7062 -0.8207  0.3774
 1733TIP3    H226835   4.856   1.572   0.607 -0.9889 -0.4209 -2.0092
 1734TIP3   OH226836   6.383   4.843   8.242  0.0043 -0.4899  0.8344
 1734TIP3    H126837   6.451   4.857   8.176  0.0445  0.0262  0.9741
 1734TIP3    H226838   6.431   4.844   8.325 -0.3189  1.3057  1.0467
 1735TIP3   OH226839   1.248   1.811   8.241  0.2596  0.0655  0.2826
 1735TIP3    H126840   1.295   1.743   8.194 -2.0899 -2.9771  1.9040
 1735TIP3    H226841   1.284   1.809   8.330  0.1762  0.9763  0.3507
 1736TIP3   OH226842   3.915   6.258   7.888  0.1598 -0.1382  0.5253
 1736TIP3    H126843   3.958   6.328   7.936  0.1415  0.4934 -0.3424
 1736TIP3    H226844   3.869   6.207   7.954  3.4651 -1.8149  1.7666
 1737TIP3   OH226845   2.239   6.242   6.997  0.2581 -0.5976 -0.1029
 1737TIP3    H126846   2.184   6.320   6.994  0.3953 -0.4235  1.4605
 1737TIP3    H226847   2.295   6.250   6.920 -0.0635  0.5931 -0.2305
 1738TIP3   OH226848   4.293   5.892   9.007 -0.4922  0.5945 -0.0615
 1738TIP3    H126849   4.361   5.860   9.067 -0.4444 -0.5398 -0.6762
 1738TIP3    H226850   4.251   5.964   9.053 -1.3499 -1.0934  1.9250
 1739TIP3   OH226851   2.792   4.243   7.675 -0.3937 -0.1508  0.1832
 1739TIP3    H126852   2.784   4.223   7.582 -1.1735  1.5401 -0.1441
 1739TIP3    H226853   2.826   4.162   7.714  1.5226 -0.3537 -1.7760
 1740TIP3   OH226854   3.807   0.952   8.378 -0.2526 -0.1149 -0.0630
 1740TIP3    H126855   3.804   0.874   8.434 -1.8571  0.8118  1.2071
 1740TIP3    H226856   3.900   0.962   8.357  0.4198 -0.5015  2.4529
 1741TIP3   OH226857   4.891   3.962   7.142  0.0595 -0.0536  0.3773
 1741TIP3    H126858   4.826   4.023   7.177  0.1561  0.3817 -0.1720
 1741TIP3    H226859   4.848   3.877   7.143  0.8715 -0.5579  3.7666
 1742TIP3   OH226860   2.761   5.067   7.170 -0.3053  0.6032  0.3160
 1742TIP3    H126861   2.748   5.105   7.084 -0.5052 -0.0695  0.0385
 1742TIP3    H226862   2.843   5.106   7.202 -1.2549  2.3852  0.6951
 1743TIP3   OH226863   2.222   0.935   0.114 -0.3460  0.2754 -0.1200
 1743TIP3    H126864   2.133   0.922   0.080 -0.4102 -2.2124  0.8321
 1743TIP3    H226865   2.279   0.922   0.038 -0.7314  1.1497 -0.5774
 1744TIP3   OH226866   0.502   4.036   6.604 -0.0032  0.5236  0.4807
 1744TIP3    H126867   0.406   4.030   6.610  0.0132 -1.9409 -0.4288
 1744TIP3    H226868   0.521   4.019   6.512  1.3544 -0.4394  0.9111
 1745TIP3   OH226869   0.738   3.642   1.545  0.0988 -0.4181  0.3345
 1745TIP3    H126870   0.803   3.617   1.610  0.7203 -2.3419 -0.9393
 1745TIP3    H226871   0.656   3.603   1.578 -0.1999  1.0017  1.3406
 1746TIP3   OH226872   3.367   4.186   7.136  0.3116  0.2083  0.7245
 1746TIP3    H126873   3.302   4.230   7.082 -1.1910  0.0438  2.3081
 1746TIP3    H226874   3.343   4.093   7.130 -0.9125  0.3208  2.8622
 1747TIP3   OH226875   3.593   1.831   7.408  0.2836 -0.5145 -0.7060
 1747TIP3    H126876   3.529   1.854   7.475 -0.0493 -1.6231 -0.6264
 1747TIP3    H226877   3.549   1.851   7.325  0.5996  0.6126 -0.6193
 1748TIP3   OH226878   0.762   6.611   7.691 -0.2638 -0.0069  0.0559
 1748TIP3    H126879   0.694   6.582   7.629  0.0684  0.9570 -0.7968
 1748TIP3    H226880   0.782   6.533   7.743 -2.8407 -0.0286  1.1218
 1749TIP3   OH226881   4.215   0.420   1.681  0.6737  0.2092  0.1992
 1749TIP3    H126882   4.129   0.428   1.722 -0.0798 -1.8640 -0.8741
 1749TIP3    H226883   4.260   0.502   1.704 -1.5432  1.3282  0.8176
 1750TIP3   OH226884   1.936   4.167   0.188  0.2164 -0.5046 -0.1048
 1750TIP3    H126885   1.925   4.084   0.234 -1.1856 -1.2082 -1.6100
 1750TIP3    H226886   1.874   4.227   0.229 -2.9492 -1.8435 -2.5585
 1751TIP3   OH226887   1.725   2.733   1.396  0.5050  0.2661 -0.2871
 1751TIP3    H126888   1.761   2.667   1.337  0.5286 -0.7417  0.8155
 1751TIP3    H226889   1.631   2.719   1.393  0.6157 -1.1991  1.4508
 1752TIP3   OH226890   0.793   4.507   1.528  0.3674 -0.0610 -0.0019
 1752TIP3    H126891   0.727   4.477   1.465 -0.0673 -1.0201  0.8879
 1752TIP3    H226892   0.815   4.595   1.498  2.2946 -1.4514 -3.2015
 1753TIP3   OH226893   4.481   3.995   8.854  0.1468  0.3147 -0.0305
 1753TIP3    H126894   4.398   3.974   8.811  0.6607  0.8899 -1.3203
 1753TIP3    H226895   4.457   4.060   8.920 -0.7167 -0.9103  0.9221
 1754TIP3   OH226896   2.387   4.796   0.179 -0.4649  0.1252  0.2133
 1754TIP3    H126897   2.380   4.700   0.181 -0.1168  0.1131  1.5578
 1754TIP3    H226898   2.338   4.825   0.256 -0.9804  1.0711 -0.4477
 1755TIP3   OH226899   0.018   4.719   7.603  0.2378 -0.1553 -0.0313
 1755TIP3    H126900  -0.006   4.688   7.690  1.4057 -1.3539 -0.0954
 1755TIP3    H226901  -0.006   4.811   7.603 -2.6815 -0.8200  0.4419
 1756TIP3   OH226902   4.277   1.788   2.282  0.0076  0.0934  0.8143
 1756TIP3    H126903   4.243   1.743   2.359  0.3547  0.1974  1.0285
 1756TIP3    H226904   4.298   1.876   2.312 -1.5924  0.7354  0.1694
 1757TIP3   OH226905   0.819   3.908   1.549 -0.0578 -0.0099  0.1640
 1757TIP3    H126906   0.787   3.822   1.522 -0.4942 -0.3881  1.7876
 1757TIP3    H226907   0.883   3.890   1.617 -1.6769  0.9575  2.0717
 1758TIP3   OH226908   4.053   5.016   1.945  0.1011 -0.1783  0.4045
 1758TIP3    H126909   4.079   5.104   1.970 -0.3190 -0.1930  0.9175
 1758TIP3    H226910   4.095   4.959   2.009  3.6407 -0.7516 -2.1700
 1759TIP3   OH226911   0.842   6.582   1.314  0.4466  0.0213  0.7182
 1759TIP3    H126912   0.771   6.538   1.360 -0.9463  0.0013 -1.3308
 1759TIP3    H226913   0.815   6.582   1.222  2.1832  1.7832  0.1426
 1760TIP3   OH226914   1.973   6.133   7.540  0.3687  0.0152  0.3302
 1760TIP3    H126915   2.018   6.051   7.561  1.0953  0.2688 -0.1875
 1760TIP3    H226916   1.887   6.106   7.509  0.6941 -0.5716 -0.0721
 1761TIP3   OH226917   3.322   2.847   7.771 -0.0511  0.1391  0.2492
 1761TIP3    H126918   3.237   2.874   7.735 -0.0424 -1.9353 -1.5429
 1761TIP3    H226919   3.341   2.765   7.726  2.5905  0.1935  1.1523
 1762TIP3   OH226920   0.859   1.458   7.704  0.0873 -0.7262  0.3541
 1762TIP3    H126921   0.874   1.514   7.628  0.9088 -0.0250  1.0169
 1762TIP3    H226922   0.771   1.422   7.690  0.6732 -1.5715 -1.5261
 1763TIP3   OH226923   4.733   5.134   0.402 -0.8095 -0.1334  0.2601
 1763TIP3    H126924   4.739   5.206   0.339  0.9814 -0.0396  0.4893
 1763TIP3    H226925   4.764   5.057   0.353 -2.2568 -0.6920  0.1616
 1764TIP3   OH226926   1.354   2.344   2.744  0.2201 -0.7920 -0.1817
 1764TIP3    H126927   1.397   2.275   2.796  1.1764  1.2232  1.9003
 1764TIP3    H226928   1.382   2.425   2.786 -1.3311  0.8627 -2.1812
 1765TIP3   OH226929   3.494   0.309   0.238 -0.1662  0.5719  0.1161
 1765TIP3    H126930   3.472   0.402   0.232  0.3299  0.7535  1.0040
 1765TIP3    H226931   3.428   0.272   0.296 -1.0829  0.1104 -1.1718
 1766TIP3   OH226932   2.266   2.210   7.923  0.3529 -0.1602  0.2224
 1766TIP3    H126933   2.318   2.281   7.960 -0.9939  1.0146 -0.0590
 1766TIP3    H226934   2.288   2.209   7.830 -0.0014  0.2313  0.1327
 1767TIP3   OH226935   4.910   6.581   8.708  0.0012 -0.3191  0.2579
 1767TIP3    H126936   4.944   6.555   8.622 -0.0554 -0.2040  0.2001
 1767TIP3    H226937   4.884   6.499   8.749 -1.3380 -0.2558 -0.4134
 1768TIP3   OH226938   2.123   4.952   7.533 -0.8687 -0.2044  0.4321
 1768TIP3    H126939   2.167   4.868   7.545  0.3613  0.3831  0.1769
 1768TIP3    H226940   2.116   4.988   7.622 -1.2500 -0.4938  0.5233
 1769TIP3   OH226941   5.307   0.058   1.716  0.3565 -0.0163 -0.4724
 1769TIP3    H126942   5.266   0.074   1.801 -0.2450  0.2030 -0.7995
 1769TIP3    H226943   5.340  -0.032   1.722 -0.8699 -0.4894 -0.4739
 1770TIP3   OH226944   4.563   6.519   2.402  0.1051  0.4331  0.0825
 1770TIP3    H126945   4.651   6.535   2.437  0.1157  1.9858 -0.5841
 1770TIP3    H226946   4.505   6.537   2.476  0.3263 -0.7023  0.5572
 1771TIP3   OH226947   5.538   0.341   8.898  0.3263  0.6039 -0.1456
 1771TIP3    H126948   5.623   0.369   8.930  0.3175 -1.6033  2.1364
 1771TIP3    H226949   5.522   0.257   8.942 -2.7316  0.5985 -1.0081
 1772TIP3   OH226950   3.807   6.556   0.400 -0.5210 -0.6758 -0.2835
 1772TIP3    H126951   3.741   6.624   0.414 -0.0702 -0.4018  0.6277
 1772TIP3    H226952   3.864   6.563   0.477 -0.0874 -1.6542 -0.5090
 1773TIP3   OH226953   5.547   0.019   0.247  0.2114  0.3060 -0.5451
 1773TIP3    H126954   5.568   0.091   0.307  1.0524 -0.7342  0.4874
 1773TIP3    H226955   5.547   0.058   0.160  1.2510  1.4334 -0.0627
 1774TIP3   OH226956   5.686   1.500   0.949 -0.5413 -0.0795 -0.1917
 1774TIP3    H126957   5.598   1.478   0.978 -0.6849  0.8306  0.0893
 1774TIP3    H226958   5.710   1.430   0.889 -1.9271  0.2862 -1.2042
 1775TIP3   OH226959   5.308   3.490   2.028  0.3955 -0.1536  0.0766
 1775TIP3    H126960   5.275   3.424   2.089  0.4356  0.4005  0.7081
 1775TIP3    H226961   5.248   3.564   2.039 -0.8198 -0.7518 -2.0164
 1776TIP3   OH226962   1.827   4.835   1.428  0.3926 -0.3365 -0.4327
 1776TIP3    H126963   1.917   4.853   1.401  0.1040  1.4666 -0.2929
 1776TIP3    H226964   1.793   4.777   1.359  1.4746 -0.5799 -0.7781
 1777TIP3   OH226965   0.315   0.997   0.412  0.3894 -0.0536 -0.2665
 1777TIP3    H126966   0.316   0.906   0.442 -0.2595 -0.2533 -0.8353
 1777TIP3    H226967   0.405   1.027   0.424  0.6734 -0.8599 -0.3324
 1778TIP3   OH226968   1.024   1.844   9.028  0.2828  0.6462  0.1579
 1778TIP3    H126969   1.020   1.776   8.961  1.9045 -0.2367  0.8861
 1778TIP3    H226970   0.972   1.810   9.101 -2.6438  2.2076 -1.0515
 1779TIP3   OH226971   3.981   5.253   1.121 -0.3637 -0.7358  0.2936
 1779TIP3    H126972   3.969   5.159   1.131  0.2424 -0.6659  2.0256
 1779TIP3    H226973   3.930   5.276   1.043 -0.4036 -2.5029 -0.2384
 1780TIP3   OH226974   2.126   1.577   0.069  0.2063 -0.2146  0.5419
 1780TIP3    H126975   2.217   1.604   0.087  0.2530  0.1394 -0.1727
 1780TIP3    H226976   2.135   1.502   0.011  0.0383  0.0803  0.1325
 1781TIP3   OH226977   2.810   0.470   1.953 -0.0972 -0.2126  0.1426
 1781TIP3    H126978   2.850   0.449   2.037  1.1376 -2.7099 -0.9641
 1781TIP3    H226979   2.864   0.424   1.889 -1.6369  0.7303 -1.9432
 1782TIP3   OH226980   2.945   4.518   7.486  0.4071 -0.1204 -0.6143
 1782TIP3    H126981   2.974   4.488   7.400 -0.7128  2.0593 -1.8346
 1782TIP3    H226982   3.000   4.594   7.505 -0.4780  0.4275 -0.1850
 1783TIP3   OH226983   2.198   2.407   8.773 -0.2266  0.2169 -0.2622
 1783TIP3    H126984   2.201   2.465   8.849 -0.3320  1.4111 -1.1419
 1783TIP3    H226985   2.105   2.399   8.752 -0.2505 -0.6569  0.1166
 1784TIP3   OH226986   6.192   0.140   8.887 -0.2018 -0.3784 -0.3308
 1784TIP3    H126987   6.134   0.077   8.844  1.4003 -1.2127 -1.3382
 1784TIP3    H226988   6.229   0.191   8.816  3.0448 -2.2402 -0.1558
 1785TIP3   OH226989   6.765   1.541   7.571  0.3479 -0.0988  0.1829
 1785TIP3    H126990   6.751   1.451   7.603  0.4208 -0.1986 -0.0653
 1785TIP3    H226991   6.690   1.590   7.605  0.5067 -0.1691  0.6410
 1786TIP3   OH226992   2.302   2.439   2.333  0.2109  0.4205 -0.0423
 1786TIP3    H126993   2.222   2.428   2.385  0.6045  1.8115  0.9045
 1786TIP3    H226994   2.357   2.364   2.357 -0.1935  0.2824  0.4668
 1787TIP3   OH226995   0.994   1.119   7.245  0.1907 -0.1874 -0.0392
 1787TIP3    H126996   1.017   1.210   7.263  0.3498 -0.1861 -0.2545
 1787TIP3    H226997   0.983   1.080   7.332 -0.6179  0.2213  0.0486
 1788TIP3   OH226998   4.518   4.101   1.565  0.6640  0.6344  0.0970
 1788TIP3    H126999   4.570   4.165   1.613  0.1014  0.1514  1.4022
 1788TIP3    H227000   4.505   4.140   1.478  2.2561  1.2425  0.1014
 1789TIP3   OH227001   3.062   4.463   8.967 -0.0277  0.1700 -0.0813
 1789TIP3    H127002   3.138   4.512   9.001 -0.5092  1.2906 -0.5865
 1789TIP3    H227003   2.988   4.496   9.017 -0.2675 -0.5873  0.0813
 1790TIP3   OH227004   6.370   4.953   1.175 -0.0858 -0.1157  0.2587
 1790TIP3    H127005   6.282   4.990   1.179  0.4546  1.1960  0.5898
 1790TIP3    H227006   6.373   4.907   1.091 -0.7077  0.8255 -0.2960
 1791TIP3   OH227007   0.146   5.900   7.263  0.1308 -0.0837  0.3333
 1791TIP3    H127008   0.161   5.813   7.226 -0.4680 -0.3475  0.7045
 1791TIP3    H227009   0.211   5.907   7.334  0.1913 -0.2192  0.2921
 1792TIP3   OH227010   6.006   2.241   0.382 -0.0204  0.5468  0.2858
 1792TIP3    H127011   6.078   2.184   0.355  0.3611  0.2056  1.8782
 1792TIP3    H227012   5.943   2.181   0.423 -0.9309  0.9255 -0.5371
 1793TIP3   OH227013   2.545   5.236   7.060  0.0588 -0.5762 -0.4297
 1793TIP3    H127014   2.495   5.205   6.984  0.5944 -0.6963 -0.7389
 1793TIP3    H227015   2.602   5.305   7.025 -0.5405  0.2121  0.0976
 1794TIP3   OH227016   4.840   0.415   1.274  0.5776  0.1758  0.5375
 1794TIP3    H127017   4.785   0.487   1.303 -0.2581  0.2546 -1.1393
 1794TIP3    H227018   4.792   0.336   1.300 -0.6829  0.2394 -1.4311
 1795TIP3   OH227019   5.361   0.000   1.355 -0.9980 -0.0944  0.5092
 1795TIP3    H127020   5.377  -0.055   1.279 -1.3549 -1.1574  1.1838
 1795TIP3    H227021   5.439   0.055   1.362 -0.9767  0.0443 -0.6361
 1796TIP3   OH227022   0.714   4.422   7.701 -0.1554 -0.1515  0.3014
 1796TIP3    H127023   0.784   4.422   7.767  0.8484 -2.8640 -0.6358
 1796TIP3    H227024   0.700   4.515   7.682  2.6917  0.5419  1.0481
 1797TIP3   OH227025   2.591   2.602   8.499 -0.0293  0.4253 -0.6211
 1797TIP3    H127026   2.576   2.525   8.445  0.0356 -0.4173  0.5366
 1797TIP3    H227027   2.519   2.661   8.477 -1.3493 -0.8775  0.0771
 1798TIP3   OH227028   3.098   2.867   8.592  0.6223 -0.0787 -0.6668
 1798TIP3    H127029   3.137   2.847   8.678  0.5667  2.1504 -0.0704
 1798TIP3    H227030   3.012   2.826   8.595  0.6246 -0.0434  0.3500
 1799TIP3   OH227031   6.733   5.089   8.407  0.0039  0.1129  0.1722
 1799TIP3    H127032   6.740   5.179   8.441  0.9870  1.4534 -3.0983
 1799TIP3    H227033   6.640   5.079   8.386 -0.3041 -0.0932  1.5434
 1800TIP3   OH227034   1.094   4.127   7.777 -0.5201 -0.4342 -0.2733
 1800TIP3    H127035   1.033   4.054   7.770 -1.9875  0.7095  0.0360
 1800TIP3    H227036   1.153   4.116   7.703 -1.7481 -1.0147 -1.2023
 1801TIP3   OH227037   1.635   4.825   7.356  0.2381 -0.0445  0.0375
 1801TIP3    H127038   1.625   4.852   7.265  0.6570 -0.7152 -0.2184
 1801TIP3    H227039   1.577   4.750   7.365 -0.0334  0.2063  0.4117
 1802TIP3   OH227040   6.651   4.740   1.523 -0.6109 -0.1520  0.1960
 1802TIP3    H127041   6.674   4.650   1.548  1.1380  0.0918 -0.3482
 1802TIP3    H227042   6.615   4.731   1.434 -0.6272 -0.3330  0.2201
 1803TIP3   OH227043   5.524   6.115   8.097 -0.0711  0.4683  0.4580
 1803TIP3    H127044   5.531   6.203   8.061  1.4176  0.0778 -0.2825
 1803TIP3    H227045   5.441   6.082   8.063  0.2236  0.9315 -0.7650
 1804TIP3   OH227046   3.949   6.399   2.219 -0.1258 -0.1601 -0.4737
 1804TIP3    H127047   3.917   6.388   2.308 -0.1869 -1.2061 -0.6074
 1804TIP3    H227048   4.030   6.347   2.217  0.4754  0.7719 -0.7130
 1805TIP3   OH227049   3.009   4.601   8.618 -0.3249  0.0768 -0.2050
 1805TIP3    H127050   3.058   4.598   8.700 -2.4364  1.3969  1.2242
 1805TIP3    H227051   2.990   4.510   8.597 -2.1173 -0.2209  2.3637
 1806TIP3   OH227052   4.785   5.769   8.004 -0.0004  0.3108  0.0918
 1806TIP3    H127053   4.867   5.721   7.991 -0.9639 -0.7147 -3.3210
 1806TIP3    H227054   4.728   5.707   8.050  0.9573  0.9206  2.1999
 1807TIP3   OH227055   0.907   2.925   8.561  0.4411 -0.2468  0.3403
 1807TIP3    H127056   0.865   2.882   8.636 -0.7537 -0.3135 -0.3545
 1807TIP3    H227057   0.884   3.018   8.571  0.2592 -0.2604  0.0354
 1808TIP3   OH227058   3.069   3.613   0.643 -0.4344 -0.7916  0.4260
 1808TIP3    H127059   2.984   3.630   0.602  0.6219 -0.4885 -1.7569
 1808TIP3    H227060   3.109   3.700   0.651  1.5985 -1.2291 -3.1101
 1809TIP3   OH227061   0.027   1.149   7.531 -0.1655  0.1607  0.6864
 1809TIP3    H127062  -0.063   1.150   7.562 -0.9227 -0.6951 -1.2847
 1809TIP3    H227063   0.074   1.208   7.590 -1.6368 -0.6175  2.7615
 1810TIP3   OH227064   6.579   0.025   8.973 -0.3849  0.1642  0.2030
 1810TIP3    H127065   6.611   0.088   8.908  0.2350 -0.3807 -0.0315
 1810TIP3    H227066   6.509  -0.022   8.929 -0.6980  0.5303  0.3025
 1811TIP3   OH227067   3.931   2.287   7.192  0.2299  0.2515  0.3041
 1811TIP3    H127068   4.020   2.265   7.165  0.3913  1.1217  0.0795
 1811TIP3    H227069   3.907   2.220   7.256  1.1012  0.0988  0.4745
 1812TIP3   OH227070   2.039   2.270   1.078  0.0578  0.1389  0.3726
 1812TIP3    H127071   1.989   2.326   1.020 -1.6750 -1.9621 -0.3081
 1812TIP3    H227072   2.086   2.330   1.136 -0.4013  2.2505 -1.3351
 1813TIP3   OH227073   5.931   3.109   6.934  0.4051 -0.3977 -0.2626
 1813TIP3    H127074   6.010   3.133   6.886  0.5637  0.0215  0.2022
 1813TIP3    H227075   5.864   3.169   6.900  0.7849  0.6838  0.8468
 1814TIP3   OH227076   4.416   6.641   1.839 -0.0901 -1.0258 -0.5736
 1814TIP3    H127077   4.324   6.623   1.818 -0.0893 -0.6733 -0.9010
 1814TIP3    H227078   4.412   6.689   1.922 -0.1880 -1.1555 -0.5014
 1815TIP3   OH227079   3.093   0.936   0.168  0.2013 -0.7467  0.0092
 1815TIP3    H127080   3.116   1.012   0.115  1.5879 -0.4830  0.9611
 1815TIP3    H227081   3.147   0.865   0.133 -2.0055 -1.6871 -1.7300
 1816TIP3   OH227082   4.511   0.737   0.000 -0.4312  0.7289  0.1664
 1816TIP3    H127083   4.500   0.675  -0.071  1.3286 -0.3834  0.8019
 1816TIP3    H227084   4.472   0.693   0.076 -2.7523  2.1106 -0.1166
 1817TIP3   OH227085   3.082   3.583   2.222  0.2244 -0.5752 -0.3818
 1817TIP3    H127086   3.059   3.619   2.137 -0.6587 -0.9757 -0.3228
 1817TIP3    H227087   3.000   3.545   2.255  0.2078  0.7472  1.2353
 1818TIP3   OH227088   1.443   4.516   2.339  0.2570 -0.1602  0.4686
 1818TIP3    H127089   1.368   4.571   2.315  1.6249  0.5025 -2.7518
 1818TIP3    H227090   1.404   4.443   2.389 -2.1156  1.5407  1.2876
 1819TIP3   OH227091   4.995   4.996   7.453 -0.0134 -0.1227 -0.2744
 1819TIP3    H127092   4.968   5.087   7.445 -0.5973 -0.2498  0.1281
 1819TIP3    H227093   4.985   4.960   7.365  0.2819  0.2166 -0.4475
 1820TIP3   OH227094   1.455   1.260   0.455 -0.3712  0.8402 -0.9800
 1820TIP3    H127095   1.388   1.296   0.397 -2.8367  1.1592  1.7832
 1820TIP3    H227096   1.478   1.333   0.513  0.8368  0.1643 -0.5655
 1821TIP3   OH227097   0.096   5.368   0.752 -0.4316  0.0959 -0.6744
 1821TIP3    H127098   0.047   5.312   0.692 -0.2073 -2.1140  1.0803
 1821TIP3    H227099   0.042   5.373   0.831  1.1268 -0.6012  0.4939
 1822TIP3   OH227100   6.031   6.387   6.737 -0.6081  0.0580  0.8381
 1822TIP3    H127101   6.112   6.339   6.753 -1.5244 -1.5854  0.7591
 1822TIP3    H227102   6.026   6.451   6.809  1.8600  1.8107 -0.4133
 1823TIP3   OH227103   5.982   2.624   1.222 -0.1806  0.0600 -0.6868
 1823TIP3    H127104   6.028   2.681   1.285  0.7606 -1.0277 -0.3623
 1823TIP3    H227105   5.932   2.685   1.167 -0.2669  1.1087  0.4992
 1824TIP3   OH227106   5.355   0.937   0.820 -0.1091 -0.2606 -0.0769
 1824TIP3    H127107   5.391   0.889   0.895  0.6246  0.5884  0.1205
 1824TIP3    H227108   5.425   0.936   0.755  0.3503  1.4734  0.3446
 1825TIP3   OH227109   3.024   6.499   2.150  0.2084  0.0680 -0.2814
 1825TIP3    H127110   2.932   6.526   2.147  0.4852  1.0841 -0.0171
 1825TIP3    H227111   3.072   6.580   2.168  1.1804 -0.4099 -0.6711
 1826TIP3   OH227112   6.726   4.602   8.505 -0.1079  0.2692 -0.7068
 1826TIP3    H127113   6.655   4.604   8.569 -0.4152  0.3668 -1.0530
 1826TIP3    H227114   6.756   4.693   8.501  0.5925  0.0852  0.0568
 1827TIP3   OH227115   0.428   1.245   0.612 -0.3582 -0.2382  0.4998
 1827TIP3    H127116   0.467   1.175   0.664  2.5965  1.3622  0.6566
 1827TIP3    H227117   0.407   1.313   0.675  0.4504  0.5269 -0.0335
 1828TIP3   OH227118   2.686   1.120   0.608 -0.0780  0.2493 -0.2207
 1828TIP3    H127119   2.733   1.198   0.578 -0.6209  0.4674 -0.5093
 1828TIP3    H227120   2.698   1.056   0.538 -1.5894  0.8542 -1.0685
 1829TIP3   OH227121   0.396   6.659   8.059 -0.0594  0.1281  0.0361
 1829TIP3    H127122   0.431   6.641   8.146 -0.5815  2.4131  0.7855
 1829TIP3    H227123   0.467   6.701   8.012  0.4838 -1.8030 -0.9867
 1830TIP3   OH227124   5.113   3.390   0.527 -0.0700  0.3035 -0.4512
 1830TIP3    H127125   5.038   3.334   0.544 -1.0485  1.3301 -1.2611
 1830TIP3    H227126   5.171   3.335   0.473 -0.4197 -0.3443 -0.1847
 1831TIP3   OH227127   2.914   5.690   8.709  0.3266 -0.2316 -0.2774
 1831TIP3    H127128   2.820   5.668   8.709  0.4890 -1.0801  1.2087
 1831TIP3    H227129   2.917   5.779   8.743  0.1401 -0.8237  1.3722
 1832TIP3   OH227130   0.728   1.307   1.349 -0.8279  0.4926  0.2697
 1832TIP3    H127131   0.688   1.281   1.266 -0.1089  0.9087 -0.2134
 1832TIP3    H227132   0.799   1.244   1.361 -0.9889  0.3769  0.6170
 1833TIP3   OH227133   2.483   3.141   0.242  0.7491  0.3896 -0.3809
 1833TIP3    H127134   2.532   3.115   0.165  0.7491  1.1646 -0.6499
 1833TIP3    H227135   2.419   3.071   0.255  1.2866 -0.1393 -0.6024
 1834TIP3   OH227136   4.424   0.026   1.582  0.3701 -0.3871 -0.6793
 1834TIP3    H127137   4.454   0.116   1.564  0.4914 -0.6158 -1.7007
 1834TIP3    H227138   4.435   0.015   1.676 -0.0769  0.8287 -0.4711
 1835TIP3   OH227139   3.134   6.153   0.079  0.0175  0.5503  0.4057
 1835TIP3    H127140   3.202   6.209   0.043  0.3778  0.9034  1.5962
 1835TIP3    H227141   3.097   6.108   0.003  0.8416  1.1628 -0.3737
 1836TIP3   OH227142   3.691   0.584   0.147  0.5632 -0.7868 -0.2624
 1836TIP3    H127143   3.711   0.602   0.055  0.1797 -1.5635 -0.5063
 1836TIP3    H227144   3.748   0.643   0.196  2.2132 -1.7397 -0.9614
 1837TIP3   OH227145   6.296   4.312   1.744 -0.3832  0.5577  0.2220
 1837TIP3    H127146   6.249   4.394   1.734 -0.5499  0.5724  1.0640
 1837TIP3    H227147   6.287   4.290   1.836  0.3803  0.0245  0.1807
 1838TIP3   OH227148   4.660   6.228   0.178  0.1364  0.1836 -0.4716
 1838TIP3    H127149   4.731   6.172   0.209  0.5647  1.7803  1.7068
 1838TIP3    H227150   4.631   6.188   0.096  2.3030 -1.5520 -0.4759
 1839TIP3   OH227151   6.060   2.827   8.095  0.1346 -0.2537  0.1448
 1839TIP3    H127152   6.009   2.885   8.038 -1.6260 -1.0565  0.8263
 1839TIP3    H227153   6.057   2.741   8.052  0.0147 -0.5465  0.7167
 1840TIP3   OH227154   2.516   1.162   8.303 -0.1720  0.1161 -0.2511
 1840TIP3    H127155   2.565   1.150   8.384  0.7877  0.2477 -0.7987
 1840TIP3    H227156   2.583   1.177   8.236 -0.8637 -1.3040 -1.3182
 1841TIP3   OH227157   4.253   6.285   2.413 -0.0005  0.2768 -0.2590
 1841TIP3    H127158   4.300   6.203   2.428 -2.2303 -0.7559  1.7341
 1841TIP3    H227159   4.184   6.261   2.352  1.3111  1.5334 -2.3361
 1842TIP3   OH227160   5.939   1.347   1.011  0.0017 -0.3667  0.5255
 1842TIP3    H127161   5.919   1.367   1.103  1.2050 -0.3588  0.8046
 1842TIP3    H227162   5.984   1.425   0.980 -0.1724 -0.4755  0.0033
 1843TIP3   OH227163   4.663   3.312   2.330 -0.7942  0.2766  0.0390
 1843TIP3    H127164   4.627   3.271   2.409  1.6318  0.8258  1.5226
 1843TIP3    H227165   4.641   3.405   2.338 -0.4036  0.3601  0.1556
 1844TIP3   OH227166   2.630   6.386   2.321  0.4951 -0.2005  0.2990
 1844TIP3    H127167   2.577   6.390   2.400  1.7112 -0.8716  1.1697
 1844TIP3    H227168   2.710   6.341   2.347  1.2722  0.2888 -1.1102
 1845TIP3   OH227169   5.051   2.745   8.723 -0.0057 -0.1725 -0.8588
 1845TIP3    H127170   5.026   2.753   8.631 -1.1107 -0.0998 -0.5727
 1845TIP3    H227171   4.968   2.727   8.768  0.2641  1.4074  0.3318
 1846TIP3   OH227172   5.970   4.111   0.576  0.3287  0.3018  0.6149
 1846TIP3    H127173   5.953   4.030   0.529 -1.9642  1.7806 -1.3797
 1846TIP3    H227174   5.977   4.178   0.507  1.6655  1.8951  2.1985
 1847TIP3   OH227175   2.345   4.767   0.940 -0.0695  0.1125  0.0733
 1847TIP3    H127176   2.432   4.748   0.975  0.7838  0.0233 -1.9796
 1847TIP3    H227177   2.329   4.859   0.964  1.3161  0.6428 -0.9210
 1848TIP3   OH227178   6.258   3.979   0.990  0.5658 -0.9496  0.4293
 1848TIP3    H127179   6.195   4.009   0.925 -1.2865 -2.9259  1.2057
 1848TIP3    H227180   6.343   3.982   0.945 -0.1145  1.2031 -0.8420
 1849TIP3   OH227181   5.583   2.111   8.703 -0.2707  0.6189  0.1248
 1849TIP3    H127182   5.655   2.105   8.766 -0.7830 -2.4106  0.6030
 1849TIP3    H227183   5.544   2.023   8.703 -2.4548  1.4720 -1.9120
 1850TIP3   OH227184   5.475   2.360   2.390 -0.6461 -0.1854  0.0107
 1850TIP3    H127185   5.446   2.379   2.480  2.8437  0.2039  1.2005
 1850TIP3    H227186   5.489   2.446   2.350  0.9365 -0.2890  0.2795
 1851TIP3   OH227187   4.364   4.942   7.759 -0.5247  0.3455 -0.0433
 1851TIP3    H127188   4.332   5.015   7.813  1.5052  1.3454 -0.1097
 1851TIP3    H227189   4.456   4.932   7.783 -0.2388 -0.8813 -1.4892
 1852TIP3   OH227190   1.503   4.265   8.432  0.2071  0.1671  0.4229
 1852TIP3    H127191   1.493   4.181   8.476  0.5523 -0.8136 -1.2997
 1852TIP3    H227192   1.598   4.279   8.428  0.2492 -0.3728 -1.0640
 1853TIP3   OH227193   3.818   2.888   0.373 -0.2092  0.4664  0.5160
 1853TIP3    H127194   3.884   2.829   0.337 -0.2602  1.6947 -1.7998
 1853TIP3    H227195   3.846   2.975   0.343 -2.5702  1.0820 -0.0927
 1854TIP3   OH227196   4.510   3.724   1.685 -0.2045 -0.5286  0.7800
 1854TIP3    H127197   4.444   3.678   1.634 -0.2335 -1.4538  1.6267
 1854TIP3    H227198   4.591   3.676   1.669  0.1167  0.1350  0.3633
 1855TIP3   OH227199   4.926   1.661   1.750  0.1504 -0.5648 -0.2475
 1855TIP3    H127200   4.866   1.734   1.734  1.0134 -0.1472 -1.7892
 1855TIP3    H227201   4.873   1.583   1.735 -1.1143 -0.3851  2.5696
 1856TIP3   OH227202   3.915   0.143   6.811  0.4040 -0.1445  0.0132
 1856TIP3    H127203   3.998   0.107   6.782  0.2882  0.8705 -1.7511
 1856TIP3    H227204   3.849   0.093   6.763  0.2218  1.8797 -2.0342
 1857TIP3   OH227205   0.990   5.465   7.991 -0.1771  0.1933  0.3730
 1857TIP3    H127206   1.011   5.532   8.057 -1.4061  0.5694  0.4046
 1857TIP3    H227207   0.944   5.512   7.922 -2.5432 -0.8249  1.1426
 1858TIP3   OH227208   4.904   5.264   8.985  0.6383 -0.1187  0.4748
 1858TIP3    H127209   4.964   5.191   9.000  0.7107 -0.2488 -0.4355
 1858TIP3    H227210   4.817   5.229   9.004  0.6974 -0.3716  0.2771
 1859TIP3   OH227211   6.281   4.977   7.084  0.2231  0.0988 -0.4912
 1859TIP3    H127212   6.242   4.904   7.036 -2.6130  0.1506  1.4988
 1859TIP3    H227213   6.320   4.937   7.161 -0.6769  0.5634  0.2271
 1860TIP3   OH227214   1.336   1.388   1.190 -0.6746 -0.5719 -0.1519
 1860TIP3    H127215   1.275   1.414   1.121  0.8604 -1.4294 -1.9298
 1860TIP3    H227216   1.422   1.416   1.159  0.1615 -1.6706  1.0329
 1861TIP3   OH227217   6.677   5.213   8.866 -0.2155 -0.2551 -0.2625
 1861TIP3    H127218   6.761   5.206   8.911 -0.7954 -2.5572  0.6063
 1861TIP3    H227219   6.612   5.204   8.936 -1.1726 -0.2963 -1.1365
 1862TIP3   OH227220   5.194   2.485   2.026 -0.2000 -0.6683  0.0387
 1862TIP3    H127221   5.156   2.401   2.052 -1.7998 -0.8742 -2.6026
 1862TIP3    H227222   5.285   2.481   2.058 -0.1247 -3.5322 -0.2484
 1863TIP3   OH227223   2.743   6.266   8.795  0.3240  0.0928 -0.4250
 1863TIP3    H127224   2.805   6.277   8.867  0.7696  1.9682 -1.0450
 1863TIP3    H227225   2.689   6.192   8.821  2.2573 -1.0607  0.5353
 1864TIP3   OH227226   0.029   0.817   8.151  0.3891  0.1079  0.1854
 1864TIP3    H127227  -0.014   0.853   8.074  1.0816 -0.4622 -0.4807
 1864TIP3    H227228   0.083   0.745   8.117  0.3933 -0.4109  1.2485
 1865TIP3   OH227229   3.419   0.194   0.842 -0.5059  0.2231 -0.0286
 1865TIP3    H127230   3.460   0.274   0.874 -1.9986  0.1868  2.1729
 1865TIP3    H227231   3.481   0.124   0.862 -0.1745  0.5578  0.1024
 1866TIP3   OH227232   1.500   4.607   7.390 -0.5733  0.2413  0.2172
 1866TIP3    H127233   1.488   4.545   7.318  2.7769  1.9661 -2.0924
 1866TIP3    H227234   1.556   4.561   7.453 -0.8922 -0.1831  0.1961
 1867TIP3   OH227235   2.156   6.639   1.398  0.3300 -0.5118  0.0490
 1867TIP3    H127236   2.069   6.602   1.412  0.3989 -0.4941  0.5535
 1867TIP3    H227237   2.140   6.725   1.362  0.0755  0.1354  1.6063
 1868TIP3   OH227238   3.059   0.464   0.697  0.1408 -0.0977  0.4457
 1868TIP3    H127239   2.971   0.500   0.705 -0.5090 -1.8768  2.1581
 1868TIP3    H227240   3.095   0.467   0.786  1.9674  0.8838 -0.2761
 1869TIP3   OH227241   3.277   4.961   2.108  0.3034 -0.1133  0.1187
 1869TIP3    H127242   3.188   4.970   2.142  0.3578  0.8139  0.0229
 1869TIP3    H227243   3.280   5.019   2.032  1.7050  1.8237  1.5438
 1870TIP3   OH227244   2.344   0.903   8.904 -0.4254  0.1855  0.3464
 1870TIP3    H127245   2.423   0.855   8.880 -0.6008 -0.0563  0.2573
 1870TIP3    H227246   2.272   0.841   8.892 -0.8034  0.8452 -1.0349
 1871TIP3   OH227247   5.947   4.536   1.669  0.1636  0.4524 -0.5432
 1871TIP3    H127248   6.032   4.512   1.704 -0.7183  0.4476  1.7756
 1871TIP3    H227249   5.895   4.561   1.745 -1.6300  1.4043 -1.9700
 1872TIP3   OH227250   3.259   0.243   8.952  0.2038  0.3340 -0.4332
 1872TIP3    H127251   3.204   0.304   9.001  0.9085  0.4077  0.2710
 1872TIP3    H227252   3.289   0.180   9.017  1.4952  0.6759 -0.6684
 1873TIP3   OH227253   4.417   2.872   2.760  0.1548 -0.2475 -0.0156
 1873TIP3    H127254   4.465   2.793   2.784 -1.8763 -1.7903 -0.7151
 1873TIP3    H227255   4.424   2.929   2.836  2.2910 -0.7645  0.2289
 1874TIP3   OH227256   2.500   1.943   8.446 -0.3891 -0.4022  0.0030
 1874TIP3    H127257   2.576   1.942   8.387 -0.9389 -0.5433 -0.7236
 1874TIP3    H227258   2.497   1.855   8.483  1.3781  0.3530  2.1488
 1875TIP3   OH227259   1.243   2.349   0.352 -0.0876 -0.3092  0.9011
 1875TIP3    H127260   1.276   2.283   0.291 -0.3161 -0.2786  0.7429
 1875TIP3    H227261   1.167   2.387   0.308  0.4678  0.5728  0.6604
 1876TIP3   OH227262   2.191   4.097   2.285 -0.2140 -0.7781  0.2218
 1876TIP3    H127263   2.113   4.141   2.319 -1.0938 -2.6462  0.7322
 1876TIP3    H227264   2.255   4.106   2.356 -0.9801 -1.8440  1.0727
 1877TIP3   OH227265   6.279   6.003   7.445 -0.5496  0.4119 -0.4802
 1877TIP3    H127266   6.187   5.977   7.440 -0.6618  1.0006 -2.6818
 1877TIP3    H227267   6.325   5.935   7.397  0.1590  0.2013  0.4848
 1878TIP3   OH227268   3.037   2.709   1.693  0.1050 -0.1156 -0.3118
 1878TIP3    H127269   3.074   2.740   1.776 -1.9852 -0.2106  0.7170
 1878TIP3    H227270   3.113   2.696   1.637  1.5137  0.9790  1.2270
 1879TIP3   OH227271   1.938   3.490   7.247 -0.2480  0.4034  0.1316
 1879TIP3    H127272   1.924   3.473   7.154 -2.1822 -3.1191  0.8896
 1879TIP3    H227273   1.976   3.578   7.250 -5.1976  3.2370 -3.7031
 1880TIP3   OH227274   4.509   2.903   1.418  0.1671  0.2152  0.0204
 1880TIP3    H127275   4.456   2.980   1.398 -0.6881 -0.2333  0.5004
 1880TIP3    H227276   4.514   2.855   1.336 -1.3130 -0.4151  0.2784
 1881TIP3   OH227277   4.624   5.640   0.452  0.4033  0.4833 -0.1423
 1881TIP3    H127278   4.632   5.601   0.539  2.6286  0.8210 -0.1434
 1881TIP3    H227279   4.608   5.567   0.394  2.2773 -0.2291  0.1568
 1882TIP3   OH227280   4.823   5.204   0.654 -0.1147  0.0933 -0.3196
 1882TIP3    H127281   4.813   5.169   0.565  0.2757 -0.9021  0.0046
 1882TIP3    H227282   4.868   5.133   0.701 -2.3696 -0.3617  1.2824
 1883TIP3   OH227283   1.475   6.549   8.085  0.2979 -0.7137  0.3065
 1883TIP3    H127284   1.510   6.575   7.999 -1.4483  0.3223 -0.1449
 1883TIP3    H227285   1.483   6.628   8.139 -1.5221 -0.3400  0.0930
 1884TIP3   OH227286   6.015   5.450   0.547  0.3510 -0.2905  0.1473
 1884TIP3    H127287   6.024   5.545   0.538  0.1211 -0.4532 -2.8967
 1884TIP3    H227288   6.102   5.419   0.572  0.6573  0.6507  0.2627
 1885TIP3   OH227289   0.574   3.505   0.705 -0.4466 -0.0197  0.6274
 1885TIP3    H127290   0.527   3.532   0.626  1.3188  1.0983 -0.0957
 1885TIP3    H227291   0.653   3.558   0.705 -0.6637  0.4693  3.4972
 1886TIP3   OH227292   6.559   4.978   1.631 -0.3213 -0.0996  0.0390
 1886TIP3    H127293   6.551   4.968   1.726  1.5153  1.1914  0.3789
 1886TIP3    H227294   6.588   4.893   1.599 -1.1360 -0.5974  0.5907
 1887TIP3   OH227295   0.520   5.820   1.431 -0.8447 -0.3062  0.1534
 1887TIP3    H127296   0.469   5.792   1.507 -0.4910  1.8963  1.2707
 1887TIP3    H227297   0.455   5.849   1.367 -1.0909  1.9843  1.3674
 1888TIP3   OH227298   1.148   4.791   8.435 -0.1445  0.1327 -0.1874
 1888TIP3    H127299   1.194   4.800   8.518 -0.6792 -1.8094  0.3802
 1888TIP3    H227300   1.217   4.794   8.368  0.4618  0.1474  0.4348
 1889TIP3   OH227301   5.563   0.087   2.054 -0.0059 -0.2685  0.7393
 1889TIP3    H127302   5.574  -0.005   2.076  1.2696 -0.5207 -0.7687
 1889TIP3    H227303   5.468   0.097   2.041  0.0201 -1.9532 -1.2442
 1890TIP3   OH227304   6.178   6.147   6.884  0.0327 -0.6086 -0.1398
 1890TIP3    H127305   6.247   6.185   6.938 -1.9975  1.9484  0.8695
 1890TIP3    H227306   6.204   6.167   6.794  1.1325 -0.7287  0.1289
 1891TIP3   OH227307   3.117   3.790   7.870 -1.2528 -0.5271  0.1718
 1891TIP3    H127308   3.107   3.694   7.872  1.2972 -0.8541 -0.0114
 1891TIP3    H227309   3.210   3.804   7.856 -1.8552  1.9944 -2.2377
 1892TIP3   OH227310   0.528   2.580   7.762 -0.2977 -0.1647 -0.5837
 1892TIP3    H127311   0.536   2.663   7.808 -0.6570  0.0915 -0.9686
 1892TIP3    H227312   0.549   2.601   7.671 -0.3483 -0.5018 -0.6751
 1893TIP3   OH227313   6.478   4.287   7.926  0.1208 -0.3234  0.4008
 1893TIP3    H127314   6.438   4.219   7.980 -0.3608  0.4197  0.9950
 1893TIP3    H227315   6.518   4.240   7.853  1.0746 -1.3820  1.5718
 1894TIP3   OH227316   2.651   5.179   1.976 -0.2200 -0.0294 -0.0541
 1894TIP3    H127317   2.566   5.145   2.005  0.0840 -0.9083 -0.1849
 1894TIP3    H227318   2.706   5.176   2.054 -0.3290  0.6443  0.0581
 1895TIP3   OH227319   5.469   5.505   7.711  0.0594 -0.6352 -0.3767
 1895TIP3    H127320   5.385   5.516   7.667  1.1013 -0.2406 -2.3877
 1895TIP3    H227321   5.480   5.411   7.719 -1.2339 -0.7065  1.3890
 1896TIP3   OH227322   4.784   1.262   0.585 -0.9117  0.2440  0.7146
 1896TIP3    H127323   4.798   1.347   0.545 -0.3930 -0.7146 -1.3024
 1896TIP3    H227324   4.869   1.217   0.576 -1.2511 -0.5786  1.4629
 1897TIP3   OH227325   0.221   4.768   7.269  0.1580 -0.3722  0.3719
 1897TIP3    H127326   0.239   4.674   7.261 -0.5772 -0.3570 -2.4134
 1897TIP3    H227327   0.150   4.784   7.208  0.6943  2.1162  0.3093
 1898TIP3   OH227328   3.049   5.940   8.412  0.2963  0.4244 -0.4690
 1898TIP3    H127329   3.005   5.905   8.335 -1.1169 -0.3371  0.6457
 1898TIP3    H227330   3.071   6.030   8.389 -0.7567  0.4310 -1.4969
 1899TIP3   OH227331   6.319   0.978   0.473 -0.3744  0.5978 -0.2231
 1899TIP3    H127332   6.321   0.883   0.488 -0.8445  0.2668 -2.1170
 1899TIP3    H227333   6.394   1.011   0.523 -1.7616 -0.3493  2.7720
 1900TIP3   OH227334   3.842   5.036   8.490  0.2569  0.0641 -0.5556
 1900TIP3    H127335   3.863   5.024   8.397  1.1755  1.4943 -0.5747
 1900TIP3    H227336   3.769   5.097   8.490 -1.1384 -1.5607 -0.3639
 1901TIP3   OH227337   1.306   3.312   8.160 -0.4426 -0.4876 -0.0957
 1901TIP3    H127338   1.264   3.397   8.172  0.3821  0.4298 -2.8777
 1901TIP3    H227339   1.244   3.249   8.196 -2.5975  1.0663 -0.8387
 1902TIP3   OH227340   3.386   5.543   8.273  0.7012 -0.4747 -0.1991
 1902TIP3    H127341   3.384   5.509   8.363  0.4669 -1.5427 -0.5920
 1902TIP3    H227342   3.379   5.638   8.283  0.0487 -0.6176  0.8809
 1903TIP3   OH227343   6.761   1.812   7.196  1.0811  0.1198  0.1015
 1903TIP3    H127344   6.773   1.759   7.275 -0.2392 -2.2048 -1.1253
 1903TIP3    H227345   6.841   1.799   7.146  1.5259  0.8167  0.6248
 1904TIP3   OH227346   4.590   0.921   1.296 -0.2183  0.3277 -0.0287
 1904TIP3    H127347   4.521   0.946   1.235 -0.1715 -0.6378 -0.4995
 1904TIP3    H227348   4.671   0.951   1.255 -0.2519  0.3198 -0.1006
 1905TIP3   OH227349   2.639   1.960   1.285 -0.1048 -0.2730 -0.2646
 1905TIP3    H127350   2.572   1.963   1.216  1.0548 -0.1530 -1.4255
 1905TIP3    H227351   2.709   2.016   1.253 -0.3811  1.5118  1.9954
 1906TIP3   OH227352   1.732   6.563   0.640 -0.1883 -0.1995 -0.4287
 1906TIP3    H127353   1.637   6.565   0.629 -0.3151 -1.4086  0.2795
 1906TIP3    H227354   1.762   6.647   0.605 -1.7665  1.2939  1.5141
 1907TIP3   OH227355   4.851   4.554   7.893 -0.3335  0.2241 -0.6012
 1907TIP3    H127356   4.808   4.470   7.909  1.9059 -0.6576  1.4414
 1907TIP3    H227357   4.942   4.531   7.875  0.6478  2.2137  1.3491
 1908TIP3   OH227358   4.709   4.912   0.225  0.3996  0.0988  0.6527
 1908TIP3    H127359   4.793   4.893   0.184 -0.4001 -1.7118 -0.2751
 1908TIP3    H227360   4.645   4.905   0.154 -0.4172  3.2672  0.9217
 1909TIP3   OH227361   3.740   2.109   7.389  0.3801 -0.1846  0.0614
 1909TIP3    H127362   3.716   2.198   7.365 -2.0192 -1.1047 -1.3431
 1909TIP3    H227363   3.689   2.090   7.468 -0.6384 -0.9001 -0.7388
 1910TIP3   OH227364   4.948   2.221   1.427 -0.4178 -0.3853  0.7550
 1910TIP3    H127365   5.030   2.257   1.392 -0.4177 -0.6477  0.4791
 1910TIP3    H227366   4.898   2.197   1.349 -1.2441  0.8237  0.8878
 1911TIP3   OH227367   3.966   4.748   7.895  0.8590 -0.2400 -0.1087
 1911TIP3    H127368   4.056   4.729   7.869  1.1142 -0.6134  0.9696
 1911TIP3    H227369   3.965   4.732   7.990  0.1832  1.7863  0.2758
 1912TIP3   OH227370   2.440   4.228   0.100  0.3494 -0.1165 -0.4411
 1912TIP3    H127371   2.354   4.185   0.103  1.1786 -1.9256 -1.1405
 1912TIP3    H227372   2.502   4.155   0.095  1.9839  1.1275  0.8734
 1913TIP3   OH227373   6.188   0.121   1.549 -0.4562 -0.0142 -0.4337
 1913TIP3    H127374   6.169   0.062   1.476 -1.7557 -0.5453  0.3129
 1913TIP3    H227375   6.125   0.098   1.616  0.9016  0.2591  1.0047
 1914TIP3   OH227376   6.413   0.986   0.870 -0.1866 -0.6109 -0.1181
 1914TIP3    H127377   6.351   1.057   0.854  2.0382  1.5145  0.1228
 1914TIP3    H227378   6.451   0.968   0.784  1.4513  0.7378  0.2626
 1915TIP3   OH227379   2.809   5.903   0.453  0.0057  0.2266 -0.3931
 1915TIP3    H127380   2.883   5.842   0.456  0.1539  0.4348  0.7509
 1915TIP3    H227381   2.809   5.936   0.363  1.1382  0.0190 -0.4879
 1916TIP3   OH227382   4.213   2.259   7.112 -0.2168  0.3664 -0.4087
 1916TIP3    H127383   4.241   2.205   7.038  1.0425 -0.3400  0.5322
 1916TIP3    H227384   4.265   2.226   7.186  1.3756  3.5095  0.0446
 1917TIP3   OH227385   4.651   5.528   1.371 -0.2981 -0.3051  0.2837
 1917TIP3    H127386   4.714   5.456   1.376  1.2042  1.0137  1.1429
 1917TIP3    H227387   4.566   5.485   1.375  0.5094 -2.1349 -0.7193
 1918TIP3   OH227388   5.516   5.766   1.184 -0.5681 -0.2294 -0.1520
 1918TIP3    H127389   5.431   5.798   1.215  0.1925  3.3097 -1.2611
 1918TIP3    H227390   5.576   5.784   1.256  0.1342  2.4708 -1.3150
 1919TIP3   OH227391   4.691   1.077   1.499  0.2443  0.1458 -0.1030
 1919TIP3    H127392   4.642   1.026   1.564 -2.2865  0.9167 -1.2858
 1919TIP3    H227393   4.667   1.038   1.415  1.4785  0.7403 -0.7508
 1920TIP3   OH227394   0.922   2.698   0.130  0.1195  0.0116  0.4010
 1920TIP3    H127395   1.007   2.742   0.129  0.7366 -1.1341  0.1388
 1920TIP3    H227396   0.878   2.727   0.051  1.4579 -1.5540 -0.9957
 1921TIP3   OH227397   2.344   3.885   8.622 -0.1753 -0.0393  0.3803
 1921TIP3    H127398   2.324   3.853   8.710  0.8426 -0.6194  0.4179
 1921TIP3    H227399   2.439   3.875   8.614 -0.3893 -1.3232 -1.2757
 1922TIP3   OH227400   4.895   5.263   2.563  0.2375 -0.6089  0.1442
 1922TIP3    H127401   4.803   5.261   2.588  0.4341 -0.8817  0.8564
 1922TIP3    H227402   4.898   5.324   2.489 -0.8274 -2.1039 -1.2212
 1923TIP3   OH227403   0.052   1.323   7.943  0.2075 -0.8981 -0.0432
 1923TIP3    H127404   0.084   1.385   8.009 -0.6861 -0.1519 -0.2854
 1923TIP3    H227405   0.124   1.262   7.930  0.4884 -0.9224  1.4576
 1924TIP3   OH227406   6.609   1.664   0.947 -0.3206 -0.7171  0.7899
 1924TIP3    H127407   6.527   1.619   0.929 -0.5447  0.3409 -1.1059
 1924TIP3    H227408   6.591   1.714   1.027 -2.1042  0.7382 -0.4377
 1925TIP3   OH227409   5.011   5.611   6.910  0.4846 -0.0350 -0.5511
 1925TIP3    H127410   4.979   5.526   6.882 -0.0737 -0.2601  0.6952
 1925TIP3    H227411   4.940   5.672   6.889  0.2719 -0.1244 -0.1065
 1926TIP3   OH227412   6.670   6.562   0.427  0.1847 -0.2448 -0.4174
 1926TIP3    H127413   6.676   6.467   0.425  0.8698 -0.2030 -0.8147
 1926TIP3    H227414   6.734   6.591   0.362  0.3830  0.5059  0.1045
 1927TIP3   OH227415   1.561   6.763   0.021  0.1935  0.5614  0.6654
 1927TIP3    H127416   1.625   6.749   0.090 -1.1156  0.5851  1.9292
 1927TIP3    H227417   1.607   6.741  -0.060  0.8180 -2.6346  1.7748
 1928TIP3   OH227418   1.236   5.419   7.573 -0.0911  0.1268 -0.1700
 1928TIP3    H127419   1.294   5.347   7.600  0.5715  0.4993 -0.5823
 1928TIP3    H227420   1.283   5.463   7.503  0.4215  2.1972  1.3930
 1929TIP3   OH227421   3.661   0.016   0.910 -0.3151 -0.0815  0.3952
 1929TIP3    H127422   3.645  -0.076   0.891 -0.3386 -0.1036  0.5152
 1929TIP3    H227423   3.755   0.021   0.928 -0.1222  0.1122 -0.6572
 1930TIP3   OH227424   1.779   5.869   1.633 -0.1877  0.0263 -0.4745
 1930TIP3    H127425   1.718   5.796   1.634 -0.0355 -0.1317  1.3873
 1930TIP3    H227426   1.833   5.855   1.555 -0.1596 -1.8472 -0.1661
 1931TIP3   OH227427   4.209   0.855   7.782 -0.1663  0.1886 -0.6067
 1931TIP3    H127428   4.221   0.765   7.813 -1.0439  0.4088  0.4451
 1931TIP3    H227429   4.227   0.851   7.688  1.9009 -0.6563 -0.2272
 1932TIP3   OH227430   2.026   1.968   0.184 -1.2189  0.3533 -0.2054
 1932TIP3    H127431   1.999   1.894   0.238  0.1027  0.0082  0.0114
 1932TIP3    H227432   2.058   2.033   0.246  0.4680 -0.1126 -0.5550
 1933TIP3   OH227433   4.522   3.296   1.211 -0.0344  0.3946 -0.1499
 1933TIP3    H127434   4.434   3.302   1.175  1.1192  1.0903 -3.0796
 1933TIP3    H227435   4.512   3.241   1.289 -2.8707 -0.3490 -0.9386
 1934TIP3   OH227436   1.743   1.087   3.282 -0.0688  0.0069 -0.0510
 1934TIP3    H127437   1.707   1.058   3.198  1.0369 -1.5244 -0.0214
 1934TIP3    H227438   1.755   1.007   3.333 -0.9694  0.9337  1.7063
 1935TIP3   OH227439   2.429   5.908   1.892  0.1043  0.3842 -0.1298
 1935TIP3    H127440   2.423   5.924   1.798  1.0038  1.0946 -0.0854
 1935TIP3    H227441   2.376   5.977   1.931  0.4009  0.6021 -0.1005
 1936TIP3   OH227442   3.533   0.468   1.786  0.0279  0.0319 -0.1150
 1936TIP3    H127443   3.483   0.512   1.854  1.7008  0.6259  0.7823
 1936TIP3    H227444   3.505   0.510   1.705 -2.0670 -0.7571  0.1397
 1937TIP3   OH227445   6.317   5.875   1.263 -0.1602 -0.6078 -0.3319
 1937TIP3    H127446   6.249   5.915   1.317  0.5366 -0.3759  0.3841
 1937TIP3    H227447   6.291   5.783   1.255 -0.3405 -0.6131  0.2928
 1938TIP3   OH227448   5.746   5.711   7.886 -0.1278 -0.4638  0.0089
 1938TIP3    H127449   5.830   5.674   7.858 -0.7220 -1.4794 -0.4935
 1938TIP3    H227450   5.722   5.661   7.963  1.2908  2.0488  2.2639
 1939TIP3   OH227451   1.989   1.080   0.454  0.2710 -0.4889  0.2034
 1939TIP3    H127452   1.912   1.092   0.510 -1.7285 -0.5968 -2.2991
 1939TIP3    H227453   2.025   1.168   0.444  1.0891 -0.5637  2.1298
 1940TIP3   OH227454   3.383   5.186   8.339 -0.2156  0.0247  0.3516
 1940TIP3    H127455   3.402   5.182   8.245 -1.9154  1.7691 -0.1433
 1940TIP3    H227456   3.309   5.127   8.352 -0.8509  0.7857  0.2992
 1941TIP3   OH227457   0.383   1.117   2.158 -0.2832  0.6905  0.2313
 1941TIP3    H127458   0.413   1.045   2.214 -1.0671  1.0022  1.0937
 1941TIP3    H227459   0.290   1.097   2.143 -0.3776  1.2511  0.0636
 1942TIP3   OH227460   6.385   5.153   0.512 -0.1812  0.1225 -0.3239
 1942TIP3    H127461   6.409   5.229   0.460  0.2923 -0.4595 -0.9779
 1942TIP3    H227462   6.393   5.182   0.603  1.7964  0.3399 -0.5278
 1943TIP3   OH227463   6.350   1.725   7.312  0.3980  0.0759 -0.0806
 1943TIP3    H127464   6.279   1.672   7.275 -0.4429  1.7985 -1.0553
 1943TIP3    H227465   6.393   1.667   7.374 -3.3518 -0.3519  2.4314
 1944TIP3   OH227466   3.199   1.020   0.715 -0.2077  0.6244  0.0321
 1944TIP3    H127467   3.131   1.061   0.769 -2.5120 -0.6295 -1.7073
 1944TIP3    H227468   3.246   0.963   0.774 -1.4120  0.6947  1.1076
 1945TIP3   OH227469   3.483   1.282   1.778  0.1566  0.6722 -0.1308
 1945TIP3    H127470   3.566   1.234   1.776 -0.4102 -0.3593  0.0662
 1945TIP3    H227471   3.461   1.297   1.686 -1.4157 -2.6904 -0.4674
 1946TIP3   OH227472   2.187   4.235   6.449 -0.3078 -0.2058 -0.1870
 1946TIP3    H127473   2.116   4.205   6.392 -0.3509  0.6367 -0.5884
 1946TIP3    H227474   2.250   4.276   6.389  0.0723 -0.1106  0.2760
 1947TIP3   OH227475   0.230   4.475   8.061 -0.7526  0.2392 -0.3085
 1947TIP3    H127476   0.314   4.458   8.103 -1.2290 -0.3678  0.4163
 1947TIP3    H227477   0.164   4.447   8.125 -1.4945 -0.2317 -1.2436
 1948TIP3   OH227478   3.667   2.708   0.535 -0.6124  0.2936  0.3769
 1948TIP3    H127479   3.734   2.748   0.480 -0.3834 -0.6011 -0.0132
 1948TIP3    H227480   3.634   2.780   0.589 -1.1978  1.3344 -1.2730
 1949TIP3   OH227481   2.814   0.987   0.393 -0.0973  0.1849  0.5315
 1949TIP3    H127482   2.890   0.951   0.439 -0.1246 -2.5896 -1.3637
 1949TIP3    H227483   2.817   0.947   0.306 -2.7032  1.4459 -0.2475
 1950TIP3   OH227484   4.580   4.924   8.486 -0.6323 -0.1958  0.6846
 1950TIP3    H127485   4.565   5.016   8.464 -0.6548 -0.0556  1.2764
 1950TIP3    H227486   4.583   4.879   8.401 -0.3743  0.3868  0.3844
 1951TIP3   OH227487   4.215   5.126   7.896  0.2715  0.3291 -0.5981
 1951TIP3    H127488   4.241   5.072   7.970  1.5146  0.2467 -1.0590
 1951TIP3    H227489   4.208   5.214   7.931 -0.9093  0.0202 -0.0239
 1952TIP3   OH227490   0.308   5.002   6.978  0.3709 -0.1590 -0.3652
 1952TIP3    H127491   0.340   5.088   7.004 -1.6059  0.5589 -0.1823
 1952TIP3    H227492   0.340   4.991   6.888 -0.0414  1.1443 -0.6947
 1953TIP3   OH227493   6.128   1.755   0.417  0.2227  0.4447 -0.0396
 1953TIP3    H127494   6.184   1.686   0.381  0.9739  1.8146 -1.6637
 1953TIP3    H227495   6.152   1.760   0.509 -0.7635 -2.2709  0.4740
 1954TIP3   OH227496   2.948   5.510   0.241  0.1087  0.6868 -0.3367
 1954TIP3    H127497   2.938   5.495   0.334 -0.0773 -1.4386 -0.6475
 1954TIP3    H227498   2.941   5.605   0.231  0.2011  0.9652  1.7931
 1955TIP3   OH227499   6.044   0.331   0.512  0.6471 -0.2385 -0.3457
 1955TIP3    H127500   6.138   0.315   0.497  0.4198 -0.3085 -1.8840
 1955TIP3    H227501   6.019   0.392   0.442 -0.6634 -0.9884 -0.5521
 1956TIP3   OH227502   1.539   4.279   1.455 -0.2526 -0.5680 -0.0084
 1956TIP3    H127503   1.630   4.256   1.473 -0.0918  0.7430  1.0260
 1956TIP3    H227504   1.543   4.336   1.379 -0.6154 -3.4064 -2.3236
 1957TIP3   OH227505   1.234   3.728   7.665  0.0759  0.6088  0.1131
 1957TIP3    H127506   1.151   3.767   7.694 -1.4367 -0.8509 -1.9776
 1957TIP3    H227507   1.241   3.646   7.715 -1.0202 -0.4452 -1.3875
 1958TIP3   OH227508   5.068   5.869   0.157  0.6990 -0.5475  0.3984
 1958TIP3    H127509   5.081   5.936   0.224  0.6981  0.8610 -0.9434
 1958TIP3    H227510   5.144   5.812   0.165  1.4338  0.4312  0.6575
 1959TIP3   OH227511   4.681   5.519   0.068 -0.1775  0.1520  0.2218
 1959TIP3    H127512   4.729   5.600   0.051 -0.2436 -0.0480 -1.0562
 1959TIP3    H227513   4.690   5.469  -0.013 -1.9971 -0.1676  0.1863
 1960TIP3   OH227514   1.274   2.695   8.939  0.6417 -0.0358 -0.6503
 1960TIP3    H127515   1.232   2.705   8.854  1.8052 -0.3184 -1.2722
 1960TIP3    H227516   1.272   2.783   8.977 -1.3448 -0.2115 -0.2353
 1961TIP3   OH227517   0.249   0.193   8.065 -0.0970 -0.1906  0.3610
 1961TIP3    H127518   0.257   0.112   8.014  0.3739  0.8547 -1.3392
 1961TIP3    H227519   0.158   0.221   8.050  0.3888  0.7635 -1.0155
 1962TIP3   OH227520   2.581   6.024   0.823  0.0058  0.1653  0.3800
 1962TIP3    H127521   2.665   5.983   0.806  0.8750  1.9334  0.1709
 1962TIP3    H227522   2.599   6.088   0.892 -0.7443  1.7700 -0.8434
 1963TIP3   OH227523   2.617   0.447   0.108  0.3793  0.1770 -0.1285
 1963TIP3    H127524   2.657   0.428   0.024 -0.2132  1.3802 -0.7144
 1963TIP3    H227525   2.619   0.364   0.156 -0.4480 -0.8577 -1.8062
 1964TIP3   OH227526   0.854   3.069   2.753  0.6506 -0.3761  0.1237
 1964TIP3    H127527   0.896   3.130   2.692 -0.2101 -0.2311 -0.3580
 1964TIP3    H227528   0.922   3.046   2.815  1.3520  0.0671 -0.4559
 1965TIP3   OH227529   4.021   4.276   7.378 -0.0653 -0.1879 -0.5166
 1965TIP3    H127530   4.035   4.293   7.285 -1.5350 -0.6546 -0.8501
 1965TIP3    H227531   4.081   4.336   7.423  0.0400  0.6714 -1.7587
 1966TIP3   OH227532   1.876   4.975   1.175 -0.2617 -0.2308  0.2414
 1966TIP3    H127533   1.938   5.047   1.169  1.1436 -1.4694 -0.9152
 1966TIP3    H227534   1.931   4.896   1.173 -1.8538 -1.3737 -0.9399
 1967TIP3   OH227535   5.402   3.358   0.346 -0.0553 -0.3387  0.7049
 1967TIP3    H127536   5.486   3.355   0.390  0.0172 -1.6283  0.4998
 1967TIP3    H227537   5.381   3.267   0.326 -1.2556  0.0032  0.2931
 1968TIP3   OH227538   0.947   2.134   7.796  0.4767 -0.2860 -0.2029
 1968TIP3    H127539   0.949   2.133   7.700  0.4522 -0.3777 -0.2027
 1968TIP3    H227540   0.939   2.042   7.821  1.2600 -0.3295 -0.0941
 1969TIP3   OH227541   2.374   2.152   8.964 -0.2531  0.0261 -0.1293
 1969TIP3    H127542   2.333   2.209   9.028 -0.6003  0.4026 -0.6722
 1969TIP3    H227543   2.327   2.170   8.882 -0.6730 -1.3731 -0.2142
 1970TIP3   OH227544   3.177   5.039   8.726 -0.4581  0.6602  0.1004
 1970TIP3    H127545   3.094   5.082   8.747 -1.0118 -0.1675 -0.3517
 1970TIP3    H227546   3.183   5.044   8.631 -0.6269 -0.4409  0.0287
 1971TIP3   OH227547   3.141   0.663   2.008 -0.7053 -0.3223  0.6809
 1971TIP3    H127548   3.111   0.702   1.926  2.4326  0.6417 -0.1349
 1971TIP3    H227549   3.071   0.601   2.031 -1.8940 -0.3797 -2.5012
 1972TIP3   OH227550   0.389   6.675   1.698  1.4213  0.5293  0.4731
 1972TIP3    H127551   0.439   6.607   1.651 -0.0159 -1.1846  1.3078
 1972TIP3    H227552   0.391   6.751   1.639  1.0302 -1.0159 -1.6698
 1973TIP3   OH227553   2.166   6.755   6.728 -0.1358 -0.0948  0.0430
 1973TIP3    H127554   2.101   6.799   6.783 -0.0054  0.4489 -0.2391
 1973TIP3    H227555   2.245   6.808   6.735  0.4829 -1.0752  0.8646
 1974TIP3   OH227556   1.404   0.193   7.361 -0.4920  0.6270 -0.2344
 1974TIP3    H127557   1.386   0.269   7.416 -1.6526  0.4163 -0.2809
 1974TIP3    H227558   1.379   0.118   7.415 -2.3844  0.4467 -1.2531
 1975TIP3   OH227559   4.827   3.284   8.218  0.4756 -0.0115  0.3171
 1975TIP3    H127560   4.921   3.271   8.233  0.5800  0.4412  0.0723
 1975TIP3    H227561   4.787   3.270   8.304  0.4562 -2.8419 -0.0624
 1976TIP3   OH227562   3.539   0.806   0.717 -0.2140  0.1487 -0.1352
 1976TIP3    H127563   3.614   0.864   0.732 -0.2026  0.3942 -1.0743
 1976TIP3    H227564   3.513   0.778   0.805 -0.0404  1.3468  0.3313
 1977TIP3   OH227565   4.457   2.704   2.404 -0.1189  0.5119 -0.7165
 1977TIP3    H127566   4.452   2.706   2.500  0.7058 -0.9559 -0.6068
 1977TIP3    H227567   4.551   2.700   2.385 -0.1711  2.5552 -1.6899
 1978TIP3   OH227568   3.630   5.898   6.486 -0.0050 -0.3064  0.2229
 1978TIP3    H127569   3.561   5.962   6.499 -0.1182 -0.5303  0.7833
 1978TIP3    H227570   3.595   5.837   6.421 -0.3438 -0.4233  0.5100
 1979TIP3   OH227571   5.287   0.806   0.428 -0.0482 -0.1709 -0.3584
 1979TIP3    H127572   5.363   0.852   0.392 -1.8537  0.4153 -3.9102
 1979TIP3    H227573   5.259   0.859   0.502  1.0159  1.5091 -1.1122
 1980TIP3   OH227574   2.784   3.742   1.789  0.0283  0.6805  0.1860
 1980TIP3    H127575   2.754   3.790   1.712  0.1798  0.6393  0.1013
 1980TIP3    H227576   2.753   3.794   1.863 -1.3746 -0.0194  0.1265
 1981TIP3   OH227577   0.129   0.537   0.602 -0.2054  0.2100  0.4871
 1981TIP3    H127578   0.169   0.476   0.541  2.2401  0.9025  1.2859
 1981TIP3    H227579   0.136   0.495   0.688  1.1225  1.3512  0.9848
 1982TIP3   OH227580   2.160   6.645   7.885 -0.2729 -0.3544 -0.4182
 1982TIP3    H127581   2.081   6.619   7.934  1.7243 -2.6045  1.9431
 1982TIP3    H227582   2.181   6.568   7.832  0.5293  0.0723 -0.7230
 1983TIP3   OH227583   6.103   2.581   8.660 -0.6774  0.3787 -0.4463
 1983TIP3    H127584   6.129   2.541   8.743  1.9289  0.6978 -1.0175
 1983TIP3    H227585   6.108   2.509   8.597  1.9297  1.0154 -1.0872
 1984TIP3   OH227586   4.295   3.874   2.056  0.3297  0.1171 -0.3543
 1984TIP3    H127587   4.372   3.918   2.022  0.7343 -1.2705 -1.3360
 1984TIP3    H227588   4.326   3.822   2.130  0.4368 -0.7047 -0.9557
 1985TIP3   OH227589   1.026   3.027   0.631  0.0086 -0.3549  0.0924
 1985TIP3    H127590   1.118   3.000   0.626 -0.3007 -1.3208 -1.1070
 1985TIP3    H227591   0.992   3.010   0.543 -0.9506  1.4285  0.0636
 1986TIP3   OH227592   4.413   2.117   1.220  0.4772  0.2940 -0.3520
 1986TIP3    H127593   4.367   2.178   1.277  1.2926  0.3648  0.2518
 1986TIP3    H227594   4.506   2.127   1.244  0.6395 -1.0482 -0.3545
 1987TIP3   OH227595   1.923   5.706   1.424  0.4728  0.0056 -0.2431
 1987TIP3    H127596   1.977   5.649   1.370 -1.8774 -3.0203  0.3758
 1987TIP3    H227597   1.908   5.656   1.504  0.8250  2.8403  1.7687
 1988TIP3   OH227598   3.002   2.052   1.953  0.4062 -0.3127  0.1338
 1988TIP3    H127599   2.928   2.092   1.998  0.4487 -0.6359  0.5011
 1988TIP3    H227600   2.977   1.960   1.942  1.2080 -0.6992  1.3080
 1989TIP3   OH227601   5.315   1.523   7.940 -0.3052 -0.5550 -0.0810
 1989TIP3    H127602   5.355   1.486   7.861 -1.3876 -0.3424 -0.7366
 1989TIP3    H227603   5.223   1.533   7.918 -0.6349 -0.5608  1.2445
 1990TIP3   OH227604   6.269   1.515   8.720 -0.2580  0.1929 -0.1280
 1990TIP3    H127605   6.288   1.604   8.691  0.4336  0.3389  0.7172
 1990TIP3    H227606   6.207   1.481   8.656 -1.6941  1.7880  0.3348
 1991TIP3   OH227607   3.544   5.549   1.166  0.0322 -0.3494  0.0543
 1991TIP3    H127608   3.503   5.617   1.220 -2.8214 -1.8407 -0.0731
 1991TIP3    H227609   3.635   5.547   1.196 -0.2592  2.1725  1.3896
 1992TIP3   OH227610   5.759   2.033   0.096 -0.3317 -0.0528 -0.4608
 1992TIP3    H127611   5.775   2.068   0.008 -1.2596 -2.0227 -1.4941
 1992TIP3    H227612   5.831   1.972   0.110  0.3036  0.8968  0.5669
 1993TIP3   OH227613   5.885   5.298   9.028 -0.9315  0.4398  0.5489
 1993TIP3    H127614   5.957   5.270   9.085 -0.6059  0.5828  0.2082
 1993TIP3    H227615   5.812   5.313   9.088 -1.5739 -2.5015  0.6503
 1994TIP3   OH227616   0.927   2.110   8.938 -0.4838 -0.5758 -0.0191
 1994TIP3    H127617   0.893   2.031   8.895 -0.2055 -0.4095 -0.5596
 1994TIP3    H227618   0.907   2.181   8.877 -2.1372  0.0222  1.1769
 1995TIP3   OH227619   4.559   1.640   1.139 -0.2339 -0.4373 -0.3470
 1995TIP3    H127620   4.566   1.725   1.095  2.0200 -0.2207  0.3019
 1995TIP3    H227621   4.514   1.584   1.076  1.4200  0.3087 -2.2852
 1996TIP3   OH227622   4.567   6.072   1.717  0.3821 -0.7298 -0.3252
 1996TIP3    H127623   4.527   6.075   1.630 -0.1502 -1.4838 -0.1223
 1996TIP3    H227624   4.653   6.031   1.702  0.4427 -0.5188 -0.5505
 1997TIP3   OH227625   1.467   6.154   0.703 -0.4616 -1.0306  0.4317
 1997TIP3    H127626   1.550   6.194   0.727  0.1722 -2.9232  1.6496
 1997TIP3    H227627   1.423   6.137   0.787 -0.7407 -2.6714 -0.0009
 1998TIP3   OH227628   5.932   3.787   1.298  0.1872  0.2394 -0.6785
 1998TIP3    H127629   5.866   3.728   1.334  0.4150 -0.6308 -1.6318
 1998TIP3    H227630   5.992   3.804   1.370  0.8140 -1.7051 -0.6863
 1999TIP3   OH227631   0.919   4.895   0.976 -0.2328 -0.3103  0.1709
 1999TIP3    H127632   0.941   4.987   0.990 -5.7141  1.9060 -2.6687
 1999TIP3    H227633   0.861   4.872   1.049 -0.0890 -1.0169  0.0734
 2000TIP3   OH227634   0.708   0.760   0.230 -0.2815 -0.6053  0.5069
 2000TIP3    H127635   0.670   0.765   0.142 -1.7597 -0.5727  1.1118
 2000TIP3    H227636   0.675   0.678   0.266 -0.7075 -0.0339  1.4610
 2001TIP3   OH227637   6.122   0.456   8.402  0.3371 -0.0517 -0.5755
 2001TIP3    H127638   6.031   0.428   8.408  0.0642  1.0222  2.0928
 2001TIP3    H227639   6.173   0.375   8.405 -0.5128 -0.5761  1.6928
 2002TIP3   OH227640   1.738   2.002   1.078  0.1458  0.0274  0.8952
 2002TIP3    H127641   1.651   2.038   1.096  0.9174  1.0274  2.9170
 2002TIP3    H227642   1.720   1.911   1.053 -1.4953  0.1926  1.2923
 2003TIP3   OH227643   0.867   0.807   0.770  0.0929  0.1158  0.2088
 2003TIP3    H127644   0.771   0.810   0.771  0.0688  0.3604 -1.0583
 2003TIP3    H227645   0.892   0.809   0.862 -1.1778 -2.2070  0.7006
 2004TIP3   OH227646   1.259   2.918   0.050 -0.2942 -0.8342 -0.0213
 2004TIP3    H127647   1.226   2.898   0.137  0.4278 -0.5908  0.3124
 2004TIP3    H227648   1.193   2.975   0.011  0.0883  0.2934  0.9303
 2005TIP3   OH227649   4.027   2.600   8.987  0.1117 -0.3203 -0.7246
 2005TIP3    H127650   3.988   2.512   8.993  0.2975 -0.3077  1.4119
 2005TIP3    H227651   4.114   2.585   8.951 -0.5894 -0.7342 -2.3515
 2006TIP3   OH227652   0.220   6.483   0.697 -0.2698 -0.3447  0.2348
 2006TIP3    H127653   0.180   6.555   0.745  0.7315 -0.5698  1.4446
 2006TIP3    H227654   0.270   6.526   0.627 -0.8789  0.0483  0.0363
 2007TIP3   OH227655   4.277   0.850   7.263 -0.1968 -0.1494  0.3043
 2007TIP3    H127656   4.296   0.931   7.216  0.1899 -0.3757  0.0706
 2007TIP3    H227657   4.307   0.780   7.205 -1.7151 -0.5284 -0.0641
 2008TIP3   OH227658   2.786   3.059   1.485  0.6060  0.2277 -0.1479
 2008TIP3    H127659   2.742   3.140   1.511 -0.1357  0.0139 -0.7177
 2008TIP3    H227660   2.785   3.005   1.564 -0.0834  0.2564 -0.1369
 2009TIP3   OH227661   1.431   3.861   7.975  0.4657 -0.5353 -0.1210
 2009TIP3    H127662   1.497   3.925   7.946 -0.9132  1.4916  0.9857
 2009TIP3    H227663   1.456   3.780   7.931  2.5703  0.6272 -1.2469
 2010TIP3   OH227664   5.084   3.694   1.059  0.3907  0.3165  0.2691
 2010TIP3    H127665   5.073   3.688   0.964 -0.4071  1.6468  0.2529
 2010TIP3    H227666   5.179   3.694   1.072  0.6083  2.9728 -0.7905
 2011TIP3   OH227667   5.733   5.844   8.362 -0.3683 -0.3088  0.1726
 2011TIP3    H127668   5.665   5.910   8.366 -1.8027 -1.7384  0.3924
 2011TIP3    H227669   5.759   5.830   8.453  1.9805  1.8722 -0.0318
 2012TIP3   OH227670   4.969   6.568   2.710  0.3498 -0.5873 -0.5096
 2012TIP3    H127671   5.061   6.584   2.734  0.4115  0.4988 -1.4138
 2012TIP3    H227672   4.919   6.611   2.780  0.5241 -0.6882 -0.3197
 2013TIP3   OH227673   3.186   2.985   7.479  0.4966 -0.0411 -0.0185
 2013TIP3    H127674   3.107   3.009   7.431 -0.9056 -1.6444  1.3441
 2013TIP3    H227675   3.250   2.964   7.411 -0.9829 -0.9334 -1.2153
 2014TIP3   OH227676   1.668   3.842   1.555  0.1629  0.5003 -0.1588
 2014TIP3    H127677   1.713   3.922   1.584 -1.9649  1.6462  0.2239
 2014TIP3    H227678   1.656   3.791   1.635 -2.0777  1.7715  0.4206
 2015TIP3   OH227679   4.061   2.059   8.789  0.2701 -0.2172 -0.2523
 2015TIP3    H127680   3.983   2.115   8.791 -0.2239 -0.9023  0.3046
 2015TIP3    H227681   4.124   2.104   8.845 -0.7063 -0.9985  1.5933
 2016TIP3   OH227682   3.782   0.920   1.201  0.2563 -0.0123  0.0781
 2016TIP3    H127683   3.760   0.873   1.121 -0.5525  0.8400 -0.2128
 2016TIP3    H227684   3.860   0.971   1.178 -0.6495  1.1356 -0.5464
 2017TIP3   OH227685   3.896   0.021   8.993  0.1496  0.2574  0.1939
 2017TIP3    H127686   3.949  -0.030   8.931 -1.1826 -0.6918 -0.2081
 2017TIP3    H227687   3.926  -0.006   9.079 -1.0994 -1.9018  0.0072
 2018TIP3   OH227688   3.277   2.608   7.104  0.1026  0.2451  0.2838
 2018TIP3    H127689   3.208   2.650   7.053  1.3376 -0.3065 -2.0084
 2018TIP3    H227690   3.279   2.518   7.070  1.4855  0.0675  0.8015
 2019TIP3   OH227691   5.028   0.798   8.917  0.1830 -0.1555 -0.0411
 2019TIP3    H127692   5.025   0.885   8.958  1.9363 -0.8160  1.6482
 2019TIP3    H227693   4.956   0.799   8.854 -1.0071  1.8798  1.2167
 2020TIP3   OH227694   4.149   0.520   0.281  0.5895 -0.1581 -0.0244
 2020TIP3    H127695   4.210   0.446   0.290  0.7627 -0.1217 -0.8302
 2020TIP3    H227696   4.086   0.491   0.215  0.1666  0.0988  0.2598
 2021TIP3   OH227697   0.073   5.392   1.557  0.6995  0.1724 -0.0324
 2021TIP3    H127698   0.015   5.316   1.553  1.1538 -0.1435 -0.7808
 2021TIP3    H227699   0.014   5.467   1.548  0.2780 -0.0939  0.4471
 2022TIP3   OH227700   6.030   5.460   0.277  0.1291 -0.2039 -0.1480
 2022TIP3    H127701   5.959   5.498   0.225  1.1209 -0.6337 -1.9017
 2022TIP3    H227702   5.988   5.431   0.358 -1.0990  2.4282  0.2719
 2023TIP3   OH227703   6.518   1.823   0.315 -0.0608  0.3923  0.2895
 2023TIP3    H127704   6.601   1.791   0.277 -1.5158 -1.1387 -1.8761
 2023TIP3    H227705   6.464   1.744   0.323 -1.6350  1.4701  0.7378
 2024TIP3   OH227706   2.027   4.976   1.706  0.3262  0.1982  0.0401
 2024TIP3    H127707   1.945   5.007   1.743 -0.1092 -1.7178  0.8070
 2024TIP3    H227708   2.081   5.055   1.696 -0.9175  1.2426  1.2378
 2025TIP3   OH227709   1.289   3.658   7.397  0.0750  0.4182  0.2047
 2025TIP3    H127710   1.287   3.691   7.486 -0.7936 -0.0475  0.3749
 2025TIP3    H227711   1.211   3.602   7.390  0.4956 -0.0977 -0.6322
 2026TIP3   OH227712   1.285   4.445   8.940 -0.3281 -0.3535 -0.0031
 2026TIP3    H127713   1.207   4.461   8.887  0.3942  2.8586 -0.2542
 2026TIP3    H227714   1.254   4.451   9.030 -0.6157 -0.5918 -0.0821
 2027TIP3   OH227715   5.689   5.613   8.151  0.1528 -0.5800  0.2327
 2027TIP3    H127716   5.708   5.687   8.209 -0.8281  0.1806 -0.3833
 2027TIP3    H227717   5.594   5.604   8.154 -0.0861  0.2811 -2.1779
 2028TIP3   OH227718   2.606   2.716   0.031 -0.6969 -0.4350 -0.5525
 2028TIP3    H127719   2.663   2.666  -0.027 -0.8184 -1.3166  0.0751
 2028TIP3    H227720   2.622   2.680   0.118  1.3403  2.4768  0.4286
 2029TIP3   OH227721   5.908   6.018   0.617  0.5578  0.5406 -0.5334
 2029TIP3    H127722   5.971   5.993   0.684  0.4498 -0.7808 -0.9020
 2029TIP3    H227723   5.917   6.113   0.611 -0.4530  0.9183  2.3608
 2030TIP3   OH227724   1.970   5.475   1.145  0.2995  0.2164  0.2204
 2030TIP3    H127725   1.876   5.488   1.142  0.3535  0.4820 -0.3402
 2030TIP3    H227726   1.980   5.381   1.162 -0.0644 -0.1315 -1.3789
 2031TIP3   OH227727   1.668   6.570   2.711 -0.3590  0.7732  0.2496
 2031TIP3    H127728   1.747   6.532   2.672  0.0799  0.8066  1.0674
 2031TIP3    H227729   1.596   6.528   2.665  0.1150 -0.7194  0.7905
 2032TIP3   OH227730   5.840   3.815   2.663  0.3606  0.1763  0.2572
 2032TIP3    H127731   5.926   3.822   2.620  0.3814  0.1681  0.2968
 2032TIP3    H227732   5.806   3.731   2.633 -0.7243  1.2593 -1.7515
 2033TIP3   OH227733   2.220   4.978   7.283  0.0620 -0.2671  0.1647
 2033TIP3    H127734   2.194   4.963   7.374  0.4023  0.5447  0.4087
 2033TIP3    H227735   2.189   5.067   7.264  0.4164 -0.2512 -0.3530
 2034TIP3   OH227736   3.649   5.373   7.394  0.1494 -0.1986  0.0294
 2034TIP3    H127737   3.675   5.418   7.474  0.1514 -0.6968  0.3105
 2034TIP3    H227738   3.721   5.388   7.333  0.0285  0.4087  0.0241
 2035TIP3   OH227739   6.118   5.965   0.813  0.0528  0.0015 -0.5806
 2035TIP3    H127740   6.198   6.002   0.777  1.2002  0.5023  2.2638
 2035TIP3    H227741   6.148   5.903   0.880 -1.9408 -1.1107 -0.6246
 2036TIP3   OH227742   6.471   5.457   1.524  0.2225  0.3444 -0.0088
 2036TIP3    H127743   6.516   5.379   1.557 -1.0054 -0.1868  0.4826
 2036TIP3    H227744   6.517   5.530   1.563 -0.0589 -0.2193  1.4495
 2037TIP3   OH227745   6.429   0.427   8.287  0.4370 -0.1058 -0.0734
 2037TIP3    H127746   6.409   0.484   8.213 -0.5832 -0.0828  0.2007
 2037TIP3    H227747   6.514   0.389   8.266  0.2722  0.0865 -1.1382
 2038TIP3   OH227748   4.882   3.546   8.522 -0.1313 -0.5889  0.5093
 2038TIP3    H127749   4.904   3.453   8.526 -0.3991 -0.7043 -0.3619
 2038TIP3    H227750   4.935   3.580   8.449  1.8828  0.5162  2.3621
 2039TIP3   OH227751   2.885   3.698   0.154 -0.0542  0.3479 -0.6495
 2039TIP3    H127752   2.889   3.603   0.141  1.1797  0.3205 -0.1162
 2039TIP3    H227753   2.791   3.718   0.152 -0.3517 -0.9323 -0.3806
 2040TIP3   OH227754   4.793   3.231   0.107 -0.4203  0.4886  0.2763
 2040TIP3    H127755   4.888   3.244   0.100 -0.0320 -0.5183  2.5858
 2040TIP3    H227756   4.757   3.319   0.103  0.5727  0.8698 -0.9534
 2041TIP3   OH227757   1.749   3.006   0.008  0.0495  0.2635 -0.0562
 2041TIP3    H127758   1.665   3.043  -0.019  1.3113  2.5102 -1.2482
 2041TIP3    H227759   1.790   2.976  -0.073  2.3996  3.8444 -0.4388
 2042TIP3   OH227760   1.146   1.121   0.403 -0.2102 -0.5355 -0.3448
 2042TIP3    H127761   1.051   1.110   0.415 -0.1886  0.6021  1.0838
 2042TIP3    H227762   1.163   1.212   0.427  1.2742 -0.7585 -0.4555
 2043TIP3   OH227763   0.780   6.382   7.846  0.6144  0.5269 -0.2943
 2043TIP3    H127764   0.687   6.388   7.869  0.5333  1.2136 -0.7559
 2043TIP3    H227765   0.826   6.414   7.924  0.3911  1.6196 -0.5869
 2044TIP3   OH227766   0.155   1.174   1.362  0.4324 -0.2357 -0.0917
 2044TIP3    H127767   0.219   1.246   1.364  2.3522 -1.8404  0.3572
 2044TIP3    H227768   0.194   1.107   1.419 -2.2175 -0.8990  1.0756
 2045TIP3   OH227769   5.186   3.312   1.309 -0.0251  0.2079 -0.3704
 2045TIP3    H127770   5.233   3.256   1.371 -0.5932  0.2187  0.0881
 2045TIP3    H227771   5.097   3.319   1.346 -1.1858 -1.8894 -2.4844
 2046TIP3   OH227772   2.444   2.278   8.239 -0.2040 -0.3644 -0.2209
 2046TIP3    H127773   2.532   2.282   8.277 -0.3958 -1.0727  0.3382
 2046TIP3    H227774   2.409   2.193   8.269 -1.3583  0.2400  0.2158
 2047TIP3   OH227775   3.598   5.324   1.735 -0.4191  0.2204 -0.5276
 2047TIP3    H127776   3.529   5.319   1.802 -1.0680 -1.1346 -1.2611
 2047TIP3    H227777   3.557   5.371   1.662 -1.0708 -1.7463 -1.4927
 2048TIP3   OH227778   0.328   6.398   7.664  0.0703  0.4951  0.2982
 2048TIP3    H127779   0.375   6.316   7.646 -1.6932 -0.3052 -0.9751
 2048TIP3    H227780   0.384   6.466   7.626  0.8862 -0.2660  0.0897
 2049TIP3   OH227781   2.027   1.095   0.795  0.1368 -0.1312 -0.5633
 2049TIP3    H127782   2.058   1.129   0.879  0.9236 -2.0515 -0.0377
 2049TIP3    H227783   2.082   1.019   0.778 -3.2116 -2.8539 -0.3103
 2050TIP3   OH227784   5.818   2.123   7.603  0.1187  0.1027 -0.4033
 2050TIP3    H127785   5.810   2.173   7.522  0.0140 -0.7308 -0.9115
 2050TIP3    H227786   5.825   2.190   7.671 -2.9315  0.9164 -0.7367
 2051TIP3   OH227787   3.789   2.805   0.984 -0.5547  0.2100  0.2946
 2051TIP3    H127788   3.720   2.790   1.049 -0.6841 -0.0918  0.0907
 2051TIP3    H227789   3.821   2.717   0.962  0.3919  0.3840  0.9143
 2052TIP3   OH227790   4.545   4.987   7.424 -0.0582 -0.2933  0.2138
 2052TIP3    H127791   4.597   5.063   7.398  0.9892 -0.4801  1.6920
 2052TIP3    H227792   4.476   5.023   7.480 -0.5087 -0.2564 -0.3550
 2053TIP3   OH227793   1.838   0.819   6.939  0.2050  0.1184 -0.3587
 2053TIP3    H127794   1.825   0.882   6.868 -0.7884  1.5858  1.0384
 2053TIP3    H227795   1.895   0.864   7.001 -0.4492 -0.3699  0.6306
 2054TIP3   OH227796   1.828   6.529   6.814 -0.0780  0.4748 -0.4904
 2054TIP3    H127797   1.743   6.571   6.831  0.7868  1.9233  0.4878
 2054TIP3    H227798   1.811   6.471   6.739 -1.5458  1.9620 -1.3932
 2055TIP3   OH227799   2.635   2.991   7.114 -0.3157 -0.3429  0.1310
 2055TIP3    H127800   2.639   3.043   7.033 -1.2516  0.7462  0.7487
 2055TIP3    H227801   2.647   3.055   7.184 -2.3432 -0.7759  0.9595
 2056TIP3   OH227802   4.597   0.171   8.769  0.0071  0.5382 -0.5635
 2056TIP3    H127803   4.681   0.131   8.748 -0.6144 -0.0708 -1.9539
 2056TIP3    H227804   4.576   0.226   8.694 -0.3609  1.5189  0.2254
 2057TIP3   OH227805   3.831   3.248   1.526 -0.4016 -0.3369  0.0289
 2057TIP3    H127806   3.762   3.276   1.585 -1.5013 -2.0038 -0.3944
 2057TIP3    H227807   3.787   3.235   1.442  0.7453  0.0595 -0.6550
 2058TIP3   OH227808   0.558   2.905   2.201  0.3150 -0.7597 -0.9171
 2058TIP3    H127809   0.588   2.835   2.259  0.4318 -1.4342 -1.7740
 2058TIP3    H227810   0.472   2.930   2.235  1.2083  0.2373  0.7340
 2059TIP3   OH227811   0.153   0.753   1.261  0.2007 -0.0138 -0.2289
 2059TIP3    H127812   0.233   0.757   1.313 -1.0946 -1.0139  2.0009
 2059TIP3    H227813   0.180   0.711   1.179  2.1330  0.6658  0.0084
 2060TIP3   OH227814   4.027   5.382   1.344 -0.2435 -0.1554 -0.1297
 2060TIP3    H127815   4.014   5.331   1.265  1.4178  0.5642 -0.9107
 2060TIP3    H227816   4.044   5.317   1.412  1.6055 -0.7048 -1.0561
 2061TIP3   OH227817   0.837   4.117   2.537 -0.8984  0.1650 -0.1130
 2061TIP3    H127818   0.875   4.179   2.600 -1.4185  1.3576 -0.9213
 2061TIP3    H227819   0.823   4.037   2.587  2.9372 -0.5105  0.1975
 2062TIP3   OH227820   1.242   3.679   2.265  0.1080 -0.2309  0.2654
 2062TIP3    H127821   1.329   3.716   2.282 -0.8921  1.4118  2.2603
 2062TIP3    H227822   1.248   3.588   2.293  1.5397 -0.5542 -0.9563
 2063TIP3   OH227823   6.536   3.242   7.912 -0.0716  0.6867 -0.3281
 2063TIP3    H127824   6.489   3.273   7.835 -1.8024 -0.0171  0.4063
 2063TIP3    H227825   6.612   3.301   7.919 -0.6452  1.6359 -1.7456
 2064TIP3   OH227826   0.482   3.540   0.446  0.4915 -0.2519 -0.0152
 2064TIP3    H127827   0.516   3.628   0.431 -1.3679  0.8597  1.7329
 2064TIP3    H227828   0.434   3.519   0.366  1.3147  0.1097 -0.6190
 2065TIP3   OH227829   6.172   2.222   6.410 -0.0206  0.8789 -0.5130
 2065TIP3    H127830   6.136   2.158   6.349  0.1253  1.2297 -0.9686
 2065TIP3    H227831   6.098   2.277   6.433 -0.0643  0.7775 -0.4057
 2066TIP3   OH227832   6.460   0.809   1.530  0.2369  0.0720  0.0803
 2066TIP3    H127833   6.447   0.884   1.472  2.7555  0.5122 -0.0424
 2066TIP3    H227834   6.415   0.832   1.611 -1.1186  0.5910 -0.7839
 2067TIP3   OH227835   1.166   3.658   6.665  0.5596  0.0853  0.1466
 2067TIP3    H127836   1.187   3.735   6.612 -1.4916  0.0420 -0.7943
 2067TIP3    H227837   1.224   3.665   6.741  1.3581  1.8233 -0.5699
 2068TIP3   OH227838   2.557   1.745   2.848  0.1617 -0.2516 -0.4150
 2068TIP3    H127839   2.595   1.682   2.909  1.1720  0.2778 -0.4933
 2068TIP3    H227840   2.590   1.830   2.876 -0.6873  0.1861 -0.7010
 2069TIP3   OH227841   1.148   4.698   0.965 -0.1629  0.1831  0.1043
 2069TIP3    H127842   1.059   4.714   0.934  0.5390 -0.1463 -2.3112
 2069TIP3    H227843   1.164   4.606   0.945  1.2951  0.6728 -1.1461
 2070TIP3   OH227844   3.915   2.993   8.093  0.6723  0.5896  0.8087
 2070TIP3    H127845   3.953   2.935   8.159  2.0747  0.5255 -0.0171
 2070TIP3    H227846   3.910   2.940   8.014 -0.0096  0.9781  0.5833
 2071TIP3   OH227847   6.578   0.987   7.175 -0.3533 -0.0549 -0.0446
 2071TIP3    H127848   6.649   1.023   7.123  0.5683 -1.0428  0.4710
 2071TIP3    H227849   6.557   1.055   7.239  0.1984  0.2085 -0.1421
 2072TIP3   OH227850   2.927   1.815   1.398  0.2331 -0.1219  0.4438
 2072TIP3    H127851   2.934   1.910   1.409 -0.0816 -0.0167 -0.2150
 2072TIP3    H227852   3.017   1.784   1.405  0.8350  0.6226 -2.6557
 2073TIP3   OH227853   4.542   6.414   0.333 -0.4172  0.6767  0.2639
 2073TIP3    H127854   4.590   6.346   0.286 -1.6075  0.6080 -0.8957
 2073TIP3    H227855   4.600   6.491   0.329 -0.0200  0.3488 -0.3381
 2074TIP3   OH227856   6.325   3.118   8.217  0.5414  0.0287  0.3276
 2074TIP3    H127857   6.394   3.080   8.271  0.5311 -2.9324 -1.5139
 2074TIP3    H227858   6.244   3.079   8.249 -0.5232  3.6472  2.6260
 2075TIP3   OH227859   6.152   2.142   2.042  0.4932  0.1211  0.4277
 2075TIP3    H127860   6.125   2.074   2.103  2.7773 -1.4882 -0.2200
 2075TIP3    H227861   6.206   2.201   2.094  2.7941 -1.4815  0.0183
 2076TIP3   OH227862   1.669   2.940   1.634  0.0588 -0.5369 -0.4659
 2076TIP3    H127863   1.673   2.852   1.594 -1.4690  0.3043 -2.7084
 2076TIP3    H227864   1.576   2.953   1.652  0.3433  0.4146  0.3683
 2077TIP3   OH227865   6.449   0.613   6.879  0.1176 -0.4329  0.5771
 2077TIP3    H127866   6.407   0.537   6.839 -0.9583  0.0152  0.8317
 2077TIP3    H227867   6.424   0.686   6.823  0.9262 -0.2175  0.4870
 2078TIP3   OH227868   2.562   0.995   0.298 -0.3091 -0.4268  0.7504
 2078TIP3    H127869   2.649   0.996   0.338 -0.6041 -0.1792  1.4028
 2078TIP3    H227870   2.566   1.062   0.230 -0.3613  0.4707  1.6140
 2079TIP3   OH227871   6.576   6.615   7.292  0.1476  0.4820  0.4135
 2079TIP3    H127872   6.536   6.592   7.208  0.4846 -0.7553  0.5679
 2079TIP3    H227873   6.670   6.620   7.272  0.2222  0.2432  0.7040
 2080TIP3   OH227874   3.984   6.768   7.749 -0.6826 -0.1569  0.2455
 2080TIP3    H127875   4.032   6.814   7.819  0.0550  2.0330 -1.5678
 2080TIP3    H227876   4.026   6.682   7.745  2.0353  1.0570 -0.0815
 2081TIP3   OH227877   4.346   0.380   2.057  0.4964 -0.2591 -0.0837
 2081TIP3    H127878   4.341   0.361   2.151 -0.7848  0.4132  0.0058
 2081TIP3    H227879   4.402   0.458   2.052 -0.3913  0.4286  0.2613
 2082TIP3   OH227880   2.278   6.074   6.619 -0.4693  0.3377 -0.5268
 2082TIP3    H127881   2.300   5.986   6.588  0.0488  0.5536 -0.7839
 2082TIP3    H227882   2.182   6.079   6.609 -0.6569 -0.6047  0.5972
 2083TIP3   OH227883   1.047   3.454   1.140 -0.3167 -0.2787  0.2888
 2083TIP3    H127884   0.984   3.416   1.079  1.4057 -2.2349 -0.3942
 2083TIP3    H227885   1.124   3.474   1.086  0.7741 -0.8311  1.5730
 2084TIP3   OH227886   3.127   6.738   0.965 -0.0916 -0.1689  0.5409
 2084TIP3    H127887   3.032   6.732   0.975 -0.2123  1.4333  0.6295
 2084TIP3    H227888   3.161   6.659   1.007 -1.4642 -1.8138 -1.2880
 2085TIP3   OH227889   4.479   6.151   8.616  0.0642  0.2187 -0.4494
 2085TIP3    H127890   4.493   6.087   8.546 -1.6658  0.4665 -1.0661
 2085TIP3    H227891   4.399   6.121   8.660  1.0164  0.1722  1.3438
 2086TIP3   OH227892   4.933   3.611   7.162 -0.2842 -0.3728  0.2401
 2086TIP3    H127893   4.928   3.549   7.235 -1.5497  1.9337  2.2603
 2086TIP3    H227894   4.861   3.672   7.177  0.9418  1.6675 -1.5371
 2087TIP3   OH227895   5.124   2.416   6.839 -0.7257  0.1284  0.1400
 2087TIP3    H127896   5.187   2.485   6.819 -1.1893  0.4830 -0.1274
 2087TIP3    H227897   5.055   2.427   6.773 -1.0923 -0.2190  0.4604
 2088TIP3   OH227898   5.242   6.101   1.946 -0.0418  0.1506 -0.7419
 2088TIP3    H127899   5.235   6.195   1.932  0.5180  0.1185 -1.2393
 2088TIP3    H227900   5.307   6.091   2.016 -0.5836  0.1545 -0.2206
 2089TIP3   OH227901   5.612   3.333   0.497 -0.1293  0.1652 -0.1469
 2089TIP3    H127902   5.589   3.344   0.589  2.2528 -0.2123  0.5525
 2089TIP3    H227903   5.682   3.396   0.482  0.3485 -0.6219 -1.3640
 2090TIP3   OH227904   4.298   2.060   8.626  0.3838 -0.6457  0.6526
 2090TIP3    H127905   4.223   2.033   8.679 -0.2782 -0.7133 -0.3070
 2090TIP3    H227906   4.261   2.082   8.541  1.2567  0.6957  0.5876
 2091TIP3   OH227907   0.870   2.043   2.080  0.2727 -0.4706 -0.2822
 2091TIP3    H127908   0.783   2.068   2.112 -0.2583 -0.3338 -1.7349
 2091TIP3    H227909   0.857   1.955   2.044  1.1417 -1.1416  0.9731
 2092TIP3   OH227910   0.362   0.157   7.437  0.1902  0.3143  0.3242
 2092TIP3    H127911   0.372   0.136   7.344  2.0419  1.3301  0.2600
 2092TIP3    H227912   0.301   0.231   7.439 -0.4353 -0.1775  0.0011
 2093TIP3   OH227913   0.765   4.204   1.281  0.1668 -0.0276 -0.1712
 2093TIP3    H127914   0.755   4.110   1.274 -2.1353  0.1493 -0.2115
 2093TIP3    H227915   0.765   4.236   1.191  0.2331  0.0580 -0.1415
 2094TIP3   OH227916   1.345   0.383   8.453 -0.7486  0.0773  0.0838
 2094TIP3    H127917   1.274   0.329   8.418 -0.1844 -1.6807  1.5190
 2094TIP3    H227918   1.332   0.381   8.548 -0.6867  2.5089  0.2023
 2095TIP3   OH227919   2.366   6.096   1.183  0.6665  0.6197 -0.1473
 2095TIP3    H127920   2.425   6.027   1.212 -1.5848 -0.5001  2.1174
 2095TIP3    H227921   2.408   6.132   1.105  3.8388 -0.6673  0.8276
 2096TIP3   OH227922   2.875   2.073   8.921 -0.4206  0.0852  0.4309
 2096TIP3    H127923   2.906   2.145   8.867 -0.2026 -0.1042  0.3012
 2096TIP3    H227924   2.813   2.113   8.982  0.5097  0.5835  1.0789
 2097TIP3   OH227925   6.316   6.568   0.721 -0.4036  0.2357 -0.2492
 2097TIP3    H127926   6.308   6.633   0.792 -3.1453 -0.4843  0.2284
 2097TIP3    H227927   6.274   6.490   0.756  0.2225 -0.8813 -1.8894
 2098TIP3   OH227928   1.903   4.204   2.278  0.4166 -0.4493 -0.4486
 2098TIP3    H127929   1.862   4.265   2.338 -2.1005 -1.5868 -0.8782
 2098TIP3    H227930   1.950   4.259   2.215 -1.5464  1.0565 -0.6657
 2099TIP3   OH227931   0.786   2.595   1.813 -0.3430  0.0543 -0.0476
 2099TIP3    H127932   0.801   2.635   1.899 -0.5270  1.0568 -0.4735
 2099TIP3    H227933   0.700   2.554   1.822 -0.1546 -0.2600  0.3922
 2100TIP3   OH227934   2.865   2.117   2.387 -0.1690  0.5614  0.5769
 2100TIP3    H127935   2.919   2.081   2.459  0.8609 -0.0762 -0.4767
 2100TIP3    H227936   2.782   2.070   2.394 -0.2324  0.7977  1.5947
 2101TIP3   OH227937   0.757   1.296   2.221  0.0964 -0.0831  0.3228
 2101TIP3    H127938   0.777   1.231   2.154 -1.1150  0.5500 -0.7093
 2101TIP3    H227939   0.789   1.258   2.303 -0.6958 -2.0200 -0.2179
 2102TIP3   OH227940   2.164   2.650   1.879  0.0818  0.4035  0.3555
 2102TIP3    H127941   2.253   2.662   1.913 -0.6833 -0.1427  2.7009
 2102TIP3    H227942   2.118   2.731   1.903 -0.2790  0.3644 -0.1811
 2103TIP3   OH227943   6.215   3.257   2.112  0.0664  0.3114 -0.3772
 2103TIP3    H127944   6.270   3.315   2.165  1.8298 -1.2251 -0.4411
 2103TIP3    H227945   6.151   3.316   2.071  0.5927  1.9338  1.0229
 2104TIP3   OH227946   0.379   1.604   2.342  0.1018  0.4292 -0.2511
 2104TIP3    H127947   0.316   1.566   2.280  0.3800 -0.4267 -0.0273
 2104TIP3    H227948   0.327   1.623   2.420  0.3914 -2.0759  0.6714
 2105TIP3   OH227949   3.476   3.748   8.372  0.1912  0.6660 -0.2239
 2105TIP3    H127950   3.387   3.727   8.402  0.1275 -0.3262 -1.0428
 2105TIP3    H227951   3.531   3.734   8.449 -0.2840  0.6094  0.1067
 2106TIP3   OH227952   5.124   5.863   7.381  0.4365 -0.1224  0.2839
 2106TIP3    H127953   5.133   5.822   7.295 -0.3528 -2.3064  1.1727
 2106TIP3    H227954   5.211   5.856   7.420  0.4180 -0.5278  0.2538
 2107TIP3   OH227955   4.864   0.849   8.648  0.5708 -0.1613 -0.4770
 2107TIP3    H127956   4.886   0.780   8.585 -1.5109  0.2695 -1.7531
 2107TIP3    H227957   4.820   0.804   8.719 -1.2609 -0.1530 -1.5532
 2108TIP3   OH227958   4.318   2.327   7.590 -0.3730 -0.1425 -0.1171
 2108TIP3    H127959   4.309   2.237   7.561  1.7156 -0.7525  0.9026
 2108TIP3    H227960   4.388   2.363   7.535  0.4498  0.0999  1.0651
 2109TIP3   OH227961   6.206   6.092   8.138  0.2982 -0.0607 -0.0996
 2109TIP3    H127962   6.283   6.038   8.158 -0.4889 -0.9609  0.6735
 2109TIP3    H227963   6.242   6.176   8.111  1.5736 -0.8381 -0.9623
 2110TIP3   OH227964   0.111   3.140   7.805  0.1225 -0.8209  0.0892
 2110TIP3    H127965   0.040   3.077   7.798  0.1353 -0.7559 -0.7910
 2110TIP3    H227966   0.166   3.107   7.876 -1.4490 -0.1814  1.6676
 2111TIP3   OH227967   0.197   6.509   7.073 -0.0707 -0.1696  0.0888
 2111TIP3    H127968   0.293   6.514   7.071 -0.0727  0.3981  0.9801
 2111TIP3    H227969   0.169   6.566   7.002  0.2249  1.0235  0.9102
 2112TIP3   OH227970   0.838   5.190   0.066 -0.2432  0.0228  0.2452
 2112TIP3    H127971   0.852   5.273   0.020 -2.1417 -0.3799 -1.2008
 2112TIP3    H227972   0.914   5.181   0.123  1.3740  1.4487 -1.5435
 2113TIP3   OH227973   1.828   6.625   7.390  0.1282  0.8238 -0.4764
 2113TIP3    H127974   1.784   6.688   7.447  0.2043  3.1019 -2.7652
 2113TIP3    H227975   1.782   6.631   7.306  0.9164 -1.3334 -1.1348
 2114TIP3   OH227976   6.131   1.585   7.253  0.2995  0.2710 -0.0773
 2114TIP3    H127977   6.108   1.598   7.161  2.2888 -2.9992 -1.1826
 2114TIP3    H227978   6.049   1.556   7.294 -0.0478 -0.7730 -1.4464
 2115TIP3   OH227979   4.078   0.103   7.526  0.0158  0.0932 -0.0294
 2115TIP3    H127980   4.029   0.052   7.591 -0.4312  1.9381  1.1583
 2115TIP3    H227981   4.155   0.134   7.573 -0.1360  1.1678 -0.4608
 2116TIP3   OH227982   5.597   6.194   7.468 -0.1478  0.0639 -0.4982
 2116TIP3    H127983   5.677   6.159   7.507  0.1128  1.4213  0.2588
 2116TIP3    H227984   5.588   6.147   7.385  0.5504 -1.2448  0.1420
 2117TIP3   OH227985   4.352   6.128   7.280  0.1299  0.1978  0.5498
 2117TIP3    H127986   4.319   6.103   7.366 -0.7065 -1.1502 -0.1211
 2117TIP3    H227987   4.399   6.051   7.249 -1.0271  0.0209 -0.8755
 2118TIP3   OH227988   4.917   2.181   6.965 -0.1596 -0.1496 -1.0548
 2118TIP3    H127989   4.932   2.261   6.915  1.7069 -0.3132 -0.8465
 2118TIP3    H227990   4.939   2.205   7.055 -0.7561 -0.5945 -0.7835
 2119TIP3   OH227991   2.454   3.103   1.727 -0.5055  0.5168 -1.1081
 2119TIP3    H127992   2.380   3.164   1.721 -0.1531  1.1722  0.7015
 2119TIP3    H227993   2.529   3.158   1.748  0.7960 -0.0008 -3.8739
 2120TIP3   OH227994   0.818   2.946   0.799  0.3929 -0.7278 -0.7448
 2120TIP3    H127995   0.756   2.907   0.738  0.9351  0.3774 -2.0512
 2120TIP3    H227996   0.897   2.961   0.747  1.9384 -2.4549  0.9557
 2121TIP3   OH227997   6.514   0.855   1.111 -0.5712  0.0467 -0.1226
 2121TIP3    H127998   6.493   0.901   1.031 -2.5452 -1.3184 -0.4744
 2121TIP3    H227999   6.430   0.848   1.158 -0.1275 -1.9864  0.4908
 2122TIP3   OH228000   2.276   6.435   6.493 -0.3426  0.1373  0.0813
 2122TIP3    H128001   2.300   6.352   6.453 -2.1379 -1.3054  1.8432
 2122TIP3    H228002   2.218   6.477   6.429  0.9593  0.3617 -1.0305
 2123TIP3   OH228003   3.381   4.276   0.396  0.6509  0.4705  0.4202
 2123TIP3    H128004   3.368   4.337   0.468 -0.1188  1.0919 -0.2248
 2123TIP3    H228005   3.398   4.332   0.320 -0.4117 -0.0975 -0.2531
 2124TIP3   OH228006   2.927   4.607   8.167  0.0363  0.3311 -0.3634
 2124TIP3    H128007   3.004   4.577   8.216 -0.6827  0.1185  0.6667
 2124TIP3    H228008   2.906   4.693   8.205 -1.2598 -0.3681  0.6039
 2125TIP3   OH228009   3.041   5.920   0.983 -0.7244  0.2763 -0.2075
 2125TIP3    H128010   3.082   5.909   1.069 -1.8151 -0.7455  0.2041
 2125TIP3    H228011   2.953   5.953   1.002 -0.6605  0.9440 -0.9970
 2126TIP3   OH228012   1.030   5.257   7.527  0.2086 -0.1743 -0.3220
 2126TIP3    H128013   1.037   5.199   7.602  0.4444 -0.6435 -0.7007
 2126TIP3    H228014   1.111   5.308   7.528  0.4114 -0.4858 -0.5014
 2127TIP3   OH228015   0.503   3.545   2.203 -0.6447 -0.3721 -0.0007
 2127TIP3    H128016   0.522   3.460   2.244 -0.4500 -0.7173 -0.7836
 2127TIP3    H228017   0.543   3.538   2.116 -1.5910  0.1083 -0.4762
 2128TIP3   OH228018   0.847   2.166   0.431  0.2395  0.2637 -0.7524
 2128TIP3    H128019   0.775   2.145   0.491  1.3120  1.9932  1.2657
 2128TIP3    H228020   0.807   2.164   0.344 -1.7244 -0.9445  0.1172
 2129TIP3   OH228021   1.115   5.438   8.343  0.0143 -0.2435  0.3195
 2129TIP3    H128022   1.094   5.524   8.379 -0.9832  0.3625 -1.5880
 2129TIP3    H228023   1.170   5.457   8.267  0.1212 -1.3188  0.1175
 2130TIP3   OH228024   2.828   1.906   0.735  1.0417  0.6401  0.3409
 2130TIP3    H128025   2.881   1.841   0.780 -0.0815  0.5876  1.6423
 2130TIP3    H228026   2.755   1.924   0.794 -0.5633  0.5012 -1.4682
 2131TIP3   OH228027   5.220   0.136   0.314 -0.4352 -0.2354  0.0845
 2131TIP3    H128028   5.197   0.093   0.232  0.6503 -0.8690  0.0775
 2131TIP3    H228029   5.316   0.139   0.313 -0.4430  1.1125  0.6518
 2132TIP3   OH228030   3.717   5.971   7.286  0.0983  0.0337  0.5646
 2132TIP3    H128031   3.733   6.062   7.261  0.2785 -0.7813 -2.8989
 2132TIP3    H228032   3.799   5.925   7.267 -0.6005 -1.1565  0.2467
 2133TIP3   OH228033   5.449   1.663   1.120  0.3645 -0.1062 -0.3536
 2133TIP3    H128034   5.515   1.727   1.146  0.0948  0.0504 -0.0498
 2133TIP3    H228035   5.368   1.692   1.163  0.0215 -0.1188 -0.9742
 2134TIP3   OH228036   5.194   2.946   8.131 -0.1603  0.1080  0.2611
 2134TIP3    H128037   5.277   2.904   8.109 -1.2582 -1.4290 -1.2056
 2134TIP3    H228038   5.201   2.964   8.225  1.8377  0.1022  0.1739
 2135TIP3   OH228039   3.371   6.594   1.619 -0.2186  0.4781  0.2331
 2135TIP3    H128040   3.424   6.591   1.540  2.6722  0.2737  2.0592
 2135TIP3    H228041   3.369   6.504   1.650 -3.0527  0.1568 -0.5239
 2136TIP3   OH228042   2.304   2.814   0.521 -0.3374 -0.1685  0.1157
 2136TIP3    H128043   2.286   2.749   0.589 -0.5497 -0.5650 -0.3148
 2136TIP3    H228044   2.230   2.875   0.527 -0.7028 -0.5747 -0.1981
 2137TIP3   OH228045   6.245   3.735   1.400  0.1854 -0.0647  0.3304
 2137TIP3    H128046   6.209   3.815   1.361  0.9952 -0.0122 -0.3297
 2137TIP3    H228047   6.227   3.744   1.494  2.1016  1.9198  0.5980
 2138TIP3   OH228048   3.719   5.286   8.540  0.1077  0.3261 -0.0293
 2138TIP3    H128049   3.762   5.313   8.459  1.3775 -1.0565  0.1446
 2138TIP3    H228050   3.765   5.334   8.608 -0.3688  0.8113 -0.0428
 2139TIP3   OH228051   4.106   2.858   1.955  0.3933 -0.2196  0.2986
 2139TIP3    H128052   4.186   2.843   2.006  1.4130 -0.7436 -1.3618
 2139TIP3    H228053   4.138   2.892   1.871 -1.0667 -1.2907 -0.7341
 2140TIP3   OH228054   1.804   0.721   6.614 -0.0136 -0.3167 -0.9289
 2140TIP3    H128055   1.718   0.728   6.654  1.3319  0.8778  2.1099
 2140TIP3    H228056   1.815   0.803   6.565 -0.2472 -0.0016 -0.4607
 2141TIP3   OH228057   2.600   6.725   8.753 -0.1508  0.1034 -0.1624
 2141TIP3    H128058   2.613   6.800   8.696  1.0002  0.7175  0.8638
 2141TIP3    H228059   2.537   6.670   8.706  1.6598 -0.0564 -2.6347
 2142TIP3   OH228060   5.037   2.822   0.316 -0.3727 -0.1661 -0.3653
 2142TIP3    H128061   4.985   2.902   0.318 -0.8017 -0.4341  1.8402
 2142TIP3    H228062   5.128   2.852   0.316 -0.4640  0.4646  2.4615
 2143TIP3   OH228063   0.641   3.981   7.481 -0.4562 -0.7683  0.1399
 2143TIP3    H128064   0.566   3.932   7.513  0.0680 -0.9579  1.1054
 2143TIP3    H228065   0.698   3.992   7.557  0.8646 -1.3134 -0.7299
 2144TIP3   OH228066   4.323   3.627   1.867 -0.0750 -0.5953  0.2843
 2144TIP3    H128067   4.371   3.646   1.947  0.7307  2.6561 -0.8210
 2144TIP3    H228068   4.367   3.550   1.830  1.3675 -0.4070  1.5209
 2145TIP3   OH228069   4.366   6.577   0.504 -0.3986  0.4075 -0.0228
 2145TIP3    H128070   4.345   6.560   0.596 -0.0864 -0.0252 -0.0272
 2145TIP3    H228071   4.455   6.614   0.507 -0.7123  1.1933 -0.0888
 2146TIP3   OH228072   3.514   3.637   0.336  0.4745  0.3216 -0.1336
 2146TIP3    H128073   3.532   3.725   0.368  0.5627 -0.2164  1.3768
 2146TIP3    H228074   3.512   3.582   0.415 -3.4416 -0.4211 -0.5424
 2147TIP3   OH228075   5.911   0.315   8.424 -0.0851  0.2847 -0.3983
 2147TIP3    H128076   5.836   0.304   8.365  0.8107  0.7625 -1.6485
 2147TIP3    H228077   5.879   0.283   8.508 -1.4858 -0.1488 -1.0622
 2148TIP3   OH228078   1.394   0.050   0.371 -0.3470 -0.7638 -0.9473
 2148TIP3    H128079   1.446   0.020   0.295  1.0741 -0.2296 -0.2248
 2148TIP3    H228080   1.425  -0.005   0.443 -0.9420 -0.5586 -0.5337
 2149TIP3   OH228081   2.515   5.851   7.085 -0.1893  0.0546  1.0329
 2149TIP3    H128082   2.606   5.843   7.114  0.1324  2.9040  1.1147
 2149TIP3    H228083   2.512   5.806   7.001  1.0978 -0.6714  1.3536
 2150TIP3   OH228084   4.717   0.108   0.060 -0.2309 -0.1622  0.4923
 2150TIP3    H128085   4.775   0.072   0.127 -0.2759 -3.2799 -0.9564
 2150TIP3    H228086   4.776   0.134  -0.011 -0.2656  2.1626  1.2365
 2151TIP3   OH228087   6.150   1.957   8.398 -0.2411  0.3704 -0.7679
 2151TIP3    H128088   6.185   2.047   8.392  1.4784  0.0422  2.2936
 2151TIP3    H228089   6.062   1.968   8.433 -0.0636  0.9078 -0.4680
 2152TIP3   OH228090   0.851   4.603   0.122 -0.4565 -0.4008  0.4359
 2152TIP3    H128091   0.846   4.664   0.048  0.0309  0.5838  1.1906
 2152TIP3    H228092   0.863   4.659   0.199 -0.3805 -1.4324  1.2018
 2153TIP3   OH228093   3.279   0.968   2.110  0.0973  0.1524 -0.0227
 2153TIP3    H128094   3.211   0.901   2.121  1.1935 -1.3688 -1.8979
 2153TIP3    H228095   3.360   0.918   2.100  1.1296  1.8275 -0.3664
 2154TIP3   OH228096   1.777   4.767   8.267 -0.2376  0.2836  0.1893
 2154TIP3    H128097   1.735   4.845   8.303  0.3437 -0.1464  1.8853
 2154TIP3    H228098   1.739   4.695   8.316  1.2507 -0.2572  0.6022
 2155TIP3   OH228099   2.027   4.492   1.501  0.2372  0.2437  0.1867
 2155TIP3    H128100   2.073   4.476   1.584  0.8787 -1.2421 -0.4134
 2155TIP3    H228101   2.095   4.528   1.444 -0.3589  1.8891  0.4667
 2156TIP3   OH228102   3.447   0.569   8.224  0.2466  0.1623 -0.0169
 2156TIP3    H128103   3.469   0.515   8.148 -0.5022  2.2906 -1.8679
 2156TIP3    H228104   3.491   0.653   8.208  0.9084  0.3424  2.4434
 2157TIP3   OH228105   5.399   0.390   1.018  0.2439 -0.2561  0.3823
 2157TIP3    H128106   5.409   0.390   1.113 -2.5051 -2.4884  0.8146
 2157TIP3    H228107   5.381   0.298   0.996  0.8465  0.1983 -2.3084
 2158TIP3   OH228108   6.405   3.631   1.170  0.3391 -0.2602  0.3217
 2158TIP3    H128109   6.371   3.720   1.187  1.7049  0.3852 -0.2002
 2158TIP3    H228110   6.462   3.642   1.094  0.9737 -1.4895  0.6092
 2159TIP3   OH228111   3.152   2.077   9.025  0.3061 -0.5602  0.2384
 2159TIP3    H128112   3.145   2.046   9.115 -3.6226 -0.0349  0.2636
 2159TIP3    H228113   3.070   2.051   8.984  1.3782  0.4330 -2.8446
 2160TIP3   OH228114   4.218   2.715   7.809 -0.0647  0.2604  0.3882
 2160TIP3    H128115   4.284   2.765   7.761  1.2329 -2.2383 -0.6484
 2160TIP3    H228116   4.218   2.753   7.896  1.7898  1.2133  0.0329
 2161TIP3   OH228117   6.188   0.689   0.916 -0.3660 -0.0305 -0.3958
 2161TIP3    H128118   6.132   0.692   0.838 -1.1053 -2.9075 -0.0958
 2161TIP3    H228119   6.276   0.676   0.882 -0.1819  1.9872 -0.7940
 2162TIP3   OH228120   0.704   1.466   8.530 -0.1564 -0.2129 -0.1511
 2162TIP3    H128121   0.657   1.544   8.499  0.9360  0.0001 -1.3603
 2162TIP3    H228122   0.766   1.446   8.460  0.4775 -1.4116  0.7170
 2163TIP3   OH228123   6.398   5.852   0.724 -0.1579  0.2444 -0.0956
 2163TIP3    H128124   6.316   5.844   0.674 -1.1506  1.6413  1.2303
 2163TIP3    H228125   6.447   5.921   0.678 -1.0692  1.5279  0.7845
 2164TIP3   OH228126   1.288   6.759   0.023 -0.1744 -0.1384 -0.0621
 2164TIP3    H128127   1.225   6.827   0.003  1.7610  1.2949 -1.7282
 2164TIP3    H228128   1.374   6.801   0.011  1.1289 -2.2186  1.1889
 2165TIP3   OH228129   5.059   4.295   8.220  0.0730  0.0369 -0.0388
 2165TIP3    H128130   5.119   4.300   8.294 -0.1604 -0.4370  0.1807
 2165TIP3    H228131   4.992   4.361   8.238  1.1317  1.3914 -0.8391
 2166TIP3   OH228132   3.394   5.915   7.904  0.0886  0.1217 -0.7265
 2166TIP3    H128133   3.413   5.822   7.892  0.6656  0.1935 -0.4029
 2166TIP3    H228134   3.462   5.946   7.963 -0.7374  0.5024  0.0563
 2167TIP3   OH228135   5.548   0.261   8.565 -0.0575 -0.2644  0.0222
 2167TIP3    H128136   5.484   0.244   8.634 -0.4757 -0.0650 -0.3149
 2167TIP3    H228137   5.497   0.258   8.484 -0.2344  2.7458 -0.0948
 2168TIP3   OH228138   1.881   3.508   0.861 -0.4296  0.2437 -0.3019
 2168TIP3    H128139   1.873   3.445   0.932  2.2109  0.7376  0.5426
 2168TIP3    H228140   1.814   3.482   0.798 -0.5179 -2.3703  0.7522
 2169TIP3   OH228141   6.549   2.124   1.115 -0.1269 -0.1029  0.0636
 2169TIP3    H128142   6.619   2.175   1.075 -1.1088  1.2085 -0.0418
 2169TIP3    H228143   6.481   2.120   1.048 -1.4150  1.3337  1.2044
 2170TIP3   OH228144   3.835   2.003   8.424  0.2853  0.3059 -0.4088
 2170TIP3    H128145   3.909   1.943   8.433  2.3892  2.3911 -2.3028
 2170TIP3    H228146   3.797   1.982   8.338 -0.4073  0.2404 -0.0985
 2171TIP3   OH228147   5.790   5.175   8.256 -0.3941 -0.8694 -0.0220
 2171TIP3    H128148   5.755   5.207   8.173  1.4228 -2.2387 -1.4017
 2171TIP3    H228149   5.713   5.153   8.308 -1.5767 -0.0501 -1.3678
 2172TIP3   OH228150   2.161   0.937   8.213 -0.0976  0.4904  0.3718
 2172TIP3    H128151   2.147   0.925   8.119  0.3633 -1.1530  0.4814
 2172TIP3    H228152   2.140   0.852   8.251 -2.0363  1.5994  2.0109
 2173TIP3   OH228153   4.591   3.079   0.790 -0.0926 -0.0119  0.5637
 2173TIP3    H128154   4.632   3.064   0.705  0.5154  1.1739  0.6237
 2173TIP3    H228155   4.664   3.097   0.849 -0.6107  1.0054  0.9235
 2174TIP3   OH228156   2.259   5.779   1.670  0.3827 -0.3229  0.1905
 2174TIP3    H128157   2.227   5.761   1.758 -0.2512 -2.2447 -0.3834
 2174TIP3    H228158   2.201   5.848   1.637  1.1658  1.0252  1.5420
 2175TIP3   OH228159   2.214   6.433   7.736  0.2792 -0.0822  0.1705
 2175TIP3    H128160   2.137   6.436   7.680  0.3098 -0.5202  0.1016
 2175TIP3    H228161   2.288   6.448   7.677  0.1582  2.1357  0.4882
 2176TIP3   OH228162   6.269   4.297   7.714 -0.0628  0.7164  0.1402
 2176TIP3    H128163   6.216   4.373   7.738  0.6612  1.2871 -0.0445
 2176TIP3    H228164   6.355   4.333   7.694  0.5413 -0.2617  0.9003
 2177TIP3   OH228165   2.232   0.780   1.786  0.3358  0.0007 -0.0403
 2177TIP3    H128166   2.168   0.783   1.714  1.0472  0.0766 -0.6869
 2177TIP3    H228167   2.182   0.749   1.861 -1.1951  2.8100  0.2496
 2178TIP3   OH228168   3.558   5.785   8.881  0.0071  0.6066  0.1556
 2178TIP3    H128169   3.568   5.713   8.944  0.7755  0.8057  0.2726
 2178TIP3    H228170   3.476   5.766   8.835 -0.1270  0.0056  0.6340
 2179TIP3   OH228171   4.546   2.086   2.567 -0.1498  1.0281 -0.0018
 2179TIP3    H128172   4.503   2.172   2.562 -1.7824  0.4002  1.7789
 2179TIP3    H228173   4.484   2.026   2.526  0.4354  0.5245 -0.1591
 2180TIP3   OH228174   4.778   3.060   1.125 -0.1232 -0.3080 -0.3112
 2180TIP3    H128175   4.732   3.001   1.185  0.4379 -1.6561 -1.1717
 2180TIP3    H228176   4.871   3.043   1.142  0.0960  1.4506  0.4948
 2181TIP3   OH228177   4.081   1.769   0.771 -0.4244  0.2666 -0.9742
 2181TIP3    H128178   4.043   1.736   0.853  2.3138 -1.8970 -0.3970
 2181TIP3    H228179   4.055   1.861   0.768 -1.0910  0.2993  2.0510
 2182TIP3   OH228180   4.561   0.918   7.481 -0.1079 -0.1259  0.1890
 2182TIP3    H128181   4.492   0.984   7.492 -0.5382 -0.5324 -0.0362
 2182TIP3    H228182   4.514   0.838   7.461  0.4625 -0.2896 -0.5354
 2183TIP3   OH228183   4.467   5.551   1.114 -0.3255 -0.3531 -0.3161
 2183TIP3    H128184   4.547   5.589   1.149 -0.1799 -2.1074  1.4509
 2183TIP3    H228185   4.397   5.603   1.154 -0.1448  1.1542 -1.8295
 2184TIP3   OH228186   3.104   4.247   0.468  0.2869 -0.0205  0.5306
 2184TIP3    H128187   3.183   4.232   0.416  0.6332  0.8436  0.7932
 2184TIP3    H228188   3.125   4.211   0.555  0.2279 -0.1876  0.4760
 2185TIP3   OH228189   1.022   6.564   8.735  0.4827 -0.0681 -0.2660
 2185TIP3    H128190   1.023   6.477   8.775 -1.5666 -0.1965 -0.4217
 2185TIP3    H228191   0.954   6.560   8.668  0.7790  1.4795 -0.7054
 2186TIP3   OH228192   2.360   1.809   1.453 -0.2026 -0.8048  0.1406
 2186TIP3    H128193   2.423   1.840   1.518  2.4877 -1.9513 -1.7180
 2186TIP3    H228194   2.358   1.877   1.387 -1.2424 -0.6131  0.3556
 2187TIP3   OH228195   6.397   6.498   1.781  0.2075 -0.5155  0.5636
 2187TIP3    H128196   6.385   6.428   1.844  1.0656 -1.8564 -0.7187
 2187TIP3    H228197   6.404   6.577   1.834 -0.6281 -1.3873  2.0422
 2188TIP3   OH228198   5.063   2.697   0.847 -0.3559  0.1935  0.0844
 2188TIP3    H128199   5.107   2.612   0.837  0.5386  0.8276 -1.9239
 2188TIP3    H228200   4.999   2.699   0.776 -0.3445  1.2012  0.0926
 2189TIP3   OH228201   6.413   2.977   1.404  0.0961 -0.0659 -0.2665
 2189TIP3    H128202   6.341   2.921   1.430  0.7207 -0.9679 -0.4563
 2189TIP3    H228203   6.388   3.065   1.434 -2.0018  0.0313 -2.0642
 2190TIP3   OH228204   1.893   1.055   6.759 -0.0038  0.0936 -0.1469
 2190TIP3    H128205   1.966   1.008   6.720 -0.5032 -1.3436  0.5774
 2190TIP3    H228206   1.929   1.141   6.783  0.9927  0.0145 -1.2760
 2191TIP3   OH228207   1.855   4.243   7.419  0.4314  0.2453  0.6131
 2191TIP3    H128208   1.896   4.234   7.332 -0.4868 -0.2349  0.2134
 2191TIP3    H228209   1.883   4.165   7.467 -0.1063 -0.1564  0.2911
 2192TIP3   OH228210   2.013   4.077   8.064 -0.0211  0.3680  0.5408
 2192TIP3    H128211   2.103   4.103   8.083  0.4161 -1.4081  1.0312
 2192TIP3    H228212   2.003   4.089   7.970  1.3275 -1.1380  0.1794
 2193TIP3   OH228213   0.815   6.607   8.976 -0.1624 -0.3976 -0.4380
 2193TIP3    H128214   0.884   6.628   8.913 -0.6698  1.8633 -0.3504
 2193TIP3    H228215   0.751   6.678   8.965 -1.0456 -0.8318  1.5095
 2194TIP3   OH228216   1.346   5.921   8.579  0.4226  0.2193  0.4157
 2194TIP3    H128217   1.254   5.909   8.603 -0.2450  2.0311 -1.0462
 2194TIP3    H228218   1.351   5.889   8.489  1.0193  0.9518  0.1839
 2195TIP3   OH228219   4.084   5.726   0.069  0.4510  0.6949 -0.1093
 2195TIP3    H128220   4.014   5.792   0.072  0.0313  0.4964 -3.1023
 2195TIP3    H228221   4.154   5.767   0.018  1.4918 -0.0585  0.6794
 2196TIP3   OH228222   0.316   3.969   1.373  0.0703 -0.2055 -0.0127
 2196TIP3    H128223   0.355   4.025   1.306 -0.3494 -0.2426 -0.2886
 2196TIP3    H228224   0.360   3.995   1.454  0.2215  0.1856 -0.2172
 2197TIP3   OH228225   3.721   0.921   6.957  0.0422 -0.3154  0.1361
 2197TIP3    H128226   3.696   0.873   7.037  0.7309  0.1132  0.6206
 2197TIP3    H228227   3.815   0.939   6.969  0.5079 -1.5176 -1.4334
 2198TIP3   OH228228   2.477   6.497   0.978 -0.6978 -0.2087  0.0144
 2198TIP3    H128229   2.446   6.476   1.066 -0.3580 -1.9683 -0.2594
 2198TIP3    H228230   2.546   6.562   0.992 -2.0625  1.1092  0.8685
 2199TIP3   OH228231   0.774   4.874   7.274 -0.1216  0.0426  0.8948
 2199TIP3    H128232   0.849   4.874   7.334  0.5573  0.8491  0.0623
 2199TIP3    H228233   0.718   4.945   7.306  1.7877  2.6727 -1.2566
 2200TIP3   OH228234   3.222   6.712   0.424  0.5586  0.1562  0.0203
 2200TIP3    H128235   3.193   6.626   0.394 -0.8644  0.7193 -0.3179
 2200TIP3    H228236   3.199   6.715   0.517 -1.3803  0.9292 -0.4458
 2201TIP3   OH228237   3.133   5.285   7.948  0.0784 -0.3522  0.0100
 2201TIP3    H128238   3.148   5.372   7.911 -1.6380 -0.0557 -0.0672
 2201TIP3    H228239   3.107   5.302   8.039 -0.3037 -0.7860 -0.0187
 2202TIP3   OH228240   0.574   2.281   8.153 -0.4252 -0.2668  0.2759
 2202TIP3    H128241   0.646   2.285   8.091 -0.4834  1.9549  0.2796
 2202TIP3    H228242   0.549   2.188   8.156  0.8999 -0.7106 -1.4537
 2203TIP3   OH228243   4.812   1.760   7.488  0.1490 -0.5625  0.1739
 2203TIP3    H128244   4.720   1.748   7.467  0.3567  1.8808 -2.6526
 2203TIP3    H228245   4.819   1.850   7.518  1.8837  0.1109 -1.9907
 2204TIP3   OH228246   0.041   5.939   0.389  0.1642 -0.2060  0.3678
 2204TIP3    H128247  -0.041   5.905   0.354  0.5719 -0.4546 -0.3575
 2204TIP3    H228248   0.076   5.993   0.319  0.5632  0.0022  0.7244
 2205TIP3   OH228249   6.514   3.148   0.685 -0.2197  0.0262 -0.0615
 2205TIP3    H128250   6.460   3.191   0.618 -0.9335  0.5052  0.7970
 2205TIP3    H228251   6.457   3.080   0.721 -0.3531  0.6858  1.0133
 2206TIP3   OH228252   0.086   5.217   7.483  0.1681 -0.1035  0.3692
 2206TIP3    H128253   0.049   5.301   7.456 -0.3254  0.0409  1.4291
 2206TIP3    H228254   0.128   5.183   7.405  2.9351  2.4623  0.5614
 2207TIP3   OH228255   4.855   4.692   7.592 -0.3039  0.3785  0.2822
 2207TIP3    H128256   4.912   4.748   7.540 -1.0863  1.2991  0.4013
 2207TIP3    H228257   4.865   4.605   7.553  0.1995  0.7788 -0.4972
 2208TIP3   OH228258   2.063   0.175   8.826  0.2713 -1.0465  0.2205
 2208TIP3    H128259   2.071   0.081   8.808  0.1496 -0.7839 -1.3106
 2208TIP3    H228260   2.152   0.209   8.817  0.2601 -0.9536  0.4503
 2209TIP3   OH228261   0.381   3.841   7.098  0.2007 -0.1785 -0.8755
 2209TIP3    H128262   0.468   3.863   7.131  0.0029 -0.3477 -0.2439
 2209TIP3    H228263   0.371   3.897   7.020  0.8256 -0.0768 -0.8900
 2210TIP3   OH228264   5.220   4.393   1.733 -0.3541  0.8057 -0.2299
 2210TIP3    H128265   5.224   4.337   1.811 -1.5041  0.9669 -0.0314
 2210TIP3    H228266   5.164   4.466   1.759 -1.0509  0.6804 -1.3113
 2211TIP3   OH228267   0.628   2.543   8.252  0.3504 -0.5962 -0.5516
 2211TIP3    H128268   0.651   2.512   8.340 -1.0413 -0.3140 -0.0694
 2211TIP3    H228269   0.620   2.463   8.200  0.2290 -0.8235 -0.1879
 2212TIP3   OH228270   2.897   3.803   2.683 -0.1843  0.1588  0.3603
 2212TIP3    H128271   2.859   3.784   2.597  1.0321 -1.8026  0.1877
 2212TIP3    H228272   2.871   3.729   2.738 -0.4558  1.1001  1.5402
 2213TIP3   OH228273   3.320   3.250   0.851  1.0903  0.4551  0.5324
 2213TIP3    H128274   3.328   3.309   0.776  0.0972  1.2944  1.0620
 2213TIP3    H228275   3.250   3.190   0.826  1.0750  0.4459  0.5974
 2214TIP3   OH228276   2.069   2.401   7.974  0.5190 -0.4169 -0.1124
 2214TIP3    H128277   2.114   2.462   7.916  1.8624 -0.5289  0.7730
 2214TIP3    H228278   2.119   2.320   7.968  0.4389 -0.5567  0.8857
 2215TIP3   OH228279   3.566   3.792   1.068 -0.6089  0.3149  0.5307
 2215TIP3    H128280   3.625   3.789   0.992 -0.8152 -0.2913  0.3909
 2215TIP3    H228281   3.482   3.763   1.034 -1.4315  2.6504  0.3623
 2216TIP3   OH228282   6.545   3.533   6.986  0.5869 -0.6210 -0.0805
 2216TIP3    H128283   6.572   3.509   6.897 -0.1129 -4.2543  0.5296
 2216TIP3    H228284   6.623   3.570   7.026  0.9246  1.0651 -2.1203
 2217TIP3   OH228285   3.299   4.785   7.698  0.0079 -0.2437  0.3217
 2217TIP3    H128286   3.297   4.693   7.726  0.2215 -0.0407  1.0385
 2217TIP3    H228287   3.392   4.804   7.686  0.0646  0.1994  1.3269
 2218TIP3   OH228288   1.265   2.014   0.662  0.0531  0.6166 -0.1681
 2218TIP3    H128289   1.216   2.056   0.591  0.7508  1.9637  0.1005
 2218TIP3    H228290   1.207   1.946   0.695 -0.8068  0.8410 -1.1774
 2219TIP3   OH228291   4.169   2.601   0.595  0.0210  0.2987 -0.1550
 2219TIP3    H128292   4.096   2.573   0.539  2.2760  0.0047 -3.2315
 2219TIP3    H228293   4.163   2.697   0.595 -0.6436  0.2629  0.0501
 2220TIP3   OH228294   5.614   5.492   8.863  0.6592  0.3222  0.0612
 2220TIP3    H128295   5.705   5.499   8.891  0.2251  1.9882  1.2206
 2220TIP3    H228296   5.607   5.553   8.789  0.2688  0.9651  0.6187
 2221TIP3   OH228297   6.564   4.941   7.824 -0.2877 -0.5546 -0.6759
 2221TIP3    H128298   6.651   4.939   7.784 -0.8303 -1.0671 -1.8714
 2221TIP3    H228299   6.504   4.954   7.750 -1.1625  1.0112  0.2402
 2222TIP3   OH228300   5.180   5.640   1.472 -0.0304 -0.0441 -0.1196
 2222TIP3    H128301   5.249   5.598   1.524  0.4301  1.2321  0.3532
 2222TIP3    H228302   5.169   5.726   1.513 -1.5538 -0.0265 -0.5055
 2223TIP3   OH228303   0.654   3.301   0.852 -0.5826  0.1218 -0.0365
 2223TIP3    H128304   0.674   3.240   0.781  2.0825  0.0951  0.6112
 2223TIP3    H228305   0.623   3.380   0.808  0.0279 -0.2555 -1.1896
 2224TIP3   OH228306   0.716   3.839   7.949 -0.0015  0.2292 -0.0020
 2224TIP3    H128307   0.655   3.913   7.946 -1.5266 -0.9873 -1.9102
 2224TIP3    H228308   0.673   3.774   8.005 -0.0833 -0.3013 -0.6588
 2225TIP3   OH228309   2.140   3.691   8.266 -0.2215 -0.1353  0.1007
 2225TIP3    H128310   2.132   3.737   8.349  0.6487 -1.5041  1.0015
 2225TIP3    H228311   2.216   3.732   8.223 -0.8681  0.7880 -0.1910
 2226TIP3   OH228312   5.409   6.587   0.096  0.0634  0.6525 -0.5343
 2226TIP3    H128313   5.492   6.620   0.129 -0.8464  1.7935  0.7913
 2226TIP3    H228314   5.398   6.502   0.139  0.6556  0.3737 -0.9256
 2227TIP3   OH228315   2.705   5.200   8.172  0.0601 -0.1595 -0.6966
 2227TIP3    H128316   2.666   5.183   8.086 -1.6847  1.4797 -0.2931
 2227TIP3    H228317   2.672   5.286   8.196  1.2722 -0.1877  1.2258
 2228TIP3   OH228318   3.103   4.035   1.331 -0.2895 -0.1438 -0.6707
 2228TIP3    H128319   3.060   3.965   1.281 -0.3888 -0.4262 -0.1925
 2228TIP3    H228320   3.087   4.013   1.422  1.4962 -0.6705 -0.4445
 2229TIP3   OH228321   1.079   6.278   1.199  0.3612 -0.3427 -0.3227
 2229TIP3    H128322   1.084   6.291   1.104  1.4989  2.3558  0.0358
 2229TIP3    H228323   0.995   6.233   1.212 -2.1413  3.2330 -2.3094
 2230TIP3   OH228324   1.354   4.517   8.440 -0.1810  0.0641  0.2382
 2230TIP3    H128325   1.391   4.434   8.408  0.9904  0.6853 -0.0619
 2230TIP3    H228326   1.371   4.515   8.534  1.1927  0.6003  0.0241
 2231TIP3   OH228327   6.075   1.785   1.404  0.3554  0.2892 -0.7649
 2231TIP3    H128328   6.068   1.704   1.455  0.5118  1.5734  1.4491
 2231TIP3    H228329   6.102   1.756   1.317 -1.7721 -2.1977 -0.7382
 2232TIP3   OH228330   1.834   4.975   0.189 -0.6386  0.0717 -0.3560
 2232TIP3    H128331   1.876   5.059   0.171 -0.9390 -0.0605 -1.7912
 2232TIP3    H228332   1.798   4.984   0.278  1.4871  0.5508  0.5185
 2233TIP3   OH228333   2.916   1.150   2.160  0.2108 -0.5429 -0.1147
 2233TIP3    H128334   2.827   1.144   2.192 -0.0402 -0.1513 -0.7148
 2233TIP3    H228335   2.907   1.184   2.071  0.9125 -1.1747 -0.4371
 2234TIP3   OH228336   3.154   5.441   7.080 -0.1501 -0.4755  0.2152
 2234TIP3    H128337   3.145   5.486   7.164  0.1397  1.3372 -0.6805
 2234TIP3    H228338   3.093   5.486   7.022  1.5505  0.0874 -1.2259
 2235TIP3   OH228339   2.695   2.893   0.547  0.6847  0.1235 -0.3208
 2235TIP3    H128340   2.610   2.905   0.588  0.9189 -1.1417  0.6066
 2235TIP3    H228341   2.688   2.936   0.462 -0.3313  1.4497  0.4046
 2236TIP3   OH228342   5.087   3.670   0.076  0.0971  0.0569  0.2331
 2236TIP3    H128343   5.156   3.659   0.142  0.7078  1.4685 -0.1313
 2236TIP3    H228344   5.021   3.724   0.119 -0.4679 -0.7157  0.3495
 2237TIP3   OH228345   4.399   3.484   8.112 -0.0594  0.3607 -0.2203
 2237TIP3    H128346   4.335   3.421   8.144 -0.9868  2.4478  2.3879
 2237TIP3    H228347   4.362   3.513   8.028 -0.6031 -1.0831 -0.5181
 2238TIP3   OH228348   2.451   0.253   0.424  0.0607  0.0967 -0.5125
 2238TIP3    H128349   2.471   0.343   0.397 -1.0564  0.8027  0.8739
 2238TIP3    H228350   2.497   0.198   0.360  0.7379  1.6408 -1.4155
 2239TIP3   OH228351   0.038   0.967   0.353 -0.1635  0.4732  0.9011
 2239TIP3    H128352   0.130   0.973   0.328 -0.1218  1.3273  1.2247
 2239TIP3    H228353   0.020   1.049   0.398 -1.0791  0.3031  0.8683
 2240TIP3   OH228354   2.077   4.754   7.759 -0.0474 -0.2266  0.5001
 2240TIP3    H128355   2.064   4.849   7.758 -1.3664 -0.2899  2.9823
 2240TIP3    H228356   2.165   4.742   7.792  0.1966  0.1110 -0.0070
 2241TIP3   OH228357   2.399   3.294   7.449  0.1704 -0.2001 -0.1089
 2241TIP3    H128358   2.415   3.204   7.420 -0.9076  0.1766 -2.0584
 2241TIP3    H228359   2.333   3.285   7.518 -1.0957 -0.8421 -1.3488
 2242TIP3   OH228360   1.314   0.877   6.912 -0.2559 -0.6648  0.1888
 2242TIP3    H128361   1.356   0.793   6.931  2.2066  0.3391 -0.3188
 2242TIP3    H228362   1.312   0.881   6.816  1.0853  0.4239  0.1607
 2243TIP3   OH228363   5.245   0.757   2.136 -0.0557 -0.3133 -0.8497
 2243TIP3    H128364   5.154   0.729   2.146  0.1785 -0.5728  0.8525
 2243TIP3    H228365   5.248   0.845   2.173  0.6690 -0.9068  0.6080
 2244TIP3   OH228366   1.765   0.534   1.810  0.5073  0.0634  0.5269
 2244TIP3    H128367   1.758   0.496   1.722 -1.0186 -1.4002  1.2322
 2244TIP3    H228368   1.674   0.538   1.841  1.0268  0.5495  2.0449
 2245TIP3   OH228369   3.348   0.605   7.419  0.7858 -0.0567 -0.2924
 2245TIP3    H128370   3.323   0.674   7.480 -0.1507  0.4161 -1.1735
 2245TIP3    H228371   3.265   0.559   7.401  1.4354 -1.6326  0.5281
 2246TIP3   OH228372   0.474   4.669   6.763  0.5037  0.2676  0.0102
 2246TIP3    H128373   0.500   4.592   6.812  1.5710  0.7365  0.2041
 2246TIP3    H228374   0.401   4.706   6.814  0.9345  0.1884  0.6923
 2247TIP3   OH228375   2.306   1.498   1.625 -0.6271  0.2042 -0.1603
 2247TIP3    H128376   2.220   1.541   1.632 -0.4268  0.9296 -1.6245
 2247TIP3    H228377   2.361   1.543   1.689 -0.9835  0.7118 -0.2008
 2248TIP3   OH228378   5.939   1.091   1.315 -0.2322 -0.3362 -0.4847
 2248TIP3    H128379   5.922   1.039   1.237 -0.9706  0.4799 -0.8891
 2248TIP3    H228380   5.921   1.181   1.288  0.8303  0.1166  0.2451
 2249TIP3   OH228381   6.298   6.376   7.817  0.3870  0.4161  0.6763
 2249TIP3    H128382   6.371   6.425   7.779  0.5159  0.3376  0.8203
 2249TIP3    H228383   6.298   6.292   7.770 -0.2532  0.8087 -0.0389
 2250TIP3   OH228384   5.772   3.778   2.017 -0.0138 -0.9665  0.5917
 2250TIP3    H128385   5.833   3.732   1.961 -0.0332 -0.4924  0.1714
 2250TIP3    H228386   5.708   3.816   1.957 -0.3228 -0.8831  0.9715
 2251TIP3   OH228387   1.055   0.744   9.028 -0.1406  0.9083  0.2385
 2251TIP3    H128388   1.042   0.743   9.123  0.5931 -0.3677  0.3506
 2251TIP3    H228389   0.985   0.688   8.994 -0.3977  1.3587  0.0218
 2252TIP3   OH228390   3.824   2.674   8.126  0.2390  0.1902  0.1423
 2252TIP3    H128391   3.916   2.648   8.135  0.0413  0.0325  2.0596
 2252TIP3    H228392   3.824   2.737   8.053  1.3869 -1.9014 -1.8174
 2253TIP3   OH228393   1.746   5.477   8.020 -0.2716  0.4205 -0.9017
 2253TIP3    H128394   1.667   5.456   8.069 -0.1964  2.1435  0.0699
 2253TIP3    H228395   1.778   5.393   7.987 -2.2368 -0.3634 -0.9379
 2254TIP3   OH228396   1.102   1.295   8.250  0.5821  0.3004 -0.1882
 2254TIP3    H128397   1.179   1.344   8.281  0.5110  0.5607 -0.4161
 2254TIP3    H228398   1.091   1.224   8.313  1.6484 -0.3694 -0.7262
 2255TIP3   OH228399   6.592   3.832   1.245  0.7880 -0.3513 -0.1553
 2255TIP3    H128400   6.531   3.893   1.287  0.6351 -1.1443  0.8136
 2255TIP3    H228401   6.657   3.888   1.202  1.2818  0.5044  1.6308
 2256TIP3   OH228402   0.917   4.862   0.691  0.1089 -0.5197 -0.4659
 2256TIP3    H128403   0.914   4.870   0.786  1.4859 -1.0923 -0.3494
 2256TIP3    H228404   0.861   4.933   0.659 -1.6472 -1.2713  0.7773
 2257TIP3   OH228405   1.641   1.519   7.351  0.5776  0.3327 -0.2797
 2257TIP3    H128406   1.547   1.520   7.370  0.6254  0.0474 -0.0044
 2257TIP3    H228407   1.656   1.595   7.296  0.0836  0.0625 -0.7954
 2258TIP3   OH228408   3.440   5.275   2.551 -0.3793  0.7753 -0.0379
 2258TIP3    H128409   3.402   5.188   2.560 -1.5053  1.2565 -0.0084
 2258TIP3    H228410   3.383   5.332   2.603  0.9588  1.3730  0.8339
 2259TIP3   OH228411   0.872   3.050   1.073  0.3195 -0.7180  0.1448
 2259TIP3    H128412   0.833   2.999   1.002 -1.3494  0.7100 -0.0324
 2259TIP3    H228413   0.957   3.079   1.039 -0.2688 -0.4154 -1.1015
 2260TIP3   OH228414   0.309   1.942   2.347 -0.3630 -0.2248 -0.0319
 2260TIP3    H128415   0.277   1.893   2.423 -0.5740  0.3994  0.2862
 2260TIP3    H228416   0.397   1.972   2.373 -1.4047  2.1938  1.0232
 2261TIP3   OH228417   5.185   6.474   0.367  0.2503 -0.3613 -0.4723
 2261TIP3    H128418   5.108   6.448   0.316  0.3856 -2.2961  0.2111
 2261TIP3    H228419   5.259   6.443   0.316  0.4871 -0.1682 -0.2478
 2262TIP3   OH228420   2.036   1.843   1.409  0.1028  0.3602 -0.0417
 2262TIP3    H128421   1.997   1.928   1.385  2.1250  0.8283 -2.0108
 2262TIP3    H228422   2.130   1.861   1.415  0.4920 -1.6007  0.1870
 2263TIP3   OH228423   5.028   3.592   8.062  0.1955  0.2133 -0.4001
 2263TIP3    H128424   4.998   3.660   8.003  3.4592  0.7211 -1.6826
 2263TIP3    H228425   5.080   3.533   8.007  1.0687 -0.8671  1.4668
 2264TIP3   OH228426   5.204   0.078   8.118  0.3565 -0.7372  0.1506
 2264TIP3    H128427   5.142   0.151   8.125  0.4930 -0.5276 -0.7600
 2264TIP3    H228428   5.229   0.060   8.209 -1.8930 -1.5725  0.6694
 2265TIP3   OH228429   5.929   2.343   6.456 -0.0048  0.1172 -0.4739
 2265TIP3    H128430   5.901   2.313   6.543 -1.0806 -0.3783 -0.9652
 2265TIP3    H228431   5.859   2.312   6.397  0.3621  1.0466 -1.4167
 2266TIP3   OH228432   0.191   5.824   8.087 -0.3009 -0.4404 -0.4213
 2266TIP3    H128433   0.229   5.899   8.040  1.2241 -0.5668  0.5178
 2266TIP3    H228434   0.139   5.778   8.022  0.3802  0.3231 -1.5359
 2267TIP3   OH228435   2.778   3.772   7.797  0.1419 -0.3496 -0.3541
 2267TIP3    H128436   2.871   3.793   7.803  0.8625 -3.5174  2.5220
 2267TIP3    H228437   2.739   3.816   7.872 -0.8038  1.0308 -1.5909
 2268TIP3   OH228438   1.112   6.389   0.518  0.4889  0.2914  0.2788
 2268TIP3    H128439   1.187   6.422   0.569  0.1664 -0.1538  1.0723
 2268TIP3    H228440   1.143   6.387   0.428  0.8910  1.6547  0.3605
 2269TIP3   OH228441   3.320   0.058   1.474  0.4451  0.1772  0.0944
 2269TIP3    H128442   3.360   0.012   1.548 -0.8095 -0.1764  0.5714
 2269TIP3    H228443   3.230   0.027   1.472  0.7234 -0.6881 -2.2963
 2270TIP3   OH228444   0.152   3.998   7.591  0.4979  0.4528  0.0423
 2270TIP3    H128445   0.132   3.968   7.502  1.7489  0.8426 -0.3967
 2270TIP3    H228446   0.173   4.091   7.581  2.1839  0.1611  0.4625
 2271TIP3   OH228447   1.510   4.527   1.266 -0.0162  0.2982  0.1059
 2271TIP3    H128448   1.487   4.472   1.191  1.6347 -0.8334  0.3725
 2271TIP3    H228449   1.525   4.613   1.228  2.0428 -0.5344 -1.1410
 2272TIP3   OH228450   3.654   0.000   8.522  0.0333  1.1039  0.1667
 2272TIP3    H128451   3.672  -0.069   8.586  0.8435  0.9488 -0.2086
 2272TIP3    H228452   3.593   0.059   8.567 -0.7081  0.1259  0.4756
 2273TIP3   OH228453   2.463   4.781   0.640  0.4666 -0.3177 -0.3854
 2273TIP3    H128454   2.463   4.759   0.547 -0.1109  0.6521 -0.6352
 2273TIP3    H228455   2.381   4.829   0.653 -0.0100 -1.4063  0.8685
 2274TIP3   OH228456   4.705   1.668   0.613  0.3233 -0.2912  0.9464
 2274TIP3    H128457   4.690   1.738   0.549  3.4175 -0.2605  0.0842
 2274TIP3    H228458   4.630   1.609   0.602  0.6593 -0.2936 -2.7827
 2275TIP3   OH228459   0.627   4.407   0.197 -0.0221 -0.2828  0.7939
 2275TIP3    H128460   0.539   4.438   0.218  0.1845  0.2144  0.9400
 2275TIP3    H228461   0.683   4.445   0.266  0.5799  0.8974 -0.2910
 2276TIP3   OH228462   3.859   6.310   0.254  0.1270 -0.6255  0.7614
 2276TIP3    H128463   3.775   6.296   0.210  0.0596 -0.3079  0.7821
 2276TIP3    H228464   3.846   6.392   0.303 -0.3106 -1.7377  2.6094
 2277TIP3   OH228465   1.929   5.466   7.090 -0.4789  0.4474  0.0350
 2277TIP3    H128466   1.856   5.446   7.032  0.1024 -1.1853 -0.1988
 2277TIP3    H228467   2.005   5.425   7.049 -0.3133 -2.2813  2.6533
 2278TIP3   OH228468   3.495   5.623   7.909  0.4761 -0.2637 -0.1976
 2278TIP3    H128469   3.507   5.555   7.975 -0.0577 -0.4284 -0.2669
 2278TIP3    H228470   3.439   5.583   7.843  0.8443 -0.0322 -0.6551
 2279TIP3   OH228471   0.374   5.207   0.500 -0.0819 -0.5547 -0.3177
 2279TIP3    H128472   0.344   5.287   0.457 -2.3344 -0.2860  1.5456
 2279TIP3    H228473   0.460   5.230   0.536  0.2333  0.3227 -1.5867
 2280TIP3   OH228474   1.985   4.656   7.994 -0.2140 -0.6707 -0.3732
 2280TIP3    H128475   1.992   4.737   8.045  0.8209 -0.1942 -1.2416
 2280TIP3    H228476   2.015   4.680   7.906  0.3362 -2.0507 -0.5839
 2281TIP3   OH228477   0.900   1.097   2.437 -0.2172  0.0489 -0.4203
 2281TIP3    H128478   0.880   1.060   2.523  1.0100  0.3527  0.0151
 2281TIP3    H228479   0.896   1.022   2.377  0.5490 -0.4936  0.1826
 2282TIP3   OH228480   0.988   2.972   9.006 -0.2795 -0.3038 -0.5949
 2282TIP3    H128481   0.991   3.023   8.925  1.4706  1.8689  0.7135
 2282TIP3    H228482   0.950   3.031   9.071  0.7945 -1.0340  0.7564
 2283TIP3   OH228483   1.233   5.398   8.925  0.3232  0.2150  0.4029
 2283TIP3    H128484   1.163   5.334   8.931  1.1368 -0.7052  0.3527
 2283TIP3    H228485   1.277   5.377   8.842  1.1309  0.2721  0.8083
 2284TIP3   OH228486   1.487   1.410   7.744  0.3205 -0.2876 -0.2451
 2284TIP3    H128487   1.469   1.439   7.833 -0.3868  0.3806 -0.5954
 2284TIP3    H228488   1.506   1.490   7.695 -0.7078 -0.4780 -1.0090
 2285TIP3   OH228489   5.007   4.629   6.943 -0.2355 -0.3157  0.3316
 2285TIP3    H128490   4.931   4.583   6.908 -0.6054 -0.7436  1.6465
 2285TIP3    H228491   4.992   4.633   7.037  0.3110  1.5579  0.3870
 2286TIP3   OH228492   1.450   5.357   0.357  0.2599 -0.3239  0.0445
 2286TIP3    H128493   1.544   5.349   0.345  0.3613 -1.9359  1.4660
 2286TIP3    H228494   1.436   5.447   0.385  1.1732  0.3662 -1.5787
 2287TIP3   OH228495   0.822   5.533   0.461  0.1331 -0.1102 -0.0086
 2287TIP3    H128496   0.863   5.450   0.485 -1.3638 -0.4934  1.4297
 2287TIP3    H228497   0.763   5.511   0.389  1.4947  0.2071 -1.2571
 2288TIP3   OH228498   3.965   6.066   0.900 -0.4509 -0.2165 -0.2896
 2288TIP3    H128499   3.941   6.154   0.928  0.9213  0.2095 -0.3651
 2288TIP3    H228500   4.051   6.077   0.859 -0.6192 -1.4649 -1.0224
 2289TIP3   OH228501   0.802   5.775   0.024 -0.5114  0.2076  0.4820
 2289TIP3    H128502   0.868   5.841   0.044 -0.1244 -0.1169  0.2919
 2289TIP3    H228503   0.771   5.798  -0.064 -1.4181  0.9797  0.9814
 2290TIP3   OH228504   3.538   2.054   1.241  0.5529 -0.5318 -0.4741
 2290TIP3    H128505   3.521   2.024   1.330 -0.6655  0.3958 -0.3700
 2290TIP3    H228506   3.616   2.109   1.248 -0.4253  0.8186  0.3272
 2291TIP3   OH228507   1.904   4.160   7.160 -0.2765 -0.9083 -0.6913
 2291TIP3    H128508   1.909   4.115   7.075 -2.1486 -2.3348 -0.1209
 2291TIP3    H228509   1.871   4.248   7.138 -0.8873 -1.3054 -1.4589
 2292TIP3   OH228510   3.085   1.536   1.148 -0.1650  0.1958 -0.2969
 2292TIP3    H128511   3.060   1.561   1.058 -1.5494  1.1063  0.3046
 2292TIP3    H228512   3.011   1.483   1.179  1.0637 -1.5584 -0.2432
 2293TIP3   OH228513   2.405   6.347   1.664 -0.1916  0.5936 -0.1219
 2293TIP3    H128514   2.371   6.397   1.738 -1.7415 -0.1968 -0.2775
 2293TIP3    H228515   2.476   6.294   1.701 -1.4032 -0.3192  0.9642
 2294TIP3   OH228516   5.092   3.713   6.961  0.4253  0.4032  0.0855
 2294TIP3    H128517   5.038   3.691   7.038 -0.6174  0.4863 -0.6097
 2294TIP3    H228518   5.164   3.765   6.997  0.6551 -0.6051  1.1841
 2295TIP3   OH228519   1.715   3.485   1.498 -0.5051  0.4513 -0.1422
 2295TIP3    H128520   1.726   3.488   1.593  0.7356  2.7339 -0.2776
 2295TIP3    H228521   1.626   3.452   1.485 -0.6110 -0.1352  1.7860
 2296TIP3   OH228522   3.934   1.868   1.014 -0.1303 -0.2452  0.4466
 2296TIP3    H128523   3.852   1.879   0.966 -0.3775  0.9415  1.0984
 2296TIP3    H228524   3.921   1.790   1.068 -0.6813 -0.2921  0.2427
 2297TIP3   OH228525   1.021   6.022   7.287 -0.8347 -0.5711 -0.3806
 2297TIP3    H128526   1.068   5.941   7.268  0.5863 -0.8127  3.4229
 2297TIP3    H228527   1.005   6.061   7.200  1.1184 -3.3820 -2.1710
 2298TIP3   OH228528   6.230   1.825   2.707 -0.7722  0.2677  0.2320
 2298TIP3    H128529   6.264   1.774   2.633 -0.6021  0.5581  0.1021
 2298TIP3    H228530   6.280   1.795   2.782 -1.8911 -1.0003  0.4955
 2299TIP3   OH228531   1.518   2.272   1.972  0.0213 -0.3558  0.0986
 2299TIP3    H128532   1.574   2.235   1.904  0.4873 -0.6961  0.6577
 2299TIP3    H228533   1.468   2.197   2.005 -0.6699 -0.0774 -0.3051
 2300TIP3   OH228534   1.278   1.707   7.837  0.0167  0.7956  0.1423
 2300TIP3    H128535   1.196   1.669   7.868  0.9339 -0.2507  1.3995
 2300TIP3    H228536   1.259   1.737   7.749 -1.5291 -0.0461  0.1564
 2301TIP3   OH228537   1.175   6.059   0.073  0.2681 -0.2871  0.4304
 2301TIP3    H128538   1.218   6.135   0.032  1.8751 -1.6177 -0.5209
 2301TIP3    H228539   1.166   6.083   0.165  1.6051  0.7158  0.3386
 2302TIP3   OH228540   2.923   5.563   8.107  0.0292 -0.3946  0.3152
 2302TIP3    H128541   2.903   5.518   8.025 -0.3761 -0.9747  0.7114
 2302TIP3    H228542   2.986   5.505   8.151  1.9488  0.9771 -0.5167
 2303TIP3   OH228543   1.783   2.627   8.250 -0.2123 -0.7111 -0.3168
 2303TIP3    H128544   1.818   2.557   8.196  1.3283 -1.2917  1.3086
 2303TIP3    H228545   1.764   2.585   8.334 -2.2476  0.2075 -0.2545
 2304TIP3   OH228546   5.462   4.625   0.367 -0.1725  0.1910  0.7899
 2304TIP3    H128547   5.449   4.559   0.436  1.3276 -0.8311  0.1389
 2304TIP3    H228548   5.395   4.603   0.301 -0.3056 -0.0795  1.0103
 2305TIP3   OH228549   4.626   6.454   7.658 -0.4166  0.3434 -0.5109
 2305TIP3    H128550   4.531   6.462   7.649 -0.3400 -0.1979 -1.9898
 2305TIP3    H228551   4.643   6.360   7.657  0.1399  0.4387 -0.3098
 2306TIP3   OH228552   3.351   4.443   1.271 -0.6617 -0.2659  0.0673
 2306TIP3    H128553   3.276   4.466   1.215 -0.5295 -0.5521 -0.2365
 2306TIP3    H228554   3.312   4.414   1.353 -0.8501  0.4196  0.2290
 2307TIP3   OH228555   3.360   1.557   0.617 -0.5407  0.1592 -0.2408
 2307TIP3    H128556   3.381   1.554   0.524  0.6363  1.2170 -0.0491
 2307TIP3    H228557   3.404   1.636   0.649 -1.0784 -0.0721  1.1770
 2308TIP3   OH228558   6.082   1.681   6.982 -0.3116 -0.2255  0.2094
 2308TIP3    H128559   6.098   1.603   6.929 -0.5796 -0.8224  1.0133
 2308TIP3    H228560   6.157   1.738   6.962 -0.2403 -0.5710 -0.5600
 2309TIP3   OH228561   2.807   0.701   0.609 -0.5383 -0.7233 -0.3344
 2309TIP3    H128562   2.794   0.744   0.694  3.6398 -3.3743  1.9614
 2309TIP3    H228563   2.872   0.755   0.565 -1.3795 -0.3429 -1.1538
 2310TIP3   OH228564   2.972   2.247   8.251  0.1315 -0.2093  0.3720
 2310TIP3    H128565   2.929   2.265   8.167 -1.1127 -0.6129  0.9015
 2310TIP3    H228566   2.926   2.171   8.286  2.0224 -1.3849  0.4738
 2311TIP3   OH228567   0.829   6.426   7.385  0.0367  0.7042 -0.3444
 2311TIP3    H128568   0.869   6.357   7.439 -0.2724 -0.5972 -1.7366
 2311TIP3    H228569   0.877   6.422   7.302  0.7189  2.8925 -0.1354
 2312TIP3   OH228570   3.457   6.566   8.522  0.0576  0.3437  0.1713
 2312TIP3    H128571   3.413   6.583   8.606 -0.4039  2.5323 -0.4385
 2312TIP3    H228572   3.537   6.518   8.546 -0.1064  0.8392  1.8603
 2313TIP3   OH228573   3.069   6.684   8.729  0.9362 -0.1373 -0.2248
 2313TIP3    H128574   3.055   6.603   8.778 -0.0941  0.6551  0.8526
 2313TIP3    H228575   3.001   6.682   8.661  2.0672 -1.0118 -1.3784
 2314TIP3   OH228576   2.433   5.886   7.647  0.3260  0.4247 -0.0720
 2314TIP3    H128577   2.463   5.796   7.631  0.7327  0.1111  2.0694
 2314TIP3    H228578   2.347   5.875   7.689  0.4322  1.0232  0.3092
 2315TIP3   OH228579   4.824   6.120   0.739  0.9945 -0.2544  0.1908
 2315TIP3    H128580   4.844   6.213   0.725  0.1348 -0.0597  0.2300
 2315TIP3    H228581   4.906   6.075   0.718  1.3196  0.4819 -0.1641
 2316TIP3   OH228582   0.017   3.687   2.201 -0.8272  0.0918  0.0381
 2316TIP3    H128583   0.092   3.633   2.226  0.5929  1.5864 -0.7957
 2316TIP3    H228584  -0.002   3.739   2.279 -0.0213  0.7626 -0.2057
 2317TIP3   OH228585   2.329   6.342   0.233 -0.0994 -0.2673 -0.0823
 2317TIP3    H128586   2.250   6.370   0.187 -0.0944  1.7459  1.0138
 2317TIP3    H228587   2.399   6.350   0.167 -0.7088 -1.6621 -0.9355
 2318TIP3   OH228588   4.087   4.858   2.498 -0.1687  0.0446  0.1621
 2318TIP3    H128589   4.053   4.924   2.437 -0.4965 -1.3615 -1.2407
 2318TIP3    H228590   4.180   4.880   2.507 -0.1226  0.3165 -0.8278
 2319TIP3   OH228591   0.533   2.531   8.712  0.3603 -0.7098 -0.0756
 2319TIP3    H128592   0.522   2.439   8.736 -1.4701 -0.8155 -1.1578
 2319TIP3    H228593   0.452   2.554   8.667  2.3815  0.2924 -3.5598
 2320TIP3   OH228594   0.898   2.691   8.380 -0.1252 -0.1002  0.0024
 2320TIP3    H128595   0.836   2.753   8.420  0.0886  1.5928 -2.1506
 2320TIP3    H228596   0.951   2.660   8.454 -0.7359  1.6883  1.2629
 2321TIP3   OH228597   0.270   6.119   8.413 -0.1927 -0.4380  0.1239
 2321TIP3    H128598   0.194   6.061   8.416 -2.0066  1.8416  1.3404
 2321TIP3    H228599   0.244   6.191   8.355  0.2600  1.3225  1.9899
 2322TIP3   OH228600   0.266   4.392   1.413  0.1492  0.5446  0.1533
 2322TIP3    H128601   0.326   4.349   1.352  0.4994  2.3375 -0.8087
 2322TIP3    H228602   0.321   4.410   1.490 -0.2944 -1.7160  1.1042
 2323TIP3   OH228603   1.109   2.540   1.517 -0.4557  0.5369  0.2530
 2323TIP3    H128604   1.076   2.559   1.429 -2.9709  0.2418  1.0517
 2323TIP3    H228605   1.154   2.456   1.507 -0.4071  0.6671 -0.8179
 2324TIP3   OH228606   0.594   1.708   8.424  0.0775  0.2899  0.0556
 2324TIP3    H128607   0.538   1.771   8.469 -0.2587  2.0980 -2.6753
 2324TIP3    H228608   0.661   1.761   8.381  0.7573 -1.3497 -1.0211
 2325TIP3   OH228609   4.273   4.749   8.067 -0.3509  0.2397  0.0526
 2325TIP3    H128610   4.256   4.661   8.099  0.0019 -0.4711 -1.6414
 2325TIP3    H228611   4.362   4.746   8.033 -0.2229  1.3393  0.2439
 2326TIP3   OH228612   5.110   0.677   1.036  0.0755  0.0164 -0.0587
 2326TIP3    H128613   5.118   0.581   1.038  0.6397 -0.0748 -2.8775
 2326TIP3    H228614   5.166   0.707   1.107  0.6487 -1.7328  0.2668
 2327TIP3   OH228615   6.304   5.547   1.864 -0.6289  0.6188 -0.0699
 2327TIP3    H128616   6.237   5.482   1.884  0.3927 -0.8769 -1.2405
 2327TIP3    H228617   6.275   5.585   1.781 -0.0042 -0.1262 -0.6467
 2328TIP3   OH228618   1.544   1.742   0.737 -0.2687 -0.3425  0.2323
 2328TIP3    H128619   1.455   1.730   0.703  0.2607 -0.5168 -1.1368
 2328TIP3    H228620   1.593   1.666   0.705  0.1353 -0.8187  1.8960
 2329TIP3   OH228621   3.737   5.562   7.572 -0.5312  0.1454 -0.1182
 2329TIP3    H128622   3.772   5.620   7.504 -0.2101  1.5567  1.1748
 2329TIP3    H228623   3.661   5.610   7.607 -1.9155 -1.4729 -0.8021
 2330TIP3   OH228624   2.283   5.170   6.686 -0.3465 -0.9041 -0.2989
 2330TIP3    H128625   2.367   5.156   6.730 -0.3649 -0.8266 -0.2403
 2330TIP3    H228626   2.250   5.253   6.720 -1.6451 -2.1211  1.6111
 2331TIP3   OH228627   2.049   0.448   2.367  0.2121 -0.2131  0.2787
 2331TIP3    H128628   2.020   0.393   2.293  2.2249 -1.1846  0.1477
 2331TIP3    H228629   2.143   0.433   2.372  0.4639  1.5913  1.6544
 2332TIP3   OH228630   6.495   5.357   1.846  0.5459  0.4023  0.2103
 2332TIP3    H128631   6.469   5.449   1.850 -0.8586  0.0519 -0.1711
 2332TIP3    H228632   6.421   5.310   1.885  0.6819 -0.6483 -0.7384
 2333TIP3   OH228633   1.684   5.281   7.239 -0.0984 -0.8216  0.1396
 2333TIP3    H128634   1.600   5.244   7.264  0.1904 -1.8756 -0.4091
 2333TIP3    H228635   1.748   5.230   7.288  0.2520 -0.1972  0.3512
 2334TIP3   OH228636   4.260   3.229   2.643 -0.0588  0.2762  0.2965
 2334TIP3    H128637   4.255   3.149   2.696  0.4256 -1.0019 -1.5182
 2334TIP3    H228638   4.172   3.267   2.649 -0.4402 -0.6451  0.8015
 2335TIP3   OH228639   5.864   2.337   8.959  0.1891 -0.2727  0.0792
 2335TIP3    H128640   5.797   2.270   8.973  2.3857 -2.1517  2.5303
 2335TIP3    H228641   5.946   2.288   8.952  1.6097  2.0540 -0.5980
 2336TIP3   OH228642   3.046   1.180   0.357 -0.0281 -0.3704  0.1125
 2336TIP3    H128643   3.003   1.193   0.272  2.5276 -0.7679 -1.3486
 2336TIP3    H228644   3.032   1.088   0.378 -0.4156 -0.3422 -0.0149
 2337TIP3   OH228645   2.575   4.339   8.933  0.1495  0.5689 -0.6033
 2337TIP3    H128646   2.497   4.351   8.878  0.6201  0.6465 -1.2590
 2337TIP3    H228647   2.540   4.315   9.019 -0.6926  2.7366 -0.2816
 2338TIP3   OH228648   5.996   3.693   2.419 -0.8326 -0.1830 -0.1168
 2338TIP3    H128649   6.071   3.638   2.440  0.3254  1.3680 -0.0348
 2338TIP3    H228650   5.966   3.663   2.333 -1.1302 -1.8375  0.5242
 2339TIP3   OH228651   3.851   0.883   0.708 -0.5010 -0.3032 -0.5606
 2339TIP3    H128652   3.859   0.791   0.683 -0.7590 -0.6734  0.6664
 2339TIP3    H228653   3.940   0.910   0.728 -0.8238 -1.7216  3.8017
 2340TIP3   OH228654   1.952   1.872   7.953  0.2256 -0.3754 -0.5747
 2340TIP3    H128655   2.018   1.815   7.915  0.6909 -0.6198  0.5681
 2340TIP3    H228656   2.002   1.941   7.997 -0.3067  0.0817 -0.6623
 2341TIP3   OH228657   3.294   5.530   0.794  0.2186  0.1305 -0.4228
 2341TIP3    H128658   3.224   5.593   0.809  0.0758 -0.4729  1.7808
 2341TIP3    H228659   3.369   5.583   0.768 -0.4941  0.9812 -0.7846
 2342TIP3   OH228660   0.749   4.199   8.503 -0.9110 -0.4568  0.1717
 2342TIP3    H128661   0.750   4.147   8.583  2.9661  0.2257  0.7656
 2342TIP3    H228662   0.758   4.289   8.533 -0.2275 -0.1178 -0.9862
 2343TIP3   OH228663   5.833   4.463   7.211  0.3472 -0.5521 -0.2334
 2343TIP3    H128664   5.780   4.461   7.131 -2.6258  1.7680  1.4591
 2343TIP3    H228665   5.881   4.545   7.205  0.4782 -0.6019  0.1376
 2344TIP3   OH228666   2.702   2.041   8.253 -0.1648  0.2086  0.4103
 2344TIP3    H128667   2.677   2.058   8.162 -0.5623  3.4635  1.0180
 2344TIP3    H228668   2.796   2.024   8.249 -0.1227  0.6307 -0.5715
 2345TIP3   OH228669   4.667   0.341   7.772 -0.0560 -0.2334  0.3849
 2345TIP3    H128670   4.699   0.252   7.756  0.7226 -0.1981  1.6178
 2345TIP3    H228671   4.745   0.389   7.799 -0.4602  0.8571 -0.3460
 2346TIP3   OH228672   4.588   2.033   1.815 -0.6312  0.4379 -0.4239
 2346TIP3    H128673   4.522   1.995   1.873 -0.2521  4.0047  2.7614
 2346TIP3    H228674   4.543   2.104   1.769  0.2069  0.7634 -0.7687
 2347TIP3   OH228675   0.170   5.033   8.200  0.1624  0.1185  0.0188
 2347TIP3    H128676   0.129   5.084   8.130  1.1157  1.7540  0.5943
 2347TIP3    H228677   0.108   5.036   8.272 -0.5207 -0.9960 -0.4920
 2348TIP3   OH228678   5.940   5.287   7.543  0.0009  0.6535 -0.1463
 2348TIP3    H128679   5.953   5.193   7.537 -0.6428  0.6466 -3.5052
 2348TIP3    H228680   6.023   5.320   7.578  0.3452 -1.1049  0.8022
 2349TIP3   OH228681   1.106   6.226   8.106 -0.4011 -0.3978  0.2062
 2349TIP3    H128682   1.160   6.190   8.176 -1.5274  0.8525  1.8201
 2349TIP3    H228683   1.138   6.316   8.096  0.3828 -0.8448 -1.6108
 2350TIP3   OH228684   4.513   3.746   8.241 -0.2481  0.5200 -0.8966
 2350TIP3    H128685   4.592   3.748   8.187 -0.1200 -0.2268 -0.7418
 2350TIP3    H228686   4.469   3.665   8.216 -1.7919  1.6567 -2.1270
 2351TIP3   OH228687   6.467   2.060   1.711 -0.5465  0.5274  0.4598
 2351TIP3    H128688   6.440   1.983   1.760 -0.8725 -1.5074 -2.6377
 2351TIP3    H228689   6.386   2.092   1.670  0.0149  0.7890 -0.4785
 2352TIP3   OH228690   4.051   2.718   1.376  0.1113 -0.1047  0.5443
 2352TIP3    H128691   4.018   2.776   1.307 -0.2686 -1.6221 -0.6077
 2352TIP3    H228692   4.036   2.766   1.457 -0.4594  1.2690 -0.3346
 2353TIP3   OH228693   5.305   2.366   0.507  0.0255 -0.2843  0.5581
 2353TIP3    H128694   5.314   2.281   0.465 -3.0119 -0.4133 -0.0535
 2353TIP3    H228695   5.280   2.346   0.597  3.6378  0.0264  1.7770
 2354TIP3   OH228696   2.861   5.996   7.275  0.5930  0.0594  0.3456
 2354TIP3    H128697   2.795   6.065   7.267  0.7851  0.3789  1.3379
 2354TIP3    H228698   2.905   6.015   7.358  0.3253 -1.5256  0.8866
 2355TIP3   OH228699   3.894   3.103   0.237 -0.5419 -0.0651  0.1905
 2355TIP3    H128700   3.952   3.091   0.162 -0.4481  0.4217  0.1834
 2355TIP3    H228701   3.813   3.137   0.200 -0.6581 -0.2628  0.2590
 2356TIP3   OH228702   4.428   4.190   0.008 -0.0607  0.3514  0.5118
 2356TIP3    H128703   4.342   4.214   0.044 -1.3384 -4.2713  1.1953
 2356TIP3    H228704   4.475   4.152   0.082  0.3284 -2.1928 -0.9386
 2357TIP3   OH228705   1.698   0.214   1.251  0.2180  0.0800  0.4343
 2357TIP3    H128706   1.759   0.173   1.312  1.9030  3.5196  1.3277
 2357TIP3    H228707   1.611   0.187   1.281  1.0415  0.6243  3.6235
 2358TIP3   OH228708   3.668   2.191   0.116 -0.6995 -0.1644  0.7310
 2358TIP3    H128709   3.639   2.258   0.053 -0.9156  0.3052  1.3199
 2358TIP3    H228710   3.760   2.176   0.094 -0.3597  1.0644  1.2117
 2359TIP3   OH228711   5.474   4.133   0.791  0.0742 -0.1645 -0.1252
 2359TIP3    H128712   5.471   4.098   0.880 -1.9964 -0.1685 -0.1655
 2359TIP3    H228713   5.396   4.187   0.784  0.6802  0.5664 -1.6677
 2360TIP3   OH228714   1.867   0.486   6.484  0.2518  0.4085  0.2001
 2360TIP3    H128715   1.884   0.424   6.555  3.7361  0.6361 -0.2393
 2360TIP3    H228716   1.841   0.567   6.528 -1.2718 -0.4493  0.9459
 2361TIP3   OH228717   1.434   2.277   7.453 -0.2225 -0.6594 -0.1120
 2361TIP3    H128718   1.447   2.183   7.457  0.6276 -0.6073 -1.2152
 2361TIP3    H228719   1.370   2.290   7.383  0.2197 -0.3784 -0.4694
 2362TIP3   OH228720   0.402   2.304   2.324 -0.6130  0.2744 -0.6478
 2362TIP3    H128721   0.391   2.277   2.415 -2.5839 -0.1920 -0.9753
 2362TIP3    H228722   0.459   2.380   2.329 -2.3061  1.5447  1.2245
 2363TIP3   OH228723   5.629   0.665   1.434 -0.0694 -0.6912 -0.5112
 2363TIP3    H128724   5.596   0.627   1.353 -0.9101 -1.3646  0.1259
 2363TIP3    H228725   5.705   0.612   1.457  2.1410  1.3939 -2.4388
 2364TIP3   OH228726   2.643   6.208   7.537 -0.0031  0.0255  0.3077
 2364TIP3    H128727   2.548   6.198   7.536  0.1146 -1.2294 -0.0322
 2364TIP3    H228728   2.675   6.130   7.583  0.8732  0.3765  0.3226
 2365TIP3   OH228729   5.287   3.624   8.162  0.0856  0.1433 -0.3070
 2365TIP3    H128730   5.206   3.574   8.151 -0.6465  1.4534 -0.9860
 2365TIP3    H228731   5.334   3.577   8.232 -0.5434 -1.5160 -0.9416
 2366TIP3   OH228732   1.495   4.525   0.594 -0.8207  0.1725 -0.5531
 2366TIP3    H128733   1.520   4.492   0.508 -1.3802 -0.9109 -0.3166
 2366TIP3    H228734   1.441   4.456   0.632 -0.8214  0.7510  0.5569
 2367TIP3   OH228735   0.074   0.402   1.308 -0.8882  0.0967  0.3578
 2367TIP3    H128736  -0.021   0.400   1.320 -0.8147 -0.8018  0.8932
 2367TIP3    H228737   0.108   0.352   1.382  0.2011  2.8873  1.9095
 2368TIP3   OH228738   5.497   3.644   8.609 -0.2974 -0.1363  0.0354
 2368TIP3    H128739   5.514   3.735   8.634 -2.4212  0.7399 -1.4605
 2368TIP3    H228740   5.435   3.613   8.675 -2.5382  0.7921 -1.5309
 2369TIP3   OH228741   6.095   4.394   8.543  0.5078 -0.2517  0.3928
 2369TIP3    H128742   6.091   4.430   8.631  1.1323 -0.4381  0.5023
 2369TIP3    H228743   6.115   4.301   8.556 -0.4694 -0.5173  0.0938
 2370TIP3   OH228744   4.153   5.618   0.448 -0.2676 -0.4393 -0.3827
 2370TIP3    H128745   4.090   5.661   0.505  0.9809  1.2224 -0.1990
 2370TIP3    H228746   4.218   5.580   0.508  1.6171  2.1863 -0.5813
 2371TIP3   OH228747   0.956   0.957   7.016  0.2318  0.1554  0.2467
 2371TIP3    H128748   0.911   1.013   6.953  1.8707 -0.0076 -1.1416
 2371TIP3    H228749   0.958   1.009   7.096  0.2181  1.3833 -0.5185
 2372TIP3   OH228750   1.651   2.308   8.685 -0.5208  0.3294  0.1033
 2372TIP3    H128751   1.680   2.320   8.776 -0.9801 -1.1026  0.4698
 2372TIP3    H228752   1.607   2.390   8.663 -0.0093  0.8692  1.0131
 2373TIP3   OH228753   4.884   3.269   0.652  0.0516 -0.1082 -0.4784
 2373TIP3    H128754   4.857   3.359   0.667 -0.5174 -0.3829  0.1929
 2373TIP3    H228755   4.875   3.226   0.737 -0.5709 -1.0218 -0.9830
 2374TIP3   OH228756   2.592   6.763   1.026  0.2467 -0.3417 -0.2052
 2374TIP3    H128757   2.524   6.769   0.958 -0.1889 -0.4184  0.2145
 2374TIP3    H228758   2.546   6.784   1.108  1.3882  2.9989 -0.2546
 2375TIP3   OH228759   6.481   0.383   0.708 -0.1485  0.5773 -0.0815
 2375TIP3    H128760   6.523   0.465   0.683 -1.3956  1.4281  0.5172
 2375TIP3    H228761   6.420   0.407   0.778 -1.6485 -0.5730 -0.9153
 2376TIP3   OH228762   5.528   0.258   1.450 -0.3104 -0.3872 -0.3169
 2376TIP3    H128763   5.621   0.278   1.459 -0.5289  1.0194 -0.8756
 2376TIP3    H228764   5.498   0.241   1.539  0.3472 -0.2278 -0.0601
 2377TIP3   OH228765   3.735   3.100   1.257  0.6059  0.3730 -0.2162
 2377TIP3    H128766   3.737   3.011   1.292  0.5743  1.0482  1.6453
 2377TIP3    H228767   3.771   3.093   1.169 -1.8167 -1.8674 -1.1428
 2378TIP3   OH228768   1.687   5.298   0.260 -0.1121  0.3715 -0.2248
 2378TIP3    H128769   1.776   5.320   0.289 -0.1829  0.4371 -0.0538
 2378TIP3    H228770   1.698   5.218   0.208 -0.0793 -0.2329  0.6828
 2379TIP3   OH228771   0.303   3.524   8.062 -0.1416 -0.2610 -0.5851
 2379TIP3    H128772   0.360   3.447   8.055  0.5408  0.1557  0.1691
 2379TIP3    H228773   0.287   3.533   8.157  0.9293  1.3361 -0.5238
 2380TIP3   OH228774   3.399   0.598   1.957  0.3623 -0.5377  0.1751
 2380TIP3    H128775   3.304   0.603   1.946  0.1883 -2.1231  0.6846
 2380TIP3    H228776   3.416   0.634   2.044 -0.0914 -2.4830  1.1241
 2381TIP3   OH228777   5.070   1.781   7.400 -0.5373  0.6669  0.1529
 2381TIP3    H128778   4.976   1.788   7.420 -0.4647  0.3989  0.6048
 2381TIP3    H228779   5.105   1.868   7.418 -0.4157  0.3464  1.5310
 2382TIP3   OH228780   4.189   4.843   0.045  0.1137  0.1742  0.5701
 2382TIP3    H128781   4.249   4.783  -0.000  0.4467  0.3353  0.7957
 2382TIP3    H228782   4.246   4.908   0.086 -0.2486  0.6512  0.3270
 2383TIP3   OH228783   2.402   6.702   8.035  0.1345 -0.0737  0.0325
 2383TIP3    H128784   2.417   6.617   8.077 -1.0599 -0.0149  0.6061
 2383TIP3    H228785   2.308   6.705   8.020  0.1063  1.3363  0.3950
 2384TIP3   OH228786   6.306   2.985   6.921 -0.0887  0.0270 -0.2623
 2384TIP3    H128787   6.334   2.951   6.836 -0.0545  0.4709 -0.4307
 2384TIP3    H228788   6.239   3.050   6.900 -1.1785 -0.9458  0.1357
 2385TIP3   OH228789   2.707   3.574   7.236  0.4624 -0.1005  0.4919
 2385TIP3    H128790   2.713   3.517   7.159 -0.7891 -2.3390  1.9396
 2385TIP3    H228791   2.684   3.660   7.200  2.6854 -0.3367 -1.8128
 2386TIP3   OH228792   2.604   1.783   0.853  0.2010 -0.7668 -0.4080
 2386TIP3    H128793   2.667   1.714   0.829  0.6293 -0.5567  0.0783
 2386TIP3    H228794   2.530   1.770   0.794  0.4271 -1.4284 -0.5566
 2387TIP3   OH228795   5.728   2.194   0.308 -0.2356 -0.5935 -0.2399
 2387TIP3    H128796   5.734   2.135   0.233  0.6176  1.1136 -1.5774
 2387TIP3    H228797   5.768   2.275   0.278  3.1030 -0.7759  3.0965
 2388TIP3   OH228798   0.154   5.066   7.236 -0.4168  0.0880  0.0965
 2388TIP3    H128799   0.233   5.117   7.221 -0.9645  0.6324 -1.1749
 2388TIP3    H228800   0.181   4.975   7.222 -0.0185  0.2735 -0.3777
 2389TIP3   OH228801   2.577   3.276   8.036 -0.3265  0.1978 -0.1574
 2389TIP3    H128802   2.546   3.214   8.103  0.0760  1.2318  1.0076
 2389TIP3    H228803   2.567   3.362   8.076 -0.1128  0.8506 -1.4557
 2390TIP3   OH228804   0.352   0.808   8.668 -0.1158  0.1333 -0.5545
 2390TIP3    H128805   0.284   0.742   8.657 -0.1001  0.0603 -0.1954
 2390TIP3    H228806   0.372   0.809   8.761 -2.1176  2.6116 -0.0542
 2391TIP3   OH228807   1.181   0.961   2.393  0.1646  0.4217 -0.2910
 2391TIP3    H128808   1.240   1.031   2.419  1.2352  0.3200 -2.2581
 2391TIP3    H228809   1.115   1.003   2.339 -1.0803  0.3834  1.1457
 2392TIP3   OH228810   4.520   4.308   7.585 -0.0923  0.0072 -0.0319
 2392TIP3    H128811   4.597   4.277   7.536  0.1053 -0.7657  0.7548
 2392TIP3    H228812   4.547   4.392   7.621 -0.1370  0.4469 -0.9841
 2393TIP3   OH228813   1.414   5.736   1.473  0.5562 -0.4529 -0.1149
 2393TIP3    H128814   1.418   5.829   1.449  2.4183  0.0035  1.6474
 2393TIP3    H228815   1.335   5.729   1.527  1.5314  0.6367  1.5374
 2394TIP3   OH228816   0.499   5.484   1.226 -0.2700 -0.4097 -0.0315
 2394TIP3    H128817   0.416   5.437   1.213  0.1205 -0.8805 -0.9596
 2394TIP3    H228818   0.541   5.480   1.140  1.4366 -1.5854  0.8062
 2395TIP3   OH228819   3.870   3.947   0.508 -0.1358 -0.1789 -0.2104
 2395TIP3    H128820   3.860   4.030   0.462 -1.6566  0.3731  0.9800
 2395TIP3    H228821   3.940   3.962   0.571  0.0546 -0.0281 -0.4587
 2396TIP3   OH228822   4.896   1.416   8.848 -0.3383 -0.1093  0.0817
 2396TIP3    H128823   4.886   1.400   8.942  0.6919  0.2005  0.2482
 2396TIP3    H228824   4.838   1.352   8.807 -1.0283 -0.0504  0.9314
 2397TIP3   OH228825   4.898   2.626   8.912  0.0344 -0.2466 -0.1223
 2397TIP3    H128826   4.895   2.534   8.887 -0.2962 -0.0654 -0.7674
 2397TIP3    H228827   4.979   2.634   8.963 -0.7344 -1.2176  1.3353
 2398TIP3   OH228828   0.032   2.563   7.395  0.1640 -0.0923  0.2479
 2398TIP3    H128829   0.049   2.570   7.301 -2.5852  0.8810 -0.2766
 2398TIP3    H228830  -0.063   2.567   7.403  0.2855 -0.3680  3.0821
 2399TIP3   OH228831   4.130   2.891   0.596 -0.2030  0.0371  0.3768
 2399TIP3    H128832   4.183   2.876   0.518  1.6177 -0.8352  1.7161
 2399TIP3    H228833   4.068   2.960   0.570  0.1849 -0.3887 -1.8697
 2400TIP3   OH228834   1.006   4.670   1.678  0.1751  0.0235  0.2849
 2400TIP3    H128835   1.061   4.745   1.657  0.4553 -0.2002  0.2170
 2400TIP3    H228836   1.042   4.598   1.627  0.6543 -0.4405  1.2437
 2401TIP3   OH228837   5.870   5.210   1.434 -0.1906 -0.0400  0.1331
 2401TIP3    H128838   5.869   5.272   1.507 -0.0560 -0.7697  0.7696
 2401TIP3    H228839   5.858   5.124   1.475  1.8139 -0.6649 -0.4919
 2402TIP3   OH228840   1.329   6.284   8.361 -0.8522 -0.2710  0.4161
 2402TIP3    H128841   1.345   6.211   8.421 -1.7130 -2.0369 -1.3538
 2402TIP3    H228842   1.396   6.274   8.293 -0.7561  0.8224  0.3375
 2403TIP3   OH228843   6.198   1.121   1.205 -0.3396 -0.2275  0.4913
 2403TIP3    H128844   6.117   1.091   1.247 -0.6795  1.1021  0.8275
 2403TIP3    H228845   6.169   1.161   1.123 -0.1367  1.1887  1.1005
 2404TIP3   OH228846   4.060   2.196   0.614  0.5150  0.5234 -0.4063
 2404TIP3    H128847   3.997   2.260   0.646  0.5710  0.2180  0.3513
 2404TIP3    H228848   4.143   2.243   0.611  0.1736  1.0922 -1.9627
 2405TIP3   OH228849   4.581   3.296   2.056  0.3378  0.0017  0.3014
 2405TIP3    H128850   4.639   3.361   2.018  0.1534  0.3519  0.6100
 2405TIP3    H228851   4.589   3.309   2.151  0.0762 -0.2258  0.3579
 2406TIP3   OH228852   3.694   5.660   8.621 -0.1959  0.2785  0.0058
 2406TIP3    H128853   3.738   5.591   8.670  1.1699  0.8357 -0.3806
 2406TIP3    H228854   3.602   5.655   8.649  0.1535 -0.7473  1.0445
 2407TIP3   OH228855   2.660   5.491   8.229  0.5076  0.1411 -0.3673
 2407TIP3    H128856   2.693   5.486   8.319  0.0869 -1.6863 -0.2634
 2407TIP3    H228857   2.723   5.547   8.183  1.6016 -0.1605  0.7065
 2408TIP3   OH228858   1.930   3.232   8.801  0.5275 -0.2486  0.1615
 2408TIP3    H128859   1.979   3.247   8.720  0.2536  0.1309  0.0686
 2408TIP3    H228860   1.973   3.287   8.866  1.0314 -0.8901  0.3905
 2409TIP3   OH228861   1.195   5.361   1.139 -0.0817 -0.2753  0.0917
 2409TIP3    H128862   1.192   5.399   1.052 -0.1143  1.8500  0.9693
 2409TIP3    H228863   1.282   5.385   1.173 -1.4647  2.4426  2.0698
 2410TIP3   OH228864   4.407   0.162   0.567 -0.0357  0.1613 -0.1131
 2410TIP3    H128865   4.484   0.120   0.528  0.1140  0.2039  0.1391
 2410TIP3    H228866   4.437   0.197   0.650 -0.3895 -0.0471  0.1073
 2411TIP3   OH228867   4.335   6.136   0.295  0.2919 -0.0227 -0.5699
 2411TIP3    H128868   4.284   6.060   0.322  0.7202 -0.2628 -0.4218
 2411TIP3    H228869   4.426   6.111   0.312  0.3854  0.8608  0.3446
 2412TIP3   OH228870   1.368   3.505   8.733  0.1804  0.0878  0.5031
 2412TIP3    H128871   1.448   3.515   8.784  0.6188  0.2843 -0.2138
 2412TIP3    H228872   1.394   3.454   8.657 -0.1654  0.9448 -0.2079
 2413TIP3   OH228873   5.365   1.219   8.419  0.3824 -1.0353 -0.1633
 2413TIP3    H128874   5.440   1.264   8.459  0.5027 -1.0841 -0.3344
 2413TIP3    H228875   5.361   1.254   8.330 -0.4352 -0.2491  0.1610
 2414TIP3   OH228876   2.077   3.656   8.881  0.1771 -0.1009 -0.6089
 2414TIP3    H128877   2.027   3.597   8.937 -0.7630  1.0892 -0.1447
 2414TIP3    H228878   2.079   3.613   8.795  0.9088 -1.5417  0.0920
 2415TIP3   OH228879   2.078   1.342   8.938  0.3009  0.2515 -0.3467
 2415TIP3    H128880   2.019   1.267   8.930  0.0876  0.2707  0.9019
 2415TIP3    H228881   2.031   1.414   8.895 -1.0016  0.4718  1.2996
 2416TIP3   OH228882   5.774   0.656   8.884  0.1922 -0.0411  0.2493
 2416TIP3    H128883   5.791   0.570   8.921 -3.1389 -1.1388 -0.4131
 2416TIP3    H228884   5.771   0.641   8.789  3.8780  1.7860 -0.3466
 2417TIP3   OH228885   6.286   0.843   0.212  0.1963 -0.4042  0.2163
 2417TIP3    H128886   6.235   0.876   0.286  1.2266  1.5030  0.1398
 2417TIP3    H228887   6.374   0.878   0.226  0.8128 -1.3166 -1.1022
 2418TIP3   OH228888   6.272   2.350   2.657  0.0911 -0.2258  0.0252
 2418TIP3    H128889   6.193   2.393   2.690  0.7369  0.3822  0.8181
 2418TIP3    H228890   6.250   2.257   2.656  0.0360 -0.2879  2.2355
 2419TIP3   OH228891   0.116   1.243   8.252 -0.5078 -0.2334  0.2568
 2419TIP3    H128892   0.044   1.204   8.202 -0.0154 -0.2061 -0.4984
 2419TIP3    H228893   0.076   1.318   8.297 -0.9882 -0.3137 -0.0242
 2420TIP3   OH228894   6.570   0.334   1.364 -0.0321 -0.2037 -0.3609
 2420TIP3    H128895   6.488   0.338   1.316 -0.0548  1.6640 -0.2678
 2420TIP3    H228896   6.545   0.343   1.456  0.2897  1.8847 -0.4145
 2421TIP3   OH228897   2.699   1.513   0.100  0.4782 -0.0138  0.2276
 2421TIP3    H128898   2.684   1.607   0.104 -1.7965 -0.1416 -2.5904
 2421TIP3    H228899   2.733   1.497   0.012 -0.8957 -2.0157 -0.0110
 2422TIP3   OH228900   3.934   2.080   7.923  0.1211  0.2181 -0.1437
 2422TIP3    H128901   4.029   2.077   7.936  0.1255 -0.5623 -0.2897
 2422TIP3    H228902   3.905   2.154   7.977  0.8969  0.9338 -0.6701
 2423TIP3   OH228903   6.099   4.495   7.818  0.5447 -0.0636 -0.2707
 2423TIP3    H128904   6.027   4.451   7.863  0.8377 -0.6030 -0.3176
 2423TIP3    H228905   6.087   4.588   7.838  0.5820 -0.2731  0.8025
 2424TIP3   OH228906   3.163   0.582   1.677 -0.2259 -0.4122 -0.5488
 2424TIP3    H128907   3.247   0.614   1.643 -0.4615  0.3245 -0.4692
 2424TIP3    H228908   3.122   0.660   1.715 -0.1971 -1.1103  0.9569
 2425TIP3   OH228909   1.502   2.033   7.580  0.6051  0.4055 -0.3967
 2425TIP3    H128910   1.545   1.962   7.532  1.3349  0.3606  0.3127
 2425TIP3    H228911   1.569   2.067   7.638 -0.0468  0.9790  0.0337
 2426TIP3   OH228912   4.275   4.419   7.418 -0.3898 -0.2540  0.3496
 2426TIP3    H128913   4.352   4.370   7.447 -1.7814 -1.9528  1.4434
 2426TIP3    H228914   4.284   4.505   7.459  0.2187 -0.9312  1.7139
 2427TIP3   OH228915   4.440   1.487   7.895  0.3080 -0.1077 -0.0632
 2427TIP3    H128916   4.513   1.462   7.838  0.2101 -1.1005  0.2307
 2427TIP3    H228917   4.367   1.432   7.865  0.1342 -0.3127  0.7219
 2428TIP3   OH228918   6.678   6.285   0.391 -0.4136 -0.2474 -0.4614
 2428TIP3    H128919   6.701   6.267   0.300  0.0574 -0.1287 -0.3673
 2428TIP3    H228920   6.748   6.244   0.442  0.2154  1.0910 -0.2138
 2429TIP3   OH228921   3.807   0.623   1.599 -0.4617 -0.4102 -0.2762
 2429TIP3    H128922   3.785   0.531   1.584 -1.4535 -0.0939 -0.8611
 2429TIP3    H228923   3.893   0.620   1.640 -0.4950 -1.6019 -0.2360
 2430TIP3   OH228924   3.288   2.866   1.338 -0.7470 -0.1690  0.5917
 2430TIP3    H128925   3.199   2.897   1.318 -1.0844 -0.5767  1.4231
 2430TIP3    H228926   3.335   2.876   1.255 -1.7669 -0.6716 -0.0751
 2431TIP3   OH228927   0.327   2.849   2.682  0.3313  0.7105  0.6775
 2431TIP3    H128928   0.244   2.802   2.695  1.4695 -1.8245 -0.6228
 2431TIP3    H228929   0.366   2.852   2.770  0.0569 -0.4869  0.8594
 2432TIP3   OH228930   0.192   2.401   8.744  0.1922  0.7077  0.2069
 2432TIP3    H128931   0.114   2.353   8.717 -0.5298  1.0026  1.6718
 2432TIP3    H228932   0.263   2.336   8.739 -0.1843  0.3576 -0.8535
 2433TIP3   OH228933   0.165   2.648   6.829 -0.2956  0.2732 -0.1786
 2433TIP3    H128934   0.140   2.739   6.842 -0.6799  0.5513 -2.3988
 2433TIP3    H228935   0.217   2.648   6.749 -0.9282 -1.5335 -0.6629
 2434TIP3   OH228936   2.356   1.751   0.718 -0.3922 -0.1754  0.2235
 2434TIP3    H128937   2.302   1.793   0.651 -0.6011 -0.7560  0.0221
 2434TIP3    H228938   2.324   1.662   0.722  0.3305 -0.4394  0.3450
 2435TIP3   OH228939   4.230   0.807   0.745 -0.0368  0.1360 -0.8842
 2435TIP3    H128940   4.256   0.718   0.769 -0.1610 -0.0837 -1.5533
 2435TIP3    H228941   4.266   0.862   0.814  0.0864 -0.4287 -0.4936
 2436TIP3   OH228942   0.965   3.623   1.722  0.1456 -0.1490 -0.2449
 2436TIP3    H128943   1.037   3.647   1.664  0.3759  2.4713  0.9635
 2436TIP3    H228944   0.996   3.647   1.810 -1.3947 -0.9910  0.5755
 2437TIP3   OH228945   1.659   0.792   8.898 -0.6707 -0.2815  0.6644
 2437TIP3    H128946   1.683   0.707   8.935 -2.8358 -0.3488  2.0822
 2437TIP3    H228947   1.593   0.826   8.958 -0.9840  1.7151 -0.7345
 2438TIP3   OH228948   3.497   1.503   8.197 -0.0233 -0.5516 -0.3905
 2438TIP3    H128949   3.414   1.542   8.222 -0.1500 -0.3123 -1.1462
 2438TIP3    H228950   3.473   1.421   8.153  0.1638 -0.7406 -0.1404
 2439TIP3   OH228951   2.381   1.338   1.166 -0.3782 -0.0946 -0.4939
 2439TIP3    H128952   2.340   1.293   1.240 -1.0427 -0.9750 -1.3707
 2439TIP3    H228953   2.360   1.430   1.179  0.3329 -0.1007  0.9160
 2440TIP3   OH228954   6.518   5.271   7.531 -0.1557  0.8693 -0.1239
 2440TIP3    H128955   6.608   5.304   7.534 -0.0395  0.7805 -1.7826
 2440TIP3    H228956   6.480   5.298   7.615  1.4915  0.6617  0.7287
 2441TIP3   OH228957   0.154   3.202   2.163 -0.5013  0.1443  0.5465
 2441TIP3    H128958   0.204   3.207   2.245 -1.4934 -1.8801  1.3325
 2441TIP3    H228959   0.134   3.293   2.142  1.3953  0.8406  1.5117
 2442TIP3   OH228960   3.280   5.263   2.804  0.3476 -0.0485  0.2343
 2442TIP3    H128961   3.329   5.183   2.787 -1.3700 -1.6922  2.4372
 2442TIP3    H228962   3.190   5.241   2.783  0.2222  2.5083 -2.5272
 2443TIP3   OH228963   1.630   1.070   6.818  0.2173  0.3312  0.0904
 2443TIP3    H128964   1.722   1.058   6.797 -0.3965 -4.2176 -0.8466
 2443TIP3    H228965   1.583   1.036   6.742 -2.1944 -0.0806  1.6643
 2444TIP3   OH228966   5.539   3.216   2.106  0.5701 -0.0867 -0.3692
 2444TIP3    H128967   5.464   3.207   2.047  1.6757  0.5374 -1.9325
 2444TIP3    H228968   5.536   3.137   2.161 -0.9721 -0.2638 -0.6622
 2445TIP3   OH228969   0.088   1.166   0.047  0.2566 -0.0752  0.0615
 2445TIP3    H128970   0.130   1.147  -0.037  1.3288  0.1875  0.5178
 2445TIP3    H228971   0.037   1.245   0.031 -1.3710 -1.2657 -0.9139
 2446TIP3   OH228972   1.206   3.138   1.739 -0.3886  0.1485  0.1780
 2446TIP3    H128973   1.236   3.228   1.748  1.1929 -0.2657 -0.6023
 2446TIP3    H228974   1.232   3.095   1.821 -0.6833  0.2718  0.3374
 2447TIP3   OH228975   2.881   5.759   7.812  0.6740  0.1315 -0.0980
 2447TIP3    H128976   2.866   5.686   7.872 -0.9436 -1.2660 -2.0916
 2447TIP3    H228977   2.970   5.745   7.779  0.0785 -1.4636 -1.1008
 2448TIP3   OH228978   5.255   4.511   8.588  0.2511  0.0925 -0.1102
 2448TIP3    H128979   5.295   4.507   8.502  0.8750 -2.0445  0.2386
 2448TIP3    H228980   5.225   4.422   8.606  0.8866  0.2724  2.2153
 2449TIP3   OH228981   4.405   1.268   0.196  0.2128 -0.7312 -0.1452
 2449TIP3    H128982   4.411   1.229   0.108 -0.9006 -2.8755  0.6779
 2449TIP3    H228983   4.405   1.194   0.256  2.1771  0.7129  1.8115
 2450TIP3   OH228984   4.535   6.495   1.077  0.2135 -0.0510 -0.0508
 2450TIP3    H128985   4.629   6.491   1.061  0.0296 -0.3103 -1.2024
 2450TIP3    H228986   4.499   6.425   1.023 -0.4783 -1.2400  1.8485
 2451TIP3   OH228987   0.731   5.082   0.508  0.4870  0.2839  0.1059
 2451TIP3    H128988   0.817   5.103   0.471  0.3009 -0.4657 -0.7985
 2451TIP3    H228989   0.689   5.167   0.520  0.5976  0.5698 -1.3534
 2452TIP3   OH228990   0.230   0.800   2.199  0.2644 -0.2609  0.0291
 2452TIP3    H128991   0.313   0.807   2.246 -0.0304 -0.0482  0.5326
 2452TIP3    H228992   0.195   0.890   2.197 -0.1174 -0.4033  0.1336
 2453TIP3   OH228993   2.803   4.189   8.892 -0.0352 -0.0379  0.2421
 2453TIP3    H128994   2.768   4.101   8.901  1.8620 -0.6733  2.4093
 2453TIP3    H228995   2.726   4.246   8.888 -1.2808 -1.6948 -0.4539
 2454TIP3   OH228996   3.885   3.477   0.806  0.3836 -0.4240  0.3362
 2454TIP3    H128997   3.912   3.545   0.745  1.4080 -1.0482  0.0734
 2454TIP3    H228998   3.965   3.429   0.827  0.0261 -0.3736  1.9983
 2455TIP3   OH228999   2.215   5.145   8.035  0.6971  0.1596  0.6030
 2455TIP3    H129000   2.219   5.177   8.125 -1.5676  0.7015  0.5615
 2455TIP3    H229001   2.225   5.224   7.981  0.6881  0.0144  0.3872
 2456TIP3   OH229002   3.153   1.809   6.727  0.3616 -0.0824 -0.1279
 2456TIP3    H129003   3.117   1.721   6.737 -0.9583  0.4667  0.2852
 2456TIP3    H229004   3.099   1.849   6.658  0.6072  0.5578  0.0452
 2457TIP3   OH229005   6.179   2.871   0.995  0.2570  0.2862 -0.2399
 2457TIP3    H129006   6.126   2.938   1.038  1.2586  2.3232 -1.9993
 2457TIP3    H229007   6.114   2.809   0.961 -0.6640 -0.0209  1.8708
 2458TIP3   OH229008   3.489   5.388   8.062 -0.3953 -1.0983 -0.2431
 2458TIP3    H129009   3.441   5.305   8.059  0.7648 -1.8378  0.8661
 2458TIP3    H229010   3.478   5.418   8.152  1.0342 -1.1786 -0.0253
 2459TIP3   OH229011   1.336   0.638   0.998 -0.2084  0.3675  0.0558
 2459TIP3    H129012   1.423   0.614   0.966 -0.6149  0.7044 -1.3932
 2459TIP3    H229013   1.351   0.670   1.087  0.8583 -1.4486  0.5754
 2460TIP3   OH229014   5.869   1.087   0.918  0.2514 -0.2730 -0.0491
 2460TIP3    H129015   5.871   1.079   0.822 -0.0546  1.5734 -0.2338
 2460TIP3    H229016   5.901   1.175   0.936 -2.7008  0.6401  1.3418
 2461TIP3   OH229017   5.499   0.792   1.100 -0.7271  0.8051 -0.0818
 2461TIP3    H129018   5.487   0.748   1.016 -0.4198 -0.6297  0.5927
 2461TIP3    H229019   5.593   0.810   1.104 -0.2206 -1.5918  1.0506
 2462TIP3   OH229020   1.087   0.763   6.705  0.1513  0.2100  0.0867
 2462TIP3    H129021   1.132   0.846   6.722  1.6817 -0.5809  0.1208
 2462TIP3    H229022   0.995   0.782   6.721  0.3014  2.1955 -1.0109
 2463TIP3   OH229023   5.112   0.877   0.689  0.1696 -0.2172  0.1955
 2463TIP3    H129024   5.054   0.952   0.702 -1.1550 -1.3867  1.4880
 2463TIP3    H229025   5.184   0.891   0.750 -0.1181 -0.0386  0.4946
 2464TIP3   OH229026   3.108   4.118   0.702 -0.2968  0.2933 -0.2795
 2464TIP3    H129027   3.168   4.105   0.775 -0.5939  1.1828  0.1332
 2464TIP3    H229028   3.105   4.033   0.658 -0.8265 -0.5242  1.2807
 2465TIP3   OH229029   3.049   0.155   2.968 -0.2372  0.7055 -0.7387
 2465TIP3    H129030   3.070   0.094   2.897  1.1546  0.8170 -0.4613
 2465TIP3    H229031   2.955   0.166   2.963 -0.2374  0.2894 -2.2315
 2466TIP3   OH229032   5.325   4.255   8.334  0.2252 -0.2645  0.3289
 2466TIP3    H129033   5.315   4.162   8.355  1.3315 -1.2049 -2.7133
 2466TIP3    H229034   5.402   4.283   8.383  0.9663 -1.4794 -0.0939
 2467TIP3   OH229035   6.271   6.278   1.489 -0.4226 -0.4083 -0.2167
 2467TIP3    H129036   6.347   6.336   1.493 -0.9945  0.4529 -1.3024
 2467TIP3    H229037   6.301   6.196   1.529  1.0785 -0.0966 -0.6515
 2468TIP3   OH229038   3.852   1.548   0.220 -0.0084 -0.0501 -0.0900
 2468TIP3    H129039   3.904   1.590   0.151 -1.1452 -0.7560 -1.4293
 2468TIP3    H229040   3.796   1.619   0.254  0.2562  0.2110 -0.1910
 2469TIP3   OH229041   5.193   4.995   8.701  0.0805 -0.4788  0.1334
 2469TIP3    H129042   5.199   4.947   8.784 -1.2281  0.9016  1.0528
 2469TIP3    H229043   5.267   5.056   8.704 -0.4415  0.1322  0.6601
 2470TIP3   OH229044   6.382   6.567   2.313  0.0844 -0.0806  0.4234
 2470TIP3    H129045   6.419   6.514   2.384 -0.3872 -2.0274 -0.7276
 2470TIP3    H229046   6.414   6.526   2.233 -2.6635 -0.4773 -0.5773
 2471TIP3   OH229047   0.591   0.628   1.383 -0.1701  0.3313 -0.3951
 2471TIP3    H129048   0.575   0.571   1.308 -2.2799  0.0125  0.2147
 2471TIP3    H229049   0.508   0.676   1.394  0.5997  1.4460  0.8228
 2472TIP3   OH229050   2.177   0.650   2.023 -0.2765  0.6503  0.5033
 2472TIP3    H129051   2.205   0.559   2.013 -0.3763  0.7846 -1.1785
 2472TIP3    H229052   2.082   0.646   2.032 -0.2404  0.5721  0.8831
 2473TIP3   OH229053   3.476   4.207   7.399  0.1552 -0.3698 -0.0096
 2473TIP3    H129054   3.470   4.229   7.305 -1.0008  1.9340  0.5208
 2473TIP3    H229055   3.505   4.116   7.400  1.7476 -0.0113 -2.5871
 2474TIP3   OH229056   2.413   0.719   1.464 -0.3850 -0.2102  0.2657
 2474TIP3    H129057   2.416   0.812   1.445 -1.3849  0.0119  1.0751
 2474TIP3    H229058   2.443   0.676   1.384 -0.1044  0.7958 -0.1753
 2475TIP3   OH229059   3.959   5.769   7.793 -0.0261 -0.0305 -0.3876
 2475TIP3    H129060   3.868   5.759   7.763  0.6741  0.2096 -2.8024
 2475TIP3    H229061   4.001   5.823   7.726  2.2453 -1.2795 -0.0793
 2476TIP3   OH229062   3.506   0.200   7.040  0.4383  0.5561  0.3544
 2476TIP3    H129063   3.453   0.253   6.980  0.3212  1.8159  1.5221
 2476TIP3    H229064   3.595   0.233   7.029  0.5971  0.0474  0.0950
 2477TIP3   OH229065   5.045   3.163   0.032 -0.5076 -0.4236 -0.0477
 2477TIP3    H129066   5.049   3.071   0.005 -2.3334 -0.7130  0.5698
 2477TIP3    H229067   5.008   3.209  -0.043 -0.6864 -0.3730  0.0726
 2478TIP3   OH229068   3.012   1.233   0.832  0.4228 -0.1936 -0.0968
 2478TIP3    H129069   3.036   1.314   0.788 -0.9909  1.1679  1.4484
 2478TIP3    H229070   3.060   1.236   0.915 -1.2499  0.2347  0.9313
 2479TIP3   OH229071   4.302   4.881   0.674 -0.5486  0.1490  0.6284
 2479TIP3    H129072   4.264   4.969   0.682 -0.9423  0.2773 -1.8689
 2479TIP3    H229073   4.396   4.895   0.672 -0.4670  0.2180  2.8073
 2480TIP3   OH229074   3.832   5.438   8.770  0.0100 -0.1471 -0.4772
 2480TIP3    H129075   3.902   5.444   8.835 -1.3805  1.5244  0.9481
 2480TIP3    H229076   3.763   5.388   8.814 -0.6179  0.2648 -0.9850
 2481TIP3   OH229077   1.041   6.253   1.960 -0.2304 -0.4322  0.5534
 2481TIP3    H129078   1.043   6.219   1.871 -1.3833 -0.3426  0.4792
 2481TIP3    H229079   1.111   6.206   2.005 -1.1652 -2.2399  0.2101
 2482TIP3   OH229080   2.138   2.100   0.398  0.0404  0.3301 -0.3902
 2482TIP3    H129081   2.220   2.060   0.427  0.6142  0.3005 -1.9683
 2482TIP3    H229082   2.121   2.169   0.461 -0.0773 -1.2839  1.4306
 2483TIP3   OH229083   1.956   2.048   0.649 -0.5236 -0.0893 -0.0305
 2483TIP3    H129084   1.918   1.961   0.655 -1.3787  0.0130 -2.8561
 2483TIP3    H229085   2.051   2.033   0.648 -0.6596 -0.9719 -0.4325
 2484TIP3   OH229086   5.345   1.428   0.248 -0.3878 -0.3306 -0.0291
 2484TIP3    H129087   5.440   1.432   0.236 -0.1986 -0.2666  1.3306
 2484TIP3    H229088   5.309   1.436   0.159  0.9179 -2.1574 -0.7988
 2485TIP3   OH229089   1.071   4.381   2.588 -0.1626 -0.5594 -0.2628
 2485TIP3    H129090   1.090   4.300   2.539  0.6739  0.8824 -2.5057
 2485TIP3    H229091   1.002   4.356   2.649 -2.1476 -2.3528 -2.9563
 2486TIP3   OH229092   5.258   0.502   0.654 -0.2265  0.3252 -0.3047
 2486TIP3    H129093   5.248   0.411   0.681  1.8371 -0.7731 -2.7699
 2486TIP3    H229094   5.179   0.521   0.604  1.0048 -1.6857 -3.3391
 2487TIP3   OH229095   4.337   4.945   1.863  0.3073  0.0814 -0.5040
 2487TIP3    H129096   4.417   4.892   1.866  0.6307  0.3824 -2.4834
 2487TIP3    H229097   4.266   4.882   1.857  0.3184 -0.2022  1.7035
 2488TIP3   OH229098   6.221   1.739   0.708  0.2213 -0.6479  0.4878
 2488TIP3    H129099   6.266   1.654   0.701  1.8870  0.0570  1.7506
 2488TIP3    H229100   6.280   1.801   0.665  0.5474  0.3197  2.2164
 2489TIP3   OH229101   3.877   5.898   0.115  0.1848  0.0606 -0.2003
 2489TIP3    H129102   3.850   5.990   0.110  2.4081  0.7218 -0.9746
 2489TIP3    H229103   3.823   5.862   0.186 -1.6533  1.5954 -0.7051
 2490TIP3   OH229104   4.364   0.304   6.767 -0.4636  0.2598  0.1844
 2490TIP3    H129105   4.453   0.331   6.789 -0.6043  0.1563  0.9084
 2490TIP3    H229106   4.319   0.385   6.743  0.0906  0.1879 -1.1641
 2491TIP3   OH229107   6.534   3.529   8.412 -0.1907  0.4670  0.0986
 2491TIP3    H129108   6.491   3.457   8.365  2.2519 -1.1450  0.1107
 2491TIP3    H229109   6.583   3.575   8.345  0.1384  0.6373  0.4528
 2492TIP3   OH229110   2.122   3.296   1.117  0.2372 -0.0418  1.1336
 2492TIP3    H129111   2.212   3.279   1.091  0.0269  2.5172 -1.7531
 2492TIP3    H229112   2.123   3.385   1.153 -1.1724  0.1336  0.8201
 2493TIP3   OH229113   3.133   5.408   8.223  0.4073  0.4410 -0.2390
 2493TIP3    H129114   3.115   5.398   8.316  0.4951  0.4570 -0.2209
 2493TIP3    H229115   3.217   5.453   8.219  1.3164 -1.1823 -0.3321
 2494TIP3   OH229116   2.772   0.178   7.248  1.2997 -0.2305  0.4298
 2494TIP3    H129117   2.799   0.209   7.334  1.0532 -1.8275  1.1243
 2494TIP3    H229118   2.726   0.096   7.266 -0.0808  0.1492 -1.0991
 2495TIP3   OH229119   4.620   5.255   2.641  0.2971  0.0881 -0.8423
 2495TIP3    H129120   4.572   5.326   2.599  0.3073 -0.0495 -1.0890
 2495TIP3    H229121   4.606   5.268   2.734  2.9891  2.4225 -0.6159
 2496TIP3   OH229122   6.625   1.344   7.715  0.0242 -0.2236  0.0711
 2496TIP3    H129123   6.543   1.299   7.733 -0.6652  0.9891  0.0587
 2496TIP3    H229124   6.659   1.368   7.801 -0.2821  0.3792  0.0294
 2497TIP3   OH229125   6.087   6.739   1.353  0.1047 -0.3918 -0.0436
 2497TIP3    H129126   6.027   6.755   1.280  1.0427  3.8342 -0.1248
 2497TIP3    H229127   6.167   6.707   1.312 -0.2994 -0.7818 -0.5432
 2498TIP3   OH229128   2.004   2.286   2.233  0.2248 -0.3993 -0.4338
 2498TIP3    H129129   1.998   2.292   2.328  1.1360 -0.0830 -0.3830
 2498TIP3    H229130   2.025   2.194   2.216 -0.2951 -0.5353 -0.3571
 2499TIP3   OH229131   2.735   1.701   1.244  0.4235  0.0182  0.3216
 2499TIP3    H129132   2.690   1.784   1.229  1.2860  0.6400  1.0435
 2499TIP3    H229133   2.803   1.722   1.309  0.8585 -1.1811  0.2804
 2500TIP3   OH229134   4.760   2.916   2.273  0.0827 -0.4932 -0.3581
 2500TIP3    H129135   4.732   2.988   2.215 -0.3547  0.5665  1.1146
 2500TIP3    H229136   4.777   2.843   2.213 -1.1164  0.3131 -1.7652
 2501TIP3   OH229137   3.939   5.054   8.176 -0.3108 -0.0446 -0.4982
 2501TIP3    H129138   3.849   5.034   8.150  0.0967 -0.9856 -1.2303
 2501TIP3    H229139   3.970   5.117   8.111 -1.5551  3.1514  1.7397
 2502TIP3   OH229140   3.339   4.942   8.152  0.1593  0.0794  0.0908
 2502TIP3    H129141   3.354   4.855   8.116 -0.4787 -0.1521  0.3685
 2502TIP3    H229142   3.275   4.928   8.222  1.3394  0.5189  1.2942
 2503TIP3   OH229143   6.696   2.460   0.584  0.2733  0.3578 -0.3775
 2503TIP3    H129144   6.670   2.425   0.669  0.2443 -1.8728 -1.2325
 2503TIP3    H229145   6.614   2.493   0.546  0.4204  2.1377  0.7293
 2504TIP3   OH229146   2.527   3.855   2.449  0.2518  0.4636  0.6236
 2504TIP3    H129147   2.607   3.804   2.445  1.3551  2.0993  0.9142
 2504TIP3    H229148   2.543   3.922   2.516 -1.9708 -0.1422  1.8643
 2505TIP3   OH229149   5.539   1.882   1.732 -0.0666  0.0029 -0.1549
 2505TIP3    H129150   5.634   1.883   1.716 -0.4773  2.4318 -3.4821
 2505TIP3    H229151   5.512   1.794   1.708  1.2299 -0.4902  0.0778
 2506TIP3   OH229152   3.010   0.747   7.837 -0.2718 -0.0099  0.6284
 2506TIP3    H129153   2.979   0.693   7.910 -1.7256 -0.9702 -0.6415
 2506TIP3    H229154   2.933   0.796   7.808  0.7375  1.8664  0.9349
 2507TIP3   OH229155   3.166   6.042   0.324  0.4168 -0.2842 -0.1432
 2507TIP3    H129156   3.097   6.083   0.377  0.5003 -1.0689  0.6082
 2507TIP3    H229157   3.150   6.072   0.235 -3.0301 -3.0699 -0.6862
 2508TIP3   OH229158   1.830   6.099   8.888 -0.4156 -0.3665  0.0827
 2508TIP3    H129159   1.793   6.019   8.926  0.2330 -0.0042  1.5391
 2508TIP3    H229160   1.863   6.072   8.803  0.1445 -1.7548  0.7066
 2509TIP3   OH229161   3.267   6.089   8.572 -0.1158  0.3171 -0.0947
 2509TIP3    H129162   3.217   6.010   8.551  0.1356  0.6041 -1.9482
 2509TIP3    H229163   3.338   6.058   8.629 -0.3764 -0.6873 -0.2930
 2510TIP3   OH229164   0.965   4.558   6.985  0.0738  0.2512  0.2278
 2510TIP3    H129165   0.948   4.525   6.897 -0.3667  0.0514  0.3846
 2510TIP3    H229166   0.883   4.602   7.010 -0.2660 -0.8133  1.0426
 2511TIP3   OH229167   2.816   2.521   0.085  0.1044  0.1936  0.2021
 2511TIP3    H129168   2.862   2.490   0.007 -0.0948 -0.9902  0.5333
 2511TIP3    H229169   2.768   2.444   0.117 -0.4142  0.8524  1.0663
 2512TIP3   OH229170   6.228   2.909   7.521 -0.4931  0.6147 -0.0021
 2512TIP3    H129171   6.223   2.924   7.427  4.2479 -1.6382 -0.8812
 2512TIP3    H229172   6.208   2.816   7.532  0.2404  0.5595  1.0160
 2513TIP3   OH229173   3.911   3.280   7.527  0.0047 -0.6237 -0.3510
 2513TIP3    H129174   3.986   3.337   7.545 -1.0265  0.2012  1.6935
 2513TIP3    H229175   3.949   3.196   7.503  1.5642 -0.0557  0.0341
 2514TIP3   OH229176   4.643   5.597   7.110  0.0727  0.4235  0.2962
 2514TIP3    H129177   4.573   5.656   7.081  0.5024  1.4718  1.2820
 2514TIP3    H229178   4.660   5.541   7.035  0.4390  2.3304 -1.1320
 2515TIP3   OH229179   1.168   4.462   7.349  0.2533  0.1055 -0.0049
 2515TIP3    H129180   1.075   4.439   7.356  0.6107 -3.3369 -3.5156
 2515TIP3    H229181   1.178   4.536   7.409 -4.9923  1.5548 -0.3972
 2516TIP3   OH229182   1.423   4.710   7.730  0.5114  0.0773 -0.5928
 2516TIP3    H129183   1.390   4.772   7.796  0.1339 -1.3897  0.6484
 2516TIP3    H229184   1.518   4.725   7.729  0.5430  0.0479  0.3929
 2517TIP3   OH229185   1.364   5.562   0.073  0.0916 -0.4916 -0.8631
 2517TIP3    H129186   1.328   5.495   0.015 -1.3339 -0.9822  0.5014
 2517TIP3    H229187   1.310   5.640   0.055  0.6652 -0.1919 -1.2901
 2518TIP3   OH229188   5.522   2.235   1.302 -0.0428 -0.3562 -0.3081
 2518TIP3    H129189   5.509   2.174   1.230  0.4079 -0.3640 -0.3887
 2518TIP3    H229190   5.594   2.198   1.353  2.5462  1.7106 -2.1856
 2519TIP3   OH229191   5.168   6.443   7.884 -0.5929  0.0395 -0.0518
 2519TIP3    H129192   5.142   6.440   7.792 -1.0145  0.2885  0.0592
 2519TIP3    H229193   5.175   6.351   7.910 -0.3461 -0.0332 -0.3660
 2520TIP3   OH229194   0.183   5.058   0.256  0.3982 -0.2321 -0.3565
 2520TIP3    H129195   0.260   5.103   0.290 -0.5831 -0.2803  2.1717
 2520TIP3    H229196   0.205   4.965   0.259  0.7936 -0.1791 -1.2249
 2521TIP3   OH229197   2.848   0.029   0.624  0.3089 -0.0961 -0.1193
 2521TIP3    H129198   2.852  -0.004   0.534 -2.9176  2.3387 -1.3334
 2521TIP3    H229199   2.805  -0.041   0.673  3.2928 -2.0299  0.0313
 2522TIP3   OH229200   4.595   0.846   0.496  0.0881 -0.1494  0.5057
 2522TIP3    H129201   4.563   0.803   0.417  0.7267  0.6706 -0.2247
 2522TIP3    H229202   4.647   0.779   0.541 -0.9320 -0.8580  0.6530
 2523TIP3   OH229203   0.436   0.396   8.122 -0.0721 -0.0684 -0.1463
 2523TIP3    H129204   0.488   0.368   8.197  3.3890  2.0998 -1.4599
 2523TIP3    H229205   0.379   0.322   8.103  0.4395 -1.5322  3.2300
 2524TIP3   OH229206   5.640   0.544   1.172  0.0775 -0.1737  0.2844
 2524TIP3    H129207   5.589   0.554   1.091 -0.1730  1.0296  0.5810
 2524TIP3    H229208   5.685   0.460   1.160  0.3239  0.1406 -1.2616
 2525TIP3   OH229209   1.073   2.454   0.997 -0.2396 -0.3573 -0.3511
 2525TIP3    H129210   1.094   2.475   0.906  0.0310  0.5013 -0.0976
 2525TIP3    H229211   1.155   2.419   1.033 -0.3725 -0.7854 -0.4584
 2526TIP3   OH229212   4.465   3.616   1.237  0.7990  0.0644  0.0461
 2526TIP3    H129213   4.433   3.640   1.150  1.8875  3.0150  0.3243
 2526TIP3    H229214   4.522   3.540   1.221 -1.9323 -1.8765 -1.1755
 2527TIP3   OH229215   0.039   1.442   2.513 -0.1194  0.4694 -0.2146
 2527TIP3    H129216   0.029   1.399   2.598  0.1044  1.2814  0.2326
 2527TIP3    H229217   0.073   1.373   2.455 -0.9785 -0.2849  0.1604
 2528TIP3   OH229218   0.063   6.032   8.713 -0.2820  0.1127  0.2249
 2528TIP3    H129219   0.075   5.937   8.715  0.0070  0.1447 -0.0619
 2528TIP3    H229220   0.023   6.049   8.628 -1.5641  0.1052  0.8103
 2529TIP3   OH229221   2.109   5.819   8.886  0.0945 -0.5502 -0.6558
 2529TIP3    H129222   2.146   5.730   8.889  0.7678 -0.2659 -0.2301
 2529TIP3    H229223   2.114   5.843   8.794  0.3844 -0.7643 -0.6992
 2530TIP3   OH229224   4.528   3.002   1.828  0.6273  0.2497  0.0267
 2530TIP3    H129225   4.469   3.042   1.763 -0.3331 -0.0599  0.6788
 2530TIP3    H229226   4.581   2.941   1.777  0.2640  0.4119 -0.5591
 2531TIP3   OH229227   2.850   0.273   7.483 -0.1293 -0.6143 -0.3113
 2531TIP3    H129228   2.944   0.277   7.466 -0.4919 -0.1863 -2.4517
 2531TIP3    H229229   2.841   0.303   7.574  1.7366 -0.0583 -0.2651
 2532TIP3   OH229230   3.914   5.137   7.282 -0.3153 -0.1624  0.1572
 2532TIP3    H129231   3.842   5.186   7.242  1.0589  0.0964 -2.1776
 2532TIP3    H229232   3.970   5.204   7.321 -0.1039 -0.1373 -0.1830
 2533TIP3   OH229233   5.442   6.585   1.703 -0.0968 -0.1372  0.0443
 2533TIP3    H129234   5.460   6.571   1.610 -1.6365  0.2060 -0.3450
 2533TIP3    H229235   5.488   6.514   1.747 -0.1696 -0.9145 -1.0756
 2534TIP3   OH229236   3.307   5.073   1.585  0.0676 -0.0504  0.0150
 2534TIP3    H129237   3.212   5.059   1.587  0.1284 -0.4533  0.2664
 2534TIP3    H229238   3.320   5.141   1.520 -0.3548 -0.3525 -0.3899
 2535TIP3   OH229239   4.943   5.265   7.453  0.3507 -0.4193  0.3289
 2535TIP3    H129240   4.921   5.260   7.360 -1.2823  0.0872  0.6486
 2535TIP3    H229241   4.979   5.353   7.465  0.3948 -0.4219  0.2090
 2536TIP3   OH229242   3.549   6.160   9.012 -0.0264 -0.4334  0.3361
 2536TIP3    H129243   3.564   6.190   9.102 -1.3262  1.1371  0.0786
 2536TIP3    H229244   3.554   6.239   8.959  0.1983 -1.2590 -0.9240
 2537TIP3   OH229245   0.693   1.626   9.004 -0.1150 -0.2202 -0.7341
 2537TIP3    H129246   0.612   1.584   8.974 -0.4828  1.7351 -2.7886
 2537TIP3    H229247   0.763   1.568   8.973 -0.6941 -1.3340  0.0247
 2538TIP3   OH229248   5.401   5.343   7.481  0.6206 -0.4717 -0.0725
 2538TIP3    H129249   5.463   5.412   7.503 -1.2315  1.1195  0.4421
 2538TIP3    H229250   5.455   5.274   7.441  2.4189  1.6948 -1.6492
 2539TIP3   OH229251   6.423   5.641   8.854 -1.1005 -0.2965 -0.2117
 2539TIP3    H129252   6.415   5.549   8.878 -0.8080 -0.3477 -0.3026
 2539TIP3    H229253   6.424   5.642   8.758  1.2074 -0.4314 -0.2375
 2540TIP3   OH229254   1.587   0.261   0.100  0.8355  0.1028 -0.1191
 2540TIP3    H129255   1.607   0.287   0.010  0.6459  0.6181 -0.0198
 2540TIP3    H229256   1.567   0.168   0.095 -1.7411  0.6172 -1.0486
 2541TIP3   OH229257   0.445   1.604   1.511 -0.7491 -0.5802  0.4219
 2541TIP3    H129258   0.505   1.670   1.545 -2.3305  0.8067  0.6460
 2541TIP3    H229259   0.449   1.615   1.416 -2.9133  1.7244  0.5005
 2542TIP3   OH229260   5.735   3.594   7.258  0.0011  0.0206 -0.0749
 2542TIP3    H129261   5.740   3.526   7.191 -1.1661  0.7259 -0.9074
 2542TIP3    H229262   5.647   3.631   7.249  0.2707  0.9997  1.0035
 2543TIP3   OH229263   1.888   2.267   0.464  0.0820 -0.4722 -0.0700
 2543TIP3    H129264   1.874   2.211   0.540 -1.8223 -0.7674 -0.5919
 2543TIP3    H229265   1.867   2.211   0.389  1.9000 -0.1827 -0.8602
 2544TIP3   OH229266   2.549   2.527   1.797 -0.2570  0.2171  0.1804
 2544TIP3    H129267   2.589   2.521   1.710 -1.8163 -0.6624 -0.5331
 2544TIP3    H229268   2.510   2.614   1.800 -1.4363 -0.2503 -0.6217
 2545TIP3   OH229269   4.539   5.369   7.884  0.9751  0.1983  0.2049
 2545TIP3    H129270   4.551   5.295   7.943  0.6733  0.9939  1.2874
 2545TIP3    H229271   4.450   5.399   7.902  0.9108  0.5095 -0.5988
 2546TIP3   OH229272   2.371   0.697   7.036  0.6387 -0.9987 -0.5534
 2546TIP3    H129273   2.387   0.606   7.059  0.6013 -1.0138 -0.5871
 2546TIP3    H229274   2.446   0.744   7.071  0.8998 -1.1082 -0.9601
 2547TIP3   OH229275   3.950   0.413   1.788 -0.1537 -0.7185 -0.4538
 2547TIP3    H129276   3.940   0.360   1.709  0.5483  1.2697 -2.0019
 2547TIP3    H229277   3.872   0.395   1.840 -2.2252  0.0759 -3.0355
 2548TIP3   OH229278   4.697   3.218   1.431 -0.1291 -1.1924 -0.3530
 2548TIP3    H129279   4.717   3.285   1.366 -2.1618 -0.8264 -0.6772
 2548TIP3    H229280   4.762   3.150   1.416  2.1089  0.7277  0.0929
 2549TIP3   OH229281   6.258   1.792   8.579  0.8563 -0.0377  0.0349
 2549TIP3    H129282   6.229   1.834   8.498 -1.2393 -0.4171  0.5329
 2549TIP3    H229283   6.228   1.850   8.649 -0.1729 -1.2685  0.6463
 2550TIP3   OH229284   0.188   6.115   6.794  0.5036 -0.6602 -0.2175
 2550TIP3    H129285   0.227   6.202   6.781 -1.1129  0.1356  0.0460
 2550TIP3    H229286   0.210   6.093   6.885  1.3392 -0.7673 -0.4362
 2551TIP3   OH229287   4.972   5.370   1.858  0.7681  0.2836 -0.3574
 2551TIP3    H129288   5.007   5.439   1.914  2.2270 -1.0287  0.4431
 2551TIP3    H229289   5.021   5.292   1.884  1.2167 -0.4716 -3.2063
 2552TIP3   OH229290   0.179   0.232   1.486  0.0759  0.0167 -0.4987
 2552TIP3    H129291   0.108   0.169   1.484  0.5283 -0.4914 -1.3475
 2552TIP3    H229292   0.224   0.216   1.569  0.6426 -1.3241 -1.0292
 2553TIP3   OH229293   2.544   1.585   8.844  0.0142  0.2603 -0.4693
 2553TIP3    H129294   2.479   1.516   8.836 -1.9348  2.2071 -3.0639
 2553TIP3    H229295   2.624   1.539   8.871 -2.2244 -2.2829  2.6555
 2554TIP3   OH229296   2.081   2.975   7.800  0.5832  0.0168 -0.2403
 2554TIP3    H129297   2.080   3.070   7.815  0.7928 -0.2405  1.5045
 2554TIP3    H229298   2.067   2.936   7.886 -1.4127 -1.5441 -1.1820
 2555TIP3   OH229299   5.123   5.732   7.851  0.1904  0.0823  0.1285
 2555TIP3    H129300   5.100   5.641   7.871  0.2065 -0.1018 -0.6385
 2555TIP3    H229301   5.215   5.740   7.876 -0.0174  0.1005  0.8851
 2556TIP3   OH229302   6.403   1.033   1.379  0.1157 -0.3119 -0.0777
 2556TIP3    H129303   6.342   1.081   1.324  0.3134  0.7681  0.6155
 2556TIP3    H229304   6.489   1.048   1.339  0.6376  2.6367  1.8562
 2557TIP3   OH229305   6.286   3.382   7.430 -0.3870  0.5011  0.1370
 2557TIP3    H129306   6.326   3.299   7.405 -0.3784  1.0634 -1.8997
 2557TIP3    H229307   6.324   3.446   7.370 -0.7419  1.9074  1.3594
 2558TIP3   OH229308   3.273   1.232   0.514 -0.1803  0.4227 -0.1190
 2558TIP3    H129309   3.226   1.177   0.577  1.1433  0.6530  1.1048
 2558TIP3    H229310   3.204   1.282   0.470 -1.1792 -0.1926  0.7087
 2559TIP3   OH229311   0.968   5.089   1.900 -0.8536 -1.0973 -0.1941
 2559TIP3    H129312   0.970   5.008   1.952  0.4168  0.2822  2.0295
 2559TIP3    H229313   0.880   5.124   1.914 -0.4459 -0.6118  1.3011
 2560TIP3   OH229314   2.176   3.959   6.768 -0.0294 -0.2696  0.2835
 2560TIP3    H129315   2.091   3.977   6.807 -1.9358 -0.5012 -3.3377
 2560TIP3    H229316   2.178   3.864   6.755  1.2786 -0.4053  1.2512
 2561TIP3   OH229317   6.308   4.058   2.144 -0.4140  0.4341  0.4288
 2561TIP3    H129318   6.233   4.093   2.095 -1.4928 -0.4807  1.3809
 2561TIP3    H229319   6.305   3.964   2.129  2.5282  0.6051 -2.1966
 2562TIP3   OH229320   1.304   1.200   2.380 -0.0351  0.2656 -1.0104
 2562TIP3    H129321   1.384   1.242   2.414  0.0431 -0.7482  0.1080
 2562TIP3    H229322   1.233   1.257   2.409 -0.0303 -0.8647  1.4917
 2563TIP3   OH229323   5.676   3.954   7.653 -0.4942 -0.6722  0.6385
 2563TIP3    H129324   5.721   3.986   7.731 -0.4212 -0.1146  0.3735
 2563TIP3    H229325   5.704   4.013   7.583 -1.3006 -0.5845  0.3809
 2564TIP3   OH229326   2.081   5.778   8.619 -0.1731  0.3079 -0.7092
 2564TIP3    H129327   2.038   5.696   8.643 -1.1098  1.3238  1.2681
 2564TIP3    H229328   2.095   5.771   8.524 -2.1845 -1.2316 -0.9461
 2565TIP3   OH229329   4.569   4.603   7.695 -0.6248  0.6628 -0.4151
 2565TIP3    H129330   4.555   4.661   7.620 -1.1046  1.2497  0.1211
 2565TIP3    H229331   4.662   4.614   7.715 -0.4123  0.2364 -1.1357
 2566TIP3   OH229332   2.686   0.783   2.822 -0.4900  0.2458  0.0503
 2566TIP3    H129333   2.617   0.848   2.836 -1.8975 -1.3400  0.7723
 2566TIP3    H229334   2.664   0.742   2.738 -0.5439 -0.3744  0.3604
 2567TIP3   OH229335   1.923   6.657   7.038  0.3387 -0.6160  0.7035
 2567TIP3    H129336   1.835   6.651   7.075  1.5009 -0.8159  3.6730
 2567TIP3    H229337   1.913   6.622   6.949 -2.3602 -1.5870  1.2708
 2568TIP3   OH229338   4.339   0.882   1.882  0.3663 -0.8122 -0.4097
 2568TIP3    H129339   4.407   0.940   1.848  0.3906 -0.7543 -0.2645
 2568TIP3    H229340   4.278   0.940   1.928  0.3688 -0.8948 -0.2999
 2569TIP3   OH229341   2.668   2.952   1.242 -0.0294  0.1714 -0.0777
 2569TIP3    H129342   2.709   2.955   1.328 -2.6287 -0.4942  1.2833
 2569TIP3    H229343   2.637   3.041   1.227 -1.1419 -0.1077  0.5145
 2570TIP3   OH229344   3.185   1.899   8.298 -0.1257 -0.8951  0.2835
 2570TIP3    H129345   3.190   1.904   8.394 -1.8454 -0.8986  0.4031
 2570TIP3    H229346   3.272   1.927   8.268 -0.9021  4.1237  1.7060
 2571TIP3   OH229347   2.174   0.186   1.325 -0.1615 -0.4394 -0.3143
 2571TIP3    H129348   2.157   0.218   1.414  2.0980  0.2635 -0.0615
 2571TIP3    H229349   2.116   0.238   1.269 -0.4630  0.2374  0.6096
 2572TIP3   OH229350   6.233   4.920   2.043  0.8184  0.2458 -0.3265
 2572TIP3    H129351   6.315   4.963   2.018  1.9811 -1.0283  1.1037
 2572TIP3    H229352   6.209   4.868   1.966  1.0264  1.0864 -0.9674
 2573TIP3   OH229353   3.618   1.779   0.900 -0.6311 -0.0833 -0.0062
 2573TIP3    H129354   3.544   1.736   0.945  0.1259 -1.5054 -0.0454
 2573TIP3    H229355   3.582   1.805   0.816 -1.1661 -0.5420  0.0652
 2574TIP3   OH229356   5.961   6.733   0.742 -0.4903 -0.3896 -0.2958
 2574TIP3    H129357   6.013   6.777   0.809  0.4331 -0.5589 -0.8891
 2574TIP3    H229358   5.941   6.647   0.780  0.1917 -0.5586 -0.3150
 2575TIP3   OH229359   2.322   1.942   1.801 -0.5000 -0.1875  0.3610
 2575TIP3    H129360   2.389   1.965   1.864 -0.3052 -1.5495  0.6936
 2575TIP3    H229361   2.276   2.024   1.782  0.5208  0.5397  0.9837
 2576TIP3   OH229362   2.330   5.780   1.128 -0.4219  0.3238  0.3755
 2576TIP3    H129363   2.337   5.815   1.040  0.7971  0.0176  0.3268
 2576TIP3    H229364   2.408   5.813   1.173 -0.9275  0.3198  1.2845
 2577TIP3   OH229365   2.279   4.895   8.995  0.2232  0.0213 -0.0125
 2577TIP3    H129366   2.251   4.806   8.974 -1.2942  0.5107 -0.2380
 2577TIP3    H229367   2.313   4.889   9.084 -2.0246 -0.4114  0.8958
 2578TIP3   OH229368   5.355   0.512   2.221 -0.2951  0.2794 -0.5013
 2578TIP3    H129369   5.307   0.429   2.219 -0.9286  0.6205  0.3286
 2578TIP3    H229370   5.303   0.571   2.166  1.2111 -0.3901 -2.8120
 2579TIP3   OH229371   0.613   5.266   1.557 -0.0572  0.1603  0.6436
 2579TIP3    H129372   0.698   5.250   1.515  0.2124 -0.3495  1.3536
 2579TIP3    H229373   0.553   5.207   1.512  0.2083 -0.3132  0.8994
 2580TIP3   OH229374   3.583   1.697   1.193 -0.3255  0.3362  0.0503
 2580TIP3    H129375   3.591   1.790   1.169 -2.4418  0.6792  0.4566
 2580TIP3    H229376   3.506   1.667   1.144  0.0928 -1.1108  0.2468
 2581TIP3   OH229377   6.040   5.101   0.473  0.2436  0.2285 -0.3399
 2581TIP3    H129378   5.962   5.122   0.421  0.7424  3.6364  0.0172
 2581TIP3    H229379   6.068   5.015   0.442 -1.5539  0.5130 -3.0905
 2582TIP3   OH229380   1.976   0.825   1.025  0.8449 -0.1374  0.7159
 2582TIP3    H129381   1.998   0.918   1.032 -1.4544  0.4924  0.2432
 2582TIP3    H229382   1.888   0.818   1.060  0.8418 -2.1083  0.4424
 2583TIP3   OH229383   2.811   3.371   8.187 -0.3999 -0.4219 -0.0173
 2583TIP3    H129384   2.742   3.313   8.221 -1.5564 -0.4118 -2.1804
 2583TIP3    H229385   2.780   3.398   8.101  1.0461  1.8390  0.0656
 2584TIP3   OH229386   0.253   2.210   2.093 -0.9008 -0.7473  0.1812
 2584TIP3    H129387   0.157   2.208   2.093 -0.8924 -1.1231  0.1154
 2584TIP3    H229388   0.276   2.251   2.177 -1.1175 -0.7502  0.2421
 2585TIP3   OH229389   1.238   2.086   8.203 -0.4267 -0.1773 -0.4042
 2585TIP3    H129390   1.231   1.997   8.239  0.1471  0.3995  1.2069
 2585TIP3    H229391   1.224   2.074   8.109  1.9299 -2.3151 -0.6135
 2586TIP3   OH229392   4.331   6.587   8.477  0.1195 -0.1457 -0.5512
 2586TIP3    H129393   4.270   6.546   8.540 -0.1277  0.6486 -0.2640
 2586TIP3    H229394   4.413   6.538   8.488  0.4051  0.6473  1.1618
 2587TIP3   OH229395   4.111   3.781   8.631  0.4989  0.0451  0.5283
 2587TIP3    H129396   4.185   3.841   8.640  1.0086 -0.3039 -0.9903
 2587TIP3    H229397   4.151   3.696   8.614 -0.2281 -0.0668 -0.7979
 2588TIP3   OH229398   0.372   3.698   8.711  0.2108 -0.2294  0.5573
 2588TIP3    H129399   0.460   3.667   8.730  0.3779 -0.7046 -0.9174
 2588TIP3    H229400   0.364   3.780   8.761  2.1081  0.7075 -0.5705
 2589TIP3   OH229401   6.320   4.200   8.220 -0.5556  0.6473 -0.5502
 2589TIP3    H129402   6.272   4.254   8.281 -1.0015  0.5250 -0.7912
 2589TIP3    H229403   6.256   4.176   8.153 -0.3315 -0.0576 -0.5233
 2590TIP3   OH229404   0.609   2.129   0.081  0.0529  0.1551  0.0655
 2590TIP3    H129405   0.631   2.059   0.021  1.6333  0.1009  0.6484
 2590TIP3    H229406   0.693   2.170   0.102 -0.4769  0.4246  1.8983
 2591TIP3   OH229407   1.450   0.347   6.780 -0.0078  0.5804 -0.3550
 2591TIP3    H129408   1.379   0.358   6.717  0.6574 -1.5166 -1.5567
 2591TIP3    H229409   1.524   0.316   6.728  0.3464 -1.9986  1.4833
 2592TIP3   OH229410   3.502   3.861   7.092  0.8321 -0.0419  0.4894
 2592TIP3    H129411   3.532   3.775   7.124 -0.1630  0.2503  2.3526
 2592TIP3    H229412   3.500   3.916   7.170  0.9574  1.5525 -0.5981
 2593TIP3   OH229413   2.163   2.048   2.080  0.2904  0.4101  0.2649
 2593TIP3    H129414   2.218   2.122   2.053  0.6236  0.2833  0.5753
 2593TIP3    H229415   2.213   2.006   2.150 -0.4357  0.5916  0.9092
 2594TIP3   OH229416   3.544   2.549   0.323 -0.1853  0.2963  0.6064
 2594TIP3    H129417   3.547   2.621   0.386 -2.5304  0.3893  0.6968
 2594TIP3    H229418   3.548   2.591   0.237  0.2101  0.3926  0.6722
 2595TIP3   OH229419   0.662   2.378   1.303  0.1359 -0.5768  0.2658
 2595TIP3    H129420   0.583   2.331   1.276  0.2057  0.8766 -2.9430
 2595TIP3    H229421   0.634   2.430   1.379 -1.2733 -1.9387  0.7303
 2596TIP3   OH229422   1.981   0.392   0.597  0.6573 -0.2204 -0.6336
 2596TIP3    H129423   2.049   0.455   0.572  0.8572  0.1021  0.6676
 2596TIP3    H229424   2.022   0.307   0.582  1.3081 -0.0290  0.0121
 2597TIP3   OH229425   6.767   1.450   8.345  0.4181  0.3988 -0.4704
 2597TIP3    H129426   6.801   1.473   8.432  0.5521  0.7182 -0.6039
 2597TIP3    H229427   6.681   1.492   8.342 -1.9643 -3.6832  1.4490
 2598TIP3   OH229428   4.172   4.411   0.529 -0.2236 -0.2133 -0.3872
 2598TIP3    H129429   4.209   4.379   0.446 -1.2591 -1.5103 -0.3877
 2598TIP3    H229430   4.098   4.352   0.546 -1.1651  1.1779  0.5239
 2599TIP3   OH229431   1.405   5.279   1.484 -0.7525  0.6499  0.5689
 2599TIP3    H129432   1.471   5.263   1.551  1.5261  1.0015 -1.4807
 2599TIP3    H229433   1.356   5.197   1.480  0.2957 -0.0428  1.3645
 2600TIP3   OH229434   0.715   3.011   1.312 -0.3057  0.8558 -0.0427
 2600TIP3    H129435   0.776   3.044   1.246  1.3098  1.0721  1.4878
 2600TIP3    H229436   0.697   2.921   1.286 -0.2130  1.1329 -1.1096
 2601TIP3   OH229437   4.994   2.569   2.597 -0.2453 -0.3089  0.4648
 2601TIP3    H129438   5.014   2.626   2.671  0.9028  0.0735 -0.1129
 2601TIP3    H229439   5.039   2.487   2.617  0.1286 -0.1793  0.1573
 2602TIP3   OH229440   0.049   5.042   0.008 -0.1470 -0.6168  0.2740
 2602TIP3    H129441   0.085   5.025   0.095 -1.3868  2.7500  1.6327
 2602TIP3    H229442   0.097   5.119  -0.023 -1.2400 -0.4130 -1.0082
 2603TIP3   OH229443   5.671   2.097   8.426  0.4175  0.5254  0.0240
 2603TIP3    H129444   5.654   2.120   8.517  2.5733  2.1509  0.1054
 2603TIP3    H229445   5.630   2.012   8.414 -3.1946  1.8968  1.3900
 2604TIP3   OH229446   2.821   1.517   1.974  0.0186 -0.2480 -0.6319
 2604TIP3    H129447   2.909   1.497   2.007  0.0611  0.4978 -0.2621
 2604TIP3    H229448   2.830   1.516   1.879  0.7519  1.1296 -0.6012
 2605TIP3   OH229449   1.471   0.829   0.034  0.5610 -0.2729 -0.0587
 2605TIP3    H129450   1.399   0.842  -0.028  2.7745 -1.3481 -3.0919
 2605TIP3    H229451   1.432   0.846   0.119 -3.8578 -2.8628 -1.2613
 2606TIP3   OH229452   5.760   4.546   6.957 -0.0019 -0.2499 -0.2146
 2606TIP3    H129453   5.726   4.604   6.888  1.0936  1.8539  0.9298
 2606TIP3    H229454   5.854   4.542   6.941  0.2502  0.1626  1.0664
 2607TIP3   OH229455   0.406   0.732   1.895 -0.5936 -0.0257  0.4641
 2607TIP3    H129456   0.398   0.645   1.856  0.0532  0.2507 -0.3073
 2607TIP3    H229457   0.499   0.739   1.918 -0.2688  1.1311 -1.0971
 2608TIP3   OH229458   1.946   4.956   2.064  0.1973 -0.4114 -0.3952
 2608TIP3    H129459   1.944   4.941   2.159  0.4285 -0.5154 -0.4057
 2608TIP3    H229460   1.977   4.874   2.027  1.0652 -0.0552 -0.4835
 2609TIP3   OH229461   2.678   3.729   7.539  0.2206 -0.0864  0.3419
 2609TIP3    H129462   2.619   3.805   7.545  2.9552  2.5698 -2.5761
 2609TIP3    H229463   2.715   3.720   7.627 -0.7414  1.4325  0.9431
 2610TIP3   OH229464   1.952   4.535   6.904  0.4483 -0.8994  0.3088
 2610TIP3    H129465   1.988   4.592   6.971 -0.7047  1.3234 -0.8293
 2610TIP3    H229466   1.974   4.578   6.821 -0.7123 -1.9507 -0.5937
 2611TIP3   OH229467   6.530   1.945   8.959  0.2503 -0.2116  0.1067
 2611TIP3    H129468   6.594   2.016   8.959 -1.0568  1.1329 -2.9804
 2611TIP3    H229469   6.577   1.870   8.924  0.7370  0.0936  0.1004
 2612TIP3   OH229470   4.231   6.266   7.827  0.2008 -0.3103 -0.1442
 2612TIP3    H129471   4.170   6.211   7.876 -0.9366  1.6839  0.8187
 2612TIP3    H229472   4.279   6.314   7.894  0.7152  0.3305 -0.9490
 2613TIP3   OH229473   5.649   1.302   1.886 -0.2215  0.0009  0.2968
 2613TIP3    H129474   5.585   1.342   1.945 -0.4666  0.1003 -0.0326
 2613TIP3    H229475   5.609   1.309   1.799  0.9790  1.5725 -0.1618
 2614TIP3   OH229476   5.118   2.991   7.167  0.5432  0.0657 -0.3404
 2614TIP3    H129477   5.095   2.943   7.087  1.9745 -1.2938  0.0146
 2614TIP3    H229478   5.157   2.925   7.224 -0.8793  0.8980  1.7251
 2615TIP3   OH229479   0.304   1.272   0.236  0.5689  0.4023  0.3457
 2615TIP3    H129480   0.220   1.249   0.195  0.1692  0.6070  1.0427
 2615TIP3    H229481   0.349   1.188   0.245  0.3132  0.2513  0.2348
 2616TIP3   OH229482   6.427   2.897   7.173  0.0309  0.1236 -0.3582
 2616TIP3    H129483   6.359   2.950   7.131  0.6420  0.2008 -1.2993
 2616TIP3    H229484   6.397   2.885   7.263  0.1682  2.6583  0.1033
 2617TIP3   OH229485   1.011   3.794   8.797  0.3188 -0.0774 -0.1721
 2617TIP3    H129486   1.015   3.705   8.761  1.9938 -0.2814  0.4182
 2617TIP3    H229487   1.058   3.848   8.734 -0.5839  0.3990 -0.4634
 2618TIP3   OH229488   4.421   5.908   7.818  0.2251  0.8860  0.2736
 2618TIP3    H129489   4.477   5.954   7.881 -0.0493  0.5395  0.7756
 2618TIP3    H229490   4.347   5.877   7.870 -0.0287  0.6343 -0.2317
 2619TIP3   OH229491   0.897   4.527   0.956 -0.6000 -0.0935 -0.1564
 2619TIP3    H129492   0.860   4.495   0.874  0.3094 -0.8399 -0.2923
 2619TIP3    H229493   0.984   4.487   0.961  0.5733  2.2334 -0.2667
 2620TIP3   OH229494   4.998   4.918   0.181  0.6109 -0.3003  0.0559
 2620TIP3    H129495   4.968   4.866   0.256  1.0386  0.5129  0.8094
 2620TIP3    H229496   5.035   4.997   0.220 -0.3999  0.7726 -1.0772
 2621TIP3   OH229497   4.758   1.076   7.856 -0.1894  0.1678  0.2354
 2621TIP3    H129498   4.715   1.130   7.790  1.9162  1.1806 -0.4130
 2621TIP3    H229499   4.806   1.010   7.806 -1.1267 -1.1157  0.9476
 2622TIP3   OH229500   2.763   6.068   0.057 -0.6257 -0.0056  0.2332
 2622TIP3    H129501   2.673   6.036   0.059 -0.6605  0.1148  1.2053
 2622TIP3    H229502   2.771   6.123   0.135  0.6186 -0.9730  0.8314
 2623TIP3   OH229503   5.645   4.712   1.252 -0.4602 -0.0093 -0.3571
 2623TIP3    H129504   5.581   4.711   1.181 -0.0493  0.9942 -0.7590
 2623TIP3    H229505   5.724   4.675   1.213  0.5993  2.9717 -1.2964
 2624TIP3   OH229506   5.548   1.894   2.593 -0.1868  0.0300  0.1724
 2624TIP3    H129507   5.521   1.809   2.558  0.0146 -0.2695  0.7327
 2624TIP3    H229508   5.499   1.958   2.542  0.6622 -0.3621 -1.1816
 2625TIP3   OH229509   1.465   2.916   8.132 -0.2292  0.5889  0.2098
 2625TIP3    H129510   1.520   2.862   8.075  0.3467 -0.1268  1.3902
 2625TIP3    H229511   1.516   2.995   8.147 -0.2675  0.6638 -0.0558
 2626TIP3   OH229512   2.937   1.749   0.468  0.4951 -0.3877  0.1751
 2626TIP3    H129513   2.886   1.681   0.425 -0.5992  1.7310 -2.1302
 2626TIP3    H229514   2.874   1.818   0.488  1.9291  0.9686  0.2314
 2627TIP3   OH229515   4.069   4.510   6.565  0.4434  0.2542 -0.0476
 2627TIP3    H129516   4.161   4.532   6.577 -0.1661  1.7786  3.1156
 2627TIP3    H229517   4.046   4.545   6.479  2.8263 -0.4497 -1.0393
 2628TIP3   OH229518   2.598   4.746   1.060  0.2381 -0.0606  0.1893
 2628TIP3    H129519   2.679   4.797   1.058 -0.7964  1.6834 -0.3690
 2628TIP3    H229520   2.621   4.661   1.024  1.5568  0.8149 -1.1409
 2629TIP3   OH229521   2.412   5.496   6.902 -0.0003 -0.8427 -0.6247
 2629TIP3    H129522   2.328   5.475   6.862 -0.2533  0.3041 -0.7255
 2629TIP3    H229523   2.432   5.584   6.872  1.8705 -1.5397 -1.6394
 2630TIP3   OH229524   4.795   2.194   2.244  0.0368  0.1205  0.1186
 2630TIP3    H129525   4.829   2.122   2.298 -0.5922 -0.4603 -0.2366
 2630TIP3    H229526   4.701   2.177   2.240  0.0668  0.2102 -1.0739
 2631TIP3   OH229527   5.119   5.306   7.933  0.5642  0.2479  0.5419
 2631TIP3    H129528   5.201   5.277   7.972  1.2340  0.7661 -0.4549
 2631TIP3    H229529   5.117   5.264   7.847  1.4370  2.8581 -0.8468
 2632TIP3   OH229530   4.781   6.266   1.696 -0.5063 -0.3452 -0.4487
 2632TIP3    H129531   4.744   6.179   1.681 -1.9639  0.2321 -0.2836
 2632TIP3    H229532   4.826   6.258   1.780 -0.3070 -1.0354 -0.6131
 2633TIP3   OH229533   0.362   3.435   0.223 -0.5995  0.1635  0.2623
 2633TIP3    H129534   0.387   3.521   0.188  0.4301 -0.4148 -0.4846
 2633TIP3    H229535   0.302   3.400   0.158 -2.4959  1.0422  1.4604
 2634TIP3   OH229536   5.615   0.963   6.214  0.0991  0.6139  0.1522
 2634TIP3    H129537   5.705   0.996   6.215 -0.4701  2.3503  2.3363
 2634TIP3    H229538   5.568   1.021   6.274 -2.2711 -0.8777 -0.1507
 2635TIP3   OH229539   3.749   0.289   7.380  0.5967 -0.5686 -0.2300
 2635TIP3    H129540   3.791   0.346   7.316  0.8500  0.4667  0.8187
 2635TIP3    H229541   3.660   0.322   7.388 -0.1487 -2.0900 -1.6493
 2636TIP3   OH229542   2.729   3.530   7.939 -0.2557  0.0641 -0.2840
 2636TIP3    H129543   2.772   3.607   7.900 -0.2927  0.8360  1.1478
 2636TIP3    H229544   2.645   3.563   7.970  0.1812 -0.2821  1.3275
 2637TIP3   OH229545   1.651   3.529   1.982  0.1059  0.1056 -0.1777
 2637TIP3    H129546   1.699   3.550   2.062  1.2277 -0.1976 -0.7412
 2637TIP3    H229547   1.606   3.447   2.002  0.2094  0.1428  0.2166
 2638TIP3   OH229548   1.006   0.049   1.374 -0.1280  0.0790 -0.7757
 2638TIP3    H129549   0.959  -0.033   1.363  0.7896 -0.5563 -0.0154
 2638TIP3    H229550   1.010   0.086   1.285  0.8648 -1.4721 -1.4081
 2639TIP3   OH229551   0.631   1.584   0.539  0.7297 -0.1480 -0.3521
 2639TIP3    H129552   0.658   1.494   0.517 -1.0360 -0.1905 -2.7823
 2639TIP3    H229553   0.535   1.582   0.534  0.2933  0.9358  3.8910
 2640TIP3   OH229554   1.246   1.469   0.112  0.1497  0.6148 -0.0158
 2640TIP3    H129555   1.296   1.435   0.038 -1.1540  1.1967 -1.1882
 2640TIP3    H229556   1.218   1.556   0.084 -0.5872  0.7394  1.0576
 2641TIP3   OH229557   2.138   3.531   0.732  0.0710  0.1428 -0.0331
 2641TIP3    H129558   2.196   3.501   0.802  1.2364  1.0843 -0.5768
 2641TIP3    H229559   2.064   3.571   0.778 -0.0487 -0.8435  0.6615
 2642TIP3   OH229560   1.904   2.081   1.390 -0.3147 -0.4265 -0.1990
 2642TIP3    H129561   1.861   2.113   1.470  1.6685  2.0538 -0.0188
 2642TIP3    H229562   1.891   2.150   1.326  1.2472 -0.7391 -0.8970
 2643TIP3   OH229563   0.696   1.156   7.507  0.2661  0.1113 -0.0538
 2643TIP3    H129564   0.634   1.225   7.529  3.1284  2.8009  0.1468
 2643TIP3    H229565   0.753   1.150   7.584  1.6100 -0.6902 -1.0814
 2644TIP3   OH229566   6.525   3.467   0.780 -0.2246 -0.2307  0.5535
 2644TIP3    H129567   6.444   3.416   0.779  0.5244 -1.4662 -0.5127
 2644TIP3    H229568   6.594   3.402   0.777  0.8818  0.7493  2.7165
 2645TIP3   OH229569   3.373   1.651   1.019 -0.0457 -0.3844 -0.0007
 2645TIP3    H129570   3.289   1.604   1.014 -0.7891  0.8140  0.7442
 2645TIP3    H229571   3.349   1.742   1.032  1.3808 -0.0711  0.6780
 2646TIP3   OH229572   3.091   1.345   0.043  0.4280  0.0659 -0.6920
 2646TIP3    H129573   3.159   1.315   0.103  0.9563  0.6951 -0.9691
 2646TIP3    H229574   3.011   1.302   0.074  0.8724 -0.3648 -0.1244
 2647TIP3   OH229575   4.214   2.927   0.103 -0.1599  0.3573  0.1090
 2647TIP3    H129576   4.291   2.939   0.048 -0.5757  1.3025 -0.2918
 2647TIP3    H229577   4.146   2.980   0.061 -0.0302  2.5630  2.4253
 2648TIP3   OH229578   2.595   3.296   0.424 -0.3490 -0.4441 -0.1405
 2648TIP3    H129579   2.557   3.261   0.343  1.6610  0.4284 -1.5383
 2648TIP3    H229580   2.682   3.255   0.429  0.5183  1.3598  0.2494
 2649TIP3   OH229581   4.032   3.817   2.054 -0.0444 -0.0339  0.6760
 2649TIP3    H129582   4.116   3.863   2.062 -0.3757  0.4336  1.7667
 2649TIP3    H229583   4.054   3.724   2.063  0.4974 -0.0074 -0.3383
 2650TIP3   OH229584   4.907   0.249   8.947  0.3325  0.1399  0.3334
 2650TIP3    H129585   4.912   0.309   8.872  0.7657  0.7341  0.8276
 2650TIP3    H229586   4.997   0.244   8.980  0.4224 -1.2283 -0.0324
 2651TIP3   OH229587   4.390   0.038   8.050 -0.8567 -0.0143 -0.0246
 2651TIP3    H129588   4.405  -0.027   8.118 -0.1027  0.1153 -0.0611
 2651TIP3    H229589   4.300   0.022   8.021 -0.7612 -0.8742  0.1354
 2652TIP3   OH229590   1.940   1.886   8.565 -0.0119  0.5733 -0.1739
 2652TIP3    H129591   1.877   1.832   8.518 -1.0421  1.0300  0.6350
 2652TIP3    H229592   2.025   1.847   8.544 -0.5824 -0.2992 -0.9731
 2653TIP3   OH229593   6.473   5.443   0.349  0.6614  0.0015  0.6561
 2653TIP3    H129594   6.419   5.514   0.313  1.3059  0.6960  1.0520
 2653TIP3    H229595   6.557   5.451   0.305  0.4977 -1.0268  0.1108
 2654TIP3   OH229596   2.420   3.761   0.363  0.1181 -0.0105 -0.4986
 2654TIP3    H129597   2.381   3.780   0.448  0.4434  0.4694 -0.4545
 2654TIP3    H229598   2.456   3.844   0.334  1.4020 -0.4996 -0.3840
 2655TIP3   OH229599   6.045   1.514   1.506  0.3697  0.3055 -0.0699
 2655TIP3    H129600   6.130   1.512   1.462  0.3402  0.4609 -0.1359
 2655TIP3    H229601   6.048   1.440   1.567 -0.1769 -0.8854 -1.4271
 2656TIP3   OH229602   4.737   4.753   0.479 -0.0673  0.1947  0.1365
 2656TIP3    H129603   4.830   4.743   0.498 -0.0424  0.8742  0.4146
 2656TIP3    H229604   4.734   4.802   0.397 -0.1854 -0.9007 -0.5308
 2657TIP3   OH229605   2.634   3.778   4.629  0.1549 -0.4373 -0.0376
 2657TIP3    H129606   2.552   3.745   4.593 -0.3107  0.1387  0.4788
 2657TIP3    H229607   2.623   3.771   4.724  1.2776 -1.7275  0.0151
 2658TIP3   OH229608   1.784   3.784   8.008 -0.0566  0.2023  0.7349
 2658TIP3    H129609   1.733   3.826   7.939  0.0768  0.1510  0.6040
 2658TIP3    H229610   1.818   3.856   8.061 -1.5521  0.2035  1.7646
 2659TIP3   OH229611   2.904   4.871   0.738 -0.3110  0.1167  0.2089
 2659TIP3    H129612   2.970   4.834   0.796 -1.7081  0.1011  1.8422
 2659TIP3    H229613   2.949   4.942   0.692  1.3044 -1.0169 -0.0352
 2660TIP3   OH229614   3.850   6.703   6.519 -0.3507  0.3884  0.3068
 2660TIP3    H129615   3.826   6.655   6.598 -0.2359 -0.1247  0.0286
 2660TIP3    H229616   3.832   6.643   6.447 -2.8991  1.7082 -0.2991
 2661TIP3   OH229617   4.588   3.272   0.473 -0.7435  0.4956 -0.3143
 2661TIP3    H129618   4.493   3.280   0.466 -0.7062  0.7686 -0.5114
 2661TIP3    H229619   4.606   3.181   0.450 -1.2107 -0.4103  2.4374
 2662TIP3   OH229620   0.473   1.988   2.018 -0.1989  0.3540  0.3218
 2662TIP3    H129621   0.485   2.051   2.089 -0.5359  0.4550  0.2912
 2662TIP3    H229622   0.379   1.986   2.004 -0.2713 -0.8390  0.9324
 2663TIP3   OH229623   3.864   5.292   1.940 -0.4962 -0.5958  0.2492
 2663TIP3    H129624   3.870   5.232   1.865  2.0523 -0.3820  0.2190
 2663TIP3    H229625   3.905   5.244   2.012 -1.3152 -0.0873  1.0752
 2664TIP3   OH229626   4.989   2.748   1.303  0.4492  0.0371 -0.0054
 2664TIP3    H129627   4.962   2.697   1.379  1.1883  0.1035  0.3162
 2664TIP3    H229628   4.988   2.686   1.231  0.2533 -0.1576  0.1642
 2665TIP3   OH229629   6.583   3.468   6.658  0.6946 -0.0407  0.7342
 2665TIP3    H129630   6.626   3.551   6.675  2.1028  0.0404 -2.4794
 2665TIP3    H229631   6.653   3.408   6.633 -0.5782 -1.3201  0.0344
 2666TIP3   OH229632   0.604   1.485   7.903  0.0598 -0.4893 -0.3309
 2666TIP3    H129633   0.695   1.474   7.875  0.6984  1.5604  0.7044
 2666TIP3    H229634   0.608   1.483   7.998 -0.7229  1.0443 -0.2306
 2667TIP3   OH229635   4.499   4.379   1.690  0.0841 -0.3920 -0.3979
 2667TIP3    H129636   4.454   4.463   1.682  0.3521 -0.2864 -0.8531
 2667TIP3    H229637   4.496   4.358   1.783 -0.2579 -0.0276 -0.3279
 2668TIP3   OH229638   0.044   5.804   8.322 -0.7360 -0.0795  0.3844
 2668TIP3    H129639   0.079   5.756   8.397 -0.3185 -0.6610 -0.1652
 2668TIP3    H229640   0.109   5.792   8.253 -0.8765  0.8619  0.0737
 2669TIP3   OH229641   3.641   5.851   1.695  0.7285 -0.0276  0.1444
 2669TIP3    H129642   3.564   5.852   1.638  0.3328  2.0141  0.6333
 2669TIP3    H229643   3.649   5.760   1.723 -1.3173 -0.3626 -0.1733
 2670TIP3   OH229644   6.438   1.249   1.045 -0.7071  0.7138 -0.0969
 2670TIP3    H129645   6.450   1.263   1.139 -1.2171 -1.6407  0.3786
 2670TIP3    H229646   6.524   1.220   1.014 -0.2317  2.5595 -0.6385
 2671TIP3   OH229647   6.767   6.095   7.871 -0.1669 -0.4410 -0.5812
 2671TIP3    H129648   6.686   6.136   7.902 -0.1780 -1.5175  0.8775
 2671TIP3    H229649   6.747   6.069   7.781 -1.6909 -1.2800 -0.0369
 2672TIP3   OH229650   4.558   1.644   0.209 -0.5564  0.1868  0.3789
 2672TIP3    H129651   4.517   1.644   0.122  1.2545 -1.5862 -0.5670
 2672TIP3    H229652   4.495   1.598   0.265  0.4871 -3.7486 -1.3521
 2673TIP3   OH229653   5.107   1.641   0.786  0.2903 -0.2730  0.2787
 2673TIP3    H129654   5.159   1.669   0.711  1.4604  0.3789  1.2992
 2673TIP3    H229655   5.027   1.694   0.782 -0.8359 -1.9704 -1.8606
 2674TIP3   OH229656   5.295   2.725   8.557  0.0365  0.2644  0.3325
 2674TIP3    H129657   5.352   2.773   8.616 -0.7593  1.8560 -0.1373
 2674TIP3    H229658   5.220   2.700   8.610  0.8057 -1.2249  0.7767
 2675TIP3   OH229659   1.843   2.571   7.902  0.3939  0.3539  0.7238
 2675TIP3    H129660   1.897   2.501   7.937  0.0805  0.8172  2.2406
 2675TIP3    H229661   1.827   2.547   7.811 -0.4624 -2.0042  1.4372
 2676TIP3   OH229662   0.571   1.892   0.267 -0.0469 -0.2350 -0.2269
 2676TIP3    H129663   0.560   1.974   0.219  0.4540  0.5934  1.0247
 2676TIP3    H229664   0.483   1.858   0.277 -0.3451  0.5434 -0.1049
 2677TIP3   OH229665   0.364   3.070   1.139 -0.1036  0.7270 -0.9726
 2677TIP3    H129666   0.439   3.030   1.095  0.1275  1.4969 -1.3009
 2677TIP3    H229667   0.310   2.996   1.166  1.2700  0.1129  0.1979
 2678TIP3   OH229668   4.515   1.163   1.992 -0.1329  0.0740  0.2129
 2678TIP3    H129669   4.513   1.255   2.016  0.3399 -0.1047  0.9499
 2678TIP3    H229670   4.480   1.117   2.069  1.5864 -0.5168  0.6804
 2679TIP3   OH229671   4.914   5.348   6.881  0.0393  0.0521 -0.1307
 2679TIP3    H129672   4.818   5.354   6.885 -0.0239 -0.8203 -0.2397
 2679TIP3    H229673   4.936   5.276   6.941  0.6567  0.4840  0.1688
 2680TIP3   OH229674   0.796   3.325   0.533 -0.3841 -0.0295  0.2482
 2680TIP3    H129675   0.891   3.320   0.537 -0.4373 -1.3729  0.3626
 2680TIP3    H229676   0.777   3.416   0.511  0.9658  0.0151 -0.8467
 2681TIP3   OH229677   6.393   6.484   0.087  0.5819  0.2262  0.2567
 2681TIP3    H129678   6.339   6.451   0.159 -0.5468  0.3274 -0.5213
 2681TIP3    H229679   6.416   6.573   0.115  0.6350  0.0635  0.7526
 2682TIP3   OH229680   1.674   1.252   6.556 -0.4168  0.2466 -0.0505
 2682TIP3    H129681   1.640   1.164   6.571 -0.4371  0.3001  0.2319
 2682TIP3    H229682   1.628   1.283   6.478  1.0565 -0.7533 -1.3842
 2683TIP3   OH229683   6.288   0.908   8.801  0.0974 -0.6091 -0.1999
 2683TIP3    H129684   6.193   0.907   8.791  0.1453 -2.0654 -0.7784
 2683TIP3    H229685   6.318   0.979   8.744 -0.8508  2.5261  2.8530
 2684TIP3   OH229686   1.775   6.009   7.240  0.3581  0.2704 -0.4124
 2684TIP3    H129687   1.735   6.096   7.231 -0.9048 -0.3261 -0.8547
 2684TIP3    H229688   1.732   5.956   7.173  1.6919 -0.5106 -0.6789
 2685TIP3   OH229689   4.465   5.791   1.281 -0.3843 -0.3849  0.0870
 2685TIP3    H129690   4.388   5.832   1.321  0.7599  1.1473  0.8356
 2685TIP3    H229691   4.489   5.850   1.209  0.9255 -0.0283  0.7766
 2686TIP3   OH229692   0.289   4.700   1.544  0.0159 -0.0641 -0.3733
 2686TIP3    H129693   0.355   4.741   1.489  2.4070 -0.4888  1.9808
 2686TIP3    H229694   0.277   4.612   1.507  0.8203 -0.0069 -0.7823
 2687TIP3   OH229695   1.882   5.653   0.506 -0.4383 -0.3771 -0.0656
 2687TIP3    H129696   1.966   5.700   0.506 -0.2694 -0.6656 -0.5735
 2687TIP3    H229697   1.817   5.721   0.490 -0.2348 -0.2542 -0.3770
 2688TIP3   OH229698   3.586   6.259   0.461  0.6098 -0.4244  0.4005
 2688TIP3    H129699   3.666   6.235   0.508 -0.2359 -3.0466  0.6881
 2688TIP3    H229700   3.553   6.176   0.427 -1.9728  0.5675  0.2459
 2689TIP3   OH229701   3.093   4.434   1.752  0.0438  0.0341  0.1813
 2689TIP3    H129702   3.070   4.490   1.826 -2.5267 -1.2867  0.4993
 2689TIP3    H229703   3.143   4.362   1.790 -0.1378  0.0382  0.4272
 2690TIP3   OH229704   5.783   2.466   1.351 -0.1650 -0.5865  0.2852
 2690TIP3    H129705   5.843   2.526   1.306 -1.3084  1.1458  0.9372
 2690TIP3    H229706   5.826   2.381   1.346  1.2798  0.1614 -1.1873
 2691TIP3   OH229707   3.557   5.425   0.227 -0.1621 -0.5586 -1.0394
 2691TIP3    H129708   3.647   5.399   0.244 -0.2633 -0.5915 -0.5517
 2691TIP3    H229709   3.509   5.398   0.305 -0.3754  0.5443 -0.7699
 2692TIP3   OH229710   1.659   1.355   1.045  0.0225 -0.7203  0.1236
 2692TIP3    H129711   1.608   1.427   1.009 -0.2452 -1.1370 -0.3471
 2692TIP3    H229712   1.750   1.382   1.034 -0.0853 -0.2070  0.4742
 2693TIP3   OH229713   5.795   1.123   6.942 -0.3266  0.7414  0.1380
 2693TIP3    H129714   5.804   1.043   6.993 -1.5865 -0.5069 -1.4752
 2693TIP3    H229715   5.805   1.095   6.851 -1.6981  2.2297 -0.5229
 2694TIP3   OH229716   3.413   3.897   8.768 -0.1929 -0.2996 -0.6022
 2694TIP3    H129717   3.368   3.968   8.722 -0.0856 -0.6379 -1.2491
 2694TIP3    H229718   3.405   3.822   8.709  2.1215 -0.1200 -1.2481
 2695TIP3   OH229719   3.784   4.099   2.250 -0.5016 -0.2865  0.4912
 2695TIP3    H129720   3.689   4.098   2.262 -0.3791  0.4433  1.7221
 2695TIP3    H229721   3.819   4.080   2.337  0.4904 -0.4253  0.0760
 2696TIP3   OH229722   4.761   2.944   8.325  0.3971  0.2170  0.3204
 2696TIP3    H129723   4.807   2.964   8.407  1.1497 -0.0577 -0.0248
 2696TIP3    H229724   4.668   2.947   8.349  0.6046 -0.0331  1.2271
 2697TIP3   OH229725   2.313   0.884   8.490 -0.3944 -0.0662 -0.4039
 2697TIP3    H129726   2.316   0.954   8.425  0.7455  0.7930  0.5399
 2697TIP3    H229727   2.327   0.928   8.574  0.5193 -1.4244  0.1976
 2698TIP3   OH229728   0.378   0.802   1.427 -0.9032  0.7574 -0.1291
 2698TIP3    H129729   0.443   0.871   1.414  0.1551  0.5343  3.1116
 2698TIP3    H229730   0.311   0.843   1.482 -0.9901 -0.3564  0.6241
 2699TIP3   OH229731   1.364   4.329   7.603  0.3776  0.5123  0.8449
 2699TIP3    H129732   1.447   4.371   7.584  0.8808 -1.1017 -0.8822
 2699TIP3    H229733   1.339   4.361   7.689  0.5350  4.4615 -0.4103
 2700TIP3   OH229734   0.850   0.722   1.308 -0.1145 -0.0989  0.2827
 2700TIP3    H129735   0.756   0.722   1.325  0.1335 -0.1249  1.8230
 2700TIP3    H229736   0.873   0.630   1.300 -0.2007 -0.0951 -0.0329
 2701TIP3   OH229737   2.961   5.143   8.259 -0.2927  0.0170  0.4567
 2701TIP3    H129738   2.872   5.157   8.225 -1.4963 -0.9179  2.9920
 2701TIP3    H229739   2.981   5.224   8.306 -0.5331 -0.4209  1.3300
 2702TIP3   OH229740   3.359   4.388   2.110 -0.2728 -0.1049 -0.4390
 2702TIP3    H129741   3.341   4.439   2.189  1.6306  0.0326 -0.0453
 2702TIP3    H229742   3.416   4.317   2.140 -2.3380 -2.1411 -1.0919
 2703TIP3   OH229743   2.827   4.527   1.373  0.1798 -0.4284 -0.6109
 2703TIP3    H129744   2.736   4.538   1.347  0.5056 -1.1698 -2.1957
 2703TIP3    H229745   2.836   4.580   1.452 -1.8659 -1.1688  0.1821
 2704TIP3   OH229746   5.073   0.628   0.469  0.1027  0.1475 -0.1763
 2704TIP3    H129747   5.025   0.640   0.387  1.8048 -2.0339 -1.5786
 2704TIP3    H229748   5.152   0.682   0.458 -0.4697  1.2059  0.7804
 2705TIP3   OH229749   0.787   3.325   1.089  0.6144  0.3138 -0.2689
 2705TIP3    H129750   0.816   3.234   1.087 -1.8632 -0.6193  1.3976
 2705TIP3    H229751   0.721   3.331   1.020 -0.2247  0.4390  0.5286
 2706TIP3   OH229752   5.215   3.943   8.228 -0.0902 -0.3227 -0.6660
 2706TIP3    H129753   5.120   3.955   8.222 -0.0591  0.4302  0.1293
 2706TIP3    H229754   5.229   3.849   8.216 -0.9567 -0.4697 -0.5385
 2707TIP3   OH229755   3.662   5.578   6.569 -0.6210  0.5946 -0.4297
 2707TIP3    H129756   3.610   5.615   6.497 -1.4320  1.6730  0.6659
 2707TIP3    H229757   3.748   5.618   6.559 -0.6006  0.4139 -1.0340
 2708TIP3   OH229758   2.282   3.960   1.920 -0.1622  0.0317  0.0035
 2708TIP3    H129759   2.305   3.867   1.916 -2.0303 -0.5929  1.9379
 2708TIP3    H229760   2.197   3.965   1.876  0.9036  1.3070 -2.1108
 2709TIP3   OH229761   5.069   0.422   1.074 -0.1141 -0.2078  0.1340
 2709TIP3    H129762   5.023   0.419   1.158  1.2049 -1.2929  0.8528
 2709TIP3    H229763   5.137   0.355   1.082  0.8084  0.5114 -1.3556
 2710TIP3   OH229764   6.443   2.209   7.957  0.3352  0.2546 -0.6373
 2710TIP3    H129765   6.415   2.298   7.977  0.0123  0.0661 -0.2273
 2710TIP3    H229766   6.390   2.183   7.881 -1.4622 -0.4953  0.7935
 2711TIP3   OH229767   4.531   5.349   1.912  0.1031  0.5719 -0.4893
 2711TIP3    H129768   4.593   5.278   1.925  1.9361  2.1942  0.1718
 2711TIP3    H229769   4.468   5.339   1.984 -0.5713 -1.1990 -1.2677
 2712TIP3   OH229770   2.176   2.984   8.425 -0.5596 -0.1631 -0.4051
 2712TIP3    H129771   2.264   2.954   8.448 -0.7320  0.8546  1.9326
 2712TIP3    H229772   2.118   2.913   8.452 -0.6689  0.5837  1.5200
 2713TIP3   OH229773   0.794   6.766   0.438  0.1732 -0.0887 -0.3801
 2713TIP3    H129774   0.736   6.722   0.376 -1.5137 -1.7273  2.1539
 2713TIP3    H229775   0.743   6.841   0.468  0.2821 -0.2448  0.1992
 2714TIP3   OH229776   1.997   3.129   6.785  0.1278 -0.1136  0.3698
 2714TIP3    H129777   1.977   3.103   6.695  0.6364  0.0593  0.1997
 2714TIP3    H229778   2.033   3.217   6.776 -0.0335 -0.0054  0.7703
 2715TIP3   OH229779   4.006   1.215   1.796  0.1895 -0.4256  0.5249
 2715TIP3    H129780   4.086   1.247   1.756 -0.1381 -0.2232  0.0196
 2715TIP3    H229781   3.970   1.291   1.842  1.2753 -0.9880  2.4246
 2716TIP3   OH229782   4.413   1.851   2.046 -0.2229  0.2883  0.3366
 2716TIP3    H129783   4.345   1.909   2.012  0.5815  1.1388  0.1483
 2716TIP3    H229784   4.372   1.808   2.122 -0.7908  1.2035  0.5595
 2717TIP3   OH229785   4.514   1.970   7.666 -0.0293 -0.3006 -0.1047
 2717TIP3    H129786   4.504   2.064   7.675 -0.3594 -0.3389 -0.0236
 2717TIP3    H229787   4.510   1.936   7.755  1.2780 -0.2964 -0.0255
 2718TIP3   OH229788   3.297   2.866   7.242  0.5621  0.1918  0.3147
 2718TIP3    H129789   3.285   2.917   7.162 -1.4918  0.7287  0.8988
 2718TIP3    H229790   3.276   2.776   7.216  1.9819 -0.0046 -0.2057
 2719TIP3   OH229791   3.650   0.809   8.164  0.1995  0.3697  0.1619
 2719TIP3    H129792   3.698   0.790   8.083  0.6051  1.0433  0.2420
 2719TIP3    H229793   3.702   0.875   8.208 -0.0184 -0.0042  0.9927
 2720TIP3   OH229794   6.686   2.174   9.017  0.4723 -0.1681  0.9985
 2720TIP3    H129795   6.774   2.210   9.006  0.4861 -0.2028  0.9973
 2720TIP3    H229796   6.628   2.242   8.983  0.5717 -0.7942 -0.5009
 2721TIP3   OH229797   6.467   6.010   8.234  0.1540 -0.3216  0.3166
 2721TIP3    H129798   6.450   5.960   8.314 -1.0769 -0.5778 -0.0867
 2721TIP3    H229799   6.470   6.101   8.264  2.0707 -0.5647  0.9993
 2722TIP3   OH229800   3.197   4.250   1.914 -0.1274  0.3676  0.0925
 2722TIP3    H129801   3.129   4.205   1.965 -0.3327  0.3807 -0.1711
 2722TIP3    H229802   3.242   4.305   1.979  0.3086 -0.4199  0.4763
 2723TIP3   OH229803   0.643   5.112   2.168 -0.2326  0.6117  0.1669
 2723TIP3    H129804   0.676   5.162   2.093  2.5277  1.4375  1.8164
 2723TIP3    H229805   0.567   5.163   2.198  0.3220  1.8143 -0.3778
 2724TIP3   OH229806   1.133   6.578   0.854  0.2092  0.4876 -0.0874
 2724TIP3    H129807   1.105   6.487   0.859 -0.0442  0.5706  0.0179
 2724TIP3    H229808   1.052   6.627   0.844  0.3208  0.7286  0.1886
 2725TIP3   OH229809   0.056   5.842   0.666  0.7378 -0.5257  0.1131
 2725TIP3    H129810  -0.032   5.857   0.700  1.7842 -0.6465  3.1311
 2725TIP3    H229811   0.050   5.867   0.574 -1.7501  2.1748  0.8510
 2726TIP3   OH229812   6.522   2.858   7.549 -0.0297 -0.6113  0.3598
 2726TIP3    H129813   6.426   2.866   7.553 -0.0285 -0.9998  1.7877
 2726TIP3    H229814   6.537   2.783   7.492 -0.4057  1.6466 -2.9872
 2727TIP3   OH229815   6.271   4.207   0.266  0.3285  0.1852  0.2122
 2727TIP3    H129816   6.358   4.238   0.294  0.3866  0.2824 -0.0800
 2727TIP3    H229817   6.280   4.112   0.263  0.4325  0.1971  0.1498
 2728TIP3   OH229818   4.424   1.607   8.956  0.4179 -0.0720 -0.1756
 2728TIP3    H129819   4.376   1.533   8.921 -1.2708 -0.1343  2.0598
 2728TIP3    H229820   4.514   1.594   8.927 -0.0711 -2.3582 -0.7896
 2729TIP3   OH229821   4.237   2.892   2.564  0.0141  0.3166 -0.2749
 2729TIP3    H129822   4.286   2.833   2.622 -0.7601 -0.9938 -0.9059
 2729TIP3    H229823   4.302   2.956   2.534  0.7253  0.2012  0.9547
 2730TIP3   OH229824   5.921   4.531   0.247 -0.4430  0.4785 -0.0289
 2730TIP3    H129825   5.901   4.545   0.340 -0.4493  0.2320  0.0083
 2730TIP3    H229826   5.857   4.585   0.201 -0.7528  0.2346  0.1035
 2731TIP3   OH229827   1.952   0.208   2.202  0.1211 -0.8441 -0.4156
 2731TIP3    H129828   1.890   0.179   2.135  0.6240 -1.2622 -0.7119
 2731TIP3    H229829   2.036   0.175   2.172  0.9060  1.6245 -1.2280
 2732TIP3   OH229830   1.327   4.745   0.617  0.0870 -0.0663 -0.0177
 2732TIP3    H129831   1.371   4.812   0.668  0.1886  0.0591 -0.2682
 2732TIP3    H229832   1.396   4.680   0.598  0.1316  0.0576 -0.2851
 2733TIP3   OH229833   5.263   4.565   7.854 -0.1130  0.1533  0.4235
 2733TIP3    H129834   5.252   4.514   7.774 -0.8881  0.7009  0.1761
 2733TIP3    H229835   5.327   4.515   7.906 -0.8137 -1.0323  0.1641
 2734TIP3   OH229836   0.913   1.331   8.625 -0.2327  0.1728  0.3851
 2734TIP3    H129837   0.977   1.399   8.647 -0.8477  0.4768  1.3101
 2734TIP3    H229838   0.830   1.378   8.616 -0.5378 -0.3644  0.3243
 2735TIP3   OH229839   0.375   0.317   0.717 -0.9717 -0.4384 -0.1220
 2735TIP3    H129840   0.470   0.305   0.718 -0.8755  0.2164 -0.6860
 2735TIP3    H229841   0.350   0.300   0.626 -1.1344  1.2640 -0.4230
 2736TIP3   OH229842   2.132   3.850   2.161  0.2699 -0.0124 -0.4324
 2736TIP3    H129843   2.210   3.898   2.133  0.7897 -0.1734  0.6699
 2736TIP3    H229844   2.079   3.915   2.207  0.3950 -0.1943 -0.0187
 2737TIP3   OH229845   3.634   3.580   8.828  0.3391  0.9191  0.1511
 2737TIP3    H129846   3.709   3.635   8.852  2.6460 -1.3916 -1.2289
 2737TIP3    H229847   3.647   3.499   8.878 -0.4502 -0.0796 -1.2076
 2738TIP3   OH229848   5.475   0.100   1.005  0.0683 -0.3605  0.0519
 2738TIP3    H129849   5.466   0.016   0.961 -0.3701  0.2253 -1.0176
 2738TIP3    H229850   5.568   0.120   1.001 -0.2535  1.8459 -4.9875
 2739TIP3   OH229851   1.552   6.267   6.753  0.0562  0.3523  0.2150
 2739TIP3    H129852   1.460   6.242   6.750 -0.1162  1.0353 -0.6297
 2739TIP3    H229853   1.593   6.214   6.685  0.3608 -0.1835  0.8032
 2740TIP3   OH229854   1.301   1.439   0.792  0.1415  0.2390 -0.4120
 2740TIP3    H129855   1.276   1.498   0.721 -0.0769  2.1548  1.1908
 2740TIP3    H229856   1.368   1.487   0.841  0.4281 -1.1161  0.5815
 2741TIP3   OH229857   2.925   3.453   1.600 -0.3669 -0.4558  0.4381
 2741TIP3    H129858   2.964   3.381   1.550  0.4100 -0.5910  1.2009
 2741TIP3    H229859   2.962   3.443   1.688 -0.7788  0.4754  0.7306
 2742TIP3   OH229860   1.892   3.299   6.989  0.3236  0.0142 -0.3098
 2742TIP3    H129861   1.945   3.289   6.910 -0.9226 -0.8016 -1.0954
 2742TIP3    H229862   1.804   3.317   6.956 -0.0851  0.3778  0.9213
 2743TIP3   OH229863   0.306   2.795   8.110  0.1916  0.7029 -0.0014
 2743TIP3    H129864   0.334   2.773   8.199  1.4901  0.0659 -0.5426
 2743TIP3    H229865   0.239   2.730   8.090  0.8069  0.0301  0.0600
 2744TIP3   OH229866   1.368   2.475   1.004  0.1420  0.5221  0.2355
 2744TIP3    H129867   1.351   2.569   1.007  0.1674  0.5212  0.4167
 2744TIP3    H229868   1.412   2.461   0.920  0.0549  0.6575  0.1677
 2745TIP3   OH229869   1.344   2.554   7.469  0.5747 -0.3134 -0.1209
 2745TIP3    H129870   1.386   2.596   7.395  0.7845  0.0568  0.2056
 2745TIP3    H229871   1.373   2.463   7.465  1.4730 -0.0438  0.1442
 2746TIP3   OH229872   3.506   1.594   7.537 -0.2579 -1.1340  0.3675
 2746TIP3    H129873   3.562   1.666   7.509 -0.2927 -0.3318  2.1928
 2746TIP3    H229874   3.483   1.548   7.456 -1.1514  1.5402 -1.0114
 2747TIP3   OH229875   3.133   3.667   9.001  0.3298  0.1463 -0.0522
 2747TIP3    H129876   3.088   3.584   9.019 -0.2241  0.4112 -0.1761
 2747TIP3    H229877   3.195   3.677   9.073  0.1136 -0.1787  0.1807
 2748TIP3   OH229878   2.732   0.347   1.005 -0.0083 -0.5293  0.1657
 2748TIP3    H129879   2.704   0.432   0.971  0.7222  0.2693  1.4851
 2748TIP3    H229880   2.706   0.285   0.937  2.1556  1.0397 -2.2889
 2749TIP3   OH229881   2.290   3.574   7.590 -0.5003  0.1856  0.1727
 2749TIP3    H129882   2.280   3.501   7.651 -1.8389  0.0823 -0.1349
 2749TIP3    H229883   2.351   3.541   7.524 -1.7070 -0.9832 -0.4059
 2750TIP3   OH229884   5.691   5.630   0.429 -0.1733  0.2933  0.1208
 2750TIP3    H129885   5.662   5.700   0.488  3.8149  1.4191  1.0172
 2750TIP3    H229886   5.710   5.556   0.486  1.5859  0.6462  0.0407
 2751TIP3   OH229887   1.101   6.497   1.402  0.2472  0.0579 -0.4363
 2751TIP3    H129888   1.133   6.415   1.365  0.9531  0.5741 -0.9998
 2751TIP3    H229889   1.023   6.518   1.351 -1.1742 -1.2924  1.0552
 2752TIP3   OH229890   6.244   0.740   8.514  0.1299  0.3026 -0.2885
 2752TIP3    H129891   6.232   0.834   8.502  0.4183  0.4026  0.1763
 2752TIP3    H229892   6.339   0.728   8.523 -0.0003  0.2041  1.3859
 2753TIP3   OH229893   0.273   6.573   1.426  0.1641  0.2013 -0.1872
 2753TIP3    H129894   0.322   6.511   1.481  0.3425  1.5459  1.2447
 2753TIP3    H229895   0.259   6.526   1.344  1.3052 -1.2974  0.4217
 2754TIP3   OH229896   2.089   4.899   1.418  0.4450  0.1456  0.1746
 2754TIP3    H129897   2.108   4.990   1.439  1.6957  0.1147 -0.7329
 2754TIP3    H229898   2.128   4.849   1.489 -0.1086  0.3024  0.5934
 2755TIP3   OH229899   5.742   4.606   8.147  0.1160  0.5142  0.0633
 2755TIP3    H129900   5.812   4.575   8.204 -0.2191  1.9008  1.2983
 2755TIP3    H229901   5.661   4.584   8.193 -0.2193  0.2993 -0.6076
 2756TIP3   OH229902   5.390   6.284   7.649 -0.1494 -0.0174  0.1041
 2756TIP3    H129903   5.451   6.233   7.596 -0.2931 -0.6383  0.5275
 2756TIP3    H229904   5.344   6.219   7.702 -2.7238  0.1661 -1.7390
 2757TIP3   OH229905   3.294   6.113   1.610  0.6050 -0.3502  0.3280
 2757TIP3    H129906   3.264   6.164   1.535  1.9235 -1.0162 -0.7096
 2757TIP3    H229907   3.215   6.075   1.647  0.0010 -0.9546 -1.4571
 2758TIP3   OH229908   3.456   6.314   7.718  0.1984 -0.0984  0.8265
 2758TIP3    H129909   3.431   6.332   7.809  1.8437 -0.0590  1.3031
 2758TIP3    H229910   3.549   6.292   7.723 -0.1920 -2.4341 -0.5548
 2759TIP3   OH229911   1.110   5.339   1.827  0.0129 -0.4294  0.4204
 2759TIP3    H129912   1.084   5.358   1.736 -1.6642  2.1224  1.3174
 2759TIP3    H229913   1.050   5.269   1.854 -3.2713  2.3288  1.0328
 2760TIP3   OH229914   3.778   4.203   8.787  0.7000 -0.0164  0.3529
 2760TIP3    H129915   3.702   4.250   8.822 -2.9604 -3.1669 -2.4639
 2760TIP3    H229916   3.832   4.270   8.746 -1.7564  2.1885  0.4865
 2761TIP3   OH229917   5.162   5.620   8.611 -0.7498  0.7698 -0.3044
 2761TIP3    H129918   5.106   5.666   8.548 -0.4886  0.0893 -1.0522
 2761TIP3    H229919   5.109   5.614   8.690 -0.7264  2.5272 -0.1064
 2762TIP3   OH229920   6.320   4.803   1.494  0.0678  0.4621 -0.3997
 2762TIP3    H129921   6.227   4.802   1.515  0.3227  0.8329  0.8501
 2762TIP3    H229922   6.342   4.897   1.491  0.1650  0.4148 -1.8867
 2763TIP3   OH229923   0.371   5.127   7.945  0.4012  0.1681  0.0289
 2763TIP3    H129924   0.368   5.135   8.041  0.3731 -1.8475  0.2321
 2763TIP3    H229925   0.462   5.102   7.927  1.2270  3.2414 -0.7952
 2764TIP3   OH229926   3.488   6.017   8.738 -0.6062  0.4139  0.0222
 2764TIP3    H129927   3.563   6.001   8.681 -0.7386 -0.9564  0.2065
 2764TIP3    H229928   3.506   5.967   8.817 -1.1804  1.0023  0.5424
 2765TIP3   OH229929   0.967   2.591   7.735  0.3496 -0.0807 -0.4051
 2765TIP3    H129930   0.926   2.504   7.743 -0.9827  0.5299 -0.2377
 2765TIP3    H229931   1.019   2.585   7.655  0.5930 -1.1576 -0.1866
 2766TIP3   OH229932   3.932   1.511   7.508 -0.1167 -0.2388  0.5439
 2766TIP3    H129933   3.982   1.550   7.579 -2.2256  2.8170  0.5421
 2766TIP3    H229934   3.920   1.582   7.445 -3.1898 -1.1569 -0.1013
 2767TIP3   OH229935   3.789   0.756   0.968  0.2630 -0.2632 -0.5870
 2767TIP3    H129936   3.817   0.664   0.964  2.4211  0.3161 -0.1034
 2767TIP3    H229937   3.827   0.796   0.890  0.5784  0.5104 -0.0461
 2768TIP3   OH229938   5.233   5.912   1.189 -0.3228 -0.3806 -0.2454
 2768TIP3    H129939   5.283   5.991   1.171 -1.5969  0.6554  0.5587
 2768TIP3    H229940   5.168   5.939   1.255 -2.1978 -1.5212 -1.5256
 2769TIP3   OH229941   3.674   2.981   8.981  0.6222  0.5323 -0.6347
 2769TIP3    H129942   3.747   2.920   8.983  0.7472  0.6521 -1.3394
 2769TIP3    H229943   3.668   3.013   9.071  1.2734  0.3308 -0.5106
 2770TIP3   OH229944   0.620   6.745   7.880  0.0846 -0.3478 -0.0619
 2770TIP3    H129945   0.549   6.768   7.821 -0.4181 -1.3362  0.1524
 2770TIP3    H229946   0.682   6.696   7.827 -0.2241 -0.9774  0.1538
 2771TIP3   OH229947   3.193   5.852   8.829  0.0201 -0.2639  0.0417
 2771TIP3    H129948   3.109   5.876   8.870 -0.0359 -1.2128  0.5182
 2771TIP3    H229949   3.259   5.890   8.888 -0.0694 -0.2070  0.1073
 2772TIP3   OH229950   0.228   1.621   7.779 -0.2015  0.3385  0.3156
 2772TIP3    H129951   0.275   1.704   7.783 -1.8375  1.3215  0.3102
 2772TIP3    H229952   0.185   1.613   7.864  0.6107 -0.9543  0.6355
 2773TIP3   OH229953   3.478   1.647   0.364  0.1328 -0.2032  0.8773
 2773TIP3    H129954   3.499   1.580   0.300 -2.1113 -1.0225  0.9175
 2773TIP3    H229955   3.546   1.714   0.352  0.8529 -1.2073 -1.0235
 2774TIP3   OH229956   0.827   5.440   1.011 -0.4255  0.6007  0.0002
 2774TIP3    H129957   0.753   5.434   0.951 -0.0328 -0.8426 -0.3897
 2774TIP3    H229958   0.901   5.463   0.955  0.1197 -1.6098 -0.3044
 2775TIP3   OH229959   1.298   5.649   0.858  0.2309 -0.0091  0.0652
 2775TIP3    H129960   1.363   5.710   0.894  0.3515  0.2546 -0.5837
 2775TIP3    H229961   1.260   5.696   0.784 -1.6133  0.3361  1.1843
 2776TIP3   OH229962   4.578   5.155   1.537  0.5990 -0.1855 -0.1419
 2776TIP3    H129963   4.620   5.092   1.596  2.0151  0.7219 -0.1251
 2776TIP3    H229964   4.649   5.214   1.511 -0.7450  1.5910  0.0729
 2777TIP3   OH229965   5.395   2.863   8.307  0.4510  0.2427 -0.6008
 2777TIP3    H129966   5.453   2.812   8.250 -0.6332 -1.4174 -0.2746
 2777TIP3    H229967   5.372   2.803   8.378  1.6057  2.1977  1.5395
 2778TIP3   OH229968   2.195   6.479   0.517  0.2156 -0.2841 -0.5399
 2778TIP3    H129969   2.166   6.471   0.607  0.9375  0.5126 -0.2202
 2778TIP3    H229970   2.117   6.460   0.464 -0.3187 -0.3189  0.2512
 2779TIP3   OH229971   6.591   1.042   0.021 -0.5561 -0.5146 -0.3878
 2779TIP3    H129972   6.677   1.081   0.034 -0.5912 -0.4495 -0.3484
 2779TIP3    H229973   6.538   1.112  -0.016 -0.1444 -1.0192 -2.0240
 2780TIP3   OH229974   3.552   1.903   8.981  0.2522  0.3684 -0.3224
 2780TIP3    H129975   3.546   1.914   9.076  1.4197  0.2743 -0.2248
 2780TIP3    H229976   3.514   1.983   8.945  1.7339  1.3945  0.2737
 2781TIP3   OH229977   2.955   4.350   8.734  0.4717 -0.5842  0.0730
 2781TIP3    H129978   2.891   4.287   8.768 -1.6186  0.2854 -2.0008
 2781TIP3    H229979   2.975   4.407   8.809 -0.7848 -1.2029  0.9081
 2782TIP3   OH229980   6.694   5.263   1.026  0.2012  0.3566  0.1914
 2782TIP3    H129981   6.678   5.353   1.054  1.2236  0.2498  1.1453
 2782TIP3    H229982   6.606   5.227   1.012 -0.3315  0.7773  2.1270
 2783TIP3   OH229983   5.946   1.389   6.562 -0.1989  0.3506  0.0595
 2783TIP3    H129984   5.997   1.361   6.638  0.7817  0.4976 -0.5241
 2783TIP3    H229985   5.856   1.370   6.585 -0.0298  1.3447  1.6878
 2784TIP3   OH229986   0.828   6.158   1.289  0.3861 -0.1308 -0.6509
 2784TIP3    H129987   0.794   6.132   1.375  1.4244  0.6892  0.0454
 2784TIP3    H229988   0.764   6.126   1.227  0.6195 -2.5774  0.2676
 2785TIP3   OH229989   1.292   1.144   6.882  0.6664  0.6472  0.4211
 2785TIP3    H129990   1.279   1.072   6.819  0.6379  1.7415 -0.8701
 2785TIP3    H229991   1.343   1.105   6.953  0.2917 -0.7536 -0.0373
 2786TIP3   OH229992   6.752   3.337   1.916  0.2194  0.3865  0.3274
 2786TIP3    H129993   6.694   3.362   1.844  0.2371 -0.2665  0.0827
 2786TIP3    H229994   6.765   3.243   1.905  3.2721  0.8409 -1.1155
 2787TIP3   OH229995   1.810   3.179   2.395  0.1984 -0.3509  0.1974
 2787TIP3    H129996   1.884   3.240   2.392  0.3940 -0.5954  0.0594
 2787TIP3    H229997   1.733   3.236   2.395  0.3673  0.0328  2.7720
 2788TIP3   OH229998   3.536   5.301   8.897 -0.0021 -0.1894 -0.0838
 2788TIP3    H129999   3.597   5.227   8.900 -0.8888 -0.9035  0.6601
 2788TIP3    H230000   3.478   5.288   8.972 -0.6196  0.8722 -0.3602
 2789TIP3   OH230001   2.365   2.832   8.551  0.5104 -0.4685 -0.1634
 2789TIP3    H130002   2.412   2.847   8.634 -0.8534  0.1507  0.5219
 2789TIP3    H230003   2.343   2.739   8.553  1.6405 -0.7612 -0.4764
 2790TIP3   OH230004   4.609   3.586   7.711  0.4226 -0.2987 -0.0339
 2790TIP3    H130005   4.596   3.582   7.806 -1.3182 -0.9032 -0.2559
 2790TIP3    H230006   4.529   3.626   7.678  2.3325  3.1202 -1.0451
 2791TIP3   OH230007   5.426   4.372   8.875 -0.7016 -0.2055  0.4867
 2791TIP3    H130008   5.336   4.368   8.908 -1.6827  2.7749 -1.4797
 2791TIP3    H230009   5.430   4.305   8.807 -2.1393  0.9390 -0.7885
 2792TIP3   OH230010   0.464   2.048   0.910 -0.2197 -0.4555 -0.2915
 2792TIP3    H130011   0.410   2.126   0.898  0.9898  0.2930 -1.1372
 2792TIP3    H230012   0.462   2.031   1.004 -3.4242 -1.6028 -0.4591
 2793TIP3   OH230013   4.272   1.549   6.612 -0.2970  0.4016 -0.3080
 2793TIP3    H130014   4.269   1.634   6.568 -0.9112 -0.6657 -2.4583
 2793TIP3    H230015   4.327   1.495   6.556 -0.5458 -0.8420  0.6059
 2794TIP3   OH230016   0.244   1.154   7.876  0.0322  0.3301  0.4963
 2794TIP3    H130017   0.219   1.062   7.864  1.9690 -0.0572 -1.0924
 2794TIP3    H230018   0.340   1.151   7.886  0.1497  2.1804  0.1893
 2795TIP3   OH230019   1.393   6.380   1.486  0.5025 -0.0023 -0.2155
 2795TIP3    H130020   1.484   6.386   1.517  0.3292  4.3445  0.0514
 2795TIP3    H230021   1.401   6.366   1.391  1.4414 -0.0027 -0.1476
 2796TIP3   OH230022   4.925   1.414   0.081  0.4469  0.6032  0.2460
 2796TIP3    H130023   4.963   1.445   0.164  2.1010  0.8915 -0.5658
 2796TIP3    H230024   4.835   1.392   0.102  0.4871  1.8138  1.8552
 2797TIP3   OH230025   0.958   3.168   1.977  0.4702  0.3610 -0.5669
 2797TIP3    H130026   0.914   3.239   1.931 -2.3056 -0.7931  0.1074
 2797TIP3    H230027   0.944   3.091   1.922 -2.1627 -0.8652  1.5806
 2798TIP3   OH230028   6.410   4.889   8.838 -0.0655 -0.3780  0.4233
 2798TIP3    H130029   6.383   4.975   8.804 -1.0400 -1.1014 -0.6965
 2798TIP3    H230030   6.338   4.863   8.896  0.5769 -0.1264  1.3542
 2799TIP3   OH230031   4.772   4.382   8.870 -0.2930 -0.0434 -0.3051
 2799TIP3    H130032   4.780   4.466   8.825 -0.2185  0.2969  0.3173
 2799TIP3    H230033   4.780   4.405   8.963 -1.8029 -0.5388 -0.0208
 2800TIP3   OH230034   2.571   2.138   8.655 -0.3479  0.1162 -0.7067
 2800TIP3    H130035   2.515   2.122   8.579 -0.3629  1.6523 -1.0503
 2800TIP3    H230036   2.573   2.233   8.664  2.0105  0.1097 -0.5586
 2801TIP3   OH230037   5.045   3.693   8.715  0.3847 -0.4018  0.6341
 2801TIP3    H130038   4.967   3.652   8.676  0.4011 -0.2441  0.4363
 2801TIP3    H230039   5.068   3.636   8.788 -1.6558  1.0564  2.5523
 2802TIP3   OH230040   3.507   2.873   1.526  0.1463 -0.2155 -0.2462
 2802TIP3    H130041   3.428   2.866   1.473  0.9676 -0.2901 -1.4793
 2802TIP3    H230042   3.478   2.854   1.615 -1.1188 -0.7657 -0.7637
 2803TIP3   OH230043   5.616   1.374   7.265  0.5949 -0.1716  0.0289
 2803TIP3    H130044   5.551   1.439   7.294  0.3005 -1.0637  1.4501
 2803TIP3    H230045   5.566   1.312   7.212  0.9116  0.8077 -1.4952
 2804TIP3   OH230046   5.434   4.620   7.512 -0.3078  0.5324  0.2760
 2804TIP3    H130047   5.453   4.526   7.502  0.6562  0.9154 -2.2977
 2804TIP3    H230048   5.519   4.659   7.534 -0.3408  0.9884 -0.3791
 2805TIP3   OH230049   1.743   4.662   0.567 -0.2887  0.8897  0.4115
 2805TIP3    H130050   1.684   4.595   0.602  1.3183  0.0882  1.7046
 2805TIP3    H230051   1.755   4.723   0.640  0.9753  0.6785  0.3896
 2806TIP3   OH230052   1.632   1.875   7.397 -0.0801  0.4540 -0.3164
 2806TIP3    H130053   1.594   1.853   7.313 -0.0307 -0.1548 -0.1850
 2806TIP3    H230054   1.721   1.840   7.393 -0.5587 -0.9325  0.5377
 2807TIP3   OH230055   4.543   1.465   0.880 -0.0040  0.2037  0.4082
 2807TIP3    H130056   4.471   1.527   0.865  0.7621  0.5091 -2.6431
 2807TIP3    H230057   4.526   1.394   0.818  1.3376 -0.6413  0.9771
 2808TIP3   OH230058   5.970   1.016   7.632  0.2783 -0.0201 -0.0686
 2808TIP3    H130059   6.035   0.948   7.652  0.1026 -0.0504  0.4058
 2808TIP3    H230060   5.921   0.981   7.558  0.3818 -0.2786 -0.0159
 2809TIP3   OH230061   1.055   5.941   7.681 -0.2428 -0.2052 -0.2492
 2809TIP3    H130062   1.120   5.883   7.640  0.3952  0.2103  0.1582
 2809TIP3    H230063   1.098   6.026   7.685 -1.0379  0.2127 -0.4931
 2810TIP3   OH230064   4.304   1.768   0.494  0.1091  0.2174 -0.5291
 2810TIP3    H130065   4.256   1.778   0.577  1.0171  1.4948 -0.1314
 2810TIP3    H230066   4.282   1.680   0.464 -0.0799 -0.3493  1.1763
 2811TIP3   OH230067   1.777   2.150   0.244 -0.5219 -0.6611  0.5503
 2811TIP3    H130068   1.831   2.075   0.220  0.6018 -0.0875  1.1952
 2811TIP3    H230069   1.690   2.130   0.209  0.3218 -1.1802 -1.3331
 2812TIP3   OH230070   0.544   1.899   2.555  0.1539 -0.2191  0.0774
 2812TIP3    H130071   0.473   1.846   2.591 -0.4907  0.8384  0.4227
 2812TIP3    H230072   0.616   1.889   2.617  0.0921 -0.7750  0.0694
 2813TIP3   OH230073   5.129   3.912   7.319 -0.2696  0.0642 -0.3318
 2813TIP3    H130074   5.172   3.880   7.240 -1.0980  1.3754 -1.3609
 2813TIP3    H230075   5.036   3.913   7.297 -0.4625  1.0066  0.4588
 2814TIP3   OH230076   0.320   3.616   0.885 -0.2332 -0.2541 -0.3450
 2814TIP3    H130077   0.373   3.536   0.877  0.2644  0.0155  0.1849
 2814TIP3    H230078   0.366   3.680   0.830  1.0307  0.4987  1.5005
 2815TIP3   OH230079   0.039   5.030   1.465  0.1803  0.2864 -0.1801
 2815TIP3    H130080  -0.054   5.007   1.454  0.4391 -1.1123  0.2555
 2815TIP3    H230081   0.041   5.085   1.544 -0.4512  1.7139 -1.1253
 2816TIP3   OH230082   4.228   2.243   8.943 -0.9526 -0.0945  0.6185
 2816TIP3    H130083   4.251   2.284   9.026  0.4046  0.0294  0.2221
 2816TIP3    H230084   4.254   2.308   8.877  2.1529 -1.8251 -0.0844
 2817TIP3   OH230085   4.115   0.596   0.941  0.1457  0.4862 -0.2901
 2817TIP3    H130086   4.108   0.572   0.848  1.5582 -0.2112 -0.2519
 2817TIP3    H230087   4.025   0.593   0.973 -0.2854  0.0169 -1.4694
 2818TIP3   OH230088   4.918   4.445   7.442 -0.6735  0.0657  0.0804
 2818TIP3    H130089   4.823   4.448   7.451 -0.7179  1.4300 -0.5977
 2818TIP3    H230090   4.938   4.352   7.434 -1.8298 -0.3193  1.3148
 2819TIP3   OH230091   3.208   0.894   0.989  0.2526  0.2637  0.4730
 2819TIP3    H130092   3.241   0.804   0.995  1.1714  0.4264 -1.4135
 2819TIP3    H230093   3.126   0.893   1.038  1.1425 -1.1237  2.0677
 2820TIP3   OH230094   2.429   5.638   7.871  0.0036  0.4090 -0.3129
 2820TIP3    H130095   2.404   5.560   7.822  1.4227  1.9752 -3.8077
 2820TIP3    H230096   2.519   5.656   7.846  1.3049  0.8234  3.8117
 2821TIP3   OH230097   1.845   0.360   8.144  0.9459  0.3116 -0.0419
 2821TIP3    H130098   1.830   0.358   8.239  0.5972  0.1213 -0.0980
 2821TIP3    H230099   1.774   0.415   8.110  2.1311  1.9360 -0.0098
 2822TIP3   OH230100   6.741   2.318   1.489 -0.1324  0.5088  0.6092
 2822TIP3    H130101   6.800   2.380   1.531 -0.8524  1.8430 -0.2820
 2822TIP3    H230102   6.723   2.252   1.557  0.8436  1.1319  1.4946
 2823TIP3   OH230103   3.548   4.664   9.018  0.2822  0.2388 -0.1741
 2823TIP3    H130104   3.581   4.745   8.980  0.0332  1.2107  1.5556
 2823TIP3    H230105   3.569   4.671   9.111 -0.3361 -1.3951  0.1191
 2824TIP3   OH230106   3.214   4.283   0.146  0.0674 -0.2948 -0.1425
 2824TIP3    H130107   3.250   4.195   0.153  1.1466  0.1509  0.1053
 2824TIP3    H230108   3.290   4.339   0.132 -0.4313  0.7761  1.1937
 2825TIP3   OH230109   1.248   2.885   7.685 -0.2712  0.3782 -0.5135
 2825TIP3    H130110   1.319   2.821   7.684  1.0056  1.6973  0.6551
 2825TIP3    H230111   1.231   2.901   7.778 -1.3962  0.8583 -0.7865
 2826TIP3   OH230112   3.837   0.138   0.448  0.1303  0.1291  0.4800
 2826TIP3    H130113   3.768   0.072   0.458  0.0309  0.1509 -0.0556
 2826TIP3    H230114   3.917   0.092   0.474  0.5053 -1.0754 -2.3854
 2827TIP3   OH230115   1.096   4.961   8.062 -0.7621 -0.0628 -0.8652
 2827TIP3    H130116   1.043   5.039   8.079  0.2703  0.8076 -1.5724
 2827TIP3    H230117   1.141   4.945   8.145 -2.4147 -1.0894 -0.0988
 2828TIP3   OH230118   5.421   3.631   0.530  0.3779 -0.7619  0.2598
 2828TIP3    H130119   5.375   3.548   0.543  3.0222 -2.4817 -0.4240
 2828TIP3    H230120   5.441   3.634   0.436  1.9477 -0.3398  0.5680
 2829TIP3   OH230121   1.016   2.945   8.294  0.6996 -0.6996  0.0635
 2829TIP3    H130122   1.112   2.943   8.294  0.7648  0.1892  1.9546
 2829TIP3    H230123   0.992   2.930   8.386 -0.8996  0.9544 -0.0255
 2830TIP3   OH230124   3.776   2.527   1.096  0.1725  0.2185  0.2645
 2830TIP3    H130125   3.784   2.574   1.178 -0.4982 -1.3328  1.2618
 2830TIP3    H230126   3.687   2.546   1.065 -0.1601 -0.4807  0.7552
 2831TIP3   OH230127   3.245   2.687   1.520 -0.6172 -0.2827  0.1819
 2831TIP3    H130128   3.237   2.760   1.459 -0.8854 -0.7279 -0.3185
 2831TIP3    H230129   3.267   2.612   1.466 -1.1317 -0.7415  0.6005
 2832TIP3   OH230130   6.753   3.301   0.860  0.1180  0.2835 -0.1631
 2832TIP3    H130131   6.826   3.293   0.798  0.0897 -1.1702 -0.0380
 2832TIP3    H230132   6.715   3.213   0.864  2.0890 -0.6602  4.3149
 2833TIP3   OH230133   1.468   4.024   8.867 -0.3231 -0.1551 -0.4551
 2833TIP3    H130134   1.485   3.934   8.894 -2.5030 -1.4883 -3.1688
 2833TIP3    H230135   1.379   4.023   8.834 -0.8536  3.3331  0.4880
 2834TIP3   OH230136   4.003   2.863   8.608  0.2533 -0.5182 -0.2991
 2834TIP3    H130137   4.033   2.826   8.524  1.2306  1.9259 -1.1390
 2834TIP3    H230138   4.007   2.958   8.594 -0.9225 -0.0570  2.0901
 2835TIP3   OH230139   0.610   2.217   6.981  0.0707  0.4209  0.5702
 2835TIP3    H130140   0.630   2.291   6.924  1.1071  1.4574  2.1848
 2835TIP3    H230141   0.696   2.185   7.009 -0.3958 -0.6981  0.7641
 2836TIP3   OH230142   0.588   5.308   0.619 -0.0945 -0.8756  0.7364
 2836TIP3    H130143   0.618   5.274   0.703  2.1430  0.3066  0.4981
 2836TIP3    H230144   0.560   5.397   0.638 -0.0538 -0.7730  0.3375
 2837TIP3   OH230145   5.634   2.743   7.259 -0.2723  0.1313 -0.2174
 2837TIP3    H130146   5.550   2.769   7.221  0.3512  1.2192 -0.9090
 2837TIP3    H230147   5.664   2.670   7.205 -0.1877  0.5765 -0.7885
 2838TIP3   OH230148   5.773   2.404   2.325 -0.5374 -0.1708  0.5842
 2838TIP3    H130149   5.860   2.401   2.365 -1.2124 -3.5226  2.1768
 2838TIP3    H230150   5.721   2.459   2.383  0.4081  1.7354 -0.2978
 2839TIP3   OH230151   6.200   3.973   1.277  0.1121  0.1938  0.3720
 2839TIP3    H130152   6.152   4.054   1.294  0.0091  0.1788  0.1565
 2839TIP3    H230153   6.219   3.975   1.184  1.0797  0.4944  0.5631
 2840TIP3   OH230154   5.424   2.901   7.777 -0.5387  0.1915  0.5736
 2840TIP3    H130155   5.429   2.994   7.801 -3.0738 -0.0564  2.4079
 2840TIP3    H230156   5.344   2.894   7.725  1.2527 -0.5380 -2.3446
 2841TIP3   OH230157   6.650   1.335   9.028 -0.2474  0.3852 -0.0118
 2841TIP3    H130158   6.563   1.330   8.989 -0.1849  0.5642 -0.1774
 2841TIP3    H230159   6.642   1.403   9.096 -0.3939 -0.0288  0.3906
 2842TIP3   OH230160   5.389   6.321   0.233  0.4339  0.1986 -0.1498
 2842TIP3    H130161   5.476   6.291   0.204  1.0103 -0.1010  1.7561
 2842TIP3    H230162   5.348   6.243   0.271 -1.1542  0.0677 -1.9496
 2843TIP3   OH230163   0.189   3.873   0.938  0.1388  0.4146  0.4220
 2843TIP3    H130164   0.207   3.780   0.931  0.0466  0.1928  2.4459
 2843TIP3    H230165   0.274   3.914   0.950  0.3183  0.7958 -1.7351
 2844TIP3   OH230166   4.595   0.022   2.292 -0.5366  0.0045 -0.3332
 2844TIP3    H130167   4.599  -0.059   2.342  1.6575  0.6101  0.6222
 2844TIP3    H230168   4.579   0.090   2.357  2.2413  0.7940 -0.3272
 2845TIP3   OH230169   0.288   6.258   6.530 -0.5167  0.6231  0.2939
 2845TIP3    H130170   0.348   6.228   6.462 -0.1609  0.0106  0.8653
 2845TIP3    H230171   0.333   6.237   6.612 -1.2457  0.7192  0.7215
 2846TIP3   OH230172   4.063   1.016   1.193 -0.3181 -0.0669 -0.5248
 2846TIP3    H130173   4.017   1.074   1.254  1.8131  1.1230  0.0722
 2846TIP3    H230174   4.029   1.040   1.107 -2.2638 -0.7005  0.0054
 2847TIP3   OH230175   5.418   1.423   1.375  0.6080  0.2795 -0.1021
 2847TIP3    H130176   5.448   1.381   1.295  1.8181  0.0482  0.4545
 2847TIP3    H230177   5.329   1.390   1.387 -0.1936  1.5226 -2.1581
 2848TIP3   OH230178   0.100   2.938   0.275 -0.2022  0.0927  0.6863
 2848TIP3    H130179   0.147   2.971   0.351 -1.0799 -0.1393  1.3488
 2848TIP3    H230180   0.040   3.009   0.251 -0.2991 -0.0387  0.5367
 2849TIP3   OH230181   5.149   2.238   8.056 -0.1736  0.1165  0.7167
 2849TIP3    H130182   5.209   2.187   8.002  0.5419  1.4690  0.2140
 2849TIP3    H230183   5.107   2.172   8.112 -0.6084 -1.2662 -1.1203
 2850TIP3   OH230184   6.670   4.053   8.762 -0.4986  0.2326 -0.7164
 2850TIP3    H130185   6.703   4.127   8.710  1.6248 -1.4262 -1.9285
 2850TIP3    H230186   6.633   3.993   8.697  0.4239 -1.0075 -0.1379
 2851TIP3   OH230187   3.748   2.255   0.958 -0.3913 -0.7738  0.2413
 2851TIP3    H130188   3.727   2.206   0.878  0.4954  0.5348 -0.8319
 2851TIP3    H230189   3.681   2.323   0.963 -1.3845 -1.7895  1.5166
 2852TIP3   OH230190   0.344   0.892   7.476  0.4879 -0.1407 -0.5230
 2852TIP3    H130191   0.387   0.978   7.473  1.8402 -0.7958 -2.8890
 2852TIP3    H230192   0.381   0.850   7.554  1.3331  0.6999 -0.4481
 2853TIP3   OH230193   5.881   3.828   8.459 -0.0375  0.1742  0.2595
 2853TIP3    H130194   5.881   3.849   8.366  0.9569  0.0189  0.2056
 2853TIP3    H230195   5.849   3.738   8.463  2.1622 -0.6907 -0.1995
 2854TIP3   OH230196   1.450   3.124   1.018 -0.0683 -0.0087  0.2483
 2854TIP3    H130197   1.489   3.166   1.095  0.8302 -1.8394  0.8682
 2854TIP3    H230198   1.374   3.078   1.052  0.5487 -1.1455  0.1664
 2855TIP3   OH230199   3.838   5.544   1.155  0.2183 -0.7567 -0.1234
 2855TIP3    H130200   3.915   5.503   1.115  0.1557 -2.1852  1.1593
 2855TIP3    H230201   3.861   5.555   1.247  0.5281  2.8966 -0.4932
 2856TIP3   OH230202   1.994   1.403   1.400 -0.1905 -0.3744  0.0536
 2856TIP3    H130203   1.900   1.396   1.379 -0.2414 -0.7469  0.3960
 2856TIP3    H230204   2.028   1.315   1.383  0.0633 -0.2837  0.0990
 2857TIP3   OH230205   0.424   2.135   1.761 -0.1126  0.0265 -0.3247
 2857TIP3    H130206   0.517   2.155   1.767 -0.4178  1.9672 -1.1822
 2857TIP3    H230207   0.420   2.042   1.741  1.6781  0.1126 -1.2408
 2858TIP3   OH230208   0.719   6.129   0.626 -0.1067 -0.1544  0.1219
 2858TIP3    H130209   0.799   6.092   0.664  0.2447  0.8421  0.3628
 2858TIP3    H230210   0.734   6.124   0.531 -0.2764 -1.0843  0.1360
 2859TIP3   OH230211   4.706   0.922   0.118 -0.6919  0.0670  0.3426
 2859TIP3    H130212   4.646   0.850   0.097 -0.5094  0.2055 -0.7100
 2859TIP3    H230213   4.772   0.882   0.175 -1.3122 -0.2848  0.8261
 2860TIP3   OH230214   5.401   2.461   8.407  0.1806 -0.4734  0.1877
 2860TIP3    H130215   5.420   2.474   8.500 -1.5617  1.5339  0.3354
 2860TIP3    H230216   5.457   2.525   8.363  0.2235 -0.6801 -0.0546
 2861TIP3   OH230217   6.597   5.342   1.299  0.0091 -0.1971  0.1663
 2861TIP3    H130218   6.584   5.247   1.303 -1.0302 -0.0481  1.1525
 2861TIP3    H230219   6.539   5.376   1.368 -0.4249  1.2293 -0.8636
 2862TIP3   OH230220   4.604   0.746   7.734  0.4581  0.8052 -0.0619
 2862TIP3    H130221   4.517   0.706   7.737  0.0093  1.7476 -0.1182
 2862TIP3    H230222   4.614   0.774   7.643  1.7626 -1.2674 -0.6420
 2863TIP3   OH230223   3.466   6.403   8.019  0.0935 -0.0300  0.0980
 2863TIP3    H130224   3.418   6.460   8.080 -1.6319  0.6870 -1.8114
 2863TIP3    H230225   3.546   6.380   8.065 -2.2737 -1.8478  3.8205
 2864TIP3   OH230226   2.102   2.376   0.740 -0.8417 -0.1979  0.0160
 2864TIP3    H130227   2.076   2.291   0.776  0.0594  0.3296  2.0341
 2864TIP3    H230228   2.173   2.355   0.679 -0.0787 -0.8584  1.0945
 2865TIP3   OH230229   5.592   2.641   8.287  0.0474  0.7319  0.4795
 2865TIP3    H130230   5.672   2.688   8.266  0.2855 -0.1622 -0.6966
 2865TIP3    H230231   5.598   2.559   8.238 -1.8430  0.9034 -0.1376
 2866TIP3   OH230232   5.037   4.395   0.488 -0.1947  0.2090 -0.3704
 2866TIP3    H130233   5.024   4.476   0.439 -1.8826 -1.2278 -2.5457
 2866TIP3    H230234   5.078   4.335   0.424 -1.0724 -1.3010  0.4294
 2867TIP3   OH230235   3.319   4.587   8.057  0.3319 -0.7442 -0.2644
 2867TIP3    H130236   3.262   4.660   8.032 -0.6746 -2.0366 -1.9789
 2867TIP3    H230237   3.267   4.535   8.117  1.1548  0.0469  1.1860
 2868TIP3   OH230238   6.574   0.874   7.823 -0.1546  0.3931  0.1300
 2868TIP3    H130239   6.635   0.850   7.754  0.0233  0.1215  0.3791
 2868TIP3    H230240   6.616   0.949   7.866  1.7722 -1.8639  2.5360
 2869TIP3   OH230241   4.757   4.940   0.960  0.1976  0.3583  0.0832
 2869TIP3    H130242   4.800   4.901   1.036  1.8517 -0.0282 -1.0142
 2869TIP3    H230243   4.827   4.957   0.898 -0.5994  3.7735 -0.1095
 2870TIP3   OH230244   6.159   2.126   8.125 -0.4867 -0.9935  0.0650
 2870TIP3    H130245   6.233   2.129   8.064 -0.8561 -2.0838 -0.4779
 2870TIP3    H230246   6.192   2.167   8.205 -0.1361  0.9024 -0.9982
 2871TIP3   OH230247   6.340   6.185   0.687 -0.1155  0.4887  0.1076
 2871TIP3    H130248   6.384   6.173   0.603 -0.3423  0.1142  0.0372
 2871TIP3    H230249   6.410   6.206   0.749  0.3462 -1.3083  0.2533
 2872TIP3   OH230250   4.372   6.709   1.049 -0.0065 -0.0068 -0.6882
 2872TIP3    H130251   4.423   6.628   1.057  0.4450  0.3468  0.0437
 2872TIP3    H230252   4.411   6.769   1.112 -0.3517  0.7851 -1.2153
 2873TIP3   OH230253   5.798   4.605   0.506 -0.1050  0.3785  0.1609
 2873TIP3    H130254   5.798   4.635   0.597  1.1284 -0.4022  0.4369
 2873TIP3    H230255   5.749   4.523   0.507  1.0648 -0.3487  0.4055
 2874TIP3   OH230256   2.137   5.685   8.367 -0.1541  0.5937  0.1493
 2874TIP3    H130257   2.063   5.642   8.325  0.9849  0.7972 -2.2391
 2874TIP3    H230258   2.185   5.614   8.409 -0.7093  0.2077  0.1481
 2875TIP3   OH230259   3.700   1.823   2.473  0.1610  0.8321 -0.1540
 2875TIP3    H130260   3.784   1.778   2.481  0.1182  0.8614  0.5030
 2875TIP3    H230261   3.720   1.914   2.492 -0.2592  0.6140  1.5100
 2876TIP3   OH230262   1.672   0.105   7.236  0.0549 -0.5688  0.1385
 2876TIP3    H130263   1.589   0.153   7.234  0.3517 -0.0717 -1.0062
 2876TIP3    H230264   1.653   0.023   7.190  0.4038 -0.0797 -0.9071
 2877TIP3   OH230265   6.230   5.522   1.232 -0.0963  0.2868  0.6231
 2877TIP3    H130266   6.198   5.488   1.148 -0.0740  1.5996  0.0584
 2877TIP3    H230267   6.241   5.444   1.286 -0.0586 -0.6075 -0.6096
 2878TIP3   OH230268   2.765   6.336   0.898  0.5198  0.3727 -0.1831
 2878TIP3    H130269   2.740   6.414   0.849 -2.7474 -2.0355 -2.7768
 2878TIP3    H230270   2.685   6.307   0.942  1.3888 -1.8830  0.0943
 2879TIP3   OH230271   3.224   1.578   2.323  0.4565  0.0627 -0.0112
 2879TIP3    H130272   3.165   1.510   2.291  0.5562 -1.0282  1.9938
 2879TIP3    H230273   3.167   1.645   2.360  0.4078  0.4887 -0.8255
 2880TIP3   OH230274   2.281   3.431   9.001  0.0787  0.1353  0.1261
 2880TIP3    H130275   2.259   3.341   9.023 -0.0567  0.4210  1.2707
 2880TIP3    H230276   2.197   3.475   8.992  0.1441  0.2112 -0.1056
 2881TIP3   OH230277   4.200   6.482   1.279 -0.3176 -0.5961 -0.5167
 2881TIP3    H130278   4.237   6.418   1.339 -2.6431 -0.3009  1.3822
 2881TIP3    H230279   4.259   6.557   1.285  0.6061 -1.3227 -0.2183
 2882TIP3   OH230280   3.784   3.385   8.944  0.6951  0.1558  0.0745
 2882TIP3    H130281   3.777   3.351   9.033  0.6356 -1.0252 -0.3735
 2882TIP3    H230282   3.849   3.329   8.901 -1.2056 -1.0381 -1.4136
 2883TIP3   OH230283   1.676   4.407   0.258 -0.2282  0.3457  0.7811
 2883TIP3    H130284   1.733   4.483   0.270  0.7540 -0.3915  0.8750
 2883TIP3    H230285   1.683   4.358   0.341  1.0349 -1.0799 -0.1232
 2884TIP3   OH230286   2.231   3.252   1.790 -0.1469  0.6289 -0.4521
 2884TIP3    H130287   2.199   3.319   1.728 -1.0111  0.7641  0.1246
 2884TIP3    H230288   2.197   3.170   1.755 -0.4215  0.6763 -0.2993
 2885TIP3   OH230289   4.233   2.038   0.869  0.1037 -0.4630  0.4035
 2885TIP3    H130290   4.163   2.080   0.918  0.8916 -0.2713  1.3819
 2885TIP3    H230291   4.288   2.110   0.839  0.6625 -0.6954  0.8569
 2886TIP3   OH230292   4.578   4.851   9.009  0.2056  0.4685  0.8315
 2886TIP3    H130293   4.503   4.910   8.996  0.7839  1.2647  0.9991
 2886TIP3    H230294   4.594   4.815   8.922 -0.9592 -0.4565  0.9762
 2887TIP3   OH230295   0.725   2.190   7.356  0.3438 -0.1866  0.4597
 2887TIP3    H130296   0.802   2.148   7.319 -0.9605 -0.3942 -2.2495
 2887TIP3    H230297   0.672   2.118   7.389  0.1871 -0.2641  0.0392
 2888TIP3   OH230298   1.669   6.006   6.995 -0.2759  0.5016  0.3385
 2888TIP3    H130299   1.694   5.925   6.951 -0.5608 -0.8946  2.5600
 2888TIP3    H230300   1.720   6.074   6.952 -0.4359 -0.7273 -1.9706
 2889TIP3   OH230301   4.231   4.576   0.978 -0.8264  0.6385  0.1117
 2889TIP3    H130302   4.256   4.614   0.894  0.8875  0.4882  0.5165
 2889TIP3    H230303   4.156   4.519   0.958  0.0469 -0.0020 -1.4522
 2890TIP3   OH230304   3.319   1.609   8.353 -0.2664 -0.2139 -0.2529
 2890TIP3    H130305   3.246   1.667   8.376 -1.3716 -0.2976 -3.0748
 2890TIP3    H230306   3.374   1.607   8.431 -2.0674  1.7260  1.1880
 2891TIP3   OH230307   1.366   1.430   7.331  0.4563 -0.0289  0.0311
 2891TIP3    H130308   1.380   1.337   7.346 -2.0715 -0.6196 -0.7229
 2891TIP3    H230309   1.323   1.461   7.411  0.1031  0.1764 -0.2340
 2892TIP3   OH230310   5.377   1.050   8.798  0.2218  0.0706  0.5085
 2892TIP3    H130311   5.306   1.041   8.862 -1.1667  1.1159 -0.8018
 2892TIP3    H230312   5.385   1.144   8.784  0.3294 -0.1340 -1.0087
 2893TIP3   OH230313   4.301   2.097   7.418  0.2389 -0.1834  0.6317
 2893TIP3    H130314   4.326   2.055   7.335 -1.1883 -2.0633  1.0880
 2893TIP3    H230315   4.206   2.105   7.414  0.2859  1.1418  1.4719
 2894TIP3   OH230316   1.561   1.615   1.258  0.5173  0.3997 -0.4138
 2894TIP3    H130317   1.504   1.683   1.223  1.2629  1.6364  0.6969
 2894TIP3    H230318   1.649   1.644   1.235  0.8222 -0.4195 -0.2904
 2895TIP3   OH230319   3.118   1.270   8.137  0.0575  0.7935  0.1003
 2895TIP3    H130320   3.198   1.315   8.165  0.9255 -1.5417  1.7327
 2895TIP3    H230321   3.052   1.293   8.203  0.0623  0.9008  0.0666
 2896TIP3   OH230322   2.885   4.960   8.923  0.2537 -0.1803 -0.1272
 2896TIP3    H130323   2.811   4.899   8.929 -0.6770  0.9734  0.2626
 2896TIP3    H230324   2.962   4.904   8.934 -0.5991 -1.2207  0.7782
 2897TIP3   OH230325   0.537   3.206   7.444 -0.1390  0.4253  0.2473
 2897TIP3    H130326   0.567   3.272   7.507 -1.3849  1.9576 -0.6767
 2897TIP3    H230327   0.609   3.144   7.437  1.5408  2.2788  0.3603
 2898TIP3   OH230328   3.582   6.294   6.425  0.4628  0.0609 -0.5160
 2898TIP3    H130329   3.504   6.242   6.449  2.0039 -2.1195  0.1044
 2898TIP3    H230330   3.639   6.288   6.502  0.9959  2.2212 -0.6932
 2899TIP3   OH230331   5.484   0.898   0.252  0.7660  0.0768 -0.3563
 2899TIP3    H130332   5.539   0.824   0.228  0.2822 -0.5528  0.4062
 2899TIP3    H230333   5.508   0.967   0.191 -1.4864 -1.8429 -3.7705
 2900TIP3   OH230334   0.666   6.125   8.252  0.4387 -0.4346  0.2262
 2900TIP3    H130335   0.717   6.045   8.267  2.2672  0.3073 -1.5435
 2900TIP3    H230336   0.600   6.099   8.189  1.5748 -0.4192 -1.0228
 2901TIP3   OH230337   1.930   0.562   2.053 -0.0687  0.1439  0.2735
 2901TIP3    H130338   1.863   0.552   2.121  0.1591 -1.0496  0.3392
 2901TIP3    H230339   1.899   0.508   1.980  0.6659 -0.1898  0.1932
 2902TIP3   OH230340   3.325   1.584   1.529 -0.0538 -0.3021  0.3444
 2902TIP3    H130341   3.240   1.540   1.531 -0.3988  0.3559  0.9460
 2902TIP3    H230342   3.308   1.667   1.484  0.0971  0.1514  1.1003
 2903TIP3   OH230343   6.581   1.346   1.617  0.3156 -0.0174 -0.1476
 2903TIP3    H130344   6.531   1.415   1.662 -0.0821  0.4032 -1.1991
 2903TIP3    H230345   6.655   1.391   1.578  1.5028 -0.6248  1.3015
 2904TIP3   OH230346   3.063   3.150   1.964 -0.0967  0.5875  0.3251
 2904TIP3    H130347   3.107   3.146   2.049 -0.8198  0.5091  0.7030
 2904TIP3    H230348   2.990   3.088   1.971 -0.8257  1.3918  0.0347
 2905TIP3   OH230349   4.766   3.035   2.529  0.4065 -0.5388 -0.6155
 2905TIP3    H130350   4.672   3.052   2.534  0.1797 -1.9149  0.8001
 2905TIP3    H230351   4.778   2.991   2.445 -0.1587 -0.0199 -0.9738
 2906TIP3   OH230352   2.357   0.103   8.799 -0.1518  0.6123  0.5383
 2906TIP3    H130353   2.442   0.071   8.829 -0.3377 -0.1327  0.2963
 2906TIP3    H230354   2.363   0.198   8.805  0.8789  0.5840  0.0306
 2907TIP3   OH230355   6.145   5.259   1.030 -0.0819  0.4120 -0.2758
 2907TIP3    H130356   6.118   5.210   1.108 -1.2237  0.6133 -0.5289
 2907TIP3    H230357   6.090   5.225   0.960  1.8623 -0.7518 -1.3537
 2908TIP3   OH230358   3.062   0.381   1.520  0.1575 -0.1006  0.2073
 2908TIP3    H130359   3.097   0.380   1.431 -1.3266 -0.4054 -0.4100
 2908TIP3    H230360   3.095   0.462   1.559  1.1431 -0.1575 -0.4698
 2909TIP3   OH230361   3.425   6.719   7.385  0.1562  0.3703  0.0905
 2909TIP3    H130362   3.387   6.806   7.381 -0.5598  0.1084  0.7301
 2909TIP3    H230363   3.415   6.684   7.297 -0.3140  0.6350  0.0335
 2910TIP3   OH230364   5.220   5.363   0.964 -0.0127 -0.5220  0.0652
 2910TIP3    H130365   5.153   5.429   0.949 -0.4902 -0.9251  0.3635
 2910TIP3    H230366   5.292   5.410   1.006 -0.1771 -0.1155 -0.1042
 2911TIP3   OH230367   4.282   2.330   0.555 -0.2709 -0.1887 -0.3982
 2911TIP3    H130368   4.371   2.316   0.522  0.6613 -0.1200  1.8891
 2911TIP3    H230369   4.266   2.424   0.541  0.0696 -0.1783 -0.7285
 2912TIP3   OH230370   5.852   0.302   0.697  0.3407 -0.1703  0.0964
 2912TIP3    H130371   5.911   0.321   0.624  0.2566  0.4140  0.1748
 2912TIP3    H230372   5.779   0.363   0.685 -0.0378 -0.6000  0.2397
 2913TIP3   OH230373   4.147   2.074   1.529  0.1503 -0.3999 -0.5868
 2913TIP3    H130374   4.117   2.115   1.610  0.1177  1.2582 -1.4109
 2913TIP3    H230375   4.078   2.012   1.506 -0.6454  0.3582 -0.2572
 2914TIP3   OH230376   5.776   6.526   1.251 -0.4130 -1.0134 -0.3135
 2914TIP3    H130377   5.755   6.594   1.315 -1.7395 -1.3214 -0.3800
 2914TIP3    H230378   5.740   6.559   1.168  0.5631 -0.9880 -0.7456
 2915TIP3   OH230379   2.026   4.847   8.374 -0.4633  0.2441  0.2785
 2915TIP3    H130380   2.045   4.766   8.422 -0.2295 -0.4596 -0.9377
 2915TIP3    H230381   1.936   4.835   8.343 -0.5565  0.6181  0.4079
 2916TIP3   OH230382   5.088   3.346   6.441 -0.1766 -0.4363  0.4552
 2916TIP3    H130383   5.021   3.391   6.493 -0.2485  0.2536 -0.2280
 2916TIP3    H230384   5.115   3.272   6.496 -1.2261 -0.5059  0.8997
 2917TIP3   OH230385   6.086   0.744   7.155  0.0153 -0.2913 -0.1550
 2917TIP3    H130386   6.099   0.682   7.083 -2.1580 -2.1964  0.9608
 2917TIP3    H230387   6.160   0.804   7.149  1.4460 -2.1235 -2.2094
 2918TIP3   OH230388   1.523   5.052   8.654  0.4099 -0.2699  0.2695
 2918TIP3    H130389   1.480   5.085   8.575 -0.9790  0.8535  1.4325
 2918TIP3    H230390   1.617   5.055   8.634  0.0990  0.3134 -1.2010
 2919TIP3   OH230391   0.573   4.427   1.340  0.1996 -0.2938  0.0658
 2919TIP3    H130392   0.633   4.353   1.342 -0.1463 -0.6464 -1.4663
 2919TIP3    H230393   0.525   4.417   1.258  0.9323  2.2339 -0.7666
 2920TIP3   OH230394   4.352   3.114   7.147 -0.3914  0.3806  0.0983
 2920TIP3    H130395   4.296   3.174   7.197 -0.0809  0.5786  0.2107
 2920TIP3    H230396   4.312   3.028   7.160 -1.5399  0.7079 -1.0412
 2921TIP3   OH230397   0.883   4.221   7.535 -0.1515  0.4451 -0.4713
 2921TIP3    H130398   0.948   4.286   7.562 -0.9460  0.6663  0.9816
 2921TIP3    H230399   0.929   4.168   7.469  1.4252  0.7193  0.3521
 2922TIP3   OH230400   1.279   5.557   8.137 -0.1802  0.3016  0.8331
 2922TIP3    H130401   1.363   5.602   8.127  0.1505 -0.3532  0.5883
 2922TIP3    H230402   1.255   5.529   8.049  0.6160 -1.7275  1.2010
 2923TIP3   OH230403   5.330   2.930   1.687 -0.1233  0.1137  0.4454
 2923TIP3    H130404   5.235   2.937   1.678 -0.4814 -1.5177  2.2597
 2923TIP3    H230405   5.364   2.953   1.600 -2.3311 -2.0347 -1.1294
 2924TIP3   OH230406   0.814   5.946   0.924 -0.0510  0.6333  0.3260
 2924TIP3    H130407   0.818   5.856   0.892  1.3056  0.1697  1.6837
 2924TIP3    H230408   0.900   5.962   0.963 -0.6237  2.1549  1.0603
 2925TIP3   OH230409   1.282   2.992   1.280  0.5009  0.3228  0.1462
 2925TIP3    H130410   1.276   3.084   1.309  0.7610  0.6398 -0.7726
 2925TIP3    H230411   1.209   2.949   1.324 -1.0623  1.4739 -1.1803
 2926TIP3   OH230412   1.204   1.493   7.540 -0.3897  0.1459 -0.2316
 2926TIP3    H130413   1.230   1.510   7.631 -0.6657 -1.6779  0.2287
 2926TIP3    H230414   1.166   1.575   7.511 -0.3943  0.7463  1.3403
 2927TIP3   OH230415   1.082   0.160   7.847  0.1878  0.5448  0.4607
 2927TIP3    H130416   1.124   0.245   7.832  2.2253 -0.7160 -1.6881
 2927TIP3    H230417   0.992   0.172   7.816  0.9760  1.4594 -1.6888
 2928TIP3   OH230418   2.834   2.114   1.139 -0.2477 -0.2529  0.2904
 2928TIP3    H130419   2.894   2.187   1.147 -1.3420  0.8363 -0.9971
 2928TIP3    H230420   2.890   2.036   1.144  0.7419  0.5014  3.8086
 2929TIP3   OH230421   1.449   2.396   1.256  0.4772 -0.1590 -0.3558
 2929TIP3    H130422   1.441   2.434   1.168  0.7071 -1.0481 -0.7747
 2929TIP3    H230423   1.544   2.385   1.268  0.3808 -1.4309 -0.6239
 2930TIP3   OH230424   5.635   1.367   8.813  0.6243 -0.2014 -0.7534
 2930TIP3    H130425   5.674   1.280   8.821 -2.1570 -1.6918 -2.0947
 2930TIP3    H230426   5.610   1.390   8.903  1.0089 -0.9709 -0.4388
 2931TIP3   OH230427   3.945   6.213   1.824  0.2422 -0.4261 -0.3484
 2931TIP3    H130428   3.905   6.150   1.764 -2.0555 -1.5770  2.1971
 2931TIP3    H230429   3.982   6.159   1.894  4.7933  0.7223 -1.5246
 2932TIP3   OH230430   0.932   1.558   1.793 -0.3582  0.3006 -0.0084
 2932TIP3    H130431   1.025   1.580   1.787 -0.2064 -0.5144 -0.8605
 2932TIP3    H230432   0.898   1.572   1.705 -1.2735  1.5175  0.5100
 2933TIP3   OH230433   3.439   1.918   8.197  0.0618 -0.2868 -0.1970
 2933TIP3    H130434   3.483   1.862   8.133 -0.1262 -0.2373 -0.3724
 2933TIP3    H230435   3.506   1.980   8.225 -0.2356  0.6694 -1.4853
 2934TIP3   OH230436   4.592   4.974   2.070 -0.4673 -0.0130 -0.2137
 2934TIP3    H130437   4.674   5.017   2.094 -0.8986  0.2262  0.8610
 2934TIP3    H230438   4.524   5.034   2.098 -1.0544 -0.9198  0.3507
 2935TIP3   OH230439   0.389   5.778   8.929  0.7472  0.2644  0.1870
 2935TIP3    H130440   0.396   5.693   8.885 -0.4435  0.0582  0.3520
 2935TIP3    H230441   0.382   5.757   9.022  0.5384  0.5469  0.2363
 2936TIP3   OH230442   2.552   5.892   1.272 -0.8650  0.1299  0.2493
 2936TIP3    H130443   2.630   5.864   1.225  0.6380  3.2615  0.5843
 2936TIP3    H230444   2.572   5.876   1.364 -0.5036  1.0868  0.3480
 2937TIP3   OH230445   5.894   2.004   2.588 -0.2285  0.2226  0.8723
 2937TIP3    H130446   5.850   2.047   2.514 -0.7318 -0.8188  0.5559
 2937TIP3    H230447   5.833   2.016   2.661 -1.2408 -1.5028  0.3592
 2938TIP3   OH230448   2.975   1.637   8.829 -0.3104  0.3982 -0.3682
 2938TIP3    H130449   3.031   1.608   8.758 -2.2483  1.1418 -2.3031
 2938TIP3    H230450   3.036   1.671   8.895  1.5768 -0.8142 -1.3867
 2939TIP3   OH230451   2.452   1.976   7.867 -0.5341  0.6347  0.6622
 2939TIP3    H130452   2.408   2.042   7.920 -0.8169  0.4490  0.6595
 2939TIP3    H230453   2.487   1.913   7.930 -1.9244 -0.2567  0.6067
 2940TIP3   OH230454   4.550   1.886   8.184 -0.3814  0.4915  0.9225
 2940TIP3    H130455   4.640   1.865   8.213 -0.7752 -0.8521  1.2759
 2940TIP3    H230456   4.502   1.804   8.197 -1.4752  0.9647 -0.0416
 2941TIP3   OH230457   1.527   1.141   8.608 -0.3264 -0.6051 -0.1715
 2941TIP3    H130458   1.525   1.180   8.695 -1.4595 -0.8718 -0.0704
 2941TIP3    H230459   1.538   1.047   8.623  0.3052 -0.5650 -0.3500
 2942TIP3   OH230460   2.658   6.516   8.902  0.0309  0.2387 -0.0932
 2942TIP3    H130461   2.657   6.599   8.855 -3.0378  0.1852 -0.2849
 2942TIP3    H230462   2.698   6.454   8.841  0.1578  1.0741 -0.8776
 2943TIP3   OH230463   4.733   4.779   2.282  0.7670 -0.3219  0.0459
 2943TIP3    H130464   4.641   4.805   2.276  0.3141 -1.7320  0.4805
 2943TIP3    H230465   4.732   4.685   2.266  2.2464 -0.2267 -0.7207
 2944TIP3   OH230466   4.999   5.966   7.936  0.2672  0.4977 -0.5175
 2944TIP3    H130467   4.965   5.992   7.850 -0.0797 -1.1956 -0.9311
 2944TIP3    H230468   5.034   5.878   7.922  0.1905  0.1895  1.0859
 2945TIP3   OH230469   6.470   2.338   8.936 -0.1139 -0.0173  0.0397
 2945TIP3    H130470   6.427   2.309   8.856 -0.9382  1.9185 -0.2731
 2945TIP3    H230471   6.431   2.285   9.005 -0.5621 -0.5984 -0.6516
 2946TIP3   OH230472   2.343   0.546   0.031  0.1029 -0.2396  0.5419
 2946TIP3    H130473   2.429   0.557   0.073  0.4642  0.7614 -0.4093
 2946TIP3    H230474   2.325   0.631  -0.009 -1.3899 -0.4065  0.8025
 2947TIP3   OH230475   5.461   5.402   2.324  0.2466  0.6683 -0.0404
 2947TIP3    H130476   5.486   5.470   2.387  2.5646  1.4513 -1.6423
 2947TIP3    H230477   5.407   5.448   2.260 -1.4104  0.0622  0.8759
 2948TIP3   OH230478   6.651   4.320   0.533  0.0588  0.3992 -0.1442
 2948TIP3    H130479   6.633   4.333   0.626  2.2975 -0.2109  0.4418
 2948TIP3    H230480   6.682   4.229   0.528  0.7873  0.7010 -1.3427
 2949TIP3   OH230481   3.447   3.341   0.087 -0.3968 -0.2575 -0.1048
 2949TIP3    H130482   3.406   3.409   0.141 -0.2745 -0.4195  0.1990
 2949TIP3    H230483   3.400   3.344   0.004  0.0955  0.6938 -0.3529
 2950TIP3   OH230484   0.000   2.545   1.899  0.2115  0.7069  0.0986
 2950TIP3    H130485   0.093   2.550   1.876  0.3530  0.0148  0.4924
 2950TIP3    H230486  -0.029   2.462   1.862 -0.6267  1.5794 -1.2949
 2951TIP3   OH230487   6.732   6.074   2.350 -0.1917 -0.3945  0.0422
 2951TIP3    H130488   6.818   6.100   2.384 -0.3260  0.4270 -0.2209
 2951TIP3    H230489   6.715   6.135   2.278 -0.1625 -1.7342 -1.1517
 2952TIP3   OH230490   6.728   2.672   2.152  0.0335 -0.2574 -0.3817
 2952TIP3    H130491   6.760   2.644   2.066 -1.2097  0.2782 -1.0350
 2952TIP3    H230492   6.728   2.767   2.148  0.7666 -0.2074  0.5305
 2953TIP3   OH230493   2.713   5.334   1.467 -0.0697  0.5225  0.2730
 2953TIP3    H130494   2.765   5.412   1.449 -0.3374  0.4522 -0.9286
 2953TIP3    H230495   2.743   5.304   1.552  0.5310  1.5407  0.4352
 2954TIP3   OH230496   5.140   1.942   8.141 -0.0368 -0.1886  0.0973
 2954TIP3    H130497   5.224   1.957   8.185 -0.7611 -0.8465  1.8011
 2954TIP3    H230498   5.163   1.911   8.054  1.4799  3.1321 -0.8125
 2955TIP3   OH230499   5.645   3.745   1.384 -0.1524  0.1455  0.1691
 2955TIP3    H130500   5.660   3.780   1.472 -1.4700  1.3286 -0.0528
 2955TIP3    H230501   5.613   3.819   1.333 -0.4571 -0.7776 -1.0282
 2956TIP3   OH230502   6.266   0.671   8.994 -0.3784  0.6309  0.1922
 2956TIP3    H130503   6.285   0.752   8.946  0.3699  0.4094  0.0966
 2956TIP3    H230504   6.284   0.694   9.085  0.1774  0.4846  0.1260
 2957TIP3   OH230505   1.622   5.948   8.686  0.2425  0.5001 -0.4668
 2957TIP3    H130506   1.528   5.954   8.669 -0.3231 -2.6649  0.7684
 2957TIP3    H230507   1.627   5.903   8.771  2.8845  0.9648 -0.3134
 2958TIP3   OH230508   6.435   0.380   1.621 -0.0422 -0.2222 -0.2209
 2958TIP3    H130509   6.423   0.340   1.707  0.3293  1.0080  0.4355
 2958TIP3    H230510   6.356   0.433   1.609  0.6306  0.8824  0.1070
 2959TIP3   OH230511   4.001   1.269   8.777 -0.1000  0.1374 -0.1461
 2959TIP3    H130512   3.967   1.352   8.745 -1.3705  0.3584  1.5842
 2959TIP3    H230513   4.073   1.293   8.834 -0.2568  0.0431  0.0964
 2960TIP3   OH230514   3.125   3.352   1.013 -0.9085 -0.1486  0.5827
 2960TIP3    H130515   3.196   3.339   0.950  0.1641 -0.1113  1.7560
 2960TIP3    H230516   3.051   3.381   0.959 -0.4366 -1.4194 -0.8226
 2961TIP3   OH230517   6.679   0.135   0.153 -0.1531  0.1384 -0.0268
 2961TIP3    H130518   6.643   0.081   0.082  2.5067  0.1761 -1.5419
 2961TIP3    H230519   6.706   0.216   0.110  0.9167  0.4257  1.1236
 2962TIP3   OH230520   3.772   4.227   0.394 -0.1807  0.2829 -0.9550
 2962TIP3    H130521   3.733   4.303   0.350 -0.4575  0.3003 -0.6814
 2962TIP3    H230522   3.818   4.180   0.324  0.0323  0.7270 -1.1174
 2963TIP3   OH230523   2.157   0.639   1.548 -0.1681 -0.5213  0.2802
 2963TIP3    H130524   2.240   0.672   1.513 -0.8209 -0.0385 -0.8678
 2963TIP3    H230525   2.179   0.610   1.636  0.5083  2.9222  1.4153
 2964TIP3   OH230526   3.599   4.356   8.915  0.3196  0.5609  0.0062
 2964TIP3    H130527   3.510   4.336   8.885  0.6315 -0.9463 -0.0046
 2964TIP3    H230528   3.599   4.451   8.929 -1.8143  0.3983  1.6691
 2965TIP3   OH230529   5.087   2.776   2.765  0.2972 -0.5633 -0.1782
 2965TIP3    H130530   5.055   2.863   2.740  0.9340 -0.8483 -2.1115
 2965TIP3    H230531   5.175   2.791   2.798  1.1772 -0.6192 -2.3285
 2966TIP3   OH230532   5.500   6.330   7.086 -0.0716 -0.1923 -0.4353
 2966TIP3    H130533   5.595   6.332   7.078 -0.1599  1.7675 -1.7117
 2966TIP3    H230534   5.483   6.267   7.156  2.3175  1.6205  1.9818
 2967TIP3   OH230535   3.516   1.540   2.378 -0.1063 -0.3570 -0.0501
 2967TIP3    H130536   3.548   1.620   2.421 -0.9298  0.0457 -0.1616
 2967TIP3    H230537   3.428   1.563   2.349  0.1931 -0.8477 -1.3746
 2968TIP3   OH230538   1.382   0.305   0.834  0.1944  0.4115 -0.3485
 2968TIP3    H130539   1.338   0.342   0.757  1.3429  0.4934 -0.9933
 2968TIP3    H230540   1.384   0.211   0.817 -0.7234  0.2870  0.2157
 2969TIP3   OH230541   4.040   0.516   2.042 -0.8996 -0.2997 -0.1351
 2969TIP3    H130542   3.980   0.460   2.091 -0.7548 -0.8783 -0.6204
 2969TIP3    H230543   4.044   0.478   1.955 -0.6310  0.3403 -0.4118
 2970TIP3   OH230544   5.000   0.421   1.772  0.2372  0.1389 -0.4662
 2970TIP3    H130545   5.039   0.353   1.827 -0.6380 -1.9142 -2.2449
 2970TIP3    H230546   4.907   0.422   1.796  0.4494  1.5866  0.3780
 2971TIP3   OH230547   6.759   4.332   7.743  0.3099 -0.2326  0.1449
 2971TIP3    H130548   6.809   4.269   7.795 -1.7517 -1.7687  0.3985
 2971TIP3    H230549   6.747   4.407   7.801  0.0333 -0.9661  1.0644
 2972TIP3   OH230550   6.502   1.087   7.479  0.3314 -0.0000  0.2353
 2972TIP3    H130551   6.442   1.118   7.547 -0.9364  0.4638 -1.0347
 2972TIP3    H230552   6.499   1.155   7.412  2.2525 -0.0164  0.0891
 2973TIP3   OH230553   5.154   6.380   7.018 -0.1097  0.0425  0.1994
 2973TIP3    H130554   5.096   6.351   6.948  1.6600 -0.5843 -1.0901
 2973TIP3    H230555   5.242   6.373   6.981  1.1107 -2.1688  3.0718
 2974TIP3   OH230556   0.968   3.141   8.794 -0.3080 -0.0992 -0.3047
 2974TIP3    H130557   0.959   3.221   8.846  2.4080  1.3691 -1.8705
 2974TIP3    H230558   0.916   3.157   8.716  0.9047  0.5784 -1.0083
 2975TIP3   OH230559   4.602   3.459   1.005 -0.0344  0.4204 -0.3301
 2975TIP3    H130560   4.570   3.392   1.065  0.4866 -1.7071 -2.2982
 2975TIP3    H230561   4.528   3.476   0.946  0.1020  1.0074 -0.3407
 2976TIP3   OH230562   1.186   1.091   7.947  0.3166 -0.0669 -0.4874
 2976TIP3    H130563   1.117   1.084   8.014  0.6036  0.9792 -0.0605
 2976TIP3    H230564   1.142   1.069   7.865 -0.4754  0.3234 -0.1825
 2977TIP3   OH230565   0.763   0.079   8.135  0.5261  0.2395 -0.0651
 2977TIP3    H130566   0.724   0.022   8.069  1.0535 -0.1835 -0.0195
 2977TIP3    H230567   0.854   0.051   8.140  0.3686 -0.1122  1.2325
 2978TIP3   OH230568   6.610   5.041   2.288 -0.1209 -0.2154  0.2981
 2978TIP3    H130569   6.539   5.015   2.347  0.0697  3.3606  2.3278
 2978TIP3    H230570   6.690   5.015   2.334  0.0049  1.8996  1.3591
 2979TIP3   OH230571   1.582   0.873   1.250  0.0858  0.5400  0.1523
 2979TIP3    H130572   1.522   0.944   1.228 -0.8364  0.8411  3.1383
 2979TIP3    H230573   1.526   0.806   1.290  1.6505  1.2310  3.9483
 2980TIP3   OH230574   2.869   2.533   1.846  0.1321  0.0228 -0.2685
 2980TIP3    H130575   2.899   2.573   1.765 -0.4554 -2.3027 -1.7058
 2980TIP3    H230576   2.824   2.453   1.820 -1.2504 -0.1617  2.2760
 2981TIP3   OH230577   2.137   5.223   0.378  0.4574 -0.1844 -0.5946
 2981TIP3    H130578   2.227   5.249   0.356  0.5406  0.4617  0.4070
 2981TIP3    H230579   2.109   5.168   0.305  1.4319  0.1487 -1.2464
 2982TIP3   OH230580   1.743   1.870   7.749 -0.5007  0.0587 -0.0374
 2982TIP3    H130581   1.793   1.923   7.687 -0.9985  0.1790 -0.3392
 2982TIP3    H230582   1.809   1.837   7.811  0.2303 -1.3543 -1.5069
 2983TIP3   OH230583   3.358   5.313   0.434 -0.0729 -0.0918 -0.0792
 2983TIP3    H130584   3.305   5.251   0.382  0.0811 -0.8282  0.6282
 2983TIP3    H230585   3.380   5.265   0.513  1.8467  0.1275 -0.4443
 2984TIP3   OH230586   1.106   3.722   1.919  0.3561 -0.2891 -0.0510
 2984TIP3    H130587   1.122   3.655   1.985  0.4005  1.2316  1.5367
 2984TIP3    H230588   1.194   3.749   1.891  0.4468  1.0566  1.3973
 2985TIP3   OH230589   0.418   0.792   8.195  0.0133 -0.1064 -0.0381
 2985TIP3    H130590   0.471   0.748   8.262 -0.0224  0.2479  0.2223
 2985TIP3    H230591   0.353   0.842   8.244  0.9059  1.3520 -0.2622
 2986TIP3   OH230592   4.022   2.131   7.458  0.0408 -0.2341 -0.1356
 2986TIP3    H130593   3.948   2.077   7.429  1.1052 -1.7694 -0.1257
 2986TIP3    H230594   3.987   2.182   7.531 -1.5709  0.6688 -1.4734
 2987TIP3   OH230595   5.392   5.842   7.474 -0.4965 -0.5209  0.2162
 2987TIP3    H130596   5.433   5.929   7.482 -2.3308  0.3721  0.3667
 2987TIP3    H230597   5.455   5.782   7.514  1.4331  0.5191 -1.0732
 2988TIP3   OH230598   4.350   3.709   0.978 -0.1957  0.5383 -0.0072
 2988TIP3    H130599   4.331   3.616   0.965 -1.6278  0.7311  0.4858
 2988TIP3    H230600   4.422   3.727   0.918 -1.6439 -0.2963 -2.1478
 2989TIP3   OH230601   3.967   0.240   1.580  0.2081 -0.1403  0.2270
 2989TIP3    H130602   3.945   0.156   1.540  1.1784 -2.1265  3.4859
 2989TIP3    H230603   4.001   0.293   1.507 -4.0531 -0.9795 -2.7446
 2990TIP3   OH230604   2.242   2.978   7.567  0.0873 -0.3511  0.1534
 2990TIP3    H130605   2.200   2.975   7.653 -0.6693 -0.4389 -0.2160
 2990TIP3    H230606   2.175   2.949   7.506  1.1479 -1.9751 -0.2859
 2991TIP3   OH230607   3.898   6.326   7.025 -0.4657 -1.1264  0.0971
 2991TIP3    H130608   3.873   6.274   6.948 -0.7270 -1.3156  0.3081
 2991TIP3    H230609   3.892   6.417   6.995 -0.8490 -1.1897 -0.0255
 2992TIP3   OH230610   0.764   1.787   0.427  0.5024 -0.2996  0.2115
 2992TIP3    H130611   0.724   1.705   0.457  0.4146 -0.5412 -0.5464
 2992TIP3    H230612   0.693   1.835   0.386  0.8337 -0.4534 -0.5761
 2993TIP3   OH230613   3.005   3.421   9.032  0.1335 -0.3772 -0.0588
 2993TIP3    H130614   3.002   3.373   9.115  0.7722 -0.1163  0.1219
 2993TIP3    H230615   2.963   3.362   8.969 -0.7544 -0.4003  0.5287
 2994TIP3   OH230616   4.745   5.405   8.208 -0.4823  0.3479  0.1113
 2994TIP3    H130617   4.679   5.409   8.139  1.6649  0.8007 -2.0786
 2994TIP3    H230618   4.780   5.316   8.202 -0.4116  0.3277  0.7675
 2995TIP3   OH230619   0.167   5.991   0.140  0.0789  0.2146 -0.1857
 2995TIP3    H130620   0.247   6.012   0.092  0.4313  1.3871  0.8589
 2995TIP3    H230621   0.100   5.983   0.073  1.5098 -3.4527 -1.3721
 2996TIP3   OH230622   1.232   2.105   7.701 -0.0557 -0.6233 -0.0857
 2996TIP3    H130623   1.320   2.111   7.664  0.1106  2.3015  0.5358
 2996TIP3    H230624   1.180   2.165   7.648 -0.9818 -0.1367  1.3141
 2997TIP3   OH230625   5.386   4.934   8.187  0.6294 -0.2417  0.0406
 2997TIP3    H130626   5.329   4.903   8.117 -0.6160  3.3376 -0.7502
 2997TIP3    H230627   5.326   4.969   8.253  1.8808 -0.2848  1.2582
 2998TIP3   OH230628   5.205   0.582   1.877 -0.0487 -0.7246  0.1588
 2998TIP3    H130629   5.188   0.550   1.789 -1.0529 -0.4435  0.2400
 2998TIP3    H230630   5.170   0.515   1.935 -1.7669  0.2595  0.3291
 2999TIP3   OH230631   0.641   6.363   2.411  0.0368 -0.2647 -0.1328
 2999TIP3    H130632   0.593   6.286   2.381  1.8556 -1.2858 -0.6177
 2999TIP3    H230633   0.603   6.383   2.497 -1.8583 -0.4003 -0.9081
 3000TIP3   OH230634   0.919   1.958   1.763  0.7306  0.3429  0.3712
 3000TIP3    H130635   0.995   2.012   1.739  1.0186  0.0957  0.7282
 3000TIP3    H230636   0.954   1.869   1.771 -0.1746 -0.4089 -2.6771
 3001TIP3   OH230637   2.183   3.333   7.722  0.1628  0.0142  0.2633
 3001TIP3    H130638   2.118   3.274   7.684 -1.0722  1.9374 -0.8419
 3001TIP3    H230639   2.179   3.317   7.816 -0.8604 -0.9371  0.0706
 3002TIP3   OH230640   1.396   0.923   7.924 -0.2885  0.2400 -0.3269
 3002TIP3    H130641   1.332   0.994   7.927 -0.4590  0.1016 -0.5561
 3002TIP3    H230642   1.377   0.871   8.002 -2.1708 -1.2330 -1.6599
 3003TIP3   OH230643   4.516   1.003   0.712  0.6871  0.8473 -0.4552
 3003TIP3    H130644   4.522   0.927   0.653  1.2247  0.5638 -0.0425
 3003TIP3    H230645   4.464   0.972   0.786 -0.0600  1.2297 -0.8117
 3004TIP3   OH230646   5.466   0.514   0.464  0.5494 -0.6053 -0.2296
 3004TIP3    H130647   5.417   0.497   0.544  1.3678 -0.2189  0.3694
 3004TIP3    H230648   5.405   0.561   0.407  0.2705 -0.0170  0.5456
 3005TIP3   OH230649   4.367   4.044   7.930 -0.1768 -0.6840 -0.7150
 3005TIP3    H130650   4.443   4.000   7.894  0.1812  0.2390 -1.1171
 3005TIP3    H230651   4.324   4.085   7.855 -1.9161 -2.3777 -0.7345
 3006TIP3   OH230652   5.778   6.619   7.682  0.3300 -0.4021  0.2176
 3006TIP3    H130653   5.858   6.589   7.639  0.0787  0.3255 -0.7915
 3006TIP3    H230654   5.751   6.696   7.631 -0.8233 -0.4431  0.7472
 3007TIP3   OH230655   3.763   0.303   6.954 -0.2369 -0.3961  0.4321
 3007TIP3    H130656   3.810   0.250   6.890 -0.7579  0.6478 -0.8617
 3007TIP3    H230657   3.831   0.355   6.998  0.0114 -0.2856 -0.0825
 3008TIP3   OH230658   0.974   4.057   2.308  0.3007 -0.3728 -0.1879
 3008TIP3    H130659   0.906   4.044   2.374 -0.4185 -0.3712 -0.9023
 3008TIP3    H230660   1.037   4.116   2.349 -1.4624  1.8148 -0.3994
 3009TIP3   OH230661   2.366   5.393   0.072  0.1257  0.4382  0.1088
 3009TIP3    H130662   2.378   5.310   0.119 -0.8350  0.2286  0.0033
 3009TIP3    H230663   2.455   5.428   0.062  0.6127 -0.8759 -0.3863
 3010TIP3   OH230664   3.016   3.881   2.092  0.0606 -0.2884 -0.1170
 3010TIP3    H130665   2.996   3.812   2.028 -0.1556  0.2013 -0.5866
 3010TIP3    H230666   3.087   3.845   2.144  0.6806 -0.4502 -1.0510
 3011TIP3   OH230667   2.306   3.826   8.885  0.3710  0.1227  0.1058
 3011TIP3    H130668   2.371   3.780   8.938  0.7216 -1.0637 -1.2868
 3011TIP3    H230669   2.239   3.759   8.868 -0.8089  1.0871  0.8036
 3012TIP3   OH230670   6.542   2.593   9.032  0.0610  0.3675  0.5333
 3012TIP3    H130671   6.527   2.498   9.026  1.8204  0.0633  0.3244
 3012TIP3    H230672   6.524   2.625   8.944 -1.1162  0.3403  0.7495
 3013TIP3   OH230673   4.513   5.496   1.679 -0.3711  0.3290 -0.0351
 3013TIP3    H130674   4.538   5.467   1.767 -0.1211 -1.8990 -0.7942
 3013TIP3    H230675   4.428   5.455   1.663 -0.7055  1.2106 -0.6330
 3014TIP3   OH230676   5.438   6.365   6.816 -0.7107 -0.5751 -0.0601
 3014TIP3    H130677   5.520   6.402   6.783 -1.2763  0.8648  0.0622
 3014TIP3    H230678   5.450   6.359   6.910 -0.3999 -1.2729 -0.1435
 3015TIP3   OH230679   6.042   1.870   8.110 -0.2860 -0.0978 -0.2567
 3015TIP3    H130680   6.025   1.852   8.203  0.8322 -0.7351 -0.1610
 3015TIP3    H230681   6.091   1.953   8.110 -0.8900  0.2653 -0.3356
 3016TIP3   OH230682   0.974   0.737   0.275  0.0524  0.1070 -0.2655
 3016TIP3    H130683   0.888   0.772   0.254 -1.3539 -3.3520 -0.8943
 3016TIP3    H230684   0.966   0.705   0.365  0.3437 -1.1027 -0.6527
 3017TIP3   OH230685   5.558   0.521   7.133 -0.3600 -0.1181  0.0521
 3017TIP3    H130686   5.579   0.614   7.129  1.7554 -0.4170  2.2876
 3017TIP3    H230687   5.606   0.482   7.060  1.8443  0.1069  1.3037
 3018TIP3   OH230688   0.874   5.832   0.478 -0.0039  0.6202  0.2054
 3018TIP3    H130689   0.859   5.923   0.450 -1.9225  0.3648  0.2520
 3018TIP3    H230690   0.789   5.790   0.467  1.2108 -1.6275 -1.4131
 3019TIP3   OH230691   4.631   5.003   2.488  0.4248  0.4534 -0.2161
 3019TIP3    H130692   4.640   5.048   2.572  0.8829  1.1738 -0.6431
 3019TIP3    H230693   4.681   4.922   2.499 -1.8005 -0.8577  1.1387
 3020TIP3   OH230694   2.298   6.157   0.423 -0.1224  0.3426  0.6204
 3020TIP3    H130695   2.313   6.228   0.361  0.8701 -0.2069  0.2237
 3020TIP3    H230696   2.296   6.078   0.370  0.9790 -0.1564  1.3042
 3021TIP3   OH230697   2.710   0.299   2.304  0.2613 -0.4113  0.0695
 3021TIP3    H130698   2.736   0.221   2.353 -2.6514 -0.9130  1.0602
 3021TIP3    H230699   2.660   0.351   2.368  0.4295  1.3021 -1.1218
 3022TIP3   OH230700   4.405   0.648   0.298  0.8494 -0.0327  0.1321
 3022TIP3    H130701   4.446   0.567   0.268 -0.4587 -0.4531 -0.5634
 3022TIP3    H230702   4.313   0.627   0.307  0.1190  1.8809 -1.9943
 3023TIP3   OH230703   2.583   2.930   7.754  0.2445  0.3218 -0.4193
 3023TIP3    H130704   2.601   2.888   7.670 -0.6458  0.2490 -0.5753
 3023TIP3    H230705   2.530   3.007   7.732  1.4100  1.2571 -0.0853
 3024TIP3   OH230706   4.449   5.661   7.660 -0.1422  0.1028 -0.0083
 3024TIP3    H130707   4.396   5.583   7.677  1.3231 -0.2775  3.9230
 3024TIP3    H230708   4.403   5.731   7.706 -0.0622  1.0070 -1.2790
 3025TIP3   OH230709   1.717   2.392   6.884  0.3485  0.1681  0.1614
 3025TIP3    H130710   1.724   2.423   6.794  0.5156 -0.4742 -0.0539
 3025TIP3    H230711   1.758   2.305   6.883 -0.4137 -0.2046  0.6712
 3026TIP3   OH230712   2.606   0.878   0.999 -0.1628  0.5625 -0.0240
 3026TIP3    H130713   2.632   0.914   1.084 -1.5831 -1.9037  1.5888
 3026TIP3    H230714   2.562   0.950   0.954  1.1738  2.1085  1.0034
 3027TIP3   OH230715   5.537   1.043   6.466 -0.2782  0.5648 -0.1491
 3027TIP3    H130716   5.542   1.132   6.501  1.3004  0.4708 -0.0658
 3027TIP3    H230717   5.524   0.988   6.544  2.1355  0.4548  0.2500
 3028TIP3   OH230718   6.324   6.044   1.631  0.5352 -0.1828 -0.1129
 3028TIP3    H130719   6.392   5.978   1.645  0.8003  0.0008 -0.5050
 3028TIP3    H230720   6.308   6.082   1.718 -2.2808 -3.2662  0.9248
 3029TIP3   OH230721   1.293   3.063   8.282 -0.3158 -0.7760  0.0189
 3029TIP3    H130722   1.309   3.037   8.373  0.2827  0.8085  0.4064
 3029TIP3    H230723   1.351   3.006   8.231 -0.1779 -1.2493  0.6831
 3030TIP3   OH230724   0.952   1.398   7.294  0.3548  0.2678 -0.3433
 3030TIP3    H130725   0.988   1.439   7.372 -1.6373 -1.0616  1.4053
 3030TIP3    H230726   0.870   1.444   7.278 -0.1133 -0.6098 -0.5507
 3031TIP3   OH230727   2.529   6.308   8.351  0.6005  0.3315 -0.5962
 3031TIP3    H130728   2.514   6.218   8.320 -1.2782  0.1988  0.5235
 3031TIP3    H230729   2.614   6.304   8.396  0.2079 -1.1067  0.0958
 3032TIP3   OH230730   2.349   2.555   8.969 -0.4676 -0.1126 -0.1173
 3032TIP3    H130731   2.261   2.578   8.997 -1.2907 -0.4715 -2.2225
 3032TIP3    H230732   2.396   2.536   9.050 -1.2568  3.5039  1.3922
 3033TIP3   OH230733   2.875   1.368   1.287  0.3696  0.1046 -0.0560
 3033TIP3    H130734   2.811   1.431   1.321  0.7923  0.9777 -0.8236
 3033TIP3    H230735   2.842   1.283   1.315  0.4452  0.7288  2.1009
 3034TIP3   OH230736   6.361   1.950   0.134 -0.0995 -0.3217 -0.6636
 3034TIP3    H130737   6.406   1.895   0.198 -0.4766 -0.2083 -0.2974
 3034TIP3    H230738   6.410   1.936   0.052  0.9944  0.2761 -0.1442
 3035TIP3   OH230739   1.594   4.750   0.350  0.5265  0.1130 -0.4809
 3035TIP3    H130740   1.640   4.718   0.427  1.2160 -1.2119 -1.3948
 3035TIP3    H230741   1.570   4.840   0.371 -0.2653 -0.5443  1.6910
 3036TIP3   OH230742   3.267   3.023   0.553 -0.4116 -0.3731  0.1207
 3036TIP3    H130743   3.224   3.047   0.635 -0.3452 -1.2831  0.4330
 3036TIP3    H230744   3.207   2.960   0.513 -0.9776  0.8537 -1.0721
 3037TIP3   OH230745   1.279   0.277   9.015 -0.0052  0.3695 -0.4881
 3037TIP3    H130746   1.279   0.355   9.071  1.1456 -0.8902  1.3690
 3037TIP3    H230747   1.364   0.279   8.971  1.4815 -1.4607  2.0830
 3038TIP3   OH230748   5.389   0.329   1.742 -0.0054  0.6498 -0.9268
 3038TIP3    H130749   5.314   0.358   1.793 -0.7932  1.2764 -2.4147
 3038TIP3    H230750   5.369   0.239   1.718  0.3701  0.3507 -0.1760
 3039TIP3   OH230751   4.137   1.063   1.958 -0.2149  0.2109 -0.2188
 3039TIP3    H130752   4.069   1.112   1.913  0.2399  1.8708  0.8215
 3039TIP3    H230753   4.108   1.060   2.049  1.1124  1.0569  0.2740
 3040TIP3   OH230754   0.551   0.367   8.433 -0.5455 -0.5824 -0.6790
 3040TIP3    H130755   0.543   0.284   8.386  3.7401 -1.5596 -0.0624
 3040TIP3    H230756   0.509   0.351   8.518 -0.4657 -1.8459 -0.8668
 3041TIP3   OH230757   0.327   3.037   2.490 -0.3305  0.0061 -0.4380
 3041TIP3    H130758   0.315   2.990   2.408 -2.8434 -1.0266  0.4504
 3041TIP3    H230759   0.347   2.969   2.554 -0.5599  0.5458  0.2178
 3042TIP3   OH230760   1.286   2.658   2.838  0.2886 -0.6436  0.1051
 3042TIP3    H130761   1.251   2.712   2.909  1.0481  1.3246 -0.9302
 3042TIP3    H230762   1.215   2.598   2.816 -1.5167  1.4368 -0.1610
 3043TIP3   OH230763   6.003   0.919   1.070 -0.1032  0.0505  0.4254
 3043TIP3    H130764   6.094   0.933   1.045 -0.3314  0.5698 -0.1392
 3043TIP3    H230765   5.952   0.962   1.001 -0.7539  1.0416  1.4875
 3044TIP3   OH230766   3.090   2.477   0.868 -0.1961  0.0992  0.0820
 3044TIP3    H130767   3.090   2.485   0.773  1.9374 -0.2674 -0.0074
 3044TIP3    H230768   3.119   2.387   0.885  0.3695  0.4483  1.0681
 3045TIP3   OH230769   1.527   0.504   8.276 -0.2844  0.2604 -0.5599
 3045TIP3    H130770   1.605   0.484   8.327  0.7560  1.0763 -1.7851
 3045TIP3    H230771   1.454   0.489   8.337  0.8125 -0.4144  0.6280
 3046TIP3   OH230772   3.093   1.543   2.617  0.3740  0.2497  0.1642
 3046TIP3    H130773   3.139   1.467   2.580  2.5287  1.0322  1.1196
 3046TIP3    H230774   3.138   1.619   2.579  0.2047  1.0490  1.5248
 3047TIP3   OH230775   3.708   1.422   7.358 -0.0466  0.1371  0.8462
 3047TIP3    H130776   3.744   1.483   7.293 -0.4070 -0.3200  0.2140
 3047TIP3    H230777   3.737   1.458   7.442  0.4916  0.6938  0.4368
 3048TIP3   OH230778   5.267   3.122   2.012  0.3184 -0.5002  0.1833
 3048TIP3    H130779   5.220   3.187   2.064 -0.7478 -1.9721  1.1166
 3048TIP3    H230780   5.205   3.051   1.998  1.2563 -1.0902 -1.3394
 3049TIP3   OH230781   0.110   3.325   0.094  0.3695 -0.1236  0.3997
 3049TIP3    H130782   0.110   3.275   0.012  1.5522 -0.8088  0.7877
 3049TIP3    H230783   0.068   3.267   0.157  0.1084  0.1114  0.4417
 3050TIP3   OH230784   2.413   3.045   7.376  0.3438  0.8505  0.0721
 3050TIP3    H130785   2.471   2.971   7.397 -0.9494 -0.1359  0.2686
 3050TIP3    H230786   2.332   3.026   7.422 -0.1516  2.2176 -0.2012
 3051TIP3   OH230787   2.173   5.287   2.036 -0.7347 -0.4656  0.2937
 3051TIP3    H130788   2.235   5.326   1.975 -1.0359  0.6920  0.7062
 3051TIP3    H230789   2.121   5.227   1.982 -0.0824 -0.5129 -0.2940
 3052TIP3   OH230790   2.279   5.157   1.788  0.2375  0.4324  0.3274
 3052TIP3    H130791   2.373   5.178   1.790  0.1503  0.7764  1.7892
 3052TIP3    H230792   2.237   5.242   1.774  0.1754  0.0242 -2.5328
 3053TIP3   OH230793   4.165   3.200   8.249  0.2589 -0.2255  0.2741
 3053TIP3    H130794   4.085   3.148   8.241  0.4296 -0.8829  2.3068
 3053TIP3    H230795   4.211   3.187   8.165 -1.3366 -0.5075 -0.5910
 3054TIP3   OH230796   5.321   1.966   1.870  0.2875  0.2404 -0.1366
 3054TIP3    H130797   5.250   1.946   1.810 -1.3906  3.3754  0.5426
 3054TIP3    H230798   5.400   1.940   1.824 -1.1353 -1.1570 -1.9501
 3055TIP3   OH230799   2.922   3.392   7.330  0.2290 -0.1530 -0.2515
 3055TIP3    H130800   2.965   3.350   7.256  2.8566  0.9406  0.5547
 3055TIP3    H230801   2.964   3.353   7.407 -2.0330 -0.8437  0.7132
 3056TIP3   OH230802   0.390   5.061   0.013 -0.0473 -0.1450 -0.1113
 3056TIP3    H130803   0.377   4.981   0.064  1.3584  0.0354  0.5894
 3056TIP3    H230804   0.406   5.031  -0.076  2.1813 -0.8212  0.4464
 3057TIP3   OH230805   3.987   5.709   8.492 -0.5445 -0.7258  0.0210
 3057TIP3    H130806   3.986   5.678   8.582 -0.9199 -1.4056 -0.2099
 3057TIP3    H230807   4.080   5.709   8.467 -0.5737 -2.3239 -0.1836
 3058TIP3   OH230808   3.186   3.654   8.346  0.0607 -0.1821 -0.3511
 3058TIP3    H130809   3.201   3.716   8.274  0.3013  0.6649  0.4089
 3058TIP3    H230810   3.093   3.664   8.366  0.6320  2.0650  1.6229
 3059TIP3   OH230811   1.637   4.321   7.836 -0.3179  0.2609 -0.5482
 3059TIP3    H130812   1.662   4.341   7.746  1.0495 -0.8177 -0.4433
 3059TIP3    H230813   1.707   4.358   7.890  0.9634 -2.4097 -0.2128
 3060TIP3   OH230814   1.829   0.591   2.639  0.1235  0.7986  0.2484
 3060TIP3    H130815   1.890   0.544   2.694 -0.4188  2.8728  2.8146
 3060TIP3    H230816   1.757   0.530   2.625  1.2803 -0.5329 -0.0971
 3061TIP3   OH230817   0.333   1.253   1.859  0.1987  0.3778 -0.3210
 3061TIP3    H130818   0.375   1.233   1.775 -0.4790 -0.3644 -0.4912
 3061TIP3    H230819   0.319   1.167   1.900 -1.7245  0.5442 -0.5556
 3062TIP3   OH230820   2.471   5.062   7.706 -0.0790  0.0431 -0.8103
 3062TIP3    H130821   2.404   5.003   7.741  0.7870  0.2326  1.2968
 3062TIP3    H230822   2.539   5.003   7.673 -0.8527 -0.1391 -2.1369
 3063TIP3   OH230823   3.100   1.551   1.985  0.7633  0.4977  0.0179
 3063TIP3    H130824   3.083   1.623   2.045 -1.0637  1.3920 -1.4694
 3063TIP3    H230825   3.192   1.559   1.962  0.7178  2.0195  0.3008
 3064TIP3   OH230826   6.616   4.237   8.261  0.1867  0.0607 -0.3130
 3064TIP3    H130827   6.533   4.271   8.230  0.4431 -1.1929 -2.6300
 3064TIP3    H230828   6.602   4.142   8.267  0.9618  0.0071  0.9477
 3065TIP3   OH230829   3.167   2.842   1.912 -0.0296  0.4183  0.1989
 3065TIP3    H130830   3.156   2.790   1.992 -0.3837  0.1306 -0.0349
 3065TIP3    H230831   3.163   2.933   1.942 -0.4560  0.3126  0.4762
 3066TIP3   OH230832   4.470   2.331   1.477  0.5115  0.1855 -0.0579
 3066TIP3    H130833   4.378   2.341   1.453  0.0538 -1.5885  0.8101
 3066TIP3    H230834   4.475   2.365   1.567  0.9929  1.4014 -0.5190
 3067TIP3   OH230835   2.426   5.024   0.976 -0.5506 -0.2521  0.0587
 3067TIP3    H130836   2.513   4.991   0.995 -0.0075  2.5227  3.5034
 3067TIP3    H230837   2.437   5.080   0.899  0.6978 -0.1119  0.3205
 3068TIP3   OH230838   2.508   4.625   1.331  0.0833 -0.7135  0.1546
 3068TIP3    H130839   2.423   4.653   1.364  1.1546  1.4960  1.2498
 3068TIP3    H230840   2.521   4.678   1.252  2.1201  2.2144  2.2287
 3069TIP3   OH230841   1.875   5.258   7.928  0.1474  0.4194 -0.2798
 3069TIP3    H130842   1.967   5.269   7.951  0.1648  0.2543 -0.2646
 3069TIP3    H230843   1.876   5.244   7.833  0.1959 -0.1734 -0.1995
 3070TIP3   OH230844   4.341   3.747   0.011  0.0102 -0.3259 -0.1643
 3070TIP3    H130845   4.429   3.776   0.033  0.0209 -0.3989 -0.1108
 3070TIP3    H230846   4.283   3.806   0.060  0.0195  0.0933 -0.6512
 3071TIP3   OH230847   6.633   0.482   0.098  0.7199  0.0558 -0.0640
 3071TIP3    H130848   6.573   0.421   0.055  0.1859 -0.3525  1.2184
 3071TIP3    H230849   6.580   0.525   0.165  1.6039  0.4209  0.4197
 3072TIP3   OH230850   4.797   1.403   1.429 -0.3217  0.4896 -0.2497
 3072TIP3    H130851   4.845   1.478   1.462 -0.8086  0.9528 -0.5774
 3072TIP3    H230852   4.839   1.381   1.346 -1.6978  1.9521 -1.3801
 3073TIP3   OH230853   4.869   1.560   8.240  0.1558  0.6980  0.0414
 3073TIP3    H130854   4.913   1.552   8.325 -0.8694 -0.5021  0.4780
 3073TIP3    H230855   4.874   1.473   8.202 -0.6067  0.8934 -0.5265
 3074TIP3   OH230856   2.792   0.409   8.855  0.3891 -0.1594 -0.4938
 3074TIP3    H130857   2.778   0.429   8.762 -3.5000 -2.7388 -0.7028
 3074TIP3    H230858   2.846   0.329   8.853 -0.1866 -0.5503 -0.5833
 3075TIP3   OH230859   2.427   3.493   0.188 -0.1363  0.6707  0.0517
 3075TIP3    H130860   2.521   3.478   0.180 -0.3547 -1.5590  0.9142
 3075TIP3    H230861   2.389   3.446   0.114 -0.6415  0.2610  0.5572
 3076TIP3   OH230862   1.424   0.033   1.702 -0.4822 -0.1893 -0.0255
 3076TIP3    H130863   1.397  -0.019   1.626 -2.3073  2.0081 -0.9873
 3076TIP3    H230864   1.363   0.008   1.771 -0.5719 -0.2254 -0.1170
 3077TIP3   OH230865   5.407   2.782   8.031 -0.3252  0.0418 -0.3873
 3077TIP3    H130866   5.499   2.758   8.038  0.3471  2.4938  0.2241
 3077TIP3    H230867   5.396   2.809   7.940 -0.5720 -0.6695 -0.5735
 3078TIP3   OH230868   1.952   0.942   7.500  0.1319  0.3150 -0.4193
 3078TIP3    H130869   1.944   0.939   7.404 -1.1676  0.7097 -0.3346
 3078TIP3    H230870   1.980   0.854   7.524  0.6267  0.2573 -1.1710
 3079TIP3   OH230871   4.544   3.912   2.302 -0.0653  0.4455  0.2997
 3079TIP3    H130872   4.593   3.847   2.353 -0.0937  0.4811  0.3725
 3079TIP3    H230873   4.453   3.884   2.308  0.0144  0.0153 -0.3721
 3080TIP3   OH230874   3.449   1.482   7.301  0.1951  0.1307 -0.0082
 3080TIP3    H130875   3.452   1.541   7.225  2.0200  1.7875  1.2556
 3080TIP3    H230876   3.535   1.440   7.302  0.4836  0.7037  1.5591
 3081TIP3   OH230877   0.097   4.224   8.013 -0.1641 -0.1988  0.4703
 3081TIP3    H130878   0.125   4.174   8.090  1.1810  1.1972  0.9429
 3081TIP3    H230879   0.018   4.270   8.042 -1.4603 -2.0071  0.0070
 3082TIP3   OH230880   2.346   1.912   0.112  0.6110 -0.0209  0.3407
 3082TIP3    H130881   2.258   1.929   0.145 -0.4176 -2.0113 -1.1336
 3082TIP3    H230882   2.351   1.962   0.030  0.4022 -0.8179 -0.1647
 3083TIP3   OH230883   5.123   5.492   7.416 -0.0638  0.8587 -0.2312
 3083TIP3    H130884   5.184   5.420   7.431  0.9342  1.6982 -0.1626
 3083TIP3    H230885   5.166   5.548   7.352 -2.6633 -0.7506 -3.7391
 3084TIP3   OH230886   5.165   5.995   6.911  0.2308 -0.6513 -0.3353
 3084TIP3    H130887   5.157   6.046   6.830  2.7165 -0.4699 -0.5154
 3084TIP3    H230888   5.078   6.002   6.951 -0.2260  1.6891 -1.5328
 3085TIP3   OH230889   3.124   0.775   8.312 -0.0840  0.4613 -0.3403
 3085TIP3    H130890   3.092   0.864   8.324 -0.3180  0.4346 -0.7677
 3085TIP3    H230891   3.074   0.723   8.375 -0.2322  0.5637 -0.3737
 3086TIP3   OH230892   3.489   4.030   8.262  0.8025  0.1740 -0.2989
 3086TIP3    H130893   3.461   3.949   8.306 -0.6480  0.9490  0.2607
 3086TIP3    H230894   3.546   3.999   8.191 -1.2991 -1.5378 -1.3708
 3087TIP3   OH230895   3.612   2.081   7.644 -0.1452  0.2709 -0.0715
 3087TIP3    H130896   3.550   2.020   7.685 -1.2598  0.7856 -0.9214
 3087TIP3    H230897   3.571   2.167   7.654 -0.3199  0.4525 -1.9478
 3088TIP3   OH230898   4.939   3.269   8.855  0.0977  0.2034 -0.1179
 3088TIP3    H130899   4.882   3.346   8.853 -0.6915 -0.3735 -1.2242
 3088TIP3    H230900   4.963   3.255   8.763  0.8490 -0.4207  0.1632
 3089TIP3   OH230901   1.711   6.313   2.163 -0.1779  0.0417 -0.2252
 3089TIP3    H130902   1.664   6.344   2.085 -4.0519 -2.7860  0.7158
 3089TIP3    H230903   1.690   6.377   2.231 -1.1201 -0.1996 -0.2827
 3090TIP3   OH230904   2.686   5.093   2.606  0.0504  0.4629  0.4039
 3090TIP3    H130905   2.612   5.081   2.547  0.5073  1.1435 -0.3196
 3090TIP3    H230906   2.688   5.013   2.659 -0.9011  0.2317  0.1051
 3091TIP3   OH230907   1.206   4.995   7.261 -0.0033 -0.5048 -0.0141
 3091TIP3    H130908   1.194   4.933   7.189  0.2067 -0.2131 -0.3022
 3091TIP3    H230909   1.235   5.076   7.219  0.0521 -0.3106  0.3904
 3092TIP3   OH230910   0.858   2.371   8.013 -0.5674 -0.0483 -0.1141
 3092TIP3    H130911   0.822   2.458   7.996  1.4071  0.8662  0.0292
 3092TIP3    H230912   0.897   2.379   8.101  0.5013 -0.7421 -0.5062
 3093TIP3   OH230913   3.317   2.982   8.477  0.4073  0.5892 -0.0202
 3093TIP3    H130914   3.384   2.939   8.530 -0.9643 -2.4315 -0.5398
 3093TIP3    H230915   3.234   2.957   8.517 -0.5285  2.8652 -0.3755
 3094TIP3   OH230916   3.968   6.626   2.543 -0.0951 -0.1046 -0.2853
 3094TIP3    H130917   3.904   6.689   2.576  0.2586  1.1725 -1.8667
 3094TIP3    H230918   3.917   6.548   2.524 -0.6411 -0.1411  1.2415
 3095TIP3   OH230919   5.761   6.335   7.056  0.0463  0.0972 -0.1171
 3095TIP3    H130920   5.772   6.368   6.967 -1.6455  0.0793 -0.3721
 3095TIP3    H230921   5.822   6.386   7.109 -1.3804  2.5736 -0.7350
 3096TIP3   OH230922   5.213   1.105   1.916  0.6502  0.3642  0.0339
 3096TIP3    H130923   5.165   1.136   1.993 -0.4753  0.4639 -0.6776
 3096TIP3    H230924   5.299   1.146   1.922  0.3733  0.8269  0.9312
 3097TIP3   OH230925   5.271   2.991   0.319  0.2384 -0.8567  0.2286
 3097TIP3    H130926   5.363   2.989   0.293  0.7765 -1.1304  2.0054
 3097TIP3    H230927   5.241   3.079   0.294  1.2355 -0.4480  0.4230
 3098TIP3   OH230928   1.133   2.221   7.472 -0.0739  0.0443 -0.1430
 3098TIP3    H130929   1.163   2.207   7.382 -0.1815  1.4012 -0.4072
 3098TIP3    H230930   1.078   2.299   7.468 -1.8843 -1.1078  0.7353
 3099TIP3   OH230931   3.779   4.641   7.633  0.0478  0.0272  0.1816
 3099TIP3    H130932   3.806   4.558   7.673 -1.3151  0.0504  1.1819
 3099TIP3    H230933   3.826   4.708   7.682  0.7799 -0.1025 -0.3175
 3100TIP3   OH230934   1.962   6.155   6.674  0.3661  0.3648 -0.1689
 3100TIP3    H130935   1.947   6.238   6.628  1.7051  1.9301  2.0372
 3100TIP3    H230936   1.899   6.154   6.745 -1.3220 -1.7893 -1.5443
 3101TIP3   OH230937   3.387   3.136   1.759  0.5562  0.1382  0.1742
 3101TIP3    H130938   3.403   3.079   1.834  3.3066 -1.2766 -1.3577
 3101TIP3    H230939   3.328   3.086   1.703  0.3920  0.1872  0.3026
 3102TIP3   OH230940   1.487   6.251   1.201  0.5521 -0.2780  0.2221
 3102TIP3    H130941   1.576   6.219   1.187  0.3337 -0.6608 -0.3722
 3102TIP3    H230942   1.468   6.303   1.123  0.4986  0.3904  0.6707
 3103TIP3   OH230943   1.959   0.474   7.866  0.2550 -0.0100 -0.1447
 3103TIP3    H130944   1.882   0.424   7.893 -0.8106  1.3503 -0.5467
 3103TIP3    H230945   1.977   0.445   7.777  1.4624 -1.7527  0.5982
 3104TIP3   OH230946   4.936   6.292   8.276 -0.3067 -0.3049  0.6009
 3104TIP3    H130947   4.853   6.322   8.314 -1.5172 -0.4683 -1.7238
 3104TIP3    H230948   4.930   6.197   8.277  0.2101 -0.3358  1.1177
 3105TIP3   OH230949   1.749   3.328   1.190  0.3995 -0.5607  0.1065
 3105TIP3    H130950   1.786   3.300   1.107  1.0725  0.1312  0.1660
 3105TIP3    H230951   1.795   3.276   1.256 -1.7249 -2.8093 -0.0352
 3106TIP3   OH230952   0.143   4.657   8.963 -0.0931  0.2031  0.3534
 3106TIP3    H130953   0.145   4.706   8.881 -0.9027  1.4582  1.0630
 3106TIP3    H230954   0.212   4.591   8.952 -0.1855  0.3274 -1.3312
 3107TIP3   OH230955   5.766   6.008   7.632  0.5140 -0.5618  0.6849
 3107TIP3    H130956   5.722   5.931   7.595 -1.8749  1.4720 -1.1384
 3107TIP3    H230957   5.729   6.018   7.719 -0.4626 -0.5706  0.2855
 3108TIP3   OH230958   0.300   3.137   7.331  0.8143  0.2291 -0.7407
 3108TIP3    H130959   0.384   3.168   7.363  0.4827  1.8811 -1.3529
 3108TIP3    H230960   0.238   3.161   7.400  0.9523 -1.9837  0.2188
 3109TIP3   OH230961   2.086   2.960   1.847  0.0981 -0.0669  0.1806
 3109TIP3    H130962   1.994   2.948   1.822  0.4844  0.7491 -1.8237
 3109TIP3    H230963   2.129   2.990   1.766  1.7729  1.2955  1.5016
 3110TIP3   OH230964   3.552   6.644   7.912  0.7181 -0.5882  0.1322
 3110TIP3    H130965   3.535   6.553   7.937  1.9843 -0.7499  0.4708
 3110TIP3    H230966   3.638   6.663   7.948  1.2041  0.2172 -1.3733
 3111TIP3   OH230967   4.183   1.680   7.969  0.2275 -0.3726  0.0612
 3111TIP3    H130968   4.122   1.657   8.039  1.2385  1.5129  1.6465
 3111TIP3    H230969   4.247   1.609   7.969  1.1207  0.3543  2.2132
 3112TIP3   OH230970   0.848   3.946   8.954 -0.3408 -0.6377 -0.5588
 3112TIP3    H130971   0.757   3.944   8.927 -0.5677  2.1175 -0.3027
 3112TIP3    H230972   0.898   3.933   8.873 -0.9872 -0.1097 -1.0535
 3113TIP3   OH230973   3.296   3.501   7.728 -0.6693  0.0697 -0.5978
 3113TIP3    H130974   3.264   3.445   7.799 -0.6098  0.7449 -0.0325
 3113TIP3    H230975   3.389   3.482   7.723 -0.8801 -0.8603 -1.3072
 3114TIP3   OH230976   0.568   4.913   6.670 -0.6238 -0.7062  0.2268
 3114TIP3    H130977   0.479   4.947   6.661 -0.6994 -0.4131  1.8843
 3114TIP3    H230978   0.557   4.818   6.680 -0.5476 -1.0299 -2.1080
 3115TIP3   OH230979   0.383   0.577   0.784  0.2471  0.1741  0.1109
 3115TIP3    H130980   0.387   0.492   0.740  0.5985  0.3078 -0.1202
 3115TIP3    H230981   0.426   0.638   0.723  1.8325  0.1546  1.1437
 3116TIP3   OH230982   2.420   5.265   8.237 -0.1101  0.4565  0.0913
 3116TIP3    H130983   2.420   5.359   8.217  0.2179  0.6560  0.9975
 3116TIP3    H230984   2.472   5.257   8.317  3.9104 -1.0008 -2.3508
 3117TIP3   OH230985   4.158   5.718   1.086  0.2833  0.6749 -0.0305
 3117TIP3    H130986   4.108   5.795   1.113  0.6335  0.6130  0.8432
 3117TIP3    H230987   4.172   5.669   1.168 -0.2888 -0.5345 -0.6188
 3118TIP3   OH230988   0.709   0.259   7.208  0.5054 -0.2058 -0.1182
 3118TIP3    H130989   0.794   0.303   7.218  0.4042  0.0363 -0.3115
 3118TIP3    H230990   0.689   0.226   7.295  1.8511 -2.2030 -0.5025
 3119TIP3   OH230991   2.656   4.264   6.359  0.2306  0.1257  0.1860
 3119TIP3    H130992   2.650   4.174   6.325 -0.3219 -0.3265  1.4124
 3119TIP3    H230993   2.745   4.271   6.393 -0.0375 -0.3062  0.9935
 3120TIP3   OH230994   6.558   2.190   7.342 -0.2536 -0.2940  0.4909
 3120TIP3    H130995   6.588   2.099   7.348  0.2510 -0.2200 -0.6479
 3120TIP3    H230996   6.621   2.239   7.395  1.1718 -0.2578 -1.1674
 3121TIP3   OH230997   2.445   0.277   1.718 -0.5415  0.3591  0.1955
 3121TIP3    H130998   2.378   0.344   1.703  0.2701  0.9870 -0.7173
 3121TIP3    H230999   2.524   0.313   1.679 -0.0420 -1.0605 -0.1585
 3122TIP3   OH231000   2.618   4.088   0.334  0.5754  0.5847  0.1420
 3122TIP3    H131001   2.713   4.099   0.335  0.7021 -0.3711 -0.3624
 3122TIP3    H231002   2.600   4.043   0.251 -0.3359  0.9172  0.1506
 3123TIP3   OH231003   4.596   5.749   0.761  0.4056 -0.4350  0.0375
 3123TIP3    H131004   4.574   5.660   0.735 -1.2352  0.3298 -1.2998
 3123TIP3    H231005   4.541   5.766   0.837  1.1873 -0.7499  0.6940
 3124TIP3   OH231006   2.698   4.476   8.487 -0.0754  0.3069  0.3158
 3124TIP3    H131007   2.713   4.564   8.452 -0.0876  0.0321 -0.4038
 3124TIP3    H231008   2.613   4.482   8.530  1.3449  1.5041  3.2040
 3125TIP3   OH231009   5.283   5.563   2.170 -0.7577  0.3845  0.7661
 3125TIP3    H131010   5.193   5.541   2.194 -0.7953  1.3904  1.5851
 3125TIP3    H231011   5.282   5.657   2.154 -0.0009  0.2838  0.0847
 3126TIP3   OH231012   6.645   3.797   7.544 -0.0711  0.2228 -0.3577
 3126TIP3    H131013   6.570   3.758   7.589  0.9255  0.1622  1.3395
 3126TIP3    H231014   6.616   3.884   7.520 -0.1008  0.9461  2.0726
 3127TIP3   OH231015   3.355   3.852   1.371  0.3805  0.1887 -0.1677
 3127TIP3    H131016   3.440   3.863   1.413 -1.1397  1.5950  2.8694
 3127TIP3    H231017   3.335   3.938   1.335 -1.2292  0.9802  2.3859
 3128TIP3   OH231018   3.402   4.198   1.445  0.1635  0.3379 -0.9176
 3128TIP3    H131019   3.458   4.256   1.497 -0.8836  0.3597  0.2196
 3128TIP3    H231020   3.314   4.215   1.477 -0.3097 -0.9264 -1.5090
 3129TIP3   OH231021   3.753   4.833   7.071  0.2164 -0.0831 -0.0530
 3129TIP3    H131022   3.740   4.810   7.163  1.6229 -0.7675  0.0113
 3129TIP3    H231023   3.846   4.858   7.066 -0.2136  1.4477 -0.9872
 3130TIP3   OH231024   6.338   3.926   0.549  0.0596 -0.2304  0.4164
 3130TIP3    H131025   6.398   3.892   0.615 -0.4056 -1.6991  0.1075
 3130TIP3    H231026   6.257   3.876   0.561 -0.3049  0.0595 -0.7225
 3131TIP3   OH231027   6.114   2.899   7.821  0.1023 -0.0530  0.0834
 3131TIP3    H131028   6.134   2.873   7.731 -0.1251  0.1982 -0.0406
 3131TIP3    H231029   6.078   2.988   7.813 -0.8269 -0.3987  0.3277
 3132TIP3   OH231030   3.224   5.249   7.613 -0.0622 -0.7260 -0.3248
 3132TIP3    H131031   3.153   5.230   7.553 -0.7602 -0.8751  0.5379
 3132TIP3    H231032   3.204   5.337   7.647  0.7988 -0.2613 -0.9591
 3133TIP3   OH231033   3.555   5.074   1.119  0.3086 -0.1133 -0.7425
 3133TIP3    H131034   3.646   5.045   1.108  0.1772 -0.4810 -0.8523
 3133TIP3    H231035   3.532   5.050   1.209  0.4596  0.3694 -0.5714
 3134TIP3   OH231036   3.611   3.997   1.258  0.2819 -0.2638  0.0414
 3134TIP3    H131037   3.528   4.037   1.230  0.6964 -0.2547 -1.2335
 3134TIP3    H231038   3.616   3.915   1.209  0.4130 -0.9326  1.1221
 3135TIP3   OH231039   0.676   5.831   7.744  0.2270 -0.4511  0.5548
 3135TIP3    H131040   0.639   5.839   7.832 -0.5752  0.1448  0.1788
 3135TIP3    H231041   0.691   5.922   7.717  0.5698 -0.6385  0.1171
 3136TIP3   OH231042   1.843   2.471   6.666  0.7769 -0.0890 -0.3782
 3136TIP3    H131043   1.892   2.403   6.619  2.1571 -0.8467  1.9700
 3136TIP3    H231044   1.907   2.541   6.678  0.6108 -0.1008  0.6797
 3137TIP3   OH231045   2.946   1.772   1.878 -0.3803  0.7195 -0.1869
 3137TIP3    H131046   2.898   1.696   1.910 -2.0576  2.1926  0.9048
 3137TIP3    H231047   2.900   1.798   1.798 -0.7181  1.4564  0.2402
 3138TIP3   OH231048   5.914   3.970   7.242  0.2746 -0.4482 -0.3625
 3138TIP3    H131049   5.912   3.891   7.188 -3.7748 -0.5696 -0.3757
 3138TIP3    H231050   5.945   3.940   7.328  0.6343 -1.6439 -0.8924
 3139TIP3   OH231051   1.765   3.673   2.215 -0.1820  0.2913 -0.5596
 3139TIP3    H131052   1.851   3.646   2.183  0.2086 -1.6339  1.8092
 3139TIP3    H231053   1.777   3.764   2.242  0.7677  0.4263 -1.3750
 3140TIP3   OH231054   6.050   3.089   8.540 -0.4271  0.7518 -0.1180
 3140TIP3    H131055   6.090   3.038   8.470 -1.4161  0.5411 -0.5358
 3140TIP3    H231056   6.086   3.052   8.621  0.8795  1.1371 -0.4977
 3141TIP3   OH231057   6.034   5.904   1.490 -0.6600  0.3877  0.1961
 3141TIP3    H131058   5.993   5.876   1.572  1.3747  1.6061  1.7169
 3141TIP3    H231059   6.004   5.994   1.476  0.2946  0.7660  0.5212
 3142TIP3   OH231060   2.078   4.688   1.719  0.4420  0.0936 -0.3724
 3142TIP3    H131061   2.158   4.699   1.667 -0.2366  0.6501 -1.3270
 3142TIP3    H231062   2.031   4.771   1.709 -1.7029 -1.2417 -2.3471
 3143TIP3   OH231063   5.095   3.506   1.763  0.5555 -0.7785 -0.3781
 3143TIP3    H131064   5.041   3.439   1.721  0.4705  0.1682 -1.8377
 3143TIP3    H231065   5.048   3.528   1.843 -2.1300  1.1352 -2.3454
 3144TIP3   OH231066   2.038   5.192   1.199  0.1403 -0.1513  0.5944
 3144TIP3    H131067   2.083   5.202   1.283 -1.1929 -0.7008  1.4026
 3144TIP3    H231068   2.108   5.191   1.134  1.1625  0.9810  1.6281
 3145TIP3   OH231069   0.345   2.244   0.271  0.8959 -0.2566 -0.2327
 3145TIP3    H131070   0.372   2.289   0.351  0.6739  1.4949 -1.0978
 3145TIP3    H231071   0.425   2.240   0.218  0.7377 -0.1752 -0.4802
 3146TIP3   OH231072   4.018   5.785   1.437 -0.1873  0.3814  0.5331
 3146TIP3    H131073   3.922   5.778   1.445 -0.2186  0.3618  0.1573
 3146TIP3    H231074   4.032   5.813   1.347  0.2408 -1.4516 -0.0210
 3147TIP3   OH231075   0.098   4.797   1.708  0.0023  0.2427  0.1995
 3147TIP3    H131076   0.030   4.825   1.647  0.7996  0.9132 -0.3935
 3147TIP3    H231077   0.173   4.776   1.653  0.3909 -0.1684  0.8730
 3148TIP3   OH231078   0.991   6.163   0.653  0.2036 -0.5800  0.4139
 3148TIP3    H131079   1.006   6.247   0.610 -0.0212 -0.3264  0.8320
 3148TIP3    H231080   1.054   6.104   0.612 -0.9771 -0.7056 -1.3193
 3149TIP3   OH231081   3.429   6.329   1.722 -0.9301 -0.4691  0.7424
 3149TIP3    H131082   3.388   6.252   1.683  0.7433 -0.1488 -1.9318
 3149TIP3    H231083   3.518   6.301   1.741 -0.5030  0.5919  0.3653
 3150TIP3   OH231084   6.186   4.340   6.792 -0.9238  0.0825  0.2411
 3150TIP3    H131085   6.206   4.386   6.711 -2.0457  0.5579  0.2091
 3150TIP3    H231086   6.127   4.399   6.839  0.9927  0.5494  2.1815
 3151TIP3   OH231087   4.853   4.216   0.951  0.6252 -0.3226 -0.5205
 3151TIP3    H131088   4.763   4.240   0.973  0.3035 -0.8495 -1.2309
 3151TIP3    H231089   4.859   4.122   0.970  1.1398 -0.2207 -0.1320
 3152TIP3   OH231090   2.266   3.760   2.439  0.1384 -0.2791  0.5834
 3152TIP3    H131091   2.357   3.774   2.466  0.0888  1.2390  0.0480
 3152TIP3    H231092   2.249   3.829   2.374 -1.2590 -0.8185  0.3346
 3153TIP3   OH231093   0.143   1.678   2.488  0.0563  0.3166 -0.0680
 3153TIP3    H131094   0.108   1.593   2.514  1.8186 -0.4867 -0.1513
 3153TIP3    H231095   0.076   1.741   2.515 -0.4657 -0.9240  1.7164
 3154TIP3   OH231096   3.191   2.161   1.166 -0.0107 -0.2907  0.1557
 3154TIP3    H131097   3.180   2.136   1.257  1.7149  0.9155  0.7508
 3154TIP3    H231098   3.111   2.209   1.144 -1.4273 -2.4281  0.2890
 3155TIP3   OH231099   2.628   1.487   1.375 -0.2883  0.3012 -0.1142
 3155TIP3    H131100   2.533   1.495   1.375 -0.3546  0.0478  1.7283
 3155TIP3    H231101   2.659   1.569   1.336 -1.2568  0.3377 -0.8236
 3156TIP3   OH231102   0.608   5.361   7.491 -0.0870 -0.1080  0.2983
 3156TIP3    H131103   0.537   5.395   7.437 -0.5978 -1.6495 -0.0446
 3156TIP3    H231104   0.575   5.277   7.524  0.6678  0.2359  2.0576
 3157TIP3   OH231105   1.975   0.596   0.243 -0.3113  0.1606  0.8386
 3157TIP3    H131106   2.065   0.564   0.243 -0.1031  0.5813  2.8343
 3157TIP3    H231107   1.981   0.683   0.284 -1.7225 -0.2130  1.9046
 3158TIP3   OH231108   6.532   4.333   0.293  0.0723 -0.2335  0.3363
 3158TIP3    H131109   6.556   4.331   0.386 -2.6227  0.1695  1.1445
 3158TIP3    H231110   6.496   4.420   0.280  0.1215 -0.4004 -1.0242
 3159TIP3   OH231111   1.827   2.299   8.382 -0.3224  0.3981 -0.5539
 3159TIP3    H131112   1.749   2.351   8.403 -1.2250 -1.0860 -0.0883
 3159TIP3    H231113   1.853   2.330   8.295 -0.2711  2.2440  0.0720
 3160TIP3   OH231114   1.032   3.421   6.712 -0.2719 -0.7818 -0.4481
 3160TIP3    H131115   1.085   3.342   6.708 -0.4110 -1.2503  3.2853
 3160TIP3    H231116   1.090   3.491   6.681  2.4883 -1.3768  2.8090
 3161TIP3   OH231117   2.649   5.866   2.246  0.2498 -0.6830 -0.2411
 3161TIP3    H131118   2.584   5.814   2.293 -1.6410  1.2185 -0.6212
 3161TIP3    H231119   2.733   5.835   2.280 -0.9289 -1.1905  2.4568
 3162TIP3   OH231120   4.484   5.188   8.416 -0.3634  0.3886 -0.1858
 3162TIP3    H131121   4.401   5.152   8.387  0.2623 -0.5816 -0.8249
 3162TIP3    H231122   4.499   5.265   8.361 -1.8280  1.8790  1.3545
 3163TIP3   OH231123   1.506   6.409   7.460  0.3903 -0.0159 -0.7602
 3163TIP3    H131124   1.474   6.422   7.549 -2.8324 -3.7065 -1.1268
 3163TIP3    H231125   1.503   6.497   7.421 -2.8610  1.0538  1.4260
 3164TIP3   OH231126   4.545   5.219   8.706 -0.3490 -0.2438 -0.5801
 3164TIP3    H131127   4.534   5.188   8.617  1.1128  1.6393 -1.4925
 3164TIP3    H231128   4.562   5.140   8.758  0.7989 -1.2000 -2.3182
 3165TIP3   OH231129   0.133   2.675   8.759  0.1008  0.3584 -0.0037
 3165TIP3    H131130   0.162   2.585   8.750 -0.9254 -0.1822  1.7827
 3165TIP3    H231131   0.110   2.685   8.851  0.4785  2.5401 -0.0889
 3166TIP3   OH231132   4.179   0.614   2.406 -0.3038 -0.6482 -0.1676
 3166TIP3    H131133   4.122   0.613   2.483  0.9352  1.0439  0.8345
 3166TIP3    H231134   4.142   0.683   2.350  1.3208  1.2685  1.0105
 3167TIP3   OH231135   0.270   2.864   2.301 -0.3560  1.0518  0.1936
 3167TIP3    H131136   0.199   2.813   2.341  1.5931 -1.9444  0.1468
 3167TIP3    H231137   0.263   2.844   2.207  1.7305 -1.0142  0.4165
 3168TIP3   OH231138   2.606   3.849   8.626  0.5509  0.7703 -0.5159
 3168TIP3    H131139   2.648   3.905   8.561  1.1022  0.6773 -0.2544
 3168TIP3    H231140   2.663   3.772   8.631 -0.1346  0.2312 -0.7888
 3169TIP3   OH231141   3.187   0.821   2.414  0.1706  0.1813 -0.5428
 3169TIP3    H131142   3.172   0.729   2.436 -0.0592  0.8207  2.4897
 3169TIP3    H231143   3.122   0.840   2.347  0.5763 -1.9594 -1.6427
 3170TIP3   OH231144   2.872   2.869   1.068 -0.1801 -0.2098  0.1008
 3170TIP3    H131145   2.906   2.958   1.077  1.3618 -0.8610  1.2531
 3170TIP3    H231146   2.795   2.866   1.124 -0.7978  0.6531 -0.6875
 3171TIP3   OH231147   5.414   5.890   1.853 -0.0253  0.3535  0.1534
 3171TIP3    H131148   5.371   5.816   1.809  0.0546  0.4696 -0.1236
 3171TIP3    H231149   5.348   5.958   1.856 -0.1233  0.2454  0.4786
 3172TIP3   OH231150   0.603   2.161   2.221 -0.9150 -0.6065 -0.1294
 3172TIP3    H131151   0.658   2.131   2.293 -0.5483  0.6756  0.1481
 3172TIP3    H231152   0.529   2.204   2.263 -0.6533  0.2310 -0.4856
 3173TIP3   OH231153   4.446   6.126   0.565  0.2148 -0.3430  0.1468
 3173TIP3    H131154   4.451   6.087   0.652  0.4280 -0.0200  0.2790
 3173TIP3    H231155   4.492   6.064   0.508  0.1585 -0.5060  0.2787
 3174TIP3   OH231156   2.552   2.486   6.750  0.3419 -0.1307 -0.3919
 3174TIP3    H131157   2.589   2.564   6.708 -1.2782  2.0745  1.9590
 3174TIP3    H231158   2.460   2.485   6.722 -0.3853  0.5511  1.7675
 3175TIP3   OH231159   5.762   5.448   0.615 -0.2837 -0.2470  0.1012
 3175TIP3    H131160   5.745   5.368   0.567  0.5783  0.7397 -1.9463
 3175TIP3    H231161   5.857   5.455   0.619 -0.3292  1.1466 -0.6147
 3176TIP3   OH231162   2.285   2.325   7.681 -0.0019 -0.0985  0.1190
 3176TIP3    H131163   2.321   2.398   7.731 -1.6843 -0.1633  1.5208
 3176TIP3    H231164   2.286   2.355   7.590 -0.4735  1.5943  0.6416
 3177TIP3   OH231165   0.804   0.151   1.550 -0.4005  0.1816  0.2783
 3177TIP3    H131166   0.760   0.201   1.481  0.7022 -0.0663 -0.6186
 3177TIP3    H231167   0.890   0.131   1.515  0.8551  1.5296  2.3899
 3178TIP3   OH231168   5.394   1.601   8.476 -0.0034 -0.2696  0.2849
 3178TIP3    H131169   5.396   1.593   8.571  0.3519 -0.2581  0.2797
 3178TIP3    H231170   5.338   1.676   8.459  1.5341  0.9729  0.5582
 3179TIP3   OH231171   1.715   3.124   2.009 -0.0664  0.0550  0.3218
 3179TIP3    H131172   1.653   3.187   2.045  1.1990  0.9206  1.0689
 3179TIP3    H231173   1.726   3.058   2.077 -0.7852 -0.5614 -0.1446
 3180TIP3   OH231174   0.079   2.715   2.707 -0.0077  0.2642  0.8071
 3180TIP3    H131175   0.071   2.721   2.612 -0.7075 -1.6808  0.7055
 3180TIP3    H231176   0.006   2.769   2.739 -0.3667  0.1390  0.2265
 3181TIP3   OH231177   0.672   6.462   8.342 -0.1622  0.3588  0.4851
 3181TIP3    H131178   0.634   6.377   8.361 -1.2652  0.8282  0.4326
 3181TIP3    H231179   0.744   6.444   8.281 -1.3214 -0.3984 -0.7082
 3182TIP3   OH231180   2.975   0.454   2.182  0.3133  0.0235  0.4214
 3182TIP3    H131181   2.928   0.521   2.233  0.7488  1.8097 -1.3745
 3182TIP3    H231182   3.061   0.450   2.222 -0.6976 -1.9649  2.6134
 3183TIP3   OH231183   3.671   6.289   8.480 -0.4021 -0.1192 -0.2025
 3183TIP3    H131184   3.708   6.366   8.436  0.4662 -0.3354  0.1343
 3183TIP3    H231185   3.747   6.236   8.504 -0.9894 -1.1525 -0.5450
 3184TIP3   OH231186   4.283   2.928   8.727  0.0228  0.6728 -0.0889
 3184TIP3    H131187   4.313   2.977   8.651 -1.3567  0.5747 -0.7354
 3184TIP3    H231188   4.189   2.948   8.733  0.0646  0.5601  1.4950
 3185TIP3   OH231189   3.837   4.925   1.378  0.6697 -0.5901 -0.6467
 3185TIP3    H131190   3.755   4.947   1.421  0.2336 -2.2338 -0.5625
 3185TIP3    H231191   3.891   4.887   1.447  1.8020  1.1018 -0.5439
 3186TIP3   OH231192   1.919   6.080   7.976 -0.5650  0.4028  0.2279
 3186TIP3    H131193   1.999   6.129   7.993 -0.8457  1.0362 -0.2160
 3186TIP3    H231194   1.944   5.988   7.983  0.7194  0.5159 -2.0979
 3187TIP3   OH231195   0.717   2.826   9.010  0.1076  0.1323  0.0451
 3187TIP3    H131196   0.723   2.909   9.059  0.8198  0.2371 -0.1970
 3187TIP3    H231197   0.624   2.813   8.996 -0.0071  1.0358 -0.1358
 3188TIP3   OH231198   1.403   6.453   0.662  0.2080 -0.3434  0.6131
 3188TIP3    H131199   1.420   6.452   0.756  1.4900 -0.9350  0.4023
 3188TIP3    H231200   1.390   6.361   0.638 -2.0502 -0.0462  0.4976
 3189TIP3   OH231201   4.205   1.236   0.521 -0.2370  0.7843  0.0477
 3189TIP3    H131202   4.153   1.256   0.442 -0.5616 -0.1924 -0.0070
 3189TIP3    H231203   4.153   1.170   0.567  0.1483  1.0549  0.8851
 3190TIP3   OH231204   0.309   5.041   6.675 -0.3927 -0.1200 -0.5232
 3190TIP3    H131205   0.269   5.104   6.735 -0.2767 -0.6625  0.1371
 3190TIP3    H231206   0.246   5.032   6.604 -0.1600  1.1524 -0.9164
 3191TIP3   OH231207   5.572   2.651   0.643  0.3649  0.3435  0.3520
 3191TIP3    H131208   5.495   2.692   0.602 -1.3523 -0.5886  2.4653
 3191TIP3    H231209   5.549   2.559   0.651  3.2376 -0.7949 -2.2119
 3192TIP3   OH231210   2.159   5.876   7.487  0.3770 -0.2248 -0.9011
 3192TIP3    H131211   2.235   5.892   7.430  0.2738 -1.4631 -1.4085
 3192TIP3    H231212   2.191   5.815   7.553  0.5601  1.3841  0.5575
 3193TIP3   OH231213   1.557   3.746   0.692  0.5472  0.4608 -0.5007
 3193TIP3    H131214   1.615   3.794   0.751  0.0729  0.9163 -0.3913
 3193TIP3    H231215   1.511   3.815   0.643 -0.6803  0.1527  0.1751
 3194TIP3   OH231216   1.609   6.124   0.149  0.2717  0.7012  0.1635
 3194TIP3    H131217   1.699   6.145   0.175 -0.1021  1.2445  1.0759
 3194TIP3    H231218   1.559   6.130   0.230 -0.5060 -0.1101 -0.2376
 3195TIP3   OH231219   2.395   5.449   0.876  0.2774 -0.1856 -0.2373
 3195TIP3    H131220   2.366   5.532   0.837  0.0765  0.1789  0.6464
 3195TIP3    H231221   2.317   5.394   0.877  0.2822 -0.1937 -0.3586
 3196TIP3   OH231222   6.621   2.003   8.168  0.2429 -0.2160 -0.0823
 3196TIP3    H131223   6.620   2.002   8.072 -0.4012 -0.8918 -0.0800
 3196TIP3    H231224   6.640   2.094   8.191 -0.2110  0.0827 -0.8456
 3197TIP3   OH231225   2.100   0.187   7.537  0.0693  0.4848 -0.9726
 3197TIP3    H131226   2.036   0.157   7.603 -1.0068 -1.8324 -2.9016
 3197TIP3    H231227   2.155   0.249   7.584 -2.2633  0.9549  1.3912
 3198TIP3   OH231228   0.216   3.994   8.185  0.1886 -0.3632 -0.9220
 3198TIP3    H131229   0.291   3.938   8.162  0.3196 -1.0970  1.0993
 3198TIP3    H231230   0.193   3.968   8.274 -0.1582  2.3987 -0.1257
 3199TIP3   OH231231   1.319   1.166   0.762 -0.3172 -0.1838  0.1445
 3199TIP3    H131232   1.292   1.254   0.788  0.8965  0.5730 -1.0452
 3199TIP3    H231233   1.302   1.112   0.840 -0.0354  1.3177  1.2924
 3200TIP3   OH231234   1.848   6.184   1.673 -0.1338  0.2670 -0.5767
 3200TIP3    H131235   1.899   6.187   1.754  1.9280  1.5411 -1.8197
 3200TIP3    H231236   1.873   6.101   1.632  0.2282  0.4579 -0.7456
 3201TIP3   OH231237   4.909   2.133   9.032 -0.1694  0.6416 -0.0967
 3201TIP3    H131238   4.867   2.069   8.974  0.0894  0.6184 -0.2637
 3201TIP3    H231239   4.873   2.114   9.119 -0.4596  0.5871 -0.2286
 3202TIP3   OH231240   3.021   5.634   1.406 -0.2250 -0.4159 -0.4903
 3202TIP3    H131241   3.093   5.621   1.469 -0.2219  2.6969  0.3290
 3202TIP3    H231242   2.943   5.639   1.461 -0.4047  0.8943 -0.8212
 3203TIP3   OH231243   2.484   1.229   2.564 -0.6770  0.0479 -0.3896
 3203TIP3    H131244   2.455   1.249   2.475 -0.7472  1.1113 -0.1415
 3203TIP3    H231245   2.410   1.254   2.620 -0.2808  0.2728  0.0390
 3204TIP3   OH231246   0.258   6.094   1.555  0.2141 -0.3812 -0.2583
 3204TIP3    H131247   0.229   6.026   1.616 -0.9442  0.0572 -0.3016
 3204TIP3    H231248   0.281   6.046   1.476 -2.3981 -0.6204 -0.9564
 3205TIP3   OH231249   2.897   2.616   7.075  0.2852  0.1754 -0.3912
 3205TIP3    H131250   2.960   2.682   7.045  1.1913 -1.1301 -1.4817
 3205TIP3    H231251   2.896   2.550   7.005  0.4452 -1.6446  1.2286
 3206TIP3   OH231252   3.238   3.613   0.237 -0.2436 -0.0263 -0.2709
 3206TIP3    H131253   3.313   3.579   0.285  0.6774  0.4022 -1.3545
 3206TIP3    H231254   3.240   3.707   0.253 -1.6269 -0.1931  1.1304
 3207TIP3   OH231255   3.956   5.773   0.601 -0.4054  0.7362  0.4724
 3207TIP3    H131256   3.927   5.766   0.692  0.2144  1.4369  0.7270
 3207TIP3    H231257   3.888   5.728   0.551 -0.8029  0.4354  1.2709
 3208TIP3   OH231258   2.162   4.418   6.643 -0.5010 -0.3933 -0.0102
 3208TIP3    H131259   2.173   4.338   6.592  0.4991 -0.0413 -0.3792
 3208TIP3    H231260   2.068   4.435   6.641 -0.8137 -1.8801  0.5941
 3209TIP3   OH231261   6.351   1.311   8.433  0.2306  0.2837 -0.4038
 3209TIP3    H131262   6.271   1.313   8.486  0.4801 -0.1070 -0.0103
 3209TIP3    H231263   6.384   1.401   8.436 -1.3016  0.9681 -2.2840
 3210TIP3   OH231264   6.154   2.492   6.545 -0.0800 -0.1110 -0.2110
 3210TIP3    H131265   6.063   2.470   6.527  0.4255 -1.1391 -1.7091
 3210TIP3    H231266   6.153   2.526   6.635 -2.4195  3.1515 -1.3053
 3211TIP3   OH231267   1.958   2.836   1.604  0.2648  0.2723  0.0416
 3211TIP3    H131268   1.945   2.742   1.590  1.4041  0.2658 -1.2434
 3211TIP3    H231269   1.876   2.866   1.644 -0.0623 -1.2812  0.6197
 3212TIP3   OH231270   6.048   0.944   0.370  0.0020 -0.0277 -0.4461
 3212TIP3    H131271   6.127   0.996   0.386  0.3118 -0.8369  0.7471
 3212TIP3    H231272   5.980   0.987   0.422  0.3932 -1.1035  1.0226
 3213TIP3   OH231273   1.087   4.078   0.003  0.1755 -0.0137 -0.0903
 3213TIP3    H131274   1.118   4.084  -0.088  0.5828  0.9802  0.1016
 3213TIP3    H231275   0.992   4.070  -0.005  0.1795  0.3865 -0.5991
 3214TIP3   OH231276   0.383   3.424   7.677 -0.1855  0.2594  0.0507
 3214TIP3    H131277   0.469   3.388   7.698  0.2379  1.0107 -0.3834
 3214TIP3    H231278   0.388   3.515   7.704 -0.9178  0.2556  0.2117
 3215TIP3   OH231279   4.276   1.489   8.643  0.3017  0.0604 -0.6605
 3215TIP3    H131280   4.353   1.459   8.691 -0.1480 -1.8522 -1.0498
 3215TIP3    H231281   4.281   1.444   8.558 -1.2372 -0.1457 -0.6793
 3216TIP3   OH231282   4.493   6.110   1.422  0.2275 -0.1609 -0.2647
 3216TIP3    H131283   4.398   6.106   1.427  0.2780  0.2195  1.8848
 3216TIP3    H231284   4.512   6.196   1.384 -0.2545 -1.0915 -2.7916
 3217TIP3   OH231285   6.345   3.206   1.622  0.1012  0.7275  0.2898
 3217TIP3    H131286   6.414   3.262   1.585 -0.2914  1.5826  0.8220
 3217TIP3    H231287   6.391   3.151   1.685  0.4860  0.4852 -0.1937
 3218TIP3   OH231288   4.267   5.755   1.534  0.3000 -1.0686  0.2356
 3218TIP3    H131289   4.188   5.792   1.494 -0.0094 -1.6270  0.3155
 3218TIP3    H231290   4.242   5.737   1.625 -0.0583 -2.8552 -0.1650
 3219TIP3   OH231291   1.050   4.440   8.822 -0.2834 -0.3470  0.2760
 3219TIP3    H131292   0.977   4.382   8.798 -0.0232 -0.4426 -0.3094
 3219TIP3    H231293   1.053   4.505   8.751 -1.2972  1.0889  1.4811
 3220TIP3   OH231294   0.826   4.251   0.506  0.0321  0.5144 -0.2683
 3220TIP3    H131295   0.803   4.327   0.452 -2.9121 -0.1822 -0.1538
 3220TIP3    H231296   0.849   4.184   0.442  0.1228  0.7433 -0.4814
 3221TIP3   OH231297   6.097   4.345   9.031 -0.0959 -0.1674 -0.5743
 3221TIP3    H131298   6.162   4.308   8.971  2.8304  0.7052  1.8621
 3221TIP3    H231299   6.093   4.283   9.104  0.2061  1.2177  0.6632
 3222TIP3   OH231300   4.344   6.385   8.286 -0.6213  0.3264 -0.1052
 3222TIP3    H131301   4.259   6.342   8.292 -0.2054 -0.4664  0.1999
 3222TIP3    H231302   4.348   6.441   8.364 -0.8300  0.3123 -0.0833
 3223TIP3   OH231303   3.196   4.744   0.412 -0.4146  0.2877  0.2767
 3223TIP3    H131304   3.162   4.680   0.350 -0.1852 -1.4007  1.8020
 3223TIP3    H231305   3.132   4.815   0.410 -1.1270 -0.3579 -0.8605
 3224TIP3   OH231306   1.077   4.261   6.997 -0.4378 -0.8363  0.1201
 3224TIP3    H131307   1.092   4.250   6.903  4.2330  2.8630  0.0549
 3224TIP3    H231308   1.019   4.336   7.004  0.5105 -0.0713  0.0650
 3225TIP3   OH231309   5.861   1.451   8.660 -0.3869  0.1268  0.0906
 3225TIP3    H131310   5.849   1.385   8.728 -0.6312 -0.6203 -0.6605
 3225TIP3    H231311   5.779   1.501   8.661 -1.3383 -1.2930 -1.1126
 3226TIP3   OH231312   6.239   3.836   7.633  0.2220 -0.8811  0.4538
 3226TIP3    H131313   6.289   3.917   7.626  1.3004 -1.4383  1.4603
 3226TIP3    H231314   6.199   3.825   7.546  1.3027 -0.0736 -0.1646
 3227TIP3   OH231315   1.973   6.699   8.845 -0.1218  0.2209 -0.1341
 3227TIP3    H131316   1.878   6.695   8.829  0.1565 -2.1129 -1.7223
 3227TIP3    H231317   1.988   6.634   8.914  0.0541  2.7541  2.4145
 3228TIP3   OH231318   3.185   3.002   1.633 -0.2019  0.3571 -0.6881
 3228TIP3    H131319   3.103   3.010   1.682 -0.2606  0.0869 -0.7419
 3228TIP3    H231320   3.174   3.060   1.558 -0.2025  0.5968 -0.5033
 3229TIP3   OH231321   0.063   0.380   7.616  0.4082 -0.4974 -0.1113
 3229TIP3    H131322  -0.003   0.311   7.626 -0.3582  0.1096 -0.8282
 3229TIP3    H231323   0.073   0.389   7.521  0.3424  0.5068 -0.0337
 3230TIP3   OH231324   2.414   6.210   7.214  1.0179  0.0970  0.7719
 3230TIP3    H131325   2.432   6.301   7.238 -0.0520  0.3693  0.5594
 3230TIP3    H231326   2.364   6.216   7.132  3.0405 -0.7659 -0.6161
 3231TIP3   OH231327   2.840   5.252   6.589  0.2188 -0.1028  0.1728
 3231TIP3    H131328   2.934   5.249   6.609  0.3886  0.5492 -0.4762
 3231TIP3    H231329   2.801   5.187   6.647  1.3649 -2.1580 -1.2439
 3232TIP3   OH231330   5.205   0.009   0.084  0.0451  0.2611  0.0888
 3232TIP3    H131331   5.245   0.068   0.022 -0.9447 -0.3940 -1.2205
 3232TIP3    H231332   5.260  -0.070   0.081 -0.4255 -0.0511 -0.5374
 3233TIP3   OH231333   4.579   5.922   0.415 -0.5030  0.2983  0.6125
 3233TIP3    H131334   4.553   5.829   0.414 -0.0537  0.1429 -1.2403
 3233TIP3    H231335   4.655   5.925   0.472 -0.0524 -0.6277  0.0861
 3234TIP3   OH231336   6.083   5.376   8.811  0.3252  0.2513 -0.2729
 3234TIP3    H131337   6.035   5.346   8.888 -0.6942  0.4580 -0.8063
 3234TIP3    H231338   6.075   5.304   8.748 -0.4982  0.8496 -0.8688
 3235TIP3   OH231339   3.230   1.285   2.542  0.3811  0.4287  0.4436
 3235TIP3    H131340   3.290   1.251   2.475 -0.7583  1.5082 -1.2052
 3235TIP3    H231341   3.267   1.254   2.625  1.1229 -2.1241 -0.7214
 3236TIP3   OH231342   5.714   0.532   0.606  0.2806 -0.0099  0.7462
 3236TIP3    H131343   5.768   0.600   0.565  1.0547 -1.6456 -1.1751
 3236TIP3    H231344   5.634   0.529   0.553  0.3218 -0.6645  0.7089
 3237TIP3   OH231345   6.050   6.683   8.476 -0.2980 -0.0246  0.1317
 3237TIP3    H131346   6.020   6.592   8.481 -1.6500  0.4216  0.6356
 3237TIP3    H231347   5.977   6.729   8.434  0.8767  0.6275 -1.2741
 3238TIP3   OH231348   2.112   3.973   2.619 -0.3094 -0.6130  0.0662
 3238TIP3    H131349   2.020   3.977   2.593 -0.5435  0.6532  1.0264
 3238TIP3    H231350   2.139   3.885   2.593 -1.9846 -1.2841  0.4040
 3239TIP3   OH231351   4.345   4.930   0.265 -0.1506 -0.1371  0.2835
 3239TIP3    H131352   4.271   4.928   0.326 -0.5707 -0.5016 -0.2387
 3239TIP3    H231353   4.411   4.875   0.307 -0.1902  0.1432  0.7235
 3240TIP3   OH231354   2.927   5.240   7.786  0.0377  0.7475 -0.0070
 3240TIP3    H131355   3.001   5.251   7.846  1.7851  3.2657 -2.3873
 3240TIP3    H231356   2.963   5.191   7.712 -1.1386  0.5895 -0.4995
 3241TIP3   OH231357   2.941   1.301   8.698 -0.3933  0.2249 -0.5279
 3241TIP3    H131358   2.942   1.242   8.622 -0.0993 -0.5968  0.0966
 3241TIP3    H231359   3.024   1.348   8.693 -0.1896 -0.1290 -0.4822
 3242TIP3   OH231360   2.600   4.100   7.295  0.0377  0.4539  0.0253
 3242TIP3    H131361   2.575   4.041   7.224  1.6732  0.3091 -0.4643
 3242TIP3    H231362   2.592   4.187   7.256 -2.0335  0.5840  0.6405
 3243TIP3   OH231363   4.662   3.567   1.934  0.2054  0.1502  0.6902
 3243TIP3    H131364   4.751   3.601   1.943  0.4974 -0.8073  1.5885
 3243TIP3    H231365   4.645   3.570   1.839  2.2042 -2.0497  0.1582
 3244TIP3   OH231366   1.482   6.564   1.265 -0.8267 -0.4779 -0.7729
 3244TIP3    H131367   1.446   6.604   1.186 -0.1851  1.3372 -0.2056
 3244TIP3    H231368   1.454   6.621   1.336  1.2647 -0.2152 -0.0648
 3245TIP3   OH231369   5.044   2.452   8.518 -0.2490 -0.6129 -0.4244
 3245TIP3    H131370   4.950   2.443   8.506 -0.2210 -1.0982 -0.2774
 3245TIP3    H231371   5.083   2.388   8.459 -0.0227 -0.7272 -0.1577
 3246TIP3   OH231372   6.759   3.007   8.151 -0.0981  0.3867 -0.1553
 3246TIP3    H131373   6.722   2.933   8.198 -2.1366 -0.2933 -2.5721
 3246TIP3    H231374   6.720   3.084   8.193 -0.1254 -0.0567  0.6408
 3247TIP3   OH231375   4.035   5.397   8.935 -0.1013 -0.2379 -0.0781
 3247TIP3    H131376   4.037   5.308   8.900 -0.9933  0.2942 -1.5706
 3247TIP3    H231377   4.098   5.396   9.007  1.6571 -1.4559 -1.5461
 3248TIP3   OH231378   5.204   5.780   8.216 -0.0255 -0.5230  0.5063
 3248TIP3    H131379   5.189   5.872   8.193 -0.6956 -0.8858 -0.5949
 3248TIP3    H231380   5.117   5.744   8.226  0.2428 -0.7688  2.1750
 3249TIP3   OH231381   1.638   6.680   1.001  0.1838 -0.2083  0.1387
 3249TIP3    H131382   1.550   6.710   1.022  0.3943 -1.1461  2.6628
 3249TIP3    H231383   1.688   6.760   0.986 -0.8312  0.3700 -0.2627
 3250TIP3   OH231384   0.585   5.750   1.141  0.6042 -0.4271  0.3068
 3250TIP3    H131385   0.672   5.723   1.169  0.5347  0.0444  1.0083
 3250TIP3    H231386   0.525   5.705   1.201  0.3766 -0.5752 -0.0279
 3251TIP3   OH231387   0.401   5.872   8.284 -0.0516 -0.2896  0.1174
 3251TIP3    H131388   0.376   5.961   8.260  0.7588  0.0981  0.6534
 3251TIP3    H231389   0.343   5.850   8.357  1.5398  0.8682  1.8246
 3252TIP3   OH231390   1.686   6.642   2.261 -0.0496  1.0540  0.0087
 3252TIP3    H131391   1.623   6.630   2.190 -1.8361 -0.9527  1.7527
 3252TIP3    H231392   1.631   6.665   2.337  1.2535 -0.8045  1.6185
 3253TIP3   OH231393   1.102   6.523   1.693  0.6402 -0.2291  0.7597
 3253TIP3    H131394   1.128   6.540   1.602  0.0867  0.2902  0.6963
 3253TIP3    H231395   1.109   6.428   1.703 -1.6311 -0.5806 -0.5522
 3254TIP3   OH231396   0.093   2.321   6.373 -0.6439 -0.3174  0.1951
 3254TIP3    H131397   0.069   2.413   6.363  0.1242 -0.2929 -2.0939
 3254TIP3    H231398   0.073   2.282   6.288 -1.6273 -2.4631  1.3210
 3255TIP3   OH231399   4.685   3.330   7.831  0.6237  0.2687  0.1942
 3255TIP3    H131400   4.649   3.385   7.761  0.1089 -0.7724 -0.3895
 3255TIP3    H231401   4.707   3.391   7.901 -0.7537  1.1281 -0.0872
 3256TIP3   OH231402   5.679   2.414   1.075  0.0870 -0.0296  0.2503
 3256TIP3    H131403   5.671   2.396   1.169  1.5191  1.0378  0.6010
 3256TIP3    H231404   5.639   2.500   1.064 -1.2235 -0.6795 -0.3724
 3257TIP3   OH231405   3.501   2.927   8.039  0.3496 -0.2656 -0.1082
 3257TIP3    H131406   3.517   3.005   7.986 -0.4957  0.1840  0.2876
 3257TIP3    H231407   3.467   2.960   8.122 -0.0942 -1.0578  0.0400
 3258TIP3   OH231408   3.025   6.458   8.115  0.3076  0.3476  0.1134
 3258TIP3    H131409   3.097   6.478   8.174  0.4384  0.2028  0.0019
 3258TIP3    H231410   3.064   6.458   8.028  0.2245  0.0278  0.0733
 3259TIP3   OH231411   4.739   1.465   7.505  0.2346 -0.2567  0.3575
 3259TIP3    H131412   4.795   1.541   7.492  0.4917 -0.4727  0.1983
 3259TIP3    H231413   4.657   1.488   7.463  1.0167 -0.9199 -1.6260
 3260TIP3   OH231414   6.483   5.298   8.431  0.4437 -0.4223 -0.0636
 3260TIP3    H131415   6.458   5.296   8.338 -0.1030 -0.4955  0.0813
 3260TIP3    H231416   6.535   5.377   8.440  0.0101 -0.1002 -0.3196
 3261TIP3   OH231417   1.441   3.408   1.507 -0.0176 -0.4424  0.7892
 3261TIP3    H131418   1.400   3.322   1.519  0.8395 -0.8292  1.0157
 3261TIP3    H231419   1.417   3.434   1.419 -1.1680 -0.4280  1.0910
 3262TIP3   OH231420   5.725   4.879   2.361  0.3754  0.1934 -0.6643
 3262TIP3    H131421   5.788   4.946   2.334  0.6727 -0.3747 -1.3993
 3262TIP3    H231422   5.674   4.921   2.431  1.8980  0.4983  0.3254
 3263TIP3   OH231423   3.444   3.283   7.479  0.5928  0.6625 -0.6189
 3263TIP3    H131424   3.461   3.207   7.536  0.6918  0.2895 -1.1362
 3263TIP3    H231425   3.384   3.250   7.413  0.5426  1.0747 -0.7806
 3264TIP3   OH231426   3.544   2.835   7.371  0.3115  0.0393  0.1648
 3264TIP3    H131427   3.633   2.833   7.337  1.0541 -1.1881  2.0143
 3264TIP3    H231428   3.488   2.830   7.293  1.8175  1.1698 -1.0531
 3265TIP3   OH231429   5.150   2.678   7.359  0.5755 -0.4316  0.0994
 3265TIP3    H131430   5.223   2.639   7.310  0.0478 -1.4100  0.0650
 3265TIP3    H231431   5.079   2.614   7.351 -0.0120  0.1095  0.8520
 3266TIP3   OH231432   5.223   2.308   1.717 -0.7085 -0.1149 -0.4820
 3266TIP3    H131433   5.132   2.331   1.700 -1.1709 -1.2873  0.2849
 3266TIP3    H231434   5.222   2.213   1.728  0.9258 -0.4475 -2.4283
 3267TIP3   OH231435   5.031   1.681   9.010 -0.0632  0.6824 -0.0423
 3267TIP3    H131436   5.012   1.590   9.034  0.7209  0.1665 -1.2656
 3267TIP3    H231437   4.963   1.732   9.053 -0.2009 -0.4281  1.1129
 3268TIP3   OH231438   6.192   4.673   8.192  0.5975  0.0071  0.3161
 3268TIP3    H131439   6.269   4.722   8.222  1.6318 -1.7069  0.5751
 3268TIP3    H231440   6.130   4.679   8.266  0.6389  1.0134  0.2856
 3269TIP3   OH231441   3.478   2.273   1.069  0.9115  0.0570 -0.0074
 3269TIP3    H131442   3.384   2.267   1.056  0.8646  1.3067 -0.3497
 3269TIP3    H231443   3.496   2.215   1.144  0.0326 -0.9378 -0.5518
 3270TIP3   OH231444   4.525   1.522   8.462 -0.3357 -0.1662 -0.0982
 3270TIP3    H131445   4.453   1.464   8.435 -0.9409  0.4744  0.0917
 3270TIP3    H231446   4.569   1.544   8.381  0.6035 -1.7725 -0.0612
 3271TIP3   OH231447   2.991   1.891   1.116 -0.2206  0.1263  0.3791
 3271TIP3    H131448   2.977   1.818   1.055 -1.5873  0.5680  0.1422
 3271TIP3    H231449   2.988   1.849   1.203 -0.5605 -0.1744  0.2281
 3272TIP3   OH231450   1.303   1.348   1.978 -0.1808  0.0330 -0.2750
 3272TIP3    H131451   1.227   1.349   2.037 -1.0328  0.2765 -1.3537
 3272TIP3    H231452   1.293   1.267   1.928  0.1418  0.1843 -0.5829
 3273TIP3   OH231453   5.603   6.075   8.712 -0.1407  0.5894  0.0327
 3273TIP3    H131454   5.536   6.033   8.658  0.5320 -0.4930  0.0077
 3273TIP3    H231455   5.603   6.167   8.683 -0.6022  0.2819 -0.9781
 3274TIP3   OH231456   1.021   4.165   8.481 -0.1826  0.7444  0.0001
 3274TIP3    H131457   0.925   4.168   8.485 -0.2119 -0.2381  0.3915
 3274TIP3    H231458   1.039   4.095   8.418  0.2909  1.4082 -0.6177
 3275TIP3   OH231459   3.051   3.784   0.917 -0.1056  0.3375 -0.1195
 3275TIP3    H131460   3.071   3.696   0.950  1.6734  1.1054  1.0459
 3275TIP3    H231461   3.008   3.828   0.991 -0.1403  0.7197 -0.3634
 3276TIP3   OH231462   4.915   0.676   8.440 -0.6920  0.0472  0.3959
 3276TIP3    H131463   4.994   0.631   8.410 -1.7220  0.3193 -3.1351
 3276TIP3    H231464   4.852   0.605   8.457 -0.1310 -0.1028  2.0315
 3277TIP3   OH231465   4.278   6.752   1.350  0.2478 -0.1893 -0.0319
 3277TIP3    H131466   4.337   6.800   1.292 -0.6919 -0.8200 -1.5693
 3277TIP3    H231467   4.315   6.765   1.438  1.4615  1.1671 -0.6943
 3278TIP3   OH231468   1.877   2.722   6.889  0.3536 -0.3822 -0.6615
 3278TIP3    H131469   1.935   2.669   6.834  0.9568 -0.7210  0.2752
 3278TIP3    H231470   1.929   2.798   6.913  0.2973 -0.5208 -0.0882
 3279TIP3   OH231471   4.573   1.045   8.492  0.2841 -0.0500  0.4724
 3279TIP3    H131472   4.517   1.008   8.423 -0.8138  0.9700  0.7779
 3279TIP3    H231473   4.617   1.119   8.451 -0.7962  0.9071  0.9662
 3280TIP3   OH231474   1.255   4.950   1.008 -0.2787 -0.3978 -0.2834
 3280TIP3    H131475   1.307   4.931   1.086  0.7270  2.2444 -0.2149
 3280TIP3    H231476   1.233   4.863   0.973  0.8591 -1.6431  1.8445
 3281TIP3   OH231477   0.957   1.896   1.362  0.2073  0.1358  0.1529
 3281TIP3    H131478   0.981   1.975   1.411  1.3548  0.3888 -0.7681
 3281TIP3    H231479   0.862   1.902   1.353  0.3461  1.8974 -0.6577
 3282TIP3   OH231480   5.949   3.053   8.037 -0.2006  0.5280  0.2585
 3282TIP3    H131481   5.858   3.037   8.015  0.3207 -1.5189 -0.6029
 3282TIP3    H231482   5.981   3.111   7.968 -0.2994 -0.5149 -0.6779
 3283TIP3   OH231483   3.942   3.125   1.939  0.0384  0.3748  0.4185
 3283TIP3    H131484   3.860   3.084   1.911 -0.4750  0.3664  1.8682
 3283TIP3    H231485   3.999   3.052   1.963 -0.2647  0.4437  1.3638
 3284TIP3   OH231486   3.679   2.638   1.941 -0.5515 -0.4188 -0.6335
 3284TIP3    H131487   3.600   2.646   1.994 -0.2004 -0.1743 -0.1386
 3284TIP3    H231488   3.747   2.679   1.994  0.2830 -2.2214 -0.2307
 3285TIP3   OH231489   6.476   2.919   8.358 -0.1849 -0.2626 -0.3795
 3285TIP3    H131490   6.439   2.834   8.334 -0.3995  0.7817 -4.5352
 3285TIP3    H231491   6.570   2.907   8.351 -0.2111 -0.2252 -0.8406
 3286TIP3   OH231492   5.450   5.524   0.369 -0.0994 -0.3804 -0.4173
 3286TIP3    H131493   5.532   5.558   0.403 -0.8118  0.8522  0.1391
 3286TIP3    H231494   5.430   5.580   0.294 -1.5116  0.8184  0.7803
 3287TIP3   OH231495   1.678   1.664   0.185  0.0893  0.3394 -0.7163
 3287TIP3    H131496   1.767   1.630   0.190 -0.4191 -0.8342  1.0333
 3287TIP3    H231497   1.632   1.604   0.126  0.0382 -0.0852 -0.2523
 3288TIP3   OH231498   2.528   4.058   1.945 -0.2220 -0.0960  0.5048
 3288TIP3    H131499   2.518   4.078   2.038  1.0463 -1.1561  0.8995
 3288TIP3    H231500   2.439   4.036   1.916 -0.9389  1.9050  1.0057
 3289TIP3   OH231501   2.192   6.712   8.648 -0.0677  0.3060 -0.3430
 3289TIP3    H131502   2.129   6.694   8.718  0.2649 -0.5605 -0.2597
 3289TIP3    H231503   2.262   6.761   8.690 -0.4392  0.8348 -0.3301
 3290TIP3   OH231504   5.141   4.069   0.503  0.1186  0.2047  0.4324
 3290TIP3    H131505   5.164   3.994   0.447 -1.0038  0.6961 -0.7415
 3290TIP3    H231506   5.102   4.132   0.443 -0.8875  0.8719  1.7496
 3291TIP3   OH231507   4.329   0.991   0.922 -0.1615  0.1042  0.1022
 3291TIP3    H131508   4.369   0.955   1.001  0.6637  1.6075  0.3989
 3291TIP3    H231509   4.287   1.072   0.951 -2.5898 -0.8803 -0.4158
 3292TIP3   OH231510   3.898   2.039   0.758  0.2547  0.7315 -0.1298
 3292TIP3    H131511   3.809   2.075   0.753 -0.0021  0.2128  0.5718
 3292TIP3    H231512   3.952   2.104   0.714 -0.8240 -0.2532 -3.1114
 3293TIP3   OH231513   4.793   2.394   8.117  0.4398  0.3138  0.0717
 3293TIP3    H131514   4.850   2.427   8.047  0.1051 -0.4848 -0.5880
 3293TIP3    H231515   4.706   2.392   8.078  0.2259 -0.0066  0.5633
 3294TIP3   OH231516   4.545   0.387   8.589  0.4424  0.2822  0.3510
 3294TIP3    H131517   4.455   0.401   8.617  0.7417  1.5816  0.7469
 3294TIP3    H231518   4.546   0.413   8.497  0.1796 -0.8311  0.0196
 3295TIP3   OH231519   3.572   2.069   0.498 -0.2860 -0.4625 -0.2253
 3295TIP3    H131520   3.636   2.136   0.475  0.6790 -0.8637  1.1650
 3295TIP3    H231521   3.490   2.099   0.459  0.5267  0.5624 -1.2021
 3296TIP3   OH231522   5.335   5.673   1.739  0.4815  0.5414  0.4198
 3296TIP3    H131523   5.371   5.585   1.748 -3.4897 -1.4501 -1.0506
 3296TIP3    H231524   5.373   5.706   1.658  0.7711 -0.4877  0.1244
 3297TIP3   OH231525   2.985   6.041   7.538 -0.1051 -0.4910  0.6933
 3297TIP3    H131526   2.926   6.053   7.613  1.1734  0.3163  1.6264
 3297TIP3    H231527   3.045   5.972   7.566  0.5173 -0.0297  0.5220
 3298TIP3   OH231528   1.893   3.255   0.947  0.6147 -0.3665  0.1871
 3298TIP3    H131529   1.925   3.262   0.858  1.5700  1.2292  0.6061
 3298TIP3    H231530   1.971   3.240   1.000  0.6421  2.3975  1.0973
 3299TIP3   OH231531   2.869   6.244   8.251 -0.1376 -0.1440  0.2835
 3299TIP3    H131532   2.907   6.316   8.201 -0.6125 -1.0500 -1.4867
 3299TIP3    H231533   2.814   6.287   8.316  1.1790  1.1069  0.6301
 3300TIP3   OH231534   0.584   2.836   1.943 -0.4407 -0.5559 -0.3154
 3300TIP3    H131535   0.557   2.870   2.028 -0.6638 -1.8241  0.1481
 3300TIP3    H231536   0.663   2.785   1.962  0.2362  0.1557 -1.0847
 3301TIP3   OH231537   2.398   0.824   7.941  0.0491 -0.0069  0.0101
 3301TIP3    H131538   2.316   0.785   7.970 -0.5385 -0.5000 -2.1153
 3301TIP3    H231539   2.380   0.918   7.936 -0.0489  0.0030  0.5667
 3302TIP3   OH231540   6.111   1.410   8.528 -0.5136  0.0945  0.2240
 3302TIP3    H131541   6.025   1.429   8.566 -1.4661 -4.5744  0.9344
 3302TIP3    H231542   6.097   1.414   8.433 -1.0049  1.0028  0.3202
 3303TIP3   OH231543   5.862   6.123   7.267 -0.1852 -0.2309  0.3215
 3303TIP3    H131544   5.860   6.184   7.193  2.3556  0.9511  1.1027
 3303TIP3    H231545   5.832   6.040   7.230  0.8642  0.3323 -2.0285
 3304TIP3   OH231546   5.303   2.553   1.055 -0.0198  0.0898 -0.2866
 3304TIP3    H131547   5.348   2.504   1.123  2.0389  2.5797  0.2847
 3304TIP3    H231548   5.370   2.609   1.017 -1.9321  1.4843 -1.8058
 3305TIP3   OH231549   0.348   3.715   2.349  0.2453  0.3056 -0.0114
 3305TIP3    H131550   0.421   3.680   2.297  0.4036  0.5960  0.0128
 3305TIP3    H231551   0.345   3.808   2.326 -1.6701 -0.1478 -1.8597
 3306TIP3   OH231552   4.952   2.947   7.556 -0.4065  0.1739 -0.0363
 3306TIP3    H131553   4.886   2.981   7.616 -0.8246 -0.3363 -0.1960
 3306TIP3    H231554   4.942   3.000   7.477  0.9885  1.7022  0.7353
 3307TIP3   OH231555   1.102   6.594   7.457  0.3285 -0.1673 -0.0509
 3307TIP3    H131556   1.112   6.636   7.543  1.2856 -0.2140 -0.1256
 3307TIP3    H231557   1.008   6.591   7.442  0.0133 -1.7701  1.8250
 3308TIP3   OH231558   5.635   3.153   0.029 -0.3461  0.0239 -0.0822
 3308TIP3    H131559   5.657   3.120  -0.059  2.3860  1.5511 -0.0654
 3308TIP3    H231560   5.599   3.240   0.014  0.8353  0.5995  0.3060
 3309TIP3   OH231561   2.781   0.078   2.889 -0.1266 -0.0132 -0.4856
 3309TIP3    H131562   2.794   0.120   2.804 -0.2552  0.3738 -0.3196
 3309TIP3    H231563   2.718   0.009   2.873 -0.7966  0.6017 -0.5488
 3310TIP3   OH231564   1.973   3.074   1.165  0.0910  0.3121 -0.8645
 3310TIP3    H131565   2.039   3.006   1.177 -0.9392 -0.8626 -1.6110
 3310TIP3    H231566   2.024   3.155   1.156  1.3307 -0.3154  0.2208
 3311TIP3   OH231567   3.802   1.861   0.560  0.1573  0.4549  0.3409
 3311TIP3    H131568   3.887   1.905   0.556  1.2708 -1.2171  2.8968
 3311TIP3    H231569   3.758   1.902   0.634 -0.8451  0.5617 -0.2950
 3312TIP3   OH231570   6.612   1.514   2.324 -0.4446  0.1010  0.5368
 3312TIP3    H131571   6.556   1.591   2.330 -1.3413 -0.5525  0.6943
 3312TIP3    H231572   6.654   1.508   2.410 -2.4622 -1.1248  1.5074
 3313TIP3   OH231573   1.488   0.931   8.342  0.1673  0.3779 -0.1978
 3313TIP3    H131574   1.411   0.961   8.392  0.0691 -0.6851  0.3124
 3313TIP3    H231575   1.562   0.949   8.400  0.2183  0.6015 -0.3314
 3314TIP3   OH231576   3.077   0.759   8.940  0.4119  0.1775  0.1847
 3314TIP3    H131577   3.060   0.853   8.943  1.8463  0.4603  0.3708
 3314TIP3    H231578   3.157   0.750   8.887  0.2616 -0.9439  0.1088
 3315TIP3   OH231579   5.991   1.043   8.340 -0.0662  0.2041 -0.1488
 3315TIP3    H131580   5.969   1.131   8.371  1.1481  0.4492  0.0752
 3315TIP3    H231581   6.075   1.023   8.383 -0.6200 -1.3113  0.2817
 3316TIP3   OH231582   1.907   4.138   8.952 -0.3181 -0.4378 -0.0757
 3316TIP3    H131583   1.911   4.156   9.046 -0.8797 -1.4380  0.1501
 3316TIP3    H231584   1.915   4.043   8.945 -0.5577 -0.3978 -1.0205
 3317TIP3   OH231585   0.885   1.635   7.461 -0.0316 -0.1561 -0.6511
 3317TIP3    H131586   0.893   1.728   7.482 -0.2656 -0.1061 -0.7951
 3317TIP3    H231587   0.806   1.627   7.409 -0.3124 -0.5133 -0.1820
 3318TIP3   OH231588   6.025   3.506   8.358 -0.2486  0.2475  0.2679
 3318TIP3    H131589   5.958   3.540   8.416 -1.9881 -1.1196 -0.8555
 3318TIP3    H231590   6.071   3.439   8.410 -0.3001  0.5995  0.7691
 3319TIP3   OH231591   3.986   1.786   2.502 -0.3469 -0.4657 -0.3795
 3319TIP3    H131592   4.057   1.734   2.539 -0.1922 -0.0564 -0.0951
 3319TIP3    H231593   4.023   1.874   2.491 -1.0335 -0.0505  0.5017
 3320TIP3   OH231594   1.954   1.809   2.965  0.0247  0.0055 -0.2918
 3320TIP3    H131595   1.955   1.847   2.878 -2.2088 -0.3457 -0.5163
 3320TIP3    H231596   1.979   1.881   3.023 -0.6489  0.8402 -1.0268
 3321TIP3   OH231597   5.553   4.519   8.316 -0.1098  0.1282  0.4527
 3321TIP3    H131598   5.473   4.542   8.269  0.7229 -0.1005 -1.1483
 3321TIP3    H231599   5.549   4.424   8.324 -0.2799  0.1724  0.9226
 3322TIP3   OH231600   3.047   1.678   8.522  0.2997  0.8238  0.3367
 3322TIP3    H131601   3.088   1.763   8.532  1.6699  0.2327  0.0340
 3322TIP3    H231602   2.958   1.689   8.555  0.4641  2.3524  0.3045
 3323TIP3   OH231603   6.119   4.498   8.792  0.8975  0.5442  0.5561
 3323TIP3    H131604   6.112   4.585   8.830  1.0452  0.8251 -0.0507
 3323TIP3    H231605   6.085   4.439   8.860  1.8910  0.9481  1.4344
 3324TIP3   OH231606   2.944   6.285   0.419 -0.5151 -0.3009 -0.5514
 3324TIP3    H131607   2.857   6.268   0.383 -0.8505  0.0243  0.0866
 3324TIP3    H231608   2.944   6.242   0.504  0.1240 -0.7151 -0.7556
 3325TIP3   OH231609   6.359   3.778   6.825 -0.2833 -0.5337  0.2030
 3325TIP3    H131610   6.318   3.727   6.755  0.4103 -0.7125 -0.0800
 3325TIP3    H231611   6.416   3.840   6.779  1.4026 -1.7004  0.6201
 3326TIP3   OH231612   4.322   3.667   1.470 -0.6303 -0.2869  0.7482
 3326TIP3    H131613   4.304   3.760   1.460 -2.1585 -0.5209  1.1621
 3326TIP3    H231614   4.370   3.643   1.390 -1.1538  0.6280  0.1504
 3327TIP3   OH231615   2.179   6.118   8.251  0.2607  0.3349 -0.3449
 3327TIP3    H131616   2.226   6.162   8.180  0.0682 -2.2884 -2.2059
 3327TIP3    H231617   2.090   6.154   8.247  0.4371  0.7196 -0.9306
 3328TIP3   OH231618   2.426   0.772   0.254  0.4339  0.1702 -0.0935
 3328TIP3    H131619   2.468   0.858   0.252 -0.0063  0.4894  2.0888
 3328TIP3    H231620   2.333   0.791   0.268  0.0693 -0.6303 -1.3203
 3329TIP3   OH231621   3.164   6.720   2.147 -0.3063  0.2805 -0.3055
 3329TIP3    H131622   3.145   6.794   2.090  0.3843  1.2352  0.6428
 3329TIP3    H231623   3.246   6.684   2.113 -1.0263 -0.5298 -1.2145
 3330TIP3   OH231624   2.883   1.205   0.121  0.0245 -0.0172 -0.0731
 3330TIP3    H131625   2.816   1.272   0.131  1.4540  1.2748  1.2011
 3330TIP3    H231626   2.842   1.139   0.065 -2.9342 -0.1621  2.0717
 3331TIP3   OH231627   4.353   3.180   0.718 -0.0363 -0.1429 -0.1829
 3331TIP3    H131628   4.439   3.160   0.757  0.3159  0.6311 -0.5400
 3331TIP3    H231629   4.366   3.166   0.624 -0.3288 -0.0930 -0.2295
 3332TIP3   OH231630   0.036   2.692   9.034  0.2118 -0.2933  0.2788
 3332TIP3    H131631   0.080   2.695   9.118 -0.1391 -1.3988  0.5127
 3332TIP3    H231632  -0.033   2.627   9.045  0.8319 -1.2416 -1.1727
 3333TIP3   OH231633   1.716   4.714   1.203  0.3970  0.0770  0.3148
 3333TIP3    H131634   1.714   4.692   1.109  2.2280  0.7326  0.0743
 3333TIP3    H231635   1.685   4.804   1.207  3.5876  1.3472 -0.2025
 3334TIP3   OH231636   5.633   1.195   7.805  0.1784 -0.3449  0.1836
 3334TIP3    H131637   5.617   1.105   7.778  1.1397 -0.5080  0.1474
 3334TIP3    H231638   5.585   1.248   7.741  0.2115 -0.8066 -0.2276
 3335TIP3   OH231639   4.403   0.224   1.820  0.1208 -1.0492 -0.1344
 3335TIP3    H131640   4.320   0.255   1.784  2.0513  3.6022 -1.2687
 3335TIP3    H231641   4.398   0.243   1.913 -0.5496 -2.0828  0.0507
 3336TIP3   OH231642   2.295   3.587   8.040  0.0358 -0.8709  0.7906
 3336TIP3    H131643   2.327   3.648   7.973  1.1948  0.8515  2.7989
 3336TIP3    H231644   2.200   3.587   8.030  0.2264 -2.0925 -1.9697
 3337TIP3   OH231645   3.454   4.877   0.434 -0.6017  0.0554 -0.5924
 3337TIP3    H131646   3.376   4.823   0.446  0.1970 -1.4763 -1.9305
 3337TIP3    H231647   3.493   4.883   0.521 -0.5714 -1.7995 -0.4333
 3338TIP3   OH231648   4.814   5.999   1.676 -0.3309 -0.0197 -0.0432
 3338TIP3    H131649   4.812   5.922   1.619  0.6901 -1.8167  2.1738
 3338TIP3    H231650   4.905   6.026   1.678 -0.2659 -0.2557  1.0142
 3339TIP3   OH231651   6.397   4.869   0.413  0.0646 -0.5787  0.2137
 3339TIP3    H131652   6.375   4.962   0.409  0.6514 -0.4631 -1.0813
 3339TIP3    H231653   6.312   4.824   0.408 -0.1538 -0.1047 -0.6705
 3340TIP3   OH231654   3.685   3.867   7.618 -1.0646  0.4996 -0.1916
 3340TIP3    H131655   3.711   3.780   7.646 -0.0781  0.4639 -1.1142
 3340TIP3    H231656   3.707   3.924   7.692 -3.0063 -0.1844  0.9575
 3341TIP3   OH231657   6.209   3.502   8.993  0.4801 -0.2156 -0.3656
 3341TIP3    H131658   6.304   3.495   8.998  0.6430  0.2571 -2.0530
 3341TIP3    H231659   6.192   3.533   8.904 -1.1279  2.2167  0.6868
 3342TIP3   OH231660   6.039   4.655   8.426 -0.1378  0.4137 -0.2942
 3342TIP3    H131661   5.946   4.673   8.443 -0.1051  0.8104 -0.5399
 3342TIP3    H231662   6.057   4.575   8.476 -0.9388 -0.3797 -1.2287
 3343TIP3   OH231663   5.565   3.918   1.889  0.1877 -0.6897 -0.1090
 3343TIP3    H131664   5.545   3.845   1.830 -0.3803 -0.6688  0.0546
 3343TIP3    H231665   5.481   3.962   1.903  0.4049 -0.4042  0.3242
 3344TIP3   OH231666   0.723   4.629   8.179  0.0828  0.2538 -0.1057
 3344TIP3    H131667   0.776   4.706   8.204 -0.6558  0.5676  0.5277
 3344TIP3    H231668   0.771   4.555   8.216  1.2283  0.3033 -1.3917
 3345TIP3   OH231669   4.049   3.557   2.000 -0.5375  0.0922  0.2649
 3345TIP3    H131670   3.997   3.495   1.949 -0.9202  1.3123 -0.9228
 3345TIP3    H231671   4.132   3.563   1.953 -0.9645  1.3730 -0.3854
 3346TIP3   OH231672   0.476   4.168   6.844  0.4909  0.8410  1.2134
 3346TIP3    H131673   0.404   4.107   6.863  0.0361  0.9328 -0.1145
 3346TIP3    H231674   0.521   4.130   6.769  0.8002  1.6321  0.9844
 3347TIP3   OH231675   1.086   0.557   1.033  0.1076  0.0032 -0.1573
 3347TIP3    H131676   1.175   0.584   1.010  0.3982 -0.2394  0.6531
 3347TIP3    H231677   1.095   0.513   1.117 -0.6016 -1.1824 -0.6835
 3348TIP3   OH231678   6.768   3.234   6.660  0.0732  0.3492  0.0212
 3348TIP3    H131679   6.681   3.203   6.684  0.7533 -2.3795 -0.6544
 3348TIP3    H231680   6.799   3.171   6.594  2.0315  2.0118 -0.7689
 3349TIP3   OH231681   4.241   4.939   1.389 -0.1298  0.0419  0.2809
 3349TIP3    H131682   4.330   4.973   1.384 -0.2700  0.2813 -0.8697
 3349TIP3    H231683   4.223   4.907   1.301 -1.4630  0.7315  0.2778
 3350TIP3   OH231684   4.241   3.322   1.206 -0.0318 -0.2367  0.0255
 3350TIP3    H131685   4.197   3.273   1.137 -1.5331  0.6956  0.2951
 3350TIP3    H231686   4.188   3.400   1.219  1.6065  0.8715  0.4873
 3351TIP3   OH231687   4.730   2.521   1.454 -0.6949  0.3443 -0.7386
 3351TIP3    H131688   4.824   2.516   1.472 -1.3602 -2.1411  3.4103
 3351TIP3    H231689   4.716   2.462   1.381  0.8668  0.2842 -1.0260
 3352TIP3   OH231690   0.345   2.986   7.690 -0.1774 -0.4581 -0.2465
 3352TIP3    H131691   0.254   3.017   7.684  0.2273  0.4812 -1.8559
 3352TIP3    H231692   0.392   3.059   7.731 -0.0849 -0.8730  0.4117
 3353TIP3   OH231693   2.095   6.482   8.134  0.6184 -0.5756  0.2188
 3353TIP3    H131694   2.189   6.465   8.141  1.0047  0.1086 -2.2604
 3353TIP3    H231695   2.080   6.559   8.189  1.8689  0.3000 -0.6124
 3354TIP3   OH231696   3.478   5.109   3.025  0.6575 -0.1844  0.4887
 3354TIP3    H131697   3.460   5.062   2.943  1.6454 -0.0722  0.1888
 3354TIP3    H231698   3.443   5.197   3.010 -0.5551 -0.6046  0.7821
 3355TIP3   OH231699   1.018   2.600   1.240 -0.2042  0.7957 -0.1916
 3355TIP3    H131700   1.020   2.559   1.153 -0.6257  1.9046 -0.7420
 3355TIP3    H231701   1.094   2.658   1.240  0.4614 -0.0524  0.6303
 3356TIP3   OH231702   1.668   2.663   6.728  0.1379 -0.1431  0.0742
 3356TIP3    H131703   1.736   2.699   6.786 -1.1159  1.5908  0.5520
 3356TIP3    H231704   1.714   2.600   6.673  2.0452  0.6407  0.6910
 3357TIP3   OH231705   3.900   3.846   7.308  0.1368 -0.2005 -0.1563
 3357TIP3    H131706   3.952   3.798   7.372 -0.0169 -0.2436 -0.0643
 3357TIP3    H231707   3.824   3.790   7.291 -1.7135  1.3424  2.2993
 3358TIP3   OH231708   1.031   4.839   7.424 -0.0964  0.2008  0.2493
 3358TIP3    H131709   1.074   4.912   7.380  0.5515 -0.7877 -0.8179
 3358TIP3    H231710   1.102   4.778   7.443 -0.8704 -1.0132 -0.6257
 3359TIP3   OH231711   1.327   4.911   6.856 -0.4516 -0.5257 -0.3156
 3359TIP3    H131712   1.302   5.002   6.872 -1.0813 -0.7934  0.2557
 3359TIP3    H231713   1.396   4.916   6.790  0.8531  0.4838  1.0672
 3360TIP3   OH231714   1.534   0.521   7.640  0.3242  0.0735 -0.4167
 3360TIP3    H131715   1.571   0.604   7.611  0.4007  0.2802  0.2756
 3360TIP3    H231716   1.594   0.455   7.604  0.5907  0.3419 -0.4683
 3361TIP3   OH231717   1.014   3.226   8.158  0.2365 -0.4343 -0.3786
 3361TIP3    H131718   1.040   3.205   8.068 -3.2323 -1.9056 -1.1723
 3361TIP3    H231719   1.033   3.147   8.208 -0.1268 -0.5059 -0.3549
 3362TIP3   OH231720   0.375   0.538   7.232  0.5027 -0.1359  0.4689
 3362TIP3    H131721   0.470   0.531   7.236  0.5551  1.1445  2.5846
 3362TIP3    H231722   0.358   0.613   7.175  0.8457  0.7019  1.4442
 3363TIP3   OH231723   0.698   1.254   0.109 -0.3455 -0.0840  0.2662
 3363TIP3    H131724   0.713   1.342   0.144  0.2372  0.2041 -0.6764
 3363TIP3    H231725   0.776   1.234   0.059 -2.1691  0.6409 -3.1717
 3364TIP3   OH231726   5.304   3.400   7.527 -0.5312 -0.4313  0.1029
 3364TIP3    H131727   5.390   3.405   7.486 -0.6663 -1.8914 -0.4459
 3364TIP3    H231728   5.313   3.448   7.609  1.0104 -1.1149  0.3768
 3365TIP3   OH231729   3.708   3.258   0.842 -0.1158 -0.3528  0.6010
 3365TIP3    H131730   3.639   3.261   0.908 -1.5582 -0.5433 -0.8519
 3365TIP3    H231731   3.731   3.350   0.827 -0.6460 -0.2361  0.4871
 3366TIP3   OH231732   0.079   5.168   1.776  0.3264  0.2960  0.1079
 3366TIP3    H131733   0.046   5.110   1.844 -1.3764 -0.1738 -1.0511
 3366TIP3    H231734   0.173   5.147   1.770  0.4155  0.0150  1.9170
 3367TIP3   OH231735   2.730   5.556   8.494  0.4754 -0.1812  0.0172
 3367TIP3    H131736   2.810   5.608   8.488  1.7273 -1.7784  1.7142
 3367TIP3    H231737   2.669   5.612   8.542  0.4549  1.1208 -1.4368
 3368TIP3   OH231738   2.226   3.015   0.770 -0.5839  0.2844  0.2389
 3368TIP3    H131739   2.267   3.062   0.842  0.8477  0.1249 -0.4212
 3368TIP3    H231740   2.161   3.075   0.735  1.6207  2.1440 -0.9729
 3369TIP3   OH231741   6.442   2.090   2.442  0.1808 -0.3403  0.3910
 3369TIP3    H131742   6.369   2.029   2.451 -0.2252 -0.0353 -0.6613
 3369TIP3    H231743   6.489   2.060   2.363  0.5908  0.0744  0.4738
 3370TIP3   OH231744   4.107   1.511   8.975 -0.1069  0.0564  0.3886
 3370TIP3    H131745   4.051   1.537   8.902 -0.4812 -1.7539 -0.0093
 3370TIP3    H231746   4.192   1.494   8.934 -0.6163 -2.0916  0.1367
 3371TIP3   OH231747   4.434   4.005   6.879 -0.4585 -0.5946  0.3276
 3371TIP3    H131748   4.499   4.073   6.896  0.0606 -1.0961  0.3703
 3371TIP3    H231749   4.368   4.049   6.824 -0.2927  0.0237  0.6096
 3372TIP3   OH231750   1.501   4.998   0.425  0.3377  0.0418 -0.0215
 3372TIP3    H131751   1.432   4.966   0.482 -1.4406 -0.3452 -2.2426
 3372TIP3    H231752   1.470   5.084   0.396  1.7370  0.7245  0.4214
 3373TIP3   OH231753   3.224   3.812   7.355 -0.1008 -0.1118 -0.6080
 3373TIP3    H131754   3.287   3.791   7.425 -0.7567  0.5038  0.1946
 3373TIP3    H231755   3.230   3.907   7.345 -2.5449  0.3413  1.1744
 3374TIP3   OH231756   2.173   5.611   1.264  0.1443  0.1314  0.0527
 3374TIP3    H131757   2.114   5.559   1.210  0.5365 -0.5414  0.2623
 3374TIP3    H231758   2.223   5.663   1.201  0.2784 -0.3049 -0.2048
 3375TIP3   OH231759   1.460   3.437   7.714  0.3709  0.1462  0.2967
 3375TIP3    H131760   1.531   3.440   7.650  2.0311  0.2758  2.0420
 3375TIP3    H231761   1.458   3.346   7.743  0.5479  0.3484  0.9782
 3376TIP3   OH231762   6.049   4.627   2.264 -0.3171  0.2141  0.3506
 3376TIP3    H131763   5.963   4.657   2.234 -0.2646 -0.3508 -0.3859
 3376TIP3    H231764   6.052   4.535   2.239  0.2707  0.0804  0.9063
 3377TIP3   OH231765   3.555   4.871   7.599  0.1639 -0.7882  0.1915
 3377TIP3    H131766   3.602   4.948   7.568  0.3874 -1.0944 -0.2447
 3377TIP3    H231767   3.583   4.861   7.691 -0.4918  0.1132  0.4912
 3378TIP3   OH231768   3.010   2.890   0.472 -0.0613  0.5280 -0.4090
 3378TIP3    H131769   2.993   2.963   0.532 -0.1561 -1.3675  2.0378
 3378TIP3    H231770   2.961   2.817   0.510  0.5919 -0.9938 -2.3602
 3379TIP3   OH231771   2.066   1.455   8.199  0.4354 -0.4912 -0.0769
 3379TIP3    H131772   2.055   1.466   8.105  0.4031 -0.3887 -0.0612
 3379TIP3    H231773   2.056   1.361   8.214  0.6870 -0.5371 -0.2075
 3380TIP3   OH231774   0.920   0.427   1.508 -0.1594  0.3794 -0.2582
 3380TIP3    H131775   0.854   0.490   1.534 -0.9751 -0.4347 -0.3339
 3380TIP3    H231776   0.877   0.342   1.513  1.1387 -0.2610  0.5589
 3381TIP3   OH231777   0.992   5.546   0.829  0.2436 -0.1204 -0.5342
 3381TIP3    H131778   1.016   5.568   0.739  0.0332  2.2802 -0.0678
 3381TIP3    H231779   1.075   5.546   0.877  0.1603  0.4682 -0.3850
 3382TIP3   OH231780   5.705   4.992   0.675 -0.0564  0.5962  0.0833
 3382TIP3    H131781   5.647   4.923   0.643 -2.2877  1.8683  1.1626
 3382TIP3    H231782   5.751   4.953   0.749 -1.3181  0.2424  0.7055
 3383TIP3   OH231783   2.326   4.164   7.999 -0.3325 -0.0904  0.5608
 3383TIP3    H131784   2.376   4.154   8.079 -0.1050  1.0576  0.5721
 3383TIP3    H231785   2.275   4.244   8.012  1.9055  1.8592 -1.5433
 3384TIP3   OH231786   5.358   3.749   7.750 -0.6448 -0.7558  0.2918
 3384TIP3    H131787   5.337   3.841   7.765  0.8564 -0.4016  0.3129
 3384TIP3    H231788   5.382   3.745   7.657 -1.0641 -1.2031  0.2002
 3385TIP3   OH231789   3.871   3.682   0.561  0.4249  0.5945  0.4749
 3385TIP3    H131790   3.825   3.758   0.525 -0.5769 -0.4980 -0.6757
 3385TIP3    H231791   3.962   3.709   0.567  0.4728  1.2053 -2.0066
 3386TIP3   OH231792   1.767   0.431   7.277  0.2681  0.3375 -0.0039
 3386TIP3    H131793   1.672   0.433   7.288  0.0333  0.6769 -1.7736
 3386TIP3    H231794   1.786   0.343   7.245  0.7839 -0.2841  1.9059
 3387TIP3   OH231795   1.208   0.220   1.454 -0.2848  0.0134 -0.1525
 3387TIP3    H131796   1.146   0.155   1.422 -0.9332  0.7216 -0.3790
 3387TIP3    H231797   1.287   0.170   1.475 -0.4847 -0.7340 -1.0950
 3388TIP3   OH231798   4.450   2.616   1.243  0.5049 -0.4830 -0.3669
 3388TIP3    H131799   4.512   2.687   1.229  0.2056 -0.0370  0.4855
 3388TIP3    H231800   4.449   2.568   1.160  1.6580 -0.2514 -0.5342
 3389TIP3   OH231801   2.170   1.338   1.991  0.2951  0.2045 -0.3430
 3389TIP3    H131802   2.120   1.260   2.013 -0.9477  0.8373 -0.8085
 3389TIP3    H231803   2.257   1.306   1.969 -0.2592 -1.0761 -0.7481
 3390TIP3   OH231804   4.189   6.034   8.172  0.6588 -0.1128  0.6509
 3390TIP3    H131805   4.179   6.056   8.080 -0.6388  1.9181  1.2332
 3390TIP3    H231806   4.268   5.980   8.175  1.7793  1.3030 -1.4122
 3391TIP3   OH231807   5.440   3.144   0.651 -0.0156  0.2893  0.2634
 3391TIP3    H131808   5.460   3.114   0.562 -1.0993 -0.5721  0.2753
 3391TIP3    H231809   5.365   3.090   0.677  0.1247  0.7131  1.6034
 3392TIP3   OH231810   4.295   4.658   6.540 -0.4009  0.3056  0.2179
 3392TIP3    H131811   4.282   4.706   6.621 -1.7874  0.6532 -0.1862
 3392TIP3    H231812   4.334   4.722   6.480 -1.2048  0.6184  0.0204
 3393TIP3   OH231813   0.676   4.984   8.062  0.2130 -0.0918 -0.2904
 3393TIP3    H131814   0.751   4.939   8.025 -0.0292 -1.5424  0.8792
 3393TIP3    H231815   0.602   4.926   8.044 -0.2398  0.2160  0.5258
 3394TIP3   OH231816   2.387   5.428   8.673 -0.1844 -0.5524  0.2465
 3394TIP3    H131817   2.426   5.363   8.731  2.6485 -1.2158 -2.1352
 3394TIP3    H231818   2.326   5.378   8.619 -1.5294 -0.2584  1.4426
 3395TIP3   OH231819   0.020   3.658   7.077  0.0750 -0.5109 -0.3779
 3395TIP3    H131820  -0.011   3.743   7.049  0.7821 -0.5021 -1.1688
 3395TIP3    H231821   0.050   3.671   7.167 -0.2776 -0.0472 -0.3294
 3396TIP3   OH231822   1.067   3.507   7.415 -0.1033 -0.6171  0.7878
 3396TIP3    H131823   1.069   3.411   7.408 -1.1066 -0.8821  3.0805
 3396TIP3    H231824   0.976   3.528   7.434 -0.1351  0.9501 -0.9203
 3397TIP3   OH231825   1.537   2.417   8.192  0.0410 -0.0745 -0.0496
 3397TIP3    H131826   1.582   2.374   8.120 -0.1722  0.6176 -0.6062
 3397TIP3    H231827   1.524   2.348   8.257  1.9076 -0.2761  0.1413
 3398TIP3   OH231828   6.137   5.644   1.678 -0.2078  0.1840  0.0876
 3398TIP3    H131829   6.195   5.712   1.645 -0.8142  0.5951 -0.1486
 3398TIP3    H231830   6.069   5.637   1.611 -1.0829  0.5502  0.9207
 3399TIP3   OH231831   4.158   5.328   0.877  0.3978  0.3362 -0.3536
 3399TIP3    H131832   4.129   5.326   0.968 -2.2499  1.1688 -1.0857
 3399TIP3    H231833   4.204   5.245   0.865 -1.4342 -1.0062  1.1037
 3400TIP3   OH231834   4.138   5.417   8.284 -0.0807  0.0052 -0.0566
 3400TIP3    H131835   4.183   5.494   8.319  0.9840 -1.1703  1.2717
 3400TIP3    H231836   4.150   5.424   8.189  2.3938  0.1091  0.1939
 3401TIP3   OH231837   0.782   2.746   1.266 -0.5698  0.2928 -0.0153
 3401TIP3    H131838   0.751   2.739   1.356  0.1341 -0.3726  0.1836
 3401TIP3    H231839   0.858   2.689   1.262 -1.3621 -0.7447 -1.3890
 3402TIP3   OH231840   1.199   0.791   0.723  0.0566 -0.2256  0.7463
 3402TIP3    H131841   1.130   0.733   0.692  1.5450 -1.6355 -0.0400
 3402TIP3    H231842   1.175   0.810   0.814 -1.6398 -0.2001  0.3292
 3403TIP3   OH231843   6.401   0.281   9.038 -0.5005 -0.0263 -0.7298
 3403TIP3    H131844   6.337   0.211   9.034 -0.3708 -0.1446 -0.7228
 3403TIP3    H231845   6.451   0.274   8.956 -0.4981  0.0668 -0.7371
 3404TIP3   OH231846   4.542   2.347   7.399 -0.2745 -0.1576 -0.5220
 3404TIP3    H131847   4.634   2.323   7.403 -0.2454  0.1087  1.4676
 3404TIP3    H231848   4.524   2.359   7.306  1.6249 -0.4656 -0.9616
 3405TIP3   OH231849   0.906   1.117   8.836  0.3650 -0.1965  0.0239
 3405TIP3    H131850   0.812   1.104   8.845  0.3296  1.0807  2.0471
 3405TIP3    H231851   0.915   1.203   8.795  0.6262  0.6306  1.7565
 3406TIP3   OH231852   4.731   6.604   0.352 -0.0261  0.3596 -0.5243
 3406TIP3    H131853   4.813   6.613   0.303  0.1678 -0.2523 -0.3080
 3406TIP3    H231854   4.751   6.639   0.439 -0.4359  1.6685 -0.9269
 3407TIP3   OH231855   1.614   2.861   2.542  0.6114  0.0340 -0.4114
 3407TIP3    H131856   1.538   2.914   2.519 -0.7075 -1.0302  1.2351
 3407TIP3    H231857   1.580   2.771   2.548  1.7271 -0.3289  1.3238
 3408TIP3   OH231858   1.143   0.686   7.049  0.4189  0.3270 -0.0136
 3408TIP3    H131859   1.132   0.759   6.989  2.5557 -0.6527 -1.7265
 3408TIP3    H231860   1.202   0.626   7.004 -0.4184 -2.0040  1.7494
 3409TIP3   OH231861   4.569   6.027   0.828 -0.1164 -0.0173 -0.5116
 3409TIP3    H131862   4.587   5.934   0.819  1.5482 -0.1737  2.8137
 3409TIP3    H231863   4.642   6.070   0.784 -0.1903 -0.3238 -0.9334
 3410TIP3   OH231864   2.990   5.195   7.487  0.1364 -0.7516  0.1111
 3410TIP3    H131865   2.923   5.130   7.509 -0.9630  0.2272 -0.2194
 3410TIP3    H231866   2.979   5.209   7.393 -0.6175  0.9282  0.4133
 3411TIP3   OH231867   5.200   1.412   0.011  0.1019  0.7015 -0.6886
 3411TIP3    H131868   5.108   1.418   0.037 -1.0532 -0.2881 -4.0960
 3411TIP3    H231869   5.202   1.347  -0.059  3.0241  2.2926 -2.2834
 3412TIP3   OH231870   0.828   0.405   8.351  0.0604  0.5503  0.4429
 3412TIP3    H131871   0.834   0.311   8.370  0.0263  0.5263  0.3360
 3412TIP3    H231872   0.738   0.428   8.375  0.3889  0.7915  1.5159
 3413TIP3   OH231873   5.432   5.492   1.057  0.0287  0.2826  0.6275
 3413TIP3    H131874   5.460   5.578   1.087  1.1568 -0.0968  0.6805
 3413TIP3    H231875   5.467   5.484   0.969 -2.1582  0.8513 -0.3612
 3414TIP3   OH231876   0.743   5.658   0.807  0.2466  0.4164 -0.6913
 3414TIP3    H131877   0.829   5.615   0.811  0.0439  0.0662  0.2409
 3414TIP3    H231878   0.735   5.688   0.716  1.9926  1.7641 -0.4572
 3415TIP3   OH231879   1.538   3.529   0.194  0.0640  0.1510  0.9371
 3415TIP3    H131880   1.494   3.490   0.119  1.9640 -0.9036  0.2953
 3415TIP3    H231881   1.493   3.612   0.208 -0.9370 -0.0558 -0.7614
 3416TIP3   OH231882   6.642   4.818   0.068 -0.3186 -0.1765  0.5270
 3416TIP3    H131883   6.564   4.873   0.076 -0.9019 -0.8421 -0.3447
 3416TIP3    H231884   6.707   4.874   0.026 -0.6020  0.1332  0.4998
 3417TIP3   OH231885   3.036   6.334   0.999  0.1023  0.2968  0.1398
 3417TIP3    H131886   2.968   6.336   0.931  1.4214  0.5985 -1.2375
 3417TIP3    H231887   2.988   6.340   1.081 -1.5646 -0.1149 -0.7580
 3418TIP3   OH231888   4.255   0.883   8.928  0.3326  0.2171  0.1463
 3418TIP3    H131889   4.309   0.898   9.005  1.3068  0.7918 -0.6153
 3418TIP3    H231890   4.236   0.970   8.894 -1.0918  0.0216  0.3878
 3419TIP3   OH231891   2.890   4.232   7.319  0.0732  0.0153  0.5136
 3419TIP3    H131892   2.858   4.146   7.293 -0.1750 -0.1187  1.2368
 3419TIP3    H231893   2.812   4.281   7.345  0.3294  0.0442  1.2616
 3420TIP3   OH231894   1.807   1.392   0.511 -0.0605 -0.1147  0.2631
 3420TIP3    H131895   1.876   1.443   0.554 -2.3778  1.6286  2.1700
 3420TIP3    H231896   1.811   1.306   0.554  1.6423 -0.4842 -0.5364
 3421TIP3   OH231897   5.137   4.612   7.479  0.2808  0.1301 -0.0285
 3421TIP3    H131898   5.194   4.583   7.550  1.2081 -1.7988 -1.4849
 3421TIP3    H231899   5.066   4.548   7.478 -1.1359  1.6160  0.7497
 3422TIP3   OH231900   5.570   2.594   0.011 -0.1294  0.1117  0.2666
 3422TIP3    H131901   5.643   2.560   0.063 -0.7277 -0.4373  0.7477
 3422TIP3    H231902   5.544   2.674   0.057  1.0823  1.1255 -0.7016
 3423TIP3   OH231903   2.252   0.497   8.232  0.2926  0.0228 -0.2470
 3423TIP3    H131904   2.310   0.430   8.193  0.5165 -0.1492  0.3775
 3423TIP3    H231905   2.249   0.475   8.325 -1.8295 -0.7562 -0.4421
 3424TIP3   OH231906   5.010   6.051   0.422  0.2720 -0.2069 -0.1533
 3424TIP3    H131907   4.946   5.981   0.428  0.9116 -0.7589  0.3482
 3424TIP3    H231908   5.055   6.050   0.506 -0.0657  1.1627  0.0748
 3425TIP3   OH231909   2.813   1.421   1.699  0.3357  0.0043 -0.0445
 3425TIP3    H131910   2.889   1.401   1.644 -0.4360  0.7361 -1.4330
 3425TIP3    H231911   2.738   1.396   1.645 -0.4728  1.4906  0.3464
 3426TIP3   OH231912   0.284   1.294   6.467  0.4688 -0.3998  0.0841
 3426TIP3    H131913   0.303   1.375   6.516  1.3345 -0.5282 -0.0119
 3426TIP3    H231914   0.364   1.278   6.417 -0.0748 -0.7722 -0.6718
 3427TIP3   OH231915   1.409   1.689   0.308 -0.2875  0.2694  0.2912
 3427TIP3    H131916   1.500   1.661   0.312 -0.6285 -0.7745  1.8656
 3427TIP3    H231917   1.365   1.623   0.255 -0.1786  0.6478 -0.2768
 3428TIP3   OH231918   2.951   5.444   8.859  0.1384 -0.7960 -0.0718
 3428TIP3    H131919   3.022   5.383   8.879  0.6541 -0.6249 -1.2903
 3428TIP3    H231920   2.995   5.528   8.848 -0.3790 -0.5018  0.0840
 3429TIP3   OH231921   5.071   4.750   8.638 -0.0171  0.0860  0.5014
 3429TIP3    H131922   5.104   4.836   8.612 -0.6965  0.7223  1.6891
 3429TIP3    H231923   5.133   4.688   8.600  0.2202  1.0692 -0.7744
 3430TIP3   OH231924   3.833   1.900   8.123 -0.2965 -0.1937  0.5787
 3430TIP3    H131925   3.754   1.854   8.094 -0.3310  0.6669 -0.8384
 3430TIP3    H231926   3.829   1.984   8.075  0.4479  0.6981  2.0248
 3431TIP3   OH231927   6.110   5.090   7.288 -0.1443  0.3937 -0.7041
 3431TIP3    H131928   6.174   5.096   7.217 -1.3435  0.4664 -1.8336
 3431TIP3    H231929   6.153   5.129   7.363  1.5424 -0.5987 -1.1112
 3432TIP3   OH231930   0.056   6.315   1.540  0.1778 -0.5865  0.2124
 3432TIP3    H131931   0.140   6.269   1.539  1.3157  1.1903  2.6310
 3432TIP3    H231932   0.063   6.377   1.467 -0.0852 -2.0689 -1.1099
 3433TIP3   OH231933   3.254   5.141   7.324 -0.2122  0.3291  0.1995
 3433TIP3    H131934   3.196   5.066   7.339 -0.4092  0.2221 -0.9955
 3433TIP3    H231935   3.342   5.108   7.345 -0.1606 -0.5732 -1.2630
 3434TIP3   OH231936   6.539   1.635   8.912  0.0247  0.0950  0.0058
 3434TIP3    H131937   6.588   1.613   8.991  0.1632  3.1112  0.8578
 3434TIP3    H231938   6.448   1.638   8.940  0.0415  0.8607 -0.0083
 3435TIP3   OH231939   1.190   2.557   0.755  0.6781  0.0052  0.4511
 3435TIP3    H131940   1.117   2.616   0.771  0.0061  0.5722 -3.5438
 3435TIP3    H231941   1.268   2.611   0.765  0.0769  1.8968 -3.1527
 3436TIP3   OH231942   1.913   5.117   7.180  0.2348 -0.4714 -0.2445
 3436TIP3    H131943   1.983   5.177   7.207  0.1831 -0.2073 -0.6970
 3436TIP3    H231944   1.927   5.040   7.235  1.9261 -1.1085 -1.4767
 3437TIP3   OH231945   4.000   2.682   2.641  0.3809  0.0014  0.0913
 3437TIP3    H131946   4.083   2.729   2.630  1.7336 -1.8012  1.8668
 3437TIP3    H231947   3.943   2.745   2.687  0.8238  1.1608 -0.8826
 3438TIP3   OH231948   2.907   4.961   7.931 -0.2319 -0.0743  0.6951
 3438TIP3    H131949   2.951   5.029   7.880  1.5254 -0.2748  1.8505
 3438TIP3    H231950   2.841   4.926   7.872  0.8435  0.5802 -0.9751
 3439TIP3   OH231951   3.523   3.881   1.694  0.2195  0.3563 -0.3566
 3439TIP3    H131952   3.450   3.909   1.749  0.1613 -0.5802  0.0572
 3439TIP3    H231953   3.577   3.959   1.685 -0.5581  0.9271 -0.2449
 3440TIP3   OH231954   3.754   1.101   1.707  0.0739  0.2006 -0.2764
 3440TIP3    H131955   3.836   1.131   1.747 -0.2477 -0.2008  0.7129
 3440TIP3    H231956   3.745   1.155   1.629  1.2549  0.2924 -0.3718
 3441TIP3   OH231957   0.150   3.599   0.046  0.2292  0.6528 -0.6222
 3441TIP3    H131958   0.200   3.629  -0.030 -2.1794  1.0178 -2.1795
 3441TIP3    H231959   0.145   3.504   0.035 -0.1622  0.7106 -0.9799
 3442TIP3   OH231960   5.586   2.779   2.902  0.7672  0.2939  0.1196
 3442TIP3    H131961   5.619   2.699   2.861 -1.3300 -0.3184 -0.5042
 3442TIP3    H231962   5.605   2.848   2.838  0.6233 -0.0807 -0.3288
 3443TIP3   OH231963   5.759   4.703   0.795 -0.0648 -0.3461 -0.1035
 3443TIP3    H131964   5.836   4.731   0.845  0.7322  0.2310 -1.5785
 3443TIP3    H231965   5.685   4.738   0.844  0.6462 -0.2274  0.9299
 3444TIP3   OH231966   1.017   2.454   0.200 -0.1708 -0.1596 -0.5488
 3444TIP3    H131967   0.958   2.529   0.198 -1.9976 -1.4722  0.5151
 3444TIP3    H231968   1.099   2.486   0.163 -1.3017  1.9698 -1.3543
 3445TIP3   OH231969   5.767   0.799   1.115 -0.6014 -0.1524  0.4973
 3445TIP3    H131970   5.860   0.812   1.133 -0.4919  0.7043 -0.6062
 3445TIP3    H231971   5.752   0.706   1.134  0.6473 -0.4881 -0.0294
 3446TIP3   OH231972   5.961   4.618   7.559 -0.8117  0.2349  0.6257
 3446TIP3    H131973   5.941   4.660   7.643 -0.8815  1.5429 -0.0146
 3446TIP3    H231974   6.019   4.680   7.515 -2.3391  0.5290 -1.0924
 3447TIP3   OH231975   0.286   3.100   0.009  0.2042  0.1545  0.3040
 3447TIP3    H131976   0.200   3.058   0.019  1.2645 -1.5827  3.8657
 3447TIP3    H231977   0.343   3.029  -0.022  1.1484 -0.0032  2.2393
 3448TIP3   OH231978   0.511   3.019   1.510 -0.6922 -0.2663 -0.5601
 3448TIP3    H131979   0.540   3.038   1.600 -1.3443 -1.5551 -0.0652
 3448TIP3    H231980   0.588   3.038   1.457  0.7524 -2.4266  0.6076
 3449TIP3   OH231981   5.370   2.155   7.273  0.2618  0.2554  0.0732
 3449TIP3    H131982   5.424   2.114   7.205 -0.8730 -0.5699 -0.3583
 3449TIP3    H231983   5.320   2.221   7.225 -1.6851 -1.3644 -0.2537
 3450TIP3   OH231984   0.112   5.500   8.234  0.4154  0.0674 -0.2833
 3450TIP3    H131985   0.189   5.549   8.263  0.5290 -0.4975  0.4085
 3450TIP3    H231986   0.143   5.451   8.157  0.3059  1.0415 -0.9624
 3451TIP3   OH231987   0.652   0.147   6.702 -0.5327 -0.0297  0.3685
 3451TIP3    H131988   0.662   0.127   6.795  2.5234 -0.3864  0.0656
 3451TIP3    H231989   0.590   0.081   6.670 -1.5750  0.0518  2.0708
 3452TIP3   OH231990   4.497   1.076   0.001  0.4944  0.1000 -0.3441
 3452TIP3    H131991   4.558   1.016   0.045 -0.1679 -1.2203 -1.1557
 3452TIP3    H231992   4.462   1.025  -0.072 -0.2455  1.4360 -0.9539
 3453TIP3   OH231993   0.829   4.285   8.801  0.0233  1.0562  0.3883
 3453TIP3    H131994   0.762   4.219   8.784 -1.5266  2.6876 -0.1127
 3453TIP3    H231995   0.799   4.331   8.879  1.0003  1.2845  0.6439
 3454TIP3   OH231996   1.808   3.172   0.550  0.1595 -0.7335 -0.3097
 3454TIP3    H131997   1.741   3.126   0.500  1.6217 -0.9115 -2.2602
 3454TIP3    H231998   1.852   3.227   0.485  0.4224  1.1383  1.3603
 3455TIP3   OH231999   6.055   3.250   7.239 -0.4959  0.1018 -1.0161
 3455TIP3    H132000   6.145   3.228   7.261 -0.6172 -0.9312 -1.5064
 3455TIP3    H232001   6.059   3.285   7.150 -0.5737  0.0584 -1.0374
 3456TIP3   OH232002   2.921   1.877   8.242 -0.0029  0.4619  0.3181
 3456TIP3    H132003   3.016   1.886   8.247 -0.0149  0.7377  0.0699
 3456TIP3    H232004   2.906   1.786   8.217  0.1961  0.4332  0.3057
 3457TIP3   OH232005   4.709   4.732   8.268  0.0006  0.1363  0.5205
 3457TIP3    H132006   4.719   4.690   8.354 -0.6084  0.6410  0.8463
 3457TIP3    H232007   4.796   4.766   8.248 -0.3368  2.0062  2.0018
 3458TIP3   OH232008   6.587   3.103   7.401  0.1317  0.1127  0.3186
 3458TIP3    H132009   6.591   3.047   7.478 -0.1008  0.5009  0.6167
 3458TIP3    H232010   6.630   3.185   7.428  2.1368 -0.5386 -0.6747
 3459TIP3   OH232011   3.621   2.114   0.770  0.7128 -0.5961 -0.1566
 3459TIP3    H132012   3.543   2.080   0.813  1.4811 -0.1632  1.6967
 3459TIP3    H232013   3.608   2.096   0.677 -1.7297 -0.2182  0.0558
 3460TIP3   OH232014   1.504   2.466   7.034 -0.3907 -0.2718 -0.0589
 3460TIP3    H132015   1.427   2.425   6.994 -1.0372  0.6856  0.1736
 3460TIP3    H232016   1.572   2.460   6.966 -1.0580  0.0607 -0.7806
 3461TIP3   OH232017   3.760   3.773   2.039  0.2870 -0.9425  0.0922
 3461TIP3    H132018   3.790   3.709   2.104  1.1490 -0.4848  0.1570
 3461TIP3    H232019   3.834   3.834   2.029 -0.1433 -0.5341 -0.7074
 3462TIP3   OH232020   6.736   5.601   8.001  0.0685  0.0976 -0.4701
 3462TIP3    H132021   6.732   5.603   8.096  1.9875 -2.1810 -0.2745
 3462TIP3    H232022   6.806   5.540   7.980  0.4401  1.3413 -3.3657
 3463TIP3   OH232023   4.229   3.516   0.592  0.4488  0.2013  0.1592
 3463TIP3    H132024   4.148   3.522   0.541 -0.5109 -0.8043  1.4935
 3463TIP3    H232025   4.240   3.604   0.629  0.0065  0.3520 -0.0589
 3464TIP3   OH232026   6.050   4.019   1.977  0.4798 -0.2296 -0.3526
 3464TIP3    H132027   6.064   3.928   2.002  0.3486 -0.2022 -0.1736
 3464TIP3    H232028   6.023   4.062   2.059  1.7161  0.2251 -0.1551
 3465TIP3   OH232029   6.199   5.464   8.550 -0.0566 -0.1534 -0.0211
 3465TIP3    H132030   6.149   5.413   8.613  0.7044 -0.2174  0.5430
 3465TIP3    H232031   6.258   5.401   8.510  0.7314  0.2286  0.5153
 3466TIP3   OH232032   2.615   5.413   0.287 -0.1010 -0.8983 -0.3674
 3466TIP3    H132033   2.688   5.397   0.347 -0.1771 -0.4566 -0.1567
 3466TIP3    H232034   2.651   5.471   0.220 -0.7251  0.7652  0.6990
 3467TIP3   OH232035   3.938   1.202   1.357 -0.5763 -0.0162  0.3904
 3467TIP3    H132036   3.865   1.224   1.415  0.3511  2.3658  0.7718
 3467TIP3    H232037   3.979   1.286   1.338  2.0692 -1.2622  0.1734
 3468TIP3   OH232038   5.639   4.733   8.767  0.3268 -0.8680 -0.5668
 3468TIP3    H132039   5.652   4.816   8.814  1.3992 -1.2047 -0.2408
 3468TIP3    H232040   5.548   4.710   8.785 -0.0481  0.3214 -0.8059
 3469TIP3   OH232041   3.602   5.477   2.194  0.3129 -0.0096 -0.5669
 3469TIP3    H132042   3.621   5.431   2.275 -0.5673 -0.5650 -0.6698
 3469TIP3    H232043   3.512   5.506   2.203 -0.0240 -0.6678 -1.6176
 3470TIP3   OH232044   5.741   1.020   0.472 -0.3056  0.2455  0.2413
 3470TIP3    H132045   5.717   1.050   0.384 -1.3028  1.8111  1.0022
 3470TIP3    H232046   5.661   1.034   0.524 -0.7532 -3.4524  0.7994
 3471TIP3   OH232047   6.201   2.415   7.721  0.3284  1.0077  0.0157
 3471TIP3    H132048   6.209   2.326   7.687  1.1106  1.4618 -1.0393
 3471TIP3    H232049   6.199   2.404   7.816  1.0965 -0.0921 -0.0729
 3472TIP3   OH232050   0.032   0.688   0.991 -0.6108 -1.1650  0.3130
 3472TIP3    H132051  -0.005   0.633   0.922  0.1057 -0.3178 -0.7921
 3472TIP3    H232052   0.121   0.708   0.961 -0.1552 -1.0578  1.6631
 3473TIP3   OH232053   6.649   0.255   1.054 -0.5102 -0.0984  0.5557
 3473TIP3    H132054   6.694   0.316   1.113 -0.0847  1.4475 -1.2701
 3473TIP3    H232055   6.668   0.288   0.966  1.8334 -4.2196 -0.7954
 3474TIP3   OH232056   2.393   1.358   7.260 -0.0244  0.0306  0.0215
 3474TIP3    H132057   2.478   1.367   7.219 -0.2696 -0.1318 -0.5289
 3474TIP3    H232058   2.377   1.444   7.300 -0.0441  0.3848 -0.7339
 3475TIP3   OH232059   5.493   0.104   7.470 -0.0689  0.5878 -0.6614
 3475TIP3    H132060   5.585   0.077   7.473 -0.2662  0.0069  1.3066
 3475TIP3    H232061   5.497   0.197   7.449  0.6791 -0.3006 -6.1248
 3476TIP3   OH232062   5.573   5.091   7.374 -0.0566  0.1189  0.0921
 3476TIP3    H132063   5.583   5.021   7.310  1.7078  0.9361 -0.6163
 3476TIP3    H232064   5.503   5.062   7.432  1.2817 -2.6915  0.4514
 3477TIP3   OH232065   4.040   5.604   1.655 -0.0941 -0.6338  0.1622
 3477TIP3    H132066   4.034   5.625   1.561 -0.7645  0.2496  0.3884
 3477TIP3    H232067   4.084   5.519   1.657  0.5104 -0.3732 -0.9203
 3478TIP3   OH232068   5.914   6.397   2.602  0.1111 -0.3472 -0.1583
 3478TIP3    H132069   5.866   6.335   2.547  0.6659 -0.0092 -1.0374
 3478TIP3    H232070   6.000   6.357   2.615  0.3254  0.0371 -0.3747
 3479TIP3   OH232071   2.351   1.392   8.837 -0.3050 -0.5459 -0.2996
 3479TIP3    H132072   2.297   1.433   8.770 -0.6571 -2.3980 -1.2198
 3479TIP3    H232073   2.293   1.384   8.913 -1.6289 -3.0361 -1.4546
 3480TIP3   OH232074   2.302   6.724   0.420  0.3866 -0.2759  0.0569
 3480TIP3    H132075   2.223   6.748   0.371  0.0559  2.1225  1.5818
 3480TIP3    H232076   2.283   6.639   0.458  0.0427 -1.4741 -2.5513
 3481TIP3   OH232077   6.363   2.240   0.379  0.2193 -0.1177  0.4640
 3481TIP3    H132078   6.302   2.166   0.375  0.8378 -0.6187  0.3306
 3481TIP3    H232079   6.361   2.267   0.471 -1.2174  0.7398  0.2296
 3482TIP3   OH232080   2.732   1.530   0.817 -0.3248 -0.6014  0.3905
 3482TIP3    H132081   2.822   1.563   0.821 -1.1295  1.8685 -0.2553
 3482TIP3    H232082   2.704   1.526   0.908  0.6641 -2.2838  0.6821
 3483TIP3   OH232083   1.714   3.478   7.534  0.4205 -0.2764 -0.2561
 3483TIP3    H132084   1.762   3.561   7.536  0.5756 -0.3769  0.4009
 3483TIP3    H232085   1.763   3.424   7.472  0.6872 -0.0954 -0.2076
 3484TIP3   OH232086   1.100   3.051   7.274 -0.2626  0.2945 -0.6635
 3484TIP3    H132087   1.098   2.996   7.196 -1.6803  2.2161 -2.0567
 3484TIP3    H232088   1.008   3.075   7.289 -0.1586 -0.5616  2.0411
 3485TIP3   OH232089   5.498   3.045   1.877  0.2721  0.3414 -0.2342
 3485TIP3    H132090   5.446   3.056   1.956  1.2802  1.0264  0.3536
 3485TIP3    H232091   5.435   3.018   1.810 -0.5752 -0.3638  0.8194
 3486TIP3   OH232092   6.239   3.595   7.011 -0.2902  0.4094 -0.6706
 3486TIP3    H132093   6.288   3.550   7.080 -0.5234  1.6872  0.3699
 3486TIP3    H232094   6.306   3.641   6.960 -0.2559  0.9806 -0.1300
 3487TIP3   OH232095   1.260   2.376   7.235  0.2256 -0.0060  0.2403
 3487TIP3    H132096   1.266   2.325   7.155 -1.0342  0.0189  0.1094
 3487TIP3    H232097   1.212   2.455   7.210 -0.5425 -0.1759  1.0835
 3488TIP3   OH232098   6.671   3.648   8.220 -0.6823  0.2654 -0.1446
 3488TIP3    H132099   6.746   3.658   8.161  0.1045  0.4098  0.8487
 3488TIP3    H232100   6.601   3.615   8.165 -0.1981  1.1377 -1.3195
 3489TIP3   OH232101   1.888   2.541   2.157  0.4370  0.1014 -0.4189
 3489TIP3    H132102   1.911   2.623   2.201 -0.9708  1.4081 -1.9552
 3489TIP3    H232103   1.954   2.479   2.187  0.3630  1.2228  2.4071
 3490TIP3   OH232104   2.447   0.994   1.371 -0.1534  0.5353 -0.6362
 3490TIP3    H132105   2.401   1.076   1.384 -0.4093  0.1797  0.8284
 3490TIP3    H232106   2.535   1.009   1.407 -0.9419 -0.5356  1.9534
 3491TIP3   OH232107   5.951   0.726   1.675 -0.2454  0.0256  0.2147
 3491TIP3    H132108   5.981   0.784   1.605 -0.6974  0.7835  0.6228
 3491TIP3    H232109   5.957   0.781   1.754 -1.3991 -0.2387  0.4999
 3492TIP3   OH232110   6.144   5.040   7.713  0.3896 -0.6040 -0.2931
 3492TIP3    H132111   6.068   5.075   7.666  0.5810 -0.4109 -0.4607
 3492TIP3    H232112   6.111   5.021   7.801 -0.1572 -1.6409 -0.6948
 3493TIP3   OH232113   2.013   0.418   1.188  0.5283  0.1850  0.0764
 3493TIP3    H132114   1.987   0.370   1.110 -0.3530  1.3546 -0.3828
 3493TIP3    H232115   2.082   0.477   1.159  0.4017  0.4191  0.2422
 3494TIP3   OH232116   5.202   1.558   7.258 -0.4075 -0.6804 -0.1719
 3494TIP3    H132117   5.280   1.565   7.314  0.2095 -1.8279 -0.8318
 3494TIP3    H232118   5.141   1.622   7.293  0.8013  0.1852  0.4339
 3495TIP3   OH232119   0.559   4.210   7.357  0.2306  0.4642  0.5034
 3495TIP3    H132120   0.523   4.177   7.274  0.7371  1.5595 -0.1856
 3495TIP3    H232121   0.592   4.133   7.402 -0.5896 -0.2213 -0.0563
 3496TIP3   OH232122   4.058   4.658   0.563 -0.5270  0.1097  0.1434
 3496TIP3    H132123   4.074   4.569   0.531 -1.0380 -0.1645  0.6372
 3496TIP3    H232124   4.085   4.714   0.490 -0.1600 -0.4446 -0.1605
 3497TIP3   OH232125   5.835   2.879   7.013 -0.3746  0.3122  0.0143
 3497TIP3    H132126   5.748   2.905   6.981 -1.4547 -2.3619  0.4679
 3497TIP3    H232127   5.888   2.957   7.004 -3.3364  2.7131  1.6516
 3498TIP3   OH232128   2.110   2.454   6.996 -0.8525  0.7887  0.2174
 3498TIP3    H132129   2.096   2.360   6.989  0.0673  0.5963  0.7542
 3498TIP3    H232130   2.100   2.487   6.907 -3.5496  0.5662  0.3513
 3499TIP3   OH232131   1.203   3.547   8.223  0.3746 -0.4009 -0.4399
 3499TIP3    H132132   1.164   3.613   8.166  0.2462 -0.3171 -0.2573
 3499TIP3    H232133   1.283   3.588   8.256 -0.8048  0.5419  1.4137
 3500TIP3   OH232134   5.063   3.261   7.792  0.0697  0.0565  0.1179
 3500TIP3    H132135   5.024   3.235   7.876 -1.6851 -0.2990 -0.7564
 3500TIP3    H232136   5.133   3.322   7.816 -0.3807 -0.0481  1.8446
 3501TIP3   OH232137   5.070   3.672   0.777  0.2002  0.1245 -0.1296
 3501TIP3    H132138   5.103   3.658   0.688 -0.4445 -2.2105 -0.0650
 3501TIP3    H232139   4.976   3.684   0.766 -0.0656 -1.4243  0.3047
 3502TIP3   OH232140   4.804   1.920   8.902  1.2659  0.2814 -0.5827
 3502TIP3    H132141   4.717   1.959   8.902  1.2615  0.2913  0.3725
 3502TIP3    H232142   4.804   1.858   8.975  2.1821  0.5814 -0.3058
 3503TIP3   OH232143   2.602   5.719   0.463 -0.0570 -0.1774 -0.7662
 3503TIP3    H132144   2.661   5.785   0.501  0.3780 -0.1133 -1.5301
 3503TIP3    H232145   2.602   5.648   0.526  0.5731 -0.0310 -0.5910
 3504TIP3   OH232146   1.105   2.101   0.454  0.4148  0.1223  0.1682
 3504TIP3    H132147   1.010   2.111   0.465  0.1882 -1.2932 -0.2244
 3504TIP3    H232148   1.137   2.190   0.441 -0.8200  0.6554  0.5877
 3505TIP3   OH232149   2.853   0.781   0.951  0.1548 -0.3668 -0.1810
 3505TIP3    H132150   2.914   0.855   0.948 -0.0964 -0.1788 -1.4187
 3505TIP3    H232151   2.767   0.821   0.965  0.3602 -0.6836  2.2788
 3506TIP3   OH232152   2.684   2.632   0.349 -0.2042  0.0172 -0.7480
 3506TIP3    H132153   2.666   2.662   0.438 -0.3075 -1.7702 -0.1271
 3506TIP3    H232154   2.773   2.663   0.332  0.4669 -1.0424  0.6419
 3507TIP3   OH232155   4.509   0.091   1.236 -0.3927 -0.1025 -0.0404
 3507TIP3    H132156   4.509   0.185   1.255  1.5397 -0.1381  0.3897
 3507TIP3    H232157   4.596   0.074   1.200 -0.7928 -1.6957 -0.3582
 3508TIP3   OH232158   1.099   1.760   1.974 -0.6039  0.5093  0.3608
 3508TIP3    H132159   1.102   1.712   2.057  2.2902  1.4206  0.9048
 3508TIP3    H232160   1.132   1.847   1.996  0.1256  0.8086 -1.7280
 3509TIP3   OH232161   3.865   4.419   7.788  0.9304 -0.1999 -0.5738
 3509TIP3    H132162   3.950   4.405   7.829  0.8762 -2.4549 -1.1410
 3509TIP3    H232163   3.839   4.333   7.754 -1.2274  0.5858 -1.0942
 3510TIP3   OH232164   1.548   2.622   0.488  0.0517 -0.2121  0.1259
 3510TIP3    H132165   1.580   2.550   0.433  0.5299  0.8925 -1.0774
 3510TIP3    H232166   1.548   2.699   0.430 -0.5380  0.7488  1.3570
 3511TIP3   OH232167   0.243   3.713   1.239 -0.1393  0.0207  0.7001
 3511TIP3    H132168   0.306   3.743   1.173 -1.3040  0.6612 -0.1682
 3511TIP3    H232169   0.238   3.786   1.301 -0.6172  0.3248  0.3159
 3512TIP3   OH232170   0.879   4.831   7.978  0.1788  0.2016  0.3341
 3512TIP3    H132171   0.935   4.771   7.928 -0.7463 -1.6485  1.3762
 3512TIP3    H232172   0.937   4.870   8.043  0.8626  0.6801 -0.5466
 3513TIP3   OH232173   5.557   3.398   8.968 -0.6119 -0.6548  0.3685
 3513TIP3    H132174   5.470   3.360   8.969 -0.8084 -0.2376 -0.2678
 3513TIP3    H232175   5.543   3.492   8.961 -0.1257 -0.4591  1.7044
 3514TIP3   OH232176   2.222   6.370   1.386 -0.1660 -0.3876 -0.7347
 3514TIP3    H132177   2.219   6.465   1.382 -0.2524 -0.4222 -2.0995
 3514TIP3    H232178   2.258   6.350   1.472 -1.4782  0.8392  0.1453
 3515TIP3   OH232179   5.992   4.721   1.322  0.0563 -0.0235  0.0378
 3515TIP3    H132180   5.934   4.796   1.308 -1.2801 -0.6702  1.7611
 3515TIP3    H232181   6.049   4.721   1.246 -1.7424  1.0790 -1.4145
 3516TIP3   OH232182   6.062   6.069   0.371  0.1340 -0.3659  0.1945
 3516TIP3    H132183   6.050   6.154   0.329  0.5133 -0.4204 -0.0366
 3516TIP3    H232184   5.980   6.052   0.417 -0.9777 -1.0523 -1.8673
 3517TIP3   OH232185   0.778   6.225   8.663 -0.0005 -0.2597 -0.0898
 3517TIP3    H132186   0.736   6.206   8.579 -0.1858  1.3968 -0.4105
 3517TIP3    H232187   0.705   6.248   8.721  0.2825  0.4734 -0.0204
 3518TIP3   OH232188   0.562   2.172   8.418 -0.3398  0.6297 -0.2767
 3518TIP3    H132189   0.546   2.253   8.370  1.8192  0.2190 -1.8519
 3518TIP3    H232190   0.648   2.143   8.388  0.1830 -0.8182  2.2970
 3519TIP3   OH232191   4.029   6.520   1.091 -0.7232 -0.0911  0.3256
 3519TIP3    H132192   3.972   6.592   1.117 -0.3078  0.2574  0.2687
 3519TIP3    H232193   4.095   6.516   1.159 -1.0728 -0.7979  0.6398
 3520TIP3   OH232194   0.885   4.798   8.355  0.4376 -0.0184  0.1294
 3520TIP3    H132195   0.979   4.814   8.367  0.5916 -0.6279 -0.2013
 3520TIP3    H232196   0.846   4.820   8.439  0.8887  0.1656  0.2951
 3521TIP3   OH232197   3.546   3.212   0.580 -0.5599 -0.1510 -0.0299
 3521TIP3    H132198   3.571   3.301   0.553  0.5265 -0.1054  1.0504
 3521TIP3    H232199   3.599   3.195   0.658 -1.4617 -1.3912  0.3334
 3522TIP3   OH232200   1.404   2.313   0.657  0.0627 -0.2641  0.2712
 3522TIP3    H132201   1.450   2.246   0.707 -0.5592 -1.4458 -0.7068
 3522TIP3    H232202   1.470   2.383   0.646  1.2064 -1.3341  0.0629
 3523TIP3   OH232203   5.255   1.305   8.731  0.1853  0.5292  0.2536
 3523TIP3    H132204   5.305   1.385   8.719  0.7075  0.2045  0.2138
 3523TIP3    H232205   5.198   1.300   8.655 -0.9547  1.6356  1.0014
 3524TIP3   OH232206   6.172   5.172   1.708  0.8432 -0.9129  0.0136
 3524TIP3    H132207   6.079   5.185   1.726  0.6885 -0.2894 -1.1211
 3524TIP3    H232208   6.215   5.186   1.793 -0.0203 -0.2801  0.3657
 3525TIP3   OH232209   1.254   0.918   8.942  1.0230  0.1268  0.4327
 3525TIP3    H132210   1.230   0.964   8.861  1.4691 -0.6711 -0.1591
 3525TIP3    H232211   1.173   0.874   8.969  1.1225 -0.4099 -0.1245
 3526TIP3   OH232212   1.482   2.765   1.954 -0.0532  0.6148  0.6227
 3526TIP3    H132213   1.463   2.754   2.047  0.7678 -1.3346  0.6042
 3526TIP3    H232214   1.396   2.772   1.912 -0.4270  1.4740  1.5055
 3527TIP3   OH232215   4.074   1.265   8.374  0.0593  0.8918  0.0118
 3527TIP3    H132216   4.062   1.180   8.332  1.1703  0.4660  0.5365
 3527TIP3    H232217   3.998   1.316   8.346  0.3146  0.3445 -1.8034
 3528TIP3   OH232218   0.850   2.255   0.139  0.0475  0.0626 -0.2570
 3528TIP3    H132219   0.892   2.225   0.058  3.4525 -0.0299  1.3657
 3528TIP3    H232220   0.902   2.330   0.166 -2.5395  1.6379  0.6584
 3529TIP3   OH232221   4.625   6.642   1.497 -0.0210  0.1094 -0.2077
 3529TIP3    H132222   4.653   6.628   1.587  0.1981 -1.9440 -0.5556
 3529TIP3    H232223   4.538   6.682   1.505 -0.7186 -1.5537  0.9547
 3530TIP3   OH232224   3.863   5.725   6.585 -0.4252 -0.1965 -0.2108
 3530TIP3    H132225   3.835   5.816   6.571 -2.2553 -0.8299 -0.9035
 3530TIP3    H232226   3.957   5.732   6.601 -0.7654  1.9540  1.2665
 3531TIP3   OH232227   5.682   3.416   7.067 -0.1331  0.5726 -0.0633
 3531TIP3    H132228   5.755   3.389   7.013  1.0754 -2.2143  2.6689
 3531TIP3    H232229   5.609   3.361   7.040  0.2864 -0.3437  0.6105
 3532TIP3   OH232230   5.007   0.043   0.917 -0.0193 -0.3346 -0.0778
 3532TIP3    H132231   5.018  -0.025   0.983  1.4255 -0.2445 -0.1934
 3532TIP3    H232232   5.063   0.015   0.844 -2.3117 -0.9388 -1.7135
 3533TIP3   OH232233   6.553   0.825   7.410  0.0117  0.0139  0.0331
 3533TIP3    H132234   6.630   0.825   7.354  1.5838  0.5287  2.0724
 3533TIP3    H232235   6.544   0.916   7.438 -0.2728 -0.3510  1.1849
 3534TIP3   OH232236   3.770   4.309   1.037 -0.2241 -0.3320 -0.4282
 3534TIP3    H132237   3.747   4.220   1.012  0.8337 -0.4111 -1.1509
 3534TIP3    H232238   3.778   4.306   1.132 -2.0662 -0.5513 -0.2483
 3535TIP3   OH232239   4.765   3.607   1.669 -0.1340 -0.0836 -0.1260
 3535TIP3    H132240   4.819   3.542   1.715  1.0271  1.9621  1.5317
 3535TIP3    H232241   4.813   3.625   1.588 -0.6993 -1.5552 -0.8310
 3536TIP3   OH232242   1.954   2.907   0.511 -0.8628  0.0118  0.0089
 3536TIP3    H132243   1.936   2.867   0.596  1.8528 -1.4368  0.0352
 3536TIP3    H232244   1.958   3.001   0.528 -0.1892 -0.2744  1.5458
 3537TIP3   OH232245   5.222   0.973   8.393 -0.0621 -0.2711  0.1449
 3537TIP3    H132246   5.269   1.045   8.434 -1.5925  1.0643 -0.3069
 3537TIP3    H232247   5.230   0.900   8.455  1.3372  0.3371  0.7161
 3538TIP3   OH232248   2.077   0.947   7.935  0.2428 -0.3345  0.5399
 3538TIP3    H132249   2.055   1.034   7.902  1.2432 -0.4130 -0.4060
 3538TIP3    H232250   2.011   0.889   7.895  0.9215 -0.3051 -0.6826
 3539TIP3   OH232251   6.743   4.520   0.071 -0.1274 -0.6116  0.7676
 3539TIP3    H132252   6.694   4.586   0.119 -2.0515  0.7368 -2.6608
 3539TIP3    H232253   6.810   4.569   0.023  0.0360 -1.4553  0.0966
 3540TIP3   OH232254   6.378   6.368   1.181  0.0354  0.6622  0.1659
 3540TIP3    H132255   6.391   6.377   1.275 -4.1638 -1.1259  1.1822
 3540TIP3    H232256   6.349   6.454   1.152 -0.6680  0.7305  1.0212
 3541TIP3   OH232257   0.196   1.332   7.677 -0.1823  0.4593 -0.2410
 3541TIP3    H132258   0.199   1.270   7.750  0.4741 -1.2275 -1.6140
 3541TIP3    H232259   0.184   1.417   7.718 -1.8220 -0.6247  1.7125
 3542TIP3   OH232260   0.056   4.149   1.414  0.6813 -0.5824 -0.2074
 3542TIP3    H132261   0.062   4.116   1.324 -1.3903  1.6278 -1.2754
 3542TIP3    H232262   0.141   4.191   1.429  2.0227 -3.1564 -0.0874
 3543TIP3   OH232263   0.279   3.499   1.442 -0.0789  0.2443  0.3900
 3543TIP3    H132264   0.275   3.542   1.357  0.2022  1.6876  1.0813
 3543TIP3    H232265   0.301   3.408   1.421 -0.5968  0.4261 -1.1038
 3544TIP3   OH232266   2.574   4.819   2.108  0.0221 -0.3359 -0.3980
 3544TIP3    H132267   2.557   4.785   2.195 -0.3044  1.1493  0.1586
 3544TIP3    H232268   2.500   4.790   2.056 -0.3448 -0.3068  0.1020
 3545TIP3   OH232269   0.413   6.749   1.043 -0.0953 -0.6548 -0.7020
 3545TIP3    H132270   0.319   6.737   1.061 -0.5626  1.7077 -1.2199
 3545TIP3    H232271   0.453   6.750   1.130 -0.6814 -0.9020 -0.4200
 3546TIP3   OH232272   1.818   1.069   7.265  0.2731  0.3108  0.0027
 3546TIP3    H132273   1.728   1.089   7.238  0.2783 -0.3587 -0.5315
 3546TIP3    H232274   1.872   1.131   7.216  0.1226  0.5538  0.1415
 3547TIP3   OH232275   5.608   5.991   0.366  0.0444 -0.4104  0.2963
 3547TIP3    H132276   5.598   6.008   0.460  0.0804 -1.1258  0.4337
 3547TIP3    H232277   5.641   6.073   0.331  1.2501 -0.5065  1.1179
 3548TIP3   OH232278   4.702   1.845   1.670  0.9173  0.3055 -0.4201
 3548TIP3    H132279   4.703   1.870   1.578 -1.1586 -0.8384 -0.7994
 3548TIP3    H232280   4.683   1.927   1.716  0.0359  0.5373 -1.1718
 3549TIP3   OH232281   1.718   0.388   0.589 -0.1910 -0.2842 -0.5341
 3549TIP3    H132282   1.699   0.295   0.605 -0.7890  0.1318  1.5171
 3549TIP3    H232283   1.812   0.396   0.601 -0.1985 -0.5628 -0.2675
 3550TIP3   OH232284   2.478   2.804   1.793  0.3348  1.1486 -0.0999
 3550TIP3    H132285   2.432   2.822   1.875 -0.8746  1.8747 -0.8801
 3550TIP3    H232286   2.456   2.880   1.738  0.7251  0.4517 -1.2367
 3551TIP3   OH232287   2.798   3.036   1.937  0.5482 -0.5794  0.1388
 3551TIP3    H132288   2.798   3.069   2.027 -2.3626  0.1122 -0.0176
 3551TIP3    H232289   2.793   2.941   1.945 -0.5783 -0.4846  0.7716
 3552TIP3   OH232290   1.713   1.732   8.858  1.2090 -0.1802  0.6184
 3552TIP3    H132291   1.764   1.808   8.884 -1.2543  0.9366  2.6746
 3552TIP3    H232292   1.696   1.685   8.940 -0.1696 -1.0379 -0.1130
 3553TIP3   OH232293   0.765   6.577   6.941  0.2069 -0.0112  0.0818
 3553TIP3    H132294   0.723   6.663   6.950 -0.9972 -0.5937  0.1815
 3553TIP3    H232295   0.759   6.558   6.847 -1.3320 -0.8453  0.3182
 3554TIP3   OH232296   0.362   1.753   1.024  0.0028 -0.0864 -0.3780
 3554TIP3    H132297   0.446   1.779   0.986  0.0631  0.7442  0.2754
 3554TIP3    H232298   0.298   1.811   0.982  0.0135  0.5405  0.4378
 3555TIP3   OH232299   6.753   2.146   0.484  0.0467  0.5475 -0.3904
 3555TIP3    H132300   6.739   2.212   0.417  1.1165  0.3865 -0.7843
 3555TIP3    H232301   6.812   2.187   0.547  0.7942 -0.0559 -0.6880
 3556TIP3   OH232302   2.554   6.124   6.943 -0.2032  0.0156 -0.1180
 3556TIP3    H132303   2.607   6.065   6.890 -0.9781  0.0323 -0.9296
 3556TIP3    H232304   2.549   6.080   7.029 -1.6579 -1.6947 -1.0087
 3557TIP3   OH232305   3.457   1.764   1.721  0.2231  0.4275 -0.4499
 3557TIP3    H132306   3.417   1.689   1.676 -0.8030  0.4685  0.3657
 3557TIP3    H232307   3.383   1.809   1.762  1.0563  0.8301  0.6216
 3558TIP3   OH232308   6.427   3.674   0.332  0.4489  0.3221  0.0389
 3558TIP3    H132309   6.435   3.579   0.344 -0.1695  0.2924  0.2363
 3558TIP3    H232310   6.471   3.711   0.408 -0.7849  0.1683  0.8460
 3559TIP3   OH232311   3.774   4.158   7.298 -0.4079 -0.0011 -0.7963
 3559TIP3    H132312   3.783   4.072   7.256  1.9354 -1.0751  1.5696
 3559TIP3    H232313   3.857   4.203   7.279 -0.2642  0.3871  0.6164
 3560TIP3   OH232314   3.175   1.135   7.690  0.4619  0.0263 -0.4103
 3560TIP3    H132315   3.153   1.081   7.614 -0.7281 -0.6312  0.3713
 3560TIP3    H232316   3.196   1.221   7.654 -1.5060  0.1449 -1.3956
 3561TIP3   OH232317   4.603   6.466   8.067  0.1140  0.6864  0.2854
 3561TIP3    H132318   4.634   6.440   8.154 -0.8048  0.6242  0.6094
 3561TIP3    H232319   4.681   6.467   8.013  0.8037  1.3025  1.2557
 3562TIP3   OH232320   6.157   1.020   0.055  0.3306  0.2454 -0.1211
 3562TIP3    H132321   6.144   0.964  -0.021 -2.8697  1.0400 -0.3177
 3562TIP3    H232322   6.205   0.965   0.118 -0.2355 -1.7204 -1.3200
 3563TIP3   OH232323   3.945   0.753   1.818  0.0744  0.7863 -0.1153
 3563TIP3    H132324   3.903   0.687   1.873  0.1531  0.2983 -0.6271
 3563TIP3    H232325   4.023   0.780   1.868  0.7688 -0.4756 -0.4722
 3564TIP3   OH232326   3.460   4.802   7.348 -0.0117  0.6618  0.0512
 3564TIP3    H132327   3.485   4.877   7.294 -0.1983 -0.8428 -2.2438
 3564TIP3    H232328   3.519   4.807   7.424  1.8027  1.6459 -1.3382
 3565TIP3   OH232329   2.958   3.567   8.517 -0.2553 -0.4597  0.1207
 3565TIP3    H132330   2.988   3.504   8.451 -0.8610 -2.1424  1.3718
 3565TIP3    H232331   2.863   3.553   8.522 -0.1547 -0.7483  1.7045
 3566TIP3   OH232332   0.322   5.904   7.467 -0.2445 -0.2717 -0.2719
 3566TIP3    H132333   0.379   5.828   7.480 -0.7047 -0.5000  0.4733
 3566TIP3    H232334   0.377   5.979   7.490 -0.3174 -0.5117  0.7611
 3567TIP3   OH232335   2.838   4.298   1.183  0.4711  0.4090  0.2302
 3567TIP3    H132336   2.907   4.269   1.123  1.4414  0.4107  1.3048
 3567TIP3    H232337   2.883   4.352   1.247 -1.0594  3.1381 -0.8303
 3568TIP3   OH232338   2.904   0.754   8.529 -0.1932 -0.6133 -0.1879
 3568TIP3    H132339   2.919   0.808   8.607 -0.2929 -0.0848 -0.5263
 3568TIP3    H232340   2.809   0.756   8.517 -0.1666 -0.5685 -0.4021
 3569TIP3   OH232341   0.482   3.874   8.154  0.5405  0.4793  0.6352
 3569TIP3    H132342   0.460   3.824   8.232 -0.5167  0.3357  0.2622
 3569TIP3    H232343   0.563   3.919   8.176  1.2071 -0.9438  1.1865
 3570TIP3   OH232344   6.351   2.695   8.268  0.2221 -0.4694 -0.0949
 3570TIP3    H132345   6.326   2.725   8.180 -1.1492 -1.2249  0.0188
 3570TIP3    H232346   6.311   2.609   8.276 -0.2098 -0.1435  1.5251
 3571TIP3   OH232347   3.411   4.923   0.706 -0.2704 -0.7337  0.3252
 3571TIP3    H132348   3.364   4.840   0.714 -1.1958 -0.3246 -0.6347
 3571TIP3    H232349   3.475   4.920   0.777  0.8431 -2.9657 -0.6820
 3572TIP3   OH232350   1.851   1.141   8.380  0.4566 -0.1478  0.2042
 3572TIP3    H132351   1.867   1.165   8.288 -1.4515 -0.2485 -0.1865
 3572TIP3    H232352   1.825   1.049   8.376 -1.0219  0.2308  0.6642
 3573TIP3   OH232353   3.314   2.418   0.361  0.2558  0.3929 -0.8392
 3573TIP3    H132354   3.255   2.481   0.320 -2.0479 -0.6143  0.7373
 3573TIP3    H232355   3.395   2.467   0.375 -0.2787  1.9604 -2.6812
 3574TIP3   OH232356   3.593   3.878   0.535 -0.1908 -0.3707  0.5639
 3574TIP3    H132357   3.538   3.937   0.483  1.1607 -0.7827 -1.4628
 3574TIP3    H232358   3.682   3.912   0.523  0.0743  0.8407  4.4929
 3575TIP3   OH232359   0.527   3.229   8.285  0.0053  0.1005 -0.1731
 3575TIP3    H132360   0.601   3.176   8.257  0.7054  0.6218  0.6320
 3575TIP3    H232361   0.472   3.169   8.335 -1.6024 -1.0212 -3.0236
 3576TIP3   OH232362   3.544   1.980   0.196  0.0897  0.3454 -0.5800
 3576TIP3    H132363   3.485   2.007   0.266 -2.0903  0.8332 -2.4864
 3576TIP3    H232364   3.577   2.062   0.160  1.3455  0.0932 -0.0536
 3577TIP3   OH232365   0.812   1.883   6.838  0.6936  0.0308  0.1182
 3577TIP3    H132366   0.745   1.862   6.773  0.4885  0.7702  0.0773
 3577TIP3    H232367   0.865   1.804   6.845 -0.4355 -0.7240  0.4652
 3578TIP3   OH232368   3.694   0.399   8.353  0.6066 -0.0169 -0.2853
 3578TIP3    H132369   3.618   0.435   8.307 -0.0916 -1.2637 -0.1698
 3578TIP3    H232370   3.704   0.311   8.316 -1.6832 -2.2341  3.6979
 3579TIP3   OH232371   5.403   5.166   8.761  0.1763  0.5246 -0.1930
 3579TIP3    H132372   5.481   5.139   8.712 -0.1527  0.0898 -0.4936
 3579TIP3    H232373   5.435   5.185   8.849  0.4868 -0.5667 -0.0498
 3580TIP3   OH232374   4.505   5.677   8.125  0.4238 -0.0106  0.2925
 3580TIP3    H132375   4.461   5.623   8.059  1.6904 -0.9761  0.2132
 3580TIP3    H232376   4.458   5.761   8.122 -0.7613 -0.6720 -0.4727
 3581TIP3   OH232377   5.147   6.717   7.882  0.3229  0.6966  0.3158
 3581TIP3    H132378   5.173   6.627   7.904  1.3105  0.9518  0.2344
 3581TIP3    H232379   5.177   6.770   7.955  0.1195  1.0231  0.1663
 3582TIP3   OH232380   4.858   3.015   0.283  0.0770  0.4620 -0.5813
 3582TIP3    H132381   4.848   3.105   0.253 -3.0705  0.8236  1.1324
 3582TIP3    H232382   4.803   2.964   0.223 -1.1715  0.2889  0.6643
 3583TIP3   OH232383   6.696   4.959   7.369  0.1144 -0.1990  0.1437
 3583TIP3    H132384   6.707   4.932   7.278 -0.3609  0.1455 -0.0232
 3583TIP3    H232385   6.783   4.987   7.397  0.7509 -2.3674  0.4926
 3584TIP3   OH232386   6.519   0.737   8.570  0.1740 -0.1040  0.1176
 3584TIP3    H132387   6.574   0.692   8.505  0.6196 -0.2409  0.5835
 3584TIP3    H232388   6.525   0.830   8.545 -0.0775 -0.2044 -0.3428
 3585TIP3   OH232389   4.006   4.554   7.306 -0.5632  0.2765  0.3878
 3585TIP3    H132390   4.059   4.526   7.380 -2.1612 -1.0194  1.1214
 3585TIP3    H232391   3.998   4.476   7.251 -1.4799  0.5021  0.1777
 3586TIP3   OH232392   3.097   4.218   7.048 -0.2222 -0.7191  0.0529
 3586TIP3    H132393   3.052   4.289   7.094  0.1555 -0.9189  0.7484
 3586TIP3    H232394   3.089   4.240   6.955 -0.2579  0.1456  0.2568
 3587TIP3   OH232395   2.930   0.568   1.113  0.7427  0.8441 -0.1678
 3587TIP3    H132396   2.903   0.638   1.055  1.1879  0.4783 -0.8314
 3587TIP3    H232397   2.877   0.580   1.192 -1.4560  0.0835 -1.4450
 3588TIP3   OH232398   3.687   2.410   8.989 -0.2829 -0.3563  0.2294
 3588TIP3    H132399   3.761   2.407   9.049 -0.7358 -0.4783  0.7876
 3588TIP3    H232400   3.717   2.361   8.912  0.7142  0.7729 -0.1350
 3589TIP3   OH232401   5.465   6.724   8.482  0.0534 -0.3118  0.1575
 3589TIP3    H132402   5.545   6.672   8.474  1.8601  1.7305  3.3300
 3589TIP3    H232403   5.479   6.799   8.425 -0.2473 -0.5979 -0.3077
 3590TIP3   OH232404   4.032   5.773   8.131  0.2289  0.5417 -0.4303
 3590TIP3    H132405   4.090   5.738   8.064  0.8977 -1.4208  1.0564
 3590TIP3    H232406   4.072   5.855   8.158  0.1646  1.1607 -2.0786
 3591TIP3   OH232407   0.913   6.478   2.372  0.3618  0.4138  0.2618
 3591TIP3    H132408   0.929   6.391   2.336 -1.3106  0.1019  0.2242
 3591TIP3    H232409   0.819   6.481   2.390  0.5283  1.8968  1.0995
 3592TIP3   OH232410   4.175   1.458   1.520 -0.1624 -0.2355  0.8091
 3592TIP3    H132411   4.257   1.495   1.486  0.1613 -1.7617 -0.1713
 3592TIP3    H232412   4.202   1.391   1.582 -0.6080 -1.2225 -0.0154
 3593TIP3   OH232413   5.436   6.461   8.845 -0.1394 -0.3184  0.3918
 3593TIP3    H132414   5.517   6.484   8.890 -0.0032  0.4830 -0.2411
 3593TIP3    H232415   5.368   6.510   8.892 -0.1012 -0.1040  0.2263
 3594TIP3   OH232416   3.501   5.198   0.630 -0.0709  0.8996 -0.1163
 3594TIP3    H132417   3.499   5.177   0.724 -1.0776  1.4565  0.0015
 3594TIP3    H232418   3.522   5.115   0.588 -0.2754  0.4865  0.5745
 3595TIP3   OH232419   0.959   5.954   8.921  0.2687 -0.0701 -0.7415
 3595TIP3    H132420   1.029   5.997   8.971  0.1622  0.7666 -1.2815
 3595TIP3    H232421   0.882   6.008   8.938 -0.6281 -1.8278  1.0352
 3596TIP3   OH232422   2.143   0.222   1.893  0.3969  0.5974 -0.4280
 3596TIP3    H132423   2.168   0.194   1.981  1.3959  2.3448 -0.0996
 3596TIP3    H232424   2.057   0.184   1.879  0.2045  0.3012  1.3223
 3597TIP3   OH232425   3.405   2.418   7.753  0.6028  0.2096  0.3085
 3597TIP3    H132426   3.464   2.435   7.680  0.7491 -0.2874  0.3113
 3597TIP3    H232427   3.348   2.348   7.723 -0.7365  1.4341 -0.1198
 3598TIP3   OH232428   3.927   1.770   6.846 -0.8893  0.3206  0.8103
 3598TIP3    H132429   3.971   1.691   6.816 -0.5403  0.7948  0.0706
 3598TIP3    H232430   3.839   1.740   6.871 -0.5914 -0.3868  1.0258
 3599TIP3   OH232431   0.539   1.637   2.012 -0.0868  0.1777  0.6905
 3599TIP3    H132432   0.543   1.731   2.031  2.8320  0.5914 -1.4586
 3599TIP3    H232433   0.623   1.602   2.041 -0.9949 -1.7722  1.1737
 3600TIP3   OH232434   3.979   0.020   0.660  0.2968 -0.0623  0.1885
 3600TIP3    H132435   3.934  -0.043   0.716  1.4075  0.7623  2.1066
 3600TIP3    H232436   4.054   0.048   0.712  1.2567  0.9387 -1.6552
 3601TIP3   OH232437   4.773   5.829   7.715 -0.0144 -0.5551 -0.1614
 3601TIP3    H132438   4.858   5.857   7.681 -1.0044  1.7707 -0.9326
 3601TIP3    H232439   4.780   5.840   7.810 -0.8319  4.3902 -0.4474
 3602TIP3   OH232440   1.743   4.867   0.780  0.2177 -0.0472 -0.3057
 3602TIP3    H132441   1.807   4.928   0.817  0.2877  0.5217 -1.3045
 3602TIP3    H232442   1.670   4.923   0.752  0.4110 -0.3682 -1.5093
 3603TIP3   OH232443   4.146   4.126   1.147 -0.3664  0.9539 -0.2633
 3603TIP3    H132444   4.188   4.039   1.152  0.3867  1.3794  1.9936
 3603TIP3    H232445   4.059   4.112   1.184  0.4860  1.4730  2.1879
 3604TIP3   OH232446   4.017   4.401   0.924  0.1311  0.4158 -0.2120
 3604TIP3    H132447   3.960   4.345   0.977 -1.3103  0.3605 -1.7168
 3604TIP3    H232448   3.957   4.447   0.865  1.6449  0.1827 -2.0476
 3605TIP3   OH232449   5.296   3.433   8.737 -0.2936  0.0008 -0.1055
 3605TIP3    H132450   5.220   3.440   8.795 -0.3826 -0.9650 -0.0975
 3605TIP3    H232451   5.363   3.390   8.790  0.3509  1.0381 -0.0420
 3606TIP3   OH232452   0.483   5.050   1.431  0.0326 -0.3809  0.0456
 3606TIP3    H132453   0.418   5.003   1.379  1.0836 -2.0920  0.1877
 3606TIP3    H232454   0.567   5.019   1.398  0.7813  1.0940  0.4788
 3607TIP3   OH232455   0.583   3.794   0.478 -0.3575 -0.3353 -0.2777
 3607TIP3    H132456   0.649   3.862   0.489 -2.0853  1.7711 -2.0950
 3607TIP3    H232457   0.501   3.842   0.465 -1.4746 -2.6724 -2.9302
 3608TIP3   OH232458   5.004   4.611   8.991  0.0226  0.0973 -0.6695
 3608TIP3    H132459   5.052   4.529   8.982  3.8955  2.3427 -3.1949
 3608TIP3    H232460   4.965   4.626   8.905  1.4654  1.9287 -1.0740
 3609TIP3   OH232461   5.787   3.596   0.056 -0.0015  0.0115  0.1256
 3609TIP3    H132462   5.854   3.659   0.083  0.1569 -0.2179  0.2711
 3609TIP3    H232463   5.732   3.644  -0.006  1.0664 -0.1798 -1.0166
 3610TIP3   OH232464   5.743   2.917   1.812  0.0955 -0.1739 -0.3805
 3610TIP3    H132465   5.660   2.962   1.821 -0.9563 -1.8073 -1.3138
 3610TIP3    H232466   5.721   2.824   1.819  1.1788 -0.9061 -4.0962
 3611TIP3   OH232467   1.086   4.551   8.526 -0.2013 -0.0279  0.5929
 3611TIP3    H132468   1.088   4.640   8.492  0.1381  1.5415  4.2083
 3611TIP3    H232469   1.173   4.516   8.509 -0.2419  0.4160 -0.5849
 3612TIP3   OH232470   0.053   3.217   7.003 -0.2235 -0.3129  0.3322
 3612TIP3    H132471  -0.019   3.174   6.956  0.0006  0.0878 -0.3988
 3612TIP3    H232472   0.108   3.145   7.034 -0.8390 -0.6122  0.7202
 3613TIP3   OH232473   0.670   3.806   0.825  0.1345 -0.4095 -0.1903
 3613TIP3    H132474   0.740   3.828   0.764  0.2556 -0.0333  0.0799
 3613TIP3    H232475   0.623   3.889   0.838  1.3895  0.0334  1.8583
 3614TIP3   OH232476   1.609   4.699   0.938 -0.0800 -0.0955  0.0760
 3614TIP3    H132477   1.662   4.753   0.879 -0.5486 -0.0049 -0.2654
 3614TIP3    H232478   1.524   4.693   0.895 -1.2240  1.9719  1.8353
 3615TIP3   OH232479   1.445   5.841   0.589 -0.1595 -0.1114  0.1071
 3615TIP3    H132480   1.355   5.834   0.622 -0.8085  0.7196 -1.3937
 3615TIP3    H232481   1.471   5.931   0.608 -0.0579 -0.0244 -0.4144
 3616TIP3   OH232482   6.546   2.279   6.491 -0.0203 -0.0896 -0.4049
 3616TIP3    H132483   6.546   2.188   6.521  1.8605 -0.1390 -0.4385
 3616TIP3    H232484   6.634   2.293   6.456 -1.4259  0.5755 -4.1404
 3617TIP3   OH232485   6.134   1.141   7.808 -1.0542  0.0752  0.6398
 3617TIP3    H132486   6.120   1.095   7.891  0.8602 -2.4665 -0.3134
 3617TIP3    H232487   6.075   1.097   7.747 -1.5146  1.0695  0.3529
 3618TIP3   OH232488   5.605   4.996   7.712  0.2190 -0.1070 -0.2679
 3618TIP3    H132489   5.636   4.912   7.745 -0.8500 -0.3919  0.0309
 3618TIP3    H232490   5.614   4.989   7.617  1.6815  0.0787 -0.1769
 3619TIP3   OH232491   0.791   1.543   1.480 -0.0672  0.5654  0.6199
 3619TIP3    H132492   0.859   1.555   1.415 -0.2855 -0.3194  0.2098
 3619TIP3    H232493   0.753   1.458   1.460 -0.2982  0.3761  1.7615
 3620TIP3   OH232494   5.920   5.003   7.542  0.1311  0.1044  0.2076
 3620TIP3    H132495   5.833   4.968   7.563 -0.7889  1.2479 -1.4424
 3620TIP3    H232496   5.947   4.955   7.464  0.4655  0.5458  0.0446
 3621TIP3   OH232497   5.797   0.316   7.219 -0.6113 -0.2105  0.3746
 3621TIP3    H132498   5.842   0.298   7.136 -1.3101 -1.3121  0.2066
 3621TIP3    H232499   5.773   0.408   7.214 -1.1122 -0.3949 -0.8905
 3622TIP3   OH232500   4.439   3.431   1.696 -0.3131 -0.0630 -0.2422
 3622TIP3    H132501   4.481   3.346   1.686  0.1785  0.3397 -2.0460
 3622TIP3    H232502   4.375   3.435   1.625 -0.2119  1.1169 -0.2913
 3623TIP3   OH232503   2.701   4.854   2.789  0.3366 -0.2121  0.0499
 3623TIP3    H132504   2.787   4.811   2.791 -0.0416 -1.0013  2.3215
 3623TIP3    H232505   2.638   4.782   2.798 -0.5282  0.4589 -0.4717
 3624TIP3   OH232506   3.400   0.183   8.136  0.1017 -0.2645 -0.1971
 3624TIP3    H132507   3.384   0.186   8.230  2.6022 -0.1764  0.3125
 3624TIP3    H232508   3.357   0.262   8.101 -1.2096 -0.5223  0.7770
 3625TIP3   OH232509   3.109   3.066   0.782  0.1142  0.3337 -0.3619
 3625TIP3    H132510   3.016   3.081   0.763  0.2954 -1.8564 -3.7873
 3625TIP3    H232511   3.111   2.981   0.826  0.4896  0.3863 -0.2735
 3626TIP3   OH232512   1.812   1.638   2.554 -0.1883 -0.0830 -0.0329
 3626TIP3    H132513   1.781   1.572   2.492  2.4172 -0.1508 -1.3900
 3626TIP3    H232514   1.775   1.612   2.638 -1.6322 -1.5319 -1.0594
 3627TIP3   OH232515   1.403   3.257   8.594  0.8621  0.7074  0.4876
 3627TIP3    H132516   1.480   3.242   8.649  0.2109  0.3312  1.3117
 3627TIP3    H232517   1.340   3.191   8.622  0.9322 -0.3088 -1.5316
 3628TIP3   OH232518   1.271   1.249   7.727  0.0179  0.1224  0.0736
 3628TIP3    H132519   1.346   1.308   7.730  0.8563 -0.9388  2.1071
 3628TIP3    H232520   1.252   1.229   7.819 -3.0480  0.6754 -0.3276
 3629TIP3   OH232521   1.685   1.512   8.002 -0.2049 -0.2525  0.3055
 3629TIP3    H132522   1.750   1.564   8.049 -0.8958 -0.8563  1.9687
 3629TIP3    H232523   1.698   1.536   7.910  0.5432  1.6559  0.8676
 3630TIP3   OH232524   5.088   3.493   8.914  0.0201  0.0210 -0.1147
 3630TIP3    H132525   5.010   3.443   8.938  1.7213 -1.8965  1.9373
 3630TIP3    H232526   5.106   3.547   8.991 -0.5724  2.3012 -1.5036
 3631TIP3   OH232527   6.391   5.761   1.742  0.7344 -0.1881  0.3734
 3631TIP3    H132528   6.399   5.747   1.836  2.0916 -0.7500  0.2021
 3631TIP3    H232529   6.459   5.706   1.703 -1.3317 -1.8457 -1.1191
 3632TIP3   OH232530   4.310   2.023   8.348  0.3119 -0.3808 -0.2098
 3632TIP3    H132531   4.330   1.944   8.400 -0.5965 -1.5323 -1.5408
 3632TIP3    H232532   4.394   2.048   8.309  0.8945  0.1652  1.2966
 3633TIP3   OH232533   1.236   4.681   7.505 -0.4474  0.1724  0.0115
 3633TIP3    H132534   1.320   4.684   7.459 -0.6151 -2.6776 -0.7087
 3633TIP3    H232535   1.260   4.676   7.598  0.3836 -2.5519 -0.2627
 3634TIP3   OH232536   6.444   5.379   2.348 -0.4089 -0.0624 -0.1364
 3634TIP3    H132537   6.453   5.449   2.284  1.7777 -0.0852  0.0756
 3634TIP3    H232538   6.511   5.398   2.414 -1.4437 -0.9872  1.2280
 3635TIP3   OH232539   0.684   4.660   0.662  0.0711 -0.0795  0.4394
 3635TIP3    H132540   0.771   4.691   0.635  0.2897  0.0969  1.3051
 3635TIP3    H232541   0.652   4.728   0.721 -0.4282 -0.4106  0.5561
 3636TIP3   OH232542   0.360   6.440   1.184 -0.2955 -0.5659 -0.1618
 3636TIP3    H132543   0.334   6.353   1.156  1.9424 -1.4085  0.1575
 3636TIP3    H232544   0.441   6.458   1.135  0.6363  0.2685  1.5890
 3637TIP3   OH232545   2.203   1.134   7.279  0.1761 -0.2559  0.0681
 3637TIP3    H132546   2.240   1.220   7.259  0.4765 -0.5965 -0.9051
 3637TIP3    H232547   2.110   1.143   7.258  0.1348 -0.0590  0.3302
 3638TIP3   OH232548   2.577   0.327   7.583  0.6855  0.0471 -0.8900
 3638TIP3    H132549   2.643   0.393   7.606 -0.6538  1.8895 -2.0037
 3638TIP3    H232550   2.495   0.364   7.616  0.0180 -1.5720 -0.6772
 3639TIP3   OH232551   2.698   1.196   7.734  0.1286 -0.5174 -0.1172
 3639TIP3    H132552   2.663   1.246   7.660  0.0057 -0.6703 -0.1644
 3639TIP3    H232553   2.746   1.260   7.786 -0.3076 -0.2810  0.0016
 3640TIP3   OH232554   1.188   3.562   0.423 -0.1917  0.2326 -0.1028
 3640TIP3    H132555   1.270   3.540   0.467  0.6858  1.4236 -1.0998
 3640TIP3    H232556   1.152   3.478   0.395  0.2856 -0.3629  1.0198
 3641TIP3   OH232557   6.623   6.759   1.066  0.0059 -0.2148  0.0157
 3641TIP3    H132558   6.641   6.852   1.073 -0.9348  0.2660 -2.7832
 3641TIP3    H232559   6.534   6.749   1.099 -0.4128  0.1679 -0.9415
 3642TIP3   OH232560   6.574   4.048   0.001 -0.6139 -0.0350  0.5764
 3642TIP3    H132561   6.602   4.083  -0.083  0.8753 -0.1258  1.0060
 3642TIP3    H232562   6.479   4.035  -0.008 -0.2291 -1.6998 -1.6655
 3643TIP3   OH232563   1.129   4.534   1.912 -0.2411 -0.1925 -1.4141
 3643TIP3    H132564   1.063   4.584   1.865 -0.9359 -0.4075 -0.6843
 3643TIP3    H232565   1.084   4.454   1.938  0.3677 -0.4285 -1.0790
 3644TIP3   OH232566   3.480   6.570   7.164  0.0588 -0.4534  0.3105
 3644TIP3    H132567   3.423   6.558   7.088  1.0720 -1.3581 -0.3217
 3644TIP3    H232568   3.564   6.598   7.128  0.9868 -2.2506  0.9424
 3645TIP3   OH232569   6.638   0.505   8.466 -0.2110 -0.0011 -0.6136
 3645TIP3    H132570   6.697   0.442   8.424 -0.9614 -2.0020  1.1578
 3645TIP3    H232571   6.552   0.488   8.427 -0.7870 -1.4401  1.1728
 3646TIP3   OH232572   2.499   2.998   2.069  0.5141 -0.0993 -0.1886
 3646TIP3    H132573   2.565   3.018   2.003  1.0308  0.3975  0.4688
 3646TIP3    H232574   2.544   3.009   2.153 -0.4021  0.2721  0.2691
 3647TIP3   OH232575   2.112   3.541   2.575 -0.4037  0.1727 -0.2156
 3647TIP3    H132576   2.189   3.537   2.632 -1.4108 -0.3484  1.1762
 3647TIP3    H232577   2.136   3.602   2.506  1.2851 -0.0568  0.1311
 3648TIP3   OH232578   5.254   4.679   1.102 -0.4168  0.3060 -0.3474
 3648TIP3    H132579   5.179   4.656   1.047 -0.5629  0.3782 -0.1781
 3648TIP3    H232580   5.323   4.618   1.075 -0.1419  1.0229 -1.3628
 3649TIP3   OH232581   1.181   1.087   0.103  0.5020 -0.1277 -0.3026
 3649TIP3    H132582   1.225   1.045   0.029  0.6831  0.4493 -0.5275
 3649TIP3    H232583   1.180   1.020   0.171  1.3732 -0.2796 -0.4269
 3650TIP3   OH232584   0.784   0.208   8.892  0.0648  0.0508  0.5709
 3650TIP3    H132585   0.708   0.186   8.839  0.3463  0.2568  0.0682
 3650TIP3    H232586   0.842   0.255   8.832  1.8513 -2.5121  0.1223
 3651TIP3   OH232587   0.767   2.549   1.058 -0.3630 -0.0210 -0.3730
 3651TIP3    H132588   0.755   2.627   1.112  1.9810  0.1196  0.0698
 3651TIP3    H232589   0.792   2.481   1.119  1.3387 -0.1166 -1.1137
 3652TIP3   OH232590   0.909   0.752   7.202 -0.0455  0.3322 -0.0000
 3652TIP3    H132591   0.951   0.804   7.134  1.3311  1.3606  1.5531
 3652TIP3    H232592   0.963   0.673   7.209 -1.9427 -1.2932 -2.1243
 3653TIP3   OH232593   0.700   0.057   1.182  0.1289 -0.4326 -0.5293
 3653TIP3    H132594   0.622   0.027   1.230  0.8858 -0.7115  0.5554
 3653TIP3    H232595   0.730  -0.021   1.136 -0.7362 -0.1081 -1.6919
 3654TIP3   OH232596   6.744   0.354   8.254 -0.3925 -0.1051  0.5094
 3654TIP3    H132597   6.831   0.394   8.258  0.1730 -1.3272  0.6657
 3654TIP3    H232598   6.745   0.300   8.175 -1.7175  1.3906 -0.6308
 3655TIP3   OH232599   1.853   5.554   1.655 -0.0457  0.5522 -0.3816
 3655TIP3    H132600   1.893   5.553   1.742 -0.7819  0.6302 -0.0337
 3655TIP3    H232601   1.768   5.594   1.669 -1.1268 -1.4915 -0.7135
 3656TIP3   OH232602   0.616   5.905   7.999  0.2021  0.3380 -0.5125
 3656TIP3    H132603   0.544   5.965   8.015 -1.9003 -2.0154 -0.6302
 3656TIP3    H232604   0.591   5.824   8.044  1.6315 -1.3046 -2.4807
 3657TIP3   OH232605   3.402   4.951   1.368  0.3606  0.4974 -0.3666
 3657TIP3    H132606   3.368   4.926   1.454 -0.8145 -0.6691 -1.1322
 3657TIP3    H232607   3.469   5.016   1.387 -0.1078  0.5170  1.4127
 3658TIP3   OH232608   1.309   3.387   1.754 -0.2503  0.0497 -0.2724
 3658TIP3    H132609   1.363   3.429   1.688 -0.1436 -0.0182 -0.2282
 3658TIP3    H232610   1.293   3.455   1.819 -0.3947  0.1297 -0.3921
 3659TIP3   OH232611   1.368   1.725   8.501  0.2844 -0.0829 -0.0798
 3659TIP3    H132612   1.292   1.733   8.558  0.8606  0.6232  0.6140
 3659TIP3    H232613   1.439   1.769   8.549  1.1645 -0.8459 -0.6375
 3660TIP3   OH232614   3.137   0.732   1.296 -0.3472  0.7048 -0.4566
 3660TIP3    H132615   3.167   0.782   1.372 -2.1486  1.9769 -0.5318
 3660TIP3    H232616   3.216   0.720   1.243  0.5812  1.3993  0.7171
 3661TIP3   OH232617   1.821   0.692   7.218  0.7444 -0.3478  0.0725
 3661TIP3    H132618   1.737   0.728   7.187  1.5009  0.2062 -1.4746
 3661TIP3    H232619   1.803   0.600   7.237  0.1383 -0.6858 -1.9121
 3662TIP3   OH232620   1.541   0.443   1.215  1.0239 -0.7148 -0.1381
 3662TIP3    H132621   1.627   0.425   1.253  0.8201 -1.6284 -0.0855
 3662TIP3    H232622   1.531   0.378   1.146  1.3511  0.8668 -1.7562
 3663TIP3   OH232623   1.140   5.421   1.557  0.1709 -0.4212  0.8021
 3663TIP3    H132624   1.229   5.399   1.530 -0.0148  0.0290 -0.2147
 3663TIP3    H232625   1.145   5.515   1.579 -0.6159  0.3491 -1.9306
 3664TIP3   OH232626   5.712   6.528   8.860 -0.5896 -0.4026  0.2234
 3664TIP3    H132627   5.704   6.575   8.943  2.1048  0.1719  0.2565
 3664TIP3    H232628   5.785   6.467   8.874  0.7028  0.4927 -2.0124
 3665TIP3   OH232629   1.284   2.713   1.217  0.1506  0.2865 -0.2144
 3665TIP3    H132630   1.320   2.718   1.306 -1.3483  0.9326  0.3921
 3665TIP3    H232631   1.360   2.727   1.160  1.5776 -2.4474  0.8531
 3666TIP3   OH232632   0.726   6.766   0.835  0.1154 -0.2577  0.1008
 3666TIP3    H132633   0.689   6.833   0.778 -1.4918 -1.1368  0.0482
 3666TIP3    H232634   0.781   6.713   0.777 -0.0846 -0.0817 -0.2519
 3667TIP3   OH232635   3.864   0.488   0.982  0.1284  0.6825  0.8147
 3667TIP3    H132636   3.865   0.414   0.921  0.5792  0.4553  1.0948
 3667TIP3    H232637   3.860   0.448   1.069 -0.4517  1.0056  0.9409
 3668TIP3   OH232638   1.841   6.070   8.616  0.4555 -0.3835  0.5873
 3668TIP3    H132639   1.820   6.117   8.535  1.8078  1.0496  1.0217
 3668TIP3    H232640   1.760   6.024   8.638 -0.4849  0.5969 -0.6529
 3669TIP3   OH232641   0.796   5.607   7.835  0.2960  0.7704 -0.1208
 3669TIP3    H132642   0.755   5.690   7.809  0.3311  0.6168 -0.6601
 3669TIP3    H232643   0.733   5.540   7.811 -0.4640  0.7307  1.8073
 3670TIP3   OH232644   6.191   0.728   1.207 -0.2600  0.0113  0.2582
 3670TIP3    H132645   6.181   0.728   1.112 -0.8308 -0.9253  0.3059
 3670TIP3    H232646   6.244   0.650   1.226 -0.9919 -0.3752  0.7793
 3671TIP3   OH232647   4.123   0.691   8.143  0.7538  0.3622 -0.1517
 3671TIP3    H132648   4.193   0.683   8.078  1.6053  0.9976  0.6664
 3671TIP3    H232649   4.043   0.691   8.091  1.3975  0.6072 -1.1851
 3672TIP3   OH232650   4.987   0.934   1.289  0.1554  0.3830 -0.3682
 3672TIP3    H132651   4.967   0.868   1.355 -2.9578  1.7685  0.2830
 3672TIP3    H232652   5.054   0.989   1.328 -1.5459  1.1122  1.7488
 3673TIP3   OH232653   6.129   3.326   7.992  0.1525 -0.0554  0.4637
 3673TIP3    H132654   6.211   3.368   8.021 -0.4199 -0.2845  2.5427
 3673TIP3    H232655   6.060   3.380   8.030 -0.6812 -0.1420 -0.8833
 3674TIP3   OH232656   5.693   0.282   8.233 -0.0879 -0.0558  0.3839
 3674TIP3    H132657   5.636   0.300   8.158  0.4687 -0.4535 -0.1425
 3674TIP3    H232658   5.774   0.249   8.194  0.5910  0.7212  1.1122
 3675TIP3   OH232659   5.072   0.656   8.057  0.5331  0.2361 -0.1152
 3675TIP3    H132660   5.002   0.692   8.111  2.9940  2.9851  1.5610
 3675TIP3    H232661   5.141   0.632   8.119  1.1960 -2.3605 -1.6806
 3676TIP3   OH232662   2.624   6.360   7.902 -0.7231  0.5173 -0.2478
 3676TIP3    H132663   2.545   6.306   7.893  0.0101 -0.4400 -1.1941
 3676TIP3    H232664   2.696   6.297   7.901  0.1066  1.4517 -0.3084
 3677TIP3   OH232665   1.701   0.514   9.000 -0.2968 -0.5336  0.4479
 3677TIP3    H132666   1.761   0.440   9.015 -1.0899 -0.9078  2.0497
 3677TIP3    H232667   1.643   0.484   8.930 -0.0450 -1.0833  0.4701
 3678TIP3   OH232668   5.350   0.546   1.599  0.1437 -0.5345 -0.5984
 3678TIP3    H132669   5.388   0.545   1.511  2.0741 -1.3948  0.1977
 3678TIP3    H232670   5.398   0.479   1.647 -1.3512 -0.5692  0.9457
 3679TIP3   OH232671   4.134   0.988   7.494 -0.2938 -0.6318 -0.4626
 3679TIP3    H132672   4.226   1.001   7.470 -0.3840 -1.3380 -1.2316
 3679TIP3    H232673   4.085   1.035   7.427 -0.5114 -0.7929 -0.4165
 3680TIP3   OH232674   0.066   4.408   8.300 -0.8051  0.4628  0.3549
 3680TIP3    H132675   0.034   4.470   8.365 -0.4992  0.2066  0.7569
 3680TIP3    H232676  -0.010   4.355   8.278 -0.8550  0.4013  0.6780
 3681TIP3   OH232677   2.644   2.222   0.500  0.1977  0.1443 -0.0331
 3681TIP3    H132678   2.589   2.228   0.422 -0.5716  2.2271  0.6173
 3681TIP3    H232679   2.583   2.220   0.573  0.9017 -2.2816  0.5573
 3682TIP3   OH232680   4.032   4.811   2.827 -0.0092 -0.2691 -0.0404
 3682TIP3    H132681   3.947   4.848   2.804  0.1280 -0.0876 -0.2513
 3682TIP3    H232682   4.026   4.719   2.799 -0.1904 -0.2959  0.0858
 3683TIP3   OH232683   3.764   0.604   0.656  0.2554  0.2356 -0.1379
 3683TIP3    H132684   3.739   0.555   0.578 -1.4473 -1.0826  1.1719
 3683TIP3    H232685   3.683   0.615   0.705  1.2887  0.9939  1.4939
 3684TIP3   OH232686   2.809   1.849   1.663 -0.2449 -0.2170 -0.4211
 3684TIP3    H132687   2.832   1.837   1.571  0.2181 -2.1849 -0.1128
 3684TIP3    H232688   2.719   1.817   1.669  0.8524 -3.6085  0.3472
 3685TIP3   OH232689   2.956   1.339   2.740  0.0031 -0.2086 -0.6371
 3685TIP3    H132690   3.013   1.408   2.706  0.6952  0.4144  1.6432
 3685TIP3    H232691   3.006   1.258   2.730  0.3698  0.0244 -0.6929
 3686TIP3   OH232692   1.179   4.762   0.131 -0.2306 -0.0762 -0.7574
 3686TIP3    H132693   1.207   4.671   0.124 -3.2218 -1.0598 -1.8720
 3686TIP3    H232694   1.128   4.778   0.051  1.0376  2.9492 -1.0982
 3687TIP3   OH232695   3.424   0.244   2.056  1.4806 -0.1597  0.3379
 3687TIP3    H132696   3.473   0.172   2.096  0.0819 -1.0763  0.4701
 3687TIP3    H232697   3.436   0.317   2.115  2.8983 -0.2784  0.2279
 3688TIP3   OH232698   5.276   6.087   0.331  0.1449 -0.1561 -0.2156
 3688TIP3    H132699   5.304   5.996   0.339 -0.7552 -0.3349  1.4593
 3688TIP3    H232700   5.192   6.090   0.377  0.6287  1.7216  0.6384
 3689TIP3   OH232701   4.018   2.153   1.797 -0.0192 -0.2391  0.2474
 3689TIP3    H132702   4.017   2.234   1.848  1.3158 -0.5290  0.7888
 3689TIP3    H232703   3.929   2.145   1.763 -0.4200  0.9782  0.9350
 3690TIP3   OH232704   3.414   5.833   1.484 -0.1394  0.3185  0.4495
 3690TIP3    H132705   3.366   5.912   1.459 -1.0230  0.2241  1.7446
 3690TIP3    H232706   3.391   5.769   1.417 -1.0395  0.5785  0.4959
 3691TIP3   OH232707   5.253   6.373   1.879 -0.1022 -0.5229  0.3245
 3691TIP3    H132708   5.344   6.352   1.858  0.4197  1.1920  0.6638
 3691TIP3    H232709   5.260   6.446   1.942 -1.7125 -0.2269  0.1968
 3692TIP3   OH232710   6.362   1.810   6.891 -0.0769  0.3294 -0.1453
 3692TIP3    H132711   6.407   1.807   6.807 -0.2758 -0.0548 -0.2369
 3692TIP3    H232712   6.431   1.800   6.956  0.0147  0.0966 -0.2777
 3693TIP3   OH232713   6.277   6.559   8.305 -0.0129 -0.7912  0.5105
 3693TIP3    H132714   6.362   6.544   8.348  0.8756  0.1272 -0.8364
 3693TIP3    H232715   6.219   6.587   8.376  0.8318 -1.2973  1.4400
 3694TIP3   OH232716   2.074   4.212   1.547 -0.0145 -0.0019 -0.8910
 3694TIP3    H132717   2.036   4.152   1.483 -2.2300 -0.1806  0.4853
 3694TIP3    H232718   2.059   4.299   1.509  1.3605 -0.1770 -1.9289
 3695TIP3   OH232719   5.235   4.783   8.011 -0.3288  0.5647  0.2488
 3695TIP3    H132720   5.231   4.713   7.946  1.2272  0.0583  0.6627
 3695TIP3    H232721   5.153   4.831   7.999 -0.4767 -0.0397 -1.4905
 3696TIP3   OH232722   1.264   4.016   7.597 -0.4233  0.0283  0.8766
 3696TIP3    H132723   1.263   4.025   7.502 -0.8542  0.9321  0.9525
 3696TIP3    H232724   1.243   3.924   7.613 -0.4415 -0.1108  0.1053
 3697TIP3   OH232725   2.504   3.992   7.577  0.0968 -0.5431 -0.0100
 3697TIP3    H132726   2.411   4.014   7.576  0.3335  0.5816  0.7189
 3697TIP3    H232727   2.540   4.033   7.499  0.1586 -0.0606  0.2640
 3698TIP3   OH232728   0.607   3.928   7.213 -0.0456  0.4476 -0.2087
 3698TIP3    H132729   0.671   3.870   7.172 -0.5616  0.3478 -0.9021
 3698TIP3    H232730   0.637   3.937   7.303  1.3663  0.9989 -0.6979
 3699TIP3   OH232731   0.423   6.125   7.637 -0.3749  0.3243 -0.7079
 3699TIP3    H132732   0.372   6.077   7.702 -1.6981  2.4489 -0.0503
 3699TIP3    H232733   0.510   6.132   7.675 -0.7923  0.4500  0.2577
 3700TIP3   OH232734   4.654   0.007   8.408  0.1143  0.1882 -0.0465
 3700TIP3    H132735   4.690  -0.018   8.494 -0.0425  0.0278 -0.0279
 3700TIP3    H232736   4.730   0.007   8.350  0.0939 -0.4578 -0.0745
 3701TIP3   OH232737   2.128   4.145   0.858 -0.0614 -0.7708 -0.2836
 3701TIP3    H132738   2.207   4.120   0.907 -1.2592 -1.7431  1.2446
 3701TIP3    H232739   2.127   4.086   0.784 -0.8555 -2.8293  1.2767
 3702TIP3   OH232740   6.714   0.992   8.613 -0.3920  0.0343 -0.1497
 3702TIP3    H132741   6.746   0.961   8.697 -0.5648 -0.9390 -0.4233
 3702TIP3    H232742   6.788   1.039   8.575 -0.7129  1.5971  1.0691
 3703TIP3   OH232743   2.457   3.400   0.640  0.1772  0.1912  0.1616
 3703TIP3    H132744   2.377   3.449   0.618 -1.6104 -2.8901 -0.8241
 3703TIP3    H232745   2.492   3.374   0.555  1.3486  0.1360  0.6560
 3704TIP3   OH232746   4.840   0.643   0.071  0.6033  0.1336  0.3722
 3704TIP3    H132747   4.820   0.577   0.137  1.2671  0.1670  0.6154
 3704TIP3    H232748   4.910   0.696   0.110 -0.3857  1.4204  0.4671
 3705TIP3   OH232749   5.035   3.118   0.830 -0.2300  0.3652 -0.1568
 3705TIP3    H132750   4.951   3.112   0.875  0.3506  1.1865  1.0768
 3705TIP3    H232751   5.059   3.211   0.836  0.8286  0.1168 -0.3629
 3706TIP3   OH232752   4.243   0.799   1.516 -0.2203 -0.4301 -0.6401
 3706TIP3    H132753   4.150   0.819   1.505 -0.6180 -2.9183 -3.0712
 3706TIP3    H232754   4.276   0.792   1.426  2.2864  0.1635  0.1668
 3707TIP3   OH232755   6.127   2.086   0.713  0.2092  0.3734 -0.5445
 3707TIP3    H132756   6.190   2.057   0.647  0.0512 -0.7116 -0.2399
 3707TIP3    H232757   6.137   2.023   0.785 -0.8101  0.5336 -0.2451
 3708TIP3   OH232758   3.823   3.860   0.087  1.0251  1.0930 -0.0536
 3708TIP3    H132759   3.796   3.825   0.002 -2.0519 -0.1437  1.2793
 3708TIP3    H232760   3.772   3.940   0.098  0.6768  0.7424  0.9869
 3709TIP3   OH232761   5.351   2.240   8.655  0.1034  0.2966 -0.1863
 3709TIP3    H132762   5.443   2.225   8.675  0.2776  0.5497 -0.7603
 3709TIP3    H232763   5.342   2.212   8.563 -0.2877  0.6811 -0.2686
 3710TIP3   OH232764   2.323   5.167   1.253  0.5585  0.5556  0.0428
 3710TIP3    H132765   2.319   5.231   1.324  1.2601  2.0440 -1.1855
 3710TIP3    H232766   2.411   5.176   1.218  1.2303 -2.2773  0.8314
 3711TIP3   OH232767   1.308   3.898   0.547 -0.1949 -0.6403 -0.9077
 3711TIP3    H132768   1.241   3.958   0.515  0.2921  0.7870  0.6102
 3711TIP3    H232769   1.261   3.816   0.564 -1.6351  0.3855  0.3188
 3712TIP3   OH232770   5.631   3.237   1.415 -0.0233  0.7156  0.4068
 3712TIP3    H132771   5.692   3.272   1.481  0.4373 -0.0920  0.4247
 3712TIP3    H232772   5.674   3.158   1.382  0.7771  2.2190 -2.4354
 3713TIP3   OH232773   2.367   1.967   0.412  0.1514  0.1969 -0.1733
 3713TIP3    H132774   2.374   1.905   0.340  1.3576 -0.5137  0.5359
 3713TIP3    H232775   2.450   1.960   0.460 -1.0643 -0.2690  2.0266
 3714TIP3   OH232776   5.850   5.678   2.037  0.1138 -0.8350  0.8102
 3714TIP3    H132777   5.818   5.588   2.030 -0.2377 -0.7272  1.0031
 3714TIP3    H232778   5.771   5.732   2.033  0.4402 -0.4327 -1.0094
 3715TIP3   OH232779   1.215   6.406   0.251 -0.5775  0.0692  1.0204
 3715TIP3    H132780   1.291   6.433   0.200 -1.4679 -1.8948 -1.5692
 3715TIP3    H232781   1.149   6.473   0.234 -0.4820  0.0351  0.4887
 3716TIP3   OH232782   5.548   0.428   7.413 -0.0722 -0.0055 -0.2514
 3716TIP3    H132783   5.584   0.478   7.339  0.6701  2.7407  1.7881
 3716TIP3    H232784   5.616   0.433   7.480 -1.4743 -0.7736  1.2964
 3717TIP3   OH232785   5.536   0.010   8.750  0.1619 -0.4452  0.2644
 3717TIP3    H132786   5.550   0.032   8.658  0.8008  0.2863  0.5292
 3717TIP3    H232787   5.466  -0.055   8.748  1.3005 -1.6936 -0.8507
 3718TIP3   OH232788   3.335   3.586   1.343  0.4386 -0.7149 -0.1781
 3718TIP3    H132789   3.345   3.681   1.350  0.8294 -0.6468 -1.3967
 3718TIP3    H232790   3.337   3.555   1.434  0.7606  0.3911  0.2118
 3719TIP3   OH232791   3.329   3.186   1.242 -0.0843 -0.2923 -0.0197
 3719TIP3    H132792   3.274   3.260   1.216  1.0643  0.4167 -0.5011
 3719TIP3    H232793   3.395   3.225   1.300  1.0010 -0.7782 -0.8942
 3720TIP3   OH232794   5.930   3.197   8.274  0.7830  0.0382  0.7944
 3720TIP3    H132795   5.951   3.144   8.197  0.9948  1.1612  0.0616
 3720TIP3    H232796   5.986   3.161   8.343  2.2123  0.4029 -0.1249
 3721TIP3   OH232797   2.470   2.968   8.240 -0.6438  0.6888 -0.2880
 3721TIP3    H132798   2.448   2.907   8.311 -1.3680  1.3943  0.1050
 3721TIP3    H232799   2.387   2.983   8.195 -0.0316 -0.5761 -1.9898
 3722TIP3   OH232800   5.881   6.471   0.817  0.2791 -0.3741 -0.3266
 3722TIP3    H132801   5.935   6.450   0.740  0.7965  0.3732 -0.1767
 3722TIP3    H232802   5.888   6.393   0.872  2.3723  0.2106  0.3345
 3723TIP3   OH232803   0.830   3.785   0.157 -0.3912  0.1714  0.7334
 3723TIP3    H132804   0.819   3.846   0.084 -1.5306 -0.4734  0.3550
 3723TIP3    H232805   0.872   3.708   0.118 -1.4113 -0.3554  0.6479
 3724TIP3   OH232806   3.571   3.946   7.360  0.5647 -0.3310 -0.2447
 3724TIP3    H132807   3.578   3.856   7.326 -1.2244 -0.8647  0.6945
 3724TIP3    H232808   3.650   3.957   7.413  0.8398 -1.3355 -0.4240
 3725TIP3   OH232809   2.339   0.903   7.637 -0.1596 -0.0576 -0.1220
 3725TIP3    H132810   2.361   0.811   7.651  0.2943  0.1224  0.3593
 3725TIP3    H232811   2.246   0.909   7.661 -0.3732 -0.5194 -0.7920
 3726TIP3   OH232812   2.497   1.274   2.950 -0.5196  0.1945 -0.3616
 3726TIP3    H132813   2.589   1.283   2.928 -0.6226  0.3594 -0.7334
 3726TIP3    H232814   2.496   1.227   3.033 -0.0769  0.7153 -0.0582
 3727TIP3   OH232815   1.209   5.056   1.735 -0.1041  0.3174  0.0714
 3727TIP3    H132816   1.221   5.038   1.642 -0.7571  2.6154 -0.5355
 3727TIP3    H232817   1.126   5.014   1.758 -0.8984  1.2878 -0.9106
 3728TIP3   OH232818   0.465   5.655   1.780  0.1396  0.5001 -0.6645
 3728TIP3    H132819   0.516   5.736   1.771  2.1299 -0.4577  0.9981
 3728TIP3    H232820   0.418   5.666   1.863  3.1478 -1.2798  1.4705
 3729TIP3   OH232821   6.720   5.860   2.170 -0.7400 -0.2414  0.0208
 3729TIP3    H132822   6.706   5.788   2.232  0.7276 -0.7134 -0.1550
 3729TIP3    H232823   6.735   5.937   2.225 -0.9782 -0.3327  0.2178
 3730TIP3   OH232824   3.481   2.750   2.171  0.1176  0.0212  0.2170
 3730TIP3    H132825   3.547   2.788   2.228 -2.3853  2.7618  1.5828
 3730TIP3    H232826   3.417   2.712   2.231 -2.4518  2.7365 -0.5260
 3731TIP3   OH232827   4.595   0.585   1.616 -0.3620 -0.3006  0.1313
 3731TIP3    H132828   4.661   0.556   1.679  1.2462  0.8227 -0.9568
 3731TIP3    H232829   4.518   0.607   1.669  0.7524  0.1199  1.6406
 3732TIP3   OH232830   2.749   4.801   1.545 -0.3931  0.1243 -0.4517
 3732TIP3    H132831   2.683   4.871   1.546 -0.9672 -0.3974  1.0998
 3732TIP3    H232832   2.698   4.720   1.553  0.4030 -0.3205  0.2639
 3733TIP3   OH232833   1.836   1.693   1.303  0.2640 -0.5484 -0.3473
 3733TIP3    H132834   1.919   1.722   1.340  0.3163 -0.8312 -0.2367
 3733TIP3    H232835   1.770   1.728   1.362  0.2884 -0.0896 -0.5898
 3734TIP3   OH232836   3.043   0.107   7.144  0.0113 -0.1638 -0.3592
 3734TIP3    H132837   3.070   0.158   7.067 -0.6268 -1.6131 -1.6043
 3734TIP3    H232838   2.963   0.150   7.174 -0.4923 -0.3674 -1.3562
 3735TIP3   OH232839   0.668   5.611   0.221  0.1398 -0.6393 -0.2041
 3735TIP3    H132840   0.751   5.622   0.173  0.7600 -0.3721  0.8970
 3735TIP3    H232841   0.608   5.672   0.179  1.3854  1.5152  0.9420
 3736TIP3   OH232842   3.072   2.326   7.430 -0.4759 -0.5165  0.1748
 3736TIP3    H132843   3.108   2.256   7.377  0.3720 -0.3744  0.5383
 3736TIP3    H232844   3.136   2.397   7.422 -0.3694 -0.4637  1.2967
 3737TIP3   OH232845   3.383   1.122   6.779 -0.5685  0.3798  0.1649
 3737TIP3    H132846   3.288   1.115   6.793 -0.5006  0.3866  0.6336
 3737TIP3    H232847   3.393   1.199   6.721 -1.1118 -1.6029 -2.8054
 3738TIP3   OH232848   5.754   5.202   0.512 -0.7911  0.0601  0.4388
 3738TIP3    H132849   5.761   5.148   0.433 -4.1205  1.7899 -1.2368
 3738TIP3    H232850   5.742   5.139   0.583 -1.1139 -1.4808 -0.9304
 3739TIP3   OH232851   5.018   1.386   7.749 -0.4465  0.2070 -0.6134
 3739TIP3    H132852   4.953   1.365   7.683  1.8508 -2.8665 -2.1649
 3739TIP3    H232853   4.995   1.330   7.824 -0.8256  0.8061 -0.2710
 3740TIP3   OH232854   2.388   2.522   7.014  0.1786 -0.2116 -0.2976
 3740TIP3    H132855   2.296   2.503   7.034  0.8687 -1.8206  1.7699
 3740TIP3    H232856   2.409   2.465   6.941 -0.3165 -0.2671 -0.4003
 3741TIP3   OH232857   3.385   5.322   7.082 -0.3774 -0.3981 -0.0418
 3741TIP3    H132858   3.309   5.376   7.059 -0.8747 -0.3717  1.5073
 3741TIP3    H232859   3.349   5.254   7.138  0.7674 -0.2504  0.9161
 3742TIP3   OH232860   4.855   2.088   7.798 -0.2656  0.1471  0.0745
 3742TIP3    H132861   4.793   2.143   7.750 -0.6916 -1.4879 -1.3588
 3742TIP3    H232862   4.832   2.100   7.890 -2.1486  0.2656 -0.3711
 3743TIP3   OH232863   2.820   6.618   8.539 -0.3537  0.2564  0.0362
 3743TIP3    H132864   2.731   6.594   8.567 -0.0223  0.7526  1.6597
 3743TIP3    H232865   2.807   6.681   8.468 -1.3075  0.3049  0.2378
 3744TIP3   OH232866   3.682   3.153   8.376  0.1428 -0.2836  0.5118
 3744TIP3    H132867   3.706   3.170   8.285 -1.6035 -2.4525 -0.4287
 3744TIP3    H232868   3.702   3.060   8.389  0.5769  0.0403  2.4473
 3745TIP3   OH232869   2.426   6.422   7.550  0.6060  0.5017 -0.5363
 3745TIP3    H132870   2.407   6.437   7.458 -0.2187  0.2916 -0.4136
 3745TIP3    H232871   2.388   6.336   7.569 -0.1198  0.9681  0.2243
 3746TIP3   OH232872   5.243   1.838   0.103  0.4946 -0.0596 -0.2226
 3746TIP3    H132873   5.293   1.843   0.022 -0.3255  0.2705 -0.7190
 3746TIP3    H232874   5.155   1.813   0.076 -0.0016  0.8472  0.4698
 3747TIP3   OH232875   5.297   0.694   1.260 -0.0062 -0.1317  0.3440
 3747TIP3    H132876   5.313   0.600   1.261  2.1727  0.1721  1.5327
 3747TIP3    H232877   5.364   0.730   1.202 -1.2093  0.6585 -0.5994
 3748TIP3   OH232878   6.751   2.957   2.137 -0.0672  0.2438 -0.4711
 3748TIP3    H132879   6.721   2.951   2.228  0.9098 -0.4694 -0.1812
 3748TIP3    H232880   6.812   3.030   2.137 -0.8936  0.9465 -0.8052
 3749TIP3   OH232881   4.090   4.282   8.732  0.1587  0.0691  0.0514
 3749TIP3    H132882   4.090   4.208   8.792  1.8326 -0.8466 -1.0077
 3749TIP3    H232883   4.121   4.356   8.784  2.4678 -0.8960  0.1761
 3750TIP3   OH232884   5.783   1.731   2.610 -0.2500  0.5135 -0.2976
 3750TIP3    H132885   5.717   1.789   2.648 -0.8422 -1.0064  1.1086
 3750TIP3    H232886   5.867   1.764   2.644 -0.5837  0.5184  0.5401
 3751TIP3   OH232887   5.793   1.940   0.802 -0.5402 -0.1233  0.1238
 3751TIP3    H132888   5.823   2.011   0.746 -1.6480 -0.1703 -0.5647
 3751TIP3    H232889   5.783   1.981   0.889  1.7159 -0.1872  0.4573
 3752TIP3   OH232890   1.291   4.316   1.681  0.2818 -0.5526  0.1110
 3752TIP3    H132891   1.378   4.298   1.646  0.3505 -1.5145  0.7226
 3752TIP3    H232892   1.253   4.379   1.621  1.1257 -0.6798 -0.5747
 3753TIP3   OH232893   6.023   1.632   7.949  0.3340 -0.0580 -0.3283
 3753TIP3    H132894   6.043   1.717   7.987 -1.7649 -0.2384  1.4368
 3753TIP3    H232895   6.108   1.590   7.938  1.3129  1.6742  0.2136
 3754TIP3   OH232896   6.618   3.546   2.935 -0.0267  0.1558  0.1512
 3754TIP3    H132897   6.669   3.524   2.857  1.9596  1.5243  0.9561
 3754TIP3    H232898   6.530   3.515   2.916  1.2991 -3.4558 -0.8688
 3755TIP3   OH232899   3.660   4.346   1.283  0.0548 -0.2516 -0.5183
 3755TIP3    H132900   3.569   4.331   1.258  0.1763 -0.7005 -0.6987
 3755TIP3    H232901   3.657   4.425   1.336 -0.3545  0.1021 -1.0560
 3756TIP3   OH232902   3.441   1.888   7.749 -0.1526  0.3985 -0.5158
 3756TIP3    H132903   3.364   1.847   7.710 -0.8222  3.3383 -2.6010
 3756TIP3    H232904   3.406   1.943   7.819  0.3551  0.1039 -0.0141
 3757TIP3   OH232905   2.982   3.200   7.976  0.1505 -0.1713  0.7968
 3757TIP3    H132906   2.969   3.153   8.058  0.9083  0.3988  1.2583
 3757TIP3    H232907   3.048   3.149   7.929 -0.3098 -0.5174  0.5195
 3758TIP3   OH232908   3.996   0.373   7.491 -0.2216  0.3908  0.3656
 3758TIP3    H132909   3.915   0.349   7.446 -0.3926  2.4038 -0.5091
 3758TIP3    H232910   4.048   0.293   7.490 -1.1286 -0.2451 -1.4538
 3759TIP3   OH232911   1.031   3.805   0.852 -0.0946  0.3033  0.4584
 3759TIP3    H132912   1.048   3.792   0.759 -1.3928  0.0114  0.2475
 3759TIP3    H232913   1.091   3.744   0.896 -0.4260 -0.5470 -0.2402
 3760TIP3   OH232914   2.880   3.863   7.279  0.0741 -0.4264 -0.3117
 3760TIP3    H132915   2.962   3.853   7.327  0.8191 -1.0820 -1.6640
 3760TIP3    H232916   2.902   3.923   7.208 -0.5486 -0.8286 -0.8472
 3761TIP3   OH232917   5.203   4.631   1.887  0.3689 -0.5796  0.1167
 3761TIP3    H132918   5.139   4.634   1.958  1.1719  0.3508  0.8258
 3761TIP3    H232919   5.281   4.592   1.926  1.2184  1.0160  0.1188
 3762TIP3   OH232920   5.473   5.779   0.745 -0.5807 -0.4021 -0.2785
 3762TIP3    H132921   5.382   5.750   0.747 -1.4175  1.8016 -2.1398
 3762TIP3    H232922   5.516   5.728   0.814 -3.0984 -1.8183  0.3630
 3763TIP3   OH232923   4.461   5.482   0.254  0.5229  0.2120  0.0670
 3763TIP3    H132924   4.531   5.481   0.188  0.4002 -1.4861 -0.0649
 3763TIP3    H232925   4.463   5.395   0.293 -0.7962  0.5109  0.8607
 3764TIP3   OH232926   6.306   0.042   0.885  0.2059  1.0961 -0.2268
 3764TIP3    H132927   6.356  -0.009   0.948 -1.0731 -0.3478 -0.3135
 3764TIP3    H232928   6.232   0.077   0.936 -1.7411 -1.4037 -1.1127
 3765TIP3   OH232929   3.589   0.552   8.576  0.7947  0.1862  0.2391
 3765TIP3    H132930   3.606   0.485   8.510  0.7106  0.2098  0.1939
 3765TIP3    H232931   3.502   0.586   8.554 -1.0191 -2.4844  2.6052
 3766TIP3   OH232932   5.054   4.229   0.268 -0.3053  0.2328 -0.0319
 3766TIP3    H132933   5.108   4.243   0.191  0.3252  0.9770  0.5368
 3766TIP3    H232934   4.980   4.289   0.257 -1.2071 -0.9886 -0.9498
 3767TIP3   OH232935   1.074   0.667   1.674 -0.2217 -0.1685 -0.4972
 3767TIP3    H132936   1.103   0.578   1.692 -1.0720 -0.4056 -0.2641
 3767TIP3    H232937   0.980   0.659   1.658 -0.1765  0.5831 -1.2059
 3768TIP3   OH232938   0.976   6.520   2.032  0.4176 -0.3145 -0.0516
 3768TIP3    H132939   1.034   6.444   2.024 -0.4201 -1.0435  0.7138
 3768TIP3    H232940   0.923   6.517   1.953 -0.2126 -1.0459  0.3875
 3769TIP3   OH232941   4.186   1.502   0.583  0.2175  0.2611  0.4739
 3769TIP3    H132942   4.202   1.407   0.582 -1.7218 -0.2341  3.2260
 3769TIP3    H232943   4.099   1.512   0.546  0.2082  0.9120  0.6658
 3770TIP3   OH232944   5.449   2.980   7.386  0.1173  0.1881 -0.0588
 3770TIP3    H132945   5.435   2.922   7.311 -0.1456  1.1358 -0.7645
 3770TIP3    H232946   5.409   2.935   7.459 -2.1834  0.5143 -1.0459
 3771TIP3   OH232947   1.144   1.600   8.861 -0.1096  0.2580  0.4383
 3771TIP3    H132948   1.118   1.547   8.786  0.7604 -0.9354  0.9452
 3771TIP3    H232949   1.202   1.667   8.825  1.7305 -1.3699  0.2251
 3772TIP3   OH232950   5.808   6.290   8.652  0.1118  0.3889 -0.3216
 3772TIP3    H132951   5.839   6.199   8.646  1.0451  0.6269  0.6361
 3772TIP3    H232952   5.886   6.340   8.674 -1.0081  0.9362  2.9472
 3773TIP3   OH232953   5.973   1.148   8.647  0.1817  0.4855 -0.0931
 3773TIP3    H132954   5.897   1.097   8.616  2.0938 -1.9304 -1.1822
 3773TIP3    H232955   5.951   1.239   8.626 -1.6987 -0.3010 -1.9667
 3774TIP3   OH232956   3.312   0.190   7.278  0.1050  0.1747 -0.4402
 3774TIP3    H132957   3.225   0.170   7.246 -0.2926  3.1665 -1.5909
 3774TIP3    H232958   3.368   0.186   7.200  0.7004 -0.2318  0.0012
 3775TIP3   OH232959   0.034   6.428   6.620  0.6202 -0.1215 -0.3557
 3775TIP3    H132960   0.036   6.426   6.524  0.5769  0.0080 -0.3594
 3775TIP3    H232961   0.126   6.426   6.646  0.7797  2.5290 -0.4605
 3776TIP3   OH232962   0.638   5.547   1.459  0.7105 -0.1199 -0.2999
 3776TIP3    H132963   0.620   5.520   1.369  3.6580 -0.0929 -1.0000
 3776TIP3    H232964   0.629   5.642   1.459 -0.1831 -0.1968 -0.3053
 3777TIP3   OH232965   4.073   1.717   1.545  0.0771 -0.1198 -0.5268
 3777TIP3    H132966   4.095   1.752   1.459 -0.2922 -0.5110 -0.7888
 3777TIP3    H232967   4.073   1.622   1.533 -1.0219 -0.1550 -0.3721
 3778TIP3   OH232968   3.669   3.572   7.668  0.0675 -0.4809 -0.6705
 3778TIP3    H132969   3.751   3.622   7.671 -1.5278  2.3580 -0.7390
 3778TIP3    H232970   3.659   3.549   7.576  1.0159 -1.3013 -0.5808
 3779TIP3   OH232971   3.599   3.558   1.253 -0.0105 -0.1152 -0.2960
 3779TIP3    H132972   3.509   3.571   1.282 -0.4073 -0.7263 -1.1853
 3779TIP3    H232973   3.614   3.630   1.190 -0.7654 -1.3970 -2.0350
 3780TIP3   OH232974   3.708   4.165   7.891 -0.0328  0.3007  0.0919
 3780TIP3    H132975   3.649   4.196   7.822 -0.8550  0.1551  0.7092
 3780TIP3    H232976   3.731   4.076   7.865  0.4376  0.5870 -0.4822
 3781TIP3   OH232977   3.609   2.228   1.830 -0.1465 -0.0596  0.0211
 3781TIP3    H132978   3.544   2.275   1.779  0.8541  1.1183 -0.2257
 3781TIP3    H232979   3.681   2.213   1.769 -0.2169 -1.4390  0.2556
 3782TIP3   OH232980   4.504   2.480   1.000 -0.4981 -0.3186  0.0951
 3782TIP3    H132981   4.544   2.462   0.915 -0.4741 -0.2968  0.1014
 3782TIP3    H232982   4.414   2.449   0.992 -0.3724 -0.7123  0.2063
 3783TIP3   OH232983   0.302   2.944   7.034  0.1352 -0.2046 -0.6099
 3783TIP3    H132984   0.216   2.918   7.004  0.1440  0.2761 -1.0664
 3783TIP3    H232985   0.334   3.006   6.968  1.2525 -1.1421 -0.9905
 3784TIP3   OH232986   6.073   0.512   6.958  0.0026  0.4136  0.1325
 3784TIP3    H132987   6.015   0.437   6.965 -0.2415  0.6409  0.5903
 3784TIP3    H232988   6.056   0.548   6.871 -0.4574  0.4164  0.2244
 3785TIP3   OH232989   1.943   4.778   0.416 -0.0011 -0.3291 -0.1858
 3785TIP3    H132990   1.904   4.734   0.491  0.4150 -1.3190 -0.5356
 3785TIP3    H232991   1.907   4.867   0.419 -1.4828 -0.9064  0.0709
 3786TIP3   OH232992   3.914   5.026   0.851 -0.6274  0.1425 -0.5265
 3786TIP3    H132993   3.868   4.947   0.878  0.1177 -0.4769 -1.0206
 3786TIP3    H232994   4.006   5.000   0.848 -0.0967  1.5716  1.2875
 3787TIP3   OH232995   3.416   4.813   2.279  0.2816  0.0275  0.1501
 3787TIP3    H132996   3.443   4.861   2.356  0.9647 -0.6052  0.3151
 3787TIP3    H232997   3.367   4.877   2.227 -4.8072 -0.6639  3.3791
 3788TIP3   OH232998   2.765   2.733   8.839 -0.2273  0.4324  0.2194
 3788TIP3    H132999   2.830   2.703   8.775 -0.6207 -0.1267  0.0757
 3788TIP3    H233000   2.818   2.760   8.915  0.1821  0.1213  0.0507
 3789TIP3   OH233001   3.336   2.674   0.917  0.0980 -0.0133  1.0110
 3789TIP3    H133002   3.316   2.767   0.926 -1.2838 -0.3472  1.6307
 3789TIP3    H233003   3.254   2.629   0.936  0.9460 -1.4083  1.5864
 3790TIP3   OH233004   5.490   3.918   0.410  0.2510 -0.0530 -0.2467
 3790TIP3    H133005   5.478   3.878   0.324  1.4136  1.0494 -0.9628
 3790TIP3    H233006   5.507   3.845   0.469 -1.1975 -0.8913 -0.7981
 3791TIP3   OH233007   1.626   2.901   7.865 -0.1360 -0.1981  0.3194
 3791TIP3    H133008   1.590   2.812   7.863  1.3739 -0.8470  0.5043
 3791TIP3    H233009   1.713   2.890   7.904  0.4023  1.2496 -0.4191
 3792TIP3   OH233010   6.740   1.093   1.624  0.5173  0.0373 -0.3668
 3792TIP3    H133011   6.693   1.047   1.692  2.0355  1.2621  1.6400
 3792TIP3    H233012   6.715   1.185   1.635  0.0681  0.1721 -2.1294
 3793TIP3   OH233013   3.200   1.851   0.773 -0.4887 -0.3078 -0.0252
 3793TIP3    H133014   3.161   1.773   0.811 -1.3975 -0.1241 -0.5500
 3793TIP3    H233015   3.167   1.923   0.826  0.1521 -0.2499  0.3062
 3794TIP3   OH233016   6.525   4.924   0.875 -0.3858 -0.2954 -0.5069
 3794TIP3    H133017   6.596   4.877   0.919 -0.7077  0.2408  0.6288
 3794TIP3    H233018   6.567   4.965   0.800  0.8427  1.0852  0.8508
 3795TIP3   OH233019   2.447   0.985   1.752  1.0037 -0.1765  0.0512
 3795TIP3    H133020   2.392   0.910   1.771 -1.1358  1.2840 -0.0148
 3795TIP3    H233021   2.428   1.048   1.822 -0.7140  2.0107 -2.1786
 3796TIP3   OH233022   2.885   0.602   8.015 -0.3291  0.2208  0.2168
 3796TIP3    H133023   2.895   0.518   8.061 -1.0109 -0.3919 -0.7228
 3796TIP3    H233024   2.823   0.651   8.070 -1.4924 -0.6813 -0.2426
 3797TIP3   OH233025   5.656   5.821   0.162  0.3855  0.4596  0.2536
 3797TIP3    H133026   5.644   5.883   0.090 -2.5282  0.4681  0.6389
 3797TIP3    H233027   5.660   5.875   0.240  2.7200  0.3935  0.2464
 3798TIP3   OH233028   5.234   4.806   8.936  0.6207 -0.0891  0.1209
 3798TIP3    H133029   5.201   4.735   8.992 -1.5436 -0.2104 -1.1834
 3798TIP3    H233030   5.302   4.766   8.883  0.6070 -0.7368  0.5826
 3799TIP3   OH233031   3.323   1.425   8.857 -0.1663 -0.1373 -0.3394
 3799TIP3    H133032   3.279   1.446   8.775 -0.3580 -0.6016 -0.3531
 3799TIP3    H233033   3.254   1.430   8.923 -0.4659 -1.8010 -0.4868
 3800TIP3   OH233034   1.553   6.273   7.845 -0.3219 -0.1154 -0.1475
 3800TIP3    H133035   1.550   6.179   7.862 -0.8780 -0.2743 -1.0325
 3800TIP3    H233036   1.640   6.288   7.808 -0.4552 -0.4005 -0.5908
 3801TIP3   OH233037   0.322   0.700   0.393  0.6203 -0.1105  0.3935
 3801TIP3    H133038   0.404   0.720   0.438  0.2611  0.4437  0.8128
 3801TIP3    H233039   0.281   0.632   0.447  0.3000  0.3879  0.7933
 3802TIP3   OH233040   0.055   2.224   0.920  0.3344  0.1733 -0.1624
 3802TIP3    H133041  -0.022   2.274   0.891  1.0357  0.9775 -0.7186
 3802TIP3    H233042   0.090   2.186   0.839  0.0265 -0.9138  0.2101
 3803TIP3   OH233043   2.629   1.821   0.164 -0.4508 -0.4671  0.6827
 3803TIP3    H133044   2.554   1.874   0.136  0.6231  1.9498  2.0723
 3803TIP3    H233045   2.607   1.794   0.254  0.5377  0.7498  1.3154
 3804TIP3   OH233046   0.438   2.512   1.121 -0.0356  0.3315 -0.3686
 3804TIP3    H133047   0.524   2.535   1.087 -0.4360  0.9986 -0.9443
 3804TIP3    H233048   0.441   2.417   1.133  0.6787  0.3178 -0.6590
 3805TIP3   OH233049   2.682   5.077   1.610 -0.3558 -0.5119 -0.4442
 3805TIP3    H133050   2.751   5.064   1.676 -0.0606 -0.5378 -0.7555
 3805TIP3    H233051   2.636   5.155   1.640  1.4244  1.0786 -1.5778
 3806TIP3   OH233052   1.491   2.684   7.960  0.2090 -0.6748  0.3370
 3806TIP3    H133053   1.516   2.601   8.001 -0.9288 -0.9122  0.5969
 3806TIP3    H233054   1.450   2.658   7.878  2.8395 -0.1798 -1.2423
 3807TIP3   OH233055   1.905   1.757   1.055  0.1149  0.0391 -0.3216
 3807TIP3    H133056   2.000   1.747   1.063 -0.0224 -1.0517  0.1570
 3807TIP3    H233057   1.871   1.717   1.135 -0.6801  2.0354  0.3884
 3808TIP3   OH233058   5.869   6.109   8.278  0.5941 -0.4155  0.4460
 3808TIP3    H133059   5.798   6.081   8.336  0.2004 -1.1410 -0.3665
 3808TIP3    H233060   5.949   6.097   8.330  0.2017 -0.3905  1.0734
 3809TIP3   OH233061   2.147   3.360   8.206  0.1079 -0.1812 -0.1496
 3809TIP3    H133062   2.087   3.426   8.239  0.5558 -0.3642  1.1066
 3809TIP3    H233063   2.226   3.408   8.183 -0.4243  0.0327 -1.6155
 3810TIP3   OH233064   5.322   0.265   8.745  0.3200  0.0518  0.1430
 3810TIP3    H133065   5.383   0.300   8.810 -1.3512 -0.3928  2.0374
 3810TIP3    H233066   5.284   0.342   8.704  0.6463  0.3585  0.4126
 3811TIP3   OH233067   4.770   3.008   8.906 -0.3286 -0.2627 -0.3772
 3811TIP3    H133068   4.849   3.055   8.933 -0.2234 -0.0491 -1.0430
 3811TIP3    H233069   4.756   3.034   8.815 -1.7229  0.4577  0.0105
 3812TIP3   OH233070   5.588   0.560   6.543 -0.0721  0.3814 -0.3332
 3812TIP3    H133071   5.539   0.591   6.620 -1.9076  1.0043 -1.6814
 3812TIP3    H233072   5.623   0.640   6.503 -1.2725  0.3482 -1.5104
 3813TIP3   OH233073   6.735   3.656   1.885 -0.0065 -0.2888  0.5453
 3813TIP3    H133074   6.703   3.566   1.889  1.6172 -1.0389 -1.2583
 3813TIP3    H233075   6.785   3.659   1.803  0.6747  2.0307  0.9837
 3814TIP3   OH233076   3.611   5.512   0.905 -0.1103 -0.7092 -0.1199
 3814TIP3    H133077   3.591   5.523   0.997 -1.2124  0.1373 -0.4412
 3814TIP3    H233078   3.692   5.461   0.904 -0.2547 -1.0091  1.2979
 3815TIP3   OH233079   4.854   0.775   0.975  0.0596 -0.7324  0.2266
 3815TIP3    H133080   4.908   0.764   1.053 -0.6442  1.2773  1.0632
 3815TIP3    H233081   4.916   0.774   0.902  1.0982  0.4345  1.0705
 3816TIP3   OH233082   1.198   3.830   8.591  0.2583 -0.1813  0.0336
 3816TIP3    H133083   1.253   3.880   8.531  0.8252 -0.1249  0.5819
 3816TIP3    H233084   1.255   3.760   8.623  0.3817  0.5323  1.4562
 3817TIP3   OH233085   6.332   5.345   8.897  0.2471 -0.0618  0.6222
 3817TIP3    H133086   6.370   5.327   8.811  1.1046 -2.0856  1.3762
 3817TIP3    H233087   6.240   5.364   8.879 -0.0683 -2.4088 -0.6053
 3818TIP3   OH233088   0.200   0.298   1.096  0.2054  0.5131  0.2111
 3818TIP3    H133089   0.185   0.348   1.177 -2.0065 -1.1955  0.9646
 3818TIP3    H233090   0.187   0.207   1.122  0.2684 -0.1527 -1.9350
 3819TIP3   OH233091   6.019   5.494   1.931 -0.0634 -0.0380 -0.0144
 3819TIP3    H133092   6.005   5.469   2.022  0.0306  0.1496  0.0501
 3819TIP3    H233093   5.983   5.420   1.881 -0.0098 -0.1953  0.1749
 3820TIP3   OH233094   3.544   2.490   0.929  0.1142 -0.6251 -0.3375
 3820TIP3    H133095   3.514   2.404   0.957 -1.4251  0.6289  2.1648
 3820TIP3    H233096   3.467   2.546   0.936  1.6946  1.5489  0.8143
 3821TIP3   OH233097   5.010   0.635   0.793 -0.0635 -0.3119  0.0608
 3821TIP3    H133098   5.072   0.691   0.746  0.2482 -0.6877  0.0165
 3821TIP3    H233099   5.048   0.626   0.881  0.3116 -1.0953 -0.1650
 3822TIP3   OH233100   3.691   3.446   0.563  0.1933  0.1413 -0.3094
 3822TIP3    H133101   3.739   3.519   0.603 -0.1653  1.0076 -1.3964
 3822TIP3    H233102   3.758   3.397   0.516  0.6282 -0.9208  1.3454
 3823TIP3   OH233103   5.520   1.674   0.452  0.2363  0.4942  0.0115
 3823TIP3    H133104   5.615   1.683   0.458  0.3792 -0.8162  0.1719
 3823TIP3    H233105   5.491   1.751   0.403  1.6278 -0.1383 -1.9350
 3824TIP3   OH233106   5.407   1.038   2.117 -0.0118 -0.2730  0.5909
 3824TIP3    H133107   5.385   1.013   2.207 -1.1672 -0.4445  0.2867
 3824TIP3    H233108   5.500   1.019   2.108 -0.2056 -1.6964  1.2899
 3825TIP3   OH233109   0.661   6.366   1.349 -0.0448  0.1892 -0.3043
 3825TIP3    H133110   0.617   6.384   1.265  1.7372  0.4355 -1.2316
 3825TIP3    H233111   0.739   6.317   1.325 -1.2148 -2.8761  1.5592
 3826TIP3   OH233112   1.086   6.639   0.187 -0.0588 -0.0234  0.0226
 3826TIP3    H133113   1.109   6.680   0.103 -1.6762 -0.0315 -0.4486
 3826TIP3    H233114   1.045   6.709   0.237 -2.1662 -0.8114 -0.5065
 3827TIP3   OH233115   3.844   4.277   1.545 -0.7707  0.2993  0.1665
 3827TIP3    H133116   3.785   4.323   1.485 -0.2260 -0.0913 -0.6847
 3827TIP3    H233117   3.834   4.323   1.629 -0.7589  1.5144 -0.4800
 3828TIP3   OH233118   0.318   6.310   0.010  0.0680 -0.2274 -0.6468
 3828TIP3    H133119   0.322   6.229  -0.041 -0.5681  0.0654 -1.1663
 3828TIP3    H233120   0.319   6.280   0.101  1.1671 -0.7561 -0.8014
 3829TIP3   OH233121   2.826   4.147   0.687 -0.4244  0.2437  0.1617
 3829TIP3    H133122   2.902   4.166   0.741  1.3250 -0.0998 -2.0436
 3829TIP3    H233123   2.821   4.219   0.624 -0.7671 -0.6656 -0.9046
 3830TIP3   OH233124   2.273   0.411   2.061 -0.2753  0.0468 -0.1283
 3830TIP3    H133125   2.367   0.394   2.067 -0.3180 -0.2188 -0.1788
 3830TIP3    H233126   2.233   0.341   2.113 -0.4057  0.6588  0.6170
 3831TIP3   OH233127   4.093   2.759   8.375  0.0497  0.0465 -0.2755
 3831TIP3    H133128   4.078   2.723   8.287  1.1815  1.1506 -0.9637
 3831TIP3    H233129   4.189   2.757   8.385 -0.0365  0.4762  0.7073
 3832TIP3   OH233130   6.633   4.936   0.565  0.0904 -0.2461 -0.3229
 3832TIP3    H133131   6.677   5.017   0.539 -1.2771  0.9825  0.9538
 3832TIP3    H233132   6.548   4.939   0.520  1.2192 -2.6395 -2.8579
 3833TIP3   OH233133   1.902   0.745   7.852  0.4816  0.4769 -0.4527
 3833TIP3    H133134   1.821   0.745   7.802  0.2426  1.2789 -0.0865
 3833TIP3    H233135   1.927   0.653   7.858 -0.7118  0.1600 -0.0818
 3834TIP3   OH233136   4.863   0.656   7.506  1.0001  0.2792  0.4051
 3834TIP3    H133137   4.775   0.617   7.500  1.3863 -0.5308 -0.2499
 3834TIP3    H233138   4.903   0.614   7.582  1.1768 -0.1212  0.0961
 3835TIP3   OH233139   2.584   1.129   6.980 -0.6960 -0.0130 -0.3360
 3835TIP3    H133140   2.566   1.161   7.069  0.4879  0.5747 -0.2878
 3835TIP3    H233141   2.677   1.144   6.968 -0.5843 -1.2999 -1.2109
 3836TIP3   OH233142   5.937   1.834   0.037  0.0180  0.1200  0.3463
 3836TIP3    H133143   6.004   1.808  -0.026  0.3453 -2.2112  1.5619
 3836TIP3    H233144   5.965   1.795   0.119 -2.9214 -1.1765  0.8613
 3837TIP3   OH233145   0.529   1.935   7.027  0.1117 -0.0618  0.5538
 3837TIP3    H133146   0.528   1.886   6.945  2.9836 -0.3129  0.5671
 3837TIP3    H233147   0.549   2.025   7.002  1.4098 -0.2131  0.9486
 3838TIP3   OH233148   3.849   2.625   7.811  0.5431  0.7220  0.2966
 3838TIP3    H133149   3.910   2.698   7.823 -0.6927  1.5461  2.0074
 3838TIP3    H233150   3.762   2.665   7.818 -0.1728 -0.8881  1.1206
 3839TIP3   OH233151   4.078   3.331   1.829  0.5564 -0.1140 -0.3734
 3839TIP3    H133152   4.046   3.260   1.884 -0.0180 -0.6531 -1.3641
 3839TIP3    H233153   4.098   3.290   1.745  0.0419  0.9005 -1.0281
 3840TIP3   OH233154   5.715   3.742   7.905 -0.2008  0.1578  0.7313
 3840TIP3    H133155   5.686   3.716   7.818  0.5989 -1.7611  0.9929
 3840TIP3    H233156   5.638   3.727   7.961  0.2416 -1.8602  0.8826
 3841TIP3   OH233157   2.186   0.400   0.206 -0.2001 -0.6233 -0.0200
 3841TIP3    H133158   2.202   0.456   0.130 -1.0310 -0.3282  0.0193
 3841TIP3    H233159   2.191   0.311   0.171 -1.7925 -0.4809 -0.6851
 3842TIP3   OH233160   0.122   2.646   7.623  0.0892  0.2267 -0.3343
 3842TIP3    H133161   0.101   2.622   7.533 -0.2994 -0.2729 -0.1152
 3842TIP3    H233162   0.114   2.741   7.625  1.8410  0.4403 -1.2745
 3843TIP3   OH233163   5.103   6.010   0.959 -0.0508  0.0661  0.3924
 3843TIP3    H133164   5.161   5.959   1.016 -1.0355  0.6586  1.9680
 3843TIP3    H233165   5.089   6.092   1.007 -0.3398  0.8831 -1.0444
 3844TIP3   OH233166   0.773   4.047   7.700 -0.0922  0.1135 -0.8008
 3844TIP3    H133167   0.816   4.117   7.652  1.6615 -0.2800  0.0915
 3844TIP3    H233168   0.708   4.091   7.754  1.7417  1.2588  0.5866
 3845TIP3   OH233169   2.741   2.361   7.080  0.5642 -0.4380 -0.3319
 3845TIP3    H133170   2.690   2.439   7.099 -0.4919 -0.3734 -3.0520
 3845TIP3    H233171   2.799   2.351   7.156 -0.7659  1.7102  1.0618
 3846TIP3   OH233172   6.679   0.069   6.720  0.2486  1.1010  0.3949
 3846TIP3    H133173   6.724   0.075   6.636  3.0720 -1.6563  1.5042
 3846TIP3    H233174   6.599   0.022   6.701  1.1028  0.0498 -0.7241
 3847TIP3   OH233175   4.810   6.657   7.590  0.1512 -0.2659 -0.1565
 3847TIP3    H133176   4.886   6.616   7.550  0.6402  0.2462  0.2335
 3847TIP3    H233177   4.749   6.584   7.606  1.0855 -0.8893  0.7161
 3848TIP3   OH233178   0.053   1.558   6.611  0.6701 -0.8130  0.1904
 3848TIP3    H133179   0.148   1.562   6.608  0.6522 -0.7013 -0.3151
 3848TIP3    H233180   0.025   1.648   6.592  0.4574 -0.9336 -0.0738
 3849TIP3   OH233181   3.897   3.513   1.711  0.0080  0.4869 -0.3132
 3849TIP3    H133182   3.829   3.549   1.769 -0.0142 -1.7685  1.1760
 3849TIP3    H233183   3.953   3.461   1.768  1.4482  0.1154 -1.9600
 3850TIP3   OH233184   4.632   4.743   8.761 -0.6808  0.7486 -0.2446
 3850TIP3    H133185   4.680   4.822   8.735 -0.4460  0.4817 -0.6260
 3850TIP3    H233186   4.700   4.677   8.775 -0.8557  0.6857  0.3408
 3851TIP3   OH233187   2.345   5.587   1.485  0.1430  0.1688  0.4595
 3851TIP3    H133188   2.305   5.657   1.535  1.5535  2.0278 -0.8860
 3851TIP3    H233189   2.302   5.591   1.399  0.9579  0.0778  0.0406
 3852TIP3   OH233190   6.272   0.947   8.252 -0.4962 -0.7956 -0.5201
 3852TIP3    H133191   6.210   0.879   8.226 -1.4425 -0.7146  1.3394
 3852TIP3    H233192   6.357   0.903   8.252 -1.1746 -2.2442  1.3207
 3853TIP3   OH233193   4.016   0.796   8.807 -0.2388 -0.4861 -0.2536
 3853TIP3    H133194   4.007   0.858   8.735 -1.3409 -0.6159 -0.2554
 3853TIP3    H233195   4.099   0.818   8.848  0.4054 -0.4179 -1.5658
 3854TIP3   OH233196   2.866   2.949   7.699  0.2336 -0.0156  0.1128
 3854TIP3    H133197   2.871   2.855   7.683  0.5381 -0.3252  1.8453
 3854TIP3    H233198   2.795   2.960   7.762  0.8971  0.7868  0.7525
 3855TIP3   OH233199   1.311   2.445   7.889  0.1099 -0.0889  0.3735
 3855TIP3    H133200   1.376   2.422   7.823  0.4473  0.3727  0.5384
 3855TIP3    H233201   1.253   2.369   7.893 -0.4445  0.2192 -1.0928
 3856TIP3   OH233202   0.521   4.514   7.501  0.5896 -0.2250 -0.9952
 3856TIP3    H133203   0.441   4.506   7.449  0.3570 -1.0998 -0.5179
 3856TIP3    H233204   0.522   4.606   7.529 -0.1129 -0.1410 -1.2135
 3857TIP3   OH233205   1.900   0.415   7.605  0.8177 -0.4690  0.1811
 3857TIP3    H133206   1.906   0.325   7.635  0.1686 -0.2038  1.1967
 3857TIP3    H233207   1.820   0.417   7.552  0.7823 -0.4839  0.2329
 3858TIP3   OH233208   2.257   6.488   9.027 -0.3373 -0.1234 -0.1773
 3858TIP3    H133209   2.268   6.476   8.932 -1.3996  0.8842 -0.4447
 3858TIP3    H233210   2.315   6.560   9.049  1.1334 -1.3924  0.2580
 3859TIP3   OH233211   0.356   2.322   0.551  0.5343 -0.3321  0.0299
 3859TIP3    H133212   0.311   2.294   0.631  0.5753 -1.7567 -0.4155
 3859TIP3    H233213   0.309   2.401   0.523  0.6274  0.2706  1.5354
 3860TIP3   OH233214   5.392   5.607   7.182 -0.1519  0.3954  0.2487
 3860TIP3    H133215   5.465   5.643   7.132  0.4960 -0.0905  0.8472
 3860TIP3    H233216   5.323   5.674   7.174  0.9540  1.6776  1.1624
 3861TIP3   OH233217   0.320   2.657   6.599 -0.3598 -0.3426  0.7977
 3861TIP3    H133218   0.379   2.705   6.657 -0.1342 -0.7943  0.9432
 3861TIP3    H233219   0.375   2.628   6.527 -1.1673  2.8000 -1.2866
 3862TIP3   OH233220   2.247   4.667   6.557  0.1133  0.8379 -0.4183
 3862TIP3    H133221   2.204   4.582   6.568  0.4761  0.5111 -1.3602
 3862TIP3    H233222   2.300   4.656   6.478 -0.1872  2.0841 -0.8098
 3863TIP3   OH233223   0.454   2.337   9.009  0.0118 -0.1565  0.2935
 3863TIP3    H133224   0.480   2.322   8.918 -1.3843 -0.3515 -0.0936
 3863TIP3    H233225   0.518   2.287   9.061 -0.3813 -1.7387 -0.6757
 3864TIP3   OH233226   2.911   1.820   7.193  0.2115  0.3517  0.5229
 3864TIP3    H133227   2.886   1.770   7.115  0.3352  0.7265  0.2402
 3864TIP3    H233228   2.848   1.793   7.260  0.2269 -0.1214  0.3509
 3865TIP3   OH233229   2.723   5.809   1.059 -0.1491 -0.0847 -0.2400
 3865TIP3    H133230   2.697   5.716   1.059  0.3628 -0.2292 -0.3990
 3865TIP3    H233231   2.684   5.845   0.979 -0.8280 -0.0203  0.1060
 3866TIP3   OH233232   5.053   3.000   1.216 -0.1332 -0.0464 -0.1321
 3866TIP3    H133233   5.045   2.910   1.246  1.3849  0.1176  0.8827
 3866TIP3    H233234   5.084   2.993   1.125 -0.6074 -0.5334 -0.2571
 3867TIP3   OH233235   5.753   4.672   1.845  0.1208  0.1829  0.2048
 3867TIP3    H133236   5.678   4.693   1.789  1.1203 -0.2003 -1.3698
 3867TIP3    H233237   5.787   4.757   1.872 -0.1647  0.3959 -0.0953
 3868TIP3   OH233238   2.241   3.444   1.570 -0.3767  0.0352 -0.2640
 3868TIP3    H133239   2.150   3.455   1.541 -0.4969  1.2179  0.4948
 3868TIP3    H233240   2.271   3.366   1.524 -2.7469 -2.3580  1.8735
 3869TIP3   OH233241   0.975   0.115   0.265  0.4917 -0.2305  0.3115
 3869TIP3    H133242   0.968   0.081   0.354  1.9160 -2.3607 -0.3216
 3869TIP3    H233243   1.020   0.199   0.275 -2.5725  1.4027  1.8614
 3870TIP3   OH233244   5.344   1.607   8.930  0.0548  0.1242  0.4048
 3870TIP3    H133245   5.327   1.701   8.936  0.9979  0.2757  0.9857
 3870TIP3    H233246   5.282   1.568   8.992  1.8515  0.6913  2.7505
 3871TIP3   OH233247   4.085   4.571   2.534  0.0440  0.9708  0.1852
 3871TIP3    H133248   4.177   4.548   2.524 -0.3182 -0.1497 -0.7470
 3871TIP3    H233249   4.082   4.666   2.525  1.3983  1.3123  2.6187
 3872TIP3   OH233250   0.107   5.283   8.608  0.0453  0.2467 -0.1785
 3872TIP3    H133251   0.130   5.293   8.701  1.6523 -0.4798 -0.4540
 3872TIP3    H233252   0.180   5.232   8.571 -1.6686 -1.4891 -1.3596
 3873TIP3   OH233253   6.701   1.072   7.970 -0.2871 -0.0235  0.1098
 3873TIP3    H133254   6.656   1.065   8.054 -0.3904 -0.8700 -0.0028
 3873TIP3    H233255   6.718   1.165   7.959 -0.8453  0.1617  0.7676
 3874TIP3   OH233256   5.206   3.695   1.624 -0.0541 -0.0551  0.4878
 3874TIP3    H133257   5.205   3.766   1.689 -2.8669 -0.1395  0.6425
 3874TIP3    H233258   5.223   3.616   1.675 -0.5593  0.0877  0.8856
 3875TIP3   OH233259   4.828   1.569   1.173 -0.4458  0.0095  0.3601
 3875TIP3    H133260   4.742   1.593   1.139  0.0627 -0.7046 -1.5736
 3875TIP3    H233261   4.882   1.557   1.095  0.7127 -2.1612  1.4116
 3876TIP3   OH233262   1.774   5.690   7.050 -0.8226  0.6939 -0.3704
 3876TIP3    H133263   1.857   5.645   7.035 -2.2668 -1.7740 -1.6648
 3876TIP3    H233264   1.766   5.695   7.145  0.4524  0.2695 -0.2236
 3877TIP3   OH233265   3.455   6.049   0.321 -0.1086  0.1948 -0.0772
 3877TIP3    H133266   3.363   6.070   0.303 -0.4397  0.9658  2.1268
 3877TIP3    H233267   3.453   6.011   0.409  1.9199  2.5297  1.0729
 3878TIP3   OH233268   2.012   1.646   8.389  0.2129  0.4161 -0.0852
 3878TIP3    H133269   2.096   1.629   8.432 -1.0473 -0.8920  2.0171
 3878TIP3    H233270   2.006   1.578   8.322  1.7580  1.8804 -1.8314
 3879TIP3   OH233271   5.311   4.788   1.713  0.2439 -0.2643  0.0517
 3879TIP3    H133272   5.267   4.736   1.779 -0.7578  1.4153  0.7672
 3879TIP3    H233273   5.252   4.788   1.638 -0.4395  0.9537  0.5610
 3880TIP3   OH233274   1.126   3.709   1.504 -0.4739  0.3344 -0.7153
 3880TIP3    H133275   1.062   3.667   1.446  0.1685 -1.6013 -0.1011
 3880TIP3    H233276   1.209   3.702   1.457 -0.1381 -0.2407 -0.0460
 3881TIP3   OH233277   3.004   0.059   0.094  0.4607  0.4345 -0.5328
 3881TIP3    H133278   2.998   0.083   0.186  1.3195 -0.1202 -0.3209
 3881TIP3    H233279   2.956  -0.024   0.088  2.5027 -0.8811 -0.0311
 3882TIP3   OH233280   5.756   5.525   1.700 -0.4298  0.5527 -0.1191
 3882TIP3    H133281   5.731   5.450   1.646 -1.9206  1.1231 -0.2889
 3882TIP3    H233282   5.740   5.497   1.790 -0.3104  0.4218 -0.1401
 3883TIP3   OH233283   1.839   4.417   8.011  0.0000 -0.0011 -0.4449
 3883TIP3    H133284   1.834   4.381   8.100  0.0395  0.5636 -0.2080
 3883TIP3    H233285   1.901   4.489   8.019 -0.2967  0.3010 -0.8444
 3884TIP3   OH233286   0.190   2.920   6.626 -0.0478 -0.6304  0.5644
 3884TIP3    H133287   0.219   2.878   6.545  0.9078  0.0100  0.5571
 3884TIP3    H233288   0.266   2.916   6.684 -0.2199  0.2911  0.8710
 3885TIP3   OH233289   4.210   6.154   0.063 -0.5952  0.2348  0.3336
 3885TIP3    H133290   4.279   6.199   0.014 -0.4863  0.2672  0.5184
 3885TIP3    H233291   4.224   6.180   0.154  1.4019 -2.5602  0.9535
 3886TIP3   OH233292   3.672   3.488   0.165  0.1123 -0.0973  0.1454
 3886TIP3    H133293   3.620   3.543   0.224  0.6771 -0.5114  1.0510
 3886TIP3    H233294   3.607   3.441   0.112 -0.5061 -1.1267  1.7280
 3887TIP3   OH233295   5.217   3.823   1.355  0.2628 -0.0549 -0.5180
 3887TIP3    H133296   5.215   3.772   1.436 -1.5363 -0.6516 -0.8854
 3887TIP3    H233297   5.283   3.780   1.301  0.4234 -0.5650  0.0811
 3888TIP3   OH233298   2.925   3.810   8.632 -0.0998 -0.3465 -0.0066
 3888TIP3    H133299   2.966   3.731   8.598  2.9382  0.8737  0.4925
 3888TIP3    H233300   2.943   3.808   8.726  1.1065  1.4184 -0.1393
 3889TIP3   OH233301   5.768   2.364   8.334 -0.4038 -0.3208  0.1687
 3889TIP3    H133302   5.745   2.300   8.402  1.6947 -1.2546  0.0719
 3889TIP3    H233303   5.746   2.320   8.252  1.0234 -0.9655  0.1030
 3890TIP3   OH233304   4.956   4.165   8.828 -0.5429  1.0870  0.0444
 3890TIP3    H133305   4.869   4.204   8.826 -1.5599 -1.0341  0.3873
 3890TIP3    H233306   4.998   4.204   8.904 -2.4369 -0.2071  1.8890
 3891TIP3   OH233307   2.624   5.681   7.638 -0.5012 -0.1359 -0.9717
 3891TIP3    H133308   2.704   5.704   7.591  0.1219  0.6945  0.4117
 3891TIP3    H233309   2.636   5.589   7.662 -0.0530 -0.0777 -0.9579
 3892TIP3   OH233310   0.091   5.146   1.212  0.1218 -0.4755 -0.6187
 3892TIP3    H133311   0.019   5.178   1.158 -0.0169 -1.9310 -1.3482
 3892TIP3    H233312   0.049   5.116   1.292  0.0656 -0.1899 -0.5419
 3893TIP3   OH233313   5.576   5.205   2.052  0.6282  0.0527  0.0339
 3893TIP3    H133314   5.591   5.115   2.082 -2.9976 -0.1554  1.8241
 3893TIP3    H233315   5.505   5.237   2.108  0.5173  3.4004 -1.7705
 3894TIP3   OH233316   6.212   1.023   8.547 -0.4237 -0.7036 -0.1719
 3894TIP3    H133317   6.145   1.089   8.566 -1.0719 -0.1920 -3.7054
 3894TIP3    H233318   6.290   1.055   8.592 -1.8831 -0.1261  2.1493
 3895TIP3   OH233319   2.799   2.571   1.021  0.3224 -0.2015  0.0074
 3895TIP3    H133320   2.729   2.535   1.075 -0.8491  0.8356 -0.7764
 3895TIP3    H233321   2.798   2.665   1.039 -0.1767  0.1905 -1.8731
 3896TIP3   OH233322   2.580   0.479   1.585 -0.3158  0.0809  0.5507
 3896TIP3    H133323   2.653   0.455   1.528  0.4526  0.6443  1.2725
 3896TIP3    H233324   2.537   0.552   1.540  1.3239  1.6862  1.4456
 3897TIP3   OH233325   2.540   5.540   1.808 -0.0538 -0.0767  0.0643
 3897TIP3    H133326   2.550   5.595   1.730 -1.6350 -1.6248 -1.3134
 3897TIP3    H233327   2.555   5.599   1.881 -1.1391  2.0584 -1.3372
 3898TIP3   OH233328   4.912   1.022   8.450  0.1291 -0.0551 -0.1301
 3898TIP3    H133329   4.896   0.967   8.526  0.7437 -0.3164 -0.1774
 3898TIP3    H233330   4.831   1.070   8.437  0.1178  0.2139  0.8652
 3899TIP3   OH233331   2.290   1.185   0.268 -0.8758  0.2994 -0.1440
 3899TIP3    H133332   2.292   1.103   0.220 -0.3141 -0.2956  0.8592
 3899TIP3    H233333   2.367   1.233   0.238 -1.6102  0.8003 -1.2808
 3900TIP3   OH233334   3.974   2.438   1.354  0.4329  0.0395  0.6473
 3900TIP3    H133335   3.962   2.532   1.350  2.4427  0.3264 -0.0791
 3900TIP3    H233336   3.922   2.410   1.429  0.7129  1.9022  1.6042
 3901TIP3   OH233337   6.276   1.652   8.289 -0.3207  0.0653 -0.4047
 3901TIP3    H133338   6.265   1.676   8.380  1.2445 -0.5947 -0.0020
 3901TIP3    H233339   6.246   1.728   8.239  0.1703  0.9919  0.6923
 3902TIP3   OH233340   6.114   1.451   0.791 -0.2396  0.1736  0.4068
 3902TIP3    H133341   6.069   1.530   0.760 -2.0657 -1.1375 -0.4183
 3902TIP3    H233342   6.065   1.378   0.752  1.3826 -1.3911  1.1600
 3903TIP3   OH233343   2.954   4.223   1.615 -0.1582 -0.4823 -0.1978
 3903TIP3    H133344   2.972   4.158   1.682 -1.3294  0.3047  0.9133
 3903TIP3    H233345   2.990   4.305   1.650 -0.6843 -0.0854 -0.5677
 3904TIP3   OH233346   1.350   1.936   1.518  0.1562 -0.1460 -0.0116
 3904TIP3    H133347   1.308   1.902   1.597 -0.2277 -0.5537 -0.3801
 3904TIP3    H233348   1.400   2.011   1.548 -0.5372  0.1236  0.5082
 3905TIP3   OH233349   3.567   6.373   8.790  0.2150 -0.6794 -0.1080
 3905TIP3    H133350   3.656   6.347   8.768  0.5909 -0.4012  1.0170
 3905TIP3    H233351   3.513   6.302   8.756  1.0070 -1.6532  0.5846
 3906TIP3   OH233352   3.033   3.361   8.351  0.1252 -0.5717  0.6181
 3906TIP3    H133353   2.967   3.372   8.282 -1.0858  0.1644  1.8211
 3906TIP3    H233354   3.039   3.267   8.364 -1.7956 -0.6360  1.4338
 3907TIP3   OH233355   6.691   5.221   0.222 -0.0845 -0.9413  1.2360
 3907TIP3    H133356   6.603   5.231   0.185  0.2750  0.3330  0.6545
 3907TIP3    H233357   6.729   5.147   0.175 -0.4566 -0.7948  0.7010
 3908TIP3   OH233358   2.097   6.533   0.781 -0.4349  0.0994  0.1305
 3908TIP3    H133359   2.026   6.489   0.829  1.4018 -0.9842  2.0231
 3908TIP3    H233360   2.093   6.624   0.811 -0.4452 -0.1670  0.9734
 3909TIP3   OH233361   4.162   1.144   0.039 -0.1638  0.3249  0.1793
 3909TIP3    H133362   4.124   1.077   0.095 -1.0977 -0.1155 -0.9377
 3909TIP3    H233363   4.089   1.201   0.016  0.2630  0.6804 -0.3238
 3910TIP3   OH233364   4.338   1.855   1.667 -0.0170  0.2113 -0.3045
 3910TIP3    H133365   4.263   1.896   1.625  0.1430  1.2375  0.3839
 3910TIP3    H233366   4.414   1.888   1.620  0.1091  0.6889  0.2206
 3911TIP3   OH233367   5.824   4.124   1.502 -0.2384 -0.4355  0.2841
 3911TIP3    H133368   5.828   4.088   1.413 -1.2078 -0.2920  0.1642
 3911TIP3    H233369   5.802   4.049   1.557  2.9141 -1.1015  0.8383
 3912TIP3   OH233370   2.706   5.985   8.392  0.5383 -0.2324  0.1930
 3912TIP3    H133371   2.643   6.012   8.326  0.7521 -0.0530  0.0569
 3912TIP3    H233372   2.785   5.964   8.342  0.7768  0.1297  0.4038
 3913TIP3   OH233373   3.219   5.131   1.904 -0.1424  0.0640  0.2765
 3913TIP3    H133374   3.237   5.204   1.845 -0.0641 -0.9579 -0.9904
 3913TIP3    H233375   3.143   5.161   1.955 -0.4072  0.8453 -0.5417
 3914TIP3   OH233376   0.469   5.974   0.435 -0.6487 -0.1861  0.3482
 3914TIP3    H133377   0.439   6.008   0.519 -1.0347 -2.1169  1.0359
 3914TIP3    H233378   0.532   5.906   0.458 -0.3308 -0.3503 -0.9494
 3915TIP3   OH233379   1.881   2.978   8.746  0.3944 -0.2791 -0.0718
 3915TIP3    H133380   1.827   3.005   8.672  0.0537  0.8416  0.5618
 3915TIP3    H233381   1.907   3.060   8.788  0.8208 -0.8806  0.8771
 3916TIP3   OH233382   5.966   5.615   7.709 -0.2879  0.2614 -0.0579
 3916TIP3    H133383   5.955   5.602   7.615  2.4891  0.1513 -0.4399
 3916TIP3    H233384   6.061   5.617   7.722 -0.6023  0.5082  2.7193
 3917TIP3   OH233385   2.342   3.960   7.026 -0.1747  0.3705  0.1200
 3917TIP3    H133386   2.254   3.988   6.999 -0.2704 -0.5359 -0.5747
 3917TIP3    H233387   2.390   3.951   6.944  0.4276  0.3838  0.4661
 3918TIP3   OH233388   2.216   2.616   6.301 -0.3649 -0.1074  0.1338
 3918TIP3    H133389   2.168   2.680   6.353 -1.4511 -0.8429  0.0811
 3918TIP3    H233390   2.277   2.576   6.363  0.9903  1.5839 -0.0474
 3919TIP3   OH233391   1.911   4.614   7.593  0.0014 -0.2650  0.0389
 3919TIP3    H133392   1.986   4.654   7.637 -0.6129  1.0281 -0.0437
 3919TIP3    H233393   1.947   4.575   7.514  1.0395 -2.1412  1.3580
 3920TIP3   OH233394   4.774   3.501   8.930  0.5171  0.0310 -0.5125
 3920TIP3    H133395   4.756   3.588   8.895 -0.9365 -0.9493 -2.4325
 3920TIP3    H233396   4.706   3.487   8.996  0.7050  0.3166 -0.2580
 3921TIP3   OH233397   1.130   4.104   0.904 -0.1888  0.7151 -0.7266
 3921TIP3    H133398   1.096   4.163   0.837 -2.8399 -2.2813 -2.3404
 3921TIP3    H233399   1.142   4.021   0.858  2.2012 -0.3729  1.6340
 3922TIP3   OH233400   4.481   4.000   1.015  0.1452 -0.3317 -0.5323
 3922TIP3    H133401   4.498   4.081   1.063  0.3726 -0.4822 -0.3587
 3922TIP3    H233402   4.490   3.931   1.081  1.2962 -0.6140 -0.9616
 3923TIP3   OH233403   1.367   5.715   7.019  0.0421 -0.0669  0.4655
 3923TIP3    H133404   1.315   5.743   6.943  0.9308  0.8657  0.1753
 3923TIP3    H233405   1.410   5.634   6.989 -1.0098 -0.7049  0.6211
 3924TIP3   OH233406   2.096   3.574   1.170 -0.1714  0.1421 -0.3012
 3924TIP3    H133407   2.040   3.651   1.175 -1.3930 -0.6913 -0.7793
 3924TIP3    H233408   2.179   3.603   1.208 -0.5704  1.7062 -0.5432
 3925TIP3   OH233409   1.509   1.883   2.718 -0.0498 -0.3040  0.3001
 3925TIP3    H133410   1.469   1.932   2.646  0.0930 -1.9151 -0.9283
 3925TIP3    H233411   1.598   1.866   2.689 -0.1144 -1.3236  0.6620
 3926TIP3   OH233412   2.032   2.143   8.421  0.7016 -0.6309  0.6265
 3926TIP3    H133413   2.007   2.057   8.456 -2.2475 -0.7044 -1.3199
 3926TIP3    H233414   1.948   2.188   8.406  1.9621  1.0105 -2.2131
 3927TIP3   OH233415   5.829   0.785   6.837  0.0774 -0.2718 -0.1443
 3927TIP3    H133416   5.838   0.690   6.835  0.3276 -0.2514 -2.6352
 3927TIP3    H233417   5.918   0.818   6.825  0.2188  0.3569  2.1906
 3928TIP3   OH233418   5.988   6.226   1.450 -0.1599  0.0940  0.0871
 3928TIP3    H133419   5.964   6.195   1.363 -1.1528  0.7268  0.1246
 3928TIP3    H233420   6.081   6.248   1.443 -0.4127  0.8618 -1.0307
 3929TIP3   OH233421   4.606   3.935   7.580 -0.1873  0.2606 -0.2604
 3929TIP3    H133422   4.645   3.874   7.518 -0.5968  0.2883 -0.5515
 3929TIP3    H233423   4.518   3.901   7.596 -0.2855  0.5645 -0.1324
 3930TIP3   OH233424   3.342   2.333   7.084 -0.4353  0.2016  0.1863
 3930TIP3    H133425   3.404   2.278   7.036  1.0777  1.6440  0.4071
 3930TIP3    H233426   3.257   2.294   7.066  0.4891 -1.6908 -0.3487
 3931TIP3   OH233427   3.356   2.750   0.633 -0.3259  0.6287  0.2279
 3931TIP3    H133428   3.392   2.802   0.705  2.5171 -0.2234 -0.4489
 3931TIP3    H233429   3.355   2.660   0.666 -1.7032  0.5896  0.1320
 3932TIP3   OH233430   4.075   6.612   7.284  0.2820 -0.8239  0.4001
 3932TIP3    H133431   4.004   6.565   7.327 -0.1903 -0.3625  0.1336
 3932TIP3    H233432   4.093   6.562   7.204  0.3631 -1.0275  0.5463
 3933TIP3   OH233433   2.592   5.408   7.273  0.3476 -0.2991 -0.5259
 3933TIP3    H133434   2.561   5.340   7.213  0.8685 -0.0532 -1.0911
 3933TIP3    H233435   2.682   5.425   7.245  0.3948  0.2534 -0.0560
 3934TIP3   OH233436   6.281   6.132   7.689  0.2990 -0.3342 -0.0411
 3934TIP3    H133437   6.243   6.053   7.729  0.6352 -0.7532 -0.5288
 3934TIP3    H233438   6.285   6.112   7.596  0.7207  0.1211 -0.1239
 3935TIP3   OH233439   4.665   5.114   8.996 -0.1803 -0.3348  0.0093
 3935TIP3    H133440   4.593   5.176   8.990  0.4291  0.2565 -1.7543
 3935TIP3    H233441   4.624   5.031   9.017 -0.9977  0.6233  2.6860
 3936TIP3   OH233442   5.930   2.313   1.638 -0.3986  0.0410  0.4609
 3936TIP3    H133443   5.994   2.255   1.596 -1.7015 -0.3725 -1.0331
 3936TIP3    H233444   5.952   2.309   1.731  0.9968 -1.0186  0.1222
 3937TIP3   OH233445   1.539   4.037   7.618 -0.2197 -0.0246  0.1241
 3937TIP3    H133446   1.443   4.037   7.620 -0.2022 -0.1269  1.7493
 3937TIP3    H233447   1.560   4.088   7.540 -1.5956  0.4069  0.0002
 3938TIP3   OH233448   0.968   6.757   2.189 -0.5405 -0.0923  0.4029
 3938TIP3    H133449   0.923   6.677   2.161  0.3435 -0.8367  1.0372
 3938TIP3    H233450   1.033   6.726   2.253  1.8243  0.7433 -1.4551
 3939TIP3   OH233451   6.272   1.551   7.780 -0.1714 -0.6204 -0.5920
 3939TIP3    H133452   6.216   1.511   7.714 -2.0470 -0.8681  1.0387
 3939TIP3    H233453   6.268   1.491   7.855  1.2011  0.0476  0.0648
 3940TIP3   OH233454   0.384   4.483   0.315  0.6122 -0.0088 -0.2492
 3940TIP3    H133455   0.344   4.452   0.396  0.4730 -1.7924 -0.9641
 3940TIP3    H233456   0.310   4.515   0.263  0.6695  0.8733  0.1906
 3941TIP3   OH233457   0.843   2.247   8.652  0.3719  0.0859 -0.2337
 3941TIP3    H133458   0.820   2.163   8.693  1.6067 -0.5442 -0.7802
 3941TIP3    H233459   0.931   2.233   8.617  0.0946  1.2107 -1.4498
 3942TIP3   OH233460   5.162   6.224   8.946  0.0250  0.2315 -0.6112
 3942TIP3    H133461   5.191   6.225   8.855  2.6930 -1.4118  0.1215
 3942TIP3    H233462   5.152   6.317   8.968 -2.0552  0.6569 -2.8813
 3943TIP3   OH233463   3.676   4.686   2.682  0.4087  0.0892 -0.6392
 3943TIP3    H133464   3.710   4.774   2.666 -1.7385  0.8274 -1.4818
 3943TIP3    H233465   3.582   4.698   2.693  0.3257 -1.8454  1.5721
 3944TIP3   OH233466   1.028   4.202   0.685  0.0073  0.2741  0.2901
 3944TIP3    H133467   1.036   4.164   0.597  2.4206  0.5479  0.3205
 3944TIP3    H233468   0.965   4.274   0.674 -0.5834 -0.4058 -0.9545
 3945TIP3   OH233469   3.753   2.621   7.547  0.5175 -0.3868  0.0836
 3945TIP3    H133470   3.799   2.586   7.623 -1.4242  0.4525  1.7282
 3945TIP3    H233471   3.768   2.716   7.551  0.5908 -0.3553 -0.7194
 3946TIP3   OH233472   4.515   2.162   8.124 -0.6217 -0.3373  0.4281
 3946TIP3    H133473   4.536   2.184   8.215  1.6167 -0.3091 -0.0421
 3946TIP3    H233474   4.544   2.071   8.115  2.8040  0.7560 -1.1881
 3947TIP3   OH233475   6.452   5.027   1.897  0.0440 -0.7851 -0.3662
 3947TIP3    H133476   6.503   4.950   1.922  2.6815  0.9553 -0.0502
 3947TIP3    H233477   6.485   5.098   1.953 -0.1220  1.2480 -2.6676
 3948TIP3   OH233478   5.656   1.484   8.174  0.5906 -0.5924 -0.5154
 3948TIP3    H133479   5.638   1.408   8.119  0.1737 -1.1164  0.3149
 3948TIP3    H233480   5.625   1.458   8.261 -1.2575  1.1656 -0.5677
 3949TIP3   OH233481   1.561   4.052   8.172 -0.4585 -0.9266 -0.2933
 3949TIP3    H133482   1.563   4.044   8.077 -0.3535  0.2683 -0.4159
 3949TIP3    H233483   1.654   4.056   8.197 -0.3993  2.3375 -0.5593
 3950TIP3   OH233484   3.742   3.592   6.788 -0.2304 -0.0178  0.3120
 3950TIP3    H133485   3.826   3.638   6.791 -0.0266 -0.2954 -0.8169
 3950TIP3    H233486   3.757   3.518   6.729 -0.6902 -1.2856  1.6992
 3951TIP3   OH233487   1.187   4.624   2.735 -0.2161 -0.0521 -0.2050
 3951TIP3    H133488   1.249   4.552   2.747  0.2029  0.3947  0.3696
 3951TIP3    H233489   1.132   4.596   2.662  1.3802  0.0075 -1.5054
 3952TIP3   OH233490   1.504   1.013   0.320 -0.0607 -0.0659 -0.3543
 3952TIP3    H133491   1.440   0.973   0.379  0.6515 -0.3807  0.2209
 3952TIP3    H233492   1.520   1.100   0.358 -2.1784  1.1439 -2.0212
 3953TIP3   OH233493   0.267   6.024   7.837  0.0236  0.0255  0.3420
 3953TIP3    H133494   0.320   6.066   7.905  0.4058 -1.4331  0.9847
 3953TIP3    H233495   0.179   6.059   7.850  0.4444  1.0960  0.4319
 3954TIP3   OH233496   2.373   6.165   7.619 -0.3998  0.1016  0.1202
 3954TIP3    H133497   2.339   6.081   7.587  0.3324  0.1976 -0.9431
 3954TIP3    H233498   2.389   6.150   7.713 -0.7360 -0.7867  0.0487
 3955TIP3   OH233499   4.663   1.352   8.044 -0.3128  0.1588 -0.4408
 3955TIP3    H133500   4.747   1.320   8.075 -1.2376 -0.3291  1.7321
 3955TIP3    H233501   4.685   1.413   7.973  1.7269 -1.3997 -1.2359
 3956TIP3   OH233502   5.886   3.938   7.852  0.1710 -0.1524  0.0082
 3956TIP3    H133503   5.944   3.954   7.927  1.2092 -1.1405 -0.5649
 3956TIP3    H233504   5.853   3.849   7.865  0.8968 -0.5910 -1.0436
 3957TIP3   OH233505   3.134   2.402   7.817  1.1678 -0.4013 -0.0383
 3957TIP3    H133506   3.218   2.448   7.816  0.6863  0.4980  0.1630
 3957TIP3    H233507   3.149   2.324   7.762  1.7860  0.3610 -0.9804
 3958TIP3   OH233508   6.308   1.274   0.661 -0.3186  0.2593 -0.0285
 3958TIP3    H133509   6.293   1.363   0.691 -0.3297  0.3682 -0.3493
 3958TIP3    H233510   6.372   1.283   0.590 -0.8982  0.1040 -0.5920
 3959TIP3   OH233511   2.535   0.886   7.128 -0.5857 -0.2938 -0.0530
 3959TIP3    H133512   2.537   0.963   7.071 -0.9467  0.4035  0.8456
 3959TIP3    H233513   2.459   0.901   7.185  1.6013  0.6950  2.8226
 3960TIP3   OH233514   6.392   4.711   2.364 -0.3519 -0.2480 -0.0865
 3960TIP3    H133515   6.469   4.673   2.407  0.1984 -0.7202 -1.4256
 3960TIP3    H233516   6.331   4.639   2.356  0.1946 -0.5909 -1.5042
 3961TIP3   OH233517   4.703   2.212   7.607  0.0139  0.3997 -0.7632
 3961TIP3    H133518   4.751   2.253   7.535  1.2486 -1.3627 -1.0015
 3961TIP3    H233519   4.657   2.138   7.567  1.9208 -1.5442  0.4082
 3962TIP3   OH233520   6.301   5.403   7.006 -0.2642  0.3561 -0.3008
 3962TIP3    H133521   6.239   5.333   6.985  0.9048 -0.9750  0.4779
 3962TIP3    H233522   6.322   5.443   6.922 -0.8595 -0.3183 -0.7789
 3963TIP3   OH233523   5.649   3.691   7.641  0.2477 -0.1275  0.4626
 3963TIP3    H133524   5.737   3.671   7.609  0.0647  1.5191 -1.2300
 3963TIP3    H233525   5.644   3.787   7.641 -1.0097 -0.1376  2.1496
 3964TIP3   OH233526   4.294   5.199   7.602  0.3048  0.1003 -0.7401
 3964TIP3    H133527   4.266   5.138   7.670  0.3602  1.0397  0.1358
 3964TIP3    H233528   4.266   5.157   7.520  1.0839 -1.4868 -0.2269
 3965TIP3   OH233529   0.370   3.264   8.840 -0.0780  0.6161  0.0316
 3965TIP3    H133530   0.298   3.323   8.817 -0.8003 -0.5728 -0.8950
 3965TIP3    H233531   0.331   3.202   8.902 -0.1829 -0.6891 -1.2981
 3966TIP3   OH233532   2.641   2.725   7.131 -0.8163  0.4493 -0.0907
 3966TIP3    H133533   2.704   2.685   7.191 -0.2465 -1.3336 -1.7892
 3966TIP3    H233534   2.650   2.819   7.146  0.5002  0.1371  1.3944
 3967TIP3   OH233535   2.731   1.745   7.382 -0.3253  0.2259  0.1865
 3967TIP3    H133536   2.721   1.655   7.350  1.4231  0.3543 -0.9224
 3967TIP3    H233537   2.742   1.736   7.476 -2.5262 -0.4684  0.4353
 3968TIP3   OH233538   0.495   5.678   8.120  0.8014 -0.3652  0.6417
 3968TIP3    H133539   0.432   5.742   8.155  0.9551  0.5540 -0.6996
 3968TIP3    H233540   0.465   5.594   8.155 -0.7346  0.1486  0.6455
 3969TIP3   OH233541   3.258   2.268   8.858 -0.0804 -0.2004 -0.2368
 3969TIP3    H133542   3.229   2.204   8.922 -0.4676 -0.1185 -0.3293
 3969TIP3    H233543   3.249   2.352   8.902  0.7998 -0.2323  0.0242
 3970TIP3   OH233544   2.080   3.332   2.416 -0.8790 -0.3726  0.0364
 3970TIP3    H133545   2.090   3.391   2.490 -1.3405  1.5423 -1.3462
 3970TIP3    H233546   2.114   3.248   2.447 -1.4854  0.2238  2.5301
 3971TIP3   OH233547   0.831   6.605   1.786  0.1796 -0.1254 -0.7798
 3971TIP3    H133548   0.820   6.678   1.725  1.7880  0.0823 -0.8730
 3971TIP3    H233549   0.885   6.542   1.739  0.1847 -0.6416 -0.0974
 3972TIP3   OH233550   2.547   2.726   1.356  0.0533  0.3343  0.1035
 3972TIP3    H133551   2.568   2.812   1.320  1.7213 -0.5263 -1.1166
 3972TIP3    H233552   2.629   2.694   1.393  0.2288 -1.8070 -1.8593
 3973TIP3   OH233553   6.475   2.625   1.137 -0.1523  0.5294  0.1533
 3973TIP3    H133554   6.468   2.720   1.142  1.0447  0.7699 -1.5849
 3973TIP3    H233555   6.386   2.595   1.117 -0.8350  1.1129  2.1315
 3974TIP3   OH233556   3.298   3.158   7.269 -0.8458  0.6885 -0.0628
 3974TIP3    H133557   3.354   3.147   7.192  0.4913 -1.3708  1.1309
 3974TIP3    H233558   3.219   3.109   7.248 -0.1036 -0.6640  0.1921
 3975TIP3   OH233559   5.777   3.859   1.640  0.1116  0.1992 -0.0718
 3975TIP3    H133560   5.703   3.821   1.689 -0.9658  0.5449 -1.3876
 3975TIP3    H233561   5.854   3.832   1.690 -0.6806 -2.6436 -0.2047
 3976TIP3   OH233562   4.218   5.587   1.301  0.0350 -0.0804  0.8579
 3976TIP3    H133563   4.144   5.525   1.310 -1.4825  1.4389 -0.5094
 3976TIP3    H233564   4.254   5.593   1.389 -0.2018 -2.3577  1.1809
 3977TIP3   OH233565   6.152   2.476   7.352  0.1778 -0.3576  0.2222
 3977TIP3    H133566   6.061   2.444   7.357  0.5627 -1.5728 -0.0932
 3977TIP3    H233567   6.204   2.401   7.381  1.1130  0.0889 -0.2879
 3978TIP3   OH233568   3.043   5.281   0.163  0.4240  0.9767 -0.1749
 3978TIP3    H133569   3.054   5.275   0.068  1.5189  2.2785 -0.1627
 3978TIP3    H233570   3.015   5.372   0.179 -2.6995  0.0126  0.5485
 3979TIP3   OH233571   6.144   2.944   7.255 -0.0517 -0.6931  0.7285
 3979TIP3    H133572   6.055   2.969   7.281  0.2503  0.6638  0.5353
 3979TIP3    H233573   6.132   2.894   7.175 -0.6934 -1.1982  1.1275
 3980TIP3   OH233574   2.535   4.594   7.795 -0.2059  0.1701  0.2720
 3980TIP3    H133575   2.542   4.515   7.741 -1.0871 -0.2146  0.6867
 3980TIP3    H233576   2.521   4.560   7.884  0.3633  0.7963  0.6059
 3981TIP3   OH233577   5.867   4.427   8.396  0.0441  0.6658 -0.7125
 3981TIP3    H133578   5.931   4.395   8.458  0.9055  2.0952 -0.8165
 3981TIP3    H233579   5.792   4.454   8.450 -0.0899 -0.1095 -0.5074
 3982TIP3   OH233580   2.499   6.527   8.582  0.1240 -0.1187 -0.3501
 3982TIP3    H133581   2.494   6.468   8.507 -0.1590  0.9771 -1.2200
 3982TIP3    H233582   2.460   6.478   8.654  0.8850 -1.3964 -0.7771
 3983TIP3   OH233583   2.471   5.266   7.512 -0.1971 -0.0873 -0.3586
 3983TIP3    H133584   2.468   5.255   7.417  1.4630 -2.0058 -0.2387
 3983TIP3    H233585   2.450   5.180   7.547  0.6521  0.2209  0.9952
 3984TIP3   OH233586   2.999   4.936   0.365 -0.3856  0.2889 -0.2573
 3984TIP3    H133587   2.955   4.985   0.434 -1.5241  1.6705 -1.8551
 3984TIP3    H233588   2.929   4.884   0.325  0.4925 -1.4102  0.3588
 3985TIP3   OH233589   1.223   4.108   8.787  0.1239 -0.3165  0.0906
 3985TIP3    H133590   1.225   4.203   8.799 -0.3703 -0.3537  0.5182
 3985TIP3    H233591   1.219   4.096   8.693 -0.3423  0.1075  0.0475
 3986TIP3   OH233592   2.656   3.882   8.042 -0.1808 -0.2024 -0.0409
 3986TIP3    H133593   2.568   3.919   8.033  0.0533  0.1749 -0.9288
 3986TIP3    H233594   2.711   3.958   8.062  0.1519 -0.2228 -0.8694
 3987TIP3   OH233595   6.605   6.215   1.203  0.6749  0.6296  0.2412
 3987TIP3    H133596   6.584   6.122   1.210  2.7178  0.0407 -0.6475
 3987TIP3    H233597   6.526   6.255   1.166  0.0896 -0.9217 -0.2781
 3988TIP3   OH233598   4.250   5.157   8.287 -0.0391 -0.1576  0.9513
 3988TIP3    H133599   4.199   5.237   8.273  0.2566  0.3775  2.6778
 3988TIP3    H233600   4.186   5.091   8.312 -0.1644 -0.1990  0.5311
 3989TIP3   OH233601   5.899   6.478   8.012  0.0180  0.1722 -0.0429
 3989TIP3    H133602   5.812   6.516   7.999 -0.7659 -1.2520  0.7348
 3989TIP3    H233603   5.921   6.436   7.929 -0.8730 -1.0051  0.2832
 3990TIP3   OH233604   2.692   6.211   7.225  0.3022  0.1910 -0.4372
 3990TIP3    H133605   2.707   6.304   7.209  2.2749 -0.0845 -0.5048
 3990TIP3    H233606   2.598   6.199   7.213  0.2467  1.8572 -2.0715
 3991TIP3   OH233607   0.538   6.087   1.680  0.2520  0.3398 -0.1188
 3991TIP3    H133608   0.508   6.031   1.752 -0.4601  0.8227 -0.0353
 3991TIP3    H233609   0.461   6.099   1.624 -0.1606  2.7606  0.8534
 3992TIP3   OH233610   1.118   4.891   2.235 -1.0900 -0.2701 -0.4363
 3992TIP3    H133611   1.155   4.803   2.229 -0.7173 -0.0503 -2.1044
 3992TIP3    H233612   1.068   4.891   2.316 -0.4563 -1.7637 -0.0029
 3993TIP3   OH233613   6.284   6.408   8.891 -0.5813  0.3604  0.1263
 3993TIP3    H133614   6.329   6.422   8.975 -1.0561  1.5361  0.2067
 3993TIP3    H233615   6.206   6.358   8.914 -0.3700  0.1042  0.2884
 3994TIP3   OH233616   2.821   4.105   2.497  0.1247  0.3845 -0.0384
 3994TIP3    H133617   2.751   4.088   2.559  0.4037 -0.8237 -0.0368
 3994TIP3    H233618   2.790   4.069   2.414  0.4545  0.4871 -0.2114
 3995TIP3   OH233619   1.875   0.145   1.446  0.2293 -0.6747 -0.4583
 3995TIP3    H133620   1.956   0.175   1.489  0.3743  0.3195 -1.3632
 3995TIP3    H233621   1.866   0.054   1.471  0.6375 -0.2899  1.1610
 3996TIP3   OH233622   1.421   1.957   0.429  0.5703 -0.0130 -0.1419
 3996TIP3    H133623   1.398   1.866   0.414 -0.0815  0.2254 -0.6278
 3996TIP3    H233624   1.389   1.976   0.517  0.8366 -0.2925  0.0161
 3997TIP3   OH233625   0.241   4.923   7.516  0.3535  0.4968 -0.7069
 3997TIP3    H133626   0.220   4.866   7.442  0.9439  0.3103 -0.7318
 3997TIP3    H233627   0.310   4.877   7.563 -0.1112  0.5557  0.0357
 3998TIP3   OH233628   3.641   3.908   2.453 -0.3602  0.0378  0.2008
 3998TIP3    H133629   3.567   3.951   2.498  0.2920  0.4570  0.8918
 3998TIP3    H233630   3.712   3.971   2.458 -0.0508 -0.2130 -0.8005
 3999TIP3   OH233631   3.386   3.799   7.593  0.7133  0.8220 -0.8960
 3999TIP3    H133632   3.372   3.801   7.688  2.1620 -0.6133 -0.6198
 3999TIP3    H233633   3.468   3.846   7.580 -0.5291  2.9242 -1.7306
 4000TIP3   OH233634   4.604   6.505   2.769  0.1863  0.1593 -0.1626
 4000TIP3    H133635   4.556   6.560   2.707  1.2730  0.4896 -0.7419
 4000TIP3    H233636   4.544   6.434   2.790 -0.8790  1.0476 -0.1686
 4001TIP3   OH233637   0.050   6.217   6.394 -0.0878 -0.4117  0.0396
 4001TIP3    H133638   0.064   6.124   6.378  0.7203 -0.3525  0.3863
 4001TIP3    H233639   0.131   6.247   6.435  0.4829  0.8685 -1.8642
 4002TIP3   OH233640   6.163   2.645   7.560  0.0147  0.1908  0.5575
 4002TIP3    H133641   6.200   2.604   7.638 -2.0416 -0.9814  0.9888
 4002TIP3    H233642   6.183   2.584   7.489  0.7109  0.5951  0.3989
 4003TIP3   OH233643   3.460   0.971   1.776 -0.5993  0.1208 -0.1758
 4003TIP3    H133644   3.425   0.937   1.858 -0.1658 -0.5987 -0.2884
 4003TIP3    H233645   3.539   0.920   1.760  0.1953  1.3162 -0.2339
 4004TIP3   OH233646   5.060   5.719   1.821 -0.3270  0.4551  0.0013
 4004TIP3    H133647   5.155   5.711   1.819 -0.2499 -0.7385  3.0691
 4004TIP3    H233648   5.043   5.798   1.871 -0.8668 -0.4492  1.3164
 4005TIP3   OH233649   4.218   4.705   7.768  0.2205 -0.2259  0.3203
 4005TIP3    H133650   4.260   4.790   7.754 -0.8411  0.0310 -1.6263
 4005TIP3    H233651   4.280   4.656   7.822  0.8948  1.7325  1.3985
 4006TIP3   OH233652   2.651   3.039   0.026  0.5914 -0.1416 -0.0719
 4006TIP3    H133653   2.617   2.950   0.017 -1.4829  0.4866  0.9169
 4006TIP3    H233654   2.652   3.072  -0.064  0.4914 -0.8581 -0.3509
 4007TIP3   OH233655   4.368   3.310   0.039  0.2244  0.6650 -0.5981
 4007TIP3    H133656   4.314   3.230   0.037  0.8980  0.1775  0.3026
 4007TIP3    H233657   4.304   3.381   0.045 -0.3797  0.1926 -1.1803
 4008TIP3   OH233658   2.718   3.060   8.550  0.2494  0.1567 -0.4356
 4008TIP3    H133659   2.790   3.033   8.607 -0.1103  0.0322 -0.0301
 4008TIP3    H233660   2.741   3.026   8.464  0.9460  0.6076 -0.4305
 4009TIP3   OH233661   1.128   0.478   1.326 -0.0874 -0.4323  0.1276
 4009TIP3    H133662   1.174   0.396   1.344 -1.8907 -1.1565  1.8661
 4009TIP3    H233663   1.092   0.504   1.412 -0.0673  1.8621 -0.4970
 4010TIP3   OH233664   4.831   2.097   2.552  0.5195  0.0190  0.0054
 4010TIP3    H133665   4.852   2.012   2.512 -1.2423  0.4695 -2.0212
 4010TIP3    H233666   4.736   2.095   2.564  0.6728  1.0211  1.6727
 4011TIP3   OH233667   1.725   0.734   7.655 -0.0740 -0.0251 -0.1762
 4011TIP3    H133668   1.803   0.688   7.624 -0.6216 -1.1349  0.0604
 4011TIP3    H233669   1.720   0.812   7.599 -0.0031 -1.0305 -1.6325
 4012TIP3   OH233670   2.209   4.787   0.396  0.0212 -0.3557 -0.0051
 4012TIP3    H133671   2.249   4.714   0.444  1.5502  0.1028 -0.5208
 4012TIP3    H233672   2.116   4.766   0.393  0.2790 -1.7273  0.8141
 4013TIP3   OH233673   1.203   2.399   8.174 -0.0331 -0.2442  0.8823
 4013TIP3    H133674   1.293   2.429   8.167 -0.1564  0.2661  1.4635
 4013TIP3    H233675   1.207   2.306   8.149  0.4801  0.0336 -0.0897
 4014TIP3   OH233676   0.187   2.214   0.022 -0.4725  0.1829 -0.1501
 4014TIP3    H133677   0.185   2.224   0.117 -1.1442  0.6568 -0.2142
 4014TIP3    H233678   0.273   2.248  -0.003 -0.2144 -0.1243  0.3059
 4015TIP3   OH233679   3.447   5.518   7.289  0.0114 -0.2013  0.3553
 4015TIP3    H133680   3.429   5.494   7.197  3.0951  3.1020 -1.3536
 4015TIP3    H233681   3.522   5.464   7.314 -2.6106 -3.3260  2.2514
 4016TIP3   OH233682   0.253   0.775   7.076  0.8207  0.5862 -0.0213
 4016TIP3    H133683   0.172   0.789   7.026 -0.9675 -2.3715  1.7480
 4016TIP3    H233684   0.310   0.726   7.016  0.8991  1.7337 -0.9141
 4017TIP3   OH233685   6.199   4.650   1.108 -0.4295 -0.5926  1.0810
 4017TIP3    H133686   6.254   4.656   1.030 -1.3158  0.5436  0.4987
 4017TIP3    H233687   6.193   4.557   1.127  1.4348 -0.7634  0.9966
 4018TIP3   OH233688   3.451   1.050   0.323 -0.0149 -0.2032  0.4902
 4018TIP3    H133689   3.478   1.087   0.240 -0.4743  0.9709  0.8369
 4018TIP3    H233690   3.404   1.121   0.367  1.8210 -0.1668  2.5493
 4019TIP3   OH233691   5.040   5.003   8.964  0.2720 -0.0471  0.1434
 4019TIP3    H133692   5.103   4.934   8.945  1.3157  0.7105  0.7394
 4019TIP3    H233693   5.006   4.981   9.051 -0.5114 -0.6031 -0.2910
 4020TIP3   OH233694   6.499   4.726   2.697  0.1084 -0.0219 -0.4897
 4020TIP3    H133695   6.567   4.660   2.705  0.9627  0.8557 -0.3797
 4020TIP3    H233696   6.417   4.676   2.695  0.7928 -1.1650 -1.6662
 4021TIP3   OH233697   4.625   3.010   8.070  0.4372 -0.0512  0.1983
 4021TIP3    H133698   4.688   3.068   8.027 -1.1010  0.5811 -1.2915
 4021TIP3    H233699   4.668   2.985   8.153  1.9676  1.5755 -0.0542
 4022TIP3   OH233700   0.049   1.987   8.716 -0.2212  0.4036  0.1132
 4022TIP3    H133701   0.107   1.918   8.683 -2.0194 -1.2464  0.2128
 4022TIP3    H233702   0.062   1.985   8.811 -0.4544 -0.0232  0.1430
 4023TIP3   OH233703   5.789   1.053   8.136 -0.7385  0.0153  0.1249
 4023TIP3    H133704   5.861   1.049   8.073 -0.6498  0.9255  0.1552
 4023TIP3    H233705   5.832   1.052   8.222 -0.9238 -3.7017  0.3492
 4024TIP3   OH233706   3.641   6.706   7.617  0.7026  0.1826 -0.0210
 4024TIP3    H133707   3.577   6.677   7.682 -0.9266  1.2177 -1.0924
 4024TIP3    H233708   3.591   6.716   7.536  2.7988 -1.6913 -1.6649
 4025TIP3   OH233709   2.968   2.143   0.488 -0.4258  0.8669 -0.3587
 4025TIP3    H133710   2.895   2.106   0.438 -1.7690  0.8245  1.5442
 4025TIP3    H233711   3.038   2.079   0.479 -2.7431 -2.5601  3.0543
 4026TIP3   OH233712   3.929   4.189   0.107 -0.2672  0.0977 -0.0737
 4026TIP3    H133713   4.006   4.244   0.121 -1.6119  2.2751 -0.6844
 4026TIP3    H233714   3.927   4.174   0.012 -0.5017 -0.0659 -0.0447
 4027TIP3   OH233715   3.095   5.167   6.309  0.0703 -0.1003 -0.1736
 4027TIP3    H133716   3.154   5.218   6.365  1.8187 -1.3608 -0.8085
 4027TIP3    H233717   3.124   5.077   6.320 -1.2070 -0.6499 -1.1834
 4028TIP3   OH233718   0.403   4.422   8.967  0.2371  0.8566  0.0135
 4028TIP3    H133719   0.390   4.339   8.921  0.6677  0.7491  0.0757
 4028TIP3    H233720   0.494   4.446   8.947  0.5027  0.6911  0.9905
 4029TIP3   OH233721   5.062   3.336   8.600  0.4081 -0.2448 -0.3421
 4029TIP3    H133722   5.084   3.243   8.600  1.6297 -0.0118 -1.8466
 4029TIP3    H233723   5.145   3.380   8.616  0.0216  0.6041 -0.6108
 4030TIP3   OH233724   6.083   4.816   7.378  0.3895  0.2754  0.6946
 4030TIP3    H133725   6.059   4.782   7.292  1.7018  0.5586  0.1922
 4030TIP3    H233726   6.140   4.890   7.359 -0.9090  1.6189  1.7990
 4031TIP3   OH233727   2.518   1.227   1.595  0.7326  0.2157  0.3728
 4031TIP3    H133728   2.457   1.299   1.584 -0.0846 -0.3427  1.1145
 4031TIP3    H233729   2.466   1.158   1.637  1.0727 -1.3633 -1.6450
 4032TIP3   OH233730   2.142   5.047   0.952  0.0913  0.4436  0.2462
 4032TIP3    H133731   2.229   5.062   0.989 -0.3376  2.5186  0.5177
 4032TIP3    H233732   2.157   5.042   0.857  0.4053  2.0066  0.1838
 4033TIP3   OH233733   2.753   1.351   2.901  0.0825 -0.3112 -0.0137
 4033TIP3    H133734   2.831   1.346   2.847 -0.9000  0.7864 -1.6381
 4033TIP3    H233735   2.756   1.438   2.941  0.1050 -0.5895  0.6076
 4034TIP3   OH233736   6.669   5.646   7.411 -0.1585 -0.3757 -0.4094
 4034TIP3    H133737   6.610   5.581   7.374 -0.8780 -0.2613  0.5074
 4034TIP3    H233738   6.673   5.625   7.504  0.7899 -0.0202 -0.3591
 4035TIP3   OH233739   6.421   5.524   0.860  0.3385 -0.3342 -0.0038
 4035TIP3    H133740   6.402   5.613   0.831 -1.3223 -0.7307 -0.2586
 4035TIP3    H233741   6.511   5.527   0.892  0.2308  1.4826  0.2087
 4036TIP3   OH233742   3.098   1.404   1.590  0.0841  0.3823  0.3810
 4036TIP3    H133743   3.122   1.410   1.683  1.4661  2.0545 -0.0510
 4036TIP3    H233744   3.136   1.321   1.562  1.3707  0.7855  0.8547
 4037TIP3   OH233745   1.739   1.629   2.804 -0.6639 -0.6150  0.0187
 4037TIP3    H133746   1.666   1.622   2.865 -1.4216  0.6220 -0.7066
 4037TIP3    H233747   1.801   1.688   2.847  0.2628 -2.1795  0.9277
 4038TIP3   OH233748   4.611   5.996   7.999  0.4265 -0.2475  0.3273
 4038TIP3    H133749   4.663   5.921   8.029  0.8761 -0.1458 -0.1898
 4038TIP3    H233750   4.591   6.044   8.079 -0.5920 -1.3707  0.7787
 4039TIP3   OH233751   3.127   2.150   7.226 -0.4327  0.1311  0.1140
 4039TIP3    H133752   3.134   2.057   7.206  0.9279 -0.0909  1.4201
 4039TIP3    H233753   3.094   2.190   7.146  1.9844 -1.0625 -1.5788
 4040TIP3   OH233754   2.951   3.988   8.116 -0.4770 -0.5177 -0.5353
 4040TIP3    H133755   2.991   4.033   8.191  1.9524 -2.0256 -0.8367
 4040TIP3    H233756   2.929   3.901   8.149  1.5900 -1.5749 -1.7355
 4041TIP3   OH233757   2.739   6.720   8.305  0.3408  0.3908  0.1954
 4041TIP3    H133758   2.730   6.663   8.229  0.1878  0.2384  0.3285
 4041TIP3    H233759   2.792   6.793   8.273 -0.0944  0.5460 -0.1744
 4042TIP3   OH233760   4.585   2.772   6.967 -0.1060 -0.1630 -0.7552
 4042TIP3    H133761   4.502   2.817   6.953  0.3787  0.8448 -0.5078
 4042TIP3    H233762   4.651   2.831   6.929  0.6945  0.0646  0.9107
 4043TIP3   OH233763   5.454   2.496   2.065 -0.2659 -0.1882 -0.0223
 4043TIP3    H133764   5.496   2.538   2.140  1.7939  0.0737 -1.2569
 4043TIP3    H233765   5.481   2.405   2.069 -1.4576 -0.5478  0.3990
 4044TIP3   OH233766   0.175   1.741   8.635 -0.1332  0.0841  0.0432
 4044TIP3    H133767   0.212   1.699   8.558  1.3169  0.0446  0.7285
 4044TIP3    H233768   0.087   1.704   8.643 -0.5388  0.5212 -1.8977
 4045TIP3   OH233769   1.827   2.897   8.250 -0.6217  0.5247 -0.0847
 4045TIP3    H133770   1.805   2.805   8.239 -2.1968  0.8021  0.4232
 4045TIP3    H233771   1.858   2.926   8.164 -2.5139  0.1151 -0.9397
 4046TIP3   OH233772   1.092   1.165   8.515 -0.1545 -0.1307 -0.4580
 4046TIP3    H133773   1.022   1.222   8.548 -0.2151 -1.6198  2.3354
 4046TIP3    H233774   1.049   1.080   8.503  0.9527 -0.8365  0.4318
 4047TIP3   OH233775   0.398   4.017   2.303  0.1485  0.1029  0.5437
 4047TIP3    H133776   0.362   4.078   2.368  1.8508  1.2786  0.4723
 4047TIP3    H233777   0.486   4.051   2.286 -0.1218 -0.3910 -2.1382
 4048TIP3   OH233778   1.861   2.374   8.143  0.1903  0.6292 -0.3886
 4048TIP3    H133779   1.802   2.336   8.077  0.2460  2.7558 -1.7586
 4048TIP3    H233780   1.946   2.377   8.100  0.0483  2.8634 -0.6328
 4049TIP3   OH233781   6.382   3.882   7.912 -0.4871  0.0042 -0.0841
 4049TIP3    H133782   6.446   3.815   7.936 -0.3576  0.0359 -0.3352
 4049TIP3    H233783   6.359   3.861   7.821 -0.1581  0.5255 -0.2926
 4050TIP3   OH233784   2.646   0.781   8.496 -0.4420  0.0105  0.2169
 4050TIP3    H133785   2.614   0.724   8.425  0.1021 -1.9546  1.4555
 4050TIP3    H233786   2.573   0.785   8.558  0.4274 -1.7090  1.4476
 4051TIP3   OH233787   0.059   2.064   7.792 -0.3011 -0.1412  0.0330
 4051TIP3    H133788  -0.031   2.085   7.819 -1.0126 -2.3462 -0.4110
 4051TIP3    H233789   0.062   1.968   7.794  2.4815 -0.1109  1.3707
 4052TIP3   OH233790   4.186   3.907   8.353 -0.0819 -0.3252 -0.2256
 4052TIP3    H133791   4.215   3.995   8.379  1.9791 -0.9443 -0.2319
 4052TIP3    H233792   4.170   3.862   8.435  0.5781 -0.4520 -0.1567
 4053TIP3   OH233793   4.370   4.912   7.183 -0.1237 -0.4214 -0.0357
 4053TIP3    H133794   4.456   4.952   7.166 -0.5506  0.1894 -0.8548
 4053TIP3    H233795   4.318   4.934   7.105 -1.2147 -0.2535  0.7212
 4054TIP3   OH233796   3.421   3.109   8.227  0.0276 -0.2538  0.5871
 4054TIP3    H133797   3.407   3.072   8.315  1.2988 -0.1623  0.8524
 4054TIP3    H233798   3.451   3.198   8.244 -2.2657  0.6884 -0.0335
 4055TIP3   OH233799   2.424   3.768   7.753 -0.0830 -0.0835  0.2750
 4055TIP3    H133800   2.378   3.703   7.700  0.6234 -1.3579  1.1474
 4055TIP3    H233801   2.454   3.834   7.691  0.2936 -1.2717 -0.8498
 4056TIP3   OH233802   0.605   1.509   8.169  0.1963 -0.4482  0.2948
 4056TIP3    H133803   0.685   1.470   8.204 -0.6689 -0.9662  1.7529
 4056TIP3    H233804   0.557   1.541   8.245 -1.9605 -2.0044 -0.2836
 4057TIP3   OH233805   1.158   1.978   7.047  0.1901  0.2295 -0.2818
 4057TIP3    H133806   1.132   1.892   7.013 -1.5030  0.6222 -0.0844
 4057TIP3    H233807   1.099   1.993   7.121  2.2030  0.4567  1.3525
 4058TIP3   OH233808   5.773   5.352   6.754  0.2024 -0.1711  0.0621
 4058TIP3    H133809   5.784   5.445   6.734 -0.0667 -0.2589 -0.5078
 4058TIP3    H233810   5.852   5.310   6.719 -0.0340 -0.2594 -0.3615
 4059TIP3   OH233811   5.480   1.618   1.621 -0.0591 -0.9596  0.2318
 4059TIP3    H133812   5.397   1.571   1.619 -0.1918 -0.7040 -0.0760
 4059TIP3    H233813   5.483   1.668   1.540 -0.2682  0.1909  0.9119
 4060TIP3   OH233814   5.637   3.790   0.622 -0.3646  0.1065 -0.3897
 4060TIP3    H133815   5.717   3.784   0.569 -0.6977  1.1869 -1.0384
 4060TIP3    H233816   5.608   3.699   0.631  0.7393 -0.2678 -0.4395
 4061TIP3   OH233817   3.421   5.623   7.576 -0.7038  0.4822  0.0263
 4061TIP3    H133818   3.414   5.539   7.532 -1.3464  0.3034  0.4506
 4061TIP3    H233819   3.335   5.636   7.617 -1.1954  2.1262 -1.4201
 4062TIP3   OH233820   0.429   4.284   7.724  0.0633  0.4261 -0.2163
 4062TIP3    H133821   0.364   4.254   7.659 -0.6882 -1.0260  1.1243
 4062TIP3    H233822   0.462   4.367   7.689 -1.6185  0.5845 -1.5613
 4063TIP3   OH233823   6.744   3.507   2.677  0.4046  0.4123  0.5814
 4063TIP3    H133824   6.821   3.561   2.656  1.0491 -1.2719 -1.8910
 4063TIP3    H233825   6.677   3.539   2.617 -1.3000  2.5357  3.3836
 4064TIP3   OH233826   6.455   4.487   6.978  0.2546  0.2367 -0.0737
 4064TIP3    H133827   6.363   4.497   7.005  0.6349  2.4136  0.6261
 4064TIP3    H233828   6.502   4.550   7.032  2.3138 -1.3550  0.1030
 4065TIP3   OH233829   1.216   3.445   7.872 -0.0274  0.2299  0.5301
 4065TIP3    H133830   1.209   3.386   7.947  1.4005 -0.2926  0.2706
 4065TIP3    H233831   1.278   3.512   7.899  2.0371 -1.0305 -0.8010
 4066TIP3   OH233832   3.315   6.368   0.010  0.2399  0.6927  0.2859
 4066TIP3    H133833   3.318   6.399  -0.080 -0.8676  2.3669  0.7835
 4066TIP3    H233834   3.403   6.335   0.028  0.1565 -0.8152 -1.7622
 4067TIP3   OH233835   1.208   2.042   1.305  0.0513  0.1202 -0.9963
 4067TIP3    H133836   1.266   1.991   1.361  1.7737 -1.3401 -3.9098
 4067TIP3    H233837   1.222   2.133   1.332  0.2540 -0.5355  1.3217
 4068TIP3   OH233838   2.820   4.919   1.124  0.2626  0.2443  0.0883
 4068TIP3    H133839   2.855   4.955   1.042 -0.2221  1.5167  0.4288
 4068TIP3    H233840   2.857   4.974   1.192 -0.6991  0.2711  0.6044
 4069TIP3   OH233841   4.083   4.088   8.906  0.2093 -0.3312 -0.4779
 4069TIP3    H133842   4.115   4.006   8.867 -2.1930 -1.6007  0.0438
 4069TIP3    H233843   4.114   4.085   8.996  0.7130 -0.3240 -0.6480
 4070TIP3   OH233844   4.778   5.216   1.967 -0.1657 -0.0882  0.2178
 4070TIP3    H133845   4.830   5.277   1.915 -1.9524  2.8366  1.5891
 4070TIP3    H233846   4.795   5.241   2.058 -1.8444 -0.8422  0.7870
 4071TIP3   OH233847   5.939   5.856   2.215  0.2973 -0.5150  0.0729
 4071TIP3    H133848   5.882   5.801   2.161 -0.6171 -1.3254  1.7687
 4071TIP3    H233849   6.027   5.841   2.180 -0.0696 -2.2061 -0.2349
 4072TIP3   OH233850   0.715   0.858   7.615  0.8937  0.2864 -0.1337
 4072TIP3    H133851   0.802   0.837   7.582  1.3406 -0.3386  1.3340
 4072TIP3    H233852   0.713   0.954   7.620  1.3907  0.3138 -0.4427
 4073TIP3   OH233853   0.473   0.233   0.977 -0.0511 -0.5001 -0.2267
 4073TIP3    H133854   0.389   0.278   0.983 -0.6614 -1.6087 -0.2408
 4073TIP3    H233855   0.454   0.142   0.998  0.8411 -1.0948 -1.8074
 4074TIP3   OH233856   1.551   2.117   8.364 -0.4406 -0.2613 -0.2604
 4074TIP3    H133857   1.619   2.107   8.430  0.6320  1.7022 -0.9578
 4074TIP3    H233858   1.561   2.041   8.307 -0.7113 -1.4359  1.2214
 4075TIP3   OH233859   2.795   1.984   7.863  0.3013  0.2892 -0.2537
 4075TIP3    H133860   2.762   2.045   7.929 -0.0452 -0.2401  0.0794
 4075TIP3    H233861   2.758   2.015   7.781 -2.4169 -1.1376  0.2788
 4076TIP3   OH233862   6.740   4.237   8.593  0.8715  0.3561  0.0022
 4076TIP3    H133863   6.678   4.260   8.523  0.1280 -1.4763 -0.0203
 4076TIP3    H233864   6.802   4.309   8.595 -0.6292  1.7396 -0.7438
 4077TIP3   OH233865   3.477   3.034   7.609  0.8122  0.3737  0.5419
 4077TIP3    H133866   3.423   2.993   7.677  0.3354  1.3273  0.7698
 4077TIP3    H233867   3.484   2.968   7.541 -2.2401  0.7777 -0.3420
 4078TIP3   OH233868   5.207   6.769   7.543  0.0453  0.2868  0.1011
 4078TIP3    H133869   5.154   6.848   7.553 -0.1924  0.3381 -1.3952
 4078TIP3    H233870   5.297   6.801   7.534 -0.2066  0.5489 -2.0686
 4079TIP3   OH233871   5.328   5.880   8.705 -1.0927 -0.1759  0.2227
 4079TIP3    H133872   5.271   5.812   8.741 -0.3889  0.0718  1.8781
 4079TIP3    H233873   5.340   5.942   8.776  1.9046 -0.6546  0.2548
 4080TIP3   OH233874   4.780   5.371   0.266  0.1356 -0.3096  0.0636
 4080TIP3    H133875   4.748   5.432   0.199  0.0051 -1.2238 -0.7294
 4080TIP3    H233876   4.806   5.427   0.339 -0.7582  0.6411 -0.3181
 4081TIP3   OH233877   6.549   3.720   0.611 -0.4435 -0.4598 -0.3188
 4081TIP3    H133878   6.644   3.728   0.604 -0.5325 -0.3274 -1.5047
 4081TIP3    H233879   6.537   3.648   0.674  0.4197  0.1339  0.5603
 4082TIP3   OH233880   3.683   4.056   1.525 -0.1321  0.1372  0.1270
 4082TIP3    H133881   3.733   4.131   1.559 -1.6583  1.0336  0.4691
 4082TIP3    H233882   3.618   4.096   1.466 -1.5184 -0.8308  0.9586
 4083TIP3   OH233883   5.790   2.805   0.686  0.5058 -0.1173  0.1305
 4083TIP3    H133884   5.744   2.889   0.693  0.8803  0.0106  1.3803
 4083TIP3    H233885   5.720   2.740   0.678  0.1752  0.2443  0.0442
 4084TIP3   OH233886   4.644   5.981   2.442  0.0678 -0.1991  0.1845
 4084TIP3    H133887   4.713   6.034   2.481  0.8489  0.8420 -2.4399
 4084TIP3    H233888   4.593   6.041   2.389 -0.7013 -1.5889 -0.7271
 4085TIP3   OH233889   5.666   1.395   0.319  0.1472  0.5848  0.4504
 4085TIP3    H133890   5.694   1.308   0.290 -0.1530  0.9234 -0.9112
 4085TIP3    H233891   5.696   1.401   0.410 -0.5724 -1.2800  0.8536
 4086TIP3   OH233892   1.577   6.201   0.434  0.3574  0.2959 -0.7016
 4086TIP3    H133893   1.639   6.274   0.442  0.5511  0.1205 -0.5758
 4086TIP3    H233894   1.546   6.186   0.524  1.3104 -0.6278 -0.5042
 4087TIP3   OH233895   0.413   2.565   0.099 -0.2678 -0.5677 -0.2843
 4087TIP3    H133896   0.327   2.570   0.141 -1.0256  0.5827 -1.8595
 4087TIP3    H233897   0.403   2.497   0.032 -1.0705  1.7517 -2.6906
 4088TIP3   OH233898   2.707   5.416   7.603  0.5608  0.5346 -0.3982
 4088TIP3    H133899   2.631   5.385   7.553  0.2953  0.7006 -0.1034
 4088TIP3    H233900   2.773   5.435   7.536  0.7336 -0.6391 -0.5838
 4089TIP3   OH233901   4.072   5.136   1.483 -0.4425 -0.5315 -0.8662
 4089TIP3    H133902   4.066   5.055   1.432  2.3320 -0.3881 -1.5673
 4089TIP3    H233903   4.160   5.134   1.522 -0.2958  2.1155 -0.8840
 4090TIP3   OH233904   4.701   3.652   0.332  0.3276  0.3381  0.5138
 4090TIP3    H133905   4.712   3.729   0.388 -1.9170  0.4318  0.9132
 4090TIP3    H233906   4.607   3.638   0.328  0.3523  0.2127 -3.1595
 4091TIP3   OH233907   3.193   0.039   2.727  0.1894 -0.6125  0.3299
 4091TIP3    H133908   3.108  -0.003   2.719  0.1878 -1.7174  4.1989
 4091TIP3    H233909   3.254  -0.024   2.688 -0.2053 -2.8076  2.9534
 4092TIP3   OH233910   1.470   5.228   6.982 -0.0650  0.4045  0.5843
 4092TIP3    H133911   1.397   5.222   7.044 -0.2361 -0.5027  0.3179
 4092TIP3    H233912   1.509   5.313   6.999 -0.7156  0.5810  1.2637
 4093TIP3   OH233913   4.640   2.666   8.803  0.1722  0.3510 -0.2223
 4093TIP3    H133914   4.632   2.583   8.850 -0.2010  0.7691  0.4548
 4093TIP3    H233915   4.728   2.698   8.826  1.5596 -1.2550 -2.8111
 4094TIP3   OH233916   4.509   0.385   7.135 -0.1260  0.0961 -0.2938
 4094TIP3    H133917   4.580   0.429   7.088 -1.5543  0.6783 -1.9800
 4094TIP3    H233918   4.540   0.295   7.145  0.2526 -0.0289 -2.3067
 4095TIP3   OH233919   2.776   0.490   8.566 -0.5612 -0.0158 -0.2450
 4095TIP3    H133920   2.823   0.412   8.539 -0.7139 -0.6097  1.1101
 4095TIP3    H233921   2.838   0.561   8.555  0.0561 -0.5378 -0.1764
 4096TIP3   OH233922   0.430   3.745   7.864 -0.0653 -0.7264 -0.3482
 4096TIP3    H133923   0.448   3.825   7.913 -0.1047 -0.1272 -1.2964
 4096TIP3    H233924   0.429   3.676   7.931 -0.0258  0.0541  0.4770
 4097TIP3   OH233925   6.439   6.754   0.229  0.0336  0.4065  0.6288
 4097TIP3    H133926   6.513   6.813   0.214 -0.7280  1.3973  0.6408
 4097TIP3    H233927   6.464   6.703   0.307  1.1978 -0.1311 -0.0660
 4098TIP3   OH233928   3.501   6.344   7.360 -0.0726 -0.1066 -0.2799
 4098TIP3    H133929   3.467   6.402   7.291 -0.5597 -0.4848 -0.3602
 4098TIP3    H233930   3.573   6.297   7.318  1.0888  1.2438  0.1082
 4099TIP3   OH233931   6.225   5.555   7.424 -0.3333 -0.7318  0.4364
 4099TIP3    H133932   6.281   5.598   7.489  1.4773 -2.0464 -0.1736
 4099TIP3    H233933   6.199   5.626   7.365  1.5366 -0.1882  0.1714
 4100TIP3   OH233934   4.676   4.803   1.549 -0.2162  1.0214 -0.6782
 4100TIP3    H133935   4.744   4.831   1.488 -1.2189  3.4179 -0.8347
 4100TIP3    H233936   4.693   4.855   1.628 -1.0020  0.5593 -0.1961
 4101TIP3   OH233937   6.251   4.316   2.048 -0.5459 -0.6882  0.4005
 4101TIP3    H133938   6.175   4.330   2.104 -0.7911 -1.0099  0.1494
 4101TIP3    H233939   6.324   4.305   2.109 -0.5835  0.2436  0.6358
 4102TIP3   OH233940   4.237   2.650   2.264  0.1255  0.1148 -0.5555
 4102TIP3    H133941   4.327   2.667   2.293 -0.3687  1.3451  0.3646
 4102TIP3    H233942   4.247   2.599   2.184  1.6299 -0.4603 -0.0447
 4103TIP3   OH233943   1.240   2.898   7.957  0.1694 -0.0629 -0.2150
 4103TIP3    H133944   1.326   2.890   7.998  0.3217  1.9537 -0.0177
 4103TIP3    H233945   1.190   2.824   7.991  1.6208 -0.8905  0.1928
 4104TIP3   OH233946   4.551   1.294   6.980  0.4910 -0.0032 -0.2418
 4104TIP3    H133947   4.627   1.285   6.923  0.4074  0.6815 -0.4667
 4104TIP3    H233948   4.547   1.211   7.029  1.5810  0.0939  0.0304
 4105TIP3   OH233949   1.898   4.275   6.668  0.2006  0.5793  0.2808
 4105TIP3    H133950   1.881   4.183   6.648  0.9569  0.4259  0.3398
 4105TIP3    H233951   1.892   4.320   6.584  3.9880 -0.1393 -0.5588
 4106TIP3   OH233952   5.836   2.570   1.831 -0.1906  0.4065  0.5313
 4106TIP3    H133953   5.780   2.612   1.897  0.3816 -0.8416  1.8569
 4106TIP3    H233954   5.895   2.515   1.882  1.6890  1.0237 -0.8935
 4107TIP3   OH233955   1.621   3.317   8.739 -0.0718  0.4410  0.2250
 4107TIP3    H133956   1.684   3.355   8.678 -0.8119 -1.7265 -2.0577
 4107TIP3    H233957   1.673   3.259   8.795  0.3427  0.9510  0.3754
 4108TIP3   OH233958   2.007   3.418   9.026  0.4747  0.0691 -0.1460
 4108TIP3    H133959   1.926   3.426   9.077 -0.9904 -1.4180 -2.0923
 4108TIP3    H233960   2.040   3.331   9.047 -0.2372 -0.6301 -1.7578
 4109TIP3   OH233961   5.074   4.987   2.201  0.2884  0.0568 -0.5804
 4109TIP3    H133962   5.014   4.937   2.145 -0.2716  0.3289 -0.2304
 4109TIP3    H233963   5.029   4.994   2.285  1.4207 -0.9352  0.1384
 4110TIP3   OH233964   3.908   4.027   0.911 -0.1655 -0.4053  0.3328
 4110TIP3    H133965   3.956   4.029   0.828  0.5045  0.9260  0.7147
 4110TIP3    H233966   3.977   4.036   0.978 -0.9133  1.9925  0.8865
 4111TIP3   OH233967   5.155   3.217   8.074  0.3797 -0.0548  0.2590
 4111TIP3    H133968   5.163   3.124   8.093  0.9503 -0.2662 -0.9210
 4111TIP3    H233969   5.158   3.260   8.160  1.1895 -1.0515  0.7468
 4112TIP3   OH233970   1.644   5.591   8.639  0.2075  0.1067  0.0684
 4112TIP3    H133971   1.599   5.615   8.558 -1.4175 -1.7022  0.3579
 4112TIP3    H233972   1.594   5.634   8.708  0.1542 -0.2720  0.2675
 4113TIP3   OH233973   2.729   3.278   1.122  0.7943  0.0212 -0.3977
 4113TIP3    H133974   2.712   3.339   1.050  0.3245  0.2231 -0.1248
 4113TIP3    H233975   2.721   3.331   1.201  0.6935 -0.3252 -0.1701
 4114TIP3   OH233976   2.164   2.016   8.059  0.4738  0.3693 -0.1327
 4114TIP3    H133977   2.195   2.083   7.998 -1.0334  1.5514  0.3060
 4114TIP3    H233978   2.218   2.027   8.137  1.0679  0.2138 -0.5165
 4115TIP3   OH233979   2.777   0.413   1.391 -0.4739 -0.7095 -0.5197
 4115TIP3    H133980   2.860   0.369   1.370 -0.1135  0.4690 -1.6211
 4115TIP3    H233981   2.801   0.504   1.405 -1.4098 -0.6004  0.5207
 4116TIP3   OH233982   1.178   4.612   8.124 -0.1862 -0.5467 -0.0120
 4116TIP3    H133983   1.120   4.578   8.192  1.5059  1.5301  2.7078
 4116TIP3    H233984   1.254   4.554   8.125  0.7706  0.6451  1.5079
 4117TIP3   OH233985   1.651   4.289   0.511  0.1566  0.5797 -0.2142
 4117TIP3    H133986   1.684   4.259   0.595  1.2602  1.3607 -0.3446
 4117TIP3    H233987   1.592   4.220   0.481 -0.7060  0.5451  1.4556
 4118TIP3   OH233988   1.061   2.480   1.836  0.0330 -0.3387 -0.2123
 4118TIP3    H133989   0.966   2.487   1.823  0.3354  0.4886 -2.2259
 4118TIP3    H233990   1.077   2.385   1.839 -0.7545 -0.5043 -0.7362
 4119TIP3   OH233991   0.346   5.086   8.532 -0.0935 -0.0235  0.1590
 4119TIP3    H133992   0.277   5.022   8.550  0.8461 -0.8929  0.7260
 4119TIP3    H233993   0.409   5.039   8.478 -0.0082  0.8134 -0.4880
 4120TIP3   OH233994   4.260   1.263   7.858 -0.7781  0.1479  0.1841
 4120TIP3    H133995   4.292   1.180   7.893 -1.7554 -0.5779 -0.5575
 4120TIP3    H233996   4.176   1.240   7.818 -0.3048  1.1760 -1.4771
 4121TIP3   OH233997   5.847   1.178   8.911  0.0863  0.3305 -0.0054
 4121TIP3    H133998   5.920   1.117   8.905  0.9357  1.1080  1.6987
 4121TIP3    H233999   5.808   1.160   8.997 -0.1091  1.6478  0.2041
 4122TIP3   OH234000   2.282   5.996   8.478  0.1219 -0.2039 -0.4887
 4122TIP3    H134001   2.223   6.023   8.549 -0.2329  0.5919 -1.0673
 4122TIP3    H234002   2.249   6.043   8.401  1.3780  0.0804 -0.8663
 4123TIP3   OH234003   0.339   6.578   8.980 -0.1769  0.7363  0.7062
 4123TIP3    H134004   0.341   6.487   9.010  1.5989  0.3738 -0.3415
 4123TIP3    H234005   0.258   6.585   8.931 -0.2719 -0.3446  0.6764
 4124TIP3   OH234006   3.080   6.289   7.599 -0.1043  0.3228 -0.1501
 4124TIP3    H134007   3.059   6.206   7.557 -2.1014  1.5331 -1.7431
 4124TIP3    H234008   3.019   6.351   7.560  0.7612  2.3844  1.6044
 4125TIP3   OH234009   3.068   3.901   0.216 -0.0030  0.1487  0.6227
 4125TIP3    H134010   3.087   3.950   0.136 -0.3840  1.0950  1.1089
 4125TIP3    H234011   3.021   3.823   0.186 -0.1158  0.4817 -0.0692
 4126TIP3   OH234012   3.869   2.249   8.577 -0.2743  0.1412 -0.3183
 4126TIP3    H134013   3.777   2.271   8.593 -0.5327  0.1097 -1.6194
 4126TIP3    H234014   3.867   2.160   8.542  0.5138 -0.9052  2.0908
 4127TIP3   OH234015   5.315   1.107   0.431 -0.0614  0.0389  0.2771
 4127TIP3    H134016   5.359   1.110   0.347 -0.6273 -0.3909 -0.0386
 4127TIP3    H234017   5.265   1.189   0.435 -0.3868 -0.1469  0.0016
 4128TIP3   OH234018   0.824   4.060   7.074 -0.2235  0.0554  0.1498
 4128TIP3    H134019   0.812   4.146   7.035  0.8985 -0.6708 -1.9372
 4128TIP3    H234020   0.750   4.008   7.041 -0.7267  0.0922  1.1568
 4129TIP3   OH234021   0.420   2.181   7.198 -0.2792  0.2333 -0.2440
 4129TIP3    H134022   0.513   2.194   7.214 -0.1428 -1.2421  0.3159
 4129TIP3    H234023   0.411   2.186   7.103  0.0173  2.3150 -0.2166
 4130TIP3   OH234024   3.929   1.256   0.707 -0.1751 -0.2047 -0.1158
 4130TIP3    H134025   3.869   1.273   0.780 -0.4603  1.7340 -0.7218
 4130TIP3    H234026   3.930   1.339   0.658 -0.0362 -1.4362 -2.3400
 4131TIP3   OH234027   0.179   0.543   8.281  0.2784  0.1049 -0.2280
 4131TIP3    H134028   0.221   0.582   8.205  0.1835  0.1846 -0.2411
 4131TIP3    H234029   0.143   0.618   8.329  0.2970  0.0517 -0.1297
 4132TIP3   OH234030   1.058   5.722   7.870  0.1589  0.6488  0.2149
 4132TIP3    H134031   0.984   5.689   7.819  0.4559  2.3847 -1.4606
 4132TIP3    H234032   1.056   5.817   7.857  1.7927  0.8923  1.3611
 4133TIP3   OH234033   5.061   1.573   8.724  0.1195  0.2829  0.1479
 4133TIP3    H134034   5.102   1.596   8.807  0.6528 -0.2596  0.0462
 4133TIP3    H234035   4.998   1.504   8.747  1.9110 -1.5566 -0.1832
 4134TIP3   OH234036   0.365   6.749   0.739 -0.1937  0.3363  0.3430
 4134TIP3    H134037   0.277   6.783   0.754 -1.3971 -2.4543  0.2431
 4134TIP3    H234038   0.411   6.766   0.822 -0.7488  1.9591  0.3453
 4135TIP3   OH234039   5.944   1.456   8.250  0.1184  0.0115 -0.0416
 4135TIP3    H134040   5.905   1.487   8.168  0.2732  1.7844  0.5043
 4135TIP3    H234041   5.961   1.536   8.300  1.4239 -0.9310  1.1025
 4136TIP3   OH234042   0.394   0.358   8.668 -0.0811 -0.1361  0.0293
 4136TIP3    H134043   0.308   0.316   8.656 -0.2045  0.3727 -0.9840
 4136TIP3    H234044   0.380   0.419   8.740 -1.2058  1.4933 -1.4704
 4137TIP3   OH234045   5.906   1.689   0.756  0.1870 -0.3993 -0.4366
 4137TIP3    H134046   5.922   1.673   0.848 -2.6671 -0.6227  0.1154
 4137TIP3    H234047   5.894   1.784   0.750  1.9769 -0.1804 -0.9094
 4138TIP3   OH234048   6.600   4.396   0.806  0.6377  0.6497 -0.2054
 4138TIP3    H134049   6.507   4.411   0.789 -0.0752 -2.3260  0.3914
 4138TIP3    H234050   6.614   4.431   0.894 -0.1494  0.3920  0.0329
 4139TIP3   OH234051   6.149   4.766   0.413  0.6231 -0.1158 -0.0544
 4139TIP3    H134052   6.133   4.675   0.389  0.8084 -0.2812  0.4445
 4139TIP3    H234053   6.095   4.781   0.490 -0.8404  0.7444 -1.1953
 4140TIP3   OH234054   0.066   6.021   7.533 -0.0006 -0.1834 -0.3437
 4140TIP3    H134055   0.117   6.051   7.458  0.9492 -0.2147  0.2724
 4140TIP3    H234056   0.107   5.938   7.558  0.0327  0.0805  0.5265
 4141TIP3   OH234057   3.407   4.845   8.664  0.0218 -0.3627 -0.5398
 4141TIP3    H134058   3.316   4.869   8.680  0.2178  0.7992 -1.0834
 4141TIP3    H234059   3.422   4.865   8.572  0.7280 -0.8819 -0.5477
 4142TIP3   OH234060   1.101   4.643   0.679  1.0425 -0.0297 -0.4621
 4142TIP3    H134061   1.180   4.695   0.662  2.0708 -0.2140  3.0123
 4142TIP3    H234062   1.031   4.708   0.682  1.3722  0.4030 -1.5632
 4143TIP3   OH234063   6.183   3.603   7.825 -0.6043  0.0993  0.4049
 4143TIP3    H134064   6.090   3.610   7.847 -0.3279  0.0735  1.7035
 4143TIP3    H234065   6.198   3.674   7.763 -1.6835 -0.4893 -0.5660
 4144TIP3   OH234066   2.583   1.460   2.123 -0.0854  0.4558  0.9913
 4144TIP3    H134067   2.648   1.473   2.054  2.1746 -2.2062  2.3923
 4144TIP3    H234068   2.538   1.379   2.099 -2.3039  1.7368  0.5635
 4145TIP3   OH234069   2.680   2.202   0.151 -0.0436 -0.2465  0.2237
 4145TIP3    H134070   2.684   2.213   0.056  2.0463 -2.5142 -0.0407
 4145TIP3    H234071   2.590   2.226   0.173 -1.0139 -0.8919 -2.5234
 4146TIP3   OH234072   3.260   3.108   7.913  0.1988  0.5583 -0.1643
 4146TIP3    H134073   3.331   3.142   7.968  1.8751 -0.6543 -1.4705
 4146TIP3    H234074   3.223   3.036   7.964  1.1143  0.0518 -0.1875
 4147TIP3   OH234075   4.161   6.430   8.643  0.7100 -0.4747 -0.4268
 4147TIP3    H134076   4.087   6.386   8.600 -0.5439  1.9870 -0.9740
 4147TIP3    H234077   4.161   6.394   8.732 -2.6182  0.9228  0.3107
 4148TIP3   OH234078   3.624   6.746   8.257  0.2005  0.4506  0.2103
 4148TIP3    H134079   3.602   6.829   8.214 -0.2280  0.5317  0.5755
 4148TIP3    H234080   3.620   6.766   8.350  0.8893  0.2149  0.2944
 4149TIP3   OH234081   6.706   2.106   6.719  0.1488  0.4302 -0.2357
 4149TIP3    H134082   6.627   2.082   6.671 -0.0240  0.3256  0.0953
 4149TIP3    H234083   6.678   2.108   6.811  1.1969 -2.4175  0.2309
 4150TIP3   OH234084   0.967   1.433   0.334 -0.4710 -0.2663 -0.2750
 4150TIP3    H134085   0.968   1.519   0.292  0.2037  0.4803  1.2225
 4150TIP3    H234086   0.882   1.429   0.378 -0.2205 -0.0883  0.2219
 4151TIP3   OH234087   6.667   2.789   1.869  0.0450 -0.1429  0.2201
 4151TIP3    H134088   6.726   2.851   1.911 -0.4967  0.6118 -0.1120
 4151TIP3    H234089   6.704   2.703   1.889  0.6678  0.2740  0.8897
 4152TIP3   OH234090   2.265   0.582   0.844 -0.3963  0.2429 -0.6205
 4152TIP3    H134091   2.350   0.591   0.801 -0.1487 -0.9390 -0.4107
 4152TIP3    H234092   2.240   0.490   0.829 -2.2041  0.8601 -1.7383
 4153TIP3   OH234093   2.354   2.269   2.090 -0.4179 -0.3018 -0.0140
 4153TIP3    H134094   2.445   2.300   2.090 -0.4252 -0.2589 -0.8034
 4153TIP3    H234095   2.310   2.325   2.154  0.2522 -0.7574  0.8515
 4154TIP3   OH234096   6.464   4.042   1.370  0.1854 -0.2156  0.8280
 4154TIP3    H134097   6.469   4.118   1.428 -1.3137  0.5667 -0.0272
 4154TIP3    H234098   6.373   4.011   1.379  0.4808 -1.2760  0.3575
 4155TIP3   OH234099   0.232   1.605   7.186  0.7109 -0.6724 -0.3886
 4155TIP3    H134100   0.278   1.609   7.270  0.3617  1.7575 -0.2501
 4155TIP3    H234101   0.143   1.578   7.208  0.6505 -0.1436  0.0307
 4156TIP3   OH234102   0.149   0.441   0.163  0.4304 -0.1746 -0.3087
 4156TIP3    H134103   0.054   0.449   0.154  0.1099 -1.0778  1.6570
 4156TIP3    H234104   0.183   0.526   0.135 -1.1175  0.8620  0.7698
 4157TIP3   OH234105   1.843   4.532   8.861  0.4125 -0.3740 -0.1852
 4157TIP3    H134106   1.853   4.572   8.947  1.8757 -0.2874 -0.3666
 4157TIP3    H234107   1.754   4.553   8.834  0.2321  0.3417  0.9292
 4158TIP3   OH234108   6.135   5.478   6.726  0.2841 -0.1480 -0.0203
 4158TIP3    H134109   6.094   5.561   6.702 -1.7252 -0.6786  1.3191
 4158TIP3    H234110   6.107   5.416   6.658  1.1338  0.0604 -0.5813
 4159TIP3   OH234111   2.178   4.130   0.068 -0.2257 -0.4738 -0.2657
 4159TIP3    H134112   2.083   4.134   0.058 -0.0634 -0.9021 -2.5951
 4159TIP3    H234113   2.195   4.044   0.106 -0.7177 -0.8907 -0.9713
 4160TIP3   OH234114   1.851   1.038   2.360 -0.1168 -0.3045 -0.0162
 4160TIP3    H134115   1.834   0.989   2.440 -0.9308  0.1714  0.1060
 4160TIP3    H234116   1.784   1.106   2.358  0.0985 -0.1057 -0.9339
 4161TIP3   OH234117   0.640   1.717   2.375 -0.5830 -0.1843  0.1386
 4161TIP3    H134118   0.608   1.786   2.433  1.8708 -0.2676  1.7437
 4161TIP3    H234119   0.560   1.677   2.339 -2.2110  0.4806  2.7314
 4162TIP3   OH234120   0.434   6.255   8.728  0.0496 -0.1765  0.5561
 4162TIP3    H134121   0.489   6.305   8.788 -0.2905  1.1853 -0.2283
 4162TIP3    H234122   0.490   6.237   8.653 -0.5338  1.2256 -0.2510
 4163TIP3   OH234123   2.077   3.222   7.942 -0.2165 -0.0174  0.0637
 4163TIP3    H134124   1.992   3.178   7.951 -0.3068 -0.0833 -1.0545
 4163TIP3    H234125   2.100   3.247   8.032 -0.9484 -0.8743  0.5125
 4164TIP3   OH234126   5.198   6.406   1.611 -0.1096 -0.0161  0.2896
 4164TIP3    H134127   5.263   6.426   1.543  0.7535 -1.0477  0.7829
 4164TIP3    H234128   5.245   6.421   1.693 -0.8995  0.4568  0.6626
 4165TIP3   OH234129   1.016   1.603   7.865  0.2236 -0.0602  0.4787
 4165TIP3    H134130   0.968   1.558   7.795  2.1866 -0.8587 -0.4468
 4165TIP3    H234131   1.058   1.533   7.914 -1.7903  0.4116  3.1213
 4166TIP3   OH234132   1.208   2.544   8.453  0.7878  0.0356  0.6774
 4166TIP3    H134133   1.269   2.617   8.458 -1.3968  2.0151  0.3901
 4166TIP3    H234134   1.206   2.520   8.360  2.1456 -1.0461  0.8916
 4167TIP3   OH234135   1.893   2.803   1.072 -0.4736  0.1466  0.1639
 4167TIP3    H134136   1.833   2.877   1.058  0.5095  0.8492 -0.3835
 4167TIP3    H234137   1.953   2.805   0.998 -0.5746 -1.3731  0.0015
 4168TIP3   OH234138   1.060   3.743   0.589  0.4041  0.1117 -0.3426
 4168TIP3    H134139   1.094   3.671   0.535 -0.2375 -0.1573 -0.4112
 4168TIP3    H234140   1.017   3.801   0.526  0.8228  0.4998 -0.2726
 4169TIP3   OH234141   0.880   4.886   7.635 -0.2618 -0.7559 -0.5039
 4169TIP3    H134142   0.950   4.853   7.579  1.6661  2.2062 -0.0819
 4169TIP3    H234143   0.865   4.975   7.604 -1.4259 -0.1369  1.6239
 4170TIP3   OH234144   4.210   6.136   0.780 -0.0053 -0.0647 -0.3006
 4170TIP3    H134145   4.242   6.053   0.745 -2.2736 -0.5625 -1.3919
 4170TIP3    H234146   4.182   6.185   0.703 -1.9517  0.2264  0.5403
 4171TIP3   OH234147   2.204   6.008   1.530 -0.2795 -0.5348 -0.2063
 4171TIP3    H134148   2.199   6.103   1.540  0.2466 -0.4161 -0.9877
 4171TIP3    H234149   2.169   5.992   1.442 -3.2525 -1.3650  0.9981
 4172TIP3   OH234150   2.158   1.528   7.943  0.3550  0.1223 -0.2097
 4172TIP3    H134151   2.217   1.562   8.010 -0.0142 -0.0433  0.2049
 4172TIP3    H234152   2.214   1.476   7.886  0.7029  0.3979 -0.1216
 4173TIP3   OH234153   4.391   2.235   1.792  0.0028 -0.2135 -0.7686
 4173TIP3    H134154   4.302   2.263   1.769 -0.0559  0.2893  0.0289
 4173TIP3    H234155   4.420   2.298   1.858  1.1946 -0.0055 -1.4568
 4174TIP3   OH234156   6.723   2.288   1.840 -0.1467 -0.0053  0.0606
 4174TIP3    H134157   6.744   2.215   1.782  0.3568  0.7529 -0.7407
 4174TIP3    H234158   6.745   2.256   1.927  0.7525 -0.5769 -0.3549
 4175TIP3   OH234159   4.825   3.009   8.632  0.5594  0.2530 -0.0078
 4175TIP3    H134160   4.914   2.974   8.629  0.2196 -0.6355  0.1576
 4175TIP3    H234161   4.768   2.934   8.616 -0.2501  0.3992  1.8996
 4176TIP3   OH234162   3.395   0.641   1.171  0.4062  0.0636 -0.0359
 4176TIP3    H134163   3.409   0.602   1.085  0.4989  0.3644 -0.1612
 4176TIP3    H234164   3.482   0.673   1.197  0.1766  0.9304 -0.3113
 4177TIP3   OH234165   5.008   6.151   1.253  0.0622 -0.2927 -0.4705
 4177TIP3    H134166   4.925   6.117   1.218  0.3355 -0.6179 -0.8064
 4177TIP3    H234167   4.987   6.178   1.342 -0.7638  0.9260 -0.9928
 4178TIP3   OH234168   1.981   0.857   1.608 -0.0460 -0.6213 -0.4237
 4178TIP3    H134169   1.961   0.922   1.540  1.7829  0.2415 -0.1775
 4178TIP3    H234170   2.031   0.790   1.562  3.7207  1.3276  0.4546
 4179TIP3   OH234171   0.715   3.169   1.705 -0.3146 -0.0265 -0.3164
 4179TIP3    H134172   0.779   3.099   1.718 -0.0424  0.4812  1.2510
 4179TIP3    H234173   0.767   3.247   1.691 -0.5893  0.2910  0.3984
 4180TIP3   OH234174   3.443   5.983   0.573 -0.0634  0.1302  0.3253
 4180TIP3    H134175   3.525   6.017   0.608  0.3188 -0.6486  0.2121
 4180TIP3    H234176   3.441   5.891   0.601 -0.7791  0.0766  0.1209
 4181TIP3   OH234177   0.150   0.419   0.862  0.5965  0.4911  0.0042
 4181TIP3    H134178   0.211   0.359   0.819 -1.2263 -0.9745 -0.6755
 4181TIP3    H234179   0.149   0.391   0.953  0.6136  0.2209 -0.0767
 4182TIP3   OH234180   0.462   1.496   1.746  0.1138  0.1921 -0.1341
 4182TIP3    H134181   0.528   1.565   1.747 -0.8208  1.1255 -0.6996
 4182TIP3    H234182   0.418   1.505   1.662  1.7588 -2.8982 -1.4956
 4183TIP3   OH234183   2.885   3.992   7.043  0.5680  0.5092 -0.3197
 4183TIP3    H134184   2.826   3.958   6.975 -0.0670  0.8520  0.0519
 4183TIP3    H234185   2.865   4.085   7.048  0.0713  0.3567  0.8571
 4184TIP3   OH234186   2.855   6.686   0.928  0.5425 -0.1511  0.1786
 4184TIP3    H134187   2.778   6.733   0.959  0.2941  0.6129 -1.5061
 4184TIP3    H234188   2.823   6.634   0.853  1.7486  0.6474 -0.9338
 4185TIP3   OH234189   4.657   2.799   8.578  0.7458 -0.7351  0.4563
 4185TIP3    H134190   4.618   2.754   8.652  1.0565 -1.1195  0.3883
 4185TIP3    H234191   4.674   2.730   8.513  1.0506 -0.4968  0.2784
 4186TIP3   OH234192   1.916   0.366   0.918  0.6650  0.2648 -0.2098
 4186TIP3    H134193   1.905   0.461   0.910  1.4165  0.5367  1.5396
 4186TIP3    H234194   1.970   0.342   0.842 -0.9749  0.9192 -1.6426
 4187TIP3   OH234195   2.472   1.393   8.003  0.3608  0.2612 -0.1126
 4187TIP3    H134196   2.401   1.431   8.055  0.2963 -0.1248  0.0862
 4187TIP3    H234197   2.428   1.356   7.927 -0.0179 -2.2748  1.2395
 4188TIP3   OH234198   0.951   6.225   2.334 -0.9400 -0.1643  0.0588
 4188TIP3    H134199   1.032   6.202   2.288 -0.3183  1.4835  0.2847
 4188TIP3    H234200   0.907   6.141   2.347  0.8892 -1.1503  0.2497
 4189TIP3   OH234201   0.168   2.305   1.161  0.1092 -0.1598 -0.2311
 4189TIP3    H134202   0.085   2.348   1.181 -0.7015 -1.4276 -0.7830
 4189TIP3    H234203   0.154   2.260   1.078  1.6406  0.3177 -0.7971
 4190TIP3   OH234204   0.063   3.924   0.024  0.0247  0.5867  0.0729
 4190TIP3    H134205   0.086   3.833   0.009  0.6985  0.9097 -1.0026
 4190TIP3    H234206  -0.032   3.926   0.028  0.0444 -0.3301  1.3447
 4191TIP3   OH234207   6.157   2.528   8.947 -0.3464  0.2556 -0.0788
 4191TIP3    H134208   6.082   2.523   9.006 -0.3664 -1.2557 -0.1837
 4191TIP3    H234209   6.220   2.465   8.983 -0.5705 -1.1094 -1.9147
 4192TIP3   OH234210   4.887   5.631   7.501 -0.1383 -0.4923  0.1010
 4192TIP3    H134211   4.913   5.634   7.409 -0.9489 -1.4794 -0.1695
 4192TIP3    H234212   4.960   5.588   7.545 -0.1828 -0.9184 -0.2370
 4193TIP3   OH234213   0.270   1.833   0.745  0.4429 -0.0481 -0.5002
 4193TIP3    H134214   0.354   1.789   0.743 -0.3735 -1.9555  1.9722
 4193TIP3    H234215   0.206   1.763   0.754 -1.3951  1.3824 -1.6589
 4194TIP3   OH234216   5.831   2.786   7.718  0.0040  0.3469  0.5661
 4194TIP3    H134217   5.860   2.861   7.769  3.5291  0.1087 -0.8268
 4194TIP3    H234218   5.811   2.822   7.631 -0.1469 -0.0638  0.4252
 4195TIP3   OH234219   1.301   6.140   0.291 -0.2090 -0.1447  0.2629
 4195TIP3    H134220   1.360   6.153   0.365  0.2439  0.0740 -0.1350
 4195TIP3    H234221   1.276   6.229   0.264  0.1988 -0.1956 -0.3002
 4196TIP3   OH234222   5.846   5.523   1.037 -0.5559 -0.2033  0.4424
 4196TIP3    H134223   5.835   5.457   1.106 -1.3473 -1.7691 -1.1219
 4196TIP3    H234224   5.938   5.516   1.013 -0.5015 -0.3348  0.6803
 4197TIP3   OH234225   2.289   2.750   1.517  0.3174  0.2678  0.4165
 4197TIP3    H134226   2.202   2.777   1.488  0.3699  1.0344  0.9464
 4197TIP3    H234227   2.349   2.800   1.461  0.4226 -0.4989 -0.1660
 4198TIP3   OH234228   1.725   4.852   1.689  0.8835  0.0117 -0.1375
 4198TIP3    H134229   1.763   4.820   1.607 -1.2991  0.1228 -1.2563
 4198TIP3    H234230   1.737   4.780   1.750 -0.3580 -1.4251 -1.5030
 4199TIP3   OH234231   6.410   4.988   0.149 -0.3881  0.1558  1.1775
 4199TIP3    H134232   6.357   4.924   0.101  1.9206 -2.0027  1.2656
 4199TIP3    H234233   6.421   4.949   0.236  2.1916 -0.0724  0.8084
 4200TIP3   OH234234   1.463   5.160   1.025 -0.1569 -0.0571  0.1534
 4200TIP3    H134235   1.482   5.242   0.981  0.8600 -1.3429 -1.9424
 4200TIP3    H234236   1.371   5.143   1.006  0.0484 -0.1710 -0.7603
 4201TIP3   OH234237   1.981   3.398   0.472 -0.2570 -0.2171 -0.4543
 4201TIP3    H134238   1.936   3.479   0.494  0.1437 -0.6486  2.2862
 4201TIP3    H234239   2.066   3.427   0.437 -0.1446  0.5898  0.4304
 4202TIP3   OH234240   4.422   0.315   1.510  0.2674  0.3900 -0.6055
 4202TIP3    H134241   4.493   0.379   1.503 -1.0825  1.8652 -1.3885
 4202TIP3    H234242   4.351   0.363   1.553 -0.6479 -0.7168 -0.8478
 4203TIP3   OH234243   3.963   3.937   8.116 -0.2987 -0.1597 -0.0961
 4203TIP3    H134244   3.958   4.031   8.097 -1.4382 -0.4173 -1.3051
 4203TIP3    H234245   4.045   3.908   8.076  0.3031  0.4001  0.7165
 4204TIP3   OH234246   3.329   0.588   8.458 -0.1345  0.6916  0.5643
 4204TIP3    H134247   3.373   0.564   8.377  0.4059  0.0690  1.0311
 4204TIP3    H234248   3.287   0.672   8.439 -0.0265  0.5437 -0.3544
 4205TIP3   OH234249   3.993   3.944   1.508 -0.6805 -0.0677  0.3272
 4205TIP3    H134250   3.961   4.024   1.550 -1.8135  0.6543 -1.7806
 4205TIP3    H234251   4.087   3.943   1.526 -1.0770  0.2356  2.7113
 4206TIP3   OH234252   4.519   4.031   8.263 -0.1162 -0.5330  0.1064
 4206TIP3    H134253   4.610   4.021   8.235  0.0311 -0.3218  0.5087
 4206TIP3    H234254   4.485   3.942   8.265  0.3063 -0.6877  0.7059
 4207TIP3   OH234255   5.516   1.962   0.719 -0.1999  0.7745  0.1145
 4207TIP3    H134256   5.597   1.934   0.761 -0.2804  0.3858  0.0159
 4207TIP3    H234257   5.545   2.000   0.635 -0.2468 -1.2849 -0.9049
 4208TIP3   OH234258   3.948   2.118   0.171 -0.4250  0.1455 -0.3531
 4208TIP3    H134259   3.945   2.027   0.198  0.4995 -0.1059 -1.0448
 4208TIP3    H234260   4.032   2.150   0.203 -0.9921  0.9355  0.3982
 4209TIP3   OH234261   4.627   2.340   0.203  0.1936 -0.5425  0.2988
 4209TIP3    H134262   4.593   2.326   0.291  0.8221 -1.1127  0.4638
 4209TIP3    H234263   4.673   2.259   0.182  1.0385  0.0200 -0.0877
 4210TIP3   OH234264   0.596   1.268   1.119 -0.1361 -0.3207  0.1328
 4210TIP3    H134265   0.501   1.275   1.111 -0.3989 -0.9909  2.1209
 4210TIP3    H234266   0.629   1.274   1.029 -2.0887 -0.5372 -0.6306
 4211TIP3   OH234267   4.010   4.066   8.512  0.5380  0.1487  0.2991
 4211TIP3    H134268   4.033   4.098   8.425 -0.1772 -0.7058 -0.2071
 4211TIP3    H234269   4.028   4.141   8.570  0.4627  0.9123 -0.6477
 4212TIP3   OH234270   4.348   6.284   6.982 -0.6849 -0.1501 -0.6414
 4212TIP3    H134271   4.337   6.214   6.918 -2.0804 -0.5593 -0.0064
 4212TIP3    H234272   4.302   6.359   6.943  0.5195  0.3307 -1.1708
 4213TIP3   OH234273   1.705   4.788   7.746 -0.2487 -0.3521  0.3643
 4213TIP3    H134274   1.750   4.731   7.683 -2.1020 -0.8364 -0.6016
 4213TIP3    H234275   1.729   4.752   7.832  1.5604 -0.2629 -0.0509
 4214TIP3   OH234276   3.259   2.975   2.179  0.0620 -0.0315 -0.1142
 4214TIP3    H134277   3.334   2.994   2.235 -0.5906  1.4101  0.3274
 4214TIP3    H234278   3.202   2.920   2.234 -0.2670  0.8218  0.4161
 4215TIP3   OH234279   6.376   0.188   7.551  0.3229  0.3179  0.0930
 4215TIP3    H134280   6.421   0.266   7.519 -0.5534 -0.1983 -2.6096
 4215TIP3    H234281   6.417   0.115   7.505 -1.8956 -0.3323 -1.0259
 4216TIP3   OH234282   0.332   1.192   7.470  0.2336 -0.7067  0.1775
 4216TIP3    H134283   0.290   1.253   7.531  0.0728 -1.0820  0.4506
 4216TIP3    H234284   0.271   1.118   7.465  1.1215 -1.5159  1.0106
 4217TIP3   OH234285   5.116   3.386   0.819  0.1509  0.1156  0.0101
 4217TIP3    H134286   5.076   3.474   0.817 -0.6759 -0.1838  1.6116
 4217TIP3    H234287   5.183   3.392   0.887  1.3610 -0.0075 -1.1509
 4218TIP3   OH234288   6.009   6.630   0.080 -0.1932 -0.3138  0.5270
 4218TIP3    H134289   5.986   6.543   0.113 -1.7579  0.3807  1.3960
 4218TIP3    H234290   6.054   6.671   0.154  0.2085 -0.2514  0.2475
 4219TIP3   OH234291   3.698   4.466   0.272 -0.1293 -0.2109  0.1888
 4219TIP3    H134292   3.680   4.522   0.347  0.3081  1.1890 -0.7268
 4219TIP3    H234293   3.785   4.494   0.242 -0.3136 -0.7424 -0.8521
 4220TIP3   OH234294   3.534   6.649   1.401  0.9145 -0.3333 -0.1543
 4220TIP3    H134295   3.543   6.724   1.343  0.5146  1.3995  1.8737
 4220TIP3    H234296   3.572   6.575   1.352  0.5825  0.9865 -2.5352
 4221TIP3   OH234297   2.175   6.214   7.917  0.3125  0.1512 -0.1721
 4221TIP3    H134298   2.197   6.278   7.850  2.0047 -1.0835 -0.8559
 4221TIP3    H234299   2.188   6.129   7.875 -0.5942 -0.6611  1.1063
 4222TIP3   OH234300   1.151   3.409   8.467 -0.0476  0.2929  0.2207
 4222TIP3    H134301   1.218   3.341   8.467 -0.4588 -0.1144  0.3587
 4222TIP3    H234302   1.163   3.454   8.384  0.9824  0.8064  0.6272
 4223TIP3   OH234303   3.821   1.902   7.729 -0.0327  0.0667 -0.5657
 4223TIP3    H134304   3.857   1.966   7.790 -0.4546 -0.7413  0.5825
 4223TIP3    H234305   3.733   1.934   7.709 -0.3194 -0.2497  0.1677
 4224TIP3   OH234306   3.702   2.756   8.673  0.2220  0.0823 -0.4231
 4224TIP3    H134307   3.752   2.679   8.644 -1.8244 -1.7033  0.4478
 4224TIP3    H234308   3.747   2.786   8.751 -0.0874 -1.6045  0.4554
 4225TIP3   OH234309   2.486   1.751   7.521  0.0534 -0.4241 -0.0296
 4225TIP3    H134310   2.553   1.776   7.584  0.1372  0.8463 -0.5901
 4225TIP3    H234311   2.515   1.789   7.438 -2.0069  1.4526 -0.0168
 4226TIP3   OH234312   4.715   3.775   8.056 -0.2773 -0.3753  0.6862
 4226TIP3    H134313   4.743   3.684   8.043  1.0769  0.0861  0.2680
 4226TIP3    H234314   4.707   3.811   7.968 -1.5259 -0.2764  0.8213
 4227TIP3   OH234315   3.341   5.872   6.874 -0.1240 -0.1143 -0.8471
 4227TIP3    H134316   3.334   5.778   6.860 -0.4054  0.2622 -3.9038
 4227TIP3    H234317   3.332   5.910   6.787  1.6660  2.6786  0.0483
 4228TIP3   OH234318   5.241   0.850   0.089 -0.6094  0.5462  0.8280
 4228TIP3    H134319   5.315   0.827   0.145 -1.5553 -0.7741  1.6009
 4228TIP3    H234320   5.260   0.809   0.004  0.1077  1.2429  0.6506
 4229TIP3   OH234321   2.561   6.354   0.050 -0.4038 -0.0866 -0.9787
 4229TIP3    H134322   2.585   6.418  -0.017  0.2048  0.4949 -0.2235
 4229TIP3    H234323   2.526   6.280   0.000  0.7976 -0.0119 -1.9884
 4230TIP3   OH234324   1.382   1.740   7.232  0.2475 -0.1539  0.0439
 4230TIP3    H134325   1.324   1.696   7.170 -0.4758  1.0926 -0.1988
 4230TIP3    H234326   1.470   1.714   7.206 -0.0280  0.4788 -1.6415
 4231TIP3   OH234327   6.126   3.759   0.588 -0.1067  0.0689 -0.3363
 4231TIP3    H134328   6.137   3.665   0.572 -1.3283 -0.2696  0.7185
 4231TIP3    H234329   6.054   3.765   0.651 -1.2844  1.8056 -1.7600
 4232TIP3   OH234330   2.126   5.978   7.778 -0.0144  0.2441  0.4716
 4232TIP3    H134331   2.034   6.005   7.771  0.3586  1.9795  1.7645
 4232TIP3    H234332   2.132   5.902   7.721 -1.6586  1.6376 -1.7501
 4233TIP3   OH234333   1.427   2.964   2.217  0.0108 -0.5151  0.3187
 4233TIP3    H134334   1.384   2.879   2.217  0.2858 -0.6853  2.4820
 4233TIP3    H234335   1.377   3.017   2.278  0.3247  0.6524 -0.3934
 4234TIP3   OH234336   3.353   4.088   1.204  0.7590  0.0842  0.5951
 4234TIP3    H134337   3.258   4.084   1.210  0.6177  0.9868 -0.6205
 4234TIP3    H234338   3.378   4.160   1.261  0.7861 -0.5649  1.4166
 4235TIP3   OH234339   2.978   1.590   8.260  0.4826  0.2245  0.2699
 4235TIP3    H134340   2.970   1.498   8.284 -0.9689 -0.1873 -1.5172
 4235TIP3    H234341   2.999   1.635   8.342 -1.1039 -1.4068  1.6603
 4236TIP3   OH234342   5.735   2.681   0.381 -0.0157 -0.0675  0.2660
 4236TIP3    H134343   5.649   2.641   0.378 -0.4445  0.7083  1.5870
 4236TIP3    H234344   5.791   2.616   0.424 -0.2376 -0.0620  0.5611
 4237TIP3   OH234345   5.731   0.181   7.873 -0.2274  0.4784 -0.4637
 4237TIP3    H134346   5.772   0.261   7.904  0.9423 -0.3634  0.2748
 4237TIP3    H234347   5.775   0.161   7.790 -1.6867  1.4585 -1.5116
 4238TIP3   OH234348   5.044   2.076   1.644  0.3004 -0.5043  0.1818
 4238TIP3    H134349   5.012   2.120   1.565 -0.3061 -0.1259  0.6218
 4238TIP3    H234350   4.973   2.089   1.708  1.1625 -0.0188  1.0645
 4239TIP3   OH234351   5.842   5.369   7.782  0.4708 -0.1523 -0.2129
 4239TIP3    H134352   5.888   5.362   7.698 -0.1221  1.7928 -0.7695
 4239TIP3    H234353   5.878   5.449   7.822 -0.0307 -0.4626  0.8885
 4240TIP3   OH234354   4.495   2.129   0.751 -0.2336 -0.3784  0.0417
 4240TIP3    H134355   4.484   2.208   0.699 -0.9887 -0.4947  0.0014
 4240TIP3    H234356   4.489   2.058   0.688 -0.5509 -0.4969  0.2008
 4241TIP3   OH234357   0.252   4.734   6.897 -0.5842  0.4599 -0.0666
 4241TIP3    H134358   0.277   4.813   6.945  0.6517 -0.5897  1.1419
 4241TIP3    H234359   0.157   4.733   6.898 -0.6684  2.4955 -1.1249
 4242TIP3   OH234360   0.705   3.999   1.862 -0.4263 -0.3516  0.4116
 4242TIP3    H134361   0.795   3.996   1.896  0.0675 -0.8233 -0.8438
 4242TIP3    H234362   0.670   3.912   1.879 -0.1295 -0.6346 -0.3597
 4243TIP3   OH234363   1.504   6.557   2.012 -0.1319  0.2585  0.0381
 4243TIP3    H134364   1.575   6.568   1.948  2.6783 -1.3617  2.6081
 4243TIP3    H234365   1.461   6.475   1.986  0.2996  0.1556 -0.3669
 4244TIP3   OH234366   1.424   0.974   1.539 -0.6327  0.1689  0.1808
 4244TIP3    H134367   1.483   1.021   1.598  1.4737 -2.2335  0.1861
 4244TIP3    H234368   1.431   1.019   1.455 -0.8574  1.4765  0.8489
 4245TIP3   OH234369   5.975   3.543   6.599  0.4418 -0.7524  0.2030
 4245TIP3    H134370   5.954   3.490   6.676 -1.8162 -0.4824 -0.1569
 4245TIP3    H234371   5.966   3.483   6.525  0.1144 -0.4165 -0.0322
 4246TIP3   OH234372   6.691   3.989   0.297 -0.2261  0.6899  0.2321
 4246TIP3    H134373   6.730   3.988   0.209 -0.9380  1.3327 -0.1126
 4246TIP3    H234374   6.597   3.993   0.280 -0.4165 -0.1871  1.0382
 4247TIP3   OH234375   4.943   3.483   0.226  0.6621  0.1019  0.5082
 4247TIP3    H134376   4.861   3.522   0.257  0.6670 -0.5834  1.4260
 4247TIP3    H234377   4.960   3.526   0.143 -1.5226 -0.9328 -0.5629
 4248TIP3   OH234378   1.435   0.177   2.521  0.0132 -0.4004 -0.2305
 4248TIP3    H134379   1.394   0.244   2.467 -0.0278  1.9285  2.4930
 4248TIP3    H234380   1.375   0.165   2.595  0.8941 -2.1619  0.2658
 4249TIP3   OH234381   2.091   6.724   7.383  0.5981 -0.0190  0.2261
 4249TIP3    H134382   2.001   6.694   7.386  0.9017 -1.2188 -1.3419
 4249TIP3    H234383   2.092   6.803   7.436 -1.2537 -0.2593  0.6822
 4250TIP3   OH234384   4.892   3.915   0.714  0.6296  0.2136 -0.0382
 4250TIP3    H134385   4.850   3.969   0.782  2.0140  0.6111  0.5373
 4250TIP3    H234386   4.842   3.933   0.635 -0.9389 -0.1440  0.8319
 4251TIP3   OH234387   4.665   1.693   1.409  0.0185  0.0267 -0.0300
 4251TIP3    H134388   4.669   1.633   1.335  0.9689  0.5553 -0.4170
 4251TIP3    H234389   4.679   1.780   1.371  1.2327  0.2414  0.8400
 4252TIP3   OH234390   3.012   6.418   8.534  0.2693 -0.2011  0.6362
 4252TIP3    H134391   2.927   6.461   8.544  0.1811  0.0277 -0.8803
 4252TIP3    H234392   3.043   6.447   8.449  2.1149  0.1253  1.3779
 4253TIP3   OH234393   4.907   4.813   2.036  0.2676 -0.1136 -0.4398
 4253TIP3    H134394   4.860   4.814   2.120  1.3216  1.0759  0.1621
 4253TIP3    H234395   4.933   4.722   2.025 -2.5552 -0.9667 -1.0621
 4254TIP3   OH234396   5.226   6.301   8.346  0.0307 -0.0463  0.0424
 4254TIP3    H134397   5.139   6.340   8.347  0.1767  0.2890 -0.2799
 4254TIP3    H234398   5.284   6.372   8.318  0.5435  0.0228  1.1954
 4255TIP3   OH234399   5.343   3.250   8.982  0.0131  0.3224  0.0634
 4255TIP3    H134400   5.260   3.263   9.028 -0.1142 -0.3084  0.0294
 4255TIP3    H234401   5.331   3.166   8.936  0.2281  0.8162 -0.9193
 4256TIP3   OH234402   5.516   1.273   1.177  0.0014 -0.1075  0.0739
 4256TIP3    H134403   5.454   1.213   1.135 -0.3433 -0.2138  0.7225
 4256TIP3    H234404   5.602   1.238   1.156 -0.0429  0.9229 -2.2166
 4257TIP3   OH234405   3.205   1.751   1.304 -0.1820 -0.2891  0.3191
 4257TIP3    H134406   3.271   1.800   1.255  0.2577 -1.3291 -0.1747
 4257TIP3    H234407   3.173   1.685   1.242 -2.3694  0.7495  0.2478
 4258TIP3   OH234408   0.191   1.860   1.381  0.4030 -0.3532 -0.0211
 4258TIP3    H134409   0.130   1.922   1.342 -0.3738 -1.6360 -0.9070
 4258TIP3    H234410   0.152   1.774   1.365  1.8092 -1.1300  0.5258
 4259TIP3   OH234411   6.683   2.975   1.345  1.0471 -0.1068 -0.3502
 4259TIP3    H134412   6.710   2.886   1.369 -1.2962 -0.9381 -0.4965
 4259TIP3    H234413   6.589   2.977   1.364  0.5127  1.5041 -2.7129
 4260TIP3   OH234414   4.932   6.389   7.543  0.2304  0.7386 -0.3529
 4260TIP3    H134415   5.020   6.419   7.566  1.3369 -1.4421 -1.3865
 4260TIP3    H234416   4.912   6.323   7.609  0.4254 -0.4720 -1.4643
 4261TIP3   OH234417   0.194   1.579   8.071  0.3306  0.4975 -0.1323
 4261TIP3    H134418   0.239   1.586   8.155 -0.1459 -1.3120  0.2964
 4261TIP3    H234419   0.112   1.628   8.083 -0.6621 -1.3691  1.1570
 4262TIP3   OH234420   5.332   5.018   1.504 -0.8839 -0.4164  0.4995
 4262TIP3    H134421   5.350   4.926   1.484 -0.5382 -0.4394  0.9010
 4262TIP3    H234422   5.388   5.038   1.579 -0.6354  0.2445  0.1446
 4263TIP3   OH234423   1.607   1.919   8.175 -0.7521  0.3960 -0.1902
 4263TIP3    H134424   1.672   1.849   8.182 -0.1901  0.9985  0.8316
 4263TIP3    H234425   1.528   1.874   8.144 -0.5600 -0.7984  0.9547
 4264TIP3   OH234426   1.321   5.513   7.311 -0.0347 -0.3806 -0.0972
 4264TIP3    H134427   1.231   5.543   7.322 -0.3490 -0.8864 -1.1369
 4264TIP3    H234428   1.374   5.582   7.349 -0.8748 -0.4039  1.1959
 4265TIP3   OH234429   5.144   1.393   1.333  0.9411  0.3123 -0.0430
 4265TIP3    H134430   5.139   1.487   1.312  0.8781  0.5729  1.0760
 4265TIP3    H234431   5.174   1.352   1.252  1.5888  1.3821 -0.3659
 4266TIP3   OH234432   0.381   0.129   7.154 -0.0779  0.3587 -0.6484
 4266TIP3    H134433   0.380   0.073   7.077  0.3325 -0.3464 -0.1630
 4266TIP3    H234434   0.405   0.215   7.122 -0.4171  0.1887 -1.3707
 4267TIP3   OH234435   3.032   2.737   7.277 -0.2602 -0.0249 -0.0084
 4267TIP3    H134436   3.074   2.781   7.204 -1.0094 -1.1761 -1.1788
 4267TIP3    H234437   2.979   2.667   7.236  1.4302 -2.5069  1.7477
 4268TIP3   OH234438   2.643   6.609   0.724  0.0515 -0.3964  0.1826
 4268TIP3    H134439   2.560   6.655   0.732 -0.0199 -0.5884  0.5732
 4268TIP3    H234440   2.627   6.541   0.658 -0.6855 -1.7007  1.6546
 4269TIP3   OH234441   6.221   4.967   0.922  0.3187  0.6705 -0.2123
 4269TIP3    H134442   6.268   4.998   0.844 -0.3131  0.3299 -0.7467
 4269TIP3    H234443   6.254   4.878   0.934  2.0927  1.4719  1.2872
 4270TIP3   OH234444   1.639   1.254   7.424  0.5113 -0.3083  0.1627
 4270TIP3    H134445   1.660   1.339   7.385  2.7226 -1.3051 -1.0386
 4270TIP3    H234446   1.551   1.234   7.392 -0.2438  1.6728  0.8351
 4271TIP3   OH234447   4.926   6.644   6.879  0.4270  0.2258 -0.5804
 4271TIP3    H134448   4.983   6.628   6.803  0.0677 -1.7183 -0.4945
 4271TIP3    H234449   4.844   6.599   6.857 -0.0552  0.5312  0.5305
 4272TIP3   OH234450   0.254   2.289   7.400  0.1395 -0.1683  0.3628
 4272TIP3    H134451   0.303   2.265   7.321 -1.5431  0.7273 -1.0283
 4272TIP3    H234452   0.290   2.233   7.468 -0.4840 -3.3358 -1.6928
 4273TIP3   OH234453   5.462   0.945   7.399 -0.7957  0.2060 -0.0765
 4273TIP3    H134454   5.420   0.954   7.313 -0.5714  2.3860 -0.0097
 4273TIP3    H234455   5.391   0.952   7.462 -0.8568 -0.5849 -0.0459
 4274TIP3   OH234456   2.032   1.950   2.732 -0.4425  0.1707  0.0501
 4274TIP3    H134457   2.098   1.910   2.788 -1.3866 -0.6023  0.6495
 4274TIP3    H234458   2.081   1.987   2.659  0.8685  1.4597  1.4944
 4275TIP3   OH234459   6.272   1.477   1.339  0.5622 -0.0313  0.4841
 4275TIP3    H134460   6.318   1.407   1.293  1.2293  0.1818  0.8063
 4275TIP3    H234461   6.342   1.529   1.379  0.0054 -1.3332  3.4416
 4276TIP3   OH234462   2.360   5.914   0.253  0.0646  0.0365 -0.0816
 4276TIP3    H134463   2.365   5.928   0.159 -0.9749  0.3338 -0.1032
 4276TIP3    H234464   2.347   5.820   0.263  0.0711  0.0188 -0.2382
 4277TIP3   OH234465   2.224   2.655   7.885 -0.3579  0.2532  0.3238
 4277TIP3    H134466   2.300   2.690   7.838  0.1585  0.3483  1.2077
 4277TIP3    H234467   2.186   2.732   7.929  0.9952 -0.2738  2.5807
 4278TIP3   OH234468   4.425   0.044   2.068 -0.7537 -0.3727  0.1046
 4278TIP3    H134469   4.495   0.034   2.131 -0.7768 -1.2704 -0.0040
 4278TIP3    H234470   4.351   0.076   2.119  0.1343  2.1138 -0.0319
 4279TIP3   OH234471   1.191   6.325   7.504 -0.3590 -0.3661  0.2428
 4279TIP3    H134472   1.180   6.420   7.494 -0.7374 -0.5073 -0.7338
 4279TIP3    H234473   1.104   6.289   7.489 -0.1562 -0.8996  0.3340
 4280TIP3   OH234474   2.697   1.262   6.711  0.0406 -0.5857 -0.0269
 4280TIP3    H134475   2.721   1.337   6.765 -0.9947 -0.2486 -0.0260
 4280TIP3    H234476   2.652   1.299   6.635  0.2168 -1.1559 -0.4261
 4281TIP3   OH234477   3.706   1.963   7.159 -0.2409  0.1901  0.4954
 4281TIP3    H134478   3.795   1.948   7.130 -0.6011 -1.4389  0.1377
 4281TIP3    H234479   3.715   1.995   7.249  0.6800 -1.0929  0.8876
 4282TIP3   OH234480   5.936   0.560   2.261 -1.2675 -0.1731 -0.4685
 4282TIP3    H134481   5.995   0.616   2.210  0.8184 -3.1288 -1.6065
 4282TIP3    H234482   5.915   0.612   2.339  2.3204  1.3674 -0.3337
 4283TIP3   OH234483   3.319   0.907   1.471 -0.1348 -0.5824  0.4618
 4283TIP3    H134484   3.330   0.951   1.555  1.3836 -0.4953  0.2595
 4283TIP3    H234485   3.340   0.975   1.406 -0.0187 -0.9852  0.0724
 4284TIP3   OH234486   1.821   1.694   1.869  0.2590  0.0644  0.1751
 4284TIP3    H134487   1.872   1.750   1.810  1.6074 -0.3170  0.9272
 4284TIP3    H234488   1.785   1.755   1.934  0.6716  0.2090  0.2695
 4285TIP3   OH234489   4.377   4.866   2.508  0.0025 -0.8511 -0.1370
 4285TIP3    H134490   4.462   4.907   2.491  1.3077 -2.0302  2.7757
 4285TIP3    H234491   4.400   4.778   2.541 -2.3939 -1.5275 -0.1045
 4286TIP3   OH234492   5.973   2.811   8.991  0.9650  0.0389  0.7711
 4286TIP3    H134493   5.926   2.832   9.072  0.1791 -0.1853  0.3784
 4286TIP3    H234494   6.065   2.826   9.013  0.8940 -1.1940  2.0789
 4287TIP3   OH234495   2.848   2.125   8.509  0.6923  0.0044  0.1777
 4287TIP3    H134496   2.763   2.098   8.544  0.6075  1.4329  1.1779
 4287TIP3    H234497   2.905   2.049   8.522 -0.2147 -0.6732  0.2661
 4288TIP3   OH234498   2.615   6.672   7.820 -0.4412  0.0657 -0.2890
 4288TIP3    H134499   2.655   6.591   7.790  0.4434  1.1385 -2.1375
 4288TIP3    H234500   2.574   6.649   7.904 -0.0042 -2.1998 -0.6470
 4289TIP3   OH234501   1.984   6.425   7.574  0.7613 -0.2624  0.0614
 4289TIP3    H134502   1.948   6.490   7.513  0.0299 -0.3721  0.3710
 4289TIP3    H234503   1.959   6.340   7.536  0.7359 -0.3421  0.2572
 4290TIP3   OH234504   4.788   4.276   7.888  0.0678  0.2562 -0.0233
 4290TIP3    H134505   4.772   4.192   7.847 -0.9806  0.5046 -0.1522
 4290TIP3    H234506   4.883   4.286   7.886  0.5668 -2.3284  2.8364
 4291TIP3   OH234507   0.165   1.167   8.567 -0.1421  0.5399  0.9678
 4291TIP3    H134508   0.169   1.260   8.587 -0.1408  0.6819  0.3120
 4291TIP3    H234509   0.192   1.160   8.476  0.0052 -0.1208  1.0520
 4292TIP3   OH234510   5.903   0.519   8.167  0.2631  0.0479  0.3902
 4292TIP3    H134511   5.962   0.448   8.143  0.6297  1.4731 -3.6415
 4292TIP3    H234512   5.961   0.593   8.187  0.0042  0.9922 -2.0118
 4293TIP3   OH234513   3.542   3.419   7.848  0.4855  0.3486 -0.6847
 4293TIP3    H134514   3.589   3.455   7.773 -0.3921  0.2853 -1.2761
 4293TIP3    H234515   3.577   3.467   7.923 -0.3793  2.2152 -1.4077
 4294TIP3   OH234516   3.566   4.823   0.934  0.2114  0.0360 -0.6867
 4294TIP3    H134517   3.520   4.815   1.018  0.6555  0.8231 -0.3521
 4294TIP3    H234518   3.659   4.819   0.957  0.3326 -1.2395 -1.3261
 4295TIP3   OH234519   5.942   3.075   1.972 -0.0190  0.0876  0.4188
 4295TIP3    H134520   5.903   3.071   2.059  0.5571 -0.6712  0.6530
 4295TIP3    H234521   5.871   3.054   1.912 -0.7264  1.8082  0.5938
 4296TIP3   OH234522   6.389   2.479   6.411  0.1654 -0.1577 -0.0269
 4296TIP3    H134523   6.300   2.473   6.444  0.4812  1.0940  1.1829
 4296TIP3    H234524   6.426   2.392   6.426 -0.3688 -0.2279  0.9803
 4297TIP3   OH234525   4.604   0.437   6.787  0.0350 -0.1329 -0.0042
 4297TIP3    H134526   4.627   0.461   6.877 -0.3162  3.0140 -0.6371
 4297TIP3    H234527   4.687   0.418   6.745  0.3700  0.0448  0.5713
 4298TIP3   OH234528   2.358   1.979   7.127 -0.2878 -0.5116  0.1840
 4298TIP3    H134529   2.353   2.057   7.182  1.6083 -2.0643  2.7917
 4298TIP3    H234530   2.290   1.921   7.161 -0.5670 -0.6961 -0.6415
 4299TIP3   OH234531   2.085   5.179   0.658 -0.3867 -0.2210 -0.0031
 4299TIP3    H134532   2.146   5.222   0.718 -0.4355  0.5266 -0.4731
 4299TIP3    H234533   2.118   5.200   0.571 -1.0998 -0.1120 -0.2557
 4300TIP3   OH234534   2.880   5.769   7.498  0.2026  0.4087  0.0309
 4300TIP3    H134535   2.897   5.679   7.524 -0.4875  0.3794  0.3821
 4300TIP3    H234536   2.958   5.794   7.447  0.7239 -0.1403  0.5416
 4301TIP3   OH234537   2.345   1.674   2.340  0.5354 -0.3928  1.0003
 4301TIP3    H134538   2.284   1.716   2.400 -1.0626  0.1768 -0.8982
 4301TIP3    H234539   2.308   1.588   2.323 -0.0061  0.0804 -0.4224
 4302TIP3   OH234540   4.243   0.874   0.214 -0.1321 -0.6063 -0.8549
 4302TIP3    H134541   4.286   0.947   0.258  0.3090 -1.2170 -0.2517
 4302TIP3    H234542   4.294   0.797   0.240 -2.2884 -1.5363  0.8840
 4303TIP3   OH234543   1.460   1.976   0.898 -0.3289 -0.6013 -0.0650
 4303TIP3    H134544   1.379   1.999   0.852  0.6082  3.3197 -0.1270
 4303TIP3    H234545   1.488   1.895   0.857 -3.1410 -0.9857 -1.4868
 4304TIP3   OH234546   2.033   3.668   1.967  0.4885 -0.5096 -0.0805
 4304TIP3    H134547   2.084   3.724   2.025  0.5606  0.0074 -0.6234
 4304TIP3    H234548   2.029   3.584   2.011 -0.6322  0.2471  1.3158
 4305TIP3   OH234549   1.040   2.943   1.428  0.6388 -0.8000 -0.7256
 4305TIP3    H134550   0.988   3.018   1.400  0.5360  0.2216  1.9321
 4305TIP3    H234551   0.982   2.892   1.484  1.4762 -1.4932 -0.4569
 4306TIP3   OH234552   6.266   0.346   7.723 -0.0498 -0.2063  0.7149
 4306TIP3    H134553   6.294   0.417   7.665 -2.6529  0.2411 -0.1267
 4306TIP3    H234554   6.315   0.269   7.693  3.0448  1.1591  1.8210
 4307TIP3   OH234555   3.976   1.046   8.617  0.5449  0.0523  0.3006
 4307TIP3    H134556   3.896   1.068   8.570  0.8833 -0.8529 -0.7437
 4307TIP3    H234557   3.991   1.120   8.676 -0.8591  0.3957  0.2573
 4308TIP3   OH234558   3.029   6.427   8.807 -0.2618 -0.0872 -0.0514
 4308TIP3    H134559   2.995   6.390   8.726 -2.0726 -1.4481  1.2267
 4308TIP3    H234560   3.094   6.363   8.838 -2.2834 -1.5833  1.3801
 4309TIP3   OH234561   0.836   6.401   0.831 -0.0053  0.2082 -0.0896
 4309TIP3    H134562   0.761   6.348   0.804  1.4796 -1.3203 -1.4765
 4309TIP3    H234563   0.844   6.467   0.762  1.0607 -0.8789 -1.0638
 4310TIP3   OH234564   0.135   6.570   8.014 -0.0619 -0.0901 -0.2197
 4310TIP3    H134565   0.167   6.498   7.959 -0.6770  1.0606 -2.1971
 4310TIP3    H234566   0.214   6.609   8.051  0.7700  1.2875 -3.1916
 4311TIP3   OH234567   0.992   1.835   1.047 -0.3251  0.9438  0.5689
 4311TIP3    H134568   0.986   1.762   1.109  0.7037 -0.0579 -0.4624
 4311TIP3    H234569   1.002   1.912   1.103  1.1710  0.0031  1.6837
 4312TIP3   OH234570   3.852   4.512   9.011 -0.4385  0.6435  0.0340
 4312TIP3    H134571   3.858   4.476   9.099  0.8689  0.6417 -0.0374
 4312TIP3    H234572   3.854   4.607   9.024  0.8916  0.6404 -0.0411
 4313TIP3   OH234573   4.946   0.666   1.384 -0.3490 -0.2033  0.1270
 4313TIP3    H134574   4.948   0.654   1.289  0.7244  1.5551 -0.1194
 4313TIP3    H234575   5.013   0.607   1.418 -1.1808 -1.3231 -0.0989
 4314TIP3   OH234576   4.472   1.531   0.583 -0.4342  0.5075 -0.1279
 4314TIP3    H134577   4.453   1.548   0.491 -1.5350  1.5340  0.2689
 4314TIP3    H234578   4.387   1.517   0.623  0.1628 -2.8023  0.2534
 4315TIP3   OH234579   2.243   3.875   0.147  0.0140  0.3201 -0.6322
 4315TIP3    H134580   2.307   3.849   0.081  2.3320  0.2420  1.5239
 4315TIP3    H234581   2.259   3.816   0.221 -1.7560  1.1139  0.4591
 4316TIP3   OH234582   1.781   3.430   0.153  0.2847 -0.5429 -0.1826
 4316TIP3    H134583   1.710   3.488   0.182  0.4199  0.2093 -1.2837
 4316TIP3    H234584   1.762   3.346   0.194 -1.5126 -0.4816 -0.8159
 4317TIP3   OH234585   1.042   6.252   8.760 -0.2749  0.3761  1.0302
 4317TIP3    H134586   0.949   6.255   8.741 -0.5616 -1.1937  2.0086
 4317TIP3    H234587   1.077   6.187   8.699 -0.1124 -0.2228  1.7599
 4318TIP3   OH234588   6.344   0.337   0.938  0.1019  0.3353 -0.2200
 4318TIP3    H134589   6.326   0.275   0.867  2.4251 -1.3155  0.5051
 4318TIP3    H234590   6.292   0.304   1.012  0.1651  0.1563 -0.2557
 4319TIP3   OH234591   1.754   1.217   7.788 -0.0957  0.2162  0.1526
 4319TIP3    H134592   1.709   1.301   7.785  1.1875  0.9680  1.1256
 4319TIP3    H234593   1.707   1.167   7.855 -0.6172  0.2853 -0.1529
 4320TIP3   OH234594   2.162   4.439   7.124 -0.1236 -0.1906  0.2478
 4320TIP3    H134595   2.164   4.346   7.102 -0.3223 -0.3372  0.8278
 4320TIP3    H234596   2.149   4.483   7.041 -1.0207 -0.7366  0.0818
 4321TIP3   OH234597   2.487   6.077   8.231 -0.0567  0.2066 -0.3971
 4321TIP3    H134598   2.493   6.115   8.144 -0.0111 -2.3034 -1.5702
 4321TIP3    H234599   2.393   6.064   8.246  0.0026 -0.4776 -0.5995
 4322TIP3   OH234600   1.995   2.747   0.300 -0.4609 -0.1826 -0.2637
 4322TIP3    H134601   2.026   2.671   0.350 -1.2108  0.0592  0.6060
 4322TIP3    H234602   1.960   2.806   0.367  0.5063  1.1231 -0.8875
 4323TIP3   OH234603   2.629   2.855   0.880  0.7084  0.2388 -0.0136
 4323TIP3    H134604   2.710   2.862   0.931  0.1961 -1.0584  1.0380
 4323TIP3    H234605   2.619   2.762   0.864 -1.1214  0.2413  0.8257
 4324TIP3   OH234606   0.357   2.322   0.852  0.3471 -0.6725  0.5116
 4324TIP3    H134607   0.420   2.383   0.813  0.3587 -0.7679  0.3785
 4324TIP3    H234608   0.315   2.372   0.921  0.1350 -0.4158  0.2005
 4325TIP3   OH234609   3.278   3.380   2.156 -0.1080 -0.4240  0.0058
 4325TIP3    H134610   3.240   3.465   2.177  1.3536  0.3536 -0.3227
 4325TIP3    H234611   3.252   3.324   2.229 -0.0901  0.6336  0.8655
 4326TIP3   OH234612   0.028   5.082   2.085 -0.6770  0.1009 -0.2334
 4326TIP3    H134613   0.073   5.000   2.067 -0.9016 -0.0246 -0.2256
 4326TIP3    H234614  -0.045   5.058   2.142 -0.5518  0.3516  0.0384
 4327TIP3   OH234615   2.159   0.244   0.450  0.6005 -0.6751  0.3938
 4327TIP3    H134616   2.253   0.235   0.468  0.9852  0.4667 -0.8201
 4327TIP3    H234617   2.156   0.300   0.372 -1.1593  1.1463  1.6756
 4328TIP3   OH234618   4.224   0.985   8.515  0.0976 -0.6940 -0.3211
 4328TIP3    H134619   4.179   0.901   8.521 -0.1009 -0.7937 -2.4886
 4328TIP3    H234620   4.162   1.048   8.552 -0.8339 -1.1773 -1.0030
 4329TIP3   OH234621   0.577   1.596   6.956 -0.5550  0.0983 -0.0148
 4329TIP3    H134622   0.537   1.670   6.910 -1.4524 -1.1755 -1.3742
 4329TIP3    H234623   0.508   1.530   6.960  0.7669 -1.3833 -0.5270
 4330TIP3   OH234624   4.955   1.812   0.320  0.2898  0.0733 -0.1298
 4330TIP3    H134625   5.032   1.869   0.324 -0.2497  0.8804 -0.8567
 4330TIP3    H234626   4.986   1.728   0.352  1.1492  0.7291  0.8137
 4331TIP3   OH234627   5.305   4.361   8.061  0.8890 -0.8524 -0.2703
 4331TIP3    H134628   5.369   4.302   8.021  0.4252 -0.9123 -0.9312
 4331TIP3    H234629   5.286   4.321   8.146  1.0054 -1.3464 -0.4732
 4332TIP3   OH234630   3.624   5.772   0.886  1.1458  0.9064 -0.0332
 4332TIP3    H134631   3.714   5.784   0.857  0.8081 -0.3084 -1.7138
 4332TIP3    H234632   3.611   5.678   0.884 -0.5513  1.1303 -1.1013
 4333TIP3   OH234633   2.979   6.695   1.758  0.5185  0.1195  0.6306
 4333TIP3    H134634   3.006   6.620   1.812  2.3174 -1.0035 -1.6542
 4333TIP3    H234635   2.888   6.677   1.737  1.0837 -1.8699 -0.4232
 4334TIP3   OH234636   0.263   3.252   6.699  0.3990  0.3563  0.6271
 4334TIP3    H134637   0.334   3.214   6.750  1.3691  1.8267  0.4296
 4334TIP3    H234638   0.183   3.226   6.745  1.0841 -0.8253  1.1857
 4335TIP3   OH234639   4.773   5.797   8.334  0.4014  0.1546 -0.3234
 4335TIP3    H134640   4.708   5.729   8.319  1.1646 -1.1184  1.7660
 4335TIP3    H234641   4.856   5.758   8.309  0.6805  0.8546 -0.5308
 4336TIP3   OH234642   5.746   3.954   2.215 -0.2365  0.5174 -0.2790
 4336TIP3    H134643   5.836   3.985   2.222  0.8955 -2.5846  0.7164
 4336TIP3    H234644   5.749   3.889   2.145 -1.8256  0.6414 -0.5041
 4337TIP3   OH234645   2.884   2.751   0.205  0.1300 -0.2678 -0.1897
 4337TIP3    H134646   2.938   2.813   0.156 -2.2026  1.0717 -1.1985
 4337TIP3    H234647   2.864   2.682   0.142  1.8581 -1.5865  0.6331
 4338TIP3   OH234648   5.110   1.052   7.309  0.5162  0.2319 -0.1229
 4338TIP3    H134649   5.069   1.122   7.361 -2.7587 -0.8616 -0.9747
 4338TIP3    H234650   5.094   0.973   7.361  0.1165 -0.4389 -1.2499
 4339TIP3   OH234651   5.353   2.077   0.922 -0.1488  0.9494  0.3248
 4339TIP3    H134652   5.413   2.045   0.854 -3.5654 -1.7878 -1.7204
 4339TIP3    H234653   5.283   2.122   0.874 -2.3383 -0.4596  2.0052
 4340TIP3   OH234654   1.660   5.267   8.515  0.3214  0.2050  0.1009
 4340TIP3    H134655   1.564   5.261   8.520  0.2223  0.2907 -1.4674
 4340TIP3    H234656   1.685   5.311   8.597 -0.9189 -0.3192  0.7848
 4341TIP3   OH234657   6.146   5.373   7.762 -0.4295  0.1227 -0.4168
 4341TIP3    H134658   6.229   5.365   7.715 -0.4520 -0.9259 -0.3083
 4341TIP3    H234659   6.170   5.404   7.849  0.0290 -1.5908  0.1019
 4342TIP3   OH234660   5.357   5.094   0.494 -0.6456  0.2672  0.1842
 4342TIP3    H134661   5.395   5.016   0.534  0.0502  0.4001 -0.2067
 4342TIP3    H234662   5.311   5.138   0.565  0.2362  0.2876  0.7510
 4343TIP3   OH234663   4.244   5.968   1.278  0.7284  0.0641  0.3600
 4343TIP3    H134664   4.213   5.952   1.368  0.2058 -0.5358  0.0783
 4343TIP3    H234665   4.244   6.064   1.270  1.5398  0.1513  1.2592
 4344TIP3   OH234666   2.888   3.644   6.871 -0.1669  0.0316  0.2505
 4344TIP3    H134667   2.830   3.714   6.901 -0.8460  0.4947 -1.9867
 4344TIP3    H234668   2.856   3.565   6.915  0.1470  0.9455  2.2321
 4345TIP3   OH234669   5.686   5.345   7.430 -0.2959 -0.2318  0.0845
 4345TIP3    H134670   5.666   5.256   7.402  2.7094 -0.8587 -0.4707
 4345TIP3    H234671   5.757   5.335   7.494  2.1381  1.7383 -2.0236
 4346TIP3   OH234672   4.578   2.021   8.600  0.6685 -0.3643 -0.0828
 4346TIP3    H134673   4.489   2.021   8.635 -0.0179 -0.1021 -1.7124
 4346TIP3    H234674   4.625   2.084   8.654 -0.8536  1.4751 -0.7723
 4347TIP3   OH234675   0.779   2.071   8.013 -0.5121  0.2139 -0.6916
 4347TIP3    H134676   0.816   2.132   7.950 -2.7906  1.6855 -0.7317
 4347TIP3    H234677   0.793   1.985   7.974  2.3403  0.6546 -0.8674
 4348TIP3   OH234678   4.442   5.202   0.239 -0.2552  0.0832 -0.0051
 4348TIP3    H134679   4.437   5.205   0.144  0.4253 -0.1222 -0.0505
 4348TIP3    H234680   4.456   5.110   0.260 -1.4753 -0.0449  0.3632
 4349TIP3   OH234681   4.959   2.754   8.485  0.5390  0.1189 -0.3014
 4349TIP3    H134682   5.014   2.677   8.477  2.4381  1.3373  0.2626
 4349TIP3    H234683   4.891   2.742   8.419 -0.1481 -2.7052  0.7980
 4350TIP3   OH234684   5.494   2.354   0.756  0.4549  0.3143  0.4398
 4350TIP3    H134685   5.534   2.342   0.843 -2.1976 -0.3531  1.6778
 4350TIP3    H234686   5.527   2.281   0.704  1.8319  0.5356  0.9645
 4351TIP3   OH234687   0.281   6.250   1.791  0.1544  0.2012 -0.4584
 4351TIP3    H134688   0.235   6.212   1.866  0.6183  0.6007  0.0340
 4351TIP3    H234689   0.241   6.208   1.715 -0.6142  0.1036 -0.0122
 4352TIP3   OH234690   3.409   2.820   0.339  0.0403  0.0791 -0.2830
 4352TIP3    H134691   3.456   2.903   0.326  1.2430 -0.5344  0.0532
 4352TIP3    H234692   3.387   2.820   0.432  1.9892 -0.9407  0.2317
 4353TIP3   OH234693   3.387   1.335   0.917  0.1968 -0.2966  0.1120
 4353TIP3    H134694   3.470   1.344   0.963 -0.1222 -0.9028  0.8189
 4353TIP3    H234695   3.366   1.424   0.888  2.8855 -0.5801 -3.3202
 4354TIP3   OH234696   2.323   1.030   2.107  0.3560 -0.4108 -0.0156
 4354TIP3    H134697   2.372   1.098   2.060  1.4387  0.2473  1.9593
 4354TIP3    H234698   2.381   0.954   2.107  0.9901  0.0370  1.4094
 4355TIP3   OH234699   1.629   3.140   8.222 -0.3297  0.2920  0.0105
 4355TIP3    H134700   1.673   3.118   8.304  0.2293 -0.3354 -0.4441
 4355TIP3    H234701   1.602   3.231   8.233 -2.2558 -0.4011  1.7547
 4356TIP3   OH234702   3.807   4.616   1.747 -0.9651  0.0203  0.3003
 4356TIP3    H134703   3.832   4.652   1.661  1.4323 -1.4560  0.3025
 4356TIP3    H234704   3.811   4.691   1.806  0.0109  0.5552 -0.4098
 4357TIP3   OH234705   5.586   1.316   1.619 -0.4221 -0.0464 -0.2334
 4357TIP3    H134706   5.615   1.401   1.585 -0.5117 -0.5863 -1.7445
 4357TIP3    H234707   5.640   1.252   1.574 -0.7638 -0.8321  0.4438
 4358TIP3   OH234708   1.462   5.292   8.203  0.1608 -0.5149  0.1460
 4358TIP3    H134709   1.541   5.250   8.170 -0.5387 -0.9886 -1.0104
 4358TIP3    H234710   1.406   5.302   8.125  0.0134  1.9332  0.4825
 4359TIP3   OH234711   4.035   4.773   1.510  0.8000  0.7947 -0.0416
 4359TIP3    H134712   4.119   4.807   1.479  0.4322  1.4806 -0.3170
 4359TIP3    H234713   4.012   4.705   1.447  1.4077  0.2190  0.3501
 4360TIP3   OH234714   0.072   3.106   0.567  0.0943  0.3165  0.1241
 4360TIP3    H134715   0.019   3.103   0.647 -0.6989  2.3041 -0.2609
 4360TIP3    H234716   0.136   3.175   0.584 -1.2176  2.0463 -1.5522
 4361TIP3   OH234717   3.839   4.533   6.738  0.0071 -0.1397  0.0958
 4361TIP3    H134718   3.927   4.558   6.710  0.0098  2.0689  1.7989
 4361TIP3    H234719   3.851   4.454   6.791  1.0045  0.2421  0.4558
 4362TIP3   OH234720   1.313   4.236   7.334  0.7609  0.3390  0.0085
 4362TIP3    H134721   1.255   4.301   7.294  0.8404 -1.2449 -2.9056
 4362TIP3    H234722   1.323   4.266   7.425 -1.1397  3.0024 -0.5437
 4363TIP3   OH234723   2.070   0.840   0.321  0.5686  0.5291  0.0319
 4363TIP3    H134724   2.121   0.868   0.245  0.9628 -2.2178 -0.8252
 4363TIP3    H234725   2.030   0.921   0.354  1.1582  1.9627 -2.4969
 4364TIP3   OH234726   3.314   6.128   7.481 -0.2098 -0.7972  0.4742
 4364TIP3    H134727   3.410   6.125   7.476 -0.0892  1.0932  0.8014
 4364TIP3    H234728   3.293   6.068   7.553  0.7272 -1.2072  0.4314
 4365TIP3   OH234729   3.712   6.319   6.687  0.0532 -0.0255 -0.2539
 4365TIP3    H134730   3.646   6.312   6.756 -2.6674 -0.9289 -2.7965
 4365TIP3    H234731   3.731   6.413   6.682 -0.2242  0.1402  1.1856
 4366TIP3   OH234732   5.283   1.843   7.093 -0.8252  0.0831  0.1659
 4366TIP3    H134733   5.207   1.785   7.091 -0.9259  0.2305 -0.4063
 4366TIP3    H234734   5.256   1.921   7.043 -0.1010 -0.1209 -0.5756
 4367TIP3   OH234735   2.679   1.179   2.301  0.5637 -0.4498  0.5433
 4367TIP3    H134736   2.714   1.254   2.350 -0.4279  1.2411 -1.1682
 4367TIP3    H234737   2.584   1.195   2.299  0.5582 -0.3821 -1.8764
 4368TIP3   OH234738   0.260   4.543   7.807  0.6058  0.3678  0.3791
 4368TIP3    H134739   0.298   4.470   7.759  1.2500  0.3238  0.9416
 4368TIP3    H234740   0.251   4.510   7.897 -0.8810  0.3342  0.2448
 4369TIP3   OH234741   3.332   5.576   6.893  0.3417 -0.0597  0.0834
 4369TIP3    H134742   3.296   5.515   6.828  2.4678 -0.2014 -1.0521
 4369TIP3    H234743   3.281   5.559   6.972  1.2445 -3.8699  0.0332
 4370TIP3   OH234744   5.062   0.158   7.719  0.1599  0.5313 -0.3932
 4370TIP3    H134745   5.075   0.075   7.765  0.5388  1.1185  0.6044
 4370TIP3    H234746   5.040   0.220   7.789  0.6520  1.4308 -1.0160
 4371TIP3   OH234747   0.523   2.994   0.229 -0.4574 -0.3183  0.2533
 4371TIP3    H134748   0.489   2.937   0.160  0.2584  0.2037 -0.5525
 4371TIP3    H234749   0.447   3.012   0.285 -0.9749 -1.0109 -0.2074
 4372TIP3   OH234750   3.585   0.540   7.188  0.0898 -0.7749  0.2813
 4372TIP3    H134751   3.659   0.496   7.146  0.2243 -1.6285  1.3862
 4372TIP3    H234752   3.541   0.472   7.238 -2.2815 -0.6211 -1.3825
 4373TIP3   OH234753   1.221   6.473   7.990 -0.9136  0.0705 -0.5029
 4373TIP3    H134754   1.217   6.416   7.913 -1.6419  0.3670 -0.6987
 4373TIP3    H234755   1.314   6.483   8.008 -0.7669 -1.6250 -0.1229
 4374TIP3   OH234756   2.114   2.619   0.587  0.0262  0.1048  0.5279
 4374TIP3    H134757   2.118   2.573   0.670  0.4862  0.6690  0.8321
 4374TIP3    H234758   2.034   2.671   0.591 -1.5305 -2.0600 -0.5954
 4375TIP3   OH234759   6.069   2.799   2.025  0.0812 -0.2583 -0.0152
 4375TIP3    H134760   5.978   2.816   2.002 -0.5107 -1.2975  1.3719
 4375TIP3    H234761   6.118   2.871   1.985 -1.2116 -0.2036 -1.5968
 4376TIP3   OH234762   3.208   1.089   8.984  0.2764  0.7543  0.5261
 4376TIP3    H134763   3.214   1.168   9.038  1.7046 -0.3174  2.0458
 4376TIP3    H234764   3.292   1.087   8.937 -0.2907  0.8117 -0.5028
 4377TIP3   OH234765   5.359   0.953   1.724 -0.5173  0.5476 -0.1448
 4377TIP3    H134766   5.303   0.984   1.795  0.1370  0.7057  0.3093
 4377TIP3    H234767   5.298   0.915   1.661 -1.3240  2.4633 -0.5817
 4378TIP3   OH234768   3.100   5.681   6.619  0.1381  0.1253 -0.1951
 4378TIP3    H134769   3.171   5.745   6.623 -0.5847  1.1890 -2.7091
 4378TIP3    H234770   3.140   5.599   6.647  1.4299  1.3476  1.8009
 4379TIP3   OH234771   1.228   0.397   6.960  0.1901 -0.5740  0.2392
 4379TIP3    H134772   1.295   0.361   6.903  1.2098  1.5795 -0.0345
 4379TIP3    H234773   1.221   0.334   7.032  2.1846 -1.0822  0.0482
 4380TIP3   OH234774   2.882   1.801   0.027 -0.1946  0.2222  0.0309
 4380TIP3    H134775   2.789   1.803   0.047 -0.8897 -1.0727 -2.6210
 4380TIP3    H234776   2.888   1.832  -0.063  1.6204 -1.9388 -0.6992
 4381TIP3   OH234777   2.489   3.419   8.456 -0.8317  0.2486  0.5185
 4381TIP3    H134778   2.582   3.396   8.455 -1.1330 -1.2094  1.7964
 4381TIP3    H234779   2.477   3.476   8.380  0.5211 -1.8399 -1.3619
 4382TIP3   OH234780   5.725   4.302   7.688  0.2799  0.2256 -0.8397
 4382TIP3    H134781   5.678   4.297   7.605 -0.2345 -1.0141 -0.4933
 4382TIP3    H234782   5.800   4.244   7.677  1.9203  2.3183 -1.4500
 4383TIP3   OH234783   6.322   1.219   8.185 -0.1420  0.1752 -0.7082
 4383TIP3    H134784   6.327   1.259   8.272  0.9543 -0.1262 -0.6147
 4383TIP3    H234785   6.325   1.125   8.201  0.6412  0.1250 -1.0868
 4384TIP3   OH234786   0.228   0.870   7.821  0.6908  0.1589  1.4775
 4384TIP3    H134787   0.177   0.801   7.864  2.0113  0.1772  3.1885
 4384TIP3    H234788   0.303   0.823   7.783 -0.0412  0.2601 -0.1952
 4385TIP3   OH234789   1.471   2.650   8.334 -0.0548  0.1980 -0.0098
 4385TIP3    H134790   1.473   2.731   8.281  1.3997 -0.7891 -1.5904
 4385TIP3    H234791   1.491   2.581   8.271 -0.9295 -1.3759  1.3799
 4386TIP3   OH234792   6.491   3.984   0.833  0.2375 -0.0224 -0.7815
 4386TIP3    H134793   6.572   3.933   0.830  0.0329 -0.4150  0.1196
 4386TIP3    H234794   6.505   4.048   0.902 -0.8769 -1.2832  0.6852
 4387TIP3   OH234795   2.487   0.177   7.885  0.1633 -0.2402 -0.3074
 4387TIP3    H134796   2.567   0.224   7.910  0.3395 -0.7483  0.1106
 4387TIP3    H234797   2.491   0.095   7.935 -2.4135  1.2145  2.6525
 4388TIP3   OH234798   2.722   6.477   2.034  0.2095  0.2270  0.3463
 4388TIP3    H134799   2.743   6.536   2.107 -0.2571  0.3535  0.3793
 4388TIP3    H234800   2.652   6.421   2.067 -2.1093  2.1841 -0.8937
 4389TIP3   OH234801   2.234   1.998   0.802  1.0514 -0.0176 -0.2195
 4389TIP3    H134802   2.270   1.910   0.812 -0.2797 -0.5490  0.0553
 4389TIP3    H234803   2.191   2.017   0.885 -0.8223 -0.1412 -1.1017
 4390TIP3   OH234804   4.434   6.589   8.767  0.4437  0.0966 -0.2799
 4390TIP3    H134805   4.502   6.610   8.831  1.5679  0.2214 -1.4632
 4390TIP3    H234806   4.374   6.663   8.770  0.6679  0.2635  0.3680
 4391TIP3   OH234807   5.219   3.858   1.832  0.2287  0.2574  0.6450
 4391TIP3    H134808   5.289   3.914   1.864  1.3921 -0.6951 -0.1662
 4391TIP3    H234809   5.205   3.794   1.902 -0.6450  1.1109  1.2865
 4392TIP3   OH234810   3.783   2.881   8.411  0.4834  0.5353  0.5374
 4392TIP3    H134811   3.836   2.805   8.386 -1.5962 -1.1948  1.0724
 4392TIP3    H234812   3.771   2.872   8.506  1.6795  2.5788  0.9380
 4393TIP3   OH234813   5.188   2.353   8.301 -0.1036  0.0820  0.0031
 4393TIP3    H134814   5.200   2.357   8.206  1.2949 -0.4730  0.1297
 4393TIP3    H234815   5.251   2.415   8.337 -0.9555  0.6443  0.5678
 4394TIP3   OH234816   1.337   3.091   1.995  0.1502 -0.4534 -0.1608
 4394TIP3    H134817   1.398   3.028   2.034  1.0574 -0.2213 -1.1542
 4394TIP3    H234818   1.336   3.165   2.056  0.7370 -0.5363 -0.0488
 4395TIP3   OH234819   4.467   3.936   1.853  0.2357 -0.3344  0.6018
 4395TIP3    H134820   4.376   3.962   1.836  0.1017 -0.7952  0.5994
 4395TIP3    H234821   4.489   3.878   1.780  0.5571 -0.1672  0.5632
 4396TIP3   OH234822   0.045   3.718   0.291  0.1523 -0.0086 -0.3523
 4396TIP3    H134823  -0.004   3.799   0.277 -0.6200 -0.3109  0.4799
 4396TIP3    H234824   0.088   3.701   0.207  0.0936  1.1019 -0.6233
 4397TIP3   OH234825   4.309   5.895   0.690 -0.0135  0.2851  0.4472
 4397TIP3    H134826   4.381   5.861   0.743  1.7712  0.6841 -1.6004
 4397TIP3    H234827   4.239   5.830   0.700  2.5037 -3.0407 -1.6551
 4398TIP3   OH234828   0.941   4.832   2.474 -0.5088  0.5189 -0.7013
 4398TIP3    H134829   0.919   4.883   2.553 -2.0463 -0.1493 -0.6818
 4398TIP3    H234830   0.863   4.836   2.420  0.2986  0.3838 -1.9148
 4399TIP3   OH234831   3.336   4.557   0.551 -0.3777 -0.1848 -0.2975
 4399TIP3    H134832   3.335   4.575   0.645  1.0427  0.4453 -0.3767
 4399TIP3    H234833   3.270   4.616   0.515 -2.1655 -1.6226  0.4508
 4400TIP3   OH234834   2.820   1.194   1.908 -0.2734 -0.4172  0.1755
 4400TIP3    H134835   2.729   1.194   1.936 -0.1649 -0.2153  0.5303
 4400TIP3    H234836   2.829   1.273   1.854 -0.0005  0.2474  1.1661
 4401TIP3   OH234837   5.229   0.187   1.494  0.2933 -0.2692  0.4913
 4401TIP3    H134838   5.288   0.162   1.423 -0.3523  0.7927 -0.4355
 4401TIP3    H234839   5.264   0.141   1.571  2.6060  0.6852  0.0835
 4402TIP3   OH234840   3.424   5.715   0.604  0.7155  0.3238  0.6004
 4402TIP3    H134841   3.356   5.714   0.537  0.3433  0.5779  0.9673
 4402TIP3    H234842   3.472   5.633   0.591  1.0569  0.6683 -0.3860
 4403TIP3   OH234843   2.095   0.197   8.179  0.1560  0.1853  0.1679
 4403TIP3    H134844   2.019   0.256   8.174 -0.9685 -1.2309 -0.1049
 4403TIP3    H234845   2.134   0.202   8.092 -0.2985  0.0836 -0.0483
 4404TIP3   OH234846   2.224   4.644   1.340  0.0018 -0.4911 -0.1389
 4404TIP3    H134847   2.228   4.605   1.253  3.6803  0.3223 -0.4950
 4404TIP3    H234848   2.189   4.732   1.325 -0.8736 -0.8839 -0.5028
 4405TIP3   OH234849   0.506   5.578   0.654 -0.2926 -0.5840 -0.1829
 4405TIP3    H134850   0.412   5.591   0.643 -0.4386  0.1746  1.7073
 4405TIP3    H234851   0.532   5.640   0.722  1.8194  0.0904 -1.4894
 4406TIP3   OH234852   2.973   0.489   0.267  0.4775 -0.7262  0.5291
 4406TIP3    H134853   2.893   0.541   0.264  0.7805 -0.0755  2.4873
 4406TIP3    H234854   3.028   0.532   0.333  3.4063  0.1446 -2.1931
 4407TIP3   OH234855   5.995   6.571   6.965  0.2859 -0.2264  0.1229
 4407TIP3    H134856   5.965   6.660   6.947 -2.1284 -0.6105  1.7793
 4407TIP3    H234857   6.086   6.582   6.993 -0.5174  2.0387  2.2909
 4408TIP3   OH234858   2.996   4.428   7.156  0.2476  0.1835  0.1048
 4408TIP3    H134859   2.948   4.369   7.214 -0.5046 -0.7927 -1.4401
 4408TIP3    H234860   2.928   4.474   7.107  0.8660  0.3799 -0.5894
 4409TIP3   OH234861   6.016   3.495   2.203  0.0906  0.2142  0.8688
 4409TIP3    H134862   5.963   3.415   2.203  0.6274 -0.2014 -1.2404
 4409TIP3    H234863   6.080   3.481   2.273 -0.3209 -0.8614  1.0613
 4410TIP3   OH234864   3.051   2.064   1.434  0.5292 -0.1924 -0.1979
 4410TIP3    H134865   3.013   2.144   1.471 -1.3022 -1.2258  0.2594
 4410TIP3    H234866   3.143   2.067   1.459  0.0031  0.6670  1.7790
 4411TIP3   OH234867   2.877   2.385   8.586 -0.8143  0.0290 -0.5024
 4411TIP3    H134868   2.951   2.406   8.528 -1.0005 -0.7695 -1.0421
 4411TIP3    H234869   2.849   2.298   8.558 -0.9590 -0.3365  0.7502
 4412TIP3   OH234870   5.857   2.900   2.852  0.5149  0.6367 -0.2896
 4412TIP3    H134871   5.786   2.919   2.913  2.3313  1.8265  1.5687
 4412TIP3    H234872   5.897   2.985   2.833  1.2334  0.0488 -1.6006
 4413TIP3   OH234873   4.702   6.433   8.347 -0.1545  0.2939 -0.6005
 4413TIP3    H134874   4.649   6.438   8.426 -0.3017  2.7281 -0.7581
 4413TIP3    H234875   4.759   6.511   8.351 -0.4020  0.6936 -3.0096
 4414TIP3   OH234876   4.620   2.210   8.362 -0.8310  0.2479 -0.4124
 4414TIP3    H134877   4.607   2.159   8.442 -0.9251  1.5593  0.4566
 4414TIP3    H234878   4.641   2.298   8.394 -1.0279  0.8368 -1.8410
 4415TIP3   OH234879   3.346   5.585   2.215 -0.6844  0.3899 -0.2008
 4415TIP3    H134880   3.326   5.678   2.228  1.2437  1.3091 -2.9988
 4415TIP3    H234881   3.264   5.547   2.182 -0.7872  1.7218 -1.5752
 4416TIP3   OH234882   5.248   4.075   0.092 -0.4972 -0.2159  0.3551
 4416TIP3    H134883   5.205   4.123   0.021 -0.2609 -0.9682 -0.3017
 4416TIP3    H234884   5.329   4.123   0.108  0.4299 -1.1706 -1.2674
 4417TIP3   OH234885   2.722   2.331   1.354  0.3033  0.5261  0.6583
 4417TIP3    H134886   2.681   2.374   1.279 -2.0016 -1.4118  0.7045
 4417TIP3    H234887   2.798   2.286   1.317 -0.2898  0.3263 -0.3461
 4418TIP3   OH234888   6.004   6.002   8.969  0.4289  0.5162 -0.3079
 4418TIP3    H134889   6.015   5.939   9.040  2.5923  1.2774  0.1289
 4418TIP3    H234890   6.007   5.950   8.889 -0.3502 -0.1771  0.1032
 4419TIP3   OH234891   2.402   3.901   8.293  0.2697  0.2174 -0.8705
 4419TIP3    H134892   2.406   3.993   8.267 -2.5440  0.6512 -0.0957
 4419TIP3    H234893   2.382   3.904   8.387  1.2501 -1.2286 -0.5860
 4420TIP3   OH234894   2.978   5.827   6.433 -0.1273 -0.5201  0.4456
 4420TIP3    H134895   3.044   5.894   6.416 -2.0083  1.3408  0.0634
 4420TIP3    H234896   3.015   5.774   6.504  0.1808  2.9524  3.1552
 4421TIP3   OH234897   3.181   5.041   8.409  0.3441 -1.1435 -0.2010
 4421TIP3    H134898   3.158   4.953   8.437 -2.8527  0.0575  1.5502
 4421TIP3    H234899   3.108   5.069   8.354  1.2846  0.3887 -0.7406
 4422TIP3   OH234900   5.138   1.660   6.716  0.5753  0.1079  0.2593
 4422TIP3    H134901   5.118   1.603   6.642  1.6187  2.9105 -2.4004
 4422TIP3    H234902   5.234   1.661   6.720  0.5455 -0.0578  1.7720
 4423TIP3   OH234903   2.256   5.645   0.736 -0.5304 -0.1964  0.2862
 4423TIP3    H134904   2.302   5.728   0.749  0.1658 -0.3143 -1.2369
 4423TIP3    H234905   2.231   5.645   0.644  0.8522 -2.3140 -0.1779
 4424TIP3   OH234906   3.162   1.470   8.650 -0.3770 -0.1488 -0.5507
 4424TIP3    H134907   3.215   1.408   8.601  2.4263  2.2928 -0.8714
 4424TIP3    H234908   3.134   1.535   8.586 -0.7839  0.4876  0.2456
 4425TIP3   OH234909   5.525   6.522   7.623  0.3874 -0.3738  0.6051
 4425TIP3    H134910   5.513   6.428   7.636  1.6128 -0.8414 -1.1760
 4425TIP3    H234911   5.614   6.539   7.655  0.4061  0.0421  0.3403
 4426TIP3   OH234912   6.284   5.600   0.253  0.6793 -0.4494 -0.6434
 4426TIP3    H134913   6.283   5.593   0.157 -1.2514 -0.9352 -0.6179
 4426TIP3    H234914   6.199   5.567   0.280  0.8458  0.5370  1.1998
 4427TIP3   OH234915   3.477   2.589   8.693 -0.3119 -0.1303  0.2546
 4427TIP3    H134916   3.420   2.652   8.650 -0.2480 -0.2442  0.0034
 4427TIP3    H234917   3.559   2.637   8.707 -0.2892 -0.1328  0.1324
 4428TIP3   OH234918   5.952   4.160   1.021 -0.4873 -0.1233  0.1490
 4428TIP3    H134919   5.868   4.189   0.986  0.0051  1.3380  0.0900
 4428TIP3    H234920   6.002   4.134   0.944  0.6615  3.2642 -0.4385
 4429TIP3   OH234921   5.512   1.881   6.676 -0.0462 -0.6366 -0.0200
 4429TIP3    H134922   5.602   1.904   6.657 -0.8029  1.6437 -1.2480
 4429TIP3    H234923   5.473   1.962   6.710 -1.9005 -1.2448 -0.5725
 4430TIP3   OH234924   2.427   4.588   2.011  0.8042  0.8051  0.0244
 4430TIP3    H134925   2.422   4.493   2.021 -0.1700  0.3615 -3.2738
 4430TIP3    H234926   2.385   4.623   2.089 -1.4679 -1.6131  0.0296
 4431TIP3   OH234927   3.846   4.886   2.632 -0.1647 -0.5629 -0.1835
 4431TIP3    H134928   3.831   4.980   2.629 -1.2888 -0.5853  2.0779
 4431TIP3    H234929   3.928   4.872   2.586 -0.6219  1.3405 -1.6759
 4432TIP3   OH234930   5.313   2.320   2.590  0.1973 -0.2453  0.0208
 4432TIP3    H134931   5.236   2.340   2.536  0.5552  0.5807 -0.1945
 4432TIP3    H234932   5.293   2.235   2.629 -0.3450 -0.5637 -0.9100
 4433TIP3   OH234933   4.305   2.772   1.638 -0.0569 -0.4453 -0.0244
 4433TIP3    H134934   4.273   2.719   1.566 -0.8962 -0.3157  0.2429
 4433TIP3    H234935   4.399   2.755   1.640  0.1295  0.1756 -1.6694
 4434TIP3   OH234936   1.704   1.889   2.030  0.3005  0.3645  0.2625
 4434TIP3    H134937   1.623   1.941   2.027 -0.3886 -0.6947 -0.1664
 4434TIP3    H234938   1.769   1.948   2.069 -0.3173  1.7053 -0.6554
 4435TIP3   OH234939   3.782   3.547   8.392 -0.0186 -0.2341 -0.1945
 4435TIP3    H134940   3.710   3.582   8.444  1.0810 -0.5390  1.6212
 4435TIP3    H234941   3.844   3.620   8.384 -0.6148  0.1317 -2.0303
 4436TIP3   OH234942   2.004   4.039   7.509  0.0305  1.0369  0.1662
 4436TIP3    H134943   2.092   4.069   7.489  0.0908  0.2477 -0.8120
 4436TIP3    H234944   2.010   3.943   7.506 -0.3098  0.8839  2.5392
 4437TIP3   OH234945   1.473   5.153   7.386  0.1554  0.5474 -0.5538
 4437TIP3    H134946   1.404   5.089   7.372  0.1603  0.5148 -0.4290
 4437TIP3    H234947   1.496   5.144   7.478 -0.4774  1.3558 -0.3067
 4438TIP3   OH234948   1.421   3.496   0.568 -0.0253  0.3475  0.6671
 4438TIP3    H134949   1.509   3.532   0.553  0.0051 -0.0838 -0.2831
 4438TIP3    H234950   1.407   3.505   0.662  0.4701  1.6873  0.6283
 4439TIP3   OH234951   1.482   5.749   7.374 -0.1122 -0.6579 -0.0008
 4439TIP3    H134952   1.563   5.734   7.325  1.0695 -1.1300  1.9821
 4439TIP3    H234953   1.454   5.836   7.347  1.3083 -0.3019 -0.4440
 4440TIP3   OH234954   2.591   4.531   0.672 -0.2600 -0.5845 -0.6052
 4440TIP3    H134955   2.538   4.480   0.733  0.2889 -1.8574 -1.1595
 4440TIP3    H234956   2.546   4.615   0.666 -1.4888 -1.1749 -0.0717
 4441TIP3   OH234957   2.186   2.255   1.376  0.1189  0.0129 -0.2655
 4441TIP3    H134958   2.241   2.329   1.402  0.7399 -0.6561  0.3741
 4441TIP3    H234959   2.098   2.279   1.404  0.8944 -1.2787  4.1065
 4442TIP3   OH234960   0.932   0.783   1.047  0.1559 -0.0062 -0.1586
 4442TIP3    H134961   0.981   0.705   1.020  0.4907  0.1156  0.0867
 4442TIP3    H234962   0.905   0.765   1.137  0.2063  0.1474 -0.1118
 4443TIP3   OH234963   2.337   0.029   0.912 -0.4467 -0.2077  0.0582
 4443TIP3    H134964   2.245   0.010   0.929 -0.9455  0.4985 -1.5831
 4443TIP3    H234965   2.341   0.045   0.817  1.0569  1.3495  0.3250
 4444TIP3   OH234966   1.233   0.850   8.207  0.1566  0.2128  0.1287
 4444TIP3    H134967   1.191   0.896   8.279  0.3371  1.1404 -0.3484
 4444TIP3    H234968   1.327   0.862   8.221  0.2262 -0.4877  0.3044
 4445TIP3   OH234969   0.825   1.583   1.055 -0.2195  0.0730 -0.3621
 4445TIP3    H134970   0.866   1.547   1.134  0.5459  1.0123 -0.3166
 4445TIP3    H234971   0.799   1.505   1.005  0.6332 -0.5494  0.1219
 4446TIP3   OH234972   5.812   4.881   8.232  0.2273 -0.4284  0.0146
 4446TIP3    H134973   5.794   4.974   8.250  0.4628 -0.6017  1.2963
 4446TIP3    H234974   5.754   4.858   8.160 -0.6885  0.4241  0.4491
 4447TIP3   OH234975   1.383   2.137   0.238  0.4528 -0.1615 -0.3518
 4447TIP3    H134976   1.383   2.077   0.313  0.0450 -0.4697 -0.5916
 4447TIP3    H234977   1.318   2.100   0.179  1.1221 -0.1838 -1.0786
 4448TIP3   OH234978   5.149   6.711   0.497 -0.0736 -0.5875 -0.2039
 4448TIP3    H134979   5.183   6.623   0.481  2.4050  0.2986 -0.2279
 4448TIP3    H234980   5.178   6.761   0.421 -1.0406  0.3809  0.0403
 4449TIP3   OH234981   0.680   4.746   7.698  0.9230 -0.5013 -0.1041
 4449TIP3    H134982   0.679   4.712   7.788  0.6079 -0.3006 -0.0299
 4449TIP3    H234983   0.746   4.815   7.699 -0.3775  0.7977  0.4674
 4450TIP3   OH234984   3.695   1.700   8.843 -0.0624 -0.2641 -0.6906
 4450TIP3    H134985   3.745   1.734   8.768 -1.7960 -0.3738 -1.9564
 4450TIP3    H234986   3.670   1.778   8.893  0.9751 -0.1798 -0.2829
 4451TIP3   OH234987   4.545   2.987   0.311  0.4938 -0.8694 -0.1383
 4451TIP3    H134988   4.617   2.927   0.332  1.3383  0.0523 -0.3326
 4451TIP3    H234989   4.559   3.010   0.219  0.6080  0.1908  0.1357
 4452TIP3   OH234990   3.557   3.901   2.189  0.4620 -0.8347 -0.4528
 4452TIP3    H134991   3.590   3.905   2.279 -0.1312 -0.2125 -0.2588
 4452TIP3    H234992   3.636   3.889   2.136  0.8959 -0.4378  0.0839
 4453TIP3   OH234993   1.632   2.351   1.000 -0.1754  0.1888  0.0635
 4453TIP3    H134994   1.688   2.294   0.947 -0.5538  0.9121 -1.1284
 4453TIP3    H234995   1.677   2.435   1.000  0.0016  0.1153  1.2104
 4454TIP3   OH234996   1.462   4.716   8.924 -0.0550 -0.2383 -0.1174
 4454TIP3    H134997   1.451   4.688   9.015  0.7966  2.1424  0.7928
 4454TIP3    H234998   1.525   4.788   8.929 -0.3329  0.2422 -2.5534
 4455TIP3   OH234999   3.849   6.568   8.266  0.5481  0.0909 -0.3172
 4455TIP3    H135000   3.770   6.611   8.235 -0.7214 -0.6195  1.7509
 4455TIP3    H235001   3.884   6.626   8.334 -0.9865 -1.7933  2.2435
 4456TIP3   OH235002   5.305   4.794   7.689 -0.6166  0.0560 -0.3647
 4456TIP3    H135003   5.291   4.730   7.758 -0.0051 -0.5955 -0.8346
 4456TIP3    H235004   5.344   4.744   7.617  0.4260  1.0528 -0.5204
 4457TIP3   OH235005   4.778   4.476   2.307 -0.0724  0.5678  1.0160
 4457TIP3    H135006   4.753   4.502   2.395 -1.4250 -0.3892  0.9529
 4457TIP3    H235007   4.756   4.383   2.302 -0.2432  0.6481 -0.3873
 4458TIP3   OH235008   1.835   0.860   2.590  0.2498 -0.8302 -0.2554
 4458TIP3    H135009   1.851   0.768   2.614 -1.7905 -0.9272  0.9855
 4458TIP3    H235010   1.907   0.908   2.632 -0.4956 -1.5483  1.9887
 4459TIP3   OH235011   2.913   1.003   0.772 -0.7452  0.4927  0.3501
 4459TIP3    H135012   2.847   1.033   0.709 -0.7031  0.0817  0.1086
 4459TIP3    H235013   2.942   1.083   0.816 -0.7388  0.7880 -0.1846
 4460TIP3   OH235014   4.471   3.629   2.109  0.0661 -0.2946  0.1271
 4460TIP3    H135015   4.491   3.587   2.192  0.6301  0.7763  0.5529
 4460TIP3    H235016   4.538   3.597   2.049 -0.7240 -1.5799 -0.1248
 4461TIP3   OH235017   5.055   4.353   7.929 -0.1803 -0.1230 -0.2802
 4461TIP3    H135018   5.144   4.382   7.908 -0.8265  2.7694  0.4873
 4461TIP3    H235019   5.059   4.330   8.022 -0.4250  1.1196  0.0607
 4462TIP3   OH235020   5.675   6.012   7.893 -0.1200  0.2802 -0.2233
 4462TIP3    H135021   5.725   5.930   7.897  2.5753  1.8335  0.4834
 4462TIP3    H235022   5.633   6.019   7.978  0.5032  0.1319  0.1007
 4463TIP3   OH235023   3.568   5.465   0.650 -0.0699  0.5709 -0.3323
 4463TIP3    H135024   3.538   5.375   0.635 -0.4109  0.4765  0.7951
 4463TIP3    H235025   3.560   5.477   0.745 -0.6008  1.9922 -0.5316
 4464TIP3   OH235026   6.192   5.737   2.066 -0.6374 -0.1493  0.1334
 4464TIP3    H135027   6.238   5.778   2.139 -0.7610 -0.8483  0.6029
 4464TIP3    H235028   6.224   5.647   2.065  0.6987  0.2687 -1.7569
 4465TIP3   OH235029   6.251   2.445   7.987 -0.0637 -0.3188  0.3968
 4465TIP3    H135030   6.230   2.423   8.078 -1.2784 -1.2498 -0.0820
 4465TIP3    H235031   6.251   2.540   7.985  0.4999 -0.2710  1.4750
 4466TIP3   OH235032   5.456   1.797   7.311 -0.2001  0.0897 -0.0885
 4466TIP3    H135033   5.397   1.846   7.254  1.5404  0.7714 -1.4044
 4466TIP3    H235034   5.496   1.864   7.368  0.2599 -0.1633 -0.1057
 4467TIP3   OH235035   0.358   1.505   0.453 -0.3807  0.2771  0.0533
 4467TIP3    H135036   0.368   1.445   0.528 -0.1433 -1.5575 -1.3611
 4467TIP3    H235037   0.323   1.449   0.383 -0.9153  2.0130 -1.1242
 4468TIP3   OH235038   0.919   5.135   8.221  0.2652 -0.3119  0.2797
 4468TIP3    H135039   0.892   5.224   8.200  0.0757 -0.5386 -0.4934
 4468TIP3    H235040   0.949   5.139   8.312 -0.8237  0.2941  0.6264
 4469TIP3   OH235041   3.356   0.486   7.733  0.0414 -0.0930 -0.1438
 4469TIP3    H135042   3.292   0.440   7.788 -0.1724  1.1064  0.6377
 4469TIP3    H235043   3.347   0.578   7.757  1.0643  0.2671 -1.0622
 4470TIP3   OH235044   5.208   3.302   2.197 -0.3226  0.0735 -0.1081
 4470TIP3    H135045   5.242   3.331   2.282  0.9387  1.1680 -0.9434
 4470TIP3    H235046   5.113   3.310   2.206 -0.1635  1.3067  0.8342
 4471TIP3   OH235047   3.500   2.347   1.423  0.7178 -0.3139  0.1944
 4471TIP3    H135048   3.586   2.331   1.384  1.0746 -2.4946  1.6964
 4471TIP3    H235049   3.517   2.406   1.495  1.0663 -1.0744  0.7518
 4472TIP3   OH235050   0.964   1.276   0.089  0.2286 -0.7149 -0.3366
 4472TIP3    H135051   0.979   1.302   0.180  2.1938 -1.7634 -0.3069
 4472TIP3    H235052   1.031   1.210   0.072  0.0566 -0.3727 -2.6229
 4473TIP3   OH235053   3.913   6.757   8.449  0.2367 -0.3635 -0.3065
 4473TIP3    H135054   3.826   6.793   8.466  1.0774  2.0167 -0.6466
 4473TIP3    H235055   3.972   6.809   8.504  1.4137 -2.2247  0.2699
 4474TIP3   OH235056   0.304   5.702   1.559  0.2275 -0.2126 -0.0143
 4474TIP3    H135057   0.217   5.687   1.524 -0.5983  0.3904  1.6610
 4474TIP3    H235058   0.330   5.618   1.597 -0.6700  0.1954  1.5879
 4475TIP3   OH235059   4.923   5.406   1.084 -0.2582 -0.4293  0.8329
 4475TIP3    H135060   4.890   5.329   1.129 -0.3749  0.1156  1.7211
 4475TIP3    H235061   5.001   5.432   1.135 -0.4497  0.2582  0.7920
 4476TIP3   OH235062   4.183   5.155   0.603  0.1026 -0.1511 -0.1926
 4476TIP3    H135063   4.104   5.190   0.645 -0.1895  1.0158 -1.6037
 4476TIP3    H235064   4.208   5.223   0.540  2.0999 -0.6133  0.0356
 4477TIP3   OH235065   6.628   6.397   8.982 -0.2593  0.1824  0.5105
 4477TIP3    H135066   6.666   6.342   9.051 -0.8884 -0.8186  0.0951
 4477TIP3    H235067   6.543   6.423   9.017  0.4861  1.8366  1.1543
 4478TIP3   OH235068   4.028   3.879   2.405  0.1010  0.2486 -0.4552
 4478TIP3    H135069   3.960   3.937   2.441  0.4502  0.5935 -0.3536
 4478TIP3    H235070   3.996   3.791   2.426  0.8699  0.4426  1.7989
 4479TIP3   OH235071   2.543   5.276   1.730  0.8703  0.4542  0.3509
 4479TIP3    H135072   2.524   5.369   1.721 -2.2450 -0.1292 -0.1869
 4479TIP3    H235073   2.574   5.267   1.820  2.5988  2.1386 -0.0133
 4480TIP3   OH235074   3.134   0.309   7.477 -0.7815  0.2560  0.5149
 4480TIP3    H135075   3.140   0.370   7.404 -2.4903 -0.1376 -0.0025
 4480TIP3    H235076   3.199   0.241   7.457 -0.9252  0.3811 -0.4284
 4481TIP3   OH235077   0.228   1.534   0.943  0.6684 -0.2836 -0.6288
 4481TIP3    H135078   0.285   1.601   0.980 -0.2938 -0.2336  0.8473
 4481TIP3    H235079   0.158   1.583   0.900  0.7298 -0.3515 -0.8085
 4482TIP3   OH235080   0.781   5.512   1.775 -0.5359 -0.4159  0.3093
 4482TIP3    H135081   0.749   5.589   1.823 -1.9899 -1.6195  1.3659
 4482TIP3    H235082   0.872   5.502   1.806 -0.3578  0.7713  0.2469
 4483TIP3   OH235083   3.675   6.195   1.746 -0.3682 -0.0339 -0.0185
 4483TIP3    H135084   3.742   6.190   1.677  0.6418 -0.4272  0.9560
 4483TIP3    H235085   3.723   6.227   1.822 -1.3851  0.0143  0.6088
 4484TIP3   OH235086   3.818   5.873   8.876 -0.1426 -0.2936 -0.1219
 4484TIP3    H135087   3.736   5.829   8.900  0.4351 -0.7532  1.0790
 4484TIP3    H235088   3.845   5.918   8.956  0.5412  0.2284 -0.6391
 4485TIP3   OH235089   0.766   3.093   2.328 -0.1242  0.4707  0.4197
 4485TIP3    H135090   0.714   3.070   2.405  1.4551 -2.2605  0.7799
 4485TIP3    H235091   0.716   3.059   2.254 -1.6465  3.1029  0.1210
 4486TIP3   OH235092   1.557   5.999   7.662 -0.0396  0.4277  0.0233
 4486TIP3    H135093   1.620   6.039   7.603  0.9072  0.8741  1.3160
 4486TIP3    H235094   1.573   6.039   7.747  0.3561 -2.0161  1.1868
 4487TIP3   OH235095   4.709   0.178   0.452  0.6446 -0.0261  0.5030
 4487TIP3    H135096   4.725   0.216   0.539  1.8460 -1.6327  1.0370
 4487TIP3    H235097   4.797   0.160   0.418  0.1916  0.6010 -1.0832
 4488TIP3   OH235098   2.781   3.629   1.041 -0.0834  0.4039 -0.0759
 4488TIP3    H135099   2.864   3.589   1.017 -1.0848 -1.2166 -1.0281
 4488TIP3    H235100   2.765   3.696   0.974 -0.4493 -0.6302 -1.0514
 4489TIP3   OH235101   2.345   6.512   6.932 -0.1917 -0.3646 -0.1240
 4489TIP3    H135102   2.281   6.542   6.997  0.4059  2.3824 -0.6940
 4489TIP3    H235103   2.430   6.530   6.971  0.2304 -1.5402 -0.4573
 4490TIP3   OH235104   5.553   0.910   8.215  0.0755 -0.2536 -0.1726
 4490TIP3    H135105   5.630   0.955   8.180  0.1384 -0.1661  0.0721
 4490TIP3    H235106   5.480   0.943   8.163  0.0810  0.3568  0.2002
 4491TIP3   OH235107   3.996   1.121   0.315  0.4223 -0.2450  0.1477
 4491TIP3    H135108   4.061   1.062   0.352 -0.3229 -2.8479 -2.3752
 4491TIP3    H235109   3.917   1.105   0.367  0.6280 -0.3051  0.4438
 4492TIP3   OH235110   2.153   1.602   1.157 -0.1698  0.0584 -0.3633
 4492TIP3    H135111   2.242   1.603   1.120 -0.7114  0.2897 -1.7104
 4492TIP3    H235112   2.167   1.603   1.251  1.2653  0.2784 -0.5478
 4493TIP3   OH235113   0.352   1.326   8.133  0.3819  0.1323  0.2916
 4493TIP3    H135114   0.267   1.312   8.175 -1.2760 -2.5672 -3.3662
 4493TIP3    H235115   0.346   1.413   8.094 -1.1370 -0.3474 -0.6256
 4494TIP3   OH235116   4.861   4.610   8.719  0.2975  0.0280  0.1679
 4494TIP3    H135117   4.829   4.570   8.638  1.8977 -1.1879  0.0817
 4494TIP3    H235118   4.938   4.661   8.691  1.0369 -0.6326  0.9346
 4495TIP3   OH235119   3.830   4.847   1.849 -0.0520 -0.1068  0.0096
 4495TIP3    H135120   3.899   4.914   1.851 -1.7566  1.7695 -0.6391
 4495TIP3    H235121   3.830   4.811   1.938  1.3497  0.2658  0.1947
 4496TIP3   OH235122   0.913   2.314   1.230  0.8166 -0.0783  0.3606
 4496TIP3    H135123   0.824   2.345   1.249  0.3645 -0.7295 -0.6215
 4496TIP3    H235124   0.967   2.393   1.235 -0.1490  0.7234 -1.0791
 4497TIP3   OH235125   0.562   4.928   2.578  0.5757  0.0200 -0.2111
 4497TIP3    H135126   0.549   5.012   2.622  0.4876 -0.3544  0.4853
 4497TIP3    H235127   0.476   4.886   2.582  0.2050  0.5360 -1.9429
 4498TIP3   OH235128   1.152   1.216   8.800  0.1363  0.0904 -0.4027
 4498TIP3    H135129   1.098   1.172   8.866  1.0288 -0.5542 -0.0827
 4498TIP3    H235130   1.137   1.165   8.720  1.9026 -1.4400  0.1870
 4499TIP3   OH235131   2.371   6.375   8.768  0.8718 -0.1167 -0.5597
 4499TIP3    H135132   2.307   6.342   8.705  0.7273  0.0210 -0.4866
 4499TIP3    H235133   2.391   6.300   8.824 -1.2754  0.4509  1.1519
 4500TIP3   OH235134   3.221   0.778   7.628  0.3518 -0.0779  0.0004
 4500TIP3    H135135   3.166   0.791   7.706  0.9963 -1.6338  0.7517
 4500TIP3    H235136   3.192   0.846   7.567  0.5278  1.8738  1.9612
 4501TIP3   OH235137   2.579   3.506   1.808  0.4174  0.4382 -0.0696
 4501TIP3    H135138   2.651   3.569   1.811 -0.1956  1.1941  2.9306
 4501TIP3    H235139   2.622   3.420   1.807  1.4094  0.8885  1.0172
 4502TIP3   OH235140   0.103   3.630   7.574 -0.2740 -0.6109 -0.3822
 4502TIP3    H135141   0.022   3.679   7.562 -0.0882  0.1071  1.0613
 4502TIP3    H235142   0.157   3.685   7.630  1.0044 -1.3254 -0.8606
 4503TIP3   OH235143   3.132   3.117   8.974  0.2968 -0.9226  0.5584
 4503TIP3    H135144   3.137   3.132   9.068  1.9582  3.0083  0.0640
 4503TIP3    H235145   3.191   3.183   8.937 -3.0051  0.2352 -3.4020
 4504TIP3   OH235146   4.591   1.511   1.638 -0.2229 -0.1259 -0.0130
 4504TIP3    H135147   4.597   1.594   1.592 -0.3443 -0.5215 -0.7569
 4504TIP3    H235148   4.573   1.535   1.729  0.5189  0.6794 -0.0686
 4505TIP3   OH235149   1.363   4.055   1.414  0.6798  0.4677 -0.2552
 4505TIP3    H135150   1.353   4.032   1.322 -0.0486 -0.7338  0.0961
 4505TIP3    H235151   1.437   4.115   1.416  2.3879 -1.4880 -1.3300
 4506TIP3   OH235152   3.573   1.592   2.021  0.6108  0.1359  0.0756
 4506TIP3    H135153   3.483   1.568   1.999  1.6638 -2.7974 -1.7318
 4506TIP3    H235154   3.573   1.688   2.023 -2.4483  0.2284 -0.1561
 4507TIP3   OH235155   1.204   0.543   0.440  1.1468 -0.1125 -0.4578
 4507TIP3    H135156   1.249   0.609   0.492  0.7432  0.9562 -1.4004
 4507TIP3    H235157   1.113   0.547   0.469  1.0756 -0.0726 -0.6796
 4508TIP3   OH235158   0.625   3.064   2.543  0.2497 -0.7496 -0.1209
 4508TIP3    H135159   0.530   3.065   2.539  0.1126 -1.3961  1.9027
 4508TIP3    H235160   0.651   3.156   2.543 -0.3739 -0.5705 -0.5621
 4509TIP3   OH235161   5.383   1.512   7.019 -0.1543 -0.1172  0.3984
 4509TIP3    H135162   5.417   1.493   6.932 -1.1427  1.0321 -0.2788
 4509TIP3    H235163   5.451   1.566   7.060 -0.0541  0.0554  0.0071
 4510TIP3   OH235164   1.024   6.738   8.353 -0.0299 -0.8177  0.0889
 4510TIP3    H135165   1.073   6.666   8.315  0.1826 -1.7306  2.0167
 4510TIP3    H235166   0.936   6.703   8.368 -0.5591  0.0090 -0.9393
 4511TIP3   OH235167   0.508   1.843   9.000 -0.3218 -0.0995  0.3598
 4511TIP3    H135168   0.585   1.792   9.025  0.1617  0.4986  0.1199
 4511TIP3    H235169   0.435   1.780   9.002  0.4138 -1.0118 -0.8983
 4512TIP3   OH235170   5.755   1.453   7.798 -0.1261  0.0018  0.1218
 4512TIP3    H135171   5.711   1.414   7.873  1.2628 -0.9995  0.4708
 4512TIP3    H235172   5.847   1.425   7.808  0.4211  1.3069 -0.9976
 4513TIP3   OH235173   1.852   6.519   0.958  0.3231  0.0756  0.1396
 4513TIP3    H135174   1.766   6.548   0.929  0.7164  0.7259 -0.4113
 4513TIP3    H235175   1.840   6.427   0.980 -1.2434  0.8676  3.0585
 4514TIP3   OH235176   4.824   6.650   2.499  0.3528  0.1058 -0.3679
 4514TIP3    H135177   4.872   6.597   2.563  2.3272  0.0365 -1.7773
 4514TIP3    H235178   4.881   6.726   2.484 -2.4579  2.8557  1.7095
 4515TIP3   OH235179   5.802   4.742   8.480 -0.4566  0.0191  0.2823
 4515TIP3    H135180   5.778   4.767   8.391 -0.4495 -1.1473 -0.0596
 4515TIP3    H235181   5.721   4.712   8.520 -0.0977 -1.3622  0.0063
 4516TIP3   OH235182   4.732   1.279   8.424 -0.4672  0.0562  0.3191
 4516TIP3    H135183   4.732   1.361   8.473  0.9698  0.2962 -0.0466
 4516TIP3    H235184   4.811   1.283   8.371 -0.2725 -1.6543  0.4303
 4517TIP3   OH235185   3.384   2.188   7.364 -0.1274  0.8510 -0.3927
 4517TIP3    H135186   3.346   2.189   7.276 -1.0182 -0.7974 -0.0548
 4517TIP3    H235187   3.473   2.220   7.351 -0.2140  0.5584 -1.9088
 4518TIP3   OH235188   1.856   1.211   8.810  0.0149 -0.2011 -0.1613
 4518TIP3    H135189   1.773   1.176   8.839  0.0122  0.8591  1.2165
 4518TIP3    H235190   1.837   1.302   8.788  0.6659 -0.1386 -0.4920
 4519TIP3   OH235191   2.993   3.196   7.141 -0.0122  0.4558  0.1815
 4519TIP3    H135192   3.062   3.132   7.122  0.5094  0.9648  0.3128
 4519TIP3    H235193   2.956   3.217   7.055 -0.3176 -0.1558  0.1571
 4520TIP3   OH235194   2.419   1.095   7.821 -0.0717  0.1853 -0.5123
 4520TIP3    H135195   2.432   1.040   7.744 -0.1218  2.7901 -2.5113
 4520TIP3    H235196   2.494   1.154   7.822 -1.4916  2.0907 -0.3117
 4521TIP3   OH235197   3.736   2.840   1.383 -0.0447  0.6879 -0.0715
 4521TIP3    H135198   3.790   2.773   1.426  0.9717  1.2278 -0.4809
 4521TIP3    H235199   3.670   2.862   1.448 -0.1455 -0.4082  0.2294
 4522TIP3   OH235200   2.492   1.323   0.569 -0.1591 -0.7336  0.3765
 4522TIP3    H135201   2.414   1.268   0.571 -0.1237 -0.7650  1.9930
 4522TIP3    H235202   2.563   1.266   0.597  0.1304 -0.2300  0.6837
 4523TIP3   OH235203   4.076   5.614   0.854 -0.0790  0.2117  0.2113
 4523TIP3    H135204   4.139   5.579   0.792 -0.7612  0.7163 -0.8070
 4523TIP3    H235205   4.122   5.615   0.938  1.3753  0.9122 -0.5653
 4524TIP3   OH235206   1.782   0.215   7.921  0.2384 -0.5972  0.2970
 4524TIP3    H135207   1.692   0.231   7.892  0.7817 -1.6692 -2.2151
 4524TIP3    H235208   1.786   0.254   8.009 -2.1320  1.0896 -0.2398
 4525TIP3   OH235209   2.857   6.082   1.209  0.6726  0.0559 -0.9396
 4525TIP3    H135210   2.856   6.012   1.275  1.1244  1.0198  0.1399
 4525TIP3    H235211   2.937   6.131   1.228  0.2288  1.0193 -1.4903
 4526TIP3   OH235212   2.079   2.863   7.359  0.8152 -0.6011  0.1139
 4526TIP3    H135213   2.002   2.913   7.385  1.3624  0.2836  0.0674
 4526TIP3    H235214   2.051   2.771   7.364  0.1620 -0.3487  1.3895
 4527TIP3   OH235215   0.059   2.054   7.398 -0.2416  0.3080 -0.1927
 4527TIP3    H135216   0.151   2.029   7.389 -0.1371  0.7839 -0.4807
 4527TIP3    H235217   0.016   1.974   7.428  0.2317  0.0251 -0.2441
 4528TIP3   OH235218   4.452   3.104   7.523 -0.4190  0.2881  0.1210
 4528TIP3    H135219   4.376   3.127   7.468 -0.4040  1.6244  0.6256
 4528TIP3    H235220   4.522   3.087   7.460 -1.2757 -1.6846 -0.3902
 4529TIP3   OH235221   3.830   3.101   7.740 -0.2785  0.1766  0.5670
 4529TIP3    H135222   3.772   3.117   7.813 -0.8359  0.0337  0.1636
 4529TIP3    H235223   3.822   3.178   7.684 -2.8105 -1.2448 -1.2689
 4530TIP3   OH235224   1.922   3.622   6.968  0.0450  0.2197  0.1099
 4530TIP3    H135225   1.897   3.551   6.910  1.6554  1.1304 -1.8039
 4530TIP3    H235226   1.870   3.697   6.939  0.8511  0.6787 -0.1737
 4531TIP3   OH235227   2.598   2.479   2.074  0.3947  0.1816  0.0897
 4531TIP3    H135228   2.646   2.484   1.991 -1.7193 -0.7572 -1.2761
 4531TIP3    H235229   2.549   2.562   2.078 -2.5281 -1.2895 -1.6886
 4532TIP3   OH235230   2.795   6.685   2.169  0.0868  0.0366  0.8211
 4532TIP3    H135231   2.822   6.750   2.105 -0.6180 -0.7571 -0.3398
 4532TIP3    H235232   2.783   6.733   2.250 -0.1445  1.2977  0.0600
 4533TIP3   OH235233   4.961   2.377   8.926 -0.0270  0.5594 -0.3366
 4533TIP3    H135234   4.983   2.285   8.938 -2.8237 -0.3114 -1.1698
 4533TIP3    H235235   5.029   2.410   8.867  0.2513 -1.3614 -1.1643
 4534TIP3   OH235236   3.935   1.333   0.039 -0.3184 -0.5865 -0.0336
 4534TIP3    H135237   3.875   1.373   0.102 -0.5504 -1.5707  0.3923
 4534TIP3    H235238   3.982   1.407  -0.000 -1.7032  0.1807 -0.2837
 4535TIP3   OH235239   4.160   5.362   1.997  0.0380 -0.2286  0.1166
 4535TIP3    H135240   4.238   5.384   2.047  1.0673 -0.5258 -1.2914
 4535TIP3    H235241   4.104   5.315   2.058  1.4816 -1.0563  0.8357
 4536TIP3   OH235242   3.533   1.996   8.628  0.6341 -0.1639  0.3456
 4536TIP3    H135243   3.443   2.007   8.598  0.8304 -2.3772 -1.3283
 4536TIP3    H235244   3.588   2.024   8.555  1.2962  0.2321  0.9734
 4537TIP3   OH235245   4.036   6.076   7.431 -0.8744 -0.0706 -0.0384
 4537TIP3    H135246   4.068   6.112   7.348  0.0361  2.0410  1.1393
 4537TIP3    H235247   3.982   6.001   7.405  2.2577 -1.7817 -2.3306
 4538TIP3   OH235248   4.398   1.032   0.381 -0.3825 -0.8225 -0.5774
 4538TIP3    H135249   4.483   1.010   0.420  1.6492  2.9273 -2.3682
 4538TIP3    H235250   4.338   1.035   0.455  1.6891 -0.8417  1.2011
 4539TIP3   OH235251   5.457   0.217   0.439 -0.0024  0.4920 -0.7259
 4539TIP3    H135252   5.488   0.306   0.418  0.0003  0.3337 -1.4293
 4539TIP3    H235253   5.400   0.229   0.515  1.2961  0.8745  0.2295
 4540TIP3   OH235254   4.031   0.286   8.145 -0.1579  0.2532 -0.1143
 4540TIP3    H135255   4.113   0.298   8.194 -0.1524  1.4400 -0.3810
 4540TIP3    H235256   4.060   0.258   8.058 -0.0782 -0.1655  0.0467
 4541TIP3   OH235257   0.224   2.710   1.785 -0.6161 -0.0911 -0.4763
 4541TIP3    H135258   0.235   2.789   1.731  1.3004 -0.1343 -0.2181
 4541TIP3    H235259   0.195   2.643   1.723 -1.7631  0.6620 -0.7981
 4542TIP3   OH235260   0.698   2.388   2.019  0.0364  0.0775 -0.1109
 4542TIP3    H135261   0.763   2.426   2.079 -0.7654  1.4916 -0.1089
 4542TIP3    H235262   0.634   2.348   2.078  0.1185 -0.0071 -0.0775
 4543TIP3   OH235263   1.532   1.081   7.087 -0.1075  0.4644 -0.2174
 4543TIP3    H135264   1.589   1.116   7.018 -0.3547  0.0044 -0.6689
 4543TIP3    H235265   1.531   0.986   7.071  1.2257  0.1270  1.5037
 4544TIP3   OH235266   1.881   6.737   8.487 -0.5645  0.0612  0.3747
 4544TIP3    H135267   1.898   6.646   8.514 -0.3418  0.4354  1.5487
 4544TIP3    H235268   1.786   6.745   8.489 -0.5500  0.0869  1.0872
 4545TIP3   OH235269   5.577   2.197   1.678  0.5841  0.2103  0.1725
 4545TIP3    H135270   5.538   2.111   1.661  1.1368 -0.1329  0.5794
 4545TIP3    H235271   5.669   2.178   1.699  0.4966  0.8049  1.1763
 4546TIP3   OH235272   0.994   0.059   0.883 -0.5482  0.1487  0.2260
 4546TIP3    H135273   0.993   0.090   0.973 -1.4441 -1.6105  0.8616
 4546TIP3    H235274   0.902   0.047   0.860 -0.3385  0.6122 -0.9662
 4547TIP3   OH235275   6.484   3.903   7.269 -0.1523 -0.4464 -0.3165
 4547TIP3    H135276   6.527   3.989   7.263  0.7223 -0.8141  0.5289
 4547TIP3    H235277   6.412   3.909   7.207  0.8827  0.3293 -1.4947
 4548TIP3   OH235278   0.687   0.053   6.995 -0.7550  0.0229 -0.0894
 4548TIP3    H135279   0.595   0.075   6.977 -0.7346  1.7922  1.6892
 4548TIP3    H235280   0.712   0.111   7.067  0.3918 -3.5703  2.7198
 4549TIP3   OH235281   1.464   0.610   1.696 -0.0365 -0.3748 -0.1916
 4549TIP3    H135282   1.521   0.620   1.620 -0.0719  0.8889 -0.0630
 4549TIP3    H235283   1.497   0.673   1.760 -1.7775  0.6561 -0.2394
 4550TIP3   OH235284   1.853   1.183   1.723  0.0745  0.0871  0.0371
 4550TIP3    H135285   1.914   1.200   1.651  1.2860  0.1312  1.0360
 4550TIP3    H235286   1.900   1.121   1.779 -0.1771  1.2636  1.6046
 4551TIP3   OH235287   3.140   2.205   8.617  0.1813  0.1255  0.0868
 4551TIP3    H135288   3.168   2.257   8.691 -2.5487  2.6806 -0.5036
 4551TIP3    H235289   3.131   2.267   8.545  0.8732 -1.9313 -1.9244
 4552TIP3   OH235290   5.638   3.850   0.915 -0.3193  0.9202  0.0292
 4552TIP3    H135291   5.663   3.858   0.823 -1.4762 -0.4306 -0.4400
 4552TIP3    H235292   5.713   3.808   0.957 -0.4711 -0.1039 -0.6880
 4553TIP3   OH235293   0.966   3.627   6.957  0.4338  0.1230 -0.1254
 4553TIP3    H135294   1.014   3.706   6.980 -0.5059  0.2904  1.3687
 4553TIP3    H235295   0.912   3.653   6.882  0.6945  0.6772 -0.1244
 4554TIP3   OH235296   2.775   1.721   7.918  0.6301  0.1345  0.4549
 4554TIP3    H135297   2.794   1.815   7.922 -0.2686  0.2853  2.7412
 4554TIP3    H235298   2.682   1.714   7.939  0.9232 -1.3155  1.4680
 4555TIP3   OH235299   1.377   1.152   7.316 -0.1796 -0.4227  0.7004
 4555TIP3    H135300   1.304   1.094   7.294  0.5554 -1.6246  1.3681
 4555TIP3    H235301   1.447   1.128   7.256 -1.2199  2.9043 -2.2186
 4556TIP3   OH235302   1.035   2.216   6.744  0.7219  0.1089  0.2169
 4556TIP3    H135303   0.966   2.282   6.750 -1.7579 -2.2032 -0.8093
 4556TIP3    H235304   1.112   2.264   6.715 -0.5566  2.7457  0.8846
 4557TIP3   OH235305   1.851   6.236   0.218  0.1980 -0.1529  0.2769
 4557TIP3    H135306   1.881   6.148   0.237  0.0067 -0.8115 -2.1498
 4557TIP3    H235307   1.888   6.256   0.132 -3.5264  0.2176 -1.4626
 4558TIP3   OH235308   3.502   0.913   8.907 -0.0286  0.2487 -0.3629
 4558TIP3    H135309   3.572   0.911   8.842 -1.0385 -0.4574 -1.4739
 4558TIP3    H235310   3.468   1.003   8.903 -1.3684 -0.2800 -2.2956
 4559TIP3   OH235311   3.367   5.396   1.031  0.1546  0.1953  0.0732
 4559TIP3    H135312   3.320   5.450   0.968 -1.2847 -1.1316 -0.0394
 4559TIP3    H235313   3.423   5.458   1.078 -2.5904  2.1450  1.0823
 4560TIP3   OH235314   3.512   0.813   0.151 -0.0037 -0.1336 -0.1811
 4560TIP3    H135315   3.519   0.860   0.067  2.6041  0.2972  0.2048
 4560TIP3    H235316   3.514   0.720   0.126  1.8450 -0.0262 -0.6137
 4561TIP3   OH235317   0.196   5.553   0.987  0.5888 -0.2292  0.5094
 4561TIP3    H135318   0.209   5.458   0.993  1.6299 -0.3044 -1.7945
 4561TIP3    H235319   0.270   5.583   0.934 -0.8284  1.5784 -0.5376
 4562TIP3   OH235320   1.979   1.491   0.707 -0.1311 -0.3588 -0.9054
 4562TIP3    H135321   2.057   1.458   0.752 -0.4153 -3.2291 -2.3000
 4562TIP3    H235322   1.907   1.474   0.768 -0.2509 -2.4007 -1.5321
 4563TIP3   OH235323   6.076   1.839   8.851 -0.2807  0.3369 -0.2460
 4563TIP3    H135324   6.123   1.922   8.841  0.6529 -0.0901  0.4660
 4563TIP3    H235325   6.144   1.772   8.844 -1.0495 -0.3913 -1.0282
 4564TIP3   OH235326   0.244   5.390   1.313  0.0246 -0.1584 -0.1817
 4564TIP3    H135327   0.212   5.300   1.302  1.6901 -0.6018 -1.9853
 4564TIP3    H235328   0.204   5.420   1.394 -3.0694 -1.4203 -1.1042
 4565TIP3   OH235329   0.043   3.064   6.442 -0.4604  0.2976  0.1209
 4565TIP3    H135330   0.072   2.998   6.505  0.0438  0.3347 -0.0663
 4565TIP3    H235331   0.001   3.014   6.372 -0.0699  0.1716 -0.0257
 4566TIP3   OH235332   3.608   4.585   0.536 -0.4135  0.0422  0.0358
 4566TIP3    H135333   3.517   4.593   0.507 -0.8396  2.2300  1.7574
 4566TIP3    H235334   3.602   4.551   0.625  0.3697  1.0847  0.5119
 4567TIP3   OH235335   6.251   0.549   8.725 -0.2157 -0.0006 -0.3973
 4567TIP3    H135336   6.265   0.602   8.804  0.2639 -0.4787 -0.1577
 4567TIP3    H235337   6.252   0.613   8.653  2.9084  0.1044 -0.3918
 4568TIP3   OH235338   2.293   4.713   7.519  0.2363 -0.1552 -0.0845
 4568TIP3    H135339   2.233   4.639   7.530  1.1427 -0.8372  0.3689
 4568TIP3    H235340   2.337   4.722   7.603  1.5684 -0.3750 -0.7321
 4569TIP3   OH235341   3.543   0.874   6.739  0.1581 -0.6347  0.7039
 4569TIP3    H135342   3.621   0.869   6.794  2.1841  1.1476 -1.7328
 4569TIP3    H235343   3.501   0.956   6.765  1.4559  0.5275 -0.6729
 4570TIP3   OH235344   3.340   3.741   0.916 -0.4368  0.3096  0.0047
 4570TIP3    H135345   3.250   3.774   0.910  0.0455  1.5784 -0.5482
 4570TIP3    H235346   3.371   3.741   0.825  0.0172 -0.4314  0.1555
 4571TIP3   OH235347   0.827   1.401   8.299  0.0828  0.1545 -0.5996
 4571TIP3    H135348   0.905   1.440   8.258 -0.5505 -0.5027 -2.5111
 4571TIP3    H235349   0.843   1.307   8.296 -1.0337 -0.0203 -1.5592
 4572TIP3   OH235350   1.304   2.244   6.972 -0.1980 -0.8499 -0.2040
 4572TIP3    H135351   1.232   2.181   6.975  0.5017 -1.8012 -1.7838
 4572TIP3    H235352   1.316   2.262   6.879  0.4271  0.7082  0.1508
 4573TIP3   OH235353   4.613   3.878   1.274  0.0015  0.3927  0.4086
 4573TIP3    H135354   4.566   3.959   1.294  0.2169  0.9666 -1.1945
 4573TIP3    H235355   4.550   3.809   1.295 -2.0982  1.1500 -2.5761
 4574TIP3   OH235356   1.219   0.951   7.187  0.0695  0.0893  0.3128
 4574TIP3    H135357   1.251   0.958   7.097  0.4918  0.1634  0.4671
 4574TIP3    H235358   1.145   1.011   7.192  0.7410  0.9182  0.3238
 4575TIP3   OH235359   1.473   2.196   2.400  0.6588  0.3772  0.4241
 4575TIP3    H135360   1.446   2.110   2.433  1.5039 -0.5226 -1.1530
 4575TIP3    H235361   1.541   2.178   2.336  0.6243  2.2141 -0.2020
 4576TIP3   OH235362   4.186   4.913   2.175 -0.3619 -0.4636 -0.0147
 4576TIP3    H135363   4.156   4.822   2.178  0.6591 -0.9317 -1.9527
 4576TIP3    H235364   4.155   4.952   2.256  0.2153 -2.8716  1.4626
 4577TIP3   OH235365   4.946   5.534   7.989  0.5408  0.4220 -0.2466
 4577TIP3    H135366   4.983   5.447   7.979 -0.3789  0.0997 -1.0178
 4577TIP3    H235367   4.872   5.536   7.928  0.4661  1.6936 -0.1463
 4578TIP3   OH235368   5.191   6.706   8.779 -0.3761  0.2351  0.4052
 4578TIP3    H135369   5.098   6.721   8.795 -0.0206  0.4590  2.7110
 4578TIP3    H235370   5.229   6.794   8.773 -0.1230  0.1739  0.9876
 4579TIP3   OH235371   2.788   1.707   8.516 -0.0910  0.0975  0.1874
 4579TIP3    H135372   2.763   1.773   8.580 -1.2458 -1.0583  0.9927
 4579TIP3    H235373   2.725   1.636   8.530  0.0007 -0.4330 -1.8405
 4580TIP3   OH235374   6.614   3.601   0.988  0.8669  0.0727 -0.6132
 4580TIP3    H135375   6.648   3.688   0.968 -2.9737  1.8267 -0.5741
 4580TIP3    H235376   6.584   3.566   0.904  2.2340 -1.2027 -0.6058
 4581TIP3   OH235377   0.227   5.898   1.737 -0.2929  0.1304  0.3337
 4581TIP3    H135378   0.219   5.858   1.824  2.2105  2.5783  1.8676
 4581TIP3    H235379   0.257   5.826   1.681 -2.1066 -1.5551  1.3571
 4582TIP3   OH235380   0.425   5.127   7.572  0.4527 -0.0142  0.1219
 4582TIP3    H135381   0.350   5.073   7.549 -0.6889  1.1145  1.0638
 4582TIP3    H235382   0.451   5.097   7.659  0.2801  0.4321  0.3338
 4583TIP3   OH235383   1.266   0.974   8.481  0.4430  0.4798  0.4118
 4583TIP3    H135384   1.247   0.922   8.559  2.1844  1.8785  1.8745
 4583TIP3    H235385   1.225   1.059   8.498 -0.2263  0.4250 -0.8030
 4584TIP3   OH235386   2.087   3.059   1.603 -0.4474 -0.2324  0.4900
 4584TIP3    H135387   2.062   3.130   1.544  2.1801 -0.7945 -1.4894
 4584TIP3    H235388   2.054   2.980   1.560  0.7204 -0.5660  0.1582
 4585TIP3   OH235389   2.744   3.143   7.306  0.3882 -0.3197 -0.6167
 4585TIP3    H135390   2.799   3.215   7.274 -0.1242  0.3662  0.0205
 4585TIP3    H235391   2.676   3.186   7.357  1.5989 -1.3920  2.0744
 4586TIP3   OH235392   1.051   2.110   1.085  0.1165  0.0721 -0.1310
 4586TIP3    H135393   1.106   2.092   1.161 -2.2827 -1.3517  1.4269
 4586TIP3    H235394   0.986   2.172   1.118 -0.8934 -0.4845 -1.0327
 4587TIP3   OH235395   2.285   1.079   8.688 -0.4957 -0.4760  0.2110
 4587TIP3    H135396   2.193   1.105   8.687  0.1315  2.0357  1.4335
 4587TIP3    H235397   2.311   1.082   8.780  1.5357  1.9141 -0.3154
 4588TIP3   OH235398   1.955   5.467   9.014 -0.3353  0.0304 -0.3032
 4588TIP3    H135399   2.033   5.467   8.958  0.9964 -1.2262  1.4548
 4588TIP3    H235400   1.919   5.555   9.005  1.7730  0.9379 -0.5130
 4589TIP3   OH235401   6.235   0.210   8.389  0.2416  0.2183 -0.2600
 4589TIP3    H135402   6.234   0.136   8.328  1.4584  0.6503 -0.8434
 4589TIP3    H235403   6.296   0.272   8.349  1.4810  0.2923  1.6611
 4590TIP3   OH235404   1.583   0.528   0.894  0.1470  0.3334  0.5985
 4590TIP3    H135405   1.523   0.466   0.853  0.8641  0.4838 -0.7122
 4590TIP3    H235406   1.670   0.497   0.872  0.5294  2.0902 -0.5901
 4591TIP3   OH235407   4.684   3.486   8.062  0.0363  0.3744  0.1540
 4591TIP3    H135408   4.751   3.435   8.106  1.3165  1.2834 -0.6846
 4591TIP3    H235409   4.602   3.461   8.106  1.0999  0.4205  2.2635
 4592TIP3   OH235410   5.363   2.760   0.489  0.7153  0.4469 -0.3663
 4592TIP3    H135411   5.333   2.844   0.456 -0.8914  0.2588  0.5720
 4592TIP3    H235412   5.355   2.701   0.414 -0.7970  0.5218 -0.2825
 4593TIP3   OH235413   2.889   2.285   7.951  0.4138 -0.1023  0.3704
 4593TIP3    H135414   2.871   2.379   7.955  0.9559 -0.0061  0.5013
 4593TIP3    H235415   2.967   2.277   7.897 -0.4600 -0.5916 -0.8684
 4594TIP3   OH235416   3.667   2.912   0.776  0.0868  0.5161 -0.3602
 4594TIP3    H135417   3.702   2.890   0.863 -0.3460  1.4904  0.0878
 4594TIP3    H235418   3.732   2.972   0.739 -1.0271  2.3352  0.4777
 4595TIP3   OH235419   0.389   4.754   7.675 -0.2065  0.2252 -0.1643
 4595TIP3    H135420   0.476   4.740   7.712 -0.5595 -0.2521  0.4977
 4595TIP3    H235421   0.337   4.681   7.707 -0.0480 -1.3861 -3.2498
 4596TIP3   OH235422   6.740   6.088   1.941  0.1021  0.3212 -0.1196
 4596TIP3    H135423   6.765   6.152   2.008 -0.4163 -0.9662  1.3666
 4596TIP3    H235424   6.674   6.133   1.888  0.1062  1.1802  0.5900
 4597TIP3   OH235425   5.709   6.714   2.366 -0.3471 -0.2219 -0.2016
 4597TIP3    H135426   5.670   6.671   2.290 -2.2875  0.0306  0.5720
 4597TIP3    H235427   5.679   6.805   2.360  1.3509  0.3567 -0.3089
 4598TIP3   OH235428   2.839   5.597   1.602  0.3784  0.3479  0.3829
 4598TIP3    H135429   2.888   5.664   1.648  2.1138  0.1341 -1.0177
 4598TIP3    H235430   2.755   5.638   1.581  0.7993  1.5230  0.9292
 4599TIP3   OH235431   1.107   2.658   8.001  0.1177 -0.2306 -0.1955
 4599TIP3    H135432   1.156   2.576   8.013 -0.3577 -0.5214 -0.2255
 4599TIP3    H235433   1.059   2.645   7.919  0.3363  0.2300 -0.4001
 4600TIP3   OH235434   4.466   5.826   8.797  0.1097  0.5287 -0.5491
 4600TIP3    H135435   4.414   5.881   8.855 -0.1593  1.3475 -1.5476
 4600TIP3    H235436   4.422   5.741   8.800  0.5476  0.3201  1.0191
 4601TIP3   OH235437   3.948   4.136   7.628  0.5168  0.3269 -0.1131
 4601TIP3    H135438   3.984   4.166   7.545  2.0998  0.9125  0.7223
 4601TIP3    H235439   3.999   4.057   7.649 -1.7965 -1.5223 -1.0050
 4602TIP3   OH235440   4.114   0.226   1.992  0.5559 -0.3871  0.2779
 4602TIP3    H135441   4.199   0.270   1.990  1.2619 -1.7204 -0.9424
 4602TIP3    H235442   4.118   0.168   2.068 -0.5259  1.8095  2.1276
 4603TIP3   OH235443   0.309   4.456   7.017  0.1292  0.0344  0.6835
 4603TIP3    H135444   0.226   4.410   7.024  0.1597 -0.1723 -0.1890
 4603TIP3    H235445   0.284   4.548   7.005  0.0253 -0.0286  0.4129
 4604TIP3   OH235446   1.780   4.329   6.992 -0.0596  0.3030  0.3132
 4604TIP3    H135447   1.838   4.396   6.955  2.4982 -1.5784  0.6305
 4604TIP3    H235448   1.746   4.282   6.916  1.0132 -0.2569  0.1602
 4605TIP3   OH235449   6.135   3.059   1.692 -0.1989  0.0816  0.1061
 4605TIP3    H135450   6.177   3.030   1.773  0.6967  1.3426  0.1220
 4605TIP3    H235451   6.197   3.120   1.653 -1.5985  1.2888 -0.3430
 4606TIP3   OH235452   3.463   2.993   8.760 -0.6947  0.1278 -0.8633
 4606TIP3    H135453   3.504   3.058   8.703  0.4135 -0.9321 -1.3128
 4606TIP3    H235454   3.524   2.984   8.834  0.9651 -2.7929 -2.4070
 4607TIP3   OH235455   6.302   1.410   1.709  0.0439  0.0777 -0.4875
 4607TIP3    H135456   6.371   1.392   1.645 -1.2749 -0.7726 -1.7078
 4607TIP3    H235457   6.276   1.323   1.741 -0.5696  0.3864 -0.1405
 4608TIP3   OH235458   3.308   6.578   7.578  0.1324 -0.1223  0.4141
 4608TIP3    H135459   3.346   6.626   7.505  0.8768  0.7612  1.3456
 4608TIP3    H235460   3.253   6.643   7.623 -0.4961 -0.7107  0.5145
 4609TIP3   OH235461   2.368   2.672   7.641 -0.4122  0.4830 -0.1952
 4609TIP3    H135462   2.349   2.762   7.613  0.0140  0.7929  0.5048
 4609TIP3    H235463   2.463   2.670   7.654 -0.6181  0.4443  1.5215
 4610TIP3   OH235464   0.922   1.134   8.087  0.3820  0.0462  0.4531
 4610TIP3    H135465   0.882   1.047   8.094 -0.2857  0.3438  0.4883
 4610TIP3    H235466   0.874   1.187   8.151  1.8116  0.0807  1.5364
 4611TIP3   OH235467   0.834   4.718   8.886  0.9516  0.1015 -0.0744
 4611TIP3    H135468   0.828   4.789   8.950  2.1547 -1.1595  1.5325
 4611TIP3    H235469   0.928   4.701   8.878  1.0699  1.7018 -3.9788
 4612TIP3   OH235470   2.585   3.063   8.792  0.3078  0.5630 -0.0733
 4612TIP3    H135471   2.633   3.083   8.712  3.5349 -1.9682  0.9945
 4612TIP3    H235472   2.560   2.971   8.783 -1.2741  0.8532  0.9393
 4613TIP3   OH235473   2.689   6.100   2.083  0.5185 -0.3925  0.1800
 4613TIP3    H135474   2.668   6.015   2.120  0.5491 -1.2604 -1.6710
 4613TIP3    H235475   2.605   6.138   2.058  0.6029 -0.6381 -0.5146
 4614TIP3   OH235476   1.304   3.492   1.000  0.4929 -0.5071  0.7375
 4614TIP3    H135477   1.361   3.485   1.077  1.7009 -1.2092 -0.1977
 4614TIP3    H235478   1.334   3.571   0.955 -0.1110 -0.1839  0.8931
 4615TIP3   OH235479   5.240   4.382   7.644 -0.3928 -0.2529 -0.6546
 4615TIP3    H135480   5.314   4.352   7.591  0.1666 -2.4865  1.2201
 4615TIP3    H235481   5.178   4.309   7.642 -0.8652  0.0784  0.7667
 4616TIP3   OH235482   0.491   4.505   8.202 -0.1989  0.1320  0.1453
 4616TIP3    H135483   0.577   4.541   8.179  0.7661 -2.5965 -0.9493
 4616TIP3    H235484   0.511   4.429   8.257 -1.8781 -0.7471 -0.3900
 4617TIP3   OH235485   4.636   2.845   7.487 -0.5072 -0.4152  0.4126
 4617TIP3    H135486   4.606   2.803   7.407 -1.5562  0.3748  0.3608
 4617TIP3    H235487   4.683   2.923   7.457 -0.8502 -0.1500  0.5530
 4618TIP3   OH235488   4.141   0.360   1.386  0.2796  0.2194 -0.3008
 4618TIP3    H135489   4.216   0.338   1.441 -0.9009 -0.9569  0.9294
 4618TIP3    H235490   4.167   0.439   1.339  0.6480  2.5232  3.4214
 4619TIP3   OH235491   2.559   0.306   1.233  0.2618  0.2451  0.6336
 4619TIP3    H135492   2.608   0.349   1.304  0.8038  0.1689  0.3126
 4619TIP3    H235493   2.624   0.294   1.163 -0.3436  0.6131 -0.0033
 4620TIP3   OH235494   3.165   6.542   1.378  0.1802  0.8110  0.0254
 4620TIP3    H135495   3.189   6.559   1.469  0.3201  1.2128 -0.0827
 4620TIP3    H235496   3.085   6.594   1.364 -0.3712  0.0178  0.1856
 4621TIP3   OH235497   2.520   4.332   7.058 -0.2987  0.0669  0.0749
 4621TIP3    H135498   2.568   4.271   7.002 -2.3333 -0.4334 -1.2292
 4621TIP3    H235499   2.583   4.401   7.079  1.2920 -1.1458 -0.5672
 4622TIP3   OH235500   2.544   4.418   7.568  0.4552 -0.0621 -0.3630
 4622TIP3    H135501   2.537   4.392   7.476 -1.8421 -0.6722 -0.0888
 4622TIP3    H235502   2.637   4.408   7.589  1.0259  0.0097 -2.5757
 4623TIP3   OH235503   5.320   4.466   0.725  0.8262  0.0116  0.0781
 4623TIP3    H135504   5.250   4.403   0.707  0.4417  0.5581 -0.3881
 4623TIP3    H235505   5.339   4.456   0.818 -0.1693  0.1507  0.3111
 4624TIP3   OH235506   1.430   2.002   1.996  0.1126  0.3028 -0.0294
 4624TIP3    H135507   1.344   1.989   2.036 -0.1681  0.8895 -0.4311
 4624TIP3    H235508   1.419   1.975   1.904  0.7235 -0.9350  0.2353
 4625TIP3   OH235509   2.523   0.516   8.685  0.1390  0.3174 -0.4999
 4625TIP3    H135510   2.467   0.481   8.616 -1.3018  2.8191 -0.7203
 4625TIP3    H235511   2.611   0.482   8.664 -0.3493  0.4854 -3.2122
 4626TIP3   OH235512   1.812   0.205   8.702 -0.4005 -0.0758  0.3822
 4626TIP3    H135513   1.901   0.221   8.733 -0.7462 -0.4095  1.6031
 4626TIP3    H235514   1.756   0.233   8.775 -1.2381 -1.1120  0.1575
 4627TIP3   OH235515   0.563   0.660   8.387 -0.1269 -0.1562 -0.0354
 4627TIP3    H135516   0.508   0.676   8.464  2.0456  0.6029  1.4486
 4627TIP3    H235517   0.581   0.566   8.390  1.5021  0.1464  1.5828
 4628TIP3   OH235518   0.284   4.486   0.560  0.7281  0.1657  0.5977
 4628TIP3    H135519   0.311   4.564   0.607  2.5170 -0.0807  0.0732
 4628TIP3    H235520   0.190   4.498   0.545  0.9072  2.0841  0.7364
 4629TIP3   OH235521   0.000   0.164   7.226  0.0445  0.1283  0.3281
 4629TIP3    H135522   0.080   0.217   7.229  0.5467 -0.4783 -1.2018
 4629TIP3    H235523   0.032   0.074   7.225 -0.7781 -0.2474  2.2372
 4630TIP3   OH235524   6.564   1.620   8.326 -0.3635 -0.2332 -0.0899
 4630TIP3    H135525   6.480   1.606   8.282 -0.2365  0.8684 -0.7291
 4630TIP3    H235526   6.554   1.704   8.370 -0.4177 -1.2296  1.8897
 4631TIP3   OH235527   3.754   0.241   8.128 -0.3046  0.2491  0.6512
 4631TIP3    H135528   3.842   0.242   8.090 -1.0554 -1.1248 -1.3469
 4631TIP3    H235529   3.734   0.148   8.139 -1.0955  0.5735  2.1332
 4632TIP3   OH235530   1.811   1.155   0.648 -0.0830 -0.9351  0.1700
 4632TIP3    H135531   1.730   1.127   0.690  0.4638 -2.0611  0.5070
 4632TIP3    H235532   1.881   1.121   0.705  0.6568  1.8233  1.0838
 4633TIP3   OH235533   1.377   0.035   8.037  0.5996  0.2596  0.7318
 4633TIP3    H135534   1.293   0.080   8.034  0.3536 -0.0939  1.6651
 4633TIP3    H235535   1.433   0.092   8.090  0.9253  0.4493  0.1896
 4634TIP3   OH235536   4.423   6.246   0.928  0.1277 -0.3283  0.0322
 4634TIP3    H135537   4.342   6.219   0.886 -0.2930 -1.0696  1.2453
 4634TIP3    H235538   4.490   6.187   0.893 -0.3503 -1.4227  0.8863
 4635TIP3   OH235539   0.101   6.648   0.889 -0.0537 -0.3011  0.0869
 4635TIP3    H135540   0.095   6.735   0.850 -1.4334 -0.0522  0.7831
 4635TIP3    H235541   0.131   6.663   0.978 -1.3079 -0.4142  0.5481
 4636TIP3   OH235542   5.698   1.334   0.731  0.1704  0.3710 -0.2864
 4636TIP3    H135543   5.640   1.277   0.781  0.3515  1.1997  0.9155
 4636TIP3    H235544   5.640   1.388   0.678 -0.1259  0.6078  0.2690
 4637TIP3   OH235545   4.508   0.698   8.572 -0.0517  0.0062 -0.3612
 4637TIP3    H135546   4.488   0.614   8.530  1.0276 -0.6122  0.3233
 4637TIP3    H235547   4.602   0.708   8.562 -0.3161  1.7962 -1.5932
 4638TIP3   OH235548   2.319   2.195   1.674 -0.1736 -0.0831  0.2993
 4638TIP3    H135549   2.379   2.211   1.602  0.4714  0.8941  1.0411
 4638TIP3    H235550   2.274   2.279   1.688 -1.3061 -0.6329  0.1387
 4639TIP3   OH235551   3.518   6.247   6.980  0.7330 -0.5581  0.6460
 4639TIP3    H135552   3.471   6.188   7.038  1.0594  0.3743  1.9050
 4639TIP3    H235553   3.460   6.323   6.972  0.5604 -0.7931 -0.5063
 4640TIP3   OH235554   5.874   3.205   1.642  0.8524  0.3850 -0.1556
 4640TIP3    H135555   5.815   3.229   1.713  1.2098  2.9085 -0.6291
 4640TIP3    H235556   5.948   3.163   1.685 -1.2859 -3.3284  0.4373
 4641TIP3   OH235557   5.839   3.361   0.180 -0.6524  0.4794  0.4208
 4641TIP3    H135558   5.817   3.287   0.123  0.0038 -0.6602  1.6003
 4641TIP3    H235559   5.820   3.438   0.127 -1.3434 -0.5263 -0.8534
 4642TIP3   OH235560   3.041   3.538   6.666 -0.3459 -0.7243  0.0682
 4642TIP3    H135561   2.971   3.591   6.703  0.8873 -0.1016  1.6473
 4642TIP3    H235562   2.999   3.456   6.640 -2.1229  0.6263 -1.5765
 4643TIP3   OH235563   5.969   0.140   0.081  0.2619 -0.1738  0.3385
 4643TIP3    H135564   6.012   0.167  -0.001  0.7865 -0.6407  0.4527
 4643TIP3    H235565   5.948   0.047   0.067 -2.0554  0.3875 -0.2868
 4644TIP3   OH235566   2.605   1.174   7.264  0.0286 -0.3521 -0.2768
 4644TIP3    H135567   2.630   1.261   7.295  0.0271 -0.1614 -0.8012
 4644TIP3    H235568   2.510   1.170   7.279  0.1985 -0.7076  0.8089
 4645TIP3   OH235569   3.911   2.800   8.861  0.3533  0.2318 -0.1917
 4645TIP3    H135570   3.937   2.790   8.770 -1.5684 -0.7307 -0.7031
 4645TIP3    H235571   3.923   2.714   8.899 -1.0842 -0.0146 -0.2196
 4646TIP3   OH235572   0.132   0.125   8.862 -0.4800 -0.4248  0.0118
 4646TIP3    H135573   0.150   0.032   8.851 -0.8438 -0.4315 -0.5884
 4646TIP3    H235574   0.197   0.155   8.925  0.0342 -0.9524 -0.2594
 4647TIP3   OH235575   0.374   5.259   7.159  0.0273 -0.3062  0.1279
 4647TIP3    H135576   0.469   5.263   7.168  0.0490  0.1610 -0.2493
 4647TIP3    H235577   0.349   5.347   7.130 -0.5930 -0.2226  0.8871
 4648TIP3   OH235578   4.383   0.648   8.809  0.6201  0.2708 -0.3076
 4648TIP3    H135579   4.402   0.676   8.719 -0.4672  1.2449 -0.2501
 4648TIP3    H235580   4.310   0.703   8.837  2.9207  2.3299  2.3087
 4649TIP3   OH235581   5.013   5.877   7.646  0.0839 -0.9030 -0.4346
 4649TIP3    H135582   5.056   5.813   7.703  0.3353  0.2860  0.7688
 4649TIP3    H235583   5.051   5.860   7.559  1.4721 -1.2376  0.2003
 4650TIP3   OH235584   6.679   5.487   8.466  0.6111  0.5604  0.3485
 4650TIP3    H135585   6.759   5.489   8.413  0.3241  0.8560 -0.0842
 4650TIP3    H235586   6.702   5.435   8.542  0.8704 -0.3392 -0.3283
 4651TIP3   OH235587   2.326   1.901   2.738  0.4284  0.4219  0.6716
 4651TIP3    H135588   2.409   1.857   2.760  1.0824  1.0144 -0.4797
 4651TIP3    H235589   2.350   1.964   2.670 -1.4684 -1.7232 -2.2717
 4652TIP3   OH235590   1.752   4.984   7.536  0.1327  0.2603 -0.5018
 4652TIP3    H135591   1.722   4.946   7.618  1.0542 -0.4069 -0.4642
 4652TIP3    H235592   1.711   4.931   7.468  0.7782 -0.3145 -0.4530
 4653TIP3   OH235593   5.079   3.171   2.433 -0.2491  0.0146 -0.6926
 4653TIP3    H135594   5.033   3.217   2.363 -0.0767 -0.5649 -1.1885
 4653TIP3    H235595   5.141   3.236   2.467 -2.0426  1.1383  0.6379
 4654TIP3   OH235596   0.849   5.661   8.153 -0.1601 -0.1525 -0.0138
 4654TIP3    H135597   0.814   5.667   8.064  0.6792  0.0464 -0.3391
 4654TIP3    H235598   0.844   5.750   8.187 -0.5351 -0.2389  0.1642
 4655TIP3   OH235599   1.321   0.376   7.578 -0.2503 -0.7775  0.0283
 4655TIP3    H135600   1.299   0.364   7.670  0.1863 -0.9511  0.1097
 4655TIP3    H235601   1.405   0.422   7.578 -0.5353 -0.2408 -0.2848
 4656TIP3   OH235602   0.516   1.364   2.121  0.6543 -0.9320  0.3899
 4656TIP3    H135603   0.598   1.348   2.168  0.3090 -2.8505  0.4395
 4656TIP3    H235604   0.472   1.279   2.120 -0.6255 -0.3067 -1.0001
 4657TIP3   OH235605   1.304   4.822   7.954 -0.0124  0.7373 -0.0193
 4657TIP3    H135606   1.219   4.864   7.954  0.3150  1.4450  1.2299
 4657TIP3    H235607   1.318   4.796   8.045  0.4832 -0.6773 -0.4702
 4658TIP3   OH235608   1.912   0.320   8.982 -0.0780  0.2574 -0.3568
 4658TIP3    H135609   1.944   0.249   8.927 -2.3705 -1.5661  0.5048
 4658TIP3    H235610   1.960   0.311   9.064 -0.8388 -0.8000 -0.0031
 4659TIP3   OH235611   3.509   1.019   1.236 -0.7661  0.2833 -0.3370
 4659TIP3    H135612   3.604   1.014   1.239 -0.7675  0.6276  1.7256
 4659TIP3    H235613   3.485   0.971   1.157  1.0464 -0.8329 -0.2678
 4660TIP3   OH235614   6.512   5.952   7.946  0.1113 -0.3058  0.5667
 4660TIP3    H135615   6.523   5.982   8.036  2.1327  1.1319 -0.0941
 4660TIP3    H235616   6.455   6.018   7.905 -0.9504 -1.0517  0.8074
 4661TIP3   OH235617   2.755   2.029   7.523 -0.0557 -0.3010 -0.3868
 4661TIP3    H135618   2.666   2.064   7.525  0.3237  0.6750  0.0113
 4661TIP3    H235619   2.748   1.947   7.474 -0.9998  0.2554 -1.2045
 4662TIP3   OH235620   1.519   3.305   7.954 -0.2761  0.3047 -0.1603
 4662TIP3    H135621   1.506   3.218   7.915 -2.9631  1.5959 -2.5361
 4662TIP3    H235622   1.460   3.306   8.030  1.0420 -0.4441  0.9230
 4663TIP3   OH235623   4.553   0.373   1.161  0.2542  0.2050  0.3399
 4663TIP3    H135624   4.622   0.341   1.103  0.8544  0.4723  0.9009
 4663TIP3    H235625   4.572   0.467   1.171  0.7582 -0.0270  1.7712
 4664TIP3   OH235626   0.616   2.857   0.625  0.3557  0.0400 -0.1656
 4664TIP3    H135627   0.535   2.884   0.668 -0.5255  0.1919 -1.8523
 4664TIP3    H235628   0.590   2.783   0.570  1.6089 -0.6550  0.1370
 4665TIP3   OH235629   2.285   3.878   8.041 -0.2746 -0.1064  0.1333
 4665TIP3    H135630   2.303   3.970   8.023 -1.1257  0.1831  0.6746
 4665TIP3    H235631   2.292   3.870   8.136  0.3336 -0.7266  0.0403
 4666TIP3   OH235632   3.407   1.083   7.550 -0.0246  0.0585  0.7118
 4666TIP3    H135633   3.387   1.057   7.640 -0.9574  0.6602  0.6979
 4666TIP3    H235634   3.377   1.174   7.545 -2.0695 -0.6183 -0.8193
 4667TIP3   OH235635   6.454   6.445   7.473 -0.1063 -0.4613 -0.3428
 4667TIP3    H135636   6.494   6.360   7.493  0.5579 -0.4928 -1.6651
 4667TIP3    H235637   6.519   6.491   7.420 -0.1562  1.1949  0.9643
 4668TIP3   OH235638   6.076   4.684   0.677 -0.6372  0.1085 -0.1826
 4668TIP3    H135639   5.999   4.627   0.676 -0.9200  0.4984 -0.6341
 4668TIP3    H235640   6.062   4.741   0.753 -0.1648 -0.6739  0.5041
 4669TIP3   OH235641   3.014   0.063   8.329 -0.0731 -0.2754  0.0463
 4669TIP3    H135642   3.022   0.074   8.235  0.2869  0.9590  0.2070
 4669TIP3    H235643   3.051  -0.024   8.346  1.0217  0.0062 -0.8027
 4670TIP3   OH235644   4.353   4.092   0.747  0.3231  0.1995  0.1751
 4670TIP3    H135645   4.433   4.138   0.718  0.3764  0.1016  0.1658
 4670TIP3    H235646   4.366   4.077   0.840  0.1549  0.5068  0.2506
 4671TIP3   OH235647   5.828   5.973   0.990  0.2972  0.0029 -0.4388
 4671TIP3    H135648   5.765   5.905   0.966  0.1908  0.5144 -1.6720
 4671TIP3    H235649   5.912   5.942   0.957  0.3653  0.1613 -0.4178
 4672TIP3   OH235650   0.127   1.853   6.794 -0.1257  0.1174  0.1130
 4672TIP3    H135651   0.203   1.907   6.771  0.6341 -0.0946  1.9667
 4672TIP3    H235652   0.065   1.868   6.722  1.3078  0.9659 -1.0180
 4673TIP3   OH235653   4.969   5.633   8.244 -0.3812  0.6701 -0.1191
 4673TIP3    H135654   4.912   5.564   8.278 -0.0911  0.4606 -0.0513
 4673TIP3    H235655   4.995   5.603   8.158 -0.5981  0.9000 -0.2675
 4674TIP3   OH235656   2.889   4.309   8.488 -0.3891 -1.0174 -0.1239
 4674TIP3    H135657   2.922   4.327   8.576  2.8431  0.9288 -1.5533
 4674TIP3    H235658   2.812   4.366   8.479 -0.4677 -0.8670  1.2176
 4675TIP3   OH235659   2.963   5.978   8.931 -0.6125  0.0788 -0.0480
 4675TIP3    H135660   2.898   6.024   8.983 -2.1848 -1.2637 -0.7253
 4675TIP3    H235661   2.940   5.998   8.841 -0.1143 -0.4549 -0.2987
 4676TIP3   OH235662   1.866   5.206   7.647  0.2991  0.2689  0.4103
 4676TIP3    H135663   1.892   5.276   7.587  1.2472  1.3487  2.0268
 4676TIP3    H235664   1.838   5.135   7.589  3.6986  0.2466 -1.4770
 4677TIP3   OH235665   1.175   6.522   8.266 -0.6538  0.1932  0.1498
 4677TIP3    H135666   1.216   6.508   8.180  0.4488 -0.5870  0.7688
 4677TIP3    H235667   1.197   6.443   8.316 -0.8183  0.8652  1.3166
 4678TIP3   OH235668   6.493   0.001   0.547  0.0737 -0.4908 -0.1391
 4678TIP3    H135669   6.564  -0.053   0.513  1.6356  0.7042  1.0734
 4678TIP3    H235670   6.453  -0.051   0.617 -0.1930 -1.1196 -0.7492
 4679TIP3   OH235671   3.600   2.457   0.667  0.7176  0.3552 -0.2029
 4679TIP3    H135672   3.619   2.527   0.605  1.5218 -0.0721 -0.4461
 4679TIP3    H235673   3.567   2.503   0.745 -2.2120  0.7938 -1.5873
 4680TIP3   OH235674   2.784   2.281   0.749 -0.1226  0.7428 -0.2571
 4680TIP3    H135675   2.786   2.376   0.747 -1.8074  0.8116 -0.6774
 4680TIP3    H235676   2.786   2.255   0.656  1.5993  0.2927 -0.1226
 4681TIP3   OH235677   2.900   1.312   0.529 -0.6132  0.5910 -0.3561
 4681TIP3    H135678   2.956   1.256   0.474  1.3751  2.1530 -0.0509
 4681TIP3    H235679   2.961   1.376   0.567 -2.3690  1.2570  1.4885
 4682TIP3   OH235680   5.082   3.218   8.348  0.3099 -0.5033 -0.4464
 4682TIP3    H135681   5.172   3.197   8.373  0.4310  1.6218  1.1895
 4682TIP3    H235682   5.049   3.270   8.421 -3.0682 -3.0756  0.0893
 4683TIP3   OH235683   0.207   1.262   2.363 -0.1674 -0.2639  0.0398
 4683TIP3    H135684   0.302   1.249   2.374 -0.5234 -1.1789  3.2950
 4683TIP3    H235685   0.182   1.204   2.292  1.8671  1.0696 -1.8873
 4684TIP3   OH235686   3.942   2.364   0.059  0.1191 -0.3197 -0.2513
 4684TIP3    H135687   3.928   2.269   0.066 -1.4403 -0.1944 -1.0909
 4684TIP3    H235688   4.017   2.382   0.116  0.5225 -2.0712 -0.1763
 4685TIP3   OH235689   0.260   4.250   7.521  0.6037 -0.0046 -0.0131
 4685TIP3    H135690   0.298   4.214   7.441  0.7084 -1.3975  0.6432
 4685TIP3    H235691   0.195   4.313   7.489  2.0252  0.9479 -1.1556
 4686TIP3   OH235692   1.755   0.347   8.431 -0.5742 -0.0853 -0.3126
 4686TIP3    H135693   1.807   0.291   8.488  0.9684  0.5932 -0.9582
 4686TIP3    H235694   1.709   0.406   8.490  1.6945  1.2182  0.3076
 4687TIP3   OH235695   5.086   6.480   8.943  0.7834  0.1248 -0.2756
 4687TIP3    H135696   4.992   6.460   8.939  0.8755 -0.2014 -1.1820
 4687TIP3    H235697   5.094   6.562   8.895  1.3256 -1.3789 -2.9446
 4688TIP3   OH235698   4.543   0.166   2.514  0.4618  0.0843  0.0155
 4688TIP3    H135699   4.491   0.202   2.586  1.0311 -0.2236  0.5977
 4688TIP3    H235700   4.590   0.241   2.478  0.5613  0.1597  0.2992
 4689TIP3   OH235701   1.216   3.104   0.824 -0.0785 -0.5812  0.0292
 4689TIP3    H135702   1.241   3.041   0.757 -1.9512 -0.4477 -0.8573
 4689TIP3    H235703   1.222   3.056   0.906  1.7543 -0.8974 -0.2657
 4690TIP3   OH235704   2.084   2.817   1.293 -0.1519 -0.6696 -0.3940
 4690TIP3    H135705   1.994   2.785   1.304 -0.7614  1.1898  0.4257
 4690TIP3    H235706   2.110   2.783   1.208 -2.5908  0.8004 -1.8536
 4691TIP3   OH235707   5.323   4.937   2.258  0.6576 -0.4455  0.1386
 4691TIP3    H135708   5.231   4.951   2.233  0.6889 -0.2236  0.1458
 4691TIP3    H235709   5.344   5.012   2.315  1.1089 -0.0248 -0.5720
 4692TIP3   OH235710   6.290   3.162   0.066 -0.0706  0.4103 -0.3700
 4692TIP3    H135711   6.357   3.181   0.132  0.0332 -1.1150  0.0194
 4692TIP3    H235712   6.338   3.118  -0.004 -0.6643 -0.9008  0.0120
 4693TIP3   OH235713   1.249   3.218   7.415  0.4584  0.0397  0.2205
 4693TIP3    H135714   1.299   3.140   7.437  0.1137 -0.0707  0.6301
 4693TIP3    H235715   1.177   3.186   7.360  0.5865  0.1380 -0.0081
 4694TIP3   OH235716   5.178   6.059   8.219 -0.0689  0.8346  0.8288
 4694TIP3    H135717   5.083   6.046   8.222  0.1889 -1.5920  0.4885
 4694TIP3    H235718   5.192   6.145   8.257 -2.4341  1.3885  0.5682
 4695TIP3   OH235719   1.917   5.316   8.326 -0.2507 -0.8001 -0.5228
 4695TIP3    H135720   1.967   5.234   8.332 -1.1470 -1.3796 -0.7136
 4695TIP3    H235721   1.826   5.289   8.341 -0.2764  0.5773  2.3451
 4696TIP3   OH235722   5.226   6.656   6.927 -0.4023  0.2485  0.3091
 4696TIP3    H135723   5.199   6.625   6.841  1.8508 -0.3192 -0.2670
 4696TIP3    H235724   5.242   6.750   6.915 -1.6106  0.5113  0.5634
 4697TIP3   OH235725   0.469   2.008   8.796 -0.3357 -0.3409 -0.3018
 4697TIP3    H135726   0.379   1.992   8.768  0.0968 -0.4342 -1.7012
 4697TIP3    H235727   0.482   1.949   8.870 -1.4321 -0.2818 -0.0441
 4698TIP3   OH235728   5.171   1.262   6.874  0.0410  0.3063 -0.4291
 4698TIP3    H135729   5.092   1.270   6.820  0.6472 -0.8313 -1.5160
 4698TIP3    H235730   5.241   1.246   6.812  0.8271 -0.6324  0.6780
 4699TIP3   OH235731   4.344   1.851   8.880 -0.4822 -0.0121 -0.1348
 4699TIP3    H135732   4.261   1.836   8.835 -2.0534 -0.3358  2.6469
 4699TIP3    H235733   4.380   1.764   8.896  0.1175  0.1028 -0.8245
 4700TIP3   OH235734   0.667   5.289   8.909  0.2494  0.2837 -0.5430
 4700TIP3    H135735   0.603   5.231   8.868 -1.9025  2.3684 -0.3799
 4700TIP3    H235736   0.674   5.257   8.999  1.1976 -1.3289 -1.1704
 4701TIP3   OH235737   0.716   0.344   0.937 -0.2257  0.0320  0.1159
 4701TIP3    H135738   0.636   0.294   0.951  0.1696 -0.8832 -0.7464
 4701TIP3    H235739   0.744   0.321   0.848  1.9831 -1.1530  1.0316
 4702TIP3   OH235740   4.673   1.006   2.260 -0.1284 -0.5419 -0.2897
 4702TIP3    H135741   4.731   1.082   2.262  0.4220 -0.9667  0.1485
 4702TIP3    H235742   4.594   1.038   2.218  0.7883 -0.2017 -1.8356
 4703TIP3   OH235743   5.560   6.075   8.350 -0.2323 -0.0359 -0.3744
 4703TIP3    H135744   5.474   6.106   8.378  0.0547  2.9584 -2.3744
 4703TIP3    H235745   5.563   6.093   8.256  1.7498 -2.2555 -0.8463
 4704TIP3   OH235746   4.482   3.582   8.879 -0.0772  0.3790 -0.4255
 4704TIP3    H135747   4.457   3.656   8.934  1.3170  0.3823  0.2671
 4704TIP3    H235748   4.424   3.587   8.804 -0.4864  1.7513 -0.0527
 4705TIP3   OH235749   5.552   4.557   1.464 -0.2139  0.0098 -0.0373
 4705TIP3    H135750   5.542   4.626   1.399 -0.1774  1.2539  1.2307
 4705TIP3    H235751   5.635   4.515   1.441 -1.0220 -0.7499 -1.8074
 4706TIP3   OH235752   4.264   5.867   0.390  0.1311  0.2499  0.1255
 4706TIP3    H135753   4.268   5.877   0.485 -0.4022 -0.4657  0.2344
 4706TIP3    H235754   4.232   5.778   0.377  1.2123 -0.0292 -0.7423
 4707TIP3   OH235755   0.206   3.359   2.530 -0.1567  0.1877 -0.1000
 4707TIP3    H135756   0.172   3.274   2.556  1.5035 -0.7068 -0.7520
 4707TIP3    H235757   0.234   3.400   2.612 -0.9965  0.1441  0.2190
 4708TIP3   OH235758   1.294   0.534   0.118 -0.4373  0.0078 -1.1200
 4708TIP3    H135759   1.327   0.621   0.138 -1.6310 -0.1317  1.9449
 4708TIP3    H235760   1.272   0.495   0.203 -1.8070 -2.5420 -2.4818
 4709TIP3   OH235761   4.224   4.005   6.676  0.2838 -0.1999 -0.0700
 4709TIP3    H135762   4.254   3.936   6.616  0.2796  0.2230 -0.5699
 4709TIP3    H235763   4.138   3.976   6.705  0.3557 -0.4889 -0.1472
 4710TIP3   OH235764   3.223   4.759   1.516 -0.8108  0.5190 -0.1033
 4710TIP3    H135765   3.151   4.797   1.568 -2.0097 -1.6202 -0.0909
 4710TIP3    H235766   3.192   4.766   1.425 -0.4828  0.6746 -0.2034
 4711TIP3   OH235767   0.082   2.917   6.878  0.5582 -0.5095 -0.3887
 4711TIP3    H135768   0.095   2.941   6.786  1.8732  0.1358 -0.0587
 4711TIP3    H235769  -0.007   2.946   6.898 -0.2154 -1.7777 -1.7804
 4712TIP3   OH235770   4.864   3.785   1.348  0.0152 -0.0529 -0.3921
 4712TIP3    H135771   4.922   3.796   1.273 -0.0315 -0.7672 -0.5469
 4712TIP3    H235772   4.776   3.791   1.312 -0.0112 -0.9129 -0.4915
 4713TIP3   OH235773   3.394   3.727   0.628  0.1537 -0.0703  0.0092
 4713TIP3    H135774   3.469   3.785   0.641 -0.0634 -0.1199  1.5774
 4713TIP3    H235775   3.349   3.764   0.551  0.0570  1.8358  0.9178
 4714TIP3   OH235776   3.549   3.732   8.101  0.6418  0.0805  0.2162
 4714TIP3    H135777   3.609   3.660   8.119  0.5703  0.5942  2.8879
 4714TIP3    H235778   3.511   3.754   8.186 -0.8315  1.9808 -0.8420
 4715TIP3   OH235779   6.444   4.620   0.294  0.1243 -0.1505  0.2331
 4715TIP3    H135780   6.367   4.609   0.238 -0.8172  0.0524  1.4535
 4715TIP3    H235781   6.422   4.693   0.351  1.0960 -0.3057  0.8297
 4716TIP3   OH235782   6.461   2.299   7.101 -0.0664 -0.0432  0.5527
 4716TIP3    H135783   6.485   2.235   7.034 -1.7437 -1.7534  1.5062
 4716TIP3    H235784   6.515   2.276   7.176  0.8011  1.0027  0.2858
 4717TIP3   OH235785   0.855   4.311   2.724 -0.3286  0.2561 -0.0548
 4717TIP3    H135786   0.813   4.311   2.810 -1.2783 -1.3145 -0.4799
 4717TIP3    H235787   0.804   4.374   2.672 -1.7907 -1.1446 -0.3700
 4718TIP3   OH235788   5.550   1.449   9.039 -0.1312  0.0205 -1.2801
 4718TIP3    H135789   5.496   1.517   9.001 -0.3023 -0.3534 -1.7052
 4718TIP3    H235790   5.603   1.495   9.105 -1.4004  0.2800 -0.4185
 4719TIP3   OH235791   4.992   4.543   2.099 -0.1110 -0.2293  0.1914
 4719TIP3    H135792   4.920   4.500   2.146 -0.8874  0.8240 -0.0029
 4719TIP3    H235793   5.042   4.586   2.168  0.1453 -0.6802  0.2913
 4720TIP3   OH235794   1.933   2.351   1.461  0.1432  0.2869  0.1913
 4720TIP3    H135795   1.947   2.433   1.509 -0.2657  0.7303 -0.4399
 4720TIP3    H235796   1.845   2.359   1.424  0.2007 -0.3322 -0.0938
 4721TIP3   OH235797   2.083   2.573   0.045  0.3851  0.1979  0.2375
 4721TIP3    H135798   2.018   2.502   0.049 -0.3142  0.6802 -1.4462
 4721TIP3    H235799   2.031   2.653   0.057  0.7560  0.5547 -0.4867
 4722TIP3   OH235800   3.995   3.043   9.028 -0.2503  0.3334  0.1999
 4722TIP3    H135801   3.979   3.118   8.970  0.1737 -0.8375 -1.5082
 4722TIP3    H235802   3.947   2.971   8.987 -0.8631 -0.3084  1.9503
 4723TIP3   OH235803   0.311   6.288   0.900 -1.0393  0.2067  0.4148
 4723TIP3    H135804   0.396   6.280   0.855 -0.9630 -1.4900  0.7921
 4723TIP3    H235805   0.269   6.362   0.857 -0.4361 -0.5225 -1.5866
 4724TIP3   OH235806   5.984   3.757   7.085 -0.0037  0.4312  0.5235
 4724TIP3    H135807   5.981   3.685   7.148  0.3513 -0.0793 -0.0327
 4724TIP3    H235808   6.067   3.745   7.039 -0.7447  0.1291 -0.8000
 4725TIP3   OH235809   6.633   5.009   8.701 -0.2598  0.1350 -0.1705
 4725TIP3    H135810   6.591   4.949   8.762 -1.1403  0.1965 -0.6974
 4725TIP3    H235811   6.656   5.086   8.754 -0.5691 -0.0137  0.1762
 4726TIP3   OH235812   6.633   5.623   1.647 -0.1845 -0.1306 -0.5335
 4726TIP3    H135813   6.689   5.675   1.590 -0.7072  0.2297 -0.7298
 4726TIP3    H235814   6.658   5.649   1.736  0.4701 -0.5212 -0.6020
 4727TIP3   OH235815   1.025   3.925   6.951  0.0343  0.0921 -0.3688
 4727TIP3    H135816   1.057   3.946   7.039 -1.0279  0.2883 -0.0241
 4727TIP3    H235817   0.940   3.969   6.945 -1.0193 -1.8983 -0.6196
 4728TIP3   OH235818   4.674   4.839   1.233 -0.3398 -0.0416 -0.3951
 4728TIP3    H135819   4.760   4.880   1.221 -0.3365 -0.1137 -0.6347
 4728TIP3    H235820   4.619   4.908   1.271  0.0981 -0.3053  0.7305
 4729TIP3   OH235821   0.705   2.014   1.266  0.3654  0.0048 -0.6767
 4729TIP3    H135822   0.681   2.019   1.358  3.2420 -0.4462  0.2122
 4729TIP3    H235823   0.769   2.084   1.253 -0.4566  0.4811 -2.5350
 4730TIP3   OH235824   3.613   2.321   7.292 -0.1892 -0.3141  0.2399
 4730TIP3    H135825   3.577   2.295   7.207 -0.9439 -0.6287  0.6490
 4730TIP3    H235826   3.628   2.415   7.284 -0.4805 -0.2983 -0.1519
 4731TIP3   OH235827   2.731   3.910   0.580  0.2694 -0.1031 -0.3037
 4731TIP3    H135828   2.757   3.918   0.488  1.8739  0.7404  0.1837
 4731TIP3    H235829   2.731   4.000   0.613  0.9134 -0.4935  0.8211
 4732TIP3   OH235830   2.475   4.512   8.054  0.6000  0.4179 -0.3566
 4732TIP3    H135831   2.568   4.487   8.062  1.0234  2.0967  0.6389
 4732TIP3    H235832   2.464   4.579   8.121 -1.4764 -0.0579 -0.1801
 4733TIP3   OH235833   0.945   2.137   7.184 -1.1201 -0.1584 -0.3224
 4733TIP3    H135834   0.982   2.222   7.210  1.2314 -1.3022  0.3997
 4733TIP3    H235835   0.925   2.148   7.091  0.7429  0.7247 -0.6845
 4734TIP3   OH235836   0.477   3.327   2.369  0.8049 -0.2852 -0.0327
 4734TIP3    H135837   0.403   3.345   2.427  0.4440 -1.7616  0.0194
 4734TIP3    H235838   0.554   3.338   2.423  0.5350 -0.3124  0.3605
 4735TIP3   OH235839   2.337   5.688   8.729 -0.2208 -0.0407 -0.6570
 4735TIP3    H135840   2.261   5.724   8.684 -0.0334 -0.5099 -1.3862
 4735TIP3    H235841   2.341   5.597   8.699 -0.5383 -0.6075  0.9244
 4736TIP3   OH235842   1.014   1.870   0.765 -0.3230  0.3874  0.1935
 4736TIP3    H135843   0.993   1.833   0.851  1.7602 -0.8272  0.2372
 4736TIP3    H235844   0.974   1.810   0.702 -2.1517  1.4678  0.2610
 4737TIP3   OH235845   6.723   1.813   7.521  0.0284  0.3598 -0.2611
 4737TIP3    H135846   6.633   1.782   7.535  0.1324 -0.8697 -1.9579
 4737TIP3    H235847   6.778   1.736   7.536  1.0762  1.5273  2.6601
 4738TIP3   OH235848   5.965   3.296   6.482  0.4787  0.3406 -0.7998
 4738TIP3    H135849   5.881   3.282   6.438  0.0352  2.5365 -0.7640
 4738TIP3    H235850   6.026   3.237   6.437 -0.8427 -0.5410 -1.5096
 4739TIP3   OH235851   0.174   2.764   0.843  0.0123 -0.2107  0.6116
 4739TIP3    H135852   0.159   2.726   0.929 -1.7447 -1.2086 -0.0679
 4739TIP3    H235853   0.092   2.809   0.822  0.2476 -0.3534 -0.6993
 4740TIP3   OH235854   2.861   5.967   8.638 -0.0574 -0.1589 -0.2732
 4740TIP3    H135855   2.791   6.007   8.586  0.2145  1.0428  0.2507
 4740TIP3    H235856   2.937   5.967   8.579 -1.2118 -4.8152 -2.2252
 4741TIP3   OH235857   0.550   1.785   7.977  0.2058 -0.4587 -0.1924
 4741TIP3    H135858   0.640   1.807   7.954 -0.4046  1.1867 -1.1659
 4741TIP3    H235859   0.553   1.691   7.997  2.1870 -0.3673  0.1566
 4742TIP3   OH235860   1.113   1.838   6.776  0.2433  0.0220  0.3299
 4742TIP3    H135861   1.087   1.918   6.821  0.0315  0.8357 -1.1694
 4742TIP3    H235862   1.118   1.863   6.684 -0.4263 -1.8393 -0.2571
 4743TIP3   OH235863   2.297   1.486   0.785  0.4772  0.4032 -0.1400
 4743TIP3    H135864   2.336   1.476   0.699 -1.9086  0.0577 -1.2756
 4743TIP3    H235865   2.283   1.396   0.816  1.9731  0.5133  0.9950
 4744TIP3   OH235866   2.277   1.102   0.518 -0.2615  0.9619 -0.1331
 4744TIP3    H135867   2.188   1.095   0.551  0.1522 -0.2478  0.7966
 4744TIP3    H235868   2.267   1.126   0.426 -1.6154 -1.0281 -0.5544
 4745TIP3   OH235869   1.535   5.671   8.146 -0.2250  0.3123  0.6481
 4745TIP3    H135870   1.541   5.743   8.209  2.3401  0.1344  0.7017
 4745TIP3    H235871   1.525   5.713   8.061 -3.0581  0.5673  1.0198
 4746TIP3   OH235872   4.417   1.867   7.923  0.5397  0.2503 -0.6248
 4746TIP3    H135873   4.454   1.894   8.007 -0.2936 -0.1725 -0.1109
 4746TIP3    H235874   4.352   1.800   7.946  1.8794 -1.5189 -1.7859
 4747TIP3   OH235875   2.314   2.294   0.559  0.2219  0.2035 -0.1636
 4747TIP3    H135876   2.372   2.278   0.633 -0.3985 -1.3341  0.0262
 4747TIP3    H235877   2.371   2.291   0.482  0.3802 -1.6531 -0.0130
 4748TIP3   OH235878   4.370   1.805   7.524  0.9494  0.6720  0.4794
 4748TIP3    H135879   4.415   1.880   7.562  1.1454  0.6874  0.2224
 4748TIP3    H235880   4.278   1.830   7.524  0.5918 -0.3645  3.3427
 4749TIP3   OH235881   5.827   4.730   2.158 -0.6140 -0.2130 -0.2485
 4749TIP3    H135882   5.774   4.760   2.231 -0.0807 -1.2118  0.5852
 4749TIP3    H235883   5.789   4.772   2.081 -1.9093 -0.0442  0.4588
 4750TIP3   OH235884   5.333   1.344   8.154 -0.4648 -0.0600 -0.3167
 4750TIP3    H135885   5.415   1.315   8.114 -0.7425 -0.9470 -0.2501
 4750TIP3    H235886   5.329   1.438   8.134  1.0819  0.2251  0.5852
 4751TIP3   OH235887   5.976   6.012   8.010  0.4777  0.1355  0.2423
 4751TIP3    H135888   5.915   6.037   8.080 -0.2027 -0.7137 -0.0251
 4751TIP3    H235889   6.062   6.042   8.041  0.4342 -1.4974  2.1595
 4752TIP3   OH235890   5.360   3.398   0.679  0.3017 -0.3666 -0.3542
 4752TIP3    H135891   5.264   3.394   0.689  0.3068 -1.3124 -0.6535
 4752TIP3    H235892   5.387   3.307   0.667  1.2552 -0.1125 -0.1934
 4753TIP3   OH235893   1.472   0.657   0.570 -0.0885  0.4295  0.3715
 4753TIP3    H135894   1.400   0.719   0.562  1.5495  2.3693 -0.3315
 4753TIP3    H235895   1.537   0.702   0.623  0.5464 -1.3571  1.2047
 4754TIP3   OH235896   3.091   3.780   6.300 -0.6120  0.5910 -0.5436
 4754TIP3    H135897   3.001   3.748   6.301  0.4675 -2.9867 -1.3005
 4754TIP3    H235898   3.129   3.747   6.381  0.5385 -0.0120 -1.2857
 4755TIP3   OH235899   2.332   4.100   8.852  0.0378  0.5253 -0.0102
 4755TIP3    H135900   2.270   4.143   8.911 -0.8637 -0.0555 -0.5177
 4755TIP3    H235901   2.343   4.012   8.888  0.5164  0.5945  0.0274
 4756TIP3   OH235902   1.675   0.683   1.516  0.0190  0.0623  0.0318
 4756TIP3    H135903   1.755   0.653   1.474 -0.5562  0.2251 -1.2236
 4756TIP3    H235904   1.675   0.778   1.503 -1.0943 -0.0948 -1.3276
 4757TIP3   OH235905   1.462   3.330   1.220  0.1968  0.7967 -0.7461
 4757TIP3    H135906   1.482   3.424   1.222 -0.5466  0.9430  0.1596
 4757TIP3    H235907   1.547   3.287   1.231  0.2169  1.4047  1.9120
 4758TIP3   OH235908   2.574   5.698   1.605  0.1413  0.1529  0.4411
 4758TIP3    H135909   2.545   5.786   1.626  1.4007  1.0253 -1.1715
 4758TIP3    H235910   2.505   5.663   1.549 -0.6028 -0.0985  1.4966
 4759TIP3   OH235911   3.886   5.804   0.846 -0.0430 -0.0400  0.6212
 4759TIP3    H135912   3.897   5.899   0.852  1.8097 -0.1997  0.4726
 4759TIP3    H235913   3.965   5.768   0.887 -0.7824 -1.5315  0.8262
 4760TIP3   OH235914   1.562   4.969   9.037 -0.4571  0.5449 -0.3475
 4760TIP3    H135915   1.540   5.021   8.959 -0.3107 -0.3302 -0.9884
 4760TIP3    H235916   1.637   5.014   9.075  1.8270 -0.9546 -2.7668
 4761TIP3   OH235917   3.452   1.929   1.461 -0.5522 -0.8237  0.0360
 4761TIP3    H135918   3.465   1.882   1.543  0.2059  1.8852  1.5992
 4761TIP3    H235919   3.380   1.990   1.479 -0.9842 -0.7903 -1.6290
 4762TIP3   OH235920   5.222   2.613   8.130  0.2847  0.5309  0.0053
 4762TIP3    H135921   5.228   2.646   8.219  1.5731 -1.2586  0.6354
 4762TIP3    H235922   5.272   2.677   8.078  1.5683  0.3515  0.9619
 4763TIP3   OH235923   4.789   2.700   0.964 -0.3578  0.1226 -0.0520
 4763TIP3    H135924   4.880   2.725   0.975 -0.4350 -0.0444  1.0939
 4763TIP3    H235925   4.769   2.721   0.873  0.4139  1.4589  0.0688
 4764TIP3   OH235926   1.821   5.029   8.694 -0.4178  0.0501  0.6430
 4764TIP3    H135927   1.875   5.103   8.722 -0.8466  1.4780 -1.9653
 4764TIP3    H235928   1.883   4.964   8.663 -0.0346  1.4289 -1.7392
 4765TIP3   OH235929   1.821   1.720   8.167  0.2678 -0.6034  0.3447
 4765TIP3    H135930   1.872   1.705   8.246 -0.4996  0.2809  1.0241
 4765TIP3    H235931   1.884   1.751   8.102  0.4827  1.4405  1.4584
 4766TIP3   OH235932   5.410   2.096   2.391  0.5910  0.0457 -0.6424
 4766TIP3    H135933   5.315   2.089   2.386  0.3325 -1.1567  3.2073
 4766TIP3    H235934   5.428   2.188   2.370 -1.3053  0.2097 -1.7922
 4767TIP3   OH235935   6.593   2.063   8.596  0.4893 -0.3491  0.2037
 4767TIP3    H135936   6.676   2.017   8.611  0.3640 -0.5931  0.1573
 4767TIP3    H235937   6.599   2.141   8.651  0.3141 -0.9034  1.0226
 4768TIP3   OH235938   6.337   0.773   7.872 -0.2231 -0.5402  0.1061
 4768TIP3    H135939   6.268   0.814   7.819 -0.8438 -0.5426  0.8951
 4768TIP3    H235940   6.417   0.820   7.848 -0.4054 -0.8210 -1.1393
 4769TIP3   OH235941   2.291   2.567   8.534  0.0449 -0.4307  0.3973
 4769TIP3    H135942   2.267   2.521   8.615  0.2361 -0.3651  0.4925
 4769TIP3    H235943   2.247   2.519   8.465  2.9812 -2.9773  0.0417
 4770TIP3   OH235944   6.375   5.672   7.611 -0.7109 -0.2806  0.3965
 4770TIP3    H135945   6.326   5.644   7.689  1.8135 -0.7432  1.9325
 4770TIP3    H235946   6.429   5.745   7.643  0.3845 -0.4862 -0.9147
 4771TIP3   OH235947   5.212   2.134   0.001 -0.0245  0.2381  0.3790
 4771TIP3    H135948   5.139   2.193  -0.017 -1.4249 -1.3826  0.5834
 4771TIP3    H235949   5.216   2.076  -0.074  0.4311 -0.3077  0.8155
 4772TIP3   OH235950   3.633   0.297   1.007 -0.2155  0.0867  0.1401
 4772TIP3    H135951   3.631   0.213   1.052  0.9251  0.8550  1.7038
 4772TIP3    H235952   3.687   0.282   0.930  1.6613 -0.1685  1.4502
 4773TIP3   OH235953   6.178   6.366   0.811 -0.4239  0.0535 -1.2443
 4773TIP3    H135954   6.133   6.303   0.868 -0.1540  0.1488 -0.9250
 4773TIP3    H235955   6.243   6.313   0.765  0.6589  0.2957 -0.0629
 4774TIP3   OH235956   5.454   3.889   8.727  0.3582  0.1922 -0.0772
 4774TIP3    H135957   5.417   3.890   8.815 -1.3116 -0.3211 -0.7241
 4774TIP3    H235958   5.399   3.950   8.677  2.9680  2.6352 -0.1902
 4775TIP3   OH235959   6.652   0.309   8.918  0.0195 -0.3167 -0.3554
 4775TIP3    H135960   6.736   0.296   8.874  1.1194 -0.1714  1.5966
 4775TIP3    H235961   6.640   0.404   8.920  0.3107 -0.2908  0.2521
 4776TIP3   OH235962   5.861   4.395   7.923  0.3057  0.5533 -0.1036
 4776TIP3    H135963   5.816   4.398   7.839  0.3260  1.4659 -0.0997
 4776TIP3    H235964   5.830   4.315   7.965  0.8007 -0.2681 -1.2511
 4777TIP3   OH235965   2.931   0.274   8.576 -0.1623  0.0690 -0.2401
 4777TIP3    H135966   2.996   0.234   8.519  1.5330  3.6760 -1.1739
 4777TIP3    H235967   2.956   0.248   8.665 -0.4523 -2.4110 -0.8116
 4778TIP3   OH235968   0.499   3.535   1.618  0.0296 -0.1466 -0.3357
 4778TIP3    H135969   0.482   3.465   1.682  1.5019 -1.3204 -1.1782
 4778TIP3    H235970   0.421   3.537   1.562 -0.3927 -0.4892  0.2321
 4779TIP3   OH235971   1.858   2.560   1.209  0.9226  0.2798 -0.3460
 4779TIP3    H135972   1.866   2.605   1.125  0.6212 -2.8752 -2.2463
 4779TIP3    H235973   1.948   2.538   1.233  0.9051 -0.4765 -0.9095
 4780TIP3   OH235974   5.227   5.847   2.172  0.0880 -0.1801  0.5493
 4780TIP3    H135975   5.287   5.921   2.162 -0.2582  0.9456  4.8071
 4780TIP3    H235976   5.157   5.880   2.229 -2.8948 -2.4127 -1.5113
 4781TIP3   OH235977   5.461   3.791   8.025 -0.1123  0.0663 -0.2127
 4781TIP3    H135978   5.418   3.766   7.943  0.3629 -1.2418 -0.1039
 4781TIP3    H235979   5.415   3.741   8.092 -0.7596  1.4366  0.3946
 4782TIP3   OH235980   4.724   4.627   1.056 -0.0046 -0.9838  0.0367
 4782TIP3    H135981   4.699   4.657   0.969  0.6161 -0.6961 -0.0422
 4782TIP3    H235982   4.686   4.692   1.116  1.1342 -0.1458 -0.1213
 4783TIP3   OH235983   2.155   2.363   1.865 -0.0198 -0.3616  0.7089
 4783TIP3    H135984   2.219   2.362   1.937  1.8677 -0.6586 -0.8966
 4783TIP3    H235985   2.154   2.454   1.835  2.2011 -0.9306 -1.3562
 4784TIP3   OH235986   2.116   1.072   1.065  0.1031  0.0167  0.1414
 4784TIP3    H135987   2.167   1.147   1.035  0.3571 -0.5746 -0.9738
 4784TIP3    H235988   2.183   1.008   1.091  0.0146 -0.9560 -1.7946
 4785TIP3   OH235989   0.519   4.895   0.810 -0.2591 -0.4575  0.2068
 4785TIP3    H135990   0.518   4.977   0.860 -1.8705 -0.7415  0.6731
 4785TIP3    H235991   0.451   4.905   0.744 -0.5944 -1.4876  0.3798
 4786TIP3   OH235992   1.037   5.141   1.018 -0.4732  0.0218  0.4693
 4786TIP3    H135993   1.121   5.097   1.007 -0.3480  0.4191 -0.2474
 4786TIP3    H235994   1.055   5.212   1.080 -0.2708  0.1216  0.2976
 4787TIP3   OH235995   1.711   4.400   1.705 -0.1184 -0.8888  0.1629
 4787TIP3    H135996   1.666   4.454   1.640  2.1657 -0.7264 -1.4058
 4787TIP3    H235997   1.764   4.462   1.755 -1.0856 -1.1507  1.5615
 4788TIP3   OH235998   0.155   1.051   0.821 -0.1105  0.7474 -0.0969
 4788TIP3    H135999   0.160   1.119   0.753  0.1604  0.0650 -0.7801
 4788TIP3    H236000   0.174   0.969   0.774 -0.7352  0.1585  0.6455
 4789TIP3   OH236001   4.974   3.572   1.477 -0.2105 -0.6184  0.2705
 4789TIP3    H136002   5.037   3.607   1.539  1.4602 -1.0950 -1.0847
 4789TIP3    H236003   4.946   3.648   1.425 -1.2022 -0.3163  1.2016
 4790TIP3   OH236004   2.269   4.761   8.632  0.1752 -0.6602  0.2148
 4790TIP3    H136005   2.226   4.700   8.572  1.6811 -0.3682 -1.2454
 4790TIP3    H236006   2.360   4.729   8.638  0.5692  0.5017  0.7072
 4791TIP3   OH236007   1.016   3.774   2.379  0.5147 -0.2761  0.3576
 4791TIP3    H136008   1.007   3.865   2.350 -1.1203 -0.5886 -0.2355
 4791TIP3    H236009   1.090   3.740   2.329 -0.3111  0.0944 -1.2131
 4792TIP3   OH236010   3.131   2.190   1.766  0.0867 -0.5229 -0.6978
 4792TIP3    H136011   3.063   2.219   1.706 -0.5672  2.1578  1.1763
 4792TIP3    H236012   3.087   2.130   1.826 -0.3984  0.3614 -0.1532
 4793TIP3   OH236013   4.786   6.751   1.122  0.6149  0.3811  0.0988
 4793TIP3    H136014   4.768   6.678   1.063 -0.8310  0.3522  0.5361
 4793TIP3    H236015   4.875   6.736   1.153  0.2886 -1.3014  0.3102
 4794TIP3   OH236016   3.060   1.566   7.765  0.3435 -0.2975 -0.6209
 4794TIP3    H136017   3.055   1.615   7.847 -1.1544 -1.1638 -0.1606
 4794TIP3    H236018   3.138   1.600   7.722 -0.3130  2.1217 -0.0716
 4795TIP3   OH236019   4.743   3.113   6.606 -0.8561  0.1065 -0.0043
 4795TIP3    H136020   4.762   3.206   6.615 -1.4464  0.1931  0.4737
 4795TIP3    H236021   4.727   3.100   6.513 -0.5885  0.4489 -0.0975
 4796TIP3   OH236022   6.715   0.314   1.895 -0.0963  0.2371  0.2638
 4796TIP3    H136023   6.785   0.272   1.844 -0.3247 -0.7132  0.7127
 4796TIP3    H236024   6.759   0.349   1.972  0.6542  3.6011 -1.4939
 4797TIP3   OH236025   0.972   4.374   0.238 -0.1617 -0.2772 -0.3928
 4797TIP3    H136026   0.928   4.444   0.190 -0.8339  0.1622  0.8452
 4797TIP3    H236027   1.009   4.416   0.315 -0.2344 -1.2060  0.1635
 4798TIP3   OH236028   5.358   4.742   1.388 -0.0145 -0.5037  0.1473
 4798TIP3    H136029   5.279   4.708   1.430  0.8588 -1.2254  1.2786
 4798TIP3    H236030   5.348   4.720   1.296 -1.7573  0.6717  0.0111
 4799TIP3   OH236031   1.684   2.079   7.955 -0.0061 -0.1702  0.0979
 4799TIP3    H136032   1.648   2.072   8.044 -0.7540 -1.2515 -0.2612
 4799TIP3    H236033   1.721   1.992   7.938  0.2503  0.0722 -0.5958
 4800TIP3   OH236034   1.507   2.343   0.101 -0.3585  0.0960 -0.0651
 4800TIP3    H136035   1.551   2.267   0.063 -2.3722 -0.8996 -0.5308
 4800TIP3    H236036   1.443   2.305   0.161 -0.5330  1.4884  0.6530
 4801TIP3   OH236037   2.465   1.913   1.058  0.0943 -0.1576  0.3634
 4801TIP3    H136038   2.508   1.853   0.998 -0.7690 -0.4419  0.0164
 4801TIP3    H236039   2.374   1.885   1.059  0.0884 -0.1569  1.8038
 4802TIP3   OH236040   6.504   3.269   1.379  0.0027  0.7783 -0.0126
 4802TIP3    H136041   6.594   3.290   1.404  0.5428  0.9485 -1.9864
 4802TIP3    H236042   6.478   3.338   1.319 -1.7816  1.1856  1.1449
 4803TIP3   OH236043   5.736   0.519   8.654  0.1952  0.4759  0.1790
 4803TIP3    H136044   5.654   0.473   8.671 -0.0397  0.9797  0.4390
 4803TIP3    H236045   5.728   0.548   8.563  0.4891 -0.2845 -0.0913
 4804TIP3   OH236046   2.316   1.580   7.403  0.3249 -0.4758 -0.1874
 4804TIP3    H136047   2.366   1.638   7.460  0.9076 -1.4176  0.2869
 4804TIP3    H236048   2.252   1.637   7.361 -0.3348  0.2145  1.6263
 4805TIP3   OH236049   3.613   4.597   2.134 -0.8000 -0.1278 -0.3571
 4805TIP3    H136050   3.535   4.641   2.168 -1.7610 -1.3043 -0.9380
 4805TIP3    H236051   3.578   4.535   2.069  0.3898 -2.3471  1.0230
 4806TIP3   OH236052   4.214   1.986   1.917  0.1780  0.5469 -0.1880
 4806TIP3    H136053   4.221   1.912   1.858  1.9379 -0.5018  1.2205
 4806TIP3    H236054   4.149   2.043   1.877 -0.8016 -1.4612 -1.6174
 4807TIP3   OH236055   6.366   1.918   7.632  0.0956 -0.0170 -0.2340
 4807TIP3    H136056   6.283   1.879   7.606  0.4225 -0.0799 -1.2151
 4807TIP3    H236057   6.432   1.857   7.599  0.5320 -0.5902  1.5514
 4808TIP3   OH236058   1.720   4.515   8.356 -0.3395  0.5426 -0.1814
 4808TIP3    H136059   1.657   4.541   8.424  1.1261  2.0166  0.6948
 4808TIP3    H236060   1.781   4.457   8.401 -1.0132 -0.8880 -1.0308
 4809TIP3   OH236061   0.612   3.969   1.307 -0.0312  0.3034  0.1914
 4809TIP3    H136062   0.562   3.894   1.275  0.4843  0.3780 -0.8395
 4809TIP3    H236063   0.640   3.944   1.394  1.2248 -1.2539 -0.6149
 4810TIP3   OH236064   3.131   6.430   0.269 -1.0564 -0.1669  0.4088
 4810TIP3    H136065   3.186   6.394   0.200 -0.2166  1.7203  0.0136
 4810TIP3    H236066   3.107   6.355   0.323 -2.2427 -1.8054 -2.2175
 4811TIP3   OH236067   6.106   5.102   1.241  0.7564 -0.2008  0.2854
 4811TIP3    H136068   6.120   5.173   1.303  0.6893  0.2481 -0.2108
 4811TIP3    H236069   6.039   5.047   1.283 -0.5218  0.9854 -0.1043
 4812TIP3   OH236070   5.551   5.595   7.401  0.0765  0.6561 -0.6342
 4812TIP3    H136071   5.599   5.516   7.376 -0.1482  0.5505 -0.7375
 4812TIP3    H236072   5.483   5.603   7.335 -0.8856  0.0547  0.2512
 4813TIP3   OH236073   0.460   1.150   8.358  0.7959  0.1944  0.4086
 4813TIP3    H136074   0.396   1.078   8.355  1.2217 -0.1537 -0.5159
 4813TIP3    H236075   0.425   1.215   8.298  0.5382  0.6702  1.0620
 4814TIP3   OH236076   6.298   2.235   0.098 -0.6687 -0.0468  0.3379
 4814TIP3    H136077   6.299   2.143   0.074 -0.3798 -0.0772  0.4614
 4814TIP3    H236078   6.330   2.236   0.189 -0.7460  0.1657  0.3633
 4815TIP3   OH236079   1.290   6.229   8.875 -0.2781  0.0245 -0.0947
 4815TIP3    H136080   1.199   6.240   8.848 -0.0716  0.6796 -0.5623
 4815TIP3    H236081   1.310   6.308   8.925 -0.2660 -0.5871  0.8966
 4816TIP3   OH236082   3.177   0.244   6.952  0.2972  0.6618 -0.0971
 4816TIP3    H136083   3.128   0.316   6.991 -0.3471  0.6681 -0.8939
 4816TIP3    H236084   3.258   0.285   6.920  0.7581  0.6864  1.0379
 4817TIP3   OH236085   3.047   3.487   2.546 -0.2966 -0.9232  0.1518
 4817TIP3    H136086   2.972   3.509   2.490 -0.0125 -1.6099 -0.5202
 4817TIP3    H236087   3.036   3.393   2.564  0.6614 -1.1371 -0.3537
 4818TIP3   OH236088   4.300   0.293   0.322 -0.2878 -0.5206  0.1670
 4818TIP3    H136089   4.347   0.257   0.398 -0.4784 -0.2368  0.4219
 4818TIP3    H236090   4.328   0.238   0.249 -1.2142 -1.7382  0.6856
 4819TIP3   OH236091   3.852   3.063   1.021  0.5567 -0.3429  0.1281
 4819TIP3    H136092   3.839   2.969   1.022 -0.1385 -0.2514  0.3659
 4819TIP3    H236093   3.795   3.095   0.951  0.1141 -0.0203  0.6167
 4820TIP3   OH236094   2.509   6.176   0.587  0.7606 -0.1381  0.0245
 4820TIP3    H136095   2.515   6.109   0.655  0.5708  0.1480  0.3266
 4820TIP3    H236096   2.444   6.142   0.525  2.4853 -1.4202 -1.1939
 4821TIP3   OH236097   4.369   1.545   1.358  0.1005 -0.1084 -0.0266
 4821TIP3    H136098   4.453   1.591   1.353 -0.1122  0.2622 -0.2617
 4821TIP3    H236099   4.331   1.556   1.271 -0.1909 -0.2786  0.0786
 4822TIP3   OH236100   2.019   1.604   2.121  0.0909  0.4325 -0.1114
 4822TIP3    H136101   2.000   1.519   2.161  0.6494 -0.1057 -0.9756
 4822TIP3    H236102   2.001   1.668   2.191 -0.5078 -0.3730  0.4851
 4823TIP3   OH236103   2.669   5.027   8.605  0.3473  0.1797  0.6338
 4823TIP3    H136104   2.752   4.979   8.602  0.9149  1.0908  1.3564
 4823TIP3    H236105   2.615   4.976   8.666  0.3528 -0.4342  0.1390
 4824TIP3   OH236106   2.368   5.600   7.459  0.1767  0.1327 -0.3140
 4824TIP3    H136107   2.400   5.568   7.374  0.7544  2.4581 -1.0431
 4824TIP3    H236108   2.424   5.556   7.523  0.1777 -1.1552 -1.1466
 4825TIP3   OH236109   1.044   3.648   2.639  0.1282 -0.4028  0.3429
 4825TIP3    H136110   1.040   3.708   2.564 -0.2558 -0.1114  0.5947
 4825TIP3    H236111   0.967   3.592   2.628 -0.7316  0.5519  1.2784
 4826TIP3   OH236112   2.077   4.589   0.612  0.3889  0.1940  0.0269
 4826TIP3    H136113   2.055   4.603   0.704  0.1976 -1.7194  0.3197
 4826TIP3    H236114   2.170   4.567   0.612  0.3870  0.1800 -0.2291
 4827TIP3   OH236115   4.127   2.368   8.062 -0.0358 -0.1224 -0.0685
 4827TIP3    H136116   4.126   2.403   7.973  0.0369  0.0163 -0.0145
 4827TIP3    H236117   4.136   2.273   8.050 -0.2251 -0.1219 -0.2125
 4828TIP3   OH236118   5.477   3.685   0.259 -0.1509  0.1952 -0.0266
 4828TIP3    H136119   5.387   3.658   0.242 -0.0439  0.7054 -1.5979
 4828TIP3    H236120   5.530   3.628   0.202  0.3498  1.2530 -0.6466
 4829TIP3   OH236121   1.684   6.483   8.291  0.2659 -0.2194 -0.8993
 4829TIP3    H136122   1.634   6.556   8.328  0.3918 -0.3016 -0.5682
 4829TIP3    H236123   1.617   6.425   8.255 -0.0322 -1.1796  1.0428
 4830TIP3   OH236124   1.743   6.273   0.696  0.0378 -0.0425 -0.3910
 4830TIP3    H136125   1.752   6.367   0.709 -0.5014 -0.1716  1.1156
 4830TIP3    H236126   1.825   6.246   0.655  1.7173  0.5629  2.3005
 4831TIP3   OH236127   5.881   3.037   7.259  1.1421  0.2022 -0.0340
 4831TIP3    H136128   5.910   3.120   7.220  0.7791 -0.0043 -0.7630
 4831TIP3    H236129   5.863   2.981   7.184  1.0522 -0.4269  0.4537
 4832TIP3   OH236130   6.510   0.651   7.617 -0.4704 -0.2974  0.0914
 4832TIP3    H136131   6.534   0.718   7.553 -2.2285 -0.8083 -1.2049
 4832TIP3    H236132   6.417   0.668   7.636 -0.6128 -1.6014  0.6929
 4833TIP3   OH236133   6.007   2.309   2.450  0.0411  0.6680 -0.1853
 4833TIP3    H136134   6.069   2.246   2.413  0.3255  1.5549 -1.3011
 4833TIP3    H236135   5.998   2.284   2.542  0.7452 -0.5056 -0.4180
 4834TIP3   OH236136   2.239   4.405   8.008 -0.3866 -0.6223 -0.6501
 4834TIP3    H136137   2.331   4.428   8.016 -0.1110 -1.8859 -0.0839
 4834TIP3    H236138   2.220   4.418   7.915  0.0842  0.5836 -0.6023
 4835TIP3   OH236139   5.835   0.795   8.309 -0.3928  0.0081  0.3962
 4835TIP3    H136140   5.854   0.887   8.329 -3.3347  0.1996  3.1070
 4835TIP3    H236141   5.864   0.747   8.387 -1.4332 -0.9763  0.2030
 4836TIP3   OH236142   2.293   5.464   7.179 -0.0702  0.1966  0.3673
 4836TIP3    H136143   2.247   5.390   7.139 -0.1935  0.7880 -0.6130
 4836TIP3    H236144   2.368   5.480   7.122  0.2643  0.4842  0.8800
 4837TIP3   OH236145   5.777   6.045   1.516  0.6597  0.4165 -0.7367
 4837TIP3    H136146   5.842   6.110   1.541  1.8866 -1.1944  0.5118
 4837TIP3    H236147   5.749   6.005   1.598 -0.8208  0.0477 -1.3742
 4838TIP3   OH236148   5.943   3.171   2.889 -0.6449  0.4116 -0.1933
 4838TIP3    H136149   5.942   3.205   2.978  0.5175  0.6572 -0.2557
 4838TIP3    H236150   6.003   3.228   2.842  0.9862 -1.3846 -0.4110
 4839TIP3   OH236151   1.694   4.638   1.852 -0.5775 -0.1042 -1.0195
 4839TIP3    H136152   1.603   4.610   1.845 -1.1272  1.3403 -0.0390
 4839TIP3    H236153   1.720   4.616   1.942 -0.0075 -0.3357 -1.2328
 4840TIP3   OH236154   6.348   1.955   1.464 -0.6037 -0.0413  0.2617
 4840TIP3    H136155   6.374   1.883   1.521 -0.8101  1.3345  2.1871
 4840TIP3    H236156   6.272   1.922   1.415 -0.2432 -1.3439  0.5483
 4841TIP3   OH236157   4.185   3.039   7.744 -0.1108  0.7839 -0.4500
 4841TIP3    H136158   4.174   3.084   7.661  2.1109  1.6867 -0.3183
 4841TIP3    H236159   4.189   3.109   7.809 -1.3281  0.1147  0.4044
 4842TIP3   OH236160   3.139   4.880   8.958 -0.0891  0.4748  0.3599
 4842TIP3    H136161   3.147   4.933   8.879  3.8759 -2.8167 -1.8011
 4842TIP3    H236162   3.207   4.914   9.017  1.0923 -0.8031 -0.2177
 4843TIP3   OH236163   0.456   6.646   8.311  0.1042  0.3811  0.4537
 4843TIP3    H136164   0.518   6.573   8.317 -0.3429 -0.4603 -2.9486
 4843TIP3    H236165   0.404   6.639   8.391  2.7819 -0.3320  2.2849
 4844TIP3   OH236166   2.082   4.911   8.100 -0.1096 -0.0187 -0.3128
 4844TIP3    H136167   2.117   4.992   8.063 -2.2598  1.0493 -0.1742
 4844TIP3    H236168   2.099   4.919   8.194 -1.4522  0.9465 -0.1145
 4845TIP3   OH236169   2.676   0.848   8.091  0.5673  0.1432  0.3099
 4845TIP3    H136170   2.613   0.868   8.022  0.3331  0.4224  0.6058
 4845TIP3    H236171   2.630   0.787   8.149  0.6835  0.0953  0.3523
 4846TIP3   OH236172   5.486   2.541   0.334  0.4373 -0.4385  0.0704
 4846TIP3    H136173   5.542   2.487   0.278  0.7250  0.2953 -0.3609
 4846TIP3    H236174   5.437   2.478   0.387  0.2300 -1.1429 -0.9334
 4847TIP3   OH236175   0.698   2.150   1.855 -0.6222  0.0811 -1.0344
 4847TIP3    H136176   0.704   2.246   1.858 -1.0039  0.0913  0.1869
 4847TIP3    H236177   0.667   2.126   1.943  0.1766 -1.2157 -1.0942
 4848TIP3   OH236178   6.591   5.726   8.601 -0.3792 -0.1978  1.1008
 4848TIP3    H136179   6.594   5.630   8.593  0.0498 -0.0515 -1.0131
 4848TIP3    H236180   6.539   5.754   8.526  1.0142  1.3366  0.6739
 4849TIP3   OH236181   5.823   3.046   6.634  0.4582 -0.0670  0.2886
 4849TIP3    H136182   5.784   3.111   6.691  1.5055  0.7087  0.1576
 4849TIP3    H236183   5.828   3.088   6.548  1.0133 -0.3682  0.1658
 4850TIP3   OH236184   6.323   1.509   0.991  0.4497 -0.1509  0.0894
 4850TIP3    H136185   6.251   1.514   0.928  1.1660 -0.2147 -0.7582
 4850TIP3    H236186   6.357   1.420   0.982  1.3695  0.2224 -0.3887
 4851TIP3   OH236187   1.040   3.787   1.136 -0.8802 -0.0169 -0.1654
 4851TIP3    H136188   0.987   3.737   1.197  0.2620 -0.4544  0.4944
 4851TIP3    H236189   0.990   3.785   1.054 -1.5273 -1.0353  0.2337
 4852TIP3   OH236190   1.883   0.117   0.378 -0.2660 -0.4244 -0.3725
 4852TIP3    H136191   1.975   0.145   0.383 -0.0518 -0.8249 -1.6275
 4852TIP3    H236192   1.836   0.181   0.431  0.7144 -0.1463  0.2082
 4853TIP3   OH236193   1.706   3.926   0.804 -0.4734 -0.2742 -0.1952
 4853TIP3    H136194   1.704   4.013   0.764  0.3351  0.7314  1.8163
 4853TIP3    H236195   1.635   3.927   0.868 -1.6830 -1.8131 -1.4323
 4854TIP3   OH236196   5.984   6.453   8.762  0.5554  0.9859 -0.7171
 4854TIP3    H136197   6.000   6.531   8.814  2.2858  0.9921 -1.1837
 4854TIP3    H236198   5.995   6.381   8.824 -0.0806  1.0773 -0.4957
 4855TIP3   OH236199   1.608   6.016   7.921 -0.0584 -0.1672  0.2893
 4855TIP3    H136200   1.700   6.021   7.945 -0.3127  0.4977  1.2069
 4855TIP3    H236201   1.568   5.964   7.991 -0.3311 -0.7451 -0.2827
 4856TIP3   OH236202   1.366   0.685   1.256  0.0301 -0.3179 -0.2110
 4856TIP3    H136203   1.323   0.710   1.338 -0.5815  0.8660 -0.8702
 4856TIP3    H236204   1.389   0.593   1.268  1.6760  0.3130  2.0047
 4857TIP3   OH236205   1.703   3.418   0.655  0.1270 -0.1358  0.3198
 4857TIP3    H136206   1.752   3.348   0.611  0.2687  0.3769 -0.3508
 4857TIP3    H236207   1.624   3.374   0.689  1.0961 -1.0036  1.5484
 4858TIP3   OH236208   6.568   2.640   1.631  0.0355 -0.4483  0.0634
 4858TIP3    H136209   6.628   2.692   1.578  2.3327 -1.1075  1.8264
 4858TIP3    H236210   6.607   2.641   1.718 -1.3522 -2.7773  0.7930
 4859TIP3   OH236211   0.321   0.642   1.045 -0.4855 -0.2564 -0.2406
 4859TIP3    H136212   0.317   0.604   0.957 -1.3105 -1.3818  0.2534
 4859TIP3    H236213   0.385   0.588   1.092 -0.9271 -0.4289  0.1821
 4860TIP3   OH236214   5.230   4.854   7.327 -0.3163 -0.3419 -0.1315
 4860TIP3    H136215   5.185   4.778   7.365 -0.7582 -1.1992 -2.2108
 4860TIP3    H236216   5.163   4.898   7.275  0.6625 -0.3240 -1.4431
 4861TIP3   OH236217   5.726   5.427   1.996  0.6414  0.4179 -0.0888
 4861TIP3    H136218   5.639   5.400   2.027  0.7884 -0.7371 -0.6455
 4861TIP3    H236219   5.786   5.367   2.040  1.3631  2.4058  1.7858
 4862TIP3   OH236220   2.298   4.265   1.980 -0.2221 -0.2070 -0.0672
 4862TIP3    H136221   2.327   4.303   2.063 -1.2159  0.2047  0.1122
 4862TIP3    H236222   2.252   4.185   2.005 -0.8763  0.1296 -0.1796
 4863TIP3   OH236223   6.128   4.996   7.985  0.1951 -0.3771 -0.4810
 4863TIP3    H136224   6.105   5.046   8.064  1.0071 -0.0041 -0.4757
 4863TIP3    H236225   6.086   4.911   7.998 -1.2479  0.2932 -0.5109
 4864TIP3   OH236226   4.578   6.449   0.689 -0.7186  0.3813 -0.1210
 4864TIP3    H136227   4.541   6.362   0.706  2.6633 -1.1525  0.2978
 4864TIP3    H236228   4.605   6.445   0.597  1.5728 -0.0064  0.4996
 4865TIP3   OH236229   3.491   4.283   8.315  0.7172  0.9218  0.0770
 4865TIP3    H136230   3.586   4.298   8.314  1.5013 -2.5314  3.0076
 4865TIP3    H236231   3.481   4.195   8.281 -1.7482  1.7560 -1.6191
 4866TIP3   OH236232   3.627   3.988   8.915  0.7766 -0.0386  0.4321
 4866TIP3    H136233   3.556   3.960   8.858  1.0484  0.4864 -0.1796
 4866TIP3    H236234   3.707   3.977   8.863  1.0311  0.4390  0.7025
 4867TIP3   OH236235   2.433   4.672   8.290 -0.8843 -0.3806  0.0436
 4867TIP3    H136236   2.446   4.766   8.282 -0.5269 -0.3027  1.2872
 4867TIP3    H236237   2.349   4.663   8.334 -0.9027 -0.6393 -0.0439
 4868TIP3   OH236238   4.836   0.336   7.369  0.3431 -0.4065  0.0722
 4868TIP3    H136239   4.831   0.318   7.275  0.8069  0.7700 -0.1907
 4868TIP3    H236240   4.927   0.316   7.392  0.3794 -0.1413  0.1563
 4869TIP3   OH236241   5.303   0.933   8.061 -0.4255  0.0336  0.3394
 4869TIP3    H136242   5.219   0.948   8.105 -0.5922 -0.7114  0.2840
 4869TIP3    H236243   5.300   0.841   8.035  0.8765 -0.3197  1.3515
 4870TIP3   OH236244   2.571   5.687   9.014  0.1143 -0.2103  0.4397
 4870TIP3    H136245   2.598   5.722   8.929 -0.3142  0.8394  0.7280
 4870TIP3    H236246   2.618   5.604   9.021  0.9716  0.1882 -0.3593
 4871TIP3   OH236247   1.095   4.575   2.389 -0.2750 -0.1676 -0.1376
 4871TIP3    H136248   1.036   4.643   2.422  0.6872  1.0835 -0.8942
 4871TIP3    H236249   1.086   4.503   2.451 -1.4462  0.5899  0.6086
 4872TIP3   OH236250   0.441   2.167   2.572 -0.4398 -0.2252  0.2095
 4872TIP3    H136251   0.450   2.203   2.660  0.5212  0.4158 -0.1271
 4872TIP3    H236252   0.473   2.078   2.578 -0.4281 -0.2001  0.5171
 4873TIP3   OH236253   0.629   4.173   2.367 -0.3748  0.3178 -0.1548
 4873TIP3    H136254   0.582   4.243   2.413 -1.2845 -0.7823  0.6342
 4873TIP3    H236255   0.702   4.152   2.426  0.2538  0.9918 -0.6746
 4874TIP3   OH236256   4.609   0.857   7.983 -0.3427  0.2918  0.3141
 4874TIP3    H136257   4.665   0.934   7.975 -0.7437  0.5393 -0.1385
 4874TIP3    H236258   4.620   0.811   7.900 -1.4422  0.7754 -0.1189
 4875TIP3   OH236259   6.346   3.489   2.142 -0.2641  0.4079 -1.0235
 4875TIP3    H136260   6.441   3.479   2.135 -0.2929 -0.7200 -0.0283
 4875TIP3    H236261   6.333   3.581   2.168  0.5370  0.5768 -1.1891
 4876TIP3   OH236262   4.968   5.934   2.317  0.2583 -0.1085 -0.4505
 4876TIP3    H136263   4.917   5.980   2.384  1.4753 -0.8206  1.0388
 4876TIP3    H236264   4.958   5.986   2.238  1.7893  2.9384  1.1900
 4877TIP3   OH236265   6.618   2.375   0.833  0.0652  0.3400  0.1576
 4877TIP3    H136266   6.644   2.453   0.881  2.4511 -0.1575 -0.1875
 4877TIP3    H236267   6.522   2.374   0.838 -0.1210  3.7041 -0.5300
 4878TIP3   OH236268   4.751   3.216   8.481 -0.1573 -0.1738 -0.3338
 4878TIP3    H136269   4.687   3.259   8.538 -0.3696 -1.4129  0.3976
 4878TIP3    H236270   4.767   3.131   8.522  0.3706 -0.7388 -1.6486
 4879TIP3   OH236271   0.188   1.399   1.682  0.7960 -0.1432  0.6287
 4879TIP3    H136272   0.129   1.401   1.757 -0.7089  0.0743 -0.5034
 4879TIP3    H236273   0.254   1.333   1.704 -0.0767 -0.6585  1.7878
 4880TIP3   OH236274   4.527   5.887   8.495 -0.2944  0.2721 -0.3918
 4880TIP3    H136275   4.506   5.866   8.586 -1.7783 -0.5955 -0.8999
 4880TIP3    H236276   4.582   5.815   8.466 -1.0967 -0.2621 -0.6161
 4881TIP3   OH236277   3.111   4.861   0.920 -0.3659 -0.3374  0.1958
 4881TIP3    H136278   3.163   4.850   0.999 -1.2199  0.1258  0.8475
 4881TIP3    H236279   3.076   4.950   0.926  1.1252  0.4489 -1.6921
 4882TIP3   OH236280   6.309   2.556   0.302  0.7385 -0.2361 -0.0154
 4882TIP3    H136281   6.278   2.645   0.320  1.2341 -0.1613  0.5073
 4882TIP3    H236282   6.393   2.568   0.256  0.6587 -0.4344 -0.2172
 4883TIP3   OH236283   3.308   2.575   8.220 -0.5619 -1.2430 -0.2652
 4883TIP3    H136284   3.337   2.630   8.293 -2.4078  1.9532 -1.7259
 4883TIP3    H236285   3.373   2.591   8.151 -0.9464 -1.1160 -0.6036
 4884TIP3   OH236286   6.077   5.853   8.740 -0.2945 -0.5032  0.1894
 4884TIP3    H136287   6.158   5.903   8.743 -1.6593  1.9126  0.0163
 4884TIP3    H236288   6.090   5.790   8.669  0.7412  1.2039 -1.2467
 4885TIP3   OH236289   4.737   0.736   8.862 -0.0921 -0.4294 -0.5261
 4885TIP3    H136290   4.646   0.758   8.883  0.2067  0.9036 -0.5357
 4885TIP3    H236291   4.764   0.676   8.932 -1.1272 -1.3013 -0.8366
 4886TIP3   OH236292   4.969   5.652   8.819 -0.3806  0.1518  0.2425
 4886TIP3    H136293   4.914   5.586   8.778  0.0478  0.1219 -0.3046
 4886TIP3    H236294   4.945   5.734   8.774 -0.1886  0.1885  0.2060
 4887TIP3   OH236295   6.728   0.613   8.773  0.2785  0.4998  0.0088
 4887TIP3    H136296   6.670   0.688   8.789 -0.7386 -0.5644  1.6854
 4887TIP3    H236297   6.693   0.573   8.694 -0.6705  0.4647  0.4243
 4888TIP3   OH236298   6.285   1.997   8.799 -0.2494  0.3006  0.4686
 4888TIP3    H136299   6.312   2.074   8.749  1.3812 -0.3140  0.3343
 4888TIP3    H236300   6.359   1.979   8.857 -0.8298 -0.8409  0.8872
 4889TIP3   OH236301   6.437   0.239   1.848 -0.2387 -0.9646 -0.1492
 4889TIP3    H136302   6.508   0.279   1.899 -0.4055 -1.5643  0.5633
 4889TIP3    H236303   6.371   0.216   1.912 -1.9157  1.1600 -0.9604
 4890TIP3   OH236304   5.568   5.201   6.858 -0.0559 -0.3906  0.0057
 4890TIP3    H136305   5.646   5.256   6.844 -0.8089  0.5281 -0.7660
 4890TIP3    H236306   5.595   5.114   6.830  0.6863 -0.0739 -0.3033
 4891TIP3   OH236307   5.074   6.127   1.670  0.1441  0.3388  0.0822
 4891TIP3    H136308   5.033   6.145   1.754  2.1529 -0.8404  1.3977
 4891TIP3    H236309   5.096   6.213   1.634 -2.6993  0.9730 -0.3678
 4892TIP3   OH236310   2.682   3.955   8.876 -0.2126 -0.1539  0.0312
 4892TIP3    H136311   2.765   3.908   8.875 -0.0757  0.0844 -1.4361
 4892TIP3    H236312   2.636   3.926   8.797 -1.8103 -0.7458  1.1124
 4893TIP3   OH236313   3.899   6.521   1.368  0.0775  0.0625  0.1709
 4893TIP3    H136314   3.816   6.476   1.358  0.0833  0.1332 -0.2262
 4893TIP3    H236315   3.965   6.454   1.351  0.0870  0.1929 -0.3468
 4894TIP3   OH236316   5.602   3.000   1.033 -0.1845 -0.2221  0.5214
 4894TIP3    H136317   5.585   3.016   0.940  0.7408  1.1917  0.5801
 4894TIP3    H236318   5.521   3.027   1.076 -0.2112  0.1803  0.2277
 4895TIP3   OH236319   1.811   3.467   6.752 -0.2657 -0.1901 -0.0698
 4895TIP3    H136320   1.800   3.466   6.657  0.1031 -0.5039 -0.1142
 4895TIP3    H236321   1.733   3.423   6.786 -1.0526  1.1089 -0.1473
 4896TIP3   OH236322   5.440   6.764   7.754 -0.0718 -0.1888 -0.0261
 4896TIP3    H136323   5.451   6.680   7.708 -1.4668 -0.5185  0.1952
 4896TIP3    H236324   5.349   6.763   7.784 -0.3429  1.7288 -0.6491
 4897TIP3   OH236325   3.615   6.689   8.871 -0.6279  0.4719 -0.3187
 4897TIP3    H136326   3.535   6.698   8.819 -0.2410  1.2791 -0.7843
 4897TIP3    H236327   3.674   6.638   8.815  0.6917  3.4025 -1.7857
 4898TIP3   OH236328   1.712   4.134   1.635  0.1721 -0.1329  0.4051
 4898TIP3    H136329   1.762   4.136   1.554 -1.4942  0.6914 -0.6739
 4898TIP3    H236330   1.723   4.221   1.673 -0.9154  0.2766 -0.1765
 4899TIP3   OH236331   0.879   5.302   7.316 -0.0457 -0.3544  0.2995
 4899TIP3    H136332   0.933   5.268   7.388  0.0766 -0.8420 -0.0186
 4899TIP3    H236333   0.942   5.322   7.247 -0.3810 -2.6717 -0.7840
 4900TIP3   OH236334   3.145   6.125   7.245 -0.5035 -0.0498  0.2211
 4900TIP3    H136335   3.189   6.164   7.320  0.4629 -0.0258 -0.3433
 4900TIP3    H236336   3.051   6.132   7.266 -0.2406 -0.3829  1.5691
 4901TIP3   OH236337   3.364   3.878   0.120 -0.1626  0.3916 -0.2146
 4901TIP3    H136338   3.382   3.949   0.059  0.2835 -1.9001 -2.9737
 4901TIP3    H236339   3.449   3.836   0.135 -0.6178 -0.4077  0.2425
 4902TIP3   OH236340   3.569   4.392   1.573 -0.1731 -0.2320 -0.2585
 4902TIP3    H136341   3.554   4.486   1.577  3.6093  0.5058 -0.3328
 4902TIP3    H236342   3.589   4.367   1.664  0.8133 -0.5361 -0.5459
 4903TIP3   OH236343   0.776   2.765   8.749 -0.2562 -0.4118 -0.6373
 4903TIP3    H136344   0.748   2.675   8.734  0.1450 -0.4517 -1.1885
 4903TIP3    H236345   0.764   2.779   8.843  1.0702 -1.5287 -0.2653
 4904TIP3   OH236346   3.062   3.054   0.218 -0.9250  0.1286 -0.0754
 4904TIP3    H136347   3.049   3.147   0.237  1.4367  0.7016 -0.9056
 4904TIP3    H236348   3.066   3.013   0.305  0.6066  1.2481  0.4297
 4905TIP3   OH236349   2.157   2.972   0.220  0.5446  0.2055 -0.3483
 4905TIP3    H136350   2.092   2.906   0.245 -0.3094  1.2675  0.3506
 4905TIP3    H236351   2.141   3.045   0.280  1.4088  1.0762 -1.1411
 4906TIP3   OH236352   4.734   0.058   6.967  0.1381  0.2887 -0.0184
 4906TIP3    H136353   4.797  -0.005   6.933  0.1062 -0.6349  1.5307
 4906TIP3    H236354   4.751   0.138   6.917  0.6744 -0.7116 -1.5175
 4907TIP3   OH236355   4.268   4.069   1.749  0.3526  0.2880 -0.5383
 4907TIP3    H136356   4.305   4.096   1.665 -0.8171  0.0778 -1.1565
 4907TIP3    H236357   4.234   4.150   1.787  1.0274  0.4095 -0.1805
 4908TIP3   OH236358   2.858   0.686   1.376  0.0779 -0.1316  0.2020
 4908TIP3    H136359   2.851   0.737   1.457 -1.6627 -0.3417  0.2192
 4908TIP3    H236360   2.930   0.727   1.328  0.7911  0.3188  1.6179
 4909TIP3   OH236361   1.350   0.662   8.627 -0.3402 -0.7795  0.4108
 4909TIP3    H136362   1.281   0.626   8.571 -1.0448  1.2127 -0.0892
 4909TIP3    H236363   1.323   0.642   8.716 -1.7452  0.1756  0.2288
 4910TIP3   OH236364   5.290   2.885   6.836 -0.3102  0.0273  0.2706
 4910TIP3    H136365   5.196   2.900   6.843 -0.1316  0.6536  1.9198
 4910TIP3    H236366   5.329   2.973   6.844  0.4435 -0.3575  0.9878
 4911TIP3   OH236367   1.688   3.170   0.241  0.5316 -0.8910  0.4485
 4911TIP3    H136368   1.621   3.128   0.294  0.6487 -1.1718  0.3772
 4911TIP3    H236369   1.683   3.126   0.156 -1.4552  1.3244 -0.7037
 4912TIP3   OH236370   4.042   2.597   0.997  0.0890  0.3278 -0.1415
 4912TIP3    H136371   4.107   2.527   0.994  0.5282  0.6593  0.8880
 4912TIP3    H236372   3.958   2.553   0.987  0.3145 -0.4386  1.0932
 4913TIP3   OH236373   3.485   6.495   0.606 -0.3291 -0.0204 -0.8825
 4913TIP3    H136374   3.508   6.415   0.558  0.5901 -0.2856 -0.0138
 4913TIP3    H236375   3.390   6.488   0.618 -0.0952 -1.6778  0.3829
 4914TIP3   OH236376   0.176   4.825   1.059 -0.4826  0.4068 -0.0458
 4914TIP3    H136377   0.100   4.768   1.045 -0.1406  0.1414 -0.8829
 4914TIP3    H236378   0.248   4.765   1.076 -0.2177  0.6151 -0.4364
 4915TIP3   OH236379   4.530   0.127   0.247 -0.5031 -0.2029  0.5046
 4915TIP3    H136380   4.575   0.122   0.331 -0.8852 -1.3700  0.6694
 4915TIP3    H236381   4.599   0.111   0.182 -0.5027 -1.1449  0.7126
 4916TIP3   OH236382   4.936   2.213   8.269 -0.1205  0.4916  0.5871
 4916TIP3    H136383   5.017   2.258   8.293  0.7074 -0.1863 -0.8062
 4916TIP3    H236384   4.879   2.282   8.234 -0.1893  0.9826  1.6407
 4917TIP3   OH236385   0.305   4.515   7.331 -0.2204 -0.4331 -0.2976
 4917TIP3    H136386   0.233   4.530   7.391 -0.3068  1.6896 -0.8345
 4917TIP3    H236387   0.289   4.428   7.294 -1.7041 -0.5828  0.6402
 4918TIP3   OH236388   0.843   5.340   8.688  0.0972  0.9015  0.2584
 4918TIP3    H136389   0.809   5.331   8.777 -0.9508 -0.3503 -0.2271
 4918TIP3    H236390   0.901   5.264   8.677 -0.6499  0.4201 -0.4774
 4919TIP3   OH236391   2.113   0.931   6.987 -0.3479 -0.3093  0.2095
 4919TIP3    H136392   2.122   1.024   6.967 -1.4845  0.1686  1.7256
 4919TIP3    H236393   2.159   0.886   6.915 -0.7807  1.3669 -1.1866
 4920TIP3   OH236394   4.428   4.478   1.160  0.0372  0.5161 -0.5568
 4920TIP3    H136395   4.364   4.490   1.230 -2.8602 -1.2992 -2.6728
 4920TIP3    H236396   4.384   4.511   1.082  0.5111 -3.1929 -2.5968
 4921TIP3   OH236397   6.769   4.650   7.872  0.4395 -0.3950 -0.7650
 4921TIP3    H136398   6.743   4.588   7.941 -0.7071 -0.3384 -1.1244
 4921TIP3    H236399   6.862   4.634   7.860  0.9576  0.4066  1.6147
 4922TIP3   OH236400   2.788   2.749   1.976 -0.4151 -0.0511 -0.3423
 4922TIP3    H136401   2.822   2.669   1.936  0.6138 -0.0896  0.5589
 4922TIP3    H236402   2.767   2.725   2.066  0.7434  0.8699  0.2020
 4923TIP3   OH236403   4.596   3.231   8.903 -0.0433  0.1156  0.0946
 4923TIP3    H136404   4.541   3.298   8.943  2.0118  2.2904 -0.4835
 4923TIP3    H236405   4.670   3.222   8.963  0.8273  0.1066 -0.9460
 4924TIP3   OH236406   0.752   1.865   8.262 -0.5804  0.6128 -0.0822
 4924TIP3    H136407   0.793   1.946   8.291 -0.5194 -0.0070  1.7211
 4924TIP3    H236408   0.804   1.838   8.186  2.6307 -0.2175  2.1640
 4925TIP3   OH236409   4.121   3.142   7.468  0.0801  0.2917  0.4139
 4925TIP3    H136410   4.185   3.199   7.425 -0.4781  1.1546  0.7082
 4925TIP3    H236411   4.080   3.094   7.396 -1.7862  2.6731 -0.2398
 4926TIP3   OH236412   3.610   3.271   1.683  0.4294  0.3554 -0.3158
 4926TIP3    H136413   3.517   3.270   1.708  0.2763  1.3819 -0.7963
 4926TIP3    H236414   3.655   3.298   1.763  0.4280 -1.0791  0.1987
 4927TIP3   OH236415   3.674   1.239   8.358  0.0050 -0.1037 -0.5356
 4927TIP3    H136416   3.672   1.332   8.334  0.8707  0.0159 -0.2016
 4927TIP3    H236417   3.734   1.200   8.294  0.4267 -0.2398 -0.0619
 4928TIP3   OH236418   1.916   1.778   0.381 -0.2846 -0.0475 -0.4437
 4928TIP3    H136419   1.891   1.691   0.350 -1.8922  0.3368 -0.3321
 4928TIP3    H236420   1.833   1.825   0.389  0.6024  1.7070 -1.0951
 4929TIP3   OH236421   1.202   5.397   0.258 -0.5231  0.1781 -0.0779
 4929TIP3    H136422   1.288   5.378   0.295 -0.5249 -1.0222 -0.6545
 4929TIP3    H236423   1.221   5.454   0.183 -0.0387 -1.4093 -1.2182
 4930TIP3   OH236424   1.596   0.655   0.234 -0.0420 -0.1286  0.3104
 4930TIP3    H136425   1.589   0.740   0.277 -0.5108  0.0616 -0.1358
 4930TIP3    H236426   1.558   0.668   0.147  0.7701 -0.5490 -0.1199
 4931TIP3   OH236427   0.179   6.150   1.097 -0.0112  0.0578 -0.0488
 4931TIP3    H136428   0.231   6.171   1.019 -0.1016  0.0091 -0.1221
 4931TIP3    H236429   0.100   6.202   1.088  0.5448  1.0755  0.6729
 4932TIP3   OH236430   3.232   5.764   0.407 -0.6409 -0.4277  0.3616
 4932TIP3    H136431   3.181   5.840   0.379 -0.4360  0.1564  1.5140
 4932TIP3    H236432   3.278   5.735   0.328 -3.4762 -1.5921 -0.9785
 4933TIP3   OH236433   4.387   0.581   0.776  0.2863 -0.2958  0.4978
 4933TIP3    H136434   4.461   0.530   0.809  0.6095 -0.6395 -0.7213
 4933TIP3    H236435   4.353   0.530   0.703 -2.1557 -0.9288  1.9699
 4934TIP3   OH236436   0.281   4.818   0.115  0.3501 -0.2355  0.2159
 4934TIP3    H136437   0.260   4.782   0.028 -1.0846 -0.4595  0.6300
 4934TIP3    H236438   0.213   4.784   0.172 -0.0797  1.7328  0.9840
 4935TIP3   OH236439   4.448   4.761   2.252  0.4368 -0.0612 -0.0875
 4935TIP3    H136440   4.374   4.815   2.224  1.8653  0.5613 -2.9925
 4935TIP3    H236441   4.410   4.700   2.315 -3.0568 -1.0171 -2.7744
 4936TIP3   OH236442   1.899   0.200   7.098 -0.4735  0.0182 -0.3309
 4936TIP3    H136443   1.841   0.154   7.158  0.8603 -0.2963  0.7565
 4936TIP3    H236444   1.847   0.211   7.018 -1.6550 -1.1869  0.2373
 4937TIP3   OH236445   3.216   1.869   7.150 -0.0528  0.1907 -0.2560
 4937TIP3    H136446   3.310   1.853   7.151 -0.1886 -0.7817 -0.9000
 4937TIP3    H236447   3.180   1.803   7.210 -0.4188 -0.3433 -1.0371
 4938TIP3   OH236448   1.667   0.210   2.065 -0.3917  0.9275 -0.1188
 4938TIP3    H136449   1.616   0.238   1.989 -2.9831 -3.0444 -0.1093
 4938TIP3    H236450   1.752   0.186   2.029 -0.6104  1.7427 -1.2469
 4939TIP3   OH236451   0.929   5.879   2.084 -0.3953  0.2783  0.5008
 4939TIP3    H136452   1.024   5.893   2.079 -0.1284 -1.4854 -0.1046
 4939TIP3    H236453   0.904   5.912   2.170  0.4106  2.5718 -0.0735
 4940TIP3   OH236454   6.345   5.060   1.516 -0.3735  0.2641  0.0972
 4940TIP3    H136455   6.426   5.066   1.568 -1.0452 -1.4598  1.4516
 4940TIP3    H236456   6.276   5.085   1.576 -1.1401 -1.4535 -0.0005
 4941TIP3   OH236457   1.101   2.691   7.499 -0.4854 -0.1330 -0.1891
 4941TIP3    H136458   1.160   2.616   7.495  0.1105  0.1659  1.8895
 4941TIP3    H236459   1.153   2.764   7.466 -0.7611 -0.4350 -1.3321
 4942TIP3   OH236460   6.724   3.855   0.818  0.1203 -0.0009  0.1538
 4942TIP3    H136461   6.736   3.829   0.727  0.2680 -0.3712  0.2740
 4942TIP3    H236462   6.812   3.853   0.855 -0.0135 -0.4423  0.4550
 4943TIP3   OH236463   1.123   2.238   8.600 -0.3709 -0.1385  0.4983
 4943TIP3    H136464   1.188   2.239   8.529 -0.8236 -1.3514  0.0348
 4943TIP3    H236465   1.158   2.299   8.665  0.5389  0.2745 -0.3380
 4944TIP3   OH236466   4.879   6.666   7.226 -0.6650  0.5922  0.2574
 4944TIP3    H136467   4.828   6.742   7.255 -2.7883 -0.2599 -1.0254
 4944TIP3    H236468   4.815   6.608   7.186  1.2199 -0.9520 -0.6856
 4945TIP3   OH236469   1.186   3.349   0.142  0.8010  0.0960  0.2803
 4945TIP3    H136470   1.236   3.299   0.206 -0.1869 -2.1483 -0.5970
 4945TIP3    H236471   1.247   3.367   0.071  0.7597 -1.3951 -0.1565
 4946TIP3   OH236472   5.982   4.741   8.046 -0.1864 -0.5005  0.0739
 4946TIP3    H136473   6.060   4.715   8.096  0.5787  2.8372  0.8863
 4946TIP3    H236474   5.912   4.744   8.111 -0.2248 -0.3928  0.0282
 4947TIP3   OH236475   5.424   1.824   7.648 -0.5874 -0.1551  0.3010
 4947TIP3    H136476   5.513   1.853   7.667 -0.2101 -1.0308 -0.1045
 4947TIP3    H236477   5.397   1.879   7.574  0.8098 -2.0069 -1.6988
 4948TIP3   OH236478   2.892   6.238   7.900  0.0700 -0.6365 -0.8728
 4948TIP3    H136479   2.983   6.216   7.881  0.4891 -1.3807  1.6759
 4948TIP3    H236480   2.864   6.173   7.964 -1.3932  1.1861  0.4572
 4949TIP3   OH236481   2.648   4.996   0.727 -0.5751 -0.5807  0.1172
 4949TIP3    H136482   2.571   4.940   0.721  0.3245 -2.0210  1.0647
 4949TIP3    H236483   2.721   4.935   0.740  0.4774  0.8116  1.1347
 4950TIP3   OH236484   5.532   3.666   8.935  0.5548  0.0290  0.4584
 4950TIP3    H136485   5.560   3.734   8.874 -0.8090 -0.6394 -0.9820
 4950TIP3    H236486   5.449   3.698   8.970 -0.7721 -1.3718 -1.2096
 4951TIP3   OH236487   4.352   5.115   2.061  0.2858  0.0137  0.0230
 4951TIP3    H136488   4.378   5.098   1.970  1.2829  0.6246  0.1805
 4951TIP3    H236489   4.284   5.050   2.079 -1.7302  1.4036 -1.9553
 4952TIP3   OH236490   3.455   4.760   1.172 -0.4129 -0.4281 -0.5517
 4952TIP3    H136491   3.462   4.833   1.233  1.3433 -1.5517  0.6757
 4952TIP3    H236492   3.400   4.696   1.217  0.3665 -1.0019 -0.4089
 4953TIP3   OH236493   4.473   6.720   7.482  0.2942 -0.4233 -0.2045
 4953TIP3    H136494   4.482   6.720   7.577 -1.4545  1.9977  0.0825
 4953TIP3    H236495   4.550   6.766   7.450  0.4577 -0.4621  0.1322
 4954TIP3   OH236496   3.426   0.639   1.589 -0.2640  0.2143 -0.3699
 4954TIP3    H136497   3.419   0.716   1.646 -2.3174  0.5324 -0.9553
 4954TIP3    H236498   3.424   0.674   1.500  0.7774 -0.4212 -0.6641
 4955TIP3   OH236499   6.507   4.705   1.293  0.0355  0.4763  0.2882
 4955TIP3    H136500   6.466   4.625   1.259  0.6648 -0.6878  2.1084
 4955TIP3    H236501   6.435   4.754   1.331 -0.2437  0.4230 -0.1576
 4956TIP3   OH236502   5.285   3.988   7.841 -0.2650 -0.0978  0.3523
 4956TIP3    H136503   5.342   4.059   7.868  0.0638  0.3710 -1.4170
 4956TIP3    H236504   5.233   3.968   7.918 -0.7803  2.4620  0.7538
 4957TIP3   OH236505   6.727   3.590   1.278 -0.0556 -0.6455 -0.5490
 4957TIP3    H136506   6.663   3.652   1.243 -1.1541 -2.1375 -1.2713
 4957TIP3    H236507   6.811   3.634   1.265 -0.7459  0.4608 -1.5545
 4958TIP3   OH236508   5.146   0.541   8.350  0.5120  0.0533  0.6629
 4958TIP3    H136509   5.241   0.536   8.336  0.6989  0.6163  1.6657
 4958TIP3    H236510   5.112   0.466   8.302  1.5130 -0.4190  0.6471
 4959TIP3   OH236511   0.854   2.389   0.778 -0.4239 -0.0167 -0.5134
 4959TIP3    H136512   0.866   2.443   0.857  0.1151  0.4536 -0.9070
 4959TIP3    H236513   0.885   2.302   0.804  0.7281  0.3754 -0.4960
 4960TIP3   OH236514   2.741   2.960   0.278 -0.4234  0.0719  0.0523
 4960TIP3    H136515   2.734   2.976   0.184  0.6242  0.2017 -0.0137
 4960TIP3    H236516   2.800   2.884   0.285  0.8624  1.0935  0.6473
 4961TIP3   OH236517   2.710   2.301   1.821 -0.7703 -0.1724 -0.5503
 4961TIP3    H136518   2.636   2.361   1.833 -1.1085 -0.7916  0.6036
 4961TIP3    H236519   2.675   2.231   1.766 -0.8735 -0.1878 -0.4651
 4962TIP3   OH236520   3.291   5.757   7.129  0.0705  0.3566 -0.2245
 4962TIP3    H136521   3.327   5.782   7.214 -0.6886  1.8728 -0.3260
 4962TIP3    H236522   3.336   5.813   7.066  1.1591 -1.2417 -0.9700
 4963TIP3   OH236523   0.745   5.110   7.476  0.5530 -0.5043  0.6610
 4963TIP3    H136524   0.689   5.115   7.554 -1.4884  0.9212 -0.8026
 4963TIP3    H236525   0.739   5.197   7.437 -1.2695 -1.9916 -2.8750
 4964TIP3   OH236526   2.300   3.389   6.600 -0.5248 -0.9852 -0.3902
 4964TIP3    H136527   2.323   3.457   6.536 -0.9709 -0.8240 -0.3828
 4964TIP3    H236528   2.357   3.316   6.578  0.4973 -0.3490  0.0738
 4965TIP3   OH236529   4.199   4.712   7.481  0.2381  0.4333  0.1331
 4965TIP3    H136530   4.108   4.740   7.473 -0.6391 -1.8374  1.3822
 4965TIP3    H236531   4.214   4.706   7.576  1.0385 -1.0980 -0.0542
 4966TIP3   OH236532   0.797   6.553   0.197 -0.1612 -0.0842 -0.5544
 4966TIP3    H136533   0.790   6.596   0.112  0.2297  1.8729  0.3607
 4966TIP3    H236534   0.884   6.577   0.230 -0.6230 -0.1005  0.7632
 4967TIP3   OH236535   0.029   3.098   2.469 -0.0151  0.4156 -0.0357
 4967TIP3    H136536  -0.023   3.021   2.447  1.0641 -0.0749 -0.9925
 4967TIP3    H236537   0.105   3.063   2.516 -0.2434  1.0589  0.8462
 4968TIP3   OH236538   6.212   1.249   7.341  0.0397  0.5219 -0.6812
 4968TIP3    H136539   6.304   1.266   7.322 -0.3676  1.8462 -1.6275
 4968TIP3    H236540   6.182   1.192   7.270  0.2239 -0.2602 -0.1397
 4969TIP3   OH236541   5.083   2.187   7.671 -0.4604 -0.0283 -0.1806
 4969TIP3    H136542   5.152   2.172   7.735 -0.5735  1.1463  0.2399
 4969TIP3    H236543   5.004   2.151   7.711 -0.6249  1.1169  0.5756
 4970TIP3   OH236544   3.501   0.215   8.768  0.2031  0.2294 -0.8732
 4970TIP3    H136545   3.426   0.221   8.827  0.5098 -0.7543 -0.3546
 4970TIP3    H236546   3.497   0.294   8.715 -0.1746  1.0781  0.3788
 4971TIP3   OH236547   6.007   1.236   0.139  0.2338  0.4928  0.6296
 4971TIP3    H136548   6.066   1.169   0.106  0.7646  0.7941  0.9560
 4971TIP3    H236549   6.039   1.255   0.227  1.3512  2.5824 -0.1450
 4972TIP3   OH236550   6.404   2.527   0.559 -0.3743 -0.2668  0.7474
 4972TIP3    H136551   6.390   2.517   0.464  0.1079  1.3131  0.4720
 4972TIP3    H236552   6.334   2.476   0.599 -2.4478  1.4015 -0.5096
 4973TIP3   OH236553   5.831   4.410   8.988  0.3074  0.6545 -0.3359
 4973TIP3    H136554   5.922   4.400   9.017 -0.1245 -0.0040  0.8688
 4973TIP3    H236555   5.818   4.338   8.926  1.5598  2.7008 -3.1936
 4974TIP3   OH236556   3.683   1.556   1.424 -0.4113 -0.4428  0.0233
 4974TIP3    H136557   3.629   1.607   1.363  0.9008 -1.0620 -1.7206
 4974TIP3    H236558   3.735   1.622   1.471  1.4091 -0.0820 -2.3381
 4975TIP3   OH236559   4.275   5.716   2.060 -0.5856 -0.1029 -0.6075
 4975TIP3    H136560   4.255   5.806   2.088  0.8466  0.3091 -0.8447
 4975TIP3    H236561   4.279   5.666   2.141  0.3201  0.4132 -0.3247
 4976TIP3   OH236562   4.785   1.121   7.199  0.0669 -0.3386  0.6792
 4976TIP3    H136563   4.803   1.050   7.260 -2.3503  1.3623  3.6541
 4976TIP3    H236564   4.704   1.094   7.155 -0.5415  0.2835  1.3993
 4977TIP3   OH236565   4.932   0.437   0.239 -0.1525  0.0489 -0.6700
 4977TIP3    H136566   4.946   0.393   0.155  0.6072 -1.2602  0.1033
 4977TIP3    H236567   5.019   0.448   0.276 -0.5599 -1.4293  0.9043
 4978TIP3   OH236568   4.850   6.319   8.787 -0.6581  0.2887 -0.0963
 4978TIP3    H136569   4.837   6.299   8.879 -0.5767 -0.8817 -0.3236
 4978TIP3    H236570   4.815   6.243   8.740  1.7905 -0.4268 -0.9235
 4979TIP3   OH236571   5.756   3.885   8.854  0.5114  0.1094  0.1461
 4979TIP3    H136572   5.745   3.925   8.768  1.1268  1.0861  0.5130
 4979TIP3    H236573   5.840   3.840   8.849 -0.0355 -0.9279 -0.1625
 4980TIP3   OH236574   3.888   5.541   2.416 -0.7782  0.0791  0.2501
 4980TIP3    H136575   3.801   5.502   2.426 -1.5635  0.7188 -3.0153
 4980TIP3    H236576   3.945   5.467   2.394 -1.2256  0.0611 -0.9204
 4981TIP3   OH236577   2.013   1.106   8.618 -0.3038 -0.2250  0.4506
 4981TIP3    H136578   1.951   1.136   8.684 -1.3503 -0.3895 -0.4314
 4981TIP3    H236579   1.980   1.141   8.535  1.5022  0.7909  0.1029
 4982TIP3   OH236580   3.815   3.930   8.708  0.1614 -0.3066  0.0769
 4982TIP3    H136581   3.904   3.916   8.675 -0.2855  1.8454 -2.3331
 4982TIP3    H236582   3.811   4.024   8.727 -2.0349 -0.0354 -1.4129
 4983TIP3   OH236583   2.082   5.596   7.423 -0.3363  0.0557 -0.3593
 4983TIP3    H136584   2.177   5.602   7.410  0.1195  0.7274  2.5544
 4983TIP3    H236585   2.054   5.687   7.431 -0.8722 -0.1918  0.7124
 4984TIP3   OH236586   6.346   0.657   7.308  0.2244  0.3197 -0.2197
 4984TIP3    H136587   6.420   0.710   7.337  2.1113 -0.6369 -2.8865
 4984TIP3    H236588   6.294   0.715   7.252  0.3445  0.3141 -0.3370
 4985TIP3   OH236589   1.205   0.234   0.480  0.2385  0.1776  0.2972
 4985TIP3    H136590   1.244   0.319   0.498 -0.0546 -0.0883  2.4722
 4985TIP3    H236591   1.260   0.195   0.411  1.5587  1.3018  0.6860
 4986TIP3   OH236592   3.744   4.415   8.305  0.0651  0.2035  0.2103
 4986TIP3    H136593   3.827   4.373   8.283  0.3657 -0.0399  1.7208
 4986TIP3    H236594   3.752   4.504   8.270  1.3326  0.4717  1.1061
 4987TIP3   OH236595   0.695   4.214   1.700  0.2667 -0.3917  0.4464
 4987TIP3    H136596   0.759   4.206   1.629 -1.7289 -0.4496 -1.4804
 4987TIP3    H236597   0.704   4.132   1.749  0.8177 -0.9663 -0.5645
 4988TIP3   OH236598   2.708   1.267   8.128  0.0209 -0.3583  0.3250
 4988TIP3    H136599   2.776   1.285   8.063  0.9892 -0.0810  1.3737
 4988TIP3    H236600   2.627   1.300   8.089  0.8114  1.0760 -0.1714
 4989TIP3   OH236601   3.001   4.780   6.654 -0.4124  0.0033 -0.0117
 4989TIP3    H136602   2.940   4.707   6.659 -0.4975  0.1278  0.9239
 4989TIP3    H236603   3.087   4.741   6.668 -0.4286  0.0453  0.2002
 4990TIP3   OH236604   5.011   1.647   1.394  0.2214 -0.7248 -0.1486
 4990TIP3    H136605   5.003   1.725   1.448  1.1995 -0.9727  0.3803
 4990TIP3    H236606   4.932   1.647   1.340  1.1039  1.7010 -1.6207
 4991TIP3   OH236607   4.025   1.817   8.449 -0.0278 -0.2902  0.8999
 4991TIP3    H136608   4.085   1.817   8.374 -1.5467 -1.6538 -0.3850
 4991TIP3    H236609   4.081   1.793   8.523  1.5118  1.0653  0.2543
 4992TIP3   OH236610   6.078   2.027   2.281 -0.0608 -0.2076  0.4180
 4992TIP3    H136611   6.000   1.985   2.316 -0.4330 -1.1641 -1.4499
 4992TIP3    H236612   6.149   1.967   2.302 -0.3624 -1.0517 -0.8653
 4993TIP3   OH236613   5.742   1.771   8.928 -0.1989 -0.0301  0.0090
 4993TIP3    H136614   5.805   1.796   8.995 -2.0446  0.9338  1.4663
 4993TIP3    H236615   5.685   1.708   8.971  0.3002 -1.6784 -1.5950
 4994TIP3   OH236616   4.381   1.691   0.867 -0.2718 -0.2588  0.2670
 4994TIP3    H136617   4.431   1.692   0.786 -1.4873  0.0501 -0.5125
 4994TIP3    H236618   4.294   1.722   0.841 -1.4255 -2.5219  1.1792
 4995TIP3   OH236619   5.583   5.781   2.045 -0.0829  0.1316  0.8593
 4995TIP3    H136620   5.547   5.808   2.130 -0.5450  1.7053  0.2139
 4995TIP3    H236621   5.509   5.786   1.985  0.4177 -0.1463  0.2069
 4996TIP3   OH236622   5.393   5.220   1.742 -0.2896  0.1349 -0.4937
 4996TIP3    H136623   5.485   5.208   1.717 -0.4941  0.1661 -1.2822
 4996TIP3    H236624   5.395   5.292   1.806  0.3181 -0.4205  0.1369
 4997TIP3   OH236625   4.172   0.963   2.355 -0.4205 -0.0258 -0.4487
 4997TIP3    H136626   4.131   0.887   2.314 -0.4163 -0.3427  0.1191
 4997TIP3    H236627   4.146   0.958   2.447 -1.6614  1.4947 -0.6726
 4998TIP3   OH236628   0.723   1.123   8.323  0.1376 -0.3430 -0.0930
 4998TIP3    H136629   0.630   1.140   8.311  0.2589 -0.2857 -1.1215
 4998TIP3    H236630   0.727   1.045   8.378 -0.5721 -1.4832 -1.5678
 4999TIP3   OH236631   6.202   0.281   8.657 -0.2964  0.1395 -0.0560
 4999TIP3    H136632   6.199   0.255   8.565 -0.5689 -1.0306  0.2677
 4999TIP3    H236633   6.200   0.377   8.655  1.9476  0.2299 -1.3594
 5000TIP3   OH236634   2.232   0.185   7.949  0.1597 -0.4596  0.0268
 5000TIP3    H136635   2.180   0.135   7.885  0.1868 -1.9352  1.1089
 5000TIP3    H236636   2.322   0.176   7.919  0.0401  0.0546 -0.5050
 5001TIP3   OH236637   0.560   0.463   7.541  0.0960 -0.0799  0.4960
 5001TIP3    H136638   0.642   0.501   7.571  0.6459 -1.4490  0.8139
 5001TIP3    H236639   0.498   0.481   7.612  1.1866 -2.6150  2.2506
 5002TIP3   OH236640   0.516   0.362   0.251 -0.4923 -0.6851  0.5142
 5002TIP3    H136641   0.550   0.274   0.270 -0.7466 -0.9698 -0.3267
 5002TIP3    H236642   0.570   0.420   0.305 -0.9971 -1.4287  1.8886
 5003TIP3   OH236643   4.794   5.713   1.178 -0.0943  1.0200 -0.1326
 5003TIP3    H136644   4.856   5.653   1.136  0.6526  0.9486  1.0338
 5003TIP3    H236645   4.771   5.775   1.109 -0.7356 -0.4626 -1.3206
 5004TIP3   OH236646   4.546   3.834   0.797 -0.3412 -0.1181 -0.5290
 5004TIP3    H136647   4.477   3.877   0.746  0.1198  2.1911  0.6670
 5004TIP3    H236648   4.566   3.896   0.867  2.0306 -1.3086 -0.0642
 5005TIP3   OH236649   3.751   4.585   1.104 -0.4434 -0.2437 -0.0673
 5005TIP3    H136650   3.772   4.497   1.073 -1.1962 -0.1514 -0.8776
 5005TIP3    H236651   3.723   4.573   1.195  0.5081 -0.6916  0.1747
 5006TIP3   OH236652   1.187   5.813   7.250 -0.2739  0.3394 -0.1996
 5006TIP3    H136653   1.124   5.750   7.285  1.3059  0.0546  2.3590
 5006TIP3    H236654   1.234   5.764   7.183 -0.3765 -0.6148  0.3923
 5007TIP3   OH236655   3.579   2.193   7.038  0.4182  0.0496 -0.4134
 5007TIP3    H136656   3.616   2.119   7.086 -1.2811 -0.2739  0.4934
 5007TIP3    H236657   3.573   2.161   6.947 -1.2409 -1.3634  0.1364
 5008TIP3   OH236658   5.017   4.406   0.808  0.0722  0.0949 -0.3782
 5008TIP3    H136659   5.023   4.369   0.720  0.6325 -0.9500  0.0819
 5008TIP3    H236660   4.950   4.354   0.852  1.4507 -1.0001  0.5337
 5009TIP3   OH236661   2.984   4.035   6.407  0.5379  0.5103 -0.3479
 5009TIP3    H136662   3.039   3.964   6.375  0.0885 -0.3709  0.7779
 5009TIP3    H236663   2.987   4.027   6.503 -3.2149 -0.9429 -0.2060
 5010TIP3   OH236664   0.920   0.091   2.467  0.0163  0.6468  0.8852
 5010TIP3    H136665   0.951   0.013   2.513  0.5413  1.4961  2.0430
 5010TIP3    H236666   1.000   0.137   2.441 -0.2862  0.6432 -0.0713
 5011TIP3   OH236667   4.131   0.269   0.555  0.0547  0.5428  0.1391
 5011TIP3    H136668   4.164   0.258   0.465  0.9286 -0.3131  0.5478
 5011TIP3    H236669   4.204   0.244   0.611 -0.9864 -0.5416  1.0819
 5012TIP3   OH236670   4.618   4.151   2.194 -0.6756 -0.1816  0.5329
 5012TIP3    H136671   4.677   4.179   2.264 -2.6615 -0.2143  2.3081
 5012TIP3    H236672   4.608   4.056   2.208  0.7063 -0.6493 -1.2766
 5013TIP3   OH236673   2.032   2.917   2.126  0.5075 -0.0286  0.4776
 5013TIP3    H136674   2.082   2.924   2.045 -0.2565 -2.7635 -0.3050
 5013TIP3    H236675   1.943   2.900   2.098 -0.1356  0.7982  1.9106
 5014TIP3   OH236676   4.901   6.101   0.095 -0.7697  0.5960 -0.2738
 5014TIP3    H136677   4.871   6.118   0.005 -1.4391 -0.1418 -0.1996
 5014TIP3    H236678   4.945   6.016   0.090  3.4096  2.5116 -0.8438
 5015TIP3   OH236679   2.803   0.680   8.974 -0.1770 -0.3095  0.1311
 5015TIP3    H136680   2.885   0.707   8.932 -0.9642  0.1399 -1.1758
 5015TIP3    H236681   2.785   0.593   8.938  0.6729 -1.2554  1.8672
 5016TIP3   OH236682   2.273   3.688   0.578  0.1979  0.6558  0.2893
 5016TIP3    H136683   2.339   3.719   0.640 -1.2473  3.7587  0.4621
 5016TIP3    H236684   2.220   3.627   0.627  0.2460  1.6008  1.5586
 5017TIP3   OH236685   4.836   4.466   8.490 -0.1336  0.0332  0.3195
 5017TIP3    H136686   4.827   4.469   8.395 -0.2082  2.2811  0.3345
 5017TIP3    H236687   4.905   4.402   8.506 -0.3547 -0.6272 -1.2105
 5018TIP3   OH236688   5.865   4.241   8.172  0.0407  0.5228 -0.5326
 5018TIP3    H136689   5.849   4.323   8.218  1.9129  1.0411 -0.7353
 5018TIP3    H236690   5.945   4.206   8.211  1.3773  0.6991 -2.9344
 5019TIP3   OH236691   3.056   0.581   7.572  0.3578 -0.0247 -0.1175
 5019TIP3    H136692   3.109   0.514   7.528  2.2033 -0.6205  2.7215
 5019TIP3    H236693   3.120   0.650   7.595 -0.7755  0.8857  0.4065
 5020TIP3   OH236694   2.809   3.939   2.287 -0.3183  0.1637  0.1651
 5020TIP3    H136695   2.793   3.862   2.342  0.3657  0.0801  0.2526
 5020TIP3    H236696   2.876   3.911   2.225  0.6767  0.9874  0.8437
 5021TIP3   OH236697   1.682   0.247   2.330 -0.3569  0.0340 -0.1624
 5021TIP3    H136698   1.678   0.204   2.244 -2.2119  0.3442 -0.2720
 5021TIP3    H236699   1.613   0.204   2.381  0.4367  0.1608  1.0398
 5022TIP3   OH236700   3.516   6.625   0.089  0.1792  0.1258  0.2522
 5022TIP3    H136701   3.431   6.668   0.084  0.2484  0.8642  3.5169
 5022TIP3    H236702   3.553   6.634   0.001 -1.2158  3.7758 -0.1007
 5023TIP3   OH236703   4.543   2.052   2.217  0.3474  0.0988  0.0997
 5023TIP3    H136704   4.470   2.076   2.274  0.4283  1.4172 -0.3082
 5023TIP3    H236705   4.503   2.000   2.147 -0.6500  2.5754 -1.3078
 5024TIP3   OH236706   2.341   4.064   1.288 -0.6032 -0.5827 -0.1072
 5024TIP3    H136707   2.366   4.146   1.331 -1.1324 -0.9082  0.8438
 5024TIP3    H236708   2.395   3.997   1.330  1.3146 -0.5036 -2.2637
 5025TIP3   OH236709   4.928   6.742   0.205 -0.5374  0.6271 -0.5998
 5025TIP3    H136710   5.000   6.743   0.143  1.4841 -0.9521  1.5223
 5025TIP3    H236711   4.958   6.797   0.277 -0.0806 -2.1890  1.5650
 5026TIP3   OH236712   2.411   4.633   1.735  0.4951 -0.0169  0.1419
 5026TIP3    H136713   2.367   4.712   1.703 -0.3388 -0.3807  0.3443
 5026TIP3    H236714   2.408   4.641   1.831  1.8055  0.4428  0.1612
 5027TIP3   OH236715   4.133   4.883   6.433 -0.6548  0.4706 -0.4601
 5027TIP3    H136716   4.138   4.919   6.522 -0.3272  2.1887 -1.1317
 5027TIP3    H236717   4.224   4.863   6.410 -0.9377 -2.0578  0.3476
 5028TIP3   OH236718   1.376   3.831   1.901  0.2359  0.0149  0.4276
 5028TIP3    H136719   1.382   3.905   1.841 -0.3349  1.7008  2.3203
 5028TIP3    H236720   1.466   3.804   1.916  0.3552 -0.9170 -1.6617
 5029TIP3   OH236721   4.284   5.289   8.777 -0.9380  0.1180 -0.4573
 5029TIP3    H136722   4.230   5.321   8.705 -0.9633 -0.7093 -0.8204
 5029TIP3    H236723   4.363   5.255   8.735  0.1493  1.7943  0.1071
 5030TIP3   OH236724   1.798   5.722   0.011 -0.4228  0.3440 -0.0789
 5030TIP3    H136725   1.746   5.657   0.059 -0.1389 -0.2007 -0.4846
 5030TIP3    H236726   1.737   5.793  -0.008 -0.4748  0.7026  1.3173
 5031TIP3   OH236727   0.115   4.786   0.330 -0.2764  0.1245 -0.9806
 5031TIP3    H136728   0.047   4.848   0.359 -0.6665  0.0331 -1.6771
 5031TIP3    H236729   0.068   4.704   0.315  0.2760 -0.4235  0.1457
 5032TIP3   OH236730   2.770   0.318   7.010 -0.6178  0.3571 -0.4797
 5032TIP3    H136731   2.746   0.283   7.096  0.2740  0.9399  0.0279
 5032TIP3    H236732   2.856   0.359   7.024 -0.4492  0.4471 -1.6556
 5033TIP3   OH236733   3.740   1.460   0.795  0.2417  0.2534  0.6029
 5033TIP3    H136734   3.657   1.509   0.790 -0.9634 -1.4585  2.3709
 5033TIP3    H236735   3.802   1.513   0.744 -2.4792  0.3868 -3.0018
 5034TIP3   OH236736   5.219   4.198   0.733  0.8071 -0.1043  0.5027
 5034TIP3    H136737   5.225   4.120   0.789 -0.4623 -0.6940 -0.1397
 5034TIP3    H236738   5.204   4.162   0.645  1.1400  0.8562  0.0430
 5035TIP3   OH236739   1.735   6.243   8.432 -0.0738 -0.1134  0.0478
 5035TIP3    H136740   1.648   6.260   8.468  1.4160  1.1306  3.4684
 5035TIP3    H236741   1.751   6.315   8.371 -0.8344  0.5886  0.6617
 5036TIP3   OH236742   0.057   1.005   1.082  0.2459 -0.1527 -0.2373
 5036TIP3    H136743   0.049   1.043   0.995  2.1846 -0.9646 -0.7958
 5036TIP3    H236744   0.109   1.069   1.132 -0.6178  0.1765  0.2745
 5037TIP3   OH236745   1.370   1.335   8.939  0.0337 -0.0990  0.1254
 5037TIP3    H136746   1.314   1.301   8.869 -0.4354 -1.1773  1.0032
 5037TIP3    H236747   1.367   1.268   9.007  0.3151  1.0151  1.2722
 5038TIP3   OH236748   2.967   3.844   8.898 -0.0291  0.8286 -0.1314
 5038TIP3    H136749   2.996   3.920   8.947 -2.0022  1.5799 -0.0235
 5038TIP3    H236750   3.004   3.769   8.945 -1.2942  1.5452  2.1660
 5039TIP3   OH236751   0.570   2.955   0.967 -0.2332  0.2530  0.2211
 5039TIP3    H136752   0.614   2.966   0.882 -1.6311  0.8463 -0.4546
 5039TIP3    H236753   0.524   2.871   0.959  0.3043 -0.0979  0.7210
 5040TIP3   OH236754   0.736   0.739   1.857 -0.6395 -0.0341  0.1703
 5040TIP3    H136755   0.804   0.790   1.901  0.1057  1.0987 -2.1264
 5040TIP3    H236756   0.772   0.650   1.851  0.1927  0.3083 -0.0515
 5041TIP3   OH236757   6.492   2.732   6.319  0.0781 -0.1770  0.0047
 5041TIP3    H136758   6.431   2.665   6.350  0.4010 -0.8634 -0.7914
 5041TIP3    H236759   6.481   2.805   6.380 -1.4688 -0.3141 -0.0588
 5042TIP3   OH236760   2.781   2.157   2.054  0.0065  0.8139 -0.2964
 5042TIP3    H136761   2.771   2.227   2.118  0.8012  2.2741 -1.7006
 5042TIP3    H236762   2.751   2.195   1.971 -1.6936 -1.2524 -0.7116
 5043TIP3   OH236763   5.376   6.065   1.438 -0.9244  0.1145  0.5810
 5043TIP3    H136764   5.396   6.119   1.515 -0.0320 -0.4077  0.7319
 5043TIP3    H236765   5.354   6.129   1.370  1.9092  0.8755  0.2134
 5044TIP3   OH236766   3.448   6.167   8.355 -0.3790 -0.5963  0.9108
 5044TIP3    H136767   3.375   6.161   8.416 -0.4327 -0.4671  0.8605
 5044TIP3    H236768   3.516   6.215   8.403  0.4765 -2.5417  1.7219
 5045TIP3   OH236769   1.090   5.689   2.298  0.4378  0.2300  0.3208
 5045TIP3    H136770   1.111   5.710   2.389  0.8548  0.7861  0.1007
 5045TIP3    H236771   1.117   5.766   2.248 -0.6101  0.2837 -0.1786
 5046TIP3   OH236772   2.112   6.474   8.480  0.1674  0.3168 -0.5253
 5046TIP3    H136773   2.162   6.545   8.520  0.9687 -0.7835  0.4919
 5046TIP3    H236774   2.118   6.491   8.386  1.5673  0.8210 -0.3776
 5047TIP3   OH236775   5.958   0.788   2.829 -0.7674 -0.7611  0.4811
 5047TIP3    H136776   5.901   0.712   2.829 -1.6510 -0.1571 -1.0997
 5047TIP3    H236777   6.003   0.785   2.744 -1.8582  1.1798 -0.2426
 5048TIP3   OH236778   5.850   1.527   0.550 -0.4020 -1.0468  0.1624
 5048TIP3    H136779   5.866   1.442   0.592 -1.0425 -0.6724  1.1755
 5048TIP3    H236780   5.860   1.591   0.620  2.6693  0.0271 -1.0630
 5049TIP3   OH236781   3.313   1.431   7.855 -0.2264 -0.2970 -0.2667
 5049TIP3    H136782   3.353   1.380   7.925  0.8579 -0.4820 -0.9831
 5049TIP3    H236783   3.241   1.479   7.896 -1.2966 -2.4060  0.4308
 5050TIP3   OH236784   3.762   1.465   8.194  0.1207 -0.1664 -0.5243
 5050TIP3    H136785   3.673   1.494   8.212  0.2156 -1.9066  3.9693
 5050TIP3    H236786   3.752   1.377   8.157  0.0447  0.2487 -1.5438
 5051TIP3   OH236787   4.720   3.066   2.028  0.2607 -0.3276  0.5674
 5051TIP3    H136788   4.673   3.148   2.044 -0.2108  0.0529 -2.2738
 5051TIP3    H236789   4.667   3.019   1.964  1.3949 -2.0801  0.8383
 5052TIP3   OH236790   5.928   6.637   7.377  0.3370  0.0442 -0.6485
 5052TIP3    H136791   5.859   6.573   7.358  0.0105  0.6971 -1.7521
 5052TIP3    H236792   6.010   6.587   7.368  0.0420 -0.9995  1.6857
 5053TIP3   OH236793   0.657   2.064   1.535  0.1339  0.2625 -0.2457
 5053TIP3    H136794   0.699   2.016   1.606  0.3951  0.7139 -0.0959
 5053TIP3    H236795   0.564   2.046   1.546  0.2804 -0.7944 -0.6184
 5054TIP3   OH236796   5.193   6.498   7.590  0.7350  0.9589  0.6176
 5054TIP3    H136797   5.271   6.447   7.612  0.2068  0.8850  2.4677
 5054TIP3    H236798   5.225   6.588   7.584  1.1937  0.7657 -0.0298
 5055TIP3   OH236799   0.685   5.831   8.333  0.0572 -0.2371  0.2268
 5055TIP3    H136800   0.703   5.747   8.291 -0.5585 -0.5829  0.6536
 5055TIP3    H236801   0.590   5.833   8.344 -0.1203  1.1914 -1.1954
 5056TIP3   OH236802   6.236   2.450   1.390 -0.4502  0.3421  0.1422
 5056TIP3    H136803   6.298   2.432   1.320  1.0460  0.6581  1.3528
 5056TIP3    H236804   6.262   2.393   1.462 -0.4235  1.7545  1.3041
 5057TIP3   OH236805   2.425   2.705   2.091 -0.0898 -0.2117  0.2087
 5057TIP3    H136806   2.339   2.715   2.132  0.2632  2.5557  0.5211
 5057TIP3    H236807   2.466   2.791   2.103  1.5849 -0.5431 -2.4747
 5058TIP3   OH236808   2.964   1.003   7.131 -0.4272 -0.0144  0.2008
 5058TIP3    H136809   2.974   0.933   7.066  1.5204  1.4488 -1.2359
 5058TIP3    H236810   2.910   1.069   7.087  0.0940  0.5702  0.4192
 5059TIP3   OH236811   0.976   2.995   1.761 -0.1252 -0.3105  0.2348
 5059TIP3    H136812   1.061   3.040   1.759 -1.0760  1.5267 -0.5430
 5059TIP3    H236813   0.988   2.921   1.701  0.7543  0.2873 -0.3704
 5060TIP3   OH236814   1.841   3.123   1.436  0.1183 -0.0974 -0.3107
 5060TIP3    H136815   1.793   3.067   1.496  1.4265 -1.4230 -0.4537
 5060TIP3    H236816   1.846   3.074   1.355  1.4484  0.1136 -0.3844
 5061TIP3   OH236817   1.227   1.406   0.373 -0.1225  0.2286  0.1215
 5061TIP3    H136818   1.135   1.419   0.398 -0.1332  0.9002 -0.2556
 5061TIP3    H236819   1.228   1.418   0.278  0.3479  0.1566  0.1155
 5062TIP3   OH236820   5.365   2.554   1.693  0.1612  0.3572  0.3771
 5062TIP3    H136821   5.348   2.577   1.602  2.1937 -0.0859 -0.1539
 5062TIP3    H236822   5.306   2.481   1.711  0.4772 -0.2314 -0.9123
 5063TIP3   OH236823   3.407   3.570   2.826  0.1934 -0.3853  0.2935
 5063TIP3    H136824   3.315   3.569   2.850  0.0766  1.8090  0.0584
 5063TIP3    H236825   3.437   3.481   2.846 -1.5706 -0.7002  1.8523
 5064TIP3   OH236826   5.555   3.424   7.424  0.1778  0.7861  0.5078
 5064TIP3    H136827   5.595   3.346   7.461  0.1376 -0.2191 -1.4125
 5064TIP3    H236828   5.628   3.478   7.395  0.2772  2.3109  3.2364
 5065TIP3   OH236829   5.824   1.259   8.406 -0.6402 -0.2386 -0.0501
 5065TIP3    H136830   5.729   1.270   8.417 -0.6893 -0.9356  0.3097
 5065TIP3    H236831   5.852   1.338   8.360 -1.5550 -0.5055 -1.1171
 5066TIP3   OH236832   2.616   3.196   8.299  0.4565 -0.7858  0.1784
 5066TIP3    H136833   2.582   3.108   8.283 -0.3440 -0.5048  0.3034
 5066TIP3    H236834   2.567   3.228   8.375  2.7718 -1.3376  2.0262
 5067TIP3   OH236835   5.550   2.317   9.036  0.3054 -0.5570  0.2814
 5067TIP3    H136836   5.515   2.328   8.947 -0.6389  1.0019  0.8027
 5067TIP3    H236837   5.588   2.402   9.057  2.3987 -1.5132  0.6402
 5068TIP3   OH236838   3.907   2.271   7.655 -0.6979 -0.3206 -0.4708
 5068TIP3    H136839   3.928   2.318   7.736 -1.0906  2.5000 -1.8917
 5068TIP3    H236840   3.811   2.275   7.650 -0.7005 -0.8246 -0.8814
 5069TIP3   OH236841   2.418   4.484   0.979  0.4438  0.7028  0.0299
 5069TIP3    H136842   2.356   4.449   1.043  0.7046 -0.0225 -0.1120
 5069TIP3    H236843   2.369   4.554   0.934  0.2858  1.2777  1.0640
 5070TIP3   OH236844   5.230   1.686   0.350  0.1942 -0.2460  0.1450
 5070TIP3    H136845   5.285   1.648   0.418  0.1315  3.1396  2.3288
 5070TIP3    H236846   5.293   1.722   0.287  0.3602 -0.3169  0.2684
 5071TIP3   OH236847   3.074   3.887   0.581  0.0852  0.9362  0.2522
 5071TIP3    H136848   3.158   3.875   0.537 -0.1747 -2.3728  0.4022
 5071TIP3    H236849   3.010   3.849   0.522 -0.9909  1.2107  1.2071
 5072TIP3   OH236850   1.435   2.679   2.227 -0.5652 -0.0189 -0.6173
 5072TIP3    H136851   1.428   2.664   2.321 -0.6584 -0.4417 -0.6886
 5072TIP3    H236852   1.486   2.605   2.195 -2.1835 -0.9452 -1.1860
 5073TIP3   OH236853   0.702   3.669   6.835  0.7235 -0.0867 -0.1874
 5073TIP3    H136854   0.766   3.711   6.778  1.0456  1.1895  1.0394
 5073TIP3    H236855   0.727   3.576   6.835  1.1704  0.0217 -1.4931
 5074TIP3   OH236856   4.830   2.665   2.188 -0.1657 -0.7296 -0.4150
 5074TIP3    H136857   4.792   2.653   2.275  0.8445 -0.4536  0.0762
 5074TIP3    H236858   4.875   2.582   2.170  2.2016  0.2353  0.6574
 5075TIP3   OH236859   6.731   3.683   6.692  0.9430 -0.4120 -0.1622
 5075TIP3    H136860   6.810   3.725   6.723 -0.3092  1.9609  0.0462
 5075TIP3    H236861   6.665   3.752   6.692 -0.9111 -2.0604 -1.2161
 5076TIP3   OH236862   1.971   3.666   1.664  0.1759  0.0665  0.3703
 5076TIP3    H136863   2.014   3.678   1.749  1.0049 -0.6146  0.0581
 5076TIP3    H236864   1.888   3.624   1.685  1.0675 -1.5870  0.7358
 5077TIP3   OH236865   2.536   1.712   8.038  0.1911  0.1168 -0.1938
 5077TIP3    H136866   2.561   1.716   8.130 -0.1487  1.4070 -0.1476
 5077TIP3    H236867   2.488   1.629   8.030  1.5805 -0.7878  0.4212
 5078TIP3   OH236868   4.158   2.304   0.274 -0.3195 -0.0051 -0.6905
 5078TIP3    H136869   4.231   2.342   0.225  0.8340  1.6111  2.0308
 5078TIP3    H236870   4.198   2.274   0.356 -2.1437 -2.5176 -0.6102
 5079TIP3   OH236871   0.827   3.756   7.235 -0.6582 -0.3239  0.2832
 5079TIP3    H136872   0.841   3.701   7.313  0.2651  0.9419  1.0543
 5079TIP3    H236873   0.828   3.694   7.162  1.1338 -1.2959  1.0488
 5080TIP3   OH236874   5.400   3.036   8.835 -0.2457  0.2410  0.1262
 5080TIP3    H136875   5.467   3.100   8.809  0.3128 -0.0549  0.8302
 5080TIP3    H236876   5.435   2.952   8.806 -1.4256  0.3128 -1.7024
 5081TIP3   OH236877   2.264   1.892   8.876  1.0233 -0.1802 -0.0898
 5081TIP3    H136878   2.189   1.849   8.836  0.0355  0.8398  0.5748
 5081TIP3    H236879   2.267   1.979   8.835  1.9652 -0.2653 -0.2381
 5082TIP3   OH236880   2.203   2.726   8.291 -0.1016  0.1527 -0.0267
 5082TIP3    H136881   2.256   2.649   8.312  0.2039  0.2914 -0.2792
 5082TIP3    H236882   2.139   2.730   8.362  0.1922 -0.0495  0.2581
 5083TIP3   OH236883   3.302   3.412   8.000  1.0069 -0.2823  0.3248
 5083TIP3    H136884   3.392   3.422   7.970  0.8960  1.2027  0.4423
 5083TIP3    H236885   3.308   3.414   8.096  0.9066 -0.8348  0.3476
 5084TIP3   OH236886   4.180   4.623   2.263 -0.3433  0.2938  0.0282
 5084TIP3    H136887   4.117   4.606   2.333 -1.2368 -4.6115 -1.5906
 5084TIP3    H236888   4.262   4.586   2.295  0.2400  1.3607 -0.1757
 5085TIP3   OH236889   5.503   6.206   1.621  0.3198  0.0283 -0.3607
 5085TIP3    H136890   5.488   6.253   1.702  0.7268 -1.8242  0.8513
 5085TIP3    H236891   5.580   6.248   1.582  0.5197  0.5297  0.5540
 5086TIP3   OH236892   2.077   6.181   7.293 -0.3338  0.5474 -0.2128
 5086TIP3    H136893   2.167   6.176   7.262 -0.4813  3.1007 -1.2783
 5086TIP3    H236894   2.083   6.156   7.386  1.0036 -1.8182 -0.8640
 5087TIP3   OH236895   2.864   6.661   7.498 -0.8354  0.1640  0.3361
 5087TIP3    H136896   2.927   6.628   7.434 -1.2525  1.2588 -0.6569
 5087TIP3    H236897   2.837   6.582   7.546 -1.0374 -0.8075 -1.2881
 5088TIP3   OH236898   6.540   0.881   0.255  0.3359 -0.0488  0.2801
 5088TIP3    H136899   6.607   0.928   0.305 -0.6504  0.6614  0.9849
 5088TIP3    H236900   6.548   0.915   0.166  2.0929 -1.3042 -0.0890
 5089TIP3   OH236901   3.689   3.490   8.119 -0.1395  0.4027 -0.2926
 5089TIP3    H136902   3.710   3.400   8.095 -2.2279 -0.2448  0.0588
 5089TIP3    H236903   3.717   3.498   8.209  0.8461  0.3925 -0.5922
 5090TIP3   OH236904   6.094   5.186   0.714 -0.0067 -0.1022 -0.4456
 5090TIP3    H136905   6.064   5.157   0.628  0.5765 -0.8257 -0.4181
 5090TIP3    H236906   6.156   5.257   0.694  1.1795 -1.1655 -0.7303
 5091TIP3   OH236907   1.376   2.736   8.618 -0.2123  0.0612 -0.3175
 5091TIP3    H136908   1.417   2.737   8.532  2.0960  0.3849  0.7277
 5091TIP3    H236909   1.389   2.825   8.652 -1.0876 -0.0634  0.4033
 5092TIP3   OH236910   0.209   5.625   0.653 -0.5707  0.2645  0.2410
 5092TIP3    H136911   0.152   5.698   0.678 -0.2776  0.3736  0.6001
 5092TIP3    H236912   0.156   5.547   0.668 -0.0631  0.2534  2.2387
 5093TIP3   OH236913   0.395   4.198   8.084  0.1672 -0.2257 -0.5119
 5093TIP3    H136914   0.333   4.141   8.129 -0.8579  1.0385 -0.2843
 5093TIP3    H236915   0.342   4.251   8.025  1.2612 -0.4286 -1.7523
 5094TIP3   OH236916   1.764   0.691   0.512  0.0911 -0.2302 -0.0170
 5094TIP3    H136917   1.724   0.741   0.584 -1.6726 -0.7065 -0.6179
 5094TIP3    H236918   1.858   0.689   0.533 -0.4118 -0.6898  2.4915
 5095TIP3   OH236919   6.608   3.727   0.023 -0.4981  0.3930 -0.2930
 5095TIP3    H136920   6.525   3.771   0.003 -1.4545 -0.4002  1.6247
 5095TIP3    H236921   6.594   3.636  -0.003  0.1270  0.4457 -0.8338
 5096TIP3   OH236922   5.833   1.863   2.341  0.0198 -0.5476 -0.0352
 5096TIP3    H136923   5.804   1.825   2.424 -0.2242 -0.1322  0.0679
 5096TIP3    H236924   5.753   1.887   2.296  0.0326 -2.7108 -1.3293
 5097TIP3   OH236925   3.508   4.359   7.814 -0.1699 -0.0477 -0.0106
 5097TIP3    H136926   3.460   4.437   7.788 -0.5568 -0.0595  0.6442
 5097TIP3    H236927   3.532   4.375   7.905 -0.2129 -0.6659  0.1159
 5098TIP3   OH236928   4.466   4.696   0.343 -0.5421  0.7149 -0.1474
 5098TIP3    H136929   4.486   4.638   0.417 -1.9424 -0.5376 -0.7123
 5098TIP3    H236930   4.488   4.644   0.265 -0.0657  1.6419 -0.6493
 5099TIP3   OH236931   1.583   4.456   2.594  0.4504  0.0623 -0.0607
 5099TIP3    H136932   1.534   4.449   2.676  0.2683  0.5492 -0.1296
 5099TIP3    H236933   1.534   4.400   2.533  1.3751 -1.4450  0.5267
 5100TIP3   OH236934   3.160   4.833   7.992  0.2928 -0.5043  0.1027
 5100TIP3    H136935   3.183   4.918   7.954 -0.2449  0.4085  1.7180
 5100TIP3    H236936   3.083   4.804   7.942  0.7950 -0.3017 -0.8023
 5101TIP3   OH236937   6.143   1.948   1.776  0.2742  0.0643 -0.5051
 5101TIP3    H136938   6.195   1.873   1.806 -0.9858 -0.8311 -0.4735
 5101TIP3    H236939   6.145   2.009   1.850 -1.0222 -1.1893  0.6308
 5102TIP3   OH236940   4.618   0.369   8.972  0.4155  0.0418 -0.0298
 5102TIP3    H136941   4.626   0.327   8.886  0.6720  0.8234 -0.3955
 5102TIP3    H236942   4.690   0.332   9.023  0.2411 -0.4522 -0.1377
 5103TIP3   OH236943   1.284   0.906   0.498  0.1432 -0.2979  0.4471
 5103TIP3    H136944   1.269   0.999   0.480  0.8592 -0.1731  0.4517
 5103TIP3    H236945   1.241   0.891   0.583  1.1272  0.3528  1.0783
 5104TIP3   OH236946   4.626   3.548   7.427  0.9485  0.1635  0.7092
 5104TIP3    H136947   4.647   3.543   7.520 -0.4855 -2.4263  0.9977
 5104TIP3    H236948   4.683   3.484   7.385  0.9109  0.6133 -0.0503
 5105TIP3   OH236949   0.618   4.101   8.754 -0.1429  0.5657  0.5622
 5105TIP3    H136950   0.566   4.058   8.686  0.3575 -0.7300  0.9679
 5105TIP3    H236951   0.575   4.078   8.836  0.8440 -0.2577  0.8787
 5106TIP3   OH236952   4.157   1.740   8.693 -0.3107 -0.1891 -0.1913
 5106TIP3    H136953   4.229   1.783   8.646 -0.3874  0.7988  0.5445
 5106TIP3    H236954   4.185   1.649   8.701 -0.7626 -0.6463 -3.0027
 5107TIP3   OH236955   4.331   3.973   8.623 -0.1948 -0.1647 -0.4185
 5107TIP3    H136956   4.406   3.928   8.583 -0.2947 -0.1403 -0.6363
 5107TIP3    H236957   4.345   4.065   8.601 -0.1884 -0.1346 -0.2917
 5108TIP3   OH236958   4.185   3.259   7.906  0.4967 -0.1773 -0.3157
 5108TIP3    H136959   4.114   3.315   7.936  0.1242 -0.0070 -1.4960
 5108TIP3    H236960   4.228   3.308   7.836  2.4216  0.1633  1.0122
 5109TIP3   OH236961   0.405   2.573   2.101 -0.4597 -0.0632  0.2843
 5109TIP3    H136962   0.465   2.574   2.176 -0.3039 -1.6502  0.2105
 5109TIP3    H236963   0.455   2.530   2.031 -1.8653 -2.0308  0.4157
 5110TIP3   OH236964   0.482   2.650   0.474  0.2171 -0.2186 -0.2466
 5110TIP3    H136965   0.455   2.727   0.423 -2.1999 -1.7515 -1.4407
 5110TIP3    H236966   0.518   2.590   0.410  3.3907  0.3017  0.8597
 5111TIP3   OH236967   2.051   4.025   1.326 -0.0454  0.2549  0.0243
 5111TIP3    H136968   2.139   4.045   1.292  0.7172 -2.2371  0.3351
 5111TIP3    H236969   2.060   3.938   1.366 -2.6863 -0.0968  0.0218
 5112TIP3   OH236970   5.092   2.595   0.501 -0.4884 -0.1121  0.2503
 5112TIP3    H136971   5.085   2.653   0.425 -0.4549 -0.6988 -0.2158
 5112TIP3    H236972   5.186   2.581   0.512 -0.5345 -2.0112 -1.1878
 5113TIP3   OH236973   6.677   3.368   7.492 -0.2824  0.4432  0.0939
 5113TIP3    H136974   6.689   3.398   7.402 -0.0334 -1.5817 -0.5853
 5113TIP3    H236975   6.766   3.355   7.525 -0.3890  0.2231  0.2950
 5114TIP3   OH236976   6.249   2.834   8.694  0.4081 -0.0933 -0.7118
 5114TIP3    H136977   6.199   2.904   8.736  1.8966  1.2451 -1.0680
 5114TIP3    H236978   6.183   2.768   8.669 -0.9618  0.9148  0.1164
 5115TIP3   OH236979   1.477   4.308   1.118 -0.4517 -0.3355  0.5875
 5115TIP3    H136980   1.531   4.230   1.124  0.1371  0.1214  1.5918
 5115TIP3    H236981   1.392   4.281   1.152 -0.0982 -0.4200  1.4358
 5116TIP3   OH236982   6.701   0.768   0.521  0.2104  0.7254  0.1448
 5116TIP3    H136983   6.759   0.697   0.549 -3.0620 -2.8545 -1.2395
 5116TIP3    H236984   6.734   0.795   0.436 -0.0218 -1.1833 -0.5839
 5117TIP3   OH236985   3.807   6.472   7.610  0.2566 -0.1484 -0.0296
 5117TIP3    H136986   3.771   6.559   7.629 -1.2850 -0.5656 -0.8679
 5117TIP3    H236987   3.893   6.472   7.652 -0.9115  0.7328  2.5989
 5118TIP3   OH236988   1.203   2.003   2.113  0.1994  0.2880 -0.4614
 5118TIP3    H136989   1.226   1.973   2.201 -0.9943 -0.4173 -0.3785
 5118TIP3    H236990   1.120   2.048   2.123  1.0212  2.0106 -0.9195
 5119TIP3   OH236991   3.103   1.453   0.696  0.0338 -0.1382  0.1677
 5119TIP3    H136992   3.184   1.489   0.659 -0.2133  0.0785 -0.1626
 5119TIP3    H236993   3.069   1.523   0.751 -0.0196 -0.1680  0.1728
 5120TIP3   OH236994   4.438   5.800   0.171  0.4902 -0.3016 -0.2205
 5120TIP3    H136995   4.405   5.838   0.253 -0.1052 -0.2779 -0.4655
 5120TIP3    H236996   4.451   5.708   0.191 -0.1155 -0.3932 -0.2324
 5121TIP3   OH236997   4.827   6.424   7.897  0.0508 -0.4943  0.3053
 5121TIP3    H136998   4.791   6.457   7.815  1.7634  0.9596  0.0770
 5121TIP3    H236999   4.841   6.330   7.882 -2.4558 -0.8841  0.0328
 5122TIP3   OH237000   1.172   5.867   0.701  0.7244 -0.1669  0.4578
 5122TIP3    H137001   1.124   5.795   0.662  1.1766 -0.8215  1.0729
 5122TIP3    H237002   1.115   5.900   0.770  0.5000  0.1000  0.1489
 5123TIP3   OH237003   6.240   5.274   1.971  0.0772 -0.2936 -0.4561
 5123TIP3    H137004   6.299   5.238   2.037 -0.6013 -0.8355 -0.1253
 5123TIP3    H237005   6.152   5.253   2.003 -0.3757  1.7637 -0.1898
 5124TIP3   OH237006   5.650   4.942   8.024  0.2043 -0.1796  0.5442
 5124TIP3    H137007   5.674   5.032   8.005 -1.3307  0.0710 -0.3754
 5124TIP3    H237008   5.567   4.948   8.072 -0.1831 -1.1032  0.0274
 5125TIP3   OH237009   6.682   6.767   2.119 -0.6299  0.2268 -0.0672
 5125TIP3    H137010   6.705   6.674   2.121  1.6608  0.7388  0.4268
 5125TIP3    H237011   6.634   6.782   2.200 -0.1882 -0.3486  0.3060
 5126TIP3   OH237012   3.972   5.218   0.163  0.3658 -0.0637 -0.0129
 5126TIP3    H137013   3.984   5.156   0.091 -0.2135 -0.8406  0.5480
 5126TIP3    H237014   3.962   5.303   0.119  0.1661 -0.5030 -0.8385
 5127TIP3   OH237015   1.008   1.745   8.147  0.0183  0.0801  0.8632
 5127TIP3    H137016   1.097   1.766   8.176 -0.5874  0.8934  2.2310
 5127TIP3    H237017   1.012   1.751   8.051  1.8221 -1.5818  0.7714
 5128TIP3   OH237018   4.981   3.631   0.516 -0.0576  0.4732  0.3844
 5128TIP3    H137019   4.906   3.607   0.570 -1.6371 -1.0488 -2.2180
 5128TIP3    H237020   5.038   3.555   0.520  1.5842  1.7060  2.5178
 5129TIP3   OH237021   2.477   6.114   8.845 -0.6245  0.5694 -0.5367
 5129TIP3    H137022   2.409   6.071   8.898  0.3056 -0.4196 -0.1100
 5129TIP3    H237023   2.475   6.067   8.762 -0.0559  0.1399 -0.3084
 5130TIP3   OH237024   1.679   5.511   1.136  0.2447 -0.3107  0.2578
 5130TIP3    H137025   1.653   5.484   1.048 -0.3741  0.4666  0.1940
 5130TIP3    H237026   1.614   5.471   1.193  1.1592 -1.5663  0.4680
 5131TIP3   OH237027   6.466   6.209   8.757 -0.3649  0.8993 -0.0584
 5131TIP3    H137028   6.535   6.274   8.746 -0.5906  0.9742 -1.0745
 5131TIP3    H237029   6.395   6.256   8.801 -0.6262  1.4043 -1.0160
 5132TIP3   OH237030   1.926   4.285   8.246 -0.2464 -0.9622  0.3543
 5132TIP3    H137031   1.997   4.342   8.275 -1.7525  0.7715  0.8033
 5132TIP3    H237032   1.970   4.207   8.211  1.7965 -0.8929  2.5545
 5133TIP3   OH237033   1.045   5.700   0.350 -0.0753  0.3510 -0.4453
 5133TIP3    H137034   0.999   5.617   0.342 -0.3180  0.5527 -1.3049
 5133TIP3    H237035   0.996   5.750   0.415 -1.3833  0.7401 -1.6667
 5134TIP3   OH237036   3.190   2.640   0.253 -0.0020  0.4968  0.1814
 5134TIP3    H137037   3.099   2.672   0.257 -0.8816 -1.9066  1.9972
 5134TIP3    H237038   3.241   2.710   0.292 -1.4778  0.8442  1.6298
 5135TIP3   OH237039   1.500   5.364   6.451  0.6767  0.0850  0.8131
 5135TIP3    H137040   1.514   5.295   6.517  0.4668  1.8512  2.8294
 5135TIP3    H237041   1.410   5.393   6.466 -0.5384 -1.5420 -2.4568
 5136TIP3   OH237042   0.865   1.599   6.913  0.1566  0.4103  0.1238
 5136TIP3    H137043   0.773   1.574   6.920  0.1016 -2.1095 -4.9661
 5136TIP3    H237044   0.913   1.517   6.925  1.5844  1.2454  0.3387
 5137TIP3   OH237045   5.166   3.075   8.654  0.7780 -0.1138 -0.0860
 5137TIP3    H137046   5.198   3.031   8.733  0.8222 -2.0166 -1.0855
 5137TIP3    H237047   5.245   3.089   8.601  0.3932 -2.5837 -1.4918
 5138TIP3   OH237048   2.525   3.749   0.689  0.1953  0.7592 -0.2298
 5138TIP3    H137049   2.585   3.821   0.673  3.3084 -0.7211  3.2351
 5138TIP3    H237050   2.561   3.675   0.641  1.5220 -0.2019  2.0595
 5139TIP3   OH237051   3.864   2.364   0.662 -0.3654 -0.2286  0.1535
 5139TIP3    H137052   3.895   2.450   0.634 -0.0749 -1.0737 -2.3982
 5139TIP3    H237053   3.770   2.375   0.673 -0.2359  0.5662  0.5305
 5140TIP3   OH237054   5.037   6.162   7.699 -0.0202  0.1065  0.4049
 5140TIP3    H137055   5.117   6.113   7.679 -0.0839 -0.6488  1.8395
 5140TIP3    H237056   5.052   6.195   7.788 -0.9604  0.6963  0.3548
 5141TIP3   OH237057   0.958   3.269   7.319 -0.2185  0.0605 -0.2323
 5141TIP3    H137058   0.959   3.264   7.223  0.0438 -0.9873 -0.1912
 5141TIP3    H237059   0.867   3.253   7.343 -0.6218  1.9599 -0.3509
 5142TIP3   OH237060   3.140   0.471   0.970 -0.3996  0.0187 -0.1576
 5142TIP3    H137061   3.059   0.509   1.004 -0.1362  1.1054 -0.7043
 5142TIP3    H237062   3.194   0.455   1.047 -1.4511 -1.5107  0.2900
 5143TIP3   OH237063   2.782   4.070   1.841 -0.2416 -0.0889 -0.1876
 5143TIP3    H137064   2.774   4.047   1.748  0.1717  0.9673 -0.4987
 5143TIP3    H237065   2.693   4.060   1.875  0.0984 -3.5653  0.1056
 5144TIP3   OH237066   5.568   6.362   8.016  0.6351 -0.0748  0.2514
 5144TIP3    H137067   5.595   6.350   7.925  1.2679 -0.8774  0.5361
 5144TIP3    H237068   5.580   6.456   8.032 -0.5010  0.2678 -0.8003
 5145TIP3   OH237069   1.743   2.642   7.579 -0.2103 -0.0455 -0.4616
 5145TIP3    H137070   1.838   2.636   7.592 -0.1372 -0.9994 -1.3215
 5145TIP3    H237071   1.734   2.683   7.493 -0.5863  0.1563 -0.3271
 5146TIP3   OH237072   1.572   6.185   1.750 -0.4351 -0.1908 -0.7022
 5146TIP3    H137073   1.562   6.244   1.675 -0.2653  0.7608 -0.0082
 5146TIP3    H237074   1.662   6.152   1.744 -0.0838  0.6701 -0.3883
 5147TIP3   OH237075   6.418   5.223   1.038 -0.7008 -0.1210 -0.8992
 5147TIP3    H137076   6.400   5.167   1.114 -0.7929 -3.2769 -3.0327
 5147TIP3    H237077   6.332   5.257   1.013 -0.5772  1.5075  0.7216
 5148TIP3   OH237078   4.951   4.820   1.191 -0.5432 -0.4301  0.3217
 5148TIP3    H137079   5.011   4.772   1.133 -1.6252  0.4491 -1.6125
 5148TIP3    H237080   4.927   4.756   1.258 -1.9516 -2.7214 -2.1565
 5149TIP3   OH237081   5.956   3.130   9.042 -0.2257  0.3917  0.6315
 5149TIP3    H137082   5.868   3.093   9.034  0.2611 -0.4393 -1.3112
 5149TIP3    H237083   5.957   3.202   8.979  0.5175  0.2928  0.5241
 5150TIP3   OH237084   3.088   4.026   2.862 -0.1150  0.1571 -0.3904
 5150TIP3    H137085   3.179   4.018   2.890 -0.6745 -1.1851  1.2155
 5150TIP3    H237086   3.051   3.940   2.877 -1.2591  0.1674 -2.6657
 5151TIP3   OH237087   1.376   0.146   7.060  0.4889 -0.0080  0.3952
 5151TIP3    H137088   1.387   0.159   7.154 -0.7732 -1.0332  0.7069
 5151TIP3    H237089   1.377   0.051   7.048 -2.2511 -0.0578 -0.1887
 5152TIP3   OH237090   0.427   1.980   1.181  0.9323  0.3777  0.7851
 5152TIP3    H137091   0.508   1.931   1.166 -0.2411 -0.7408 -2.8050
 5152TIP3    H237092   0.366   1.916   1.218  0.4026 -0.0311 -0.7420
 5153TIP3   OH237093   5.138   1.036   6.583 -0.4375 -0.1161  0.8776
 5153TIP3    H137094   5.212   1.027   6.643  0.6035  1.7247 -0.0423
 5153TIP3    H237095   5.162   1.109   6.525 -3.2928  1.0906  1.0201
 5154TIP3   OH237096   6.086   0.074   7.486 -0.3634  0.1790 -0.5711
 5154TIP3    H137097   6.060  -0.006   7.440  1.1203 -0.3588 -0.5342
 5154TIP3    H237098   6.181   0.077   7.475 -0.1141  0.6826  1.4527
 5155TIP3   OH237099   4.855   5.856   0.517 -0.1234  0.1091  0.0829
 5155TIP3    H137100   4.816   5.769   0.508 -0.4208  0.3314 -0.9150
 5155TIP3    H237101   4.911   5.849   0.594 -0.0238 -1.0073 -0.0716
 5156TIP3   OH237102   6.198   3.588   8.738  0.1087  0.3258  0.0820
 5156TIP3    H137103   6.249   3.661   8.701  1.2144 -0.9442 -1.0273
 5156TIP3    H237104   6.180   3.531   8.663 -0.6660 -0.5856  0.9283
 5157TIP3   OH237105   3.762   0.158   7.705  0.6234 -0.0131 -0.1832
 5157TIP3    H137106   3.690   0.116   7.659 -0.4296 -0.8352  2.1085
 5157TIP3    H237107   3.834   0.096   7.699  0.0263 -0.7872  0.5505
 5158TIP3   OH237108   1.907   4.855   7.318  0.2410  0.1256  0.2604
 5158TIP3    H137109   1.952   4.867   7.402 -0.2366 -0.2367  0.5729
 5158TIP3    H237110   1.818   4.831   7.342  0.2912 -0.7148 -0.3476
 5159TIP3   OH237111   4.604   0.007   0.725  0.0870 -0.3171  0.4481
 5159TIP3    H137112   4.629  -0.086   0.727 -0.9392 -0.6213  0.2232
 5159TIP3    H237113   4.681   0.054   0.755  1.3639 -1.0872 -1.4558
 5160TIP3   OH237114   6.712   6.113   6.706 -0.0666  0.1203  0.3045
 5160TIP3    H137115   6.800   6.090   6.736  0.6649  0.8153 -1.1814
 5160TIP3    H237116   6.714   6.208   6.696 -0.7175  0.0542 -0.5321
 5161TIP3   OH237117   4.901   3.330   1.670 -0.5572 -0.0655 -0.3738
 5161TIP3    H137118   4.890   3.236   1.688  0.3077 -0.1972 -0.5065
 5161TIP3    H237119   4.897   3.336   1.574 -1.5697  0.1729 -0.3345
 5162TIP3   OH237120   2.172   0.616   1.095  0.1129  0.0360 -0.5480
 5162TIP3    H137121   2.124   0.699   1.097  0.0838  0.0323  1.7553
 5162TIP3    H237122   2.215   0.615   1.009 -1.6076  1.4140 -1.4815
 5163TIP3   OH237123   4.787   0.252   1.044 -0.7200 -0.0848  0.3385
 5163TIP3    H137124   4.877   0.279   1.064 -1.0318  0.0995  1.5818
 5163TIP3    H237125   4.789   0.157   1.053 -0.5152 -0.1476 -0.2754
 5164TIP3   OH237126   0.594   3.067   7.827  0.3516 -0.0681 -0.1170
 5164TIP3    H137127   0.665   3.059   7.762  0.5751 -1.0855  0.2379
 5164TIP3    H237128   0.589   3.161   7.844 -0.3904  0.3537 -2.3473
 5165TIP3   OH237129   3.379   4.105   9.018 -0.2373 -0.1814  0.5814
 5165TIP3    H137130   3.336   4.181   8.979  0.5638  1.3177  2.4459
 5165TIP3    H237131   3.460   4.094   8.967  0.3259  1.1337  1.1444
 5166TIP3   OH237132   5.557   1.844   8.705  0.1420  0.1725  0.2037
 5166TIP3    H137133   5.523   1.784   8.638 -0.2448  0.5587  0.0482
 5166TIP3    H237134   5.646   1.814   8.721  0.2393  0.0660 -0.4794
 5167TIP3   OH237135   3.409   6.055   7.201  0.0485  0.4160  0.8903
 5167TIP3    H137136   3.324   6.099   7.198  0.2796  0.9260  1.5762
 5167TIP3    H237137   3.410   6.011   7.286  0.8211  1.1534  1.2779
 5168TIP3   OH237138   1.085   5.160   0.174  0.5111  0.1563  0.4494
 5168TIP3    H137139   1.157   5.133   0.117  1.2612  0.0857  1.4077
 5168TIP3    H237140   1.113   5.244   0.210 -0.2537  0.5256  0.2069
 5169TIP3   OH237141   6.664   1.694   8.601 -0.1845 -0.1644  0.5374
 5169TIP3    H137142   6.609   1.733   8.669 -0.7326  0.9669 -0.4966
 5169TIP3    H237143   6.641   1.742   8.521  1.5407 -0.3795 -0.1538
 5170TIP3   OH237144   5.378   5.457   1.526  0.0179 -0.3608 -0.3678
 5170TIP3    H137145   5.389   5.377   1.578 -0.7934 -0.6794 -0.6877
 5170TIP3    H237146   5.433   5.443   1.449  0.1227 -0.4720 -0.2746
 5171TIP3   OH237147   4.954   6.401   1.161 -1.2520  0.2793  0.6889
 5171TIP3    H137148   4.982   6.316   1.195  0.1737  0.3697 -0.1714
 5171TIP3    H237149   4.891   6.433   1.226 -1.9005 -1.4661  0.9743
 5172TIP3   OH237150   4.405   4.888   1.118  0.7477 -0.8924  0.2387
 5172TIP3    H137151   4.489   4.845   1.106  1.1707  0.4189 -2.0064
 5172TIP3    H237152   4.424   4.965   1.172  1.0751 -0.3856 -0.5917
 5173TIP3   OH237153   3.153   5.855   7.401  0.0784 -0.0954 -0.2385
 5173TIP3    H137154   3.167   5.944   7.370 -0.3268  1.4760  3.5291
 5173TIP3    H237155   3.237   5.829   7.440  1.0953 -2.6251 -3.6542
 5174TIP3   OH237156   3.923   3.186   8.808 -0.2332  0.0843  0.0248
 5174TIP3    H137157   3.995   3.182   8.745 -0.4895 -2.3028 -0.2221
 5174TIP3    H237158   3.846   3.207   8.754 -0.2722 -0.8886 -0.3247
 5175TIP3   OH237159   0.268   3.567   1.971 -0.6095  0.3543  0.6259
 5175TIP3    H137160   0.173   3.559   1.983 -0.4648 -1.0580  1.0279
 5175TIP3    H237161   0.305   3.538   2.055  0.1702  1.7159  0.7717
 5176TIP3   OH237162   2.097   5.019   7.799  0.1195  0.4446 -0.5242
 5176TIP3    H137163   2.023   5.076   7.775 -0.2110  1.3893  2.3568
 5176TIP3    H237164   2.129   5.056   7.881  1.8000 -1.8422 -0.0807
 5177TIP3   OH237165   4.305   0.907   1.228  0.2748  0.0789  0.6383
 5177TIP3    H137166   4.218   0.942   1.207  0.3317  0.8090  1.5445
 5177TIP3    H237167   4.305   0.819   1.189 -0.7179  0.2143  0.2786
 5178TIP3   OH237168   0.283   2.864   7.326  0.5060  0.1111  0.4522
 5178TIP3    H137169   0.191   2.840   7.315  0.9446 -0.6748 -2.2833
 5178TIP3    H237170   0.288   2.955   7.299  0.6040 -0.0029  0.0793
 5179TIP3   OH237171   3.689   2.308   0.362 -0.4341  0.5092 -0.4699
 5179TIP3    H137172   3.649   2.262   0.289  0.0894  1.6330 -1.4965
 5179TIP3    H237173   3.642   2.392   0.366  1.7501  1.8834 -1.7206
 5180TIP3   OH237174   4.252   1.120   1.449 -0.1045 -0.2313  0.1563
 5180TIP3    H137175   4.323   1.183   1.436 -0.3193  0.2615  1.2671
 5180TIP3    H237176   4.278   1.044   1.397  1.0432  0.0943  0.2187
 5181TIP3   OH237177   5.198   0.250   8.985 -0.4282  0.0967  0.2327
 5181TIP3    H137178   5.186   0.338   9.022 -2.1668  0.3054 -0.7599
 5181TIP3    H237179   5.208   0.265   8.891 -0.7424 -0.7797  0.0561
 5182TIP3   OH237180   6.343   4.257   8.901  0.1316 -0.6243 -0.0534
 5182TIP3    H137181   6.412   4.292   8.957  0.3983  0.3919 -0.9901
 5182TIP3    H237182   6.376   4.269   8.811 -0.5243 -1.7014 -0.4670
 5183TIP3   OH237183   2.366   4.121   2.548 -0.3265  0.8424 -0.5108
 5183TIP3    H137184   2.303   4.063   2.591 -0.2813 -0.0066 -1.5386
 5183TIP3    H237185   2.341   4.209   2.577 -0.6568  0.3539  0.7478
 5184TIP3   OH237186   4.799   3.102   7.720 -0.0190  0.3472  0.0488
 5184TIP3    H137187   4.743   3.173   7.754  0.4481  0.4666  0.5739
 5184TIP3    H237188   4.888   3.135   7.730  0.2577 -0.6842  1.1548
 5185TIP3   OH237189   3.157   4.509   8.294 -0.2362  0.2535  0.4342
 5185TIP3    H137190   3.152   4.414   8.296 -0.5702  0.2494 -0.1480
 5185TIP3    H237191   3.241   4.530   8.333 -0.3817 -0.2512  1.0342
 5186TIP3   OH237192   3.201   5.714   8.610 -0.0546  0.2570  0.4728
 5186TIP3    H137193   3.112   5.680   8.617  1.1832 -2.9744  3.5002
 5186TIP3    H237194   3.219   5.753   8.696  1.7831 -0.1096  0.2943
 5187TIP3   OH237195   0.020   2.779   1.522  0.1403 -0.2643 -0.4323
 5187TIP3    H137196   0.068   2.703   1.555  0.6796  0.7593  1.2221
 5187TIP3    H237197   0.076   2.853   1.543 -2.0868  0.9785  1.5111
 5188TIP3   OH237198   6.710   0.557   7.294  0.2830 -0.2573 -0.3017
 5188TIP3    H137199   6.743   0.636   7.337  0.2967 -0.6351  0.4077
 5188TIP3    H237200   6.700   0.582   7.202  0.7176  0.4308 -0.1732
 5189TIP3   OH237201   3.472   4.938   3.242 -0.0767  0.2039  0.0653
 5189TIP3    H137202   3.490   4.992   3.165 -1.0543  0.1141 -0.2454
 5189TIP3    H237203   3.432   4.858   3.207 -1.9127  0.7795  0.7210
 5190TIP3   OH237204   1.377   6.629   7.361  0.0005  0.0420 -0.4894
 5190TIP3    H137205   1.284   6.654   7.366 -0.1149 -0.2752 -0.9605
 5190TIP3    H237206   1.401   6.643   7.270 -0.2246 -2.0316 -0.9314
 5191TIP3   OH237207   5.585   4.411   0.540  0.2177 -0.0265 -0.3563
 5191TIP3    H137208   5.521   4.423   0.611  2.9794  3.5997  1.9232
 5191TIP3    H237209   5.610   4.319   0.546 -0.6863 -0.2001  2.5352
 5192TIP3   OH237210   5.172   1.745   1.699  0.4545 -0.0823  0.0305
 5192TIP3    H137211   5.084   1.722   1.669  0.1325 -0.2614  1.0950
 5192TIP3    H237212   5.190   1.686   1.772  0.8523  0.9481  0.7925
 5193TIP3   OH237213   1.990   3.569   7.621 -0.2620 -0.0628  0.5551
 5193TIP3    H137214   1.993   3.579   7.717  0.5008  0.9206  0.4573
 5193TIP3    H237215   2.073   3.526   7.599 -0.1357  0.3047  0.2930
 5194TIP3   OH237216   3.395   1.035   7.838 -0.0443 -0.0632  0.0777
 5194TIP3    H137217   3.337   1.101   7.802 -2.0702 -1.3457  0.7872
 5194TIP3    H237218   3.362   1.020   7.927  0.7402 -1.5513  0.1611
 5195TIP3   OH237219   3.348   0.876   8.569  0.0243  0.1318 -0.3243
 5195TIP3    H137220   3.429   0.917   8.541 -0.0710 -0.0298 -0.8502
 5195TIP3    H237221   3.373   0.820   8.642  0.2036  0.9051  0.2149
 5196TIP3   OH237222   2.289   2.615   1.034 -0.0848 -0.1473  0.2020
 5196TIP3    H137223   2.343   2.693   1.031  2.5402 -1.8566  0.2963
 5196TIP3    H237224   2.320   2.560   0.963 -0.4480 -1.9502  1.3591
 5197TIP3   OH237225   0.661   0.670   8.773  0.0482  0.3294 -0.0106
 5197TIP3    H137226   0.663   0.577   8.799  0.9970  0.1366 -0.7257
 5197TIP3    H237227   0.572   0.698   8.793  0.3018 -0.1875  2.1123
 5198TIP3   OH237228   2.143   3.152   8.631 -0.0433 -0.0917  0.4438
 5198TIP3    H137229   2.128   3.089   8.561  1.2558  1.0550 -0.9250
 5198TIP3    H237230   2.159   3.098   8.709 -1.4474 -1.3852 -0.1166
 5199TIP3   OH237231   1.805   0.628   8.560  0.3866 -0.4708  0.3726
 5199TIP3    H137232   1.899   0.645   8.558  0.4944 -0.9830 -1.9321
 5199TIP3    H237233   1.766   0.704   8.517  0.0634 -1.6197 -1.4771
 5200TIP3   OH237234   1.066   1.788   0.474  0.3097  0.1886  0.1844
 5200TIP3    H137235   1.081   1.882   0.475  2.1462  0.0302 -2.2653
 5200TIP3    H237236   0.975   1.778   0.448  0.0717  1.2547  0.5507
 5201TIP3   OH237237   5.746   3.576   8.537  0.4781 -0.7078  0.5682
 5201TIP3    H137238   5.756   3.508   8.604 -1.6633 -1.5993  0.0527
 5201TIP3    H237239   5.656   3.606   8.546  0.8465  0.7988 -0.4248
 5202TIP3   OH237240   1.642   6.770   0.299 -0.4030  0.3796  0.2866
 5202TIP3    H137241   1.667   6.678   0.300  0.7164  0.6500 -0.7314
 5202TIP3    H237242   1.725   6.818   0.293 -0.9764  1.4589  0.5761
 5203TIP3   OH237243   2.952   5.788   0.169  0.1921  0.0063 -0.2458
 5203TIP3    H137244   2.980   5.840   0.094  2.1238 -0.9805 -0.2723
 5203TIP3    H237245   2.863   5.819   0.188 -0.0856  0.7599 -2.4789
 5204TIP3   OH237246   1.985   5.312   1.669 -0.3261 -0.8111 -0.7260
 5204TIP3    H137247   1.949   5.279   1.751  1.7306  1.5251  1.3506
 5204TIP3    H237248   1.918   5.371   1.635 -0.2982  0.1147  0.7057
 5205TIP3   OH237249   2.997   5.104   0.938  0.1795  0.2167 -0.1911
 5205TIP3    H137250   2.923   5.161   0.915 -0.3485  0.4491  1.8506
 5205TIP3    H237251   3.074   5.152   0.910 -0.3689  0.7221 -0.8756
 5206TIP3   OH237252   4.793   4.177   2.402 -0.1422  0.3477  0.7450
 5206TIP3    H137253   4.795   4.227   2.484  0.1660 -0.6365  1.3523
 5206TIP3    H237254   4.858   4.108   2.414  1.0002  1.0672 -0.9239
 5207TIP3   OH237255   2.764   6.512   8.115 -0.1402 -0.1447 -0.4152
 5207TIP3    H137256   2.854   6.490   8.090  0.0720  0.0808  0.1379
 5207TIP3    H237257   2.710   6.465   8.052  0.3379 -1.3012  0.0018
 5208TIP3   OH237258   0.603   3.161   2.885 -0.5382  0.0509  0.2615
 5208TIP3    H137259   0.597   3.251   2.853  2.0369  1.0534  2.2234
 5208TIP3    H237260   0.675   3.122   2.835 -2.3516 -1.3627 -1.3617
 5209TIP3   OH237261   0.462   5.664   0.941  0.1318  0.1509  0.1393
 5209TIP3    H137262   0.520   5.701   1.007 -0.9768  0.4895  0.9581
 5209TIP3    H237263   0.407   5.738   0.915 -1.1091 -0.5488  0.6912
 5210TIP3   OH237264   0.081   3.817   8.806  0.7910  0.4850  0.3902
 5210TIP3    H137265   0.030   3.898   8.811 -0.2297 -0.0933 -0.2910
 5210TIP3    H237266   0.019   3.752   8.774  1.2519 -0.8714  2.1039
 5211TIP3   OH237267   0.397   3.216   0.877 -0.7794  0.3503  0.5298
 5211TIP3    H137268   0.487   3.240   0.856 -1.1804  2.3522  0.8891
 5211TIP3    H237269   0.400   3.183   0.966 -0.1800 -1.2672 -0.0469
 5212TIP3   OH237270   6.343   6.714   7.406  0.3819  0.5271 -0.0152
 5212TIP3    H137271   6.267   6.700   7.348 -0.7962 -1.5970  1.8654
 5212TIP3    H237272   6.406   6.647   7.378  0.9996  1.3209 -0.5933
 5213TIP3   OH237273   0.426   4.206   1.935 -0.4455  0.8365 -0.7808
 5213TIP3    H137274   0.386   4.287   1.968 -0.2917  0.2729  0.8748
 5213TIP3    H237275   0.520   4.227   1.931 -0.2615  0.4208  0.7426
 5214TIP3   OH237276   1.248   3.484   2.608 -0.4724 -0.0393  0.4974
 5214TIP3    H137277   1.282   3.481   2.518  1.0141  1.6947  0.9568
 5214TIP3    H237278   1.185   3.557   2.606  0.0330  0.4177  0.9917
 5215TIP3   OH237279   4.610   4.189   0.678  0.3100  0.3336 -0.1265
 5215TIP3    H137280   4.700   4.196   0.647 -0.3333  1.8656 -1.7881
 5215TIP3    H237281   4.599   4.262   0.739  0.6300 -0.8470  1.4420
 5216TIP3   OH237282   0.215   2.880   1.250 -0.3443 -0.5086 -0.3765
 5216TIP3    H137283   0.160   2.821   1.198 -1.3386 -0.0604  0.1357
 5216TIP3    H237284   0.161   2.901   1.327  0.4720  0.1003  0.0416
 5217TIP3   OH237285   2.976   5.603   6.885 -0.0773  0.2022  0.4933
 5217TIP3    H137286   3.046   5.614   6.821  0.8816  0.5128  1.5736
 5217TIP3    H237287   2.900   5.644   6.843  0.6590  0.8813 -0.2255
 5218TIP3   OH237288   4.163   2.800   0.858 -0.3223  0.2425 -0.7092
 5218TIP3    H137289   4.106   2.811   0.782  0.6502 -1.3082 -1.7305
 5218TIP3    H237290   4.118   2.733   0.911  0.3615 -0.7849 -1.3834
 5219TIP3   OH237291   4.960   5.329   8.481 -0.1207 -0.2036 -0.5286
 5219TIP3    H137292   5.039   5.319   8.429 -0.0634  0.0854 -0.4978
 5219TIP3    H237293   4.974   5.275   8.559  0.7190  1.0741  0.2516
 5220TIP3   OH237294   6.242   1.890   6.338  0.0038  0.6332  0.6969
 5220TIP3    H137295   6.337   1.881   6.331 -0.1205 -0.3874  0.0469
 5220TIP3    H237296   6.221   1.963   6.279  0.1132 -0.9835 -1.4606
 5221TIP3   OH237297   0.931   1.246   1.088 -0.2429  0.0567 -0.8206
 5221TIP3    H137298   0.988   1.199   1.149 -0.0736  1.7014  0.3391
 5221TIP3    H237299   0.844   1.239   1.126  0.2806  3.9398  1.6600
 5222TIP3   OH237300   6.443   5.608   2.196 -0.2545  1.0996  0.3375
 5222TIP3    H137301   6.454   5.597   2.102  0.9107  0.5616  0.5230
 5222TIP3    H237302   6.528   5.638   2.227 -0.3436  0.3575  1.3455
 5223TIP3   OH237303   6.491   6.201   8.473  0.6266 -0.6755  0.0955
 5223TIP3    H137304   6.508   6.208   8.567 -0.0863 -0.5693  0.2223
 5223TIP3    H237305   6.405   6.241   8.461  1.4671  0.9869 -0.8591
 5224TIP3   OH237306   2.825   3.157   0.451  0.3262 -0.6240 -0.5196
 5224TIP3    H137307   2.809   3.096   0.379  0.6854  0.1906 -1.3123
 5224TIP3    H237308   2.892   3.216   0.418  1.0644 -0.6981  0.7724
 5225TIP3   OH237309   1.796   3.204   1.757  0.1246 -0.2131 -0.2922
 5225TIP3    H137310   1.740   3.171   1.827 -1.8405 -0.1833 -1.7576
 5225TIP3    H237311   1.813   3.128   1.702  0.2093  0.0906 -0.6929
 5226TIP3   OH237312   0.645   0.221   7.489  0.1238  0.2611  0.0360
 5226TIP3    H137313   0.618   0.310   7.511  0.4169  0.2145  0.6033
 5226TIP3    H237314   0.563   0.173   7.474 -0.0169  0.8063 -1.0187
 5227TIP3   OH237315   2.426   2.458   0.859 -0.4899 -0.6062 -0.0491
 5227TIP3    H137316   2.502   2.503   0.823  0.4579 -0.9845  1.3853
 5227TIP3    H237317   2.448   2.365   0.855 -1.0862 -0.7519 -0.0809
 5228TIP3   OH237318   2.813   4.407   0.559  0.5231 -0.7528 -0.2395
 5228TIP3    H137319   2.846   4.403   0.649  1.8483  3.2136 -0.3518
 5228TIP3    H237320   2.726   4.445   0.567  1.1732  0.9456 -0.5650
 5229TIP3   OH237321   1.953   4.402   1.128  0.0149 -0.0197  0.1980
 5229TIP3    H137322   1.922   4.353   1.204 -0.6156  2.2874  1.5228
 5229TIP3    H237323   1.893   4.377   1.057 -0.4582 -0.9152  0.8935
 5230TIP3   OH237324   0.659   4.282   2.111  0.1697 -0.0025 -0.0314
 5230TIP3    H137325   0.623   4.366   2.139  2.0011  0.5974  0.6880
 5230TIP3    H237326   0.636   4.221   2.181  0.0732  0.2395  0.1488
 5231TIP3   OH237327   5.278   3.852   2.657 -0.1681  0.2657 -0.1709
 5231TIP3    H137328   5.277   3.915   2.586  1.7242 -0.2405 -0.6952
 5231TIP3    H237329   5.369   3.823   2.663 -0.6689 -1.1990  1.1359
 5232TIP3   OH237330   6.517   2.233   8.380 -0.5342  0.2777  0.0771
 5232TIP3    H137331   6.504   2.310   8.435 -0.1091 -0.0285  0.6113
 5232TIP3    H237332   6.566   2.172   8.435  1.2295  0.5482 -1.1075
 5233TIP3   OH237333   3.440   2.970   1.947  0.0336 -0.2799 -0.2384
 5233TIP3    H137334   3.401   2.893   1.905 -1.6394 -0.1445  0.9588
 5233TIP3    H237335   3.404   2.969   2.036  0.1359  1.7868 -0.1364
 5234TIP3   OH237336   1.673   2.418   0.678  0.6252  0.0046  0.0355
 5234TIP3    H137337   1.709   2.347   0.731  3.0534  0.8567 -0.3313
 5234TIP3    H237338   1.721   2.413   0.596 -0.1257  1.2405 -0.5058
 5235TIP3   OH237339   6.669   2.820   0.381 -0.8592 -0.2472  0.0979
 5235TIP3    H137340   6.739   2.855   0.326  0.1241 -0.8946  0.8884
 5235TIP3    H237341   6.672   2.872   0.461 -1.5206 -0.0582  0.0071
 5236TIP3   OH237342   0.887   5.326   1.496  0.5628 -0.0246 -0.1141
 5236TIP3    H137343   0.822   5.388   1.528  0.4572 -0.6488  0.9170
 5236TIP3    H237344   0.971   5.369   1.513  0.5008 -0.2600  0.8471
 5237TIP3   OH237345   6.214   3.754   1.677  0.0236  0.2443  0.1777
 5237TIP3    H137346   6.220   3.721   1.766  1.8894 -3.1720 -1.0234
 5237TIP3    H237347   6.303   3.780   1.654 -0.2457  0.2230 -0.9596
 5238TIP3   OH237348   1.932   2.488   0.919 -0.2806  0.3143  0.0047
 5238TIP3    H137349   1.850   2.530   0.892 -0.0672  1.0133  0.4143
 5238TIP3    H237350   1.992   2.503   0.846 -0.8467 -1.2516 -0.8318
 5239TIP3   OH237351   5.172   6.549   8.563  0.0569 -0.1581 -0.3233
 5239TIP3    H137352   5.233   6.475   8.557 -0.8488 -0.9803  0.2913
 5239TIP3    H237353   5.177   6.577   8.654 -0.0733  0.1150 -0.4008
 5240TIP3   OH237354   2.596   5.744   2.010 -0.2544  0.2126 -0.5436
 5240TIP3    H137355   2.636   5.798   2.079  2.2361 -1.3235 -0.6556
 5240TIP3    H237356   2.547   5.806   1.956  1.3073  2.1693  0.1577
 5241TIP3   OH237357   4.943   0.461   8.772  0.2717  0.1953  0.3598
 5241TIP3    H137358   4.892   0.462   8.691  1.3054  2.9561 -0.3812
 5241TIP3    H237359   5.029   0.495   8.747  1.1774 -0.5038  2.3193
 5242TIP3   OH237360   1.534   1.064   1.978  0.0008 -0.2001 -0.0193
 5242TIP3    H137361   1.444   1.058   2.009 -0.6547 -0.5720 -1.8679
 5242TIP3    H237362   1.573   1.136   2.028 -1.9937  1.4417 -0.7027
 5243TIP3   OH237363   5.315   6.599   2.052 -0.2053  0.3502 -0.0492
 5243TIP3    H137364   5.297   6.692   2.042 -0.9916  0.1956 -0.0927
 5243TIP3    H237365   5.252   6.568   2.117 -1.0609 -0.4917 -1.2377
 5244TIP3   OH237366   1.966   6.364   7.124  0.4035  0.1510  0.0491
 5244TIP3    H137367   2.001   6.329   7.205  0.1064 -0.2280  0.0148
 5244TIP3    H237368   2.007   6.450   7.115  0.0474  0.4167  0.8647
 5245TIP3   OH237369   5.446   6.392   8.594  0.4441  0.2665 -0.4480
 5245TIP3    H137370   5.446   6.434   8.681 -2.2208  1.6475 -0.9928
 5245TIP3    H237371   5.504   6.447   8.542 -0.0462  1.0727 -0.1789
 5246TIP3   OH237372   3.773   6.580   6.779  0.1493 -0.6997 -0.6955
 5246TIP3    H137373   3.846   6.561   6.837 -0.3972 -1.4571 -0.2313
 5246TIP3    H237374   3.717   6.641   6.829 -0.5227 -1.6623 -0.2443
 5247TIP3   OH237375   4.539   3.824   8.503  0.4049 -0.0563 -0.1971
 5247TIP3    H137376   4.571   3.746   8.548 -0.2462 -0.5401 -0.5615
 5247TIP3    H237377   4.538   3.799   8.410  0.8362  0.6161 -0.3964
 5248TIP3   OH237378   3.438   4.310   0.962 -0.0566 -0.3378  0.3722
 5248TIP3    H137379   3.429   4.363   1.040  0.3254 -1.1396  0.9730
 5248TIP3    H237380   3.496   4.361   0.904  0.5183 -0.2237  1.0418
 5249TIP3   OH237381   6.751   4.186   6.895  0.4857  0.6935 -0.6435
 5249TIP3    H137382   6.666   4.194   6.851  0.4909  0.6212 -0.6668
 5249TIP3    H237383   6.785   4.101   6.866 -0.3377 -0.2226  0.9421
 5250TIP3   OH237384   3.674   0.364   8.987  0.0716 -0.4582  0.5100
 5250TIP3    H137385   3.726   0.425   8.934  1.2635 -1.7065  0.1681
 5250TIP3    H237386   3.671   0.404   9.073  0.3287  0.3682  0.1441
 5251TIP3   OH237387   4.933   5.130   1.221 -0.1003 -0.2639 -0.1247
 5251TIP3    H137388   5.020   5.118   1.260 -0.2287 -0.4370  0.1127
 5251TIP3    H237389   4.943   5.102   1.130  0.1859  0.0818 -0.2029
 5252TIP3   OH237390   4.530   4.506   2.135  0.0873 -0.6625  0.0513
 5252TIP3    H137391   4.616   4.488   2.174  1.1395  0.0792 -1.8256
 5252TIP3    H237392   4.500   4.584   2.181 -0.0314 -1.4462  1.3610
 5253TIP3   OH237393   1.814   2.682   8.756 -0.1129 -0.3713  0.5781
 5253TIP3    H137394   1.860   2.765   8.767 -1.1245  0.4655 -1.0380
 5253TIP3    H237395   1.735   2.690   8.810 -0.3856 -0.1213  0.1492
 5254TIP3   OH237396   4.231   1.584   7.613  0.4735  0.3627  0.0005
 5254TIP3    H137397   4.162   1.617   7.670  0.5972 -0.6398  0.7661
 5254TIP3    H237398   4.294   1.656   7.607  0.9518  0.1839  1.9613
 5255TIP3   OH237399   0.783   3.960   0.631  0.3214 -0.2196 -0.4235
 5255TIP3    H137400   0.853   3.978   0.694 -0.0184 -1.2962  0.2787
 5255TIP3    H237401   0.828   3.928   0.553  0.7192  0.7656 -0.6163
 5256TIP3   OH237402   1.902   5.395   7.389 -0.6201  0.4142 -0.0670
 5256TIP3    H137403   1.850   5.397   7.309  0.1910  0.6831 -0.5958
 5256TIP3    H237404   1.981   5.444   7.368  0.0522 -0.3647  0.5912
 5257TIP3   OH237405   2.228   5.698   7.680  0.0849 -0.2186  0.3377
 5257TIP3    H137406   2.165   5.641   7.724 -0.8037  0.3737 -0.1293
 5257TIP3    H237407   2.272   5.641   7.617  0.2007 -0.6930  0.8366
 5258TIP3   OH237408   5.093   5.088   1.004  0.1952  0.4046  0.8792
 5258TIP3    H137409   5.145   5.035   1.064  1.6992  0.5346 -0.2486
 5258TIP3    H237410   5.116   5.179   1.024  0.0290  0.4917  0.6922
 5259TIP3   OH237411   0.014   3.454   0.382  0.0345  0.2495  0.7330
 5259TIP3    H137412   0.073   3.385   0.350 -0.4211 -1.0442  2.5187
 5259TIP3    H237413   0.042   3.533   0.337  0.9913 -0.9764 -0.9313
 5260TIP3   OH237414   1.162   4.115   1.866 -0.2076 -0.7760 -0.0410
 5260TIP3    H137415   1.190   4.187   1.810 -0.3738 -0.3290  0.4393
 5260TIP3    H237416   1.144   4.043   1.806 -1.9270  0.1798 -0.7213
 5261TIP3   OH237417   2.392   1.650   0.054  0.0929  0.0216 -0.0186
 5261TIP3    H137418   2.385   1.746   0.055  0.7545  0.1428 -2.1919
 5261TIP3    H237419   2.439   1.631  -0.027 -0.6207 -2.1939  0.0454
 5262TIP3   OH237420   1.727   2.703   7.322 -0.4007  0.1539  0.3139
 5262TIP3    H137421   1.761   2.631   7.268  1.6623  2.3823 -1.5400
 5262TIP3    H237422   1.638   2.717   7.288  0.1625  0.2381 -1.2016
 5263TIP3   OH237423   1.264   0.741   1.489  0.8703  0.4374  0.4853
 5263TIP3    H137424   1.191   0.714   1.545  1.7152 -0.1903  1.3181
 5263TIP3    H237425   1.306   0.813   1.537  0.5312  1.0983 -0.2049
 5264TIP3   OH237426   3.604   6.739   0.476  0.5843 -0.4204  0.2909
 5264TIP3    H137427   3.560   6.822   0.494 -0.1157 -0.9546  1.0724
 5264TIP3    H237428   3.536   6.672   0.486  1.6483 -1.3007  1.9580
 5265TIP3   OH237429   2.580   1.360   7.535  1.1016 -0.0260  0.4563
 5265TIP3    H137430   2.656   1.414   7.515  0.8993  1.1501  2.5641
 5265TIP3    H237431   2.508   1.401   7.487  1.5099 -0.2202 -0.3214
 5266TIP3   OH237432   2.543   2.432   8.728 -0.3736 -0.4835  0.5789
 5266TIP3    H137433   2.552   2.506   8.669  1.1518 -1.8306 -0.9803
 5266TIP3    H237434   2.464   2.451   8.779 -1.4827  0.9768 -1.5375
 5267TIP3   OH237435   3.187   2.563   9.036  0.7981  0.0143  0.2969
 5267TIP3    H137436   3.178   2.566   9.131  0.1168  0.0374  0.2350
 5267TIP3    H237437   3.277   2.593   9.019  0.7756  0.4315  0.9033
 5268TIP3   OH237438   4.272   1.907   1.108  0.4192  0.0570  0.1800
 5268TIP3    H137439   4.244   1.944   1.024 -0.7753 -0.5838  0.2765
 5268TIP3    H237440   4.320   1.978   1.150 -1.4620  1.4136  0.1760
 5269TIP3   OH237441   2.845   0.032   1.232  0.5436 -0.3101  0.5502
 5269TIP3    H137442   2.909   0.103   1.226 -0.7061  0.7862 -0.2099
 5269TIP3    H237443   2.762   0.072   1.208  0.2067 -2.6373 -2.9013
 5270TIP3   OH237444   4.943   4.065   7.778 -0.1407  0.1427 -0.1792
 5270TIP3    H137445   4.998   4.068   7.856 -1.0253 -0.4856  0.4935
 5270TIP3    H237446   5.000   4.092   7.707  0.3909  1.8523  0.8490
 5271TIP3   OH237447   2.513   1.741   2.135  0.1600  0.1744 -0.2197
 5271TIP3    H137448   2.532   1.653   2.102 -0.2356  0.2329 -0.6127
 5271TIP3    H237449   2.450   1.727   2.206 -3.0102  0.3551 -2.7757
 5272TIP3   OH237450   1.613   0.291   7.551 -0.0955  0.2535  0.2737
 5272TIP3    H137451   1.574   0.233   7.616 -1.0753  0.0063 -0.5187
 5272TIP3    H237452   1.644   0.232   7.482  0.0302  0.5839  0.0457
 5273TIP3   OH237453   1.994   5.748   0.823 -0.0712  0.8907 -0.2924
 5273TIP3    H137454   2.065   5.740   0.759 -0.5550  0.5186 -0.7860
 5273TIP3    H237455   2.036   5.789   0.900  0.3835  1.9332 -1.0652
 5274TIP3   OH237456   1.522   0.751   8.130 -0.0869  0.6289 -0.3966
 5274TIP3    H137457   1.520   0.661   8.163  0.7943  0.4505 -0.7918
 5274TIP3    H237458   1.500   0.805   8.206 -3.7531 -0.0131 -0.7987
 5275TIP3   OH237459   1.584   5.452   7.600 -0.2159 -0.0657 -0.0183
 5275TIP3    H137460   1.605   5.415   7.514  0.8784 -0.3437  0.3648
 5275TIP3    H237461   1.570   5.376   7.656  0.8842  0.0989  0.4891
 5276TIP3   OH237462   0.915   2.911   7.979  0.1852 -0.2475  0.0254
 5276TIP3    H137463   0.918   3.005   7.965  0.2565 -0.5072 -2.0555
 5276TIP3    H237464   0.922   2.873   7.891 -0.9161 -2.1739  0.6962
 5277TIP3   OH237465   0.223   1.825   7.038 -0.1601 -0.2841  0.2871
 5277TIP3    H137466   0.184   1.823   6.950  0.0992  0.8684  0.1353
 5277TIP3    H237467   0.245   1.733   7.056 -1.0931 -0.6646 -0.4520
 5278TIP3   OH237468   2.769   1.890   2.140 -0.1139 -0.3804  0.0233
 5278TIP3    H137469   2.760   1.975   2.097 -3.1607 -0.5267  0.2008
 5278TIP3    H237470   2.701   1.836   2.102  2.4103 -3.1949 -0.8739
 5279TIP3   OH237471   5.321   2.622   6.831  0.3437  0.2851  0.1901
 5279TIP3    H137472   5.295   2.714   6.828 -0.2273  0.2111  1.8732
 5279TIP3    H237473   5.417   2.624   6.832  0.3721  0.7758 -0.9596
 5280TIP3   OH237474   5.180   1.859   0.998  0.2673  0.6504  0.4463
 5280TIP3    H137475   5.159   1.792   0.934  1.0261  0.3190  0.5324
 5280TIP3    H237476   5.233   1.923   0.950 -1.2068  1.6878  0.1254
 5281TIP3   OH237477   5.428   4.438   6.721  0.0942  0.1986 -0.2957
 5281TIP3    H137478   5.372   4.507   6.686  0.5370  0.6721 -0.0883
 5281TIP3    H237479   5.370   4.383   6.773 -0.2351  0.4869 -0.3573
 5282TIP3   OH237480   1.216   5.872   8.074 -0.0389 -0.0348 -0.0117
 5282TIP3    H137481   1.213   5.803   8.008 -1.0693  0.5737 -0.6260
 5282TIP3    H237482   1.156   5.939   8.042  1.1300  1.2818  0.4356
 5283TIP3   OH237483   4.388   1.122   7.444  0.0577  0.3150  0.3711
 5283TIP3    H137484   4.374   1.209   7.481 -1.6632  0.2779 -0.0885
 5283TIP3    H237485   4.375   1.133   7.350  0.6232 -0.2910  0.2115
 5284TIP3   OH237486   2.163   1.846   7.522 -0.4125  0.1957 -0.3494
 5284TIP3    H137487   2.155   1.831   7.428 -0.6219 -0.2872 -0.2583
 5284TIP3    H237488   2.238   1.793   7.549 -0.2182  0.5034 -0.2786
 5285TIP3   OH237489   2.726   1.180   1.430  0.3299  0.2500  0.5419
 5285TIP3    H137490   2.654   1.200   1.490  0.0941 -2.1248  1.1675
 5285TIP3    H237491   2.685   1.172   1.344 -0.8901 -3.9040  1.2725
 5286TIP3   OH237492   0.814   3.214   8.587 -0.0845 -0.8355  0.3429
 5286TIP3    H137493   0.724   3.244   8.598  0.8518  2.2135  0.6291
 5286TIP3    H237494   0.856   3.280   8.532  1.7892 -2.6826 -0.6392
 5287TIP3   OH237495   6.310   5.856   6.721  0.5022 -0.1666 -0.2014
 5287TIP3    H137496   6.378   5.924   6.724  0.2284  0.1169 -0.3635
 5287TIP3    H237497   6.234   5.896   6.764  0.7007 -0.7916  0.7726
 5288TIP3   OH237498   4.527   0.964   8.781 -0.1466  0.1370 -0.1198
 5288TIP3    H137499   4.584   0.946   8.706 -0.9345  0.5967 -0.8476
 5288TIP3    H237500   4.464   0.893   8.780  0.2361 -0.2162  0.5146
 5289TIP3   OH237501   3.878   4.381   8.588 -0.4693 -0.4784  0.2142
 5289TIP3    H137502   3.867   4.351   8.498  0.9791 -0.3750 -0.0142
 5289TIP3    H237503   3.965   4.352   8.613 -0.7184 -0.2034  1.4712
 5290TIP3   OH237504   4.753   2.759   0.413 -0.3610 -0.1471  0.6025
 5290TIP3    H137505   4.836   2.755   0.364 -0.9707  0.1320 -0.4912
 5290TIP3    H237506   4.689   2.718   0.355 -0.7812 -1.4626  1.9462
 5291TIP3   OH237507   5.684   3.054   0.743 -0.0572 -0.0786  0.2544
 5291TIP3    H137508   5.746   3.126   0.756  0.0235  0.2338 -1.6451
 5291TIP3    H237509   5.609   3.094   0.700 -0.8839 -0.7819  0.9894
 5292TIP3   OH237510   4.935   2.031   7.496 -0.1692  0.5586  0.4451
 5292TIP3    H137511   4.889   2.101   7.449 -0.1213  0.5576  0.3975
 5292TIP3    H237512   4.982   2.076   7.566  0.6513  0.6900 -0.1749
 5293TIP3   OH237513   2.212   5.031   2.318  0.3392 -0.1272  0.1902
 5293TIP3    H137514   2.175   4.945   2.338  0.6921 -0.2594  0.2846
 5293TIP3    H237515   2.137   5.086   2.297 -0.4077  0.7115  4.1743
 5294TIP3   OH237516   4.970   3.810   0.276  0.1302  0.3473  0.7625
 5294TIP3    H137517   4.939   3.736   0.329  1.3074 -0.6588  0.1027
 5294TIP3    H237518   5.051   3.839   0.318  1.5440 -1.0086 -0.8602
 5295TIP3   OH237519   1.489   0.934   2.362  0.3999 -0.1629  0.4767
 5295TIP3    H137520   1.534   1.017   2.379 -0.3054  0.1707  0.7399
 5295TIP3    H237521   1.503   0.884   2.442 -0.9981  0.5407  1.1908
 5296TIP3   OH237522   5.873   5.767   1.675 -0.1130 -0.0183  0.1928
 5296TIP3    H137523   5.805   5.819   1.718  1.3327 -0.3635  3.1227
 5296TIP3    H237524   5.845   5.676   1.686  1.0175 -0.1967  1.9421
 5297TIP3   OH237525   5.487   3.435   7.748  0.6531  0.2382  0.3312
 5297TIP3    H137526   5.549   3.464   7.681 -0.9944  1.4075 -0.7414
 5297TIP3    H237527   5.500   3.496   7.821  1.2977 -0.0220  0.4438
 5298TIP3   OH237528   1.239   0.793   7.504  0.1911 -0.4515 -0.5836
 5298TIP3    H137529   1.309   0.849   7.539  0.0739 -0.5836 -0.1261
 5298TIP3    H237530   1.207   0.745   7.581  0.1749 -1.0208 -0.9444
 5299TIP3   OH237531   1.106   3.683   0.193 -0.4221 -0.2242  0.0788
 5299TIP3    H137532   1.123   3.653   0.282  0.1586  0.8331  0.3446
 5299TIP3    H237533   1.057   3.612   0.152  0.7201 -1.4246  0.7398
 5300TIP3   OH237534   1.425   0.799   2.602 -0.1438  0.3496 -0.0240
 5300TIP3    H137535   1.433   0.712   2.640  0.3426 -0.5127 -1.9947
 5300TIP3    H237536   1.331   0.811   2.589 -0.0964 -0.7456 -1.5753
 5301TIP3   OH237537   2.831   3.462   1.320  0.3470  0.2301  0.3101
 5301TIP3    H137538   2.917   3.503   1.315 -0.5666  2.1378 -0.8460
 5301TIP3    H237539   2.803   3.476   1.411  0.5906  1.1018  0.2617
 5302TIP3   OH237540   6.059   5.128   8.238 -0.0857 -0.0378  0.4921
 5302TIP3    H137541   6.090   5.061   8.298 -1.3299  0.9638  2.3494
 5302TIP3    H237542   5.967   5.141   8.261 -0.4911  0.7414 -1.3300
 5303TIP3   OH237543   6.761   6.736   8.333 -0.2628  0.4304 -0.5777
 5303TIP3    H137544   6.827   6.674   8.366  0.5249  1.5658  0.0219
 5303TIP3    H237545   6.710   6.684   8.270  1.3456 -0.4367 -1.2489
 5304TIP3   OH237546   2.206   2.306   0.129 -0.4157  0.3281 -0.4292
 5304TIP3    H137547   2.124   2.307   0.178 -0.3774  1.3144 -0.3814
 5304TIP3    H237548   2.217   2.396   0.098  1.1457  0.4418  0.4020
 5305TIP3   OH237549   3.212   6.102   0.661 -0.3866  0.3851  0.2466
 5305TIP3    H137550   3.281   6.064   0.607 -1.4096 -0.6405 -0.4003
 5305TIP3    H237551   3.215   6.051   0.742 -1.4646 -0.8500 -0.4472
 5306TIP3   OH237552   5.944   4.122   7.678  0.0810  0.0444 -0.0928
 5306TIP3    H137553   5.927   4.050   7.740  1.4091  0.1195  0.3965
 5306TIP3    H237554   6.039   4.126   7.672  0.1164  2.5518  0.8561
 5307TIP3   OH237555   1.574   1.121   0.793 -0.6454 -0.3506 -0.4332
 5307TIP3    H137556   1.597   1.156   0.879  0.6077 -0.9299 -0.5246
 5307TIP3    H237557   1.480   1.138   0.785 -0.4288  1.3607  0.2728
 5308TIP3   OH237558   6.173   6.460   7.424 -0.0473 -0.1362  0.6086
 5308TIP3    H137559   6.173   6.496   7.512  0.9227  1.0991  0.1456
 5308TIP3    H237560   6.262   6.427   7.412 -0.0890 -0.0381 -0.0011
 5309TIP3   OH237561   4.796   2.323   0.851  0.2657 -0.1622  0.1244
 5309TIP3    H137562   4.876   2.356   0.809  1.2519 -3.7667 -1.2395
 5309TIP3    H237563   4.726   2.347   0.790  1.1432 -1.7086 -1.5925
 5310TIP3   OH237564   1.647   5.159   0.717 -0.3280  0.1785 -0.1055
 5310TIP3    H137565   1.649   5.240   0.666 -0.8529  0.3497  0.1460
 5310TIP3    H237566   1.728   5.162   0.768 -0.4758  0.6722  0.1049
 5311TIP3   OH237567   1.441   6.036   7.139 -0.1596 -0.2512 -0.8208
 5311TIP3    H137568   1.523   6.041   7.089 -0.2874 -0.7458 -1.0884
 5311TIP3    H237569   1.402   5.952   7.112  0.8555 -1.6635  1.7956
 5312TIP3   OH237570   1.792   6.008   8.248  0.0612 -0.1721  0.1618
 5312TIP3    H137571   1.872   6.052   8.276  0.9869 -2.6805  1.7482
 5312TIP3    H237572   1.795   6.011   8.152  1.3573  0.9315  0.2091
 5313TIP3   OH237573   1.945   6.382   0.426 -0.3179 -0.0039 -0.2927
 5313TIP3    H137574   1.932   6.333   0.345 -0.2658  2.1855 -1.7083
 5313TIP3    H237575   1.861   6.426   0.440  0.0592  0.5855  0.1505
 5314TIP3   OH237576   4.439   5.958   8.241 -0.1276 -0.4000 -0.3313
 5314TIP3    H137577   4.451   6.047   8.274  0.1302 -0.6730  0.3301
 5314TIP3    H237578   4.455   5.902   8.316 -2.0916 -0.9526 -0.2559
 5315TIP3   OH237579   2.503   2.791   8.791  0.3392  0.1172  0.1007
 5315TIP3    H137580   2.437   2.748   8.845 -0.2076 -0.2771 -0.8706
 5315TIP3    H237581   2.586   2.750   8.818  0.2331  0.7534  1.4565
 5316TIP3   OH237582   2.221   3.487   0.368  0.0548  0.3500  0.3498
 5316TIP3    H137583   2.249   3.564   0.418  1.7431 -0.0670  0.0938
 5316TIP3    H237584   2.277   3.487   0.290 -0.4305 -0.7314 -0.0198
 5317TIP3   OH237585   2.673   3.457   0.800 -0.5766  0.2448  0.1688
 5317TIP3    H137586   2.698   3.549   0.803 -0.4351  0.4012 -2.9300
 5317TIP3    H237587   2.597   3.454   0.742 -0.6355 -1.5612  0.2647
 5318TIP3   OH237588   6.551   4.128   1.068 -0.9786  0.2297  0.7224
 5318TIP3    H137589   6.514   4.139   1.156 -0.9307 -0.3785  0.8249
 5318TIP3    H237590   6.632   4.079   1.082 -2.1193 -1.9218  0.1472
 5319TIP3   OH237591   4.964   1.117   0.276 -0.1390  0.4426 -0.2404
 5319TIP3    H137592   4.970   1.168   0.195 -1.1666  1.5146  0.3366
 5319TIP3    H237593   4.875   1.083   0.277  0.1162 -0.2490  0.0580
 5320TIP3   OH237594   1.504   4.311   8.826 -0.1616  0.0285  0.7315
 5320TIP3    H137595   1.470   4.222   8.830 -0.4158  0.1212  0.6510
 5320TIP3    H237596   1.453   4.359   8.892  0.0335  0.0928  0.8353
 5321TIP3   OH237597   4.200   5.716   7.928 -0.3969  0.4202 -0.6797
 5321TIP3    H137598   4.120   5.738   7.881 -0.6201 -1.5120 -1.3023
 5321TIP3    H237599   4.206   5.620   7.922  1.2000  0.3887  0.5979
 5322TIP3   OH237600   2.623   5.222   7.880 -0.2121 -0.6790 -0.4973
 5322TIP3    H137601   2.715   5.218   7.853  0.1689  1.4901  0.2968
 5322TIP3    H237602   2.576   5.173   7.813  1.3080 -0.1211 -2.0341
 5323TIP3   OH237603   0.221   5.376   7.989 -0.1333 -0.7030 -0.8303
 5323TIP3    H137604   0.316   5.371   7.979  0.3245 -1.1419  2.6021
 5323TIP3    H237605   0.189   5.290   7.960  0.8006 -1.3435 -0.0317
 5324TIP3   OH237606   4.963   4.993   0.757  0.3357 -0.2195 -0.2323
 5324TIP3    H137607   5.014   4.958   0.830  0.1000  0.6151  0.3589
 5324TIP3    H237608   4.992   4.944   0.681  0.9958 -0.7258  0.3345
 5325TIP3   OH237609   5.390   4.629   8.802  0.2255  0.5931  0.2100
 5325TIP3    H137610   5.341   4.616   8.721  0.8074  0.4267 -0.1191
 5325TIP3    H237611   5.413   4.540   8.830 -0.1622  0.6382  0.6744
 5326TIP3   OH237612   2.443   2.486   6.438 -0.0651 -0.1006 -0.1281
 5326TIP3    H137613   2.433   2.532   6.521  2.1057 -0.7211  0.5282
 5326TIP3    H237614   2.505   2.540   6.388 -1.9277  0.7029 -1.7488
 5327TIP3   OH237615   5.298   2.076   0.529 -0.5710  0.1070  0.4751
 5327TIP3    H137616   5.241   2.042   0.460 -0.6102  0.9980  0.0626
 5327TIP3    H237617   5.387   2.054   0.500 -0.5396  1.0642 -0.2101
 5328TIP3   OH237618   1.604   6.120   6.531  0.4317 -0.0475  0.6579
 5328TIP3    H137619   1.653   6.054   6.481  0.0768  1.1642 -1.3848
 5328TIP3    H237620   1.515   6.087   6.533  0.8628 -1.2945  2.7075
 5329TIP3   OH237621   6.750   0.588   7.773 -0.2640  0.4219 -0.1296
 5329TIP3    H137622   6.698   0.653   7.725 -2.3607 -0.5048  0.7939
 5329TIP3    H237623   6.781   0.528   7.705 -0.2619  1.0774 -0.7181
 5330TIP3   OH237624   5.381   1.085   6.725  0.1815 -0.7145 -0.3779
 5330TIP3    H137625   5.427   1.016   6.773  0.3503 -0.1894  0.2255
 5330TIP3    H237626   5.426   1.166   6.750 -3.1054  0.3400  3.0372
 5331TIP3   OH237627   3.117   0.055   0.664 -0.0284  0.1418  0.5785
 5331TIP3    H137628   3.137   0.066   0.757 -0.0346  0.4351  0.5454
 5331TIP3    H237629   3.022   0.063   0.659  0.1561  3.4945  0.1229
 5332TIP3   OH237630   6.487   3.325   1.068 -0.1685  0.3132  0.3761
 5332TIP3    H137631   6.432   3.362   0.999 -1.0694 -0.0932  0.8467
 5332TIP3    H237632   6.427   3.268   1.117  0.4590  0.5899  1.4817
 5333TIP3   OH237633   0.650   5.285   7.153 -0.0721  0.5949  0.2933
 5333TIP3    H137634   0.710   5.295   7.079  0.2342 -0.3920  0.4047
 5333TIP3    H237635   0.707   5.271   7.229 -0.3461  2.2801  0.8644
 5334TIP3   OH237636   1.059   2.105   2.357 -0.8884 -0.1824  0.2248
 5334TIP3    H137637   1.108   2.156   2.422  0.1231 -0.1148 -0.5575
 5334TIP3    H237638   1.093   2.015   2.367 -0.4998 -0.1126 -0.4023
 5335TIP3   OH237639   4.430   3.542   0.289 -0.4333 -0.1058 -0.3680
 5335TIP3    H137640   4.363   3.558   0.222 -0.7296 -0.6400 -0.2069
 5335TIP3    H237641   4.410   3.454   0.322 -1.5992  0.9551  1.9398
 5336TIP3   OH237642   3.855   5.995   1.643 -0.0088  0.0377 -0.2839
 5336TIP3    H137643   3.779   5.945   1.672  0.8758 -0.9082  0.4967
 5336TIP3    H237644   3.851   5.993   1.548 -0.0448 -1.5094 -0.2839
 5337TIP3   OH237645   2.884   2.729   1.475  0.6032 -0.4430 -0.0297
 5337TIP3    H137646   2.929   2.706   1.557  0.7231  1.3436  0.4592
 5337TIP3    H237647   2.912   2.819   1.457 -1.3319  0.0813 -0.7090
 5338TIP3   OH237648   0.055   2.085   1.317  0.0909  0.1180 -0.4589
 5338TIP3    H137649   0.062   2.159   1.377 -0.7696 -0.3918  0.2804
 5338TIP3    H237650  -0.016   2.108   1.257 -0.2324 -0.1486 -0.1768
 5339TIP3   OH237651   5.762   6.674   2.624  0.1536  0.8036  0.3480
 5339TIP3    H137652   5.794   6.584   2.630 -1.3786  0.2945  2.0504
 5339TIP3    H237653   5.757   6.692   2.530 -0.6732 -1.3659 -0.0758
 5340TIP3   OH237654   1.517   1.868   8.703 -0.5961  0.1781 -0.2669
 5340TIP3    H137655   1.575   1.822   8.764 -0.3637  1.5439  0.5821
 5340TIP3    H237656   1.563   1.949   8.682 -0.6923 -0.2382 -2.2796
 5341TIP3   OH237657   1.484   3.253   0.758  0.4221 -1.0404 -0.6288
 5341TIP3    H137658   1.401   3.210   0.736  0.2658 -1.0092 -0.1085
 5341TIP3    H237659   1.488   3.251   0.853  0.1152  0.6573 -0.5573
 5342TIP3   OH237660   2.293   3.520   0.981 -0.1445  0.2255  0.1925
 5342TIP3    H137661   2.358   3.589   0.966  1.3165 -1.3780 -1.1709
 5342TIP3    H237662   2.218   3.566   1.019  1.1686  2.3882  0.3159
 5343TIP3   OH237663   6.150   5.182   6.961  0.4189  0.3216 -0.3835
 5343TIP3    H137664   6.099   5.139   6.892 -1.4017  0.0798  1.0372
 5343TIP3    H237665   6.210   5.114   6.992  1.7248  0.6199 -2.1032
 5344TIP3   OH237666   3.211   1.877   8.007 -0.0253 -0.4106 -0.4036
 5344TIP3    H137667   3.290   1.923   7.979  0.0124 -0.6115 -0.6321
 5344TIP3    H237668   3.198   1.904   8.098 -0.5437  0.7997 -0.8069
 5345TIP3   OH237669   5.217   5.669   0.828 -0.1480  0.1671 -0.1139
 5345TIP3    H137670   5.133   5.646   0.787  0.0016 -1.7776  0.5844
 5345TIP3    H237671   5.203   5.655   0.922  1.4917 -2.2833 -0.1281
 5346TIP3   OH237672   3.810   4.865   0.392 -0.0114 -0.0498  0.3302
 5346TIP3    H137673   3.774   4.872   0.480  0.5466 -0.8304  0.6346
 5346TIP3    H237674   3.897   4.905   0.398  0.0994 -0.2652  0.1809
 5347TIP3   OH237675   3.925   3.762   8.389  0.0406 -0.4093 -0.0739
 5347TIP3    H137676   3.942   3.842   8.339 -0.0683 -0.7717 -0.6980
 5347TIP3    H237677   3.959   3.781   8.477  1.0996 -0.1061 -0.5331
 5348TIP3   OH237678   5.923   3.649   7.608  0.0324  0.3390 -0.0381
 5348TIP3    H137679   5.985   3.576   7.607  1.5572  1.5898 -0.8960
 5348TIP3    H237680   5.936   3.693   7.525 -0.7713  1.6742  0.5082
 5349TIP3   OH237681   2.658   2.438   2.336  0.2776 -0.3239  0.2144
 5349TIP3    H137682   2.605   2.364   2.366 -1.6139  0.6810 -0.4683
 5349TIP3    H237683   2.633   2.449   2.245  0.7252  0.9904  0.2367
 5350TIP3   OH237684   4.227   6.479   0.233  0.3350 -0.6930 -0.3948
 5350TIP3    H137685   4.153   6.540   0.232 -0.2228 -1.3298  0.2927
 5350TIP3    H237686   4.289   6.515   0.170 -1.1227 -0.8478 -1.9912
 5351TIP3   OH237687   1.437   5.497   1.300 -0.5091  0.4289  0.4911
 5351TIP3    H137688   1.420   5.584   1.336  0.4786  0.6324  0.5117
 5351TIP3    H237689   1.440   5.440   1.376  1.2523  0.8043  0.7410
 5352TIP3   OH237690   2.279   4.402   1.674  0.1874  0.6814 -0.0105
 5352TIP3    H137691   2.314   4.480   1.718  0.4205  1.4478 -1.4648
 5352TIP3    H237692   2.278   4.334   1.742  0.5735  1.7760  1.1356
 5353TIP3   OH237693   1.646   3.934   0.151 -0.4467 -0.2740 -0.1625
 5353TIP3    H137694   1.673   4.019   0.115 -0.3117 -0.2733 -0.0634
 5353TIP3    H237695   1.725   3.901   0.194 -0.3284 -0.7369 -0.7389
 5354TIP3   OH237696   1.948   4.111   1.045  0.4409  0.3885  0.2370
 5354TIP3    H137697   1.966   4.018   1.060 -0.3898  0.3545  1.1654
 5354TIP3    H237698   2.010   4.137   0.978  0.9213 -0.7574  0.2114
 5355TIP3   OH237699   3.712   0.765   7.879  0.4825 -0.7246 -0.2913
 5355TIP3    H137700   3.653   0.838   7.863 -0.2177 -1.1543  0.2959
 5355TIP3    H237701   3.661   0.687   7.858 -0.0003 -1.2462  2.3751
 5356TIP3   OH237702   3.364   2.312   0.630  0.3467  0.7129  0.9265
 5356TIP3    H137703   3.375   2.311   0.535 -0.2636 -1.5356  0.8305
 5356TIP3    H237704   3.450   2.338   0.664  1.4993 -1.3634 -0.1930
 5357TIP3   OH237705   4.341   3.098   8.063  0.0735  0.0429  0.5328
 5357TIP3    H137706   4.307   3.152   7.991  0.5243 -0.1473  0.1778
 5357TIP3    H237707   4.434   3.087   8.043  0.0640 -0.5471  0.8087
 5358TIP3   OH237708   2.793   4.716   7.352 -0.0800 -0.1421  0.3629
 5358TIP3    H137709   2.807   4.789   7.412 -1.7089 -1.1721  2.0979
 5358TIP3    H237710   2.802   4.638   7.406 -0.7372 -1.1494 -0.9298
 5359TIP3   OH237711   4.731   1.081   0.392  0.1859 -0.0704  0.1050
 5359TIP3    H137712   4.703   0.995   0.423  0.2020 -0.2444 -0.3491
 5359TIP3    H237713   4.717   1.140   0.466  0.8327 -0.5904  0.6554
 5360TIP3   OH237714   2.745   3.236   7.818 -0.5117  0.2932  0.1461
 5360TIP3    H137715   2.830   3.241   7.860  0.4892  1.2083 -1.8406
 5360TIP3    H237716   2.682   3.240   7.890  1.0951  0.5287  1.5966
 5361TIP3   OH237717   3.149   0.188   2.018 -0.3793 -0.1995  0.4162
 5361TIP3    H137718   3.098   0.256   1.973 -0.4035 -1.4214 -1.5362
 5361TIP3    H237719   3.240   0.208   1.995 -0.3122 -0.3153  0.5811
 5362TIP3   OH237720   3.359   2.750   1.756  0.2664  0.4557 -0.2240
 5362TIP3    H137721   3.283   2.781   1.805  0.8853  0.4472  0.7583
 5362TIP3    H237722   3.322   2.710   1.677 -0.9833 -2.1580  1.5495
 5363TIP3   OH237723   3.098   2.253   6.975  0.4564  0.1082  0.0667
 5363TIP3    H137724   3.089   2.159   6.955 -1.4961 -0.0631  1.5048
 5363TIP3    H237725   3.123   2.292   6.891  0.5947 -1.5881 -0.7367
 5364TIP3   OH237726   4.422   2.623   0.709  0.3631 -0.4456 -0.1718
 5364TIP3    H137727   4.434   2.708   0.750  0.8978 -0.5209 -0.1632
 5364TIP3    H237728   4.331   2.623   0.679 -0.4197 -0.8349  2.0113
 5365TIP3   OH237729   6.197   2.730   1.672 -0.2590 -0.4199  0.4962
 5365TIP3    H137730   6.264   2.785   1.712  1.0105 -1.6752  0.1740
 5365TIP3    H237731   6.214   2.642   1.706 -1.5856 -0.8176  0.1977
 5366TIP3   OH237732   0.482   2.248   8.712 -0.3715 -0.3019  0.4158
 5366TIP3    H137733   0.503   2.227   8.621 -2.6062  0.1565 -0.2767
 5366TIP3    H237734   0.460   2.163   8.751  0.6668 -0.5104  0.5837
 5367TIP3   OH237735   5.398   2.076   8.142 -0.6780 -0.1661 -0.2049
 5367TIP3    H137736   5.416   2.129   8.064  0.1769  0.4170  0.3672
 5367TIP3    H237737   5.471   2.014   8.145  0.0380  0.6917  0.8601
 5368TIP3   OH237738   4.378   1.014   2.199 -0.7007 -0.1244  0.2562
 5368TIP3    H137739   4.301   1.014   2.255 -0.9862 -1.4492 -0.0843
 5368TIP3    H237740   4.399   0.921   2.189  0.7198  0.2038  0.0414
 5369TIP3   OH237741   0.070   4.423   1.987  0.5406  0.4513  0.2182
 5369TIP3    H137742   0.032   4.503   2.025 -1.0206  0.9725 -2.2235
 5369TIP3    H237743   0.160   4.422   2.019 -0.0050  2.0190  2.0140
 5370TIP3   OH237744   0.368   3.255   1.335  0.0204  0.1199  0.1323
 5370TIP3    H137745   0.364   3.189   1.266  0.7536  0.6616 -0.4458
 5370TIP3    H237746   0.426   3.217   1.401  1.6896  0.7810 -0.8911
 5371TIP3   OH237747   3.832   2.237   8.206  0.1813  0.3070  0.6076
 5371TIP3    H137748   3.878   2.313   8.241 -1.3652  0.3353  2.8018
 5371TIP3    H237749   3.780   2.204   8.280 -2.5207 -0.3034 -1.4074
 5372TIP3   OH237750   4.870   0.774   8.203 -0.2853  0.0465  0.0215
 5372TIP3    H137751   4.887   0.753   8.295  0.8548  2.0464  0.3119
 5372TIP3    H237752   4.774   0.779   8.198 -0.4119 -1.1082  0.8323
 5373TIP3   OH237753   0.171   2.518   1.598 -0.2359 -0.0258 -0.5778
 5373TIP3    H137754   0.248   2.536   1.543  0.9171  0.5415  1.1384
 5373TIP3    H237755   0.169   2.423   1.606  0.5961 -0.0214 -0.2328
 5374TIP3   OH237756   4.415   1.544   6.968  0.7201 -0.5227  0.2024
 5374TIP3    H137757   4.446   1.591   6.891 -0.5215 -1.2909 -0.7902
 5374TIP3    H237758   4.463   1.461   6.967  0.4583 -0.6732  0.0644
 5375TIP3   OH237759   2.973   2.839   8.980 -0.3408  0.0231 -0.2502
 5375TIP3    H137760   3.027   2.918   8.976 -0.8325  0.3967  0.4281
 5375TIP3    H237761   3.036   2.767   8.978  0.1130  0.4236 -0.8462
 5376TIP3   OH237762   3.291   2.153   1.554  0.6789  0.1077 -0.2185
 5376TIP3    H137763   3.244   2.158   1.637  3.0414 -1.0439  1.3133
 5376TIP3    H237764   3.318   2.243   1.536  0.7961  0.2689  0.7048
 5377TIP3   OH237765   4.353   3.317   7.691  0.2490  0.6188 -0.0624
 5377TIP3    H137766   4.313   3.335   7.606 -1.5127 -1.3638  0.2423
 5377TIP3    H237767   4.398   3.233   7.679 -0.4766  0.0354  1.0346
 5378TIP3   OH237768   6.226   1.945   6.593  0.0232 -0.1440  0.3662
 5378TIP3    H137769   6.227   1.931   6.498 -0.3149  1.0148  0.1776
 5378TIP3    H237770   6.309   1.990   6.611  0.2032 -0.5859  0.6693
 5379TIP3   OH237771   3.303   4.140   8.650  0.5505 -0.2199 -0.4018
 5379TIP3    H137772   3.291   4.187   8.733 -2.0251 -1.9089  0.3249
 5379TIP3    H237773   3.394   4.155   8.627  1.6264 -0.2846  3.1675
 5380TIP3   OH237774   1.698   2.612   0.863  0.3913  0.0548  0.3012
 5380TIP3    H137775   1.669   2.564   0.786 -0.5804  1.4186 -0.2257
 5380TIP3    H237776   1.684   2.704   0.841  1.3388  0.5515  1.6117
 5381TIP3   OH237777   3.401   1.360   6.660 -0.8735 -0.3516 -0.0258
 5381TIP3    H137778   3.484   1.406   6.647  0.2216 -2.3504 -0.3884
 5381TIP3    H237779   3.355   1.370   6.576 -1.1043  0.8860  0.2255
 5382TIP3   OH237780   5.737   2.159   8.147 -0.3452  0.0345  0.1888
 5382TIP3    H137781   5.686   2.100   8.091 -0.1790 -0.1715  0.2500
 5382TIP3    H237782   5.736   2.116   8.233  1.9882 -1.2610 -0.3502
 5383TIP3   OH237783   2.740   2.866   1.679 -0.2106  0.6637  0.5023
 5383TIP3    H137784   2.650   2.841   1.701  0.3947 -2.0771  0.2707
 5383TIP3    H237785   2.791   2.839   1.755  0.6793  0.0477 -0.2890
 5384TIP3   OH237786   5.647   5.144   8.643  0.6594  0.5728 -0.2761
 5384TIP3    H137787   5.721   5.103   8.689 -0.6000 -0.6293  0.7909
 5384TIP3    H237788   5.659   5.238   8.658  0.3974  0.2467  2.4494
 5385TIP3   OH237789   6.271   1.734   1.128  0.1013  0.3638 -0.1678
 5385TIP3    H137790   6.271   1.643   1.097 -1.4697  0.3553 -0.1975
 5385TIP3    H237791   6.362   1.751   1.151  0.7410 -0.6940 -1.7144
 5386TIP3   OH237792   0.712   1.847   7.225  0.1783 -0.2350  0.2227
 5386TIP3    H137793   0.658   1.860   7.147  0.7563  1.7880  0.0972
 5386TIP3    H237794   0.800   1.828   7.191  0.5318  1.0917  0.3309
 5387TIP3   OH237795   3.907   3.610   0.152  0.3421 -0.0221 -0.6329
 5387TIP3    H137796   3.872   3.695   0.126 -1.0468  0.0409  1.2293
 5387TIP3    H237797   3.830   3.552   0.153  0.7091 -0.5290  1.0234
 5388TIP3   OH237798   5.268   0.502   7.488  0.3961  0.4127 -0.0907
 5388TIP3    H137799   5.348   0.451   7.473  0.8924  1.2479 -0.3366
 5388TIP3    H237800   5.246   0.484   7.579  0.5432 -0.2618 -0.1773
 5389TIP3   OH237801   2.491   2.243   1.477 -0.1982 -0.4980 -0.1189
 5389TIP3    H137802   2.563   2.287   1.432  0.0832  0.5434  1.2659
 5389TIP3    H237803   2.455   2.182   1.413  1.4592 -0.5224 -1.0683
 5390TIP3   OH237804   1.498   0.169   1.485 -0.6041 -0.2137 -0.3105
 5390TIP3    H137805   1.522   0.252   1.525 -1.2687 -0.0449 -0.2580
 5390TIP3    H237806   1.468   0.115   1.558 -0.5948 -0.3478 -0.4048
 5391TIP3   OH237807   4.477   1.276   1.395 -0.1110 -0.4192  0.0205
 5391TIP3    H137808   4.417   1.350   1.386 -0.7045 -0.8673  0.2818
 5391TIP3    H237809   4.523   1.273   1.311 -0.9256 -0.4911 -0.4331
 5392TIP3   OH237810   0.605   4.670   7.942 -0.2728 -0.1839  0.3157
 5392TIP3    H137811   0.518   4.684   7.981 -0.2758 -1.3292  0.7536
 5392TIP3    H237812   0.662   4.651   8.016  0.1977 -0.1904 -0.0443
 5393TIP3   OH237813   5.894   0.945   7.128  0.5211 -0.2231 -0.4288
 5393TIP3    H137814   5.938   0.860   7.130  1.3792  0.2123 -0.3612
 5393TIP3    H237815   5.854   0.953   7.215 -1.6149 -1.5883 -1.2157
 5394TIP3   OH237816   6.200   2.390   0.654 -0.4136  0.0816 -0.6076
 5394TIP3    H137817   6.118   2.428   0.686 -0.9377 -1.3202 -0.1787
 5394TIP3    H237818   6.178   2.298   0.637  1.1528 -0.3960 -0.2140
 5395TIP3   OH237819   5.777   0.430   9.039 -0.3580 -0.4391 -0.4765
 5395TIP3    H137820   5.850   0.368   9.051  0.8636  1.0090 -0.0530
 5395TIP3    H237821   5.748   0.449   9.128  0.4405  0.8795 -0.4721
 5396TIP3   OH237822   1.185   2.046   0.035  0.0071  0.6625 -0.4871
 5396TIP3    H137823   1.108   2.104   0.036 -0.3363  0.2179  0.2482
 5396TIP3    H237824   1.151   1.962   0.006  0.3671  0.6471 -0.8722
 5397TIP3   OH237825   0.692   1.780   1.597 -0.6457  0.3030 -0.6762
 5397TIP3    H137826   0.730   1.696   1.570  1.1312  0.2742  1.5720
 5397TIP3    H237827   0.687   1.774   1.692  0.0439  2.9226 -0.3869
 5398TIP3   OH237828   6.762   4.654   0.590  0.0245  0.3211 -0.0211
 5398TIP3    H137829   6.695   4.721   0.583 -1.6768 -1.2881 -0.0925
 5398TIP3    H237830   6.752   4.620   0.679  0.1881 -0.4567 -0.2887
 5399TIP3   OH237831   5.833   4.949   1.947 -0.1816  0.2289 -0.4078
 5399TIP3    H137832   5.926   4.930   1.957 -0.2467 -1.2755 -2.1074
 5399TIP3    H237833   5.809   4.998   2.026  1.8004 -0.2592  0.5429
 5400TIP3   OH237834   1.399   5.609   0.405  0.5245  0.3059  0.4941
 5400TIP3    H137835   1.455   5.657   0.466  0.4075 -0.2065  1.0130
 5400TIP3    H237836   1.392   5.666   0.329  0.6430  0.9671  0.9722
 5401TIP3   OH237837   0.583   2.474   0.280 -0.2782 -1.1218 -0.2619
 5401TIP3    H137838   0.517   2.493   0.213  0.4396  2.1553 -0.1883
 5401TIP3    H237839   0.666   2.473   0.232  0.0828 -0.2991  0.3335
 5402TIP3   OH237840   2.466   3.718   0.037 -0.0397 -0.0727  0.4282
 5402TIP3    H137841   2.525   3.687  -0.033  2.0294  1.0547  1.5691
 5402TIP3    H237842   2.470   3.649   0.103  0.5378  0.2982  0.7860
 5403TIP3   OH237843   4.726   2.439   1.167 -0.0483 -0.2283 -0.7696
 5403TIP3    H137844   4.719   2.409   1.076 -0.6239  0.3953 -0.9375
 5403TIP3    H237845   4.679   2.522   1.169  0.5090  0.0808 -0.0398
 5404TIP3   OH237846   5.657   2.685   8.011  0.3823 -0.4910 -0.0705
 5404TIP3    H137847   5.748   2.667   8.036  0.7955  0.5111 -0.8286
 5404TIP3    H237848   5.654   2.668   7.917 -0.1474 -0.2328 -0.1026
 5405TIP3   OH237849   1.080   1.050   0.674 -0.0367 -0.3019  0.2330
 5405TIP3    H137850   1.142   1.122   0.661  2.3269 -2.0240  1.1663
 5405TIP3    H237851   1.096   1.021   0.764 -0.7365 -2.1177 -0.1909
 5406TIP3   OH237852   0.474   1.147   1.566 -0.4073  0.5973  0.6354
 5406TIP3    H137853   0.477   1.221   1.505 -1.9766  0.2222  0.0329
 5406TIP3    H237854   0.497   1.071   1.513  1.1692  0.6205  1.2444
 5407TIP3   OH237855   5.749   0.421   7.590 -0.1764  0.1326  0.7441
 5407TIP3    H137856   5.781   0.332   7.583  0.3448  0.2863  1.1157
 5407TIP3    H237857   5.823   0.471   7.623  0.4609  1.2558 -2.1025
 5408TIP3   OH237858   2.481   0.518   0.364  0.2030 -0.1950 -0.1349
 5408TIP3    H137859   2.557   0.539   0.418  0.0148  0.3732 -0.0801
 5408TIP3    H237860   2.460   0.600   0.319  0.0270 -0.5175 -0.6569
 5409TIP3   OH237861   5.458   4.701   2.244  0.0190 -0.2889  0.4424
 5409TIP3    H137862   5.423   4.635   2.304 -1.8056 -1.5043 -1.8149
 5409TIP3    H237863   5.411   4.781   2.267 -0.0448 -0.5146  1.1537
 5410TIP3   OH237864   6.285   4.530   0.083 -0.8657 -0.2107 -0.2301
 5410TIP3    H137865   6.362   4.478   0.059  0.2070  1.2228 -0.0063
 5410TIP3    H237866   6.213   4.467   0.080  0.2768 -1.5769 -0.5624
 5411TIP3   OH237867   3.974   5.285   8.019 -0.0384 -0.1732 -0.5370
 5411TIP3    H137868   3.895   5.335   7.996 -0.6235 -0.1446  1.3173
 5411TIP3    H237869   4.043   5.322   7.965 -1.5582 -1.3517 -3.5496
 5412TIP3   OH237870   2.346   4.069   0.995  0.1864 -0.4985 -0.1853
 5412TIP3    H137871   2.421   4.104   0.946  0.1976 -2.3324 -1.5736
 5412TIP3    H237872   2.375   4.071   1.086  2.2598 -1.7990 -0.7389
 5413TIP3   OH237873   6.304   6.756   8.559 -0.4037 -0.6679  0.7363
 5413TIP3    H137874   6.213   6.729   8.564 -0.6486 -0.0424 -0.1003
 5413TIP3    H237875   6.301   6.851   8.548  0.2913 -0.7590 -0.5029
 5414TIP3   OH237876   0.129   1.183   0.576  0.1279  0.4767  0.0672
 5414TIP3    H137877   0.193   1.136   0.523  1.2211  1.0813  0.8060
 5414TIP3    H237878   0.073   1.228   0.513  0.9008  0.5354 -0.5847
 5415TIP3   OH237879   1.615   2.498   2.142  0.5507  0.6552 -0.3909
 5415TIP3    H137880   1.708   2.490   2.161  0.5686 -0.1620 -0.7421
 5415TIP3    H237881   1.600   2.433   2.072 -0.6561 -0.6716  1.0293
 5416TIP3   OH237882   1.953   4.500   0.346  0.7664 -0.4993  0.5520
 5416TIP3    H137883   1.915   4.577   0.306  1.9249 -0.6603 -0.9572
 5416TIP3    H237884   1.979   4.529   0.434  0.7847  0.7010  0.1671
 5417TIP3   OH237885   1.573   0.371   2.693 -0.0836  0.5134 -0.1285
 5417TIP3    H137886   1.600   0.352   2.603  1.0535  0.6763  0.1644
 5417TIP3    H237887   1.613   0.302   2.746  0.3450  1.1435  0.3946
 5418TIP3   OH237888   6.116   3.047   0.225  0.3624  0.5859  0.2088
 5418TIP3    H137889   6.189   3.084   0.176  0.2285  0.1125 -0.3550
 5418TIP3    H237890   6.042   3.050   0.165  0.5206 -1.2868 -0.1442
 5419TIP3   OH237891   0.191   5.762   7.729  0.6589  0.5135 -0.0366
 5419TIP3    H137892   0.265   5.719   7.772  0.0946  0.7454  1.2036
 5419TIP3    H237893   0.211   5.855   7.734  0.3641  0.5686  0.1651
 5420TIP3   OH237894   2.783   0.408   2.988  0.1593 -0.8450 -0.3132
 5420TIP3    H137895   2.699   0.368   3.012  0.0306  0.2388  1.1321
 5420TIP3    H237896   2.776   0.498   3.018  1.6661 -0.5988 -0.6399
 5421TIP3   OH237897   2.066   4.121   7.757 -0.5841  0.2105  0.2140
 5421TIP3    H137898   2.159   4.101   7.761 -0.9547 -1.6546  0.7000
 5421TIP3    H237899   2.037   4.086   7.673 -1.0152 -0.0678  0.4758
 5422TIP3   OH237900   3.049   0.345   0.069 -0.0152  0.1048  0.2638
 5422TIP3    H137901   3.011   0.388   0.145 -1.4814  0.3351 -0.5728
 5422TIP3    H237902   3.003   0.261   0.065  0.0940  0.0750 -0.3334
 5423TIP3   OH237903   5.288   4.035   2.449  0.6761 -0.0673 -0.3563
 5423TIP3    H137904   5.305   3.984   2.369  0.4804  0.2407 -0.5920
 5423TIP3    H237905   5.296   4.126   2.422  1.0421  0.0338  0.0731
 5424TIP3   OH237906   4.237   1.642   1.128  0.2346 -1.1960  0.1487
 5424TIP3    H137907   4.281   1.626   1.044  0.0024  0.1470 -0.2534
 5424TIP3    H237908   4.260   1.733   1.150 -1.3125 -0.8766  0.5513
 5425TIP3   OH237909   5.161   5.300   8.297 -0.0119 -1.1224  0.4647
 5425TIP3    H137910   5.144   5.315   8.204 -0.4940 -0.6428  0.6226
 5425TIP3    H237911   5.248   5.338   8.311 -0.3650 -0.2642  0.4173
 5426TIP3   OH237912   0.133   6.358   7.831  0.2614 -0.3879 -0.0825
 5426TIP3    H137913   0.114   6.264   7.838  0.9368 -0.4382  1.4595
 5426TIP3    H237914   0.202   6.364   7.766 -0.0033 -0.9270 -0.4228
 5427TIP3   OH237915   0.144   0.122   2.130  0.5649  0.0775  0.1086
 5427TIP3    H137916   0.051   0.099   2.136  0.7801 -1.1676 -1.0918
 5427TIP3    H237917   0.144   0.211   2.094 -0.1633  0.2989  0.6227
 5428TIP3   OH237918   4.337   2.602   0.380 -0.1133 -0.4042  0.6098
 5428TIP3    H137919   4.275   2.599   0.452  2.4750 -0.9724  2.9906
 5428TIP3    H237920   4.349   2.695   0.363 -1.1510 -0.2769  0.4880
 5429TIP3   OH237921   6.409   4.534   1.573  0.6300  0.1686  0.3293
 5429TIP3    H137922   6.440   4.617   1.536  2.3202 -0.5757  0.0039
 5429TIP3    H237923   6.335   4.509   1.517 -0.2197  1.6620  0.7250
 5430TIP3   OH237924   0.956   0.312   8.697  0.1175  0.2960  0.6024
 5430TIP3    H137925   0.980   0.347   8.611  0.4799  2.3655  1.4933
 5430TIP3    H237926   1.036   0.271   8.729  0.6624  1.5437  0.8849
 5431TIP3   OH237927   2.994   2.485   1.391 -0.1365  0.3706  0.0576
 5431TIP3    H137928   3.089   2.475   1.389 -0.1814 -0.4076  1.1314
 5431TIP3    H237929   2.980   2.579   1.399  0.5948  0.3967  1.3010
 5432TIP3   OH237930   5.397   0.655   8.942 -0.3201  0.2387 -0.1942
 5432TIP3    H137931   5.366   0.683   8.856 -1.3991 -1.4945 -0.4029
 5432TIP3    H237932   5.482   0.613   8.924 -1.0728 -1.1661 -0.6220
 5433TIP3   OH237933   0.281   1.592   7.497  0.1874  0.0987 -0.1895
 5433TIP3    H137934   0.211   1.557   7.552  0.1281 -0.2982 -0.5142
 5433TIP3    H237935   0.305   1.674   7.539 -0.0504 -0.0630  0.2726
 5434TIP3   OH237936   5.281   1.237   7.165  0.5351  0.5856  0.1855
 5434TIP3    H137937   5.253   1.164   7.221 -1.8567 -0.7873 -2.5792
 5434TIP3    H237938   5.353   1.200   7.113 -1.5238 -0.3802 -2.1382
 5435TIP3   OH237939   3.986   6.745   1.451  0.0210  0.3285 -0.0265
 5435TIP3    H137940   4.081   6.734   1.449 -0.0160 -0.4764  1.2478
 5435TIP3    H237941   3.951   6.660   1.428 -0.4561  1.0832 -2.3480
 5436TIP3   OH237942   6.285   5.425   0.548 -0.4145  0.5214  0.1343
 5436TIP3    H137943   6.328   5.464   0.624  0.3849  1.5778 -0.8164
 5436TIP3    H237944   6.338   5.454   0.473 -0.4674 -1.4605 -0.7404
 5437TIP3   OH237945   1.292   0.681   7.273 -0.0397  0.1575  0.2936
 5437TIP3    H137946   1.255   0.731   7.346 -1.7590 -1.1555  0.3841
 5437TIP3    H237947   1.231   0.694   7.201 -0.0765 -1.1072  0.0689
 5438TIP3   OH237948   3.133   1.955   0.219  0.3422  0.3177 -0.0021
 5438TIP3    H137949   3.041   1.926   0.216 -0.5993  2.6678  1.9999
 5438TIP3    H237950   3.171   1.903   0.290 -0.1624  0.9296  0.7483
 5439TIP3   OH237951   5.673   4.910   7.206 -0.4248  0.1594 -0.0571
 5439TIP3    H137952   5.627   4.862   7.137 -0.3075  0.9820 -0.7370
 5439TIP3    H237953   5.757   4.932   7.166 -0.0907  0.0830  0.5937
 5440TIP3   OH237954   6.080   3.167   7.786  0.4269  0.2962  0.2529
 5440TIP3    H137955   6.132   3.202   7.714 -0.3947  1.6548  0.2980
 5440TIP3    H237956   6.101   3.223   7.860 -1.5301  1.2802  0.1233
 5441TIP3   OH237957   2.708   3.731   1.344 -0.2883  0.0019 -0.3150
 5441TIP3    H137958   2.719   3.641   1.315 -0.9071 -0.6841  1.4589
 5441TIP3    H237959   2.791   3.753   1.387 -0.4728 -0.0705  0.0886
 5442TIP3   OH237960   1.294   5.952   1.853 -0.2819  0.0620  0.5368
 5442TIP3    H137961   1.212   5.966   1.807 -0.1276 -0.0497  0.2257
 5442TIP3    H237962   1.285   6.002   1.935 -0.8817 -0.4107  0.7671
 5443TIP3   OH237963   5.136   2.353   2.396 -0.0001 -0.1727 -0.2590
 5443TIP3    H137964   5.104   2.263   2.386 -1.8902  0.6642 -2.7644
 5443TIP3    H237965   5.061   2.402   2.429  0.0570  0.9994 -1.7752
 5444TIP3   OH237966   2.947   3.207   7.544 -0.0588 -0.2333  0.0188
 5444TIP3    H137967   2.888   3.150   7.592 -0.6771 -0.1772 -0.6520
 5444TIP3    H237968   3.035   3.183   7.573 -0.3822 -0.7279  0.5834
 5445TIP3   OH237969   1.940   4.353   1.966 -0.2227  0.3071 -0.1541
 5445TIP3    H137970   1.926   4.448   1.967  1.6033  0.6088  0.2572
 5445TIP3    H237971   1.998   4.338   1.891 -0.9906 -0.5838 -0.5931
 5446TIP3   OH237972   3.468   3.820   2.724  0.3387 -0.3685 -0.2469
 5446TIP3    H137973   3.400   3.841   2.661 -0.4852  0.5884  0.8912
 5446TIP3    H237974   3.434   3.745   2.773  0.2152 -0.0791  0.1220
 5447TIP3   OH237975   0.177   6.166   2.444 -0.6756  0.1276  0.4904
 5447TIP3    H137976   0.206   6.253   2.417 -0.7571 -0.1450 -0.4955
 5447TIP3    H237977   0.249   6.132   2.497 -0.7839  0.9174  1.1656
 5448TIP3   OH237978   6.140   5.525   0.959  0.1783  0.2033  0.4216
 5448TIP3    H137979   6.150   5.431   0.973  0.0387  0.2262  0.6918
 5448TIP3    H237980   6.202   5.546   0.889 -1.5420 -0.5226 -1.4218
 5449TIP3   OH237981   4.639   5.157   2.264  0.2640  0.5635 -0.0358
 5449TIP3    H137982   4.723   5.192   2.291 -0.1685  0.7701  1.1034
 5449TIP3    H237983   4.621   5.087   2.327 -0.5090  0.6631 -0.1368
 5450TIP3   OH237984   1.315   1.569   1.817  0.0204  0.0615  0.2206
 5450TIP3    H137985   1.280   1.494   1.866  0.3684  1.0879  2.1518
 5450TIP3    H237986   1.393   1.534   1.774 -1.4079 -1.3855 -1.3699
 5451TIP3   OH237987   1.768   4.209   0.746 -0.4714 -0.2589 -0.3336
 5451TIP3    H137988   1.856   4.175   0.761  0.0443  1.4610  0.9457
 5451TIP3    H237989   1.746   4.254   0.828 -1.8368  0.8146 -1.2498
 5452TIP3   OH237990   3.076   2.390   1.967  0.0845 -0.0851  0.1521
 5452TIP3    H137991   3.018   2.464   1.945 -0.6288 -0.0532  2.0022
 5452TIP3    H237992   3.077   2.337   1.887 -0.7147  1.0653 -0.6658
 5453TIP3   OH237993   1.241   0.084   0.727  0.0317 -0.2679  0.5767
 5453TIP3    H137994   1.168   0.084   0.790 -1.1861 -0.4182 -0.7696
 5453TIP3    H237995   1.206   0.131   0.651  2.4932  2.7668  1.1032
 5454TIP3   OH237996   2.208   0.558   0.465  0.2546  0.0457  0.6297
 5454TIP3    H137997   2.251   0.545   0.381 -0.6946  1.8266 -0.1933
 5454TIP3    H237998   2.273   0.604   0.518 -0.0300  1.3607 -0.0949
 5455TIP3   OH237999   3.984   4.622   8.163  0.5144  0.6073 -0.3755
 5455TIP3    H138000   4.058   4.564   8.147 -0.4134 -1.0967  1.1924
 5455TIP3    H238001   3.995   4.651   8.254 -0.9587 -0.0482  0.0326
 5456TIP3   OH238002   2.684   3.778   2.064  0.4301  0.1298 -0.1459
 5456TIP3    H138003   2.684   3.863   2.109 -0.8372  0.0513  0.0291
 5456TIP3    H238004   2.692   3.714   2.134  0.2684  0.0624 -0.1911
 5457TIP3   OH238005   5.110   4.651   0.223  0.3923 -0.5927 -0.0347
 5457TIP3    H138006   5.058   4.659   0.143  0.3925  1.6490  0.1350
 5457TIP3    H238007   5.196   4.623   0.193  0.5298  0.7003 -0.9064
 5458TIP3   OH238008   4.937   5.576   0.437  0.1766  0.5314  0.1933
 5458TIP3    H138009   4.995   5.507   0.407 -0.6837 -0.4124  0.6246
 5458TIP3    H238010   4.991   5.655   0.438  1.3407 -0.2477  0.2461
 5459TIP3   OH238011   1.939   2.042   2.356  0.0911  0.1766 -0.5649
 5459TIP3    H138012   1.942   1.947   2.364 -1.1539  0.1105 -0.6026
 5459TIP3    H238013   2.005   2.074   2.418 -0.0339 -0.7001  0.0426
 5460TIP3   OH238014   3.830   0.785   0.331 -0.1964  0.2308  1.0295
 5460TIP3    H138015   3.895   0.738   0.383  0.4762  1.7456  1.6161
 5460TIP3    H238016   3.882   0.829   0.263 -0.7986  0.2498  0.5730
 5461TIP3   OH238017   4.032   3.258   2.843 -0.2690  0.1126  0.5476
 5461TIP3    H138018   4.046   3.340   2.891 -1.8557  0.8564 -0.2126
 5461TIP3    H238019   3.988   3.284   2.762  0.4180 -1.3595 -0.3484
 5462TIP3   OH238020   3.822   5.408   8.300  0.1331  0.5193  0.1245
 5462TIP3    H138021   3.890   5.381   8.238 -1.7718  0.9091 -2.2988
 5462TIP3    H238022   3.805   5.500   8.278 -1.0992  0.4549  0.7127
 5463TIP3   OH238023   4.051   4.543   1.295  0.0228 -0.8094  0.1405
 5463TIP3    H138024   4.130   4.512   1.339  0.7459 -1.9504 -1.8596
 5463TIP3    H238025   3.989   4.470   1.302 -0.0916 -0.7417 -0.1587
 5464TIP3   OH238026   6.470   2.193   1.360  0.2798 -0.0101 -0.3085
 5464TIP3    H138027   6.447   2.101   1.374  0.8491 -0.4514 -2.0026
 5464TIP3    H238028   6.525   2.192   1.281  2.0284  1.5610  0.8193
 5465TIP3   OH238029   3.895   1.856   8.730  0.1502 -0.3195  0.7772
 5465TIP3    H138030   3.894   1.951   8.715  0.2399 -0.5384 -0.8342
 5465TIP3    H238031   3.986   1.830   8.715 -0.3650 -1.0025 -1.4947
 5466TIP3   OH238032   0.118   6.344   7.265  0.1527  0.3364 -0.3775
 5466TIP3    H138033   0.141   6.407   7.196 -0.2262  1.0769  0.1603
 5466TIP3    H238034   0.203   6.318   7.302  0.2714  3.3912  1.8913
 5467TIP3   OH238035   5.400   4.821   0.559  0.0614  0.0512  0.2659
 5467TIP3    H138036   5.317   4.791   0.598  1.1644 -1.4782  1.5936
 5467TIP3    H238037   5.428   4.747   0.505  0.5407  0.5663 -0.1918
 5468TIP3   OH238038   0.924   3.603   1.335  0.2774  0.7162  0.1568
 5468TIP3    H138039   0.934   3.529   1.276  0.4437  2.8889 -2.7595
 5468TIP3    H238040   0.831   3.606   1.356  0.3533 -0.5623  0.7419
 5469TIP3   OH238041   0.951   2.400   7.393 -0.1101  0.0082  0.1277
 5469TIP3    H138042   0.856   2.405   7.383 -0.0827 -0.1150 -0.2207
 5469TIP3    H238043   0.985   2.450   7.320  0.0867  1.4909  1.1944
 5470TIP3   OH238044   5.177   3.486   6.846 -0.3317  0.4868 -0.2331
 5470TIP3    H138045   5.105   3.448   6.794 -0.9260  0.9155  0.2640
 5470TIP3    H238046   5.142   3.569   6.877  0.8181  1.2600 -0.9590
 5471TIP3   OH238047   6.236   0.584   1.638  0.3249  0.6451  0.1256
 5471TIP3    H138048   6.162   0.636   1.609 -0.4345 -0.4027  0.1352
 5471TIP3    H238049   6.258   0.618   1.724 -0.2333  0.8763  0.1769
 5472TIP3   OH238050   1.469   2.668   7.265  0.1804 -0.1508 -0.0823
 5472TIP3    H138051   1.490   2.599   7.202  0.6829  0.0916 -0.1878
 5472TIP3    H238052   1.415   2.730   7.216 -0.9468 -0.8572  0.2345
 5473TIP3   OH238053   5.248   0.818   1.522  0.1499  0.1581  0.3064
 5473TIP3    H138054   5.278   0.812   1.431 -0.9346 -0.3676 -0.0295
 5473TIP3    H238055   5.257   0.729   1.557 -2.0973 -0.3187 -0.1807
 5474TIP3   OH238056   6.222   0.545   7.511  0.5083 -0.0123 -0.0639
 5474TIP3    H138057   6.144   0.494   7.487 -0.4171  1.8112 -1.1477
 5474TIP3    H238058   6.248   0.587   7.429  0.5460  2.1172  0.9870
 5475TIP3   OH238059   4.051   1.960   0.491  0.0051  0.0334  0.1702
 5475TIP3    H138060   4.078   2.039   0.538  0.0984 -0.3352  0.7536
 5475TIP3    H238061   4.130   1.928   0.448 -0.0402  0.2745 -0.0923
 5476TIP3   OH238062   1.362   6.693   1.032 -0.1323  0.0624  0.0560
 5476TIP3    H138063   1.321   6.779   1.022 -1.7995 -0.4768  1.7293
 5476TIP3    H238064   1.300   6.632   0.992  0.4046 -0.5007  0.0700
 5477TIP3   OH238065   4.887   5.226   7.719 -0.0054  0.1814  0.2663
 5477TIP3    H138066   4.955   5.160   7.727 -0.8356 -0.8385 -0.6952
 5477TIP3    H238067   4.878   5.239   7.624  0.0902  1.6194  0.4395
 5478TIP3   OH238068   1.464   6.413   0.149  0.3507 -0.1862 -0.4259
 5478TIP3    H138069   1.449   6.485   0.088  0.4066  0.9758  0.8860
 5478TIP3    H238070   1.458   6.334   0.095  0.3024  0.7905 -1.8998
 5479TIP3   OH238071   4.199   3.004   1.742  0.7863  0.2488  0.6913
 5479TIP3    H138072   4.248   2.933   1.702 -1.9995 -2.0146  1.0248
 5479TIP3    H238073   4.184   3.067   1.671  1.0728 -0.7646 -0.2784
 5480TIP3   OH238074   0.683   2.447   8.499 -0.0096  0.2378 -0.2578
 5480TIP3    H138075   0.746   2.398   8.550  0.1087  0.1627 -0.4756
 5480TIP3    H238076   0.628   2.492   8.564  0.1922  0.2094 -0.0704
 5481TIP3   OH238077   5.130   5.881   8.499 -0.2032  0.1105  0.4171
 5481TIP3    H138078   5.205   5.925   8.540 -1.8608  4.8105 -0.9236
 5481TIP3    H238079   5.165   5.840   8.421  1.1680  1.3991  0.3182
 5482TIP3   OH238080   6.444   5.251   0.758 -0.7222  0.1054  0.1165
 5482TIP3    H138081   6.483   5.201   0.830 -0.7749 -0.1985 -0.0675
 5482TIP3    H238082   6.442   5.341   0.791 -1.6660 -0.1758  0.8968
 5483TIP3   OH238083   3.502   2.714   8.390  0.1971  0.1584  0.1048
 5483TIP3    H138084   3.567   2.659   8.346 -0.3943  1.1408 -2.1255
 5483TIP3    H238085   3.518   2.802   8.357 -0.2497  0.9978  1.9829
 5484TIP3   OH238086   1.941   3.667   0.179 -0.0375  0.4579 -0.1463
 5484TIP3    H138087   1.964   3.615   0.102 -1.1318  1.6109 -1.2901
 5484TIP3    H238088   1.926   3.602   0.248  1.3628 -0.5698 -0.7557
 5485TIP3   OH238089   4.932   3.113   7.338  0.6876 -0.8824  0.2140
 5485TIP3    H138090   5.002   3.144   7.396  0.8786  1.6433 -1.2492
 5485TIP3    H238091   4.978   3.079   7.261  0.3672  0.1931 -0.4749
 5486TIP3   OH238092   6.097   5.897   7.009  0.0984  0.8271 -0.2120
 5486TIP3    H138093   6.008   5.862   7.007  0.2102  0.2456  1.9408
 5486TIP3    H238094   6.092   5.981   6.962 -1.6063  0.8616 -0.0023
 5487TIP3   OH238095   5.591   0.623   7.755  0.1208 -0.0144 -0.2886
 5487TIP3    H138096   5.606   0.557   7.687  1.6315 -1.7588  1.6063
 5487TIP3    H238097   5.672   0.674   7.757 -0.7258  1.4372 -1.1672
 5488TIP3   OH238098   5.797   0.298   1.164 -1.0069 -0.2109  0.1390
 5488TIP3    H138099   5.867   0.363   1.171 -0.8426 -0.0499 -2.1042
 5488TIP3    H238100   5.843   0.215   1.150 -1.2488 -0.5492  1.2578
 5489TIP3   OH238101   5.035   6.518   8.151 -0.7497 -0.2343  0.2016
 5489TIP3    H138102   4.956   6.466   8.164  0.1173 -1.3596  1.1422
 5489TIP3    H238103   5.093   6.461   8.099 -0.0230  0.0204  0.7173
 5490TIP3   OH238104   4.328   3.219   8.469  0.2938  0.0090  1.1031
 5490TIP3    H138105   4.387   3.149   8.441 -0.3988 -0.2467  0.2328
 5490TIP3    H238106   4.262   3.224   8.400  0.4194  1.6393  1.0693
 5491TIP3   OH238107   4.584   0.130   7.184 -0.4517 -0.0977  0.2340
 5491TIP3    H138108   4.633   0.091   7.256 -0.4914  0.1476  0.3965
 5491TIP3    H238109   4.629   0.102   7.105 -0.2851 -0.1975  0.3658
 5492TIP3   OH238110   2.892   3.876   1.167 -0.4077 -0.1967  0.1088
 5492TIP3    H138111   2.838   3.943   1.125 -0.3758 -0.3692 -0.2113
 5492TIP3    H238112   2.830   3.810   1.197 -0.4928  0.2688  0.9713
 5493TIP3   OH238113   2.687   0.855   1.743  0.2840 -0.3646  0.2884
 5493TIP3    H138114   2.602   0.896   1.725  0.4859 -0.7294 -1.7606
 5493TIP3    H238115   2.666   0.762   1.755  0.4592 -0.6437 -1.3147
 5494TIP3   OH238116   4.643   5.181   0.877 -0.1792 -0.3188 -0.1686
 5494TIP3    H138117   4.689   5.112   0.925  0.1655 -0.4698 -0.7162
 5494TIP3    H238118   4.697   5.198   0.801  0.6681  1.7593  0.8092
 5495TIP3   OH238119   4.901   2.492   0.256 -0.7851  0.4666 -0.3787
 5495TIP3    H138120   4.883   2.554   0.185  1.2600  1.8965  0.2557
 5495TIP3    H238121   4.980   2.446   0.229 -0.5310  0.3418  0.5311
 5496TIP3   OH238122   1.469   0.170   8.326 -0.5305 -0.6595  0.0097
 5496TIP3    H138123   1.387   0.205   8.361 -0.2946  0.6691 -0.6837
 5496TIP3    H238124   1.522   0.248   8.306 -0.2272 -1.3634 -2.2168
 5497TIP3   OH238125   5.216   2.410   0.244 -0.7925 -0.5599  0.1812
 5497TIP3    H138126   5.285   2.351   0.215  0.1492  0.8106 -0.4993
 5497TIP3    H238127   5.219   2.407   0.339  0.2956 -0.4451  0.1558
 5498TIP3   OH238128   0.376   0.918   0.972 -0.5912  0.0122  0.2515
 5498TIP3    H138129   0.296   0.944   0.925 -1.4732 -1.3786  0.9318
 5498TIP3    H238130   0.363   0.826   0.993  1.0599 -0.1512  0.6956
 5499TIP3   OH238131   2.411   6.254   6.753 -0.4961  0.2227  0.3889
 5499TIP3    H138132   2.361   6.192   6.700 -2.7971  1.3515  1.1103
 5499TIP3    H238133   2.470   6.199   6.805 -0.0139 -1.0684 -1.4152
 5500TIP3   OH238134   5.467   6.600   7.371  0.0380  0.0066 -0.3301
 5500TIP3    H138135   5.489   6.553   7.452 -0.4569 -0.2881 -0.3645
 5500TIP3    H238136   5.454   6.690   7.399 -0.5894 -0.1821 -0.0003
 5501TIP3   OH238137   6.090   4.022   6.681 -0.6495  0.4421  0.4570
 5501TIP3    H138138   6.055   4.109   6.662  1.7606  1.1593 -1.1059
 5501TIP3    H238139   6.182   4.037   6.701 -0.1678 -1.7661  0.1648
 5502TIP3   OH238140   0.384   5.615   7.851 -0.5864  0.2502 -0.2105
 5502TIP3    H138141   0.407   5.537   7.801 -0.9033 -0.1793  0.3045
 5502TIP3    H238142   0.437   5.610   7.930 -0.9975  0.2789  0.0723
 5503TIP3   OH238143   0.910   3.860   0.417 -0.2276  0.1528 -0.4154
 5503TIP3    H138144   0.850   3.811   0.360  0.0163  0.7286 -1.1928
 5503TIP3    H238145   0.932   3.938   0.366  1.0582  0.0288 -0.0779
 5504TIP3   OH238146   0.452   0.767   7.714 -0.5344  0.0886 -0.5020
 5504TIP3    H138147   0.545   0.776   7.698 -0.5638  0.0851 -0.6773
 5504TIP3    H238148   0.446   0.701   7.783 -0.4267 -0.2356 -0.7995
 5505TIP3   OH238149   0.689   4.896   2.330 -0.2361  0.1592 -0.2382
 5505TIP3    H138150   0.684   4.977   2.280  0.2189  0.1002 -0.3812
 5505TIP3    H238151   0.648   4.918   2.414 -0.4728  0.4223 -0.4205
 5506TIP3   OH238152   6.453   0.908   2.057  0.1412  0.1632  0.6414
 5506TIP3    H138153   6.515   0.957   2.110 -0.1915  0.2451  0.9557
 5506TIP3    H238154   6.444   0.824   2.102  1.8847 -0.8183 -0.7080
 5507TIP3   OH238155   5.149   5.224   2.067  0.0573 -0.4543  0.2343
 5507TIP3    H138156   5.110   5.150   2.113 -2.3403  0.8507  0.4659
 5507TIP3    H238157   5.112   5.301   2.110  0.7805  0.8562 -1.3912
 5508TIP3   OH238158   2.314   0.371   2.415  0.0930 -0.6128 -0.3383
 5508TIP3    H138159   2.405   0.397   2.430 -0.1362 -0.7600  1.6302
 5508TIP3    H238160   2.316   0.276   2.419 -0.1682 -0.6069 -0.0232
 5509TIP3   OH238161   5.205   6.100   7.170 -0.1026 -0.0568  0.3460
 5509TIP3    H138162   5.227   6.162   7.240 -0.7698 -0.9056  1.3225
 5509TIP3    H238163   5.194   6.155   7.092 -1.8067  1.2139  1.4217
 5510TIP3   OH238164   4.434   4.606   8.615 -0.5104 -0.3570  0.3270
 5510TIP3    H138165   4.499   4.649   8.672  0.7729 -0.8804 -0.6957
 5510TIP3    H238166   4.474   4.522   8.594 -0.5007  0.1825 -2.0871
 5511TIP3   OH238167   1.106   0.919   1.798  0.0708  0.0806 -0.3175
 5511TIP3    H138168   1.059   0.925   1.881  0.1194 -0.5523 -0.2442
 5511TIP3    H238169   1.086   0.832   1.764  0.4489  0.1474 -0.7261
 5512TIP3   OH238170   6.580   2.749   0.632 -0.4634 -0.3746 -0.7174
 5512TIP3    H138171   6.599   2.766   0.540 -0.5031 -1.3241 -0.9037
 5512TIP3    H238172   6.557   2.657   0.636  2.1784 -1.0942  0.6419
 5513TIP3   OH238173   1.155   5.707   1.592  0.4525  0.3479 -0.2746
 5513TIP3    H138174   1.092   5.759   1.542 -2.2278 -2.3548  0.0182
 5513TIP3    H238175   1.126   5.717   1.683 -0.4497 -1.9197 -0.2567
 5514TIP3   OH238176   5.947   5.009   0.859 -0.9835  0.3278  0.2035
 5514TIP3    H138177   5.976   5.080   0.801  0.0666 -0.1388  0.1348
 5514TIP3    H238178   6.027   4.961   0.880 -1.1243  1.1037  2.9137
 5515TIP3   OH238179   0.836   0.170   7.756  0.4574  0.0753 -0.0534
 5515TIP3    H138180   0.777   0.135   7.822 -1.2437  0.4436 -1.3052
 5515TIP3    H238181   0.787   0.241   7.715  2.0114  0.7887 -0.7518
 5516TIP3   OH238182   4.823   5.541   8.605 -0.1577  0.1756  0.1494
 5516TIP3    H138183   4.751   5.566   8.547 -0.0333 -0.5321 -0.3242
 5516TIP3    H238184   4.867   5.470   8.559  0.0320 -0.3061  1.0443
 5517TIP3   OH238185   1.854   6.537   2.495 -0.1100  0.4695  0.8431
 5517TIP3    H138186   1.767   6.546   2.456  0.0078 -0.5053  0.3178
 5517TIP3    H238187   1.902   6.614   2.465 -0.5647  0.6279  0.5148
 5518TIP3   OH238188   6.554   6.706   8.002  0.0383  0.7712 -0.6798
 5518TIP3    H138189   6.584   6.616   8.014  0.8238  0.8776 -1.7711
 5518TIP3    H238190   6.469   6.698   7.958 -0.0573  0.5591 -0.4574
 5519TIP3   OH238191   4.068   1.393   0.335  0.1121 -0.1363 -0.4167
 5519TIP3    H138192   4.022   1.470   0.302  1.0065  0.1589 -0.9991
 5519TIP3    H238193   4.010   1.319   0.315  0.0266  0.1976 -1.4139
 5520TIP3   OH238194   0.446   6.341   0.420 -0.2582  0.1630 -0.0964
 5520TIP3    H138195   0.428   6.418   0.473 -1.8609 -0.4056  0.2471
 5520TIP3    H238196   0.367   6.287   0.428  0.5095 -1.1526 -0.9534
 5521TIP3   OH238197   6.431   2.370   1.558 -0.2479  0.5180  0.4157
 5521TIP3    H138198   6.493   2.444   1.560  1.1751 -0.6313  0.7471
 5521TIP3    H238199   6.468   2.310   1.493 -0.7351 -0.4436  1.0083
 5522TIP3   OH238200   6.170   5.386   8.184  0.3057  0.4824  0.0429
 5522TIP3    H138201   6.089   5.438   8.178 -0.3949 -0.7666 -4.1701
 5522TIP3    H238202   6.143   5.305   8.227 -0.9187 -0.1645 -1.8350
 5523TIP3   OH238203   0.479   1.433   8.914 -0.8027 -0.5745 -0.7972
 5523TIP3    H138204   0.505   1.392   8.831 -2.2644  0.0891 -1.6258
 5523TIP3    H238205   0.415   1.500   8.888 -1.6333 -0.6606  0.9085
 5524TIP3   OH238206   2.924   0.355   8.115 -0.6543 -0.1474 -0.1153
 5524TIP3    H138207   2.972   0.285   8.159  0.3468  0.9261  0.5758
 5524TIP3    H238208   2.846   0.312   8.080 -0.3891 -1.4795  0.8226
 5525TIP3   OH238209   5.529   4.313   7.881  0.0060 -0.3081  0.2956
 5525TIP3    H138210   5.589   4.311   7.807  0.2575 -0.1767  0.4940
 5525TIP3    H238211   5.531   4.405   7.911 -1.5836  0.1044 -0.7506
 5526TIP3   OH238212   0.202   5.262   8.994 -0.1975 -0.1676  0.4349
 5526TIP3    H138213   0.216   5.350   9.029 -0.4048 -0.4756  1.3241
 5526TIP3    H238214   0.280   5.214   9.019 -1.1553 -0.9047  2.2123
 5527TIP3   OH238215   0.941   4.840   2.000 -0.4242 -0.2056  1.0231
 5527TIP3    H138216   0.983   4.824   2.084  1.2848  2.2314  0.7473
 5527TIP3    H238217   0.912   4.754   1.971 -1.1538 -1.1241  4.0983
 5528TIP3   OH238218   3.177   0.646   0.115  0.2153 -0.2352  0.0011
 5528TIP3    H138219   3.135   0.669   0.032  1.2379 -0.9336 -0.7460
 5528TIP3    H238220   3.115   0.588   0.159 -0.5675  0.5808 -0.0272
 5529TIP3   OH238221   3.321   1.842   8.820  0.0411  0.1019 -0.4249
 5529TIP3    H138222   3.264   1.788   8.876 -0.2745 -0.1336 -0.9702
 5529TIP3    H238223   3.395   1.864   8.877 -1.7037  2.4716  1.1531
 5530TIP3   OH238224   3.207   3.988   6.850  0.6842 -0.1785 -0.2268
 5530TIP3    H138225   3.278   3.931   6.823  0.8474 -0.3051  0.4378
 5530TIP3    H238226   3.246   4.076   6.854  0.8475 -0.2675  0.2625
 5531TIP3   OH238227   4.374   2.693   8.833  0.2762  0.3632 -0.2700
 5531TIP3    H138228   4.345   2.783   8.822 -2.0038 -0.4124 -1.1981
 5531TIP3    H238229   4.469   2.696   8.818  0.8271  3.0236  2.6423
 5532TIP3   OH238230   3.320   1.347   7.557  0.0689  0.1171 -0.3332
 5532TIP3    H138231   3.333   1.419   7.497 -0.8961  0.6015  0.0204
 5532TIP3    H238232   3.358   1.377   7.640 -0.2714  0.1951 -0.2040
 5533TIP3   OH238233   4.818   0.064   8.677 -0.1282 -0.7308 -0.2635
 5533TIP3    H138234   4.880   0.083   8.607  0.0879 -0.8696 -0.1109
 5533TIP3    H238235   4.842  -0.023   8.707 -0.5938 -0.9139 -0.4108
 5534TIP3   OH238236   1.747   4.119   8.428  0.0449 -0.1047 -0.4113
 5534TIP3    H138237   1.799   4.196   8.450  0.2850 -0.4922  0.3960
 5534TIP3    H238238   1.746   4.067   8.508  0.5452 -1.3249 -1.1680
 5535TIP3   OH238239   6.124   5.535   2.398 -0.3849 -0.1304 -0.0199
 5535TIP3    H138240   6.217   5.523   2.378 -0.6186  0.9847 -2.0608
 5535TIP3    H238241   6.081   5.462   2.353 -0.6851  0.8857 -1.4664
 5536TIP3   OH238242   2.395   5.543   8.179 -0.3610 -0.4203 -0.1751
 5536TIP3    H138243   2.475   5.542   8.127 -0.9781 -1.2471 -1.1392
 5536TIP3    H238244   2.397   5.628   8.223 -0.8844  1.3269 -3.2479
 5537TIP3   OH238245   1.677   6.605   1.806  0.4554  0.5292  0.2468
 5537TIP3    H138246   1.692   6.699   1.801  0.7497  0.5505  1.2040
 5537TIP3    H238247   1.765   6.567   1.810  0.3530  0.3736  1.8721
 5538TIP3   OH238248   0.640   1.927   7.481 -0.0267 -0.3058 -0.5108
 5538TIP3    H138249   0.637   1.886   7.394 -2.0808  0.5683 -0.9103
 5538TIP3    H238250   0.592   1.867   7.538 -1.5123  0.6395 -0.7202
 5539TIP3   OH238251   1.765   1.918   2.623  0.5635  0.3594  0.8779
 5539TIP3    H138252   1.763   1.823   2.607  0.7133  0.5294 -0.2023
 5539TIP3    H238253   1.851   1.933   2.663  0.4282  0.0092  1.3156
 5540TIP3   OH238254   4.879   4.412   0.146 -0.0438  0.6955  0.2058
 5540TIP3    H138255   4.953   4.437   0.091 -1.7116  0.3159 -2.4065
 5540TIP3    H238256   4.867   4.485   0.206  2.5843  0.6221  0.9271
 5541TIP3   OH238257   6.543   4.280   7.590 -0.6130  0.1769  0.0491
 5541TIP3    H138258   6.615   4.293   7.652 -0.8672 -2.4684  1.0334
 5541TIP3    H238259   6.586   4.269   7.505 -0.0832  1.3286  0.1484
 5542TIP3   OH238260   5.368   3.199   1.495 -0.1537 -0.1096 -0.3384
 5542TIP3    H138261   5.355   3.231   1.584  0.2693 -1.5836  0.2937
 5542TIP3    H238262   5.459   3.222   1.474  0.2741 -1.1649  0.2611
 5543TIP3   OH238263   4.402   0.631   6.796 -0.3342  0.6482  0.0882
 5543TIP3    H138264   4.461   0.562   6.764 -1.7070 -1.5189  1.9329
 5543TIP3    H238265   4.321   0.618   6.745 -0.9995  0.0531  1.2416
 5544TIP3   OH238266   0.970   0.647   0.564 -0.5805 -0.4902 -0.7307
 5544TIP3    H138267   0.932   0.559   0.569 -2.4665  0.3462  1.2733
 5544TIP3    H238268   0.917   0.700   0.624  1.4583  1.6922 -0.6942
 5545TIP3   OH238269   5.223   2.836   7.573  0.5529  0.3311  0.5897
 5545TIP3    H138270   5.218   2.771   7.503  0.7129  0.6872  0.2441
 5545TIP3    H238271   5.139   2.883   7.569  0.4278  0.1327  0.8532
 5546TIP3   OH238272   2.188   1.581   8.661 -0.3853 -0.0990  0.3300
 5546TIP3    H138273   2.192   1.497   8.617 -0.2122  0.0880 -0.0182
 5546TIP3    H238274   2.097   1.588   8.691 -1.0941  0.6563 -1.7935
 5547TIP3   OH238275   3.428   1.293   1.476  0.5268 -0.0085 -0.6251
 5547TIP3    H138276   3.361   1.239   1.435 -0.1008  0.2703 -0.0095
 5547TIP3    H238277   3.391   1.381   1.476  0.0444 -0.1455  1.3820
 5548TIP3   OH238278   1.094   5.588   1.268  0.0079 -0.9244 -0.0948
 5548TIP3    H138279   1.109   5.509   1.215 -1.3081 -0.7643 -0.7377
 5548TIP3    H238280   1.143   5.572   1.349 -0.3019 -2.4385 -0.1782
 5549TIP3   OH238281   1.937   0.721   8.142  0.1493  0.3437  0.5547
 5549TIP3    H138282   1.913   0.629   8.139  1.4029 -0.0155 -2.3006
 5549TIP3    H238283   1.935   0.749   8.050  1.4883  2.6806  1.1448
 5550TIP3   OH238284   6.043   4.080   8.315 -0.1375  0.0786  0.3313
 5550TIP3    H138285   6.069   4.120   8.398  0.6819  0.9383 -0.3181
 5550TIP3    H238286   6.042   3.986   8.333  1.6265  0.1350  0.9077
 5551TIP3   OH238287   1.633   5.943   8.999 -0.0905 -0.3937  0.4630
 5551TIP3    H138288   1.624   6.003   9.073  1.0607  1.1843 -0.6135
 5551TIP3    H238289   1.547   5.946   8.957  0.7030  2.9879 -1.3018
 5552TIP3   OH238290   3.314   4.566   8.732 -0.2037  0.3762 -0.0235
 5552TIP3    H138291   3.335   4.656   8.758 -1.3936  0.4054  0.9453
 5552TIP3    H238292   3.393   4.534   8.689  0.7551  1.3922  0.9196
 5553TIP3   OH238293   6.109   6.551   0.548 -0.4685 -0.1302  0.3726
 5553TIP3    H138294   6.185   6.564   0.605  0.3017  0.3982 -0.7404
 5553TIP3    H238295   6.055   6.628   0.564 -0.7737 -0.4909  1.1453
 5554TIP3   OH238296   3.701   6.258   7.190 -0.5635 -0.1278  0.5106
 5554TIP3    H138297   3.635   6.256   7.121  0.4404  1.1141 -0.5485
 5554TIP3    H238298   3.779   6.294   7.147  0.8064 -1.5085  1.7209
 5555TIP3   OH238299   6.502   6.416   1.530 -0.1546 -0.2489 -0.0943
 5555TIP3    H138300   6.520   6.494   1.478 -3.1870  1.6374  1.4115
 5555TIP3    H238301   6.476   6.450   1.616  0.5110 -3.0478  1.3285
 5556TIP3   OH238302   0.902   5.522   2.063 -0.1525  0.5613 -0.3693
 5556TIP3    H138303   0.944   5.532   2.148  1.7811  1.1585 -1.3359
 5556TIP3    H238304   0.852   5.602   2.052  3.1946  2.6926 -1.6115
 5557TIP3   OH238305   0.416   4.627   1.144  0.1918  0.1542  0.0742
 5557TIP3    H138306   0.467   4.615   1.064  1.1808 -2.1586  0.9770
 5557TIP3    H238307   0.474   4.677   1.201 -0.5425  1.8713 -0.5927
 5558TIP3   OH238308   6.288   0.863   1.774 -0.1987  0.3052 -0.1717
 5558TIP3    H138309   6.253   0.928   1.835 -0.3107  2.3560 -2.2841
 5558TIP3    H238310   6.286   0.780   1.823 -1.0835  1.6654  2.2553
 5559TIP3   OH238311   5.003   1.177   7.946  0.3141  0.0575 -0.0243
 5559TIP3    H138312   5.021   1.122   8.022 -1.0916  3.3488  2.9898
 5559TIP3    H238313   4.919   1.145   7.913 -0.4607  0.2366  1.6365
 5560TIP3   OH238314   4.006   4.931   7.046  0.4368 -0.0078 -0.1668
 5560TIP3    H138315   4.000   4.975   7.131  1.1042  1.1150 -0.6827
 5560TIP3    H238316   4.092   4.954   7.013 -0.4012  0.9015 -1.8575
 5561TIP3   OH238317   5.126   1.132   1.426  0.1179 -0.2475  0.0074
 5561TIP3    H138318   5.195   1.126   1.491  0.2900 -0.9155 -0.2292
 5561TIP3    H238319   5.133   1.221   1.391 -0.1630  0.2236  1.0885
 5562TIP3   OH238320   5.788   0.943   8.592  0.8160  0.2643  0.4507
 5562TIP3    H138321   5.698   0.915   8.606  0.2207  1.9473  0.2360
 5562TIP3    H238322   5.834   0.864   8.564  0.1913 -1.3895  3.7086
 5563TIP3   OH238323   0.105   0.722   8.543  0.1040 -0.6071  0.8631
 5563TIP3    H138324   0.040   0.766   8.598  1.9988  0.0270  2.7189
 5563TIP3    H238325   0.080   0.629   8.547 -1.2095 -0.2694  0.7755
 5564TIP3   OH238326   1.286   5.008   0.038  0.4273  0.4627 -0.4516
 5564TIP3    H138327   1.234   4.948   0.091 -0.0573  1.0790 -0.2205
 5564TIP3    H238328   1.377   4.981   0.054  0.2261 -0.0968 -0.2225
 5565TIP3   OH238329   3.086   2.359   2.617  0.1240 -0.4073 -0.2470
 5565TIP3    H138330   3.155   2.425   2.614  0.0177 -0.3005 -0.3352
 5565TIP3    H238331   3.031   2.378   2.541 -0.4620  0.0137  0.2766
 5566TIP3   OH238332   3.645   2.505   8.235  0.0202  0.1069  0.1474
 5566TIP3    H138333   3.719   2.545   8.188 -0.6001  0.2757 -0.7065
 5566TIP3    H238334   3.587   2.475   8.166 -0.1349 -1.1336  0.7977
 5567TIP3   OH238335   6.038   1.985   7.724 -0.8191 -0.4292 -0.3631
 5567TIP3    H138336   5.997   1.899   7.737 -1.4643 -0.0162  0.4205
 5567TIP3    H238337   5.978   2.032   7.666 -0.1749 -0.7041 -1.2601
 5568TIP3   OH238338   6.160   4.151   8.573  0.5326  0.3611 -0.6293
 5568TIP3    H138339   6.251   4.123   8.577  1.5049  3.2548  1.3913
 5568TIP3    H238340   6.115   4.098   8.639  0.5782 -1.3810 -1.9358
 5569TIP3   OH238341   0.684   6.650   7.232  0.7267 -0.4882  0.1397
 5569TIP3    H138342   0.735   6.702   7.293 -0.1063  2.3282 -1.3872
 5569TIP3    H238343   0.725   6.665   7.147 -0.2781 -1.4085 -0.5437
 5570TIP3   OH238344   3.023   3.518   8.053 -0.5051  0.3764 -0.0181
 5570TIP3    H138345   3.106   3.484   8.021 -0.9702 -0.5146 -0.3249
 5570TIP3    H238346   2.964   3.443   8.050 -1.6182  1.2436 -0.8828
 5571TIP3   OH238347   1.864   2.963   2.551 -0.0593 -0.5322  0.1388
 5571TIP3    H138348   1.844   3.046   2.509  0.6864  0.3789  1.5084
 5571TIP3    H238349   1.778   2.923   2.565 -0.4078 -0.1406 -0.7830
 5572TIP3   OH238350   1.267   0.393   8.722 -0.0187  0.0697  0.3751
 5572TIP3    H138351   1.305   0.313   8.758 -0.3248  0.1856  0.9883
 5572TIP3    H238352   1.234   0.440   8.799 -1.5636 -0.1252 -0.1307
 5573TIP3   OH238353   6.154   6.234   1.066  0.4595 -0.0797  0.1727
 5573TIP3    H138354   6.126   6.288   1.140  0.9253 -0.4868  0.6541
 5573TIP3    H238355   6.250   6.232   1.073  0.4218 -1.9014  0.8672
 5574TIP3   OH238356   1.591   5.432   0.882  0.1553  0.1917 -0.2738
 5574TIP3    H138357   1.559   5.501   0.823  1.2382  1.0832  0.1523
 5574TIP3    H238358   1.685   5.426   0.865  0.1626 -0.8743  0.0268
 5575TIP3   OH238359   2.405   5.093   2.066  0.4711 -0.3207  0.3452
 5575TIP3    H138360   2.363   5.091   2.152  1.2699 -1.1123  0.7432
 5575TIP3    H238361   2.350   5.038   2.011  1.0648 -1.5410  0.9225
 5576TIP3   OH238362   4.356   2.385   0.093 -0.4574 -0.1439 -0.0744
 5576TIP3    H138363   4.447   2.371   0.120  0.0355 -0.6745 -1.9084
 5576TIP3    H238364   4.349   2.480   0.085 -0.8083  0.1086  2.3627
 5577TIP3   OH238365   6.620   6.507   0.946  0.5128 -0.1629 -0.0568
 5577TIP3    H138366   6.716   6.501   0.945  0.6624  0.3002  2.6355
 5577TIP3    H238367   6.602   6.584   1.000 -1.4057  0.3507 -1.3282
 5578TIP3   OH238368   1.467   4.959   0.782  0.0696  0.3293  0.0245
 5578TIP3    H138369   1.511   5.042   0.762  0.2611  0.1461 -0.3304
 5578TIP3    H238370   1.426   4.973   0.867  0.8500  0.4936  0.3810
 5579TIP3   OH238371   2.116   6.235   1.652 -0.0834 -0.9108 -0.0153
 5579TIP3    H138372   2.094   6.152   1.694 -0.9023 -0.5384  0.3247
 5579TIP3    H238373   2.199   6.261   1.690  0.7365 -2.0979 -0.9171
 5580TIP3   OH238374   5.760   6.297   7.825 -0.1390  0.0347 -0.5787
 5580TIP3    H138375   5.793   6.305   7.736 -1.8024 -0.6614 -1.3075
 5580TIP3    H238376   5.794   6.213   7.856 -0.5412 -0.2876 -1.0073
 5581TIP3   OH238377   5.465   2.016   1.157  0.7246  0.0981  0.1825
 5581TIP3    H138378   5.413   2.046   1.083  2.5803  2.6305 -0.1982
 5581TIP3    H238379   5.409   1.951   1.200 -2.3332  1.9391 -0.7130
 5582TIP3   OH238380   3.144   3.513   2.820  0.0537  0.0928 -0.7950
 5582TIP3    H138381   3.077   3.535   2.885  1.0866  0.8842  0.0244
 5582TIP3    H238382   3.096   3.512   2.737 -1.0089  0.4595 -0.2159
 5583TIP3   OH238383   0.082   4.507   1.705  0.0250  0.1651  0.1232
 5583TIP3    H138384   0.090   4.602   1.715  2.1327  0.0735 -0.2702
 5583TIP3    H238385   0.051   4.478   1.791  0.4339  1.1109  0.6170
 5584TIP3   OH238386   1.691   5.395   0.599  0.5718  0.2251  0.1960
 5584TIP3    H138387   1.674   5.480   0.641 -0.6600 -0.3355  0.8994
 5584TIP3    H238388   1.765   5.411   0.541  0.4958  1.7313  0.4743
 5585TIP3   OH238389   5.739   1.751   8.190  0.1079 -0.3569  0.4892
 5585TIP3    H138390   5.742   1.656   8.196  0.1068 -0.3308  0.9426
 5585TIP3    H238391   5.701   1.769   8.104  3.2750 -0.7379 -1.1103
 5586TIP3   OH238392   1.220   4.493   0.155  0.0836 -0.5042  0.2987
 5586TIP3    H138393   1.162   4.424   0.188 -0.5494 -0.3442 -0.4284
 5586TIP3    H238394   1.300   4.485   0.206 -1.1343  0.2687  2.4697
 5587TIP3   OH238395   0.500   0.347   7.029 -0.0415 -0.2760  0.0445
 5587TIP3    H138396   0.489   0.441   7.018 -2.4301 -0.6206 -1.1058
 5587TIP3    H238397   0.581   0.338   7.079  0.7516  2.3352 -0.6137
 5588TIP3   OH238398   5.360   6.031   8.939 -0.1079 -0.3923  0.5575
 5588TIP3    H138399   5.420   6.105   8.940 -1.8664  1.1875 -0.8968
 5588TIP3    H238400   5.276   6.068   8.967 -0.9335 -1.9582  0.2801
 5589TIP3   OH238401   1.955   0.023   2.413  1.0538 -0.2246 -0.3290
 5589TIP3    H138402   1.902   0.049   2.338  0.2764 -1.3081 -0.1711
 5589TIP3    H238403   2.046   0.029   2.382  0.9879  2.7622 -0.2658
 5590TIP3   OH238404   6.611   1.493   0.203  0.2150  0.1902 -0.4536
 5590TIP3    H138405   6.644   1.573   0.160 -2.8902  0.7884 -2.0008
 5590TIP3    H238406   6.542   1.524   0.261 -0.6786 -1.3216 -0.6729
 5591TIP3   OH238407   2.473   4.028   2.198  0.5347  0.6517  0.1034
 5591TIP3    H138408   2.468   3.987   2.284  0.8759 -1.3920 -0.7821
 5591TIP3    H238409   2.388   4.069   2.185 -0.7658 -1.8283  0.1527
 5592TIP3   OH238410   0.591   1.386   7.632  0.1794 -0.2224 -0.2883
 5592TIP3    H138411   0.578   1.395   7.727  0.3765 -1.6755 -0.1033
 5592TIP3    H238412   0.529   1.448   7.594 -1.0248 -0.7048  0.7765
 5593TIP3   OH238413   5.532   5.666   8.661  0.5345  0.4541  0.3439
 5593TIP3    H138414   5.467   5.735   8.656 -0.3315 -0.3881 -0.4446
 5593TIP3    H238415   5.485   5.586   8.636  1.6112 -0.3533  0.7757
 5594TIP3   OH238416   1.921   5.565   8.210  0.6819 -0.5904  0.0691
 5594TIP3    H138417   1.925   5.473   8.238 -0.1611 -0.6195  0.1162
 5594TIP3    H238418   1.859   5.565   8.138  1.8296 -0.2904 -0.9607
 5595TIP3   OH238419   3.539   3.268   2.160 -0.2906 -0.2172  0.0267
 5595TIP3    H138420   3.458   3.314   2.138  0.2828 -0.0562 -1.9178
 5595TIP3    H238421   3.510   3.187   2.202 -1.4652 -0.1282 -0.5831
 5596TIP3   OH238422   0.094   5.077   7.921  0.0027  0.3503  0.2216
 5596TIP3    H138423   0.052   5.059   7.837 -0.8325  1.5172  0.3583
 5596TIP3    H238424   0.188   5.080   7.901 -0.2029  0.8350 -0.7126
 5597TIP3   OH238425   2.778   0.937   3.113  0.2056  0.0008  0.1171
 5597TIP3    H138426   2.841   1.009   3.100  1.5495 -1.1115  0.2456
 5597TIP3    H238427   2.697   0.970   3.075  0.7928  1.5833  0.1479
 5598TIP3   OH238428   2.137   5.397   0.905 -0.1708  0.8653 -0.3360
 5598TIP3    H138429   2.102   5.464   0.847 -0.5295  0.4632 -0.5965
 5598TIP3    H238430   2.112   5.425   0.993 -1.4820  0.4139 -0.5361
 5599TIP3   OH238431   4.649   5.947   0.100 -0.5592  0.0223 -0.2047
 5599TIP3    H138432   4.570   5.896   0.121 -0.4835 -0.7210 -1.5953
 5599TIP3    H238433   4.721   5.884   0.108 -0.2289  0.4204 -0.0120
 5600TIP3   OH238434   3.560   3.235   1.071 -0.2015 -0.2393  0.0861
 5600TIP3    H138435   3.468   3.210   1.066  0.0048 -0.7304 -2.9996
 5600TIP3    H238436   3.588   3.206   1.158 -2.6359 -1.1570  0.6395
 5601TIP3   OH238437   6.399   3.382   8.233  0.2024  0.0224 -0.0608
 5601TIP3    H138438   6.364   3.294   8.238  1.6045 -0.6132 -0.7429
 5601TIP3    H238439   6.340   3.428   8.173 -3.4054  1.0986  3.8075
 5602TIP3   OH238440   2.151   1.509   2.672  0.2519  0.4157 -0.6229
 5602TIP3    H138441   2.201   1.429   2.658 -0.3685 -0.2164  0.6229
 5602TIP3    H238442   2.107   1.496   2.756 -1.8098  1.0539 -1.5300
 5603TIP3   OH238443   1.589   1.119   1.717  0.1958  0.2563  0.1111
 5603TIP3    H138444   1.680   1.141   1.700  0.7402 -2.3633 -0.7693
 5603TIP3    H238445   1.586   1.100   1.811  0.5610  0.3473  0.1425
 5604TIP3   OH238446   1.724   2.040   8.601 -0.2428 -0.1916  0.1776
 5604TIP3    H138447   1.731   2.126   8.642  0.5598 -1.2481  2.4554
 5604TIP3    H238448   1.815   2.009   8.595 -0.6391 -1.8267  1.7118
 5605TIP3   OH238449   0.334   6.576   0.458 -0.0410 -0.2307 -0.1774
 5605TIP3    H138450   0.256   6.600   0.408  0.6833  0.1583 -1.1586
 5605TIP3    H238451   0.393   6.651   0.447  0.0754 -0.0501  1.4374
 5606TIP3   OH238452   2.764   5.704   2.537  0.0747 -0.2011  0.1858
 5606TIP3    H138453   2.835   5.710   2.602  0.8604  2.5525 -0.8052
 5606TIP3    H238454   2.808   5.688   2.454 -0.7089 -0.8751 -0.1227
 5607TIP3   OH238455   2.569   4.888   7.489  0.0075  0.8209  0.0466
 5607TIP3    H138456   2.516   4.808   7.496 -1.5685  1.8423  0.2058
 5607TIP3    H238457   2.547   4.924   7.403 -1.2158  2.3454  0.9386
 5608TIP3   OH238458   2.704   1.471   7.261  0.4710 -0.1327  0.5126
 5608TIP3    H138459   2.676   1.474   7.170  0.1827  0.7896  0.6256
 5608TIP3    H238460   2.795   1.441   7.258  0.0532 -1.4088  0.0248
 5609TIP3   OH238461   1.111   4.924   0.336  0.0312 -0.1577 -0.0854
 5609TIP3    H138462   1.140   4.852   0.281  0.6330  0.5207 -0.6844
 5609TIP3    H238463   1.084   4.992   0.273  0.9118  0.7034  0.4326
 5610TIP3   OH238464   1.983   2.270   7.686 -0.5322 -0.1949  0.7499
 5610TIP3    H138465   1.969   2.365   7.690 -0.0655 -0.0615 -0.4916
 5610TIP3    H238466   2.078   2.260   7.683 -0.5938 -0.6475 -0.0810
 5611TIP3   OH238467   2.870   3.180   8.865 -0.3995  0.1982 -0.1698
 5611TIP3    H138468   2.948   3.139   8.904 -0.9362 -0.1841  0.5347
 5611TIP3    H238469   2.903   3.225   8.788  0.4685 -0.2627 -0.0884
 5612TIP3   OH238470   3.742   4.983   7.988 -0.3668  0.2791  0.0097
 5612TIP3    H138471   3.729   5.056   7.926  0.2035  0.0557 -0.3878
 5612TIP3    H238472   3.690   4.912   7.951 -1.0055  0.5065  0.4528
 5613TIP3   OH238473   1.859   1.370   1.950 -0.1202  0.1041  0.3427
 5613TIP3    H138474   1.841   1.317   1.872  0.5416  0.2343  0.0899
 5613TIP3    H238475   1.822   1.319   2.022 -0.4424 -0.1818 -0.0202
 5614TIP3   OH238476   1.946   3.875   8.970  0.0663  0.1553 -0.3622
 5614TIP3    H138477   1.990   3.823   8.902 -1.1980  0.3388 -1.3534
 5614TIP3    H238478   2.001   3.864   9.048  2.9970  1.9229 -1.9820
 5615TIP3   OH238479   4.786   1.816   7.860 -0.1724  0.7488 -0.5465
 5615TIP3    H138480   4.781   1.837   7.953 -0.6402  0.5396 -0.5175
 5615TIP3    H238481   4.807   1.898   7.817  1.9470  0.4880 -0.0924
 5616TIP3   OH238482   0.205   3.762   7.282 -0.0148 -0.2093 -0.0074
 5616TIP3    H138483   0.214   3.670   7.304  1.5507 -0.3174 -0.9676
 5616TIP3    H238484   0.284   3.783   7.232  0.6733  2.1301  1.8605
 5617TIP3   OH238485   4.774   2.485   1.904  0.1881 -0.1637 -0.7008
 5617TIP3    H138486   4.795   2.457   1.994 -1.9974 -2.5010 -0.8090
 5617TIP3    H238487   4.809   2.574   1.898 -1.4884  0.9769  3.2253
 5618TIP3   OH238488   1.086   0.899   1.315  0.1914 -0.4327 -0.1176
 5618TIP3    H138489   1.016   0.835   1.321  2.0980 -2.5091  2.0997
 5618TIP3    H238490   1.165   0.847   1.298  1.6606  1.4244  0.5686
 5619TIP3   OH238491   5.120   2.277   1.018  0.1243 -0.3383 -0.2394
 5619TIP3    H138492   5.055   2.223   1.062 -0.1182  0.3022  0.1993
 5619TIP3    H238493   5.093   2.279   0.926 -1.7966  1.7449  0.2752
 5620TIP3   OH238494   1.123   4.690   6.747  0.4371  0.4818 -0.0326
 5620TIP3    H138495   1.086   4.626   6.686 -1.1544  1.2284  0.0916
 5620TIP3    H238496   1.147   4.765   6.692  1.8976 -0.0123 -0.1182
 5621TIP3   OH238497   5.414   6.555   1.180  0.0127 -0.0072  0.7178
 5621TIP3    H138498   5.427   6.592   1.092 -0.6793  0.6212  0.8672
 5621TIP3    H238499   5.441   6.464   1.171 -1.5566 -0.4122 -0.6126
 5622TIP3   OH238500   3.774   6.236   0.648 -0.3636  0.1457 -0.7210
 5622TIP3    H138501   3.825   6.156   0.643 -0.0501  0.2050  0.8247
 5622TIP3    H238502   3.836   6.306   0.625  0.2314  0.1887  0.8525
 5623TIP3   OH238503   0.472   3.034   1.807 -0.2297 -0.3552  0.6834
 5623TIP3    H138504   0.517   2.954   1.835 -0.7441 -0.7359  0.4250
 5623TIP3    H238505   0.542   3.098   1.796  0.1863 -0.7697  0.8921
 5624TIP3   OH238506   5.417   3.729   7.455  0.4724  0.0681  0.3353
 5624TIP3    H138507   5.430   3.707   7.363 -1.8614 -3.7155  0.6600
 5624TIP3    H238508   5.493   3.692   7.499  0.2110 -0.7142  0.1464
 5625TIP3   OH238509   6.555   2.640   7.388  0.3481  0.0928  0.1075
 5625TIP3    H138510   6.527   2.568   7.444 -0.4065  1.2090  1.2164
 5625TIP3    H238511   6.520   2.618   7.301 -0.1269 -0.7218  0.4952
 5626TIP3   OH238512   3.374   2.088   7.960  0.3269 -0.7972  0.6476
 5626TIP3    H138513   3.466   2.102   7.984  0.0966  0.1976  1.0210
 5626TIP3    H238514   3.335   2.176   7.965 -0.8145 -1.3224  1.2479
 5627TIP3   OH238515   5.150   3.963   0.872 -0.4401 -0.0692  0.3798
 5627TIP3    H138516   5.087   3.928   0.809 -0.6496 -3.4788  2.2371
 5627TIP3    H238517   5.232   3.916   0.852  1.0916  2.7796 -0.6739
 5628TIP3   OH238518   5.393   6.020   7.801  0.0787 -0.7796 -0.1323
 5628TIP3    H138519   5.483   6.028   7.832  0.2165  1.3641 -0.9193
 5628TIP3    H238520   5.384   5.927   7.779  2.0309 -1.0853  0.1153
 5629TIP3   OH238521   2.844   4.848   2.028  0.0676 -0.4035 -0.1312
 5629TIP3    H138522   2.876   4.913   2.090  0.7161 -1.3267  0.5435
 5629TIP3    H238523   2.754   4.831   2.056  0.3792 -0.8642  0.6285
 5630TIP3   OH238524   1.767   2.166   0.831  0.0967 -0.0816  0.0007
 5630TIP3    H138525   1.750   2.106   0.903  1.1427  1.0199  1.2151
 5630TIP3    H238526   1.859   2.154   0.811  0.6057  1.7736  0.9617
 5631TIP3   OH238527   6.055   3.017   8.807 -0.0224 -0.1412  0.0521
 5631TIP3    H138528   6.112   3.090   8.832  1.4874 -1.3466  0.3166
 5631TIP3    H238529   5.982   3.020   8.869 -0.6438  1.8485 -0.7158
 5632TIP3   OH238530   5.342   5.007   7.519  0.5628  0.4307 -0.1578
 5632TIP3    H138531   5.349   4.950   7.595 -0.2879  0.5836  0.0420
 5632TIP3    H238532   5.310   4.949   7.449 -0.6574  0.7121  0.1375
 5633TIP3   OH238533   6.327   0.579   8.056 -0.2632 -0.1292  0.1405
 5633TIP3    H138534   6.269   0.518   8.011  1.0966 -1.7732  0.5134
 5633TIP3    H238535   6.341   0.651   7.994 -0.4868 -1.0770 -1.0211
 5634TIP3   OH238536   0.321   3.898   8.917 -0.0384 -0.1343 -0.0763
 5634TIP3    H138537   0.234   3.867   8.892  0.0903  0.2661 -1.0376
 5634TIP3    H238538   0.325   3.989   8.887  1.6342 -0.8909 -2.4971
 5635TIP3   OH238539   2.938   2.660   0.621  0.4150  0.1163 -0.2240
 5635TIP3    H138540   2.972   2.711   0.694 -2.0795 -0.3521  1.3822
 5635TIP3    H238541   2.996   2.585   0.615  0.5221  0.0266  1.4981
 5636TIP3   OH238542   1.683   3.317   7.268 -0.1630  0.2602  0.0469
 5636TIP3    H138543   1.755   3.380   7.273 -0.5170  0.7370 -0.6610
 5636TIP3    H238544   1.628   3.337   7.344 -0.8416  1.5320 -0.7553
 5637TIP3   OH238545   6.008   2.772   2.666 -0.2810  0.2501 -0.4245
 5637TIP3    H138546   6.084   2.817   2.628  2.1710 -1.7245  1.7366
 5637TIP3    H238547   5.973   2.833   2.729  0.1117  0.8379 -0.7647
 5638TIP3   OH238548   4.944   4.876   8.265  0.1694 -0.4363 -0.1622
 5638TIP3    H138549   4.953   4.872   8.170 -0.7185 -0.1493 -0.2713
 5638TIP3    H238550   4.975   4.963   8.289 -0.9554  0.0444 -0.3748
 5639TIP3   OH238551   2.925   4.002   6.692 -0.3783 -0.2952 -0.1559
 5639TIP3    H138552   2.983   4.025   6.765 -0.9252  0.8017 -0.0481
 5639TIP3    H238553   2.889   3.917   6.716  1.2024 -1.0219 -0.2441
 5640TIP3   OH238554   2.060   6.718   0.986  0.1990  0.0204 -0.4702
 5640TIP3    H138555   1.993   6.650   0.988  1.6650 -1.4804 -0.3431
 5640TIP3    H238556   2.019   6.793   1.030 -0.9738 -1.2343  0.6911
 5641TIP3   OH238557   5.743   1.140   1.492  0.4481 -0.6257 -0.1920
 5641TIP3    H138558   5.689   1.061   1.493 -0.8099  0.1889 -1.0503
 5641TIP3    H238559   5.815   1.119   1.433 -0.2128 -0.9352 -0.9031
 5642TIP3   OH238560   3.057   5.688   7.232  0.0105  0.6311  0.4671
 5642TIP3    H138561   3.145   5.674   7.196 -0.3307  0.8726 -0.4946
 5642TIP3    H238562   3.068   5.759   7.295  0.3598  1.2551 -0.2779
 5643TIP3   OH238563   5.899   2.216   1.317 -0.2959  0.3141 -0.6071
 5643TIP3    H138564   5.942   2.157   1.256 -0.9468 -1.0692  0.2332
 5643TIP3    H238565   5.940   2.198   1.401 -0.6894  0.8878 -0.2834
 5644TIP3   OH238566   3.865   6.122   6.836 -0.4760 -0.1021 -0.2865
 5644TIP3    H138567   3.958   6.115   6.814 -0.4451  1.1847 -0.6394
 5644TIP3    H238568   3.826   6.170   6.763 -1.5737 -1.2787 -0.5004
 5645TIP3   OH238569   3.373   2.071   1.918  0.3262 -0.0492 -0.1286
 5645TIP3    H138570   3.347   2.080   1.827  0.0545 -0.1438 -0.0609
 5645TIP3    H238571   3.300   2.025   1.960  1.2202 -1.6249 -0.2321
 5646TIP3   OH238572   6.155   1.441   7.534 -0.0914  0.5596  0.2411
 5646TIP3    H138573   6.155   1.371   7.468 -0.0888  0.2078  0.6113
 5646TIP3    H238574   6.114   1.515   7.490 -0.7614  0.0993  0.0793
 5647TIP3   OH238575   3.674   5.845   7.749  0.0405  0.4855  0.0746
 5647TIP3    H138576   3.595   5.794   7.768 -0.0244  0.3710 -0.4853
 5647TIP3    H238577   3.646   5.910   7.684  0.6882 -0.4104 -1.1575
 5648TIP3   OH238578   5.516   1.182   7.024  0.2599 -0.1035  0.5584
 5648TIP3    H138579   5.521   1.240   6.948 -0.2561  0.1834  0.7437
 5648TIP3    H238580   5.602   1.141   7.028 -0.5515 -2.3665 -1.9683
 5649TIP3   OH238581   3.930   0.397   0.108  0.2581 -0.2059  0.2344
 5649TIP3    H138582   3.853   0.423   0.158  0.8461 -0.0795  1.0873
 5649TIP3    H238583   3.928   0.301   0.108  0.2872 -0.2078  0.5580
 5650TIP3   OH238584   1.110   4.117   0.446  0.4433 -0.9276  0.2238
 5650TIP3    H138585   1.119   4.052   0.376  0.4659 -0.2185 -0.4571
 5650TIP3    H238586   1.144   4.198   0.407  2.7437 -1.0189  1.8667
 5651TIP3   OH238587   0.040   2.702   6.526  0.1941 -0.1432  0.5260
 5651TIP3    H138588  -0.003   2.774   6.573 -0.8183 -1.5054  1.8097
 5651TIP3    H238589   0.130   2.702   6.559  0.0838  0.2628  0.8421
 5652TIP3   OH238590   2.877   1.514   7.538  0.1890 -0.6145  0.2923
 5652TIP3    H138591   2.956   1.538   7.588  0.6710 -0.2004 -0.6368
 5652TIP3    H238592   2.910   1.490   7.452 -0.7901  0.7279 -0.4922
 5653TIP3   OH238593   2.080   6.416   6.762  0.4369  0.8168 -0.0281
 5653TIP3    H138594   1.992   6.446   6.786  0.3041 -0.3920  1.1204
 5653TIP3    H238595   2.077   6.321   6.774  0.4820  0.0049 -4.5767
 5654TIP3   OH238596   0.723   5.225   1.153  0.8452  0.1431  0.3976
 5654TIP3    H138597   0.706   5.303   1.207 -1.6084  1.5617 -2.1794
 5654TIP3    H238598   0.758   5.261   1.071 -0.6926 -1.3774 -0.9939
 5655TIP3   OH238599   0.992   1.148   1.355  0.7306 -0.6362  0.4157
 5655TIP3    H138600   1.041   1.174   1.432  0.9194 -1.3483  0.5487
 5655TIP3    H238601   1.028   1.062   1.332 -0.7966 -1.4375  0.8296
 5656TIP3   OH238602   1.440   3.889   1.017  0.1584  0.6088  0.3615
 5656TIP3    H138603   1.429   3.929   0.930 -0.5744 -1.2493 -0.4459
 5656TIP3    H238604   1.366   3.922   1.068 -1.1653 -0.6133 -0.6749
 5657TIP3   OH238605   1.299   5.783   6.608 -0.0715 -0.4577  0.3075
 5657TIP3    H138606   1.293   5.696   6.569  0.2613 -1.0354  1.4882
 5657TIP3    H238607   1.232   5.784   6.676  0.1864  0.0637  0.5648
 5658TIP3   OH238608   4.590   4.393   8.601 -0.2497  0.1378  0.0292
 5658TIP3    H138609   4.684   4.408   8.596 -0.2868  0.2620 -0.3715
 5658TIP3    H238610   4.579   4.302   8.574 -0.0320 -0.6400  2.3642
 5659TIP3   OH238611   6.577   4.589   1.794 -0.6951  0.0776  0.7024
 5659TIP3    H138612   6.533   4.561   1.714 -0.3054 -0.2724  0.6043
 5659TIP3    H238613   6.558   4.520   1.858 -0.4063 -0.0098  0.6966
 5660TIP3   OH238614   6.088   0.803   2.573 -0.5533  0.3690 -0.2191
 5660TIP3    H138615   6.174   0.761   2.586 -0.5081  0.6899  0.5337
 5660TIP3    H238616   6.083   0.816   2.479  0.2324  0.3543 -0.2740
 5661TIP3   OH238617   3.572   6.034   7.522  0.0404  0.1409  0.4364
 5661TIP3    H138618   3.634   6.001   7.458 -0.7283  5.2385 -3.6270
 5661TIP3    H238619   3.625   6.080   7.587  0.6680 -0.1438  0.1223
 5662TIP3   OH238620   6.537   0.032   2.346  0.0580  0.2208 -0.0854
 5662TIP3    H138621   6.496   0.115   2.322  1.2875  0.1090 -2.8776
 5662TIP3    H238622   6.463  -0.023   2.374 -1.1113  1.4023 -0.7128
 5663TIP3   OH238623   0.455   5.795   0.155 -0.1951 -0.0555 -0.2305
 5663TIP3    H138624   0.494   5.877   0.185  1.1287 -0.8355  0.2652
 5663TIP3    H238625   0.408   5.761   0.231 -1.1849  0.4706 -0.5855
 5664TIP3   OH238626   1.501   4.153   7.028 -0.0980 -0.0917 -0.0410
 5664TIP3    H138627   1.589   4.139   6.991  0.0633 -0.2569  0.3987
 5664TIP3    H238628   1.444   4.098   6.975  0.5811 -2.9907  1.9828
 5665TIP3   OH238629   2.495   1.701   0.379  0.2581  0.4130  0.5816
 5665TIP3    H138630   2.559   1.634   0.401  0.1421 -0.0721 -0.4827
 5665TIP3    H238631   2.485   1.752   0.459  0.5616 -0.6587  1.3260
 5666TIP3   OH238632   6.338   5.225   6.718 -0.6967  0.3524  0.0946
 5666TIP3    H138633   6.273   5.164   6.683 -2.3235  2.3424 -0.5346
 5666TIP3    H238634   6.292   5.308   6.724  1.9036  1.9542 -0.6806
 5667TIP3   OH238635   0.257   6.021   2.180  0.5994  0.1798  0.4427
 5667TIP3    H138636   0.249   6.048   2.271  0.3639 -1.9332  1.1051
 5667TIP3    H238637   0.218   6.093   2.130  1.9155  1.9764  1.8827
 5668TIP3   OH238638   0.780   4.296   6.962 -0.4211 -0.1444  0.4167
 5668TIP3    H138639   0.817   4.350   6.893  0.5418 -0.5783  0.5632
 5668TIP3    H238640   0.686   4.305   6.953 -0.2899  0.5546 -0.3456
 5669TIP3   OH238641   1.311   5.015   7.581 -0.1385  0.3658 -0.2796
 5669TIP3    H138642   1.333   4.922   7.587  0.7677  0.6641  1.8443
 5669TIP3    H238643   1.231   5.024   7.634 -0.1981  0.8080 -0.4393
 5670TIP3   OH238644   2.739   5.756   7.157 -0.4308 -0.0248 -0.1397
 5670TIP3    H138645   2.789   5.822   7.204 -2.3694  0.0311  2.0673
 5670TIP3    H238646   2.752   5.675   7.207 -1.3024 -0.3354 -0.3807
 5671TIP3   OH238647   2.078   4.909   8.768  0.5636  0.0542  0.2128
 5671TIP3    H138648   2.096   4.889   8.860 -1.8019 -0.4308  0.6469
 5671TIP3    H238649   2.123   4.840   8.719 -1.7158 -2.3794  1.3140
 5672TIP3   OH238650   1.006   1.517   1.270 -0.2256 -0.2007  0.1868
 5672TIP3    H138651   1.085   1.566   1.291 -0.1522  0.8197 -2.1078
 5672TIP3    H238652   1.037   1.435   1.233 -0.2983 -0.6744  1.1542
 5673TIP3   OH238653   1.754   0.371   1.566  0.6037 -0.0841  0.0817
 5673TIP3    H138654   1.768   0.287   1.521 -2.1066 -0.7374  0.2751
 5673TIP3    H238655   1.790   0.437   1.506  0.8292 -1.2270 -1.0862
 5674TIP3   OH238656   0.581   3.953   8.975  0.5617  0.4266  0.4187
 5674TIP3    H138657   0.488   3.950   8.994  0.6345  0.2899  0.7435
 5674TIP3    H238658   0.620   4.000   9.049  0.9486 -0.8220  1.0317
 5675TIP3   OH238659   4.987   3.144   1.442  0.1589  0.1130  0.0673
 5675TIP3    H138660   5.023   3.115   1.359  0.8336  1.0318  0.0234
 5675TIP3    H238661   5.029   3.089   1.508  0.2369 -0.0654 -0.1329
 5676TIP3   OH238662   2.415   4.947   7.981 -0.0473  0.1889  0.0587
 5676TIP3    H138663   2.363   5.027   7.990  0.2088  0.4349 -0.5801
 5676TIP3    H238664   2.462   4.939   8.064  0.2390  0.9343 -0.0240
 5677TIP3   OH238665   5.552   4.596   7.947 -0.2376 -0.6099  0.0810
 5677TIP3    H138666   5.626   4.603   8.007  0.2751  0.2696 -0.6265
 5677TIP3    H238667   5.510   4.682   7.950 -0.7273 -0.8363 -0.1591
 5678TIP3   OH238668   0.599   4.142   7.891  0.3711 -0.4448  0.0405
 5678TIP3    H138669   0.552   4.154   7.974  0.0770 -2.5113  0.2162
 5678TIP3    H238670   0.546   4.188   7.827  0.3402  0.7708  0.8998
 5679TIP3   OH238671   5.235   0.422   7.753 -0.6732  0.0812 -0.2338
 5679TIP3    H138672   5.170   0.356   7.774  1.0000 -1.4803  0.3186
 5679TIP3    H238673   5.315   0.373   7.734  0.4479  1.9135 -0.5960
 5680TIP3   OH238674   0.822   0.328   8.030 -0.2607 -0.1836  0.2506
 5680TIP3    H138675   0.746   0.350   7.975  0.5085 -2.5054 -1.9546
 5680TIP3    H238676   0.807   0.237   8.056  1.4437 -0.4908  0.2766
 5681TIP3   OH238677   5.848   1.908   7.310  0.0670 -0.1343 -0.2083
 5681TIP3    H138678   5.811   1.980   7.361 -0.7892 -0.9702  0.3910
 5681TIP3    H238679   5.804   1.913   7.226 -0.4212 -0.3088  0.0360
 5682TIP3   OH238680   0.022   6.594   6.858  0.1497 -0.6463 -0.3897
 5682TIP3    H138681  -0.013   6.554   6.778  1.2656 -1.2868 -0.5760
 5682TIP3    H238682   0.109   6.626   6.832 -0.0443  0.4056  0.2077
 5683TIP3   OH238683   2.390   5.332   1.491  0.0719  0.0974 -0.8004
 5683TIP3    H138684   2.470   5.314   1.542  0.0175  1.0146 -0.3723
 5683TIP3    H238685   2.377   5.427   1.499 -1.8824 -0.1974  0.4097
 5684TIP3   OH238686   6.737   4.048   0.563  0.3286  0.1608 -0.4530
 5684TIP3    H138687   6.816   4.001   0.590  0.0614 -0.7725 -1.2255
 5684TIP3    H238688   6.720   4.018   0.474 -0.3949  1.0332 -0.6319
 5685TIP3   OH238689   5.223   6.717   0.771  0.4243 -0.0038  0.5148
 5685TIP3    H138690   5.299   6.680   0.816  0.5227  1.5018  1.6726
 5685TIP3    H238691   5.210   6.661   0.695  2.5665 -0.4125  0.4073
 5686TIP3   OH238692   0.965   2.411   7.068 -0.0109  0.1429 -0.0680
 5686TIP3    H138693   1.028   2.483   7.067 -0.0145  0.1442 -0.5429
 5686TIP3    H238694   0.945   2.395   6.975  0.7665 -1.1415 -0.0496
 5687TIP3   OH238695   1.939   1.388   2.289  0.1310 -0.0773 -0.6625
 5687TIP3    H138696   1.862   1.411   2.342 -1.1179 -2.1514 -1.4576
 5687TIP3    H238697   1.931   1.294   2.275  2.4254 -0.2127 -1.4546
 5688TIP3   OH238698   5.333   6.549   8.302 -0.0068 -0.5469  0.3188
 5688TIP3    H138699   5.413   6.573   8.255  0.0496 -0.8616  0.2511
 5688TIP3    H238700   5.326   6.613   8.372  0.4102 -0.6376  0.4440
 5689TIP3   OH238701   5.712   5.821   1.382 -0.2258 -0.0714 -0.3355
 5689TIP3    H138702   5.723   5.902   1.431 -0.2217 -1.0790  1.3919
 5689TIP3    H238703   5.793   5.773   1.395 -0.3370 -0.4886 -1.1026
 5690TIP3   OH238704   1.613   6.420   1.625 -0.2759 -1.0334  0.4978
 5690TIP3    H138705   1.582   6.487   1.685  2.6690  0.3717  0.6577
 5690TIP3    H238706   1.707   6.414   1.643  0.3784 -1.9704 -2.6358
 5691TIP3   OH238707   2.003   4.857   0.010  0.1252  0.1731  0.4612
 5691TIP3    H138708   1.955   4.893   0.084 -0.7394  0.1684 -0.0814
 5691TIP3    H238709   2.011   4.930  -0.052  1.2211  0.2981  0.7235
 5692TIP3   OH238710   2.792   4.494   0.032  0.2377  0.1179  0.0912
 5692TIP3    H138711   2.778   4.468   0.123  0.2052 -1.2380 -0.2899
 5692TIP3    H238712   2.722   4.451  -0.017  1.9363 -1.6250 -0.9611
 5693TIP3   OH238713   1.917   0.680   9.026  0.3761 -0.4608 -0.6969
 5693TIP3    H138714   1.844   0.621   9.008 -1.5078  0.7438  2.2261
 5693TIP3    H238715   1.949   0.653   9.112  1.3757  0.9473 -0.5948
 5694TIP3   OH238716   2.803   1.032   8.514 -0.1827  0.3951 -0.3948
 5694TIP3    H138717   2.730   1.078   8.554 -1.0412 -1.5207  0.3413
 5694TIP3    H238718   2.763   0.962   8.462  1.0249  1.1613 -2.4813
 5695TIP3   OH238719   1.697   0.506   2.221 -0.4280  0.1394 -0.7210
 5695TIP3    H138720   1.669   0.415   2.211  0.8352 -0.2646 -0.7916
 5695TIP3    H238721   1.697   0.521   2.316 -1.8082  0.4683 -0.7572
 5696TIP3   OH238722   6.302   2.269   7.445 -0.2581 -0.0340 -0.2252
 5696TIP3    H138723   6.319   2.252   7.537  0.1703 -0.8003 -0.4357
 5696TIP3    H238724   6.386   2.253   7.402 -0.0823  1.6487 -0.5920
 5697TIP3   OH238725   3.809   1.638   2.196 -0.0183 -0.1966  0.4547
 5697TIP3    H138726   3.804   1.711   2.257  1.4445  1.6326 -1.4822
 5697TIP3    H238727   3.750   1.661   2.125 -0.0275 -1.2337  0.0998
 5698TIP3   OH238728   0.707   3.326   2.185  0.6002 -0.2222 -0.0741
 5698TIP3    H138729   0.768   3.359   2.250  0.3484 -1.1636  0.6603
 5698TIP3    H238730   0.638   3.283   2.236 -0.8929  1.1109 -0.8478
 5699TIP3   OH238731   5.975   2.838   6.756  0.3840  0.4521 -0.1336
 5699TIP3    H138732   5.923   2.856   6.834 -0.0443 -0.1132 -0.2852
 5699TIP3    H238733   5.921   2.870   6.683  0.2036 -0.2252 -0.2980
 5700TIP3   OH238734   6.741   3.409   7.220  0.6274 -0.3706  0.4379
 5700TIP3    H138735   6.747   3.341   7.152 -1.4046 -0.3053  0.1494
 5700TIP3    H238736   6.746   3.491   7.172 -0.2661 -0.3251  0.4134
 5701TIP3   OH238737   3.510   5.048   7.239  0.0991 -0.1167 -0.0048
 5701TIP3    H138738   3.563   5.122   7.266  0.3312 -0.6935  1.2230
 5701TIP3    H238739   3.533   5.033   7.148  0.6589  0.7986 -0.0260
 5702TIP3   OH238740   2.718   2.709   2.249  0.8145  0.3583 -0.6986
 5702TIP3    H138741   2.667   2.770   2.302  0.8016  0.4902 -0.8639
 5702TIP3    H238742   2.696   2.623   2.285  0.8000  0.4454 -0.4938
 5703TIP3   OH238743   1.515   3.147   7.722  0.3281 -0.3785  0.2090
 5703TIP3    H138744   1.554   3.071   7.764 -2.1743 -1.4372  0.8348
 5703TIP3    H238745   1.522   3.129   7.628 -0.9522 -1.8693  0.3461
 5704TIP3   OH238746   2.176   4.086   0.565 -0.8299 -0.3455 -0.8731
 5704TIP3    H138747   2.236   4.131   0.506  0.2094 -0.4493  0.0771
 5704TIP3    H238748   2.107   4.150   0.583 -1.1002 -0.2679 -2.0684
 5705TIP3   OH238749   0.786   0.509   7.748  0.0125  0.2701  0.2192
 5705TIP3    H138750   0.805   0.580   7.809  0.4160  0.7252 -0.4234
 5705TIP3    H238751   0.730   0.449   7.798  2.0200 -0.4669  1.7957
 5706TIP3   OH238752   0.892   2.976   0.368 -0.2614  0.2723 -0.8613
 5706TIP3    H138753   0.839   2.900   0.342 -0.3008 -0.1245  0.3120
 5706TIP3    H238754   0.864   3.046   0.310  0.7280 -0.9296 -2.9051
 5707TIP3   OH238755   4.746   0.196   1.417 -0.2786 -0.2999  0.3072
 5707TIP3    H138756   4.708   0.226   1.499 -0.4535  0.7719 -0.1560
 5707TIP3    H238757   4.683   0.131   1.384 -1.0672  0.5039  0.1886
 5708TIP3   OH238758   2.080   1.327   0.380  0.1658 -0.1459  0.0057
 5708TIP3    H138759   2.157   1.380   0.399 -0.3018  0.1114  1.2832
 5708TIP3    H238760   2.114   1.251   0.333  1.0185  0.5960 -0.5967
 5709TIP3   OH238761   1.629   4.051   7.887  0.3725 -0.4645  0.1714
 5709TIP3    H138762   1.678   4.133   7.893  0.7614 -0.6585 -0.2816
 5709TIP3    H238763   1.607   4.044   7.794  0.6514 -1.0565  0.1503
 5710TIP3   OH238764   1.106   0.325   8.099  0.4237  0.5359  0.1950
 5710TIP3    H138765   1.023   0.342   8.056  0.5025 -1.1540 -0.7094
 5710TIP3    H238766   1.150   0.410   8.102 -0.5959  1.1208 -0.9026
 5711TIP3   OH238767   5.433   0.660   0.856 -0.2024 -0.0822  0.0830
 5711TIP3    H138768   5.462   0.580   0.900  1.0623  0.4683  0.3177
 5711TIP3    H238769   5.389   0.630   0.777 -0.2068 -1.0155  0.4217
 5712TIP3   OH238770   3.201   5.236   0.729 -0.3910  0.0075 -0.0857
 5712TIP3    H138771   3.235   5.324   0.714 -0.1124  0.3274  2.1007
 5712TIP3    H238772   3.279   5.181   0.740 -0.4173  0.4225  3.1916
 5713TIP3   OH238773   6.132   3.337   8.558  0.1994 -0.1048  0.1232
 5713TIP3    H138774   6.215   3.290   8.561  0.7986  0.8755 -0.7235
 5713TIP3    H238775   6.066   3.268   8.555  1.0579 -0.9210 -1.1311
 5714TIP3   OH238776   3.945   1.111   0.948  0.5545 -0.6325 -0.1828
 5714TIP3    H138777   3.860   1.155   0.944 -0.1081 -1.6852  1.3741
 5714TIP3    H238778   3.982   1.123   0.861 -0.5739  1.0325 -0.4894
 5715TIP3   OH238779   3.417   0.737   7.881  0.0392 -0.1042  0.2966
 5715TIP3    H138780   3.360   0.721   7.957 -1.2344 -0.5550 -0.7215
 5715TIP3    H238781   3.428   0.832   7.879 -2.1625  0.1968 -0.4803
 5716TIP3   OH238782   1.412   3.320   0.312  0.0903  0.2409 -0.7551
 5716TIP3    H138783   1.466   3.385   0.267  1.6521 -0.3533  0.1656
 5716TIP3    H238784   1.428   3.336   0.405  0.5832 -1.4817 -0.5051
 5717TIP3   OH238785   1.513   3.616   7.898 -0.4359  0.7032  0.2441
 5717TIP3    H138786   1.572   3.580   7.965  0.2677  0.3749 -0.5359
 5717TIP3    H238787   1.492   3.541   7.842 -0.4645  1.1152 -0.3055
 5718TIP3   OH238788   1.955   1.994   7.612 -0.1361 -0.3094  0.0565
 5718TIP3    H138789   2.032   1.940   7.594 -0.5173 -0.5938 -0.7716
 5718TIP3    H238790   1.986   2.084   7.599 -0.4011 -0.4940 -2.2154
 5719TIP3   OH238791   4.332   3.083   1.333 -0.2797  0.0356  0.1358
 5719TIP3    H138792   4.274   3.010   1.312 -1.2585  0.3117  1.7305
 5719TIP3    H238793   4.308   3.152   1.270 -0.8981 -0.2436  0.0578
 5720TIP3   OH238794   5.954   3.686   8.808  0.3193  0.1391  0.9299
 5720TIP3    H138795   5.884   3.621   8.808 -0.7209  1.2067 -0.6311
 5720TIP3    H238796   6.027   3.643   8.764 -1.4280  0.9719 -3.2244
 5721TIP3   OH238797   3.454   1.130   0.764  0.2411 -0.2249  0.0716
 5721TIP3    H138798   3.376   1.106   0.713  0.1827  2.7694 -1.4988
 5721TIP3    H238799   3.423   1.196   0.826  0.8436 -1.9235  2.2851
 5722TIP3   OH238800   4.270   4.641   8.932  0.3733 -0.2675 -0.4464
 5722TIP3    H138801   4.213   4.565   8.946  1.1749 -0.7478  0.3218
 5722TIP3    H238802   4.351   4.604   8.898  1.2695  0.0606  1.2062
 5723TIP3   OH238803   4.077   6.379   8.946  0.1923 -0.1455  0.1892
 5723TIP3    H138804   4.133   6.314   8.989  0.8287  1.5394  2.0519
 5723TIP3    H238805   4.096   6.461   8.992  1.1538  1.9307 -3.5560
 5724TIP3   OH238806   5.988   2.132   8.611  0.3410 -0.0660  0.7206
 5724TIP3    H138807   5.924   2.200   8.589  0.4004 -0.6795 -1.6283
 5724TIP3    H238808   6.068   2.181   8.631 -0.1368  0.6065  1.0379
 5725TIP3   OH238809   4.199   5.271   0.350 -0.2059 -0.2731  0.0471
 5725TIP3    H138810   4.272   5.237   0.298  0.9191  0.8719  0.7974
 5725TIP3    H238811   4.137   5.305   0.285  0.5793 -0.0033 -0.5755
 5726TIP3   OH238812   2.704   0.301   7.968 -0.1001 -0.4362 -0.2262
 5726TIP3    H138813   2.721   0.365   7.898  1.1978  0.4220  0.8132
 5726TIP3    H238814   2.774   0.236   7.958  0.3422 -0.0887  0.4822
 5727TIP3   OH238815   5.162   6.635   7.305 -0.3881  0.5115 -0.0092
 5727TIP3    H138816   5.127   6.678   7.384 -0.9670  2.6505 -1.3616
 5727TIP3    H238817   5.256   6.627   7.322 -0.6944 -0.3595  1.4543
 5728TIP3   OH238818   5.193   5.035   8.379  0.2246 -0.1523 -0.2603
 5728TIP3    H138819   5.181   5.030   8.474  1.3566  0.0280 -0.1039
 5728TIP3    H238820   5.181   5.128   8.358  1.1194 -0.0035 -0.1308
 5729TIP3   OH238821   6.666   4.443   8.022 -0.4751  0.2197 -0.5017
 5729TIP3    H138822   6.595   4.398   7.977 -1.1599  0.2000  0.5687
 5729TIP3    H238823   6.624   4.491   8.093  0.5224  0.6251 -0.1614
 5730TIP3   OH238824   3.071   1.032   8.357  0.2241 -0.5634 -0.3308
 5730TIP3    H138825   3.010   1.056   8.288  0.6557  0.3669 -0.4078
 5730TIP3    H238826   3.017   1.021   8.435  0.0480  1.0557 -0.2107
 5731TIP3   OH238827   6.569   5.086   1.310 -0.2960  0.6912  0.5372
 5731TIP3    H138828   6.545   5.032   1.235 -0.9749 -0.1102  1.3047
 5731TIP3    H238829   6.499   5.071   1.374 -0.3895  2.3137  0.8684
 5732TIP3   OH238830   2.082   6.751   1.705 -0.4679 -0.8593  0.2945
 5732TIP3    H138831   2.093   6.701   1.786 -0.3247 -1.4857 -0.1047
 5732TIP3    H238832   2.038   6.691   1.645 -0.0175 -0.6201 -0.2920
 5733TIP3   OH238833   3.035   2.685   7.890 -0.2810  0.2767 -0.0283
 5733TIP3    H138834   2.966   2.626   7.859 -0.3741  0.3976 -0.0528
 5733TIP3    H238835   3.091   2.698   7.813 -0.9238  1.1644 -0.3628
 5734TIP3   OH238836   3.268   4.635   9.042  0.0302  0.4297  0.7867
 5734TIP3    H138837   3.248   4.725   9.015  2.3296  0.5707 -0.7453
 5734TIP3    H238838   3.352   4.642   9.088  0.5379 -0.9863  0.1162
 5735TIP3   OH238839   6.270   2.146   7.728 -0.7783 -0.6351 -0.3895
 5735TIP3    H138840   6.296   2.060   7.696  0.0846  0.3714 -2.5677
 5735TIP3    H238841   6.179   2.134   7.757 -0.7653 -2.2113 -0.9106
 5736TIP3   OH238842   5.588   3.497   0.742  0.3583  0.0098 -0.0348
 5736TIP3    H138843   5.560   3.472   0.830 -0.7606  2.7581  0.5022
 5736TIP3    H238844   5.510   3.485   0.688  0.3824  0.4136 -0.1648
 5737TIP3   OH238845   2.124   2.124   2.529  0.2012 -0.3769  0.0057
 5737TIP3    H138846   2.128   2.219   2.528  2.9085 -0.4060  0.5302
 5737TIP3    H238847   2.215   2.096   2.540 -0.4130 -3.0479 -0.8810
 5738TIP3   OH238848   3.154   5.020   7.755  0.2714 -0.0395  0.9946
 5738TIP3    H138849   3.220   4.955   7.730 -0.1739 -1.0415  2.3098
 5738TIP3    H238850   3.189   5.103   7.723  0.8327 -0.9077 -0.7818
 5739TIP3   OH238851   2.510   6.090   7.845 -0.5436 -0.7646  0.4281
 5739TIP3    H138852   2.600   6.070   7.820 -0.6099 -0.2257 -0.2722
 5739TIP3    H238853   2.482   6.014   7.896  0.4161 -0.7780  0.9579
 5740TIP3   OH238854   5.670   3.297   7.957 -0.4968  0.2739 -0.3218
 5740TIP3    H138855   5.689   3.338   7.873 -2.1423  2.1085  0.1352
 5740TIP3    H238856   5.717   3.350   8.021  0.4242 -0.8707 -0.0170
 5741TIP3   OH238857   5.936   5.537   8.222 -0.2083 -0.4394 -0.2409
 5741TIP3    H138858   5.975   5.593   8.155  1.0794 -2.0180 -0.8880
 5741TIP3    H238859   5.843   5.536   8.201 -0.2077  1.1829 -0.3931
 5742TIP3   OH238860   6.770   0.692   2.099 -0.4478  0.7233 -0.1676
 5742TIP3    H138861   6.752   0.777   2.059  0.8610  1.8376  1.4855
 5742TIP3    H238862   6.846   0.707   2.155 -2.0395 -0.7620  2.6094
 5743TIP3   OH238863   6.464   4.294   8.655 -0.2884 -0.5750  0.9738
 5743TIP3    H138864   6.483   4.200   8.659  1.1379 -0.3773 -0.4454
 5743TIP3    H238865   6.536   4.335   8.702  0.5741 -0.0639 -0.7244
 5744TIP3   OH238866   0.885   2.754   1.604 -0.2806 -0.0104 -0.3600
 5744TIP3    H138867   0.964   2.699   1.601  0.1532  0.6528 -1.6174
 5744TIP3    H238868   0.834   2.718   1.677  1.9224  0.5913  1.6095
 5745TIP3   OH238869   2.877   3.479   7.690 -0.1173 -0.1348  0.1912
 5745TIP3    H138870   2.825   3.463   7.768  0.6970  0.8892  0.9703
 5745TIP3    H238871   2.896   3.392   7.655 -1.1460 -0.5730  0.6818
 5746TIP3   OH238872   3.216   4.924   1.155  0.6132 -0.4516  1.0464
 5746TIP3    H138873   3.132   4.892   1.187  1.1279 -1.0561  1.8427
 5746TIP3    H238874   3.260   4.957   1.233  1.3274 -0.6377  0.7301
 5747TIP3   OH238875   0.125   1.415   8.869  0.0846 -0.3894  0.0179
 5747TIP3    H138876   0.139   1.507   8.893 -1.6494 -0.3130  0.9070
 5747TIP3    H238877   0.039   1.394   8.905 -0.6038 -1.6823 -2.2009
 5748TIP3   OH238878   6.048   2.055   1.545  0.2182 -0.3998 -0.3679
 5748TIP3    H138879   6.107   2.021   1.613  2.7665  1.8076 -1.2762
 5748TIP3    H238880   6.038   1.984   1.483  0.9352 -1.2375  0.4497
 5749TIP3   OH238881   6.187   2.554   2.427 -0.2485 -0.1258 -0.3760
 5749TIP3    H138882   6.149   2.607   2.496 -0.4033 -0.4567 -0.2071
 5749TIP3    H238883   6.132   2.476   2.423 -0.1925 -0.1470 -0.8163
 5750TIP3   OH238884   3.294   5.797   8.360 -0.5038  0.0413 -0.6529
 5750TIP3    H138885   3.262   5.755   8.440 -0.4175 -0.5545 -0.9231
 5750TIP3    H238886   3.250   5.882   8.358  0.4998  0.6180  0.7056
 5751TIP3   OH238887   1.902   5.268   2.526  0.1866  0.6334  0.5786
 5751TIP3    H138888   1.817   5.278   2.484  0.3811  0.4884  0.1468
 5751TIP3    H238889   1.965   5.267   2.454  0.3750 -1.5211  0.6956
 5752TIP3   OH238890   5.085   4.978   7.732  0.1075 -0.2485 -0.1367
 5752TIP3    H138891   5.162   4.930   7.702 -0.2141  0.1182 -1.6304
 5752TIP3    H238892   5.025   4.975   7.658 -1.2405 -0.3426  0.9237
 5753TIP3   OH238893   5.356   5.803   0.154 -0.6879 -0.4893 -0.6116
 5753TIP3    H138894   5.383   5.868   0.090  0.8831 -1.2540 -0.7712
 5753TIP3    H238895   5.409   5.726   0.135 -4.5700 -3.0234 -2.4067
 5754TIP3   OH238896   3.309   4.338   8.877  0.3110 -0.2483  0.1580
 5754TIP3    H138897   3.317   4.409   8.812  1.3363  0.1341  0.6821
 5754TIP3    H238898   3.224   4.353   8.918  0.7595  1.0364  0.6586
 5755TIP3   OH238899   0.780   3.679   1.049  0.1866  0.0530 -0.1991
 5755TIP3    H138900   0.737   3.709   0.969 -0.2983  0.4849  0.2162
 5755TIP3    H238901   0.859   3.634   1.019  0.2003  0.5388 -0.9022
 5756TIP3   OH238902   3.335   1.931   1.085  0.4277 -0.7712  0.4890
 5756TIP3    H138903   3.409   1.982   1.119  0.0639 -0.9175  1.5485
 5756TIP3    H238904   3.262   1.993   1.081  0.1232 -1.0675  1.2675
 5757TIP3   OH238905   0.856   2.126   6.926 -0.2690  0.2149 -0.7078
 5757TIP3    H138906   0.834   2.036   6.902  1.5439 -1.0239  1.8553
 5757TIP3    H238907   0.928   2.149   6.867 -0.1899 -0.3394 -0.8352
 5758TIP3   OH238908   5.561   0.544   2.475  0.6793  0.2566 -0.7165
 5758TIP3    H138909   5.519   0.607   2.534  0.6723 -1.0239  0.7216
 5758TIP3    H238910   5.489   0.496   2.436  0.7109 -0.3723 -0.0368
 5759TIP3   OH238911   0.804   5.069   1.400  0.3778 -0.1221 -0.2078
 5759TIP3    H138912   0.787   5.102   1.311  0.2071 -2.5851 -1.1476
 5759TIP3    H238913   0.862   5.135   1.438 -0.7272  1.7606 -1.5863
 5760TIP3   OH238914   5.703   4.669   7.561  0.0034  0.1434 -0.4116
 5760TIP3    H138915   5.781   4.625   7.527  0.3690  0.5033 -0.0481
 5760TIP3    H238916   5.726   4.691   7.651 -0.7477 -0.3005 -0.1042
 5761TIP3   OH238917   5.680   1.518   1.355 -0.5233  0.0344  0.2256
 5761TIP3    H138918   5.698   1.530   1.448 -0.5040 -1.5578  0.4531
 5761TIP3    H238919   5.588   1.493   1.352 -0.4045 -0.3744 -0.1272
 5762TIP3   OH238920   1.601   5.666   1.676 -0.2085 -0.1707 -0.1317
 5762TIP3    H138921   1.547   5.672   1.597 -0.2272  2.7039  0.0234
 5762TIP3    H238922   1.541   5.685   1.748  0.1504 -1.2081  0.4699
 5763TIP3   OH238923   4.267   2.529   1.456  0.0824 -0.1308  0.7135
 5763TIP3    H138924   4.336   2.545   1.392  0.9909  1.3773  1.9787
 5763TIP3    H238925   4.194   2.584   1.428  0.1009 -0.2596  0.4162
 5764TIP3   OH238926   5.890   2.554   8.076 -0.5722  0.4386 -0.0933
 5764TIP3    H138927   5.912   2.464   8.050  1.7404  1.3486 -1.5673
 5764TIP3    H238928   5.914   2.558   8.169 -1.4127 -0.6364  0.1987
 5765TIP3   OH238929   5.171   3.064   0.594 -0.6612  0.0007  0.2062
 5765TIP3    H138930   5.131   3.000   0.536 -2.0255  0.6055  0.4428
 5765TIP3    H238931   5.120   3.059   0.675 -0.0317  0.5500  0.6514
 5766TIP3   OH238932   4.156   6.579   1.816 -0.6036  0.1639 -0.4744
 5766TIP3    H138933   4.128   6.532   1.737 -0.1265  0.8380 -1.0639
 5766TIP3    H238934   4.097   6.655   1.821  0.2725  0.9097 -1.0212
 5767TIP3   OH238935   5.381   5.709   7.911  0.0990  0.1125  0.4866
 5767TIP3    H138936   5.442   5.701   7.838 -0.5652 -0.0234 -0.0629
 5767TIP3    H238937   5.437   5.706   7.989  1.0198  2.0112 -0.0259
 5768TIP3   OH238938   0.644   3.361   0.013 -0.1371 -0.5030  0.3904
 5768TIP3    H138939   0.584   3.347  -0.060  0.0860 -0.5077  0.2081
 5768TIP3    H238940   0.587   3.388   0.086 -0.5753 -2.3285  0.7653
 5769TIP3   OH238941   1.696   0.543   8.010  0.4185 -0.4894 -0.2198
 5769TIP3    H138942   1.654   0.620   8.048  1.5476 -0.1627  0.4111
 5769TIP3    H238943   1.675   0.547   7.917 -0.6725 -0.1736  0.0306
 5770TIP3   OH238944   6.612   2.325   0.296 -1.1000  0.0475 -0.5589
 5770TIP3    H138945   6.528   2.290   0.327 -0.4242 -0.6737  0.5186
 5770TIP3    H238946   6.603   2.419   0.305 -1.6623 -0.0431 -0.0849
 5771TIP3   OH238947   5.232   1.886   7.841 -0.1725  0.0546  0.1166
 5771TIP3    H138948   5.156   1.828   7.832  1.6118 -2.4065 -0.3899
 5771TIP3    H238949   5.294   1.854   7.775  1.9226  0.8519  1.5889
 5772TIP3   OH238950   3.957   2.898   7.851 -0.2715 -0.2537  0.0800
 5772TIP3    H138951   3.920   2.977   7.811  0.4890 -0.1440 -0.4241
 5772TIP3    H238952   4.049   2.899   7.826 -0.0131 -0.7510  0.9581
 5773TIP3   OH238953   6.260   1.655   8.958  0.2468 -0.0899  0.3874
 5773TIP3    H138954   6.238   1.575   8.909 -0.7863  1.1174 -1.2201
 5773TIP3    H238955   6.202   1.652   9.034 -0.5825 -0.3424 -0.2362
 5774TIP3   OH238956   1.590   2.630   1.703 -0.3865 -0.0462  0.7101
 5774TIP3    H138957   1.555   2.699   1.759  1.1548 -0.7090  2.5499
 5774TIP3    H238958   1.674   2.607   1.741  1.3013  0.2270 -2.5285
 5775TIP3   OH238959   1.905   1.432   0.983  0.7435 -0.6827  0.5472
 5775TIP3    H138960   1.976   1.374   0.956  0.9933 -0.1196 -0.0214
 5775TIP3    H238961   1.947   1.498   1.038  0.3313 -1.4836  1.8610
 5776TIP3   OH238962   6.151   6.686   7.211 -0.0625 -0.9069  0.6436
 5776TIP3    H138963   6.184   6.614   7.158  0.5133 -1.3654  1.5991
 5776TIP3    H238964   6.103   6.742   7.149  4.3673  1.1121 -1.4246
 5777TIP3   OH238965   0.237   3.493   8.349 -0.7828 -0.0087  0.4805
 5777TIP3    H138966   0.261   3.404   8.375  2.1111  0.1157 -1.3360
 5777TIP3    H238967   0.184   3.526   8.422 -0.2320 -2.4919  2.1327
 5778TIP3   OH238968   3.013   4.345   8.038  0.1732 -0.4181  0.0030
 5778TIP3    H138969   2.959   4.268   8.021 -0.7577 -0.2060  1.7897
 5778TIP3    H238970   2.952   4.409   8.074  1.2674  0.5360  0.1903
 5779TIP3   OH238971   1.400   5.258   7.736 -0.0152 -0.1006  0.3572
 5779TIP3    H138972   1.380   5.164   7.734 -0.4853 -0.1278  3.2620
 5779TIP3    H238973   1.405   5.280   7.828  0.3451  2.7282 -0.2521
 5780TIP3   OH238974   4.742   0.669   0.652 -0.9159 -0.0480  0.4001
 5780TIP3    H138975   4.762   0.606   0.582 -2.5006 -0.9691  0.7062
 5780TIP3    H238976   4.824   0.678   0.700  0.0260  0.0820 -1.1617
 5781TIP3   OH238977   5.695   3.257   1.841  0.1919 -0.1810 -0.2192
 5781TIP3    H138978   5.634   3.195   1.881 -1.4140  0.7424 -1.1329
 5781TIP3    H238979   5.645   3.338   1.832  2.1654  1.2487  0.7728
 5782TIP3   OH238980   2.029   0.706   0.604  0.2092 -0.3414 -0.5842
 5782TIP3    H138981   2.062   0.661   0.526  0.3624  0.2035 -0.8383
 5782TIP3    H238982   2.049   0.798   0.589 -1.1252 -0.0370 -0.5928
 5783TIP3   OH238983   2.193   1.197   1.677 -0.0301  0.4556 -0.0038
 5783TIP3    H138984   2.272   1.222   1.725 -0.4218  1.3697  0.1956
 5783TIP3    H238985   2.138   1.154   1.742  0.5748 -0.8019 -0.3052
 5784TIP3   OH238986   1.122   5.747   6.894 -0.6077  0.0961  0.3291
 5784TIP3    H138987   1.074   5.666   6.914 -2.9136  0.9148 -1.4946
 5784TIP3    H238988   1.082   5.813   6.950  1.9975 -0.0723  2.6282
 5785TIP3   OH238989   1.752   4.446   1.399 -0.1528 -0.2399 -0.4507
 5785TIP3    H138990   1.695   4.513   1.360 -0.3096 -1.4532 -2.4637
 5785TIP3    H238991   1.824   4.495   1.437 -2.9614  1.4925  3.3156
 5786TIP3   OH238992   1.951   6.462   1.649 -0.2851  0.0535  0.3761
 5786TIP3    H138993   2.005   6.384   1.641 -0.8969 -0.2251 -1.7479
 5786TIP3    H238994   1.960   6.489   1.740  2.2329 -0.8216  0.4636
 5787TIP3   OH238995   4.620   0.516   8.346 -0.0795  0.2136 -0.0885
 5787TIP3    H138996   4.695   0.490   8.292 -0.1468 -0.1938  0.0122
 5787TIP3    H238997   4.569   0.574   8.290 -0.7052 -1.0378 -0.8516
 5788TIP3   OH238998   3.798   5.418   0.400 -0.8494  0.3461  0.2476
 5788TIP3    H138999   3.856   5.364   0.346 -1.0784  0.7028 -0.3687
 5788TIP3    H239000   3.784   5.367   0.480  2.9507  1.6026  1.9436
 5789TIP3   OH239001   2.309   4.030   7.776  0.0116  0.3657  0.4740
 5789TIP3    H139002   2.330   4.088   7.850 -1.5029 -0.0231  1.2558
 5789TIP3    H239003   2.326   3.942   7.809 -2.7581  0.0029  1.2447
 5790TIP3   OH239004   1.544   6.715   2.474  0.1669 -0.0460 -0.0674
 5790TIP3    H139005   1.480   6.657   2.515 -1.5496  1.4285 -0.5453
 5790TIP3    H239006   1.519   6.803   2.503  0.9359  0.7267 -1.6198
 5791TIP3   OH239007   2.151   0.078   7.020 -0.0988 -0.1352 -0.3164
 5791TIP3    H139008   2.059   0.100   7.033 -0.1048 -1.2196  1.8612
 5791TIP3    H239009   2.156  -0.017   7.031  1.3214 -0.0541  0.0154
 5792TIP3   OH239010   0.331   4.645   8.680 -0.0886 -0.3277 -0.3848
 5792TIP3    H139011   0.419   4.614   8.703  0.0098  1.3125  1.7595
 5792TIP3    H239012   0.338   4.668   8.587  1.9716  0.4173 -0.1089
 5793TIP3   OH239013   0.052   2.609   7.107 -0.6405 -0.5087 -0.1717
 5793TIP3    H139014   0.087   2.598   7.018  1.5881 -2.6655  0.8447
 5793TIP3    H239015   0.068   2.701   7.128  2.5802 -0.8726 -0.5993
 5794TIP3   OH239016   5.832   0.232   1.439  0.2515  0.6215 -0.0376
 5794TIP3    H139017   5.815   0.239   1.345  0.1183 -0.3847 -0.0966
 5794TIP3    H239018   5.840   0.323   1.469  1.3919  0.9278 -1.2171
 5795TIP3   OH239019   4.308   0.592   7.805 -0.1400  0.1922 -0.7732
 5795TIP3    H139020   4.351   0.553   7.881  0.0132  0.8053 -0.5426
 5795TIP3    H239021   4.309   0.523   7.739  3.0404  0.7967 -1.4851
 5796TIP3   OH239022   5.960   2.539   8.357  0.9223  0.0210  0.4328
 5796TIP3    H139023   5.898   2.466   8.361  0.3661  0.5218  1.3658
 5796TIP3    H239024   5.932   2.598   8.427  1.5204  1.0052 -0.1286
 5797TIP3   OH239025   5.148   5.139   1.808  0.4610 -0.3705  0.0324
 5797TIP3    H139026   5.151   5.148   1.904 -1.6828 -0.4655  0.1616
 5797TIP3    H239027   5.229   5.180   1.778 -0.3806  2.9253  1.7180
 5798TIP3   OH239028   0.566   4.988   8.401 -0.5190  0.0315 -0.1293
 5798TIP3    H139029   0.594   4.986   8.310 -0.9623  0.3460 -0.2810
 5798TIP3    H239030   0.630   4.935   8.448  0.0037  0.2823 -0.5446
 5799TIP3   OH239031   0.190   3.511   8.810  0.6098  0.1845 -0.2475
 5799TIP3    H139032   0.250   3.566   8.761  0.5754  2.3242  1.9201
 5799TIP3    H239033   0.106   3.557   8.806 -0.3011 -1.4555 -1.1153
 5800TIP3   OH239034   1.314   4.953   8.276 -0.5482 -0.1700 -0.0599
 5800TIP3    H139035   1.334   5.001   8.356 -1.0102 -0.2646  0.1205
 5800TIP3    H239036   1.392   4.900   8.259  0.1993  1.0637 -0.5930
 5801TIP3   OH239037   2.499   2.080   7.599  0.3560 -0.0222 -0.3816
 5801TIP3    H139038   2.410   2.053   7.577  1.0327 -1.0436 -2.0373
 5801TIP3    H239039   2.507   2.060   7.693 -0.6005 -1.5648 -0.5842
 5802TIP3   OH239040   0.871   0.349   2.125 -1.0615  0.1992 -0.1374
 5802TIP3    H139041   0.944   0.412   2.126 -0.3411 -0.5323 -1.7625
 5802TIP3    H239042   0.857   0.330   2.032 -2.6932 -0.4282  0.1986
 5803TIP3   OH239043   1.494   0.270   7.841  0.1404 -0.2587 -0.2603
 5803TIP3    H139044   1.402   0.246   7.857 -0.7156  2.1440 -1.2100
 5803TIP3    H239045   1.490   0.355   7.799  2.8693  0.0923  0.0125
 5804TIP3   OH239046   5.091   1.061   7.035  0.1227  0.0695 -0.0448
 5804TIP3    H139047   5.130   1.145   7.015 -0.7484  0.4001 -0.3805
 5804TIP3    H239048   5.087   1.058   7.131 -0.0874  0.5258 -0.0393
 5805TIP3   OH239049   5.012   4.194   7.282  0.0418 -0.2239  0.1608
 5805TIP3    H139050   4.925   4.170   7.250  0.8017 -0.5174 -1.8267
 5805TIP3    H239051   5.073   4.152   7.221  1.5947  0.0303  1.4585
 5806TIP3   OH239052   2.257   2.143   8.732 -0.3879  0.1546 -0.7561
 5806TIP3    H139053   2.226   2.080   8.666 -1.7190  1.1482 -1.1398
 5806TIP3    H239054   2.233   2.229   8.696  0.7576  0.8562  0.0699
 5807TIP3   OH239055   3.140   4.075   7.288 -0.0609  0.1970 -0.3447
 5807TIP3    H139056   3.104   4.108   7.205  0.0726  0.0395 -0.4652
 5807TIP3    H239057   3.085   4.115   7.355  0.5323  1.2181 -0.4529
 5808TIP3   OH239058   3.990   4.647   8.458 -0.1917  0.6161  0.0035
 5808TIP3    H139059   4.026   4.680   8.541 -0.1532  2.0636 -0.5655
 5808TIP3    H239060   3.922   4.585   8.485  1.1521 -0.4467  1.1007
 5809TIP3   OH239061   1.452   1.727   8.054  0.1643 -0.1493  0.2981
 5809TIP3    H139062   1.396   1.730   7.976  2.3832 -0.5349 -1.4275
 5809TIP3    H239063   1.471   1.634   8.066  0.4508 -0.0270  0.8380
 5810TIP3   OH239064   0.349   4.280   0.742 -0.1089 -0.7234 -0.2514
 5810TIP3    H139065   0.343   4.344   0.671  2.6413 -0.7852 -0.6588
 5810TIP3    H239066   0.260   4.246   0.751 -1.0946  1.1990 -1.8387
 5811TIP3   OH239067   1.155   0.612   8.061 -0.5579  0.1266 -0.1426
 5811TIP3    H139068   1.201   0.683   8.107 -0.8262  1.5111 -1.8805
 5811TIP3    H239069   1.065   0.616   8.095 -0.5912  0.6908 -0.2867
 5812TIP3   OH239070   6.689   1.549   0.553  0.3065  0.3885  0.3819
 5812TIP3    H139071   6.780   1.549   0.521  0.4869  0.7342  0.8767
 5812TIP3    H239072   6.636   1.531   0.476  0.9015 -1.7209  0.4089
 5813TIP3   OH239073   4.518   0.040   7.791 -0.2354  0.3930 -0.6381
 5813TIP3    H139074   4.514   0.012   7.882 -1.9772 -2.5146 -1.4819
 5813TIP3    H239075   4.612   0.055   7.775  0.3409 -1.0782  1.0549
 5814TIP3   OH239076   5.653   3.162   7.453 -0.3630  0.0544 -0.2321
 5814TIP3    H139077   5.711   3.098   7.496  0.4630  0.9357 -0.0009
 5814TIP3    H239078   5.573   3.113   7.435 -0.1879 -0.7402  0.9979
 5815TIP3   OH239079   5.697   0.525   0.239  0.1349 -0.0974 -0.0225
 5815TIP3    H139080   5.663   0.526   0.328  0.2504 -0.1778  0.0223
 5815TIP3    H239081   5.722   0.615   0.221  0.4586 -0.1509  0.1578
 5816TIP3   OH239082   2.117   5.086   8.312 -0.2806 -0.3817 -0.4649
 5816TIP3    H139083   2.073   5.006   8.341 -0.8676 -0.0645 -0.4645
 5816TIP3    H239084   2.184   5.102   8.378 -1.0712 -0.1086  0.2963
 5817TIP3   OH239085   3.838   6.127   8.142  0.3498  0.9821 -0.4429
 5817TIP3    H139086   3.862   6.084   8.225 -1.6817  1.4981  0.4833
 5817TIP3    H239087   3.843   6.057   8.077  0.3885  0.1415  0.4240
 5818TIP3   OH239088   1.226   3.484   1.993 -0.6543 -0.1344 -0.1655
 5818TIP3    H139089   1.298   3.525   2.041 -0.3963  0.6159 -1.1498
 5818TIP3    H239090   1.207   3.403   2.040  0.3071  0.0536  0.5551
 5819TIP3   OH239091   5.347   2.580   7.184 -0.6747  0.8781 -0.0712
 5819TIP3    H139092   5.316   2.512   7.125  0.2531  0.2212  0.1765
 5819TIP3    H239093   5.377   2.533   7.262 -1.8082  1.7146  0.9302
 5820TIP3   OH239094   1.000   5.104   8.501 -0.1007 -0.2394  0.5000
 5820TIP3    H139095   1.075   5.163   8.504 -1.1970  1.1989  0.4984
 5820TIP3    H239096   1.013   5.045   8.575  1.0653 -0.0681  0.4509
 5821TIP3   OH239097   5.027   1.715   7.801 -0.2973  0.0061 -0.0344
 5821TIP3    H139098   5.019   1.621   7.815 -1.8766  0.2546  1.0354
 5821TIP3    H239099   4.938   1.748   7.809  0.4540  1.8479  1.7465
 5822TIP3   OH239100   3.536   0.134   1.296 -0.0140 -0.5517 -0.3616
 5822TIP3    H139101   3.491   0.140   1.381  0.6055  0.8190 -0.0966
 5822TIP3    H239102   3.468   0.153   1.232  0.2532  2.4096  0.0841
 5823TIP3   OH239103   5.673   1.629   0.166  0.1313  0.3472 -0.0346
 5823TIP3    H139104   5.733   1.698   0.195  0.7981 -0.5024  0.6366
 5823TIP3    H239105   5.683   1.559   0.230  2.4722 -2.0614 -2.7933
 5824TIP3   OH239106   1.531   2.968   8.522 -0.0027  0.4620  0.0302
 5824TIP3    H139107   1.610   3.008   8.485  0.1601  1.1126  1.0481
 5824TIP3    H239108   1.527   3.001   8.612 -2.8426  2.5427 -0.7195
 5825TIP3   OH239109   0.703   1.336   0.884  0.4298 -0.3763  0.8095
 5825TIP3    H139110   0.666   1.321   0.797 -0.3349 -1.6323  1.3137
 5825TIP3    H239111   0.775   1.273   0.890  1.1631  0.4442  0.7015
 5826TIP3   OH239112   5.015   4.028   2.487 -0.3484 -0.5981  0.3411
 5826TIP3    H139113   5.050   3.991   2.568  0.5146  1.1589  0.8239
 5826TIP3    H239114   5.092   4.043   2.432 -0.9171 -1.6760 -0.7985
 5827TIP3   OH239115   3.888   4.754   0.053  0.1152 -0.3391  0.0575
 5827TIP3    H139116   3.839   4.790   0.128  0.7975  0.4825  0.1247
 5827TIP3    H239117   3.978   4.784   0.067  0.7083 -2.0319  0.0551
 5828TIP3   OH239118   4.988   5.962   1.925  0.0761 -0.1112 -0.2354
 5828TIP3    H139119   4.929   6.000   1.990 -0.3506  1.0115 -1.2448
 5828TIP3    H239120   5.071   6.008   1.937  0.1522 -0.2766 -0.1312
 5829TIP3   OH239121   5.966   0.867   1.955 -0.1524 -0.0006 -0.4488
 5829TIP3    H139122   6.026   0.824   2.016  0.6776 -0.3608 -1.4861
 5829TIP3    H239123   5.929   0.940   2.005 -0.1633 -0.8018  0.7466
 5830TIP3   OH239124   0.783   5.285   2.003 -0.0839  0.2778 -0.1701
 5830TIP3    H139125   0.721   5.351   1.972  0.2587  1.5338  1.6742
 5830TIP3    H239126   0.868   5.330   2.004  0.4037 -0.6164 -0.1360
 5831TIP3   OH239127   0.543   0.126   8.301 -0.0858  0.4401  0.1137
 5831TIP3    H139128   0.494   0.044   8.293  2.0688 -0.9595  0.4085
 5831TIP3    H239129   0.618   0.116   8.243  0.5300  1.9862  0.5781
 5832TIP3   OH239130   5.050   3.161   6.837  0.0658 -0.0378  0.6487
 5832TIP3    H139131   4.993   3.237   6.844 -0.1970 -0.3320  2.1558
 5832TIP3    H239132   5.058   3.145   6.743 -0.7310  1.1960  0.3458
 5833TIP3   OH239133   1.270   1.853   2.837 -0.3648  0.3813 -0.2837
 5833TIP3    H139134   1.223   1.823   2.759 -1.8620  1.7427  0.0430
 5833TIP3    H239135   1.362   1.856   2.810 -0.7813  0.2761 -1.8119
 5834TIP3   OH239136   0.972   6.724   8.060 -0.0455 -0.3066 -0.1569
 5834TIP3    H139137   1.000   6.785   7.991 -0.3579  1.1579  0.9601
 5834TIP3    H239138   1.051   6.677   8.085  0.7241  1.2757  0.5118
 5835TIP3   OH239139   2.699   1.520   8.218 -0.2361 -0.0678 -0.0467
 5835TIP3    H139140   2.712   1.425   8.208  0.0774 -0.0203 -0.1059
 5835TIP3    H239141   2.784   1.558   8.195 -0.5010  0.2603 -0.5062
 5836TIP3   OH239142   2.989   1.197   3.079 -0.0639  0.2221  0.3549
 5836TIP3    H139143   3.018   1.280   3.118  1.6447 -0.5012  0.7153
 5836TIP3    H239144   3.070   1.156   3.047 -1.0703 -0.5878 -1.2773
 5837TIP3   OH239145   1.992   6.318   9.034 -0.5842 -0.3728 -0.2397
 5837TIP3    H139146   1.945   6.272   8.964 -1.2506 -2.5320  1.5015
 5837TIP3    H239147   2.084   6.315   9.007 -1.0255  0.8973 -2.0694
 5838TIP3   OH239148   2.254   6.431   1.861 -0.4416 -0.0398  0.1771
 5838TIP3    H139149   2.203   6.378   1.922 -1.2883  1.6372  1.0085
 5838TIP3    H239150   2.237   6.521   1.889 -1.9361  0.9158 -3.3600
 5839TIP3   OH239151   4.520   1.396   2.108  0.3518  0.3207 -0.2310
 5839TIP3    H139152   4.472   1.465   2.062 -1.0611  0.3193  1.1508
 5839TIP3    H239153   4.533   1.431   2.197  0.9494 -0.5882  0.0563
 5840TIP3   OH239154   3.977   2.919   1.572  0.4238 -0.2298  0.3143
 5840TIP3    H139155   3.914   2.987   1.547  2.0481  0.6709 -1.6662
 5840TIP3    H239156   4.045   2.967   1.619 -0.2979 -1.2012  2.4815
 5841TIP3   OH239157   6.506   1.672   7.628  0.4275  0.7553 -0.5767
 5841TIP3    H139158   6.483   1.626   7.547  0.5759  0.6237 -0.5439
 5841TIP3    H239159   6.444   1.639   7.693  0.0774  1.1217 -0.7183
 5842TIP3   OH239160   2.886   5.404   1.970  0.4016  0.1691  0.5073
 5842TIP3    H139161   2.923   5.484   2.006 -0.5831 -0.0366  2.0696
 5842TIP3    H239162   2.937   5.333   2.009  0.1628 -0.0232  0.4780
 5843TIP3   OH239163   6.598   5.917   7.634  0.5928  0.1402  0.2038
 5843TIP3    H139164   6.572   5.844   7.691  0.8818  2.1589  3.1537
 5843TIP3    H239165   6.677   5.886   7.590 -0.3771 -1.9890 -0.1843
 5844TIP3   OH239166   6.515   3.838   1.936  0.1491 -0.1571 -0.3729
 5844TIP3    H139167   6.597   3.793   1.917 -0.4851 -1.1822 -0.7430
 5844TIP3    H239168   6.496   3.888   1.857 -0.3865 -1.1772 -0.9013
 5845TIP3   OH239169   5.325   1.782   0.669  0.6774  0.0778  0.3912
 5845TIP3    H139170   5.337   1.803   0.576 -0.8584  1.1572  0.4072
 5845TIP3    H239171   5.368   1.854   0.715 -2.4240  2.0445  0.4513
 5846TIP3   OH239172   1.081   5.065   7.770 -0.3232  0.3278  0.0061
 5846TIP3    H139173   1.092   5.077   7.864  0.1296  0.4076 -0.0523
 5846TIP3    H239174   1.032   4.984   7.761  2.0318 -1.2300  0.2549
 5847TIP3   OH239175   2.390   0.644   7.620 -0.1653 -0.7240 -0.2820
 5847TIP3    H139176   2.375   0.563   7.667 -0.0552 -0.0694  0.9365
 5847TIP3    H239177   2.340   0.636   7.539 -0.0948 -2.0163 -0.2110
 5848TIP3   OH239178   6.109   0.875   2.303 -0.6560 -0.2105 -0.1881
 5848TIP3    H139179   6.154   0.813   2.246  0.5848 -0.7658  1.3057
 5848TIP3    H239180   6.033   0.905   2.252 -0.2965 -1.6037 -1.6159
 5849TIP3   OH239181   4.378   5.760   0.919 -0.3978  0.1486  0.1300
 5849TIP3    H139182   4.336   5.822   0.979  0.3870  0.9641 -0.1367
 5849TIP3    H239183   4.361   5.674   0.958 -0.9723  0.5689  0.8475
 5850TIP3   OH239184   6.428   6.705   1.988  0.4789 -0.6529  0.0587
 5850TIP3    H139185   6.379   6.786   1.998  2.4754  1.1799 -3.1437
 5850TIP3    H239186   6.514   6.723   2.025  0.7111 -1.5933  0.0147
 5851TIP3   OH239187   6.620   2.627   0.916  0.2785  0.1833 -0.0593
 5851TIP3    H139188   6.640   2.720   0.922  1.7442 -0.1513  0.6908
 5851TIP3    H239189   6.543   2.615   0.972  0.5565  0.8090  0.4720
 5852TIP3   OH239190   4.102   4.941   0.431 -0.1227 -0.0165  0.1485
 5852TIP3    H139191   4.068   4.966   0.517  0.4240  0.5508  0.2053
 5852TIP3    H239192   4.137   5.022   0.394 -0.5551 -0.2041 -0.7110
 5853TIP3   OH239193   4.096   2.630   8.114 -0.1757 -0.0662  0.3646
 5853TIP3    H139194   4.142   2.546   8.106  0.2939  0.3060 -1.2983
 5853TIP3    H239195   4.158   2.694   8.078 -0.8998  0.8568  0.7219
 5854TIP3   OH239196   4.285   2.008   0.132  0.1269 -0.2330  0.0442
 5854TIP3    H139197   4.244   1.922   0.138 -1.4056  0.5164  0.7854
 5854TIP3    H239198   4.264   2.039   0.044  1.2042 -0.8420 -0.4482
 5855TIP3   OH239199   0.124   1.952   8.979  0.0663  0.2526  0.1959
 5855TIP3    H139200   0.123   2.043   9.008 -4.4601 -0.0446  1.6518
 5855TIP3    H239201   0.188   1.910   9.037  1.4836  2.2093  0.1786
 5856TIP3   OH239202   2.044   2.079   1.659 -0.5097 -0.2892  0.5359
 5856TIP3    H139203   2.016   2.090   1.568  0.6120 -2.0836 -0.0761
 5856TIP3    H239204   2.131   2.118   1.663 -1.3214  1.5669  1.3928
 5857TIP3   OH239205   5.599   6.596   8.209 -0.1761  0.7124  0.5033
 5857TIP3    H139206   5.670   6.554   8.258 -0.1437  0.8516  0.5755
 5857TIP3    H239207   5.643   6.640   8.136 -0.2792  0.0130  0.0050
 5858TIP3   OH239208   6.757   3.427   1.489 -0.2804 -0.0522  0.0862
 5858TIP3    H139209   6.789   3.491   1.553  2.4431 -0.7975 -0.3736
 5858TIP3    H239210   6.757   3.474   1.406 -0.8656  0.0854  0.1653
 5859TIP3   OH239211   6.674   5.691   6.938 -0.2250 -0.1595 -0.4672
 5859TIP3    H139212   6.631   5.612   6.904  1.5305 -1.3284 -0.1299
 5859TIP3    H239213   6.767   5.677   6.919  0.3236  1.0222  1.1429
 5860TIP3   OH239214   0.379   2.112   7.614  0.0476 -0.2400  0.3898
 5860TIP3    H139215   0.466   2.125   7.650 -0.0391 -1.4247  1.0685
 5860TIP3    H239216   0.328   2.076   7.686 -0.6453 -0.8288 -0.3734
 5861TIP3   OH239217   3.429   5.615   8.681  0.1799  0.3112  0.2734
 5861TIP3    H139218   3.415   5.526   8.649  0.7305  0.1474  0.4859
 5861TIP3    H239219   3.364   5.667   8.634 -0.5572 -0.2944  0.5940
 5862TIP3   OH239220   3.467   1.850   2.267  0.4984 -0.1714 -0.5863
 5862TIP3    H139221   3.423   1.860   2.352  0.1653 -0.3876 -0.7309
 5862TIP3    H239222   3.560   1.848   2.289  0.6017  2.4293 -0.4637
 5863TIP3   OH239223   6.634   0.080   7.457 -0.1492  0.0069  0.1875
 5863TIP3    H139224   6.635   0.001   7.402  0.7636 -0.7084  1.1899
 5863TIP3    H239225   6.664   0.149   7.399  0.1276 -0.6011 -0.4125
 5864TIP3   OH239226   0.681   3.363   7.782 -0.1354  0.7854 -0.0646
 5864TIP3    H139227   0.718   3.380   7.869 -0.4910 -1.7528  0.6547
 5864TIP3    H239228   0.738   3.296   7.745 -2.4677 -1.4153  0.0692
 5865TIP3   OH239229   5.416   5.607   8.188 -0.6144 -0.4951  0.2008
 5865TIP3    H139230   5.343   5.669   8.187  0.8132  1.2960  1.1960
 5865TIP3    H239231   5.387   5.537   8.247 -1.3406  0.4534  1.0129
 5866TIP3   OH239232   6.085   1.047   8.074 -0.1461  0.0638 -0.1740
 5866TIP3    H139233   6.053   1.134   8.097 -0.1614 -0.0987  0.4238
 5866TIP3    H239234   6.132   1.017   8.151 -2.2909 -1.4967  0.6491
 5867TIP3   OH239235   5.340   3.992   8.493 -0.2845 -0.7738  0.2548
 5867TIP3    H139236   5.261   3.945   8.466  0.3159 -1.1078 -0.9543
 5867TIP3    H239237   5.402   3.978   8.422  0.2013  1.1717  0.2471
 5868TIP3   OH239238   1.735   4.397   0.961  0.6180 -0.0692 -0.0132
 5868TIP3    H139239   1.667   4.386   1.027  0.7164  1.7810  0.4322
 5868TIP3    H239240   1.718   4.482   0.922  2.0214 -0.0624 -0.6674
 5869TIP3   OH239241   6.756   0.239   7.974 -0.1869 -0.0786  0.0918
 5869TIP3    H139242   6.685   0.290   7.935  0.8017  0.7116 -0.7671
 5869TIP3    H239243   6.758   0.158   7.924 -0.3225  0.0048 -0.0507
 5870TIP3   OH239244   1.808   0.968   1.438  0.1936 -0.0942 -0.3936
 5870TIP3    H139245   1.784   1.058   1.413 -0.4225 -0.2201 -0.2569
 5870TIP3    H239246   1.762   0.913   1.375  2.1010 -0.2688 -1.7158
 5871TIP3   OH239247   5.784   2.604   6.975 -0.1000 -0.0325  0.3789
 5871TIP3    H139248   5.822   2.686   7.008  1.1479  0.1908 -1.5110
 5871TIP3    H239249   5.725   2.632   6.905 -0.0613 -0.7296  0.0666
 5872TIP3   OH239250   0.498   5.076   1.009 -0.3153  0.3459 -0.3698
 5872TIP3    H139251   0.551   5.150   1.039  0.4752 -0.1729 -0.4589
 5872TIP3    H239252   0.411   5.113   0.996  0.0935  1.2888 -0.5226
 5873TIP3   OH239253   6.317   6.364   8.079  0.1704 -0.5462 -0.2947
 5873TIP3    H139254   6.289   6.441   8.129 -1.2994 -0.5993 -0.9882
 5873TIP3    H239255   6.293   6.384   7.989  2.5196 -0.5773 -1.0096
 5874TIP3   OH239256   5.087   1.246   8.525  0.0831 -0.2867  0.5065
 5874TIP3    H139257   5.028   1.172   8.509  0.2253 -0.3646  0.3324
 5874TIP3    H239258   5.170   1.219   8.485  0.1049  0.0129  0.3473
 5875TIP3   OH239259   5.285   2.120   8.409  0.1587  0.5132 -0.1501
 5875TIP3    H139260   5.344   2.100   8.336  1.0781  1.1950  0.3893
 5875TIP3    H239261   5.258   2.210   8.394  0.0515  0.5328  0.1608
 5876TIP3   OH239262   0.572   5.850   6.813 -0.0702  0.1666  0.0932
 5876TIP3    H139263   0.594   5.925   6.868  0.5060 -0.2087  0.3850
 5876TIP3    H239264   0.491   5.815   6.852 -3.0478  3.2413 -2.6590
 5877TIP3   OH239265   4.772   3.629   0.760  0.2329  0.0065  0.7350
 5877TIP3    H139266   4.736   3.574   0.690  0.6847  0.0104  0.4929
 5877TIP3    H239267   4.702   3.690   0.781 -0.1320 -0.4062  0.7276
 5878TIP3   OH239268   3.046   2.598   8.742 -0.0995 -0.5069  0.3730
 5878TIP3    H139269   3.123   2.627   8.791  2.2357  0.9927 -3.6417
 5878TIP3    H239270   3.054   2.503   8.739  0.8494 -0.4686  1.1898
 5879TIP3   OH239271   0.253   5.874   0.915 -0.2686  0.2452  0.7979
 5879TIP3    H139272   0.230   5.927   0.991  1.3053  0.1442  1.3753
 5879TIP3    H239273   0.170   5.837   0.886 -0.9036  0.2969  2.4536
 5880TIP3   OH239274   6.339   4.453   0.781 -0.6770  0.0980 -0.0500
 5880TIP3    H139275   6.340   4.365   0.742  0.9928  0.9190 -2.0355
 5880TIP3    H239276   6.277   4.502   0.727 -0.2955  0.5842 -0.0526
 5881TIP3   OH239277   0.296   5.075   1.649 -0.7321  0.0541 -0.4861
 5881TIP3    H139278   0.222   5.018   1.630 -1.0516  0.3367 -0.0974
 5881TIP3    H239279   0.354   5.064   1.574 -0.0024 -2.0407  0.2991
 5882TIP3   OH239280   0.783   6.559   8.585 -0.2084 -0.2675  0.2931
 5882TIP3    H139281   0.753   6.535   8.497  1.3344 -0.8802 -0.0883
 5882TIP3    H239282   0.705   6.596   8.627 -0.7925  0.8471 -1.6065
 5883TIP3   OH239283   4.863   5.728   0.028 -0.1028 -0.0757 -0.0433
 5883TIP3    H139284   4.878   5.709  -0.064 -0.6917 -0.4112 -0.0812
 5883TIP3    H239285   4.923   5.799   0.049  0.1304 -0.0910 -0.6509
 5884TIP3   OH239286   3.597   5.540   9.033 -0.3070  0.2528 -0.2041
 5884TIP3    H139287   3.580   5.510   9.122  1.0015  0.9472  0.3094
 5884TIP3    H239288   3.554   5.475   8.977 -2.5614  0.6895  0.9204
 5885TIP3   OH239289   3.286   3.889   0.402  0.0305  0.4546  0.2849
 5885TIP3    H139290   3.355   3.953   0.384 -0.5529  1.1444  0.4370
 5885TIP3    H239291   3.238   3.883   0.319 -1.2836  1.9323  0.8885
 5886TIP3   OH239292   4.109   2.382   8.562  0.1770  0.3031 -0.2348
 5886TIP3    H139293   4.028   2.331   8.558  0.5451 -0.6069  2.1393
 5886TIP3    H239294   4.155   2.360   8.481 -1.5032  0.0924 -1.1731
 5887TIP3   OH239295   4.611   0.621   1.338 -0.4602 -0.6306  0.1444
 5887TIP3    H139296   4.617   0.605   1.432  2.1279 -0.9281 -0.0087
 5887TIP3    H239297   4.627   0.715   1.328 -0.3269 -0.6687 -0.0143
 5888TIP3   OH239298   3.142   0.412   7.917  0.2829 -0.1646 -0.0579
 5888TIP3    H139299   3.086   0.487   7.897 -2.3526 -2.5813 -2.8695
 5888TIP3    H239300   3.105   0.376   7.998  1.4360  1.3254  1.1920
 5889TIP3   OH239301   3.686   6.742   7.038 -0.0623 -0.4276  0.5455
 5889TIP3    H139302   3.733   6.743   7.122  1.7600  1.6719 -0.4073
 5889TIP3    H239303   3.635   6.823   7.039  0.8149  0.1793 -0.7500
 5890TIP3   OH239304   3.071   4.513   0.309  0.0914  0.0949 -0.5994
 5890TIP3    H139305   3.137   4.447   0.285  1.3233  0.7998  0.6898
 5890TIP3    H239306   3.011   4.467   0.367 -2.0939 -1.2375 -3.6688
 5891TIP3   OH239307   0.504   1.014   8.050  0.0562  0.1716  0.3727
 5891TIP3    H139308   0.462   1.100   8.052 -0.0053  0.2273 -1.5840
 5891TIP3    H239309   0.447   0.959   8.104 -1.9300  0.5425 -1.1962
 5892TIP3   OH239310   5.125   5.121   0.320 -0.2445  0.8403 -0.1302
 5892TIP3    H139311   5.190   5.106   0.388 -0.5749  1.1087  0.2514
 5892TIP3    H239312   5.117   5.217   0.315 -0.7479  0.8058 -0.0341
 5893TIP3   OH239313   5.738   0.106   0.884 -0.4997  0.1011 -0.5853
 5893TIP3    H139314   5.756   0.046   0.812  3.0957 -0.3446  0.4947
 5893TIP3    H239315   5.774   0.190   0.855  0.2631  0.1076  0.3168
 5894TIP3   OH239316   0.095   3.703   8.000  0.2066  0.0455 -0.5786
 5894TIP3    H139317   0.109   3.784   7.951  3.4035 -0.8596 -1.3864
 5894TIP3    H239318   0.176   3.653   7.989 -1.5630 -3.2701 -0.0511
 5895TIP3   OH239319   6.139   0.691   8.194 -0.6241 -0.1045 -0.1592
 5895TIP3    H139320   6.149   0.658   8.283  0.4554  0.1212 -0.1877
 5895TIP3    H239321   6.206   0.644   8.143  1.1720  2.2869 -0.1542
 5896TIP3   OH239322   1.952   6.247   8.184  0.3555 -0.1981 -0.4098
 5896TIP3    H139323   1.990   6.324   8.141  1.0044 -0.4199 -0.2539
 5896TIP3    H239324   1.871   6.231   8.137  0.4956  0.2416 -0.8138
 5897TIP3   OH239325   3.327   0.355   8.614 -0.0440 -0.6987 -0.3195
 5897TIP3    H139326   3.269   0.391   8.681  1.8589  0.5279  0.7423
 5897TIP3    H239327   3.339   0.426   8.552 -0.9129 -1.4751 -1.4217
 5898TIP3   OH239328   2.160   6.138   8.873 -0.2112 -0.1845 -0.0089
 5898TIP3    H139329   2.118   6.169   8.792 -1.9262 -0.9711  0.5344
 5898TIP3    H239330   2.129   6.048   8.883 -1.0366  0.2828  2.1436
 5899TIP3   OH239331   6.137   5.786   1.032 -0.6099  0.5230 -0.2570
 5899TIP3    H139332   6.098   5.783   1.120 -1.5288  0.3798 -0.6630
 5899TIP3    H239333   6.128   5.697   0.999  0.6886  0.3164 -0.1065
 5900TIP3   OH239334   3.863   6.157   0.007 -0.1708  0.7209 -0.3864
 5900TIP3    H139335   3.893   6.229   0.063  2.2326  2.0008 -3.0568
 5900TIP3    H239336   3.843   6.199  -0.077 -0.6736 -1.4715 -1.4326
 5901TIP3   OH239337   1.574   4.924   7.095  0.1509 -0.6422 -0.3820
 5901TIP3    H139338   1.601   4.889   7.010 -1.2869 -1.2270 -0.6203
 5901TIP3    H239339   1.523   5.002   7.074 -0.0332 -0.6700 -0.0438
 5902TIP3   OH239340   0.092   2.687   2.432  0.1166 -0.4516  0.1795
 5902TIP3    H139341   0.006   2.717   2.403  0.5123  1.6397  1.0548
 5902TIP3    H239342   0.112   2.613   2.374 -2.1534 -0.8506 -0.1749
 5903TIP3   OH239343   1.200   1.577   7.126  0.3208  0.1965  0.4147
 5903TIP3    H139344   1.229   1.520   7.196 -1.0449  0.5132  1.2736
 5903TIP3    H239345   1.177   1.517   7.054 -0.9198 -0.3514  1.2366
 5904TIP3   OH239346   4.408   5.218   9.014  0.7113  0.3006 -1.1882
 5904TIP3    H139347   4.378   5.207   8.923  2.5766  0.9204 -1.9416
 5904TIP3    H239348   4.360   5.294   9.047 -1.8353 -1.3773 -0.7433
 5905TIP3   OH239349   4.567   4.736   1.903 -0.0517 -0.2584  0.4370
 5905TIP3    H139350   4.564   4.792   1.980 -0.2117 -0.5309  0.6299
 5905TIP3    H239351   4.657   4.745   1.870 -0.2391  0.5507  0.1318
 5906TIP3   OH239352   5.369   5.405   1.947  0.2327  0.2027  0.3076
 5906TIP3    H139353   5.295   5.351   1.976 -0.6737  0.7784 -0.8411
 5906TIP3    H239354   5.369   5.479   2.008  0.0836  0.0310  0.5213
 5907TIP3   OH239355   4.494   2.491   1.872 -0.1847  0.0672  0.1946
 5907TIP3    H139356   4.490   2.559   1.805  0.6629 -0.1882 -0.1234
 5907TIP3    H239357   4.583   2.495   1.906 -0.7202  0.5079  1.6536
 5908TIP3   OH239358   5.129   2.017   6.951  0.0200  0.2928  0.5593
 5908TIP3    H139359   5.055   2.078   6.949  0.0140  0.2648 -0.8215
 5908TIP3    H239360   5.161   2.016   6.861  0.6952 -0.9284  0.8005
 5909TIP3   OH239361   6.370   5.037   7.611  0.2996  0.1629  0.2872
 5909TIP3    H139362   6.383   5.129   7.585  0.0573  0.0682 -0.1808
 5909TIP3    H239363   6.279   5.034   7.642 -0.1708 -0.2313 -1.0861
 5910TIP3   OH239364   2.218   6.077   0.789  0.5805 -0.1954  0.4552
 5910TIP3    H139365   2.260   6.152   0.832 -0.6823  0.0092  1.3931
 5910TIP3    H239366   2.186   6.112   0.706  3.6078 -0.7471 -1.0787
 5911TIP3   OH239367   0.806   6.053   0.331 -0.2341 -0.4107 -0.7193
 5911TIP3    H139368   0.717   6.037   0.299 -0.4477  1.4287 -1.1144
 5911TIP3    H239369   0.829   6.140   0.298  1.4242 -0.5179  0.0395
 5912TIP3   OH239370   3.435   4.057   7.937 -0.7593  0.1692  0.3017
 5912TIP3    H139371   3.361   4.097   7.984 -1.3825 -1.1766  0.5303
 5912TIP3    H239372   3.512   4.081   7.989 -1.1555  0.7766  0.6187
 5913TIP3   OH239373   4.914   2.045   2.040 -0.2948  0.3186  0.2272
 5913TIP3    H139374   4.871   2.088   2.114 -0.3821 -0.0523  0.3966
 5913TIP3    H239375   5.003   2.080   2.040 -0.6025  1.1035 -0.1348
 5914TIP3   OH239376   4.519   4.286   1.958 -0.5370  0.3910 -0.1123
 5914TIP3    H139377   4.549   4.235   2.034 -1.1682  0.5429  0.2431
 5914TIP3    H239378   4.504   4.374   1.993  1.9734  1.2663 -1.0176
 5915TIP3   OH239379   0.579   6.528   0.647 -0.3839 -0.0219  0.8179
 5915TIP3    H139380   0.661   6.572   0.624 -0.0250 -0.3340  1.4524
 5915TIP3    H239381   0.517   6.600   0.662 -0.1192  0.2327  0.7150
 5916TIP3   OH239382   3.198   5.445   2.030  0.2486 -0.2150  0.2086
 5916TIP3    H139383   3.160   5.358   2.045  0.4999 -0.0710  1.9045
 5916TIP3    H239384   3.127   5.506   2.050  0.4692 -0.0006  0.3425
 5917TIP3   OH239385   0.836   5.822   7.484 -0.3056 -0.1868  0.1720
 5917TIP3    H139386   0.833   5.730   7.511  0.4032 -0.0889  0.5985
 5917TIP3    H239387   0.913   5.858   7.528  1.2229 -0.1331 -2.3833
 5918TIP3   OH239388   1.796   3.533   8.078  0.1649  0.1944  0.2094
 5918TIP3    H139389   1.786   3.491   7.993  2.6360 -0.1151 -0.0139
 5918TIP3    H239390   1.809   3.626   8.059 -0.9153  0.4011  0.3997
 5919TIP3   OH239391   3.558   4.411   2.441  0.0680 -0.2662  0.2659
 5919TIP3    H139392   3.484   4.466   2.415  0.1984  0.7409  1.8541
 5919TIP3    H239393   3.633   4.449   2.396  0.1246  0.8170  1.2104
 5920TIP3   OH239394   4.645   3.594   8.652  0.0760 -0.1465 -0.0275
 5920TIP3    H139395   4.595   3.515   8.670  0.1079 -0.2928 -0.5576
 5920TIP3    H239396   4.732   3.563   8.628  1.2181  0.1811  3.1981
 5921TIP3   OH239397   0.446   0.619   7.977 -0.0300 -0.1753  0.4722
 5921TIP3    H139398   0.453   0.540   8.031 -1.7063 -1.9003 -1.6155
 5921TIP3    H239399   0.443   0.691   8.040  1.0062 -1.7949  2.5034
 5922TIP3   OH239400   1.048   1.924   7.381  0.1169  0.4145 -0.4580
 5922TIP3    H139401   1.065   2.016   7.361  0.9933  0.1458 -0.9620
 5922TIP3    H239402   1.039   1.882   7.296  2.0301 -0.3896 -0.2928
 5923TIP3   OH239403   5.855   6.256   0.985 -0.0483  0.2172 -0.0094
 5923TIP3    H139404   5.847   6.161   0.978 -0.8390  0.3723 -1.5545
 5923TIP3    H239405   5.922   6.269   1.053  0.1536 -1.4267  0.1571
 5924TIP3   OH239406   4.912   1.326   6.400 -0.2514 -0.2756 -0.3070
 5924TIP3    H139407   4.903   1.380   6.322  1.5515  0.6556  0.0778
 5924TIP3    H239408   4.870   1.377   6.470  2.3656  1.2410  0.2765
 5925TIP3   OH239409   1.102   1.323   2.148  0.1976 -0.1183 -0.3281
 5925TIP3    H139410   1.098   1.353   2.239  1.1296 -1.2438  0.1146
 5925TIP3    H239411   1.063   1.236   2.150 -1.0496  0.4021 -1.2885
 5926TIP3   OH239412   4.099   3.151   8.598 -0.5710 -0.0586  0.5301
 5926TIP3    H139413   4.181   3.195   8.575 -0.0354 -1.1351  0.3195
 5926TIP3    H239414   4.031   3.209   8.564  0.1413 -0.0786 -1.0551
 5927TIP3   OH239415   4.886   4.316   1.599 -0.5403  0.2569  0.0647
 5927TIP3    H139416   4.931   4.312   1.683  0.7813  1.1597 -0.5561
 5927TIP3    H239417   4.834   4.397   1.604 -1.2017 -0.1812  0.3531
 5928TIP3   OH239418   1.224   1.709   0.969 -0.0113  0.9589  0.1537
 5928TIP3    H139419   1.164   1.635   0.953 -0.2495  0.8051  1.6754
 5928TIP3    H239420   1.168   1.777   1.007  0.5795  1.1995  0.6026
 5929TIP3   OH239421   3.994   6.642   0.180 -0.6106 -0.7899  0.0277
 5929TIP3    H139422   4.041   6.685   0.251  0.5832 -0.9160 -0.6641
 5929TIP3    H239423   3.931   6.585   0.224 -0.2185 -0.5154  0.9704
 5930TIP3   OH239424   4.932   1.301   8.189 -0.0703 -0.3967 -0.6575
 5930TIP3    H139425   4.950   1.208   8.193 -0.4311 -0.4409  2.5037
 5930TIP3    H239426   5.018   1.343   8.182  0.3384 -0.9328  0.8311
 5931TIP3   OH239427   2.309   4.703   2.224  0.1347 -0.4057  0.0453
 5931TIP3    H139428   2.243   4.717   2.291  0.2061 -0.8556  0.2124
 5931TIP3    H239429   2.392   4.714   2.269  0.1922  1.7962 -0.5107
 5932TIP3   OH239430   4.317   4.130   7.674  0.2229  0.3166  0.2795
 5932TIP3    H139431   4.390   4.183   7.643  2.2775 -2.7905 -0.6829
 5932TIP3    H239432   4.302   4.067   7.604 -1.5884 -0.8465  1.6253
 5933TIP3   OH239433   6.358   1.212   2.126 -0.3719  0.3765 -0.0645
 5933TIP3    H139434   6.315   1.166   2.055 -0.4322  1.0767 -0.4960
 5933TIP3    H239435   6.290   1.223   2.193 -1.1047  2.0481 -1.0037
 5934TIP3   OH239436   5.126   4.111   6.821 -0.5503 -0.2667  0.3264
 5934TIP3    H139437   5.053   4.059   6.785 -1.7315  0.2312  1.8839
 5934TIP3    H239438   5.202   4.085   6.769 -1.8018 -0.9238 -1.2547
 5935TIP3   OH239439   6.738   1.751   8.105  0.2479  0.2203  0.5903
 5935TIP3    H139440   6.694   1.715   8.182 -0.7016  1.5202  0.6826
 5935TIP3    H239441   6.749   1.844   8.124 -0.4717  0.6749 -1.0449
 5936TIP3   OH239442   4.237   6.083   8.735  0.8489 -0.2096  0.5155
 5936TIP3    H139443   4.150   6.112   8.707  1.0906 -1.7053 -2.1069
 5936TIP3    H239444   4.220   6.012   8.796  0.2629  0.2491  0.9014
 5937TIP3   OH239445   0.267   2.841   6.378  0.1732 -0.1218  0.6398
 5937TIP3    H139446   0.334   2.773   6.372  1.0228  0.7221  0.3289
 5937TIP3    H239447   0.204   2.818   6.310 -0.5082 -1.5895  1.7243
 5938TIP3   OH239448   5.363   3.687   1.065 -0.2640 -0.6298  0.3577
 5938TIP3    H139449   5.354   3.690   0.970 -1.1069 -0.3014  0.4478
 5938TIP3    H239450   5.446   3.640   1.079  0.3702  0.1901 -0.5524
 5939TIP3   OH239451   5.160   5.703   0.547 -0.1750  0.5203  0.4644
 5939TIP3    H139452   5.194   5.618   0.573 -0.8854  0.1530  0.2248
 5939TIP3    H239453   5.233   5.746   0.503  0.0868 -0.1081  0.2734
 5940TIP3   OH239454   3.715   0.382   1.455 -0.0372 -0.6677  0.1212
 5940TIP3    H139455   3.620   0.380   1.460 -0.0648 -1.8529 -0.3711
 5940TIP3    H239456   3.734   0.378   1.361  0.5181  2.9168 -0.0555
 5941TIP3   OH239457   1.866   0.635   0.846 -0.0495  0.2873 -1.0056
 5941TIP3    H139458   1.880   0.699   0.915 -0.7193  0.0731 -0.6650
 5941TIP3    H239459   1.930   0.658   0.779  0.0828  0.9753 -0.6512
 5942TIP3   OH239460   0.802   0.918   1.524  0.1252  0.2662  0.0937
 5942TIP3    H139461   0.896   0.923   1.505  0.3793 -0.5568  1.0260
 5942TIP3    H239462   0.786   0.825   1.540 -0.4466  0.6114  1.8014
 5943TIP3   OH239463   0.572   2.510   0.727 -0.0047 -0.3288 -0.2567
 5943TIP3    H139464   0.661   2.474   0.721 -0.6580 -1.7941 -2.4469
 5943TIP3    H239465   0.554   2.545   0.640 -1.3338  0.6221  0.3668
 5944TIP3   OH239466   6.280   3.068   1.925 -0.4944 -0.8492 -0.1761
 5944TIP3    H139467   6.351   3.132   1.921  0.1715 -1.5897 -0.8233
 5944TIP3    H239468   6.230   3.090   2.004 -0.7350  0.9075 -0.7943
 5945TIP3   OH239469   4.018   2.149   1.011  0.4236  0.3202  0.6655
 5945TIP3    H139470   3.946   2.196   0.969  1.5913  0.9117 -0.7665
 5945TIP3    H239471   3.981   2.065   1.036 -0.3302 -0.1198 -1.7282
 5946TIP3   OH239472   5.795   3.521   0.405  0.3657  0.1839  0.3991
 5946TIP3    H139473   5.871   3.492   0.455  1.1599 -1.2504 -1.5178
 5946TIP3    H239474   5.783   3.454   0.338 -1.7066  1.1332 -0.2741
 5947TIP3   OH239475   1.485   5.177   8.883  0.1969  0.1398 -0.4038
 5947TIP3    H139476   1.559   5.238   8.882 -0.8145  1.4122 -0.3901
 5947TIP3    H239477   1.499   5.122   8.806  2.6678 -1.6016  1.1335
 5948TIP3   OH239478   6.017   1.358   7.900  0.4395  0.1402  0.4724
 5948TIP3    H139479   6.073   1.302   7.846  0.8005  1.3444 -0.4638
 5948TIP3    H239480   6.078   1.405   7.956  0.7058  2.9287 -1.9078
 5949TIP3   OH239481   4.598   4.242   1.122 -0.0305  0.6840  0.0967
 5949TIP3    H139482   4.661   4.256   1.192 -0.2158  0.5032  0.3001
 5949TIP3    H239483   4.569   4.330   1.098  0.8988  0.8318 -0.5573
 5950TIP3   OH239484   2.059   3.507   8.623 -0.1368  0.2611  0.3198
 5950TIP3    H139485   2.151   3.490   8.602 -0.5228 -2.7112  0.6078
 5950TIP3    H239486   2.034   3.579   8.564  1.7880 -0.3447 -1.3370
 5951TIP3   OH239487   0.717   1.561   7.248  0.2693 -0.4350  0.3263
 5951TIP3    H139488   0.716   1.637   7.189  1.3199  1.6953  2.8495
 5951TIP3    H239489   0.625   1.539   7.260 -0.0866  0.6684 -0.1910
 5952TIP3   OH239490   4.617   3.752   0.066 -0.2201  0.2495 -0.3275
 5952TIP3    H139491   4.648   3.748  -0.025 -0.1579  0.1837 -0.3028
 5952TIP3    H239492   4.694   3.732   0.118 -0.0931  0.9477 -0.2344
 5953TIP3   OH239493   2.196   3.675   6.740 -0.5051 -1.1091  0.3984
 5953TIP3    H139494   2.286   3.657   6.769 -1.2432 -2.6771  1.8885
 5953TIP3    H239495   2.150   3.592   6.753 -2.5185  0.0582  1.0633
 5954TIP3   OH239496   0.791   2.075   2.396 -0.3106 -0.8473 -0.5576
 5954TIP3    H139497   0.806   2.005   2.459  0.8550 -0.1795 -0.0688
 5954TIP3    H239498   0.877   2.089   2.355 -0.0837  1.4800  0.6046
 5955TIP3   OH239499   0.947   4.044   7.348  0.9904  0.2616 -0.7426
 5955TIP3    H139500   0.988   4.043   7.262 -0.8942 -1.3438 -1.6989
 5955TIP3    H239501   0.878   3.979   7.343  0.8155  0.0928  2.0170
 5956TIP3   OH239502   2.577   2.771   7.991 -0.3163 -0.4166  0.1864
 5956TIP3    H139503   2.542   2.827   8.061 -0.5785  0.6813 -0.7878
 5956TIP3    H239504   2.583   2.829   7.915 -2.3368 -2.1491 -1.4006
 5957TIP3   OH239505   2.194   0.618   8.003  0.7308  0.0226  0.5191
 5957TIP3    H139506   2.195   0.592   8.095  1.0921  1.6512  1.0080
 5957TIP3    H239507   2.102   0.636   7.984  0.8662  1.5735  1.1656
 5958TIP3   OH239508   0.362   2.514   2.671  0.5126 -0.1987  0.7329
 5958TIP3    H139509   0.275   2.481   2.648  1.9102 -4.0209  0.1578
 5958TIP3    H239510   0.354   2.609   2.667 -3.3585 -0.4111 -0.1995
 5959TIP3   OH239511   1.025   4.436   8.276  0.6813 -0.1662  0.0561
 5959TIP3    H139512   0.933   4.408   8.273  0.8366 -0.6715 -0.0256
 5959TIP3    H239513   1.031   4.489   8.355  0.3205 -0.1385  0.0670
 5960TIP3   OH239514   4.343   2.662   0.066 -0.1718 -0.5375  0.4338
 5960TIP3    H139515   4.305   2.745   0.093  0.1809 -0.4184  0.5713
 5960TIP3    H239516   4.370   2.675  -0.025  1.4712  0.0737  0.9765
 5961TIP3   OH239517   4.149   3.836   1.116  0.1983  0.0528  0.0768
 5961TIP3    H139518   4.215   3.781   1.075  0.1651 -0.7301  1.0373
 5961TIP3    H239519   4.066   3.797   1.091  0.1282  0.4812 -0.3633
 5962TIP3   OH239520   1.135   1.956   8.535 -0.3857 -0.0927 -0.4622
 5962TIP3    H139521   1.178   1.921   8.613 -1.0755  0.0505 -0.0139
 5962TIP3    H239522   1.135   2.051   8.548  0.1503 -0.0193 -0.9794
 5963TIP3   OH239523   5.882   3.321   7.421 -0.0847  0.3650 -0.0636
 5963TIP3    H139524   5.802   3.267   7.417 -1.3715  1.9935  1.9162
 5963TIP3    H239525   5.941   3.280   7.358 -1.4011 -2.6583  0.4767
 5964TIP3   OH239526   6.742   1.576   6.905  0.1703 -0.1376  0.1266
 5964TIP3    H139527   6.743   1.660   6.951 -0.8237 -0.2651  0.4070
 5964TIP3    H239528   6.781   1.595   6.819  0.5654  0.4535  0.4309
 5965TIP3   OH239529   0.563   6.741   0.031 -0.0414 -0.3996 -0.1561
 5965TIP3    H139530   0.565   6.809  -0.036  0.2621  0.8501  1.0884
 5965TIP3    H239531   0.488   6.686   0.007  0.4498 -0.3753 -1.8624
 5966TIP3   OH239532   2.637   1.557   0.564 -0.5038 -0.1048  0.2418
 5966TIP3    H139533   2.707   1.551   0.629  2.3632  0.7217 -2.5386
 5966TIP3    H239534   2.604   1.467   0.557  2.9220 -1.4397 -0.9275
 5967TIP3   OH239535   4.817   2.331   8.627  0.1675 -0.9503 -0.0460
 5967TIP3    H139536   4.736   2.302   8.670 -0.6280 -1.4250 -1.7767
 5967TIP3    H239537   4.885   2.275   8.665 -0.3993 -0.9422  1.0235
 5968TIP3   OH239538   0.601   6.343   1.064  0.4165  1.1934 -0.7897
 5968TIP3    H139539   0.596   6.334   0.969  0.6193 -0.9489 -0.6408
 5968TIP3    H239540   0.620   6.255   1.095  0.2759  1.8471  1.2600
 5969TIP3   OH239541   2.771   5.162   0.008  0.7565 -0.4224  0.1230
 5969TIP3    H139542   2.749   5.101   0.078  2.3883 -0.4829  0.6036
 5969TIP3    H239543   2.819   5.109  -0.056  0.0170 -0.1791 -0.6678
 5970TIP3   OH239544   4.728   6.072   8.735 -0.0374  0.7301  0.4180
 5970TIP3    H139545   4.658   6.077   8.669 -0.0848  0.9004  0.4811
 5970TIP3    H239546   4.776   5.992   8.713  0.0999  0.9186  0.0226
 5971TIP3   OH239547   0.660   1.795   1.096 -0.5884 -0.0571 -0.4482
 5971TIP3    H139548   0.705   1.876   1.122  0.9952 -0.3231 -2.2041
 5971TIP3    H239549   0.730   1.731   1.082 -1.5118 -0.7166 -2.5031
 5972TIP3   OH239550   4.852   1.735   0.851  0.7242  0.2360 -0.2379
 5972TIP3    H139551   4.799   1.726   0.772  1.0939 -0.6967 -0.3860
 5972TIP3    H239552   4.848   1.649   0.893 -1.9262  1.4471  2.3768
 5973TIP3   OH239553   5.872   0.743   0.472 -0.2909 -0.6675 -0.1218
 5973TIP3    H139554   5.936   0.748   0.402 -1.0912  1.3792 -0.7587
 5973TIP3    H239555   5.831   0.829   0.474 -2.3055 -1.5823  0.9509
 5974TIP3   OH239556   4.723   1.173   0.850 -0.3828 -0.2702 -0.0031
 5974TIP3    H139557   4.645   1.121   0.832 -0.9116  0.1502  1.0063
 5974TIP3    H239558   4.761   1.191   0.763 -0.9547 -1.1487 -0.4474
 5975TIP3   OH239559   5.907   1.387   1.277 -0.7009 -0.3773 -0.2180
 5975TIP3    H139560   5.825   1.435   1.288 -0.1258  0.7772 -0.7699
 5975TIP3    H239561   5.972   1.437   1.327 -0.4075 -1.5383  0.6081
 5976TIP3   OH239562   2.123   6.216   8.585 -0.0276  0.7338 -0.7494
 5976TIP3    H139563   2.118   6.289   8.524 -1.4147  0.5035 -0.9398
 5976TIP3    H239564   2.035   6.178   8.585  0.6443 -0.9317 -0.6422
 5977TIP3   OH239565   5.015   3.029   2.651 -0.4374 -0.2765 -0.2099
 5977TIP3    H139566   5.056   3.069   2.575  0.5407  3.0192  1.8267
 5977TIP3    H239567   4.921   3.034   2.635 -0.2975  1.8123 -0.6243
 5978TIP3   OH239568   5.411   0.226   8.344 -0.4195 -0.4506  0.4508
 5978TIP3    H139569   5.327   0.272   8.341 -0.1505  0.0875  1.1152
 5978TIP3    H239570   5.450   0.242   8.258 -1.0498 -0.8156  0.0895
 5979TIP3   OH239571   3.458   2.956   1.131 -0.1383 -0.2532 -0.3236
 5979TIP3    H139572   3.453   3.037   1.181  0.7307 -0.3086 -0.1288
 5979TIP3    H239573   3.411   2.974   1.050  0.0987  0.4686 -0.3037
 5980TIP3   OH239574   2.519   6.350   1.255  0.3705 -0.2537 -0.5468
 5980TIP3    H139575   2.427   6.325   1.255  0.1208  0.5478  0.8320
 5980TIP3    H239576   2.518   6.445   1.270  1.4306 -0.3683  0.3799
 5981TIP3   OH239577   6.554   0.399   7.450 -0.1405 -0.1380  0.5033
 5981TIP3    H139578   6.590   0.461   7.387 -0.9591  0.0171  0.1724
 5981TIP3    H239579   6.543   0.450   7.530 -0.1415 -0.0460  0.4444
 5982TIP3   OH239580   1.093   4.621   1.282 -0.1571  1.0329  0.4787
 5982TIP3    H139581   1.008   4.635   1.240 -0.2948 -1.2807 -0.1197
 5982TIP3    H239582   1.157   4.642   1.215 -0.2994  0.8308  0.2800
 5983TIP3   OH239583   6.377   4.592   2.945 -0.1733  0.1601 -0.5219
 5983TIP3    H139584   6.360   4.570   2.854 -0.2469 -1.6238 -0.1012
 5983TIP3    H239585   6.387   4.688   2.945 -3.8519  0.7104 -1.8244
 5984TIP3   OH239586   4.761   1.973   1.426  0.1889  0.0257  0.4457
 5984TIP3    H139587   4.700   2.045   1.414  0.3777  0.0799 -0.2272
 5984TIP3    H239588   4.847   2.015   1.434  0.4711 -0.1786 -1.2726
 5985TIP3   OH239589   2.061   4.330   8.820 -0.3032 -0.3305  0.0964
 5985TIP3    H139590   2.008   4.252   8.839  0.4416 -0.6882  0.7749
 5985TIP3    H239591   2.003   4.403   8.841 -0.7308 -0.7044  0.2616
 5986TIP3   OH239592   4.575   5.753   7.356 -0.1623  0.5101  0.6448
 5986TIP3    H139593   4.529   5.813   7.299  1.0230  1.4360  0.6398
 5986TIP3    H239594   4.595   5.677   7.301  0.0616  0.9510  0.1174
 5987TIP3   OH239595   2.234   0.455   1.768 -0.0417 -0.3412 -0.2334
 5987TIP3    H139596   2.234   0.395   1.843 -1.4673  0.0149  0.0611
 5987TIP3    H239597   2.299   0.522   1.791 -1.9257  0.9536  1.6928
 5988TIP3   OH239598   0.455   5.575   8.599  0.1531 -0.3524 -0.4835
 5988TIP3    H139599   0.460   5.490   8.554 -2.0632 -0.3364 -0.8898
 5988TIP3    H239600   0.467   5.553   8.691  1.4295 -0.8354 -0.7438
 5989TIP3   OH239601   4.053   6.633   8.835  0.2132 -0.0526 -0.2168
 5989TIP3    H139602   4.123   6.699   8.830  0.7238 -0.6482 -1.7141
 5989TIP3    H239603   4.085   6.561   8.781 -1.4026 -0.5163 -0.6041
 5990TIP3   OH239604   3.889   1.971   1.480  0.4208  0.2961  0.2234
 5990TIP3    H139605   3.925   1.955   1.393  2.0415  0.8701  0.7520
 5990TIP3    H239606   3.884   1.885   1.521 -2.2096 -0.2506 -1.0711
 5991TIP3   OH239607   3.491   4.042   0.338 -0.2444 -0.0138 -0.1970
 5991TIP3    H139608   3.460   4.130   0.358 -0.3244  0.2371 -1.3808
 5991TIP3    H239609   3.550   4.053   0.264 -1.5027 -1.1270 -1.4171
 5992TIP3   OH239610   1.651   0.124   0.595  0.1663 -0.0557  0.6182
 5992TIP3    H139611   1.644   0.100   0.502 -0.0058  3.9398 -0.5848
 5992TIP3    H239612   1.570   0.091   0.634 -1.6084  1.3522 -1.5904
 5993TIP3   OH239613   6.469   5.530   7.941 -0.3873  0.2717 -0.0934
 5993TIP3    H139614   6.540   5.593   7.948 -2.1548  2.3563 -0.0544
 5993TIP3    H239615   6.458   5.497   8.030 -0.7404  1.4187  0.3018
 5994TIP3   OH239616   0.485   0.140   8.835  0.1694 -0.4675 -0.1841
 5994TIP3    H139617   0.447   0.137   8.747 -0.4021 -0.7919  0.0631
 5994TIP3    H239618   0.450   0.219   8.875 -2.0772 -1.8587  0.8146
 5995TIP3   OH239619   3.749   5.601   1.710 -0.1141  0.4571  0.6806
 5995TIP3    H139620   3.724   5.513   1.739  0.9655  0.3810  1.4323
 5995TIP3    H239621   3.843   5.607   1.727 -0.0685  1.5823  0.1615
 5996TIP3   OH239622   1.181   5.288   8.560  0.0384 -1.0095 -0.0049
 5996TIP3    H139623   1.243   5.334   8.616 -1.6063 -1.2967  2.2137
 5996TIP3    H239624   1.136   5.357   8.511 -0.4464 -0.4386  1.1949
 5997TIP3   OH239625   2.974   4.142   2.018 -0.0005  0.5683 -0.1076
 5997TIP3    H139626   2.920   4.136   1.939  2.3275  1.0505 -1.8450
 5997TIP3    H239627   2.977   4.052   2.051 -1.7959  0.5294  0.0274
 5998TIP3   OH239628   1.401   2.933   1.607  0.2460 -0.0591  0.1649
 5998TIP3    H139629   1.347   2.913   1.530 -0.3381  0.0338  0.5417
 5998TIP3    H239630   1.347   2.992   1.660  0.5429 -0.3076  0.7583
 5999TIP3   OH239631   1.883   1.806   7.403 -0.4816  0.0657  0.2722
 5999TIP3    H139632   1.918   1.830   7.317  0.3800 -0.5374  0.4413
 5999TIP3    H239633   1.915   1.876   7.461  0.0642 -0.2236  0.3341
 6000TIP3   OH239634   1.523   0.310   8.849 -0.2042  0.3397  0.0837
 6000TIP3    H139635   1.532   0.349   8.762 -2.6254 -1.0979 -0.9298
 6000TIP3    H239636   1.506   0.217   8.832 -1.2268  0.1033  2.0522
 6001TIP3   OH239637   4.714   5.247   7.225 -0.7236 -0.5307  0.2703
 6001TIP3    H139638   4.804   5.250   7.191 -0.0324 -1.0421  1.9558
 6001TIP3    H239639   4.661   5.226   7.149  0.6353 -0.6466 -0.6928
 6002TIP3   OH239640   5.864   4.953   1.252 -0.0982 -0.4845  0.0531
 6002TIP3    H139641   5.784   4.949   1.305  0.2579  0.0188  0.6427
 6002TIP3    H239642   5.833   4.959   1.162 -0.7257 -0.0106  0.2959
 6003TIP3   OH239643   4.119   4.777   1.143 -0.3277 -0.0841  0.4779
 6003TIP3    H139644   4.075   4.702   1.182  0.7124 -0.2659  1.3664
 6003TIP3    H239645   4.176   4.738   1.075 -1.6534  0.1692 -0.8265
 6004TIP3   OH239646   2.577   3.983   0.066  0.4021  0.0566  0.4224
 6004TIP3    H139647   2.619   3.989  -0.020 -0.3931  0.8582  0.0830
 6004TIP3    H239648   2.524   3.903   0.061 -0.1508  0.4463 -0.0680
 6005TIP3   OH239649   5.563   4.303   8.494 -0.3120 -0.4579  0.3743
 6005TIP3    H139650   5.622   4.229   8.510 -0.3042 -0.3072  1.0888
 6005TIP3    H239651   5.590   4.368   8.558 -1.1470 -0.3219  0.5939
 6006TIP3   OH239652   2.651   3.389   7.522  0.4090 -0.0231  0.6679
 6006TIP3    H139653   2.660   3.413   7.614  0.5164 -2.1432  1.2543
 6006TIP3    H239654   2.567   3.343   7.518 -0.5473  1.6854 -0.7188
 6007TIP3   OH239655   1.742   1.208   2.132 -0.6163 -0.1060  0.3545
 6007TIP3    H139656   1.823   1.163   2.153 -1.2101 -1.6124 -0.4438
 6007TIP3    H239657   1.695   1.212   2.216 -0.5281 -0.9431  0.4563
 6008TIP3   OH239658   3.737   4.572   8.737 -0.5552 -0.2021 -0.0100
 6008TIP3    H139659   3.773   4.549   8.823  0.1084 -1.1127 -0.5209
 6008TIP3    H239660   3.793   4.527   8.675 -1.5127 -0.1888 -0.8987
 6009TIP3   OH239661   2.693   4.804   8.401 -0.4188 -0.3874  0.2658
 6009TIP3    H139662   2.639   4.864   8.350  0.6523  0.8054  0.4708
 6009TIP3    H239663   2.776   4.799   8.353 -0.3691 -1.4358  0.4426
 6010TIP3   OH239664   3.927   1.248   7.482 -0.0115  0.3566 -0.0650
 6010TIP3    H139665   3.926   1.342   7.500  1.6244  0.7586 -1.7061
 6010TIP3    H239666   3.986   1.239   7.407  1.7673 -2.2133  1.4666
 6011TIP3   OH239667   0.933   5.973   8.369  0.0067  0.0093 -0.1567
 6011TIP3    H139668   0.935   5.988   8.274 -0.9470 -1.5033 -0.4504
 6011TIP3    H239669   0.842   5.953   8.388  0.5191 -1.5995  0.7581
 6012TIP3   OH239670   5.492   1.484   0.641 -0.1669 -0.1098  0.1872
 6012TIP3    H139671   5.444   1.513   0.718 -2.4818  0.2475 -1.2873
 6012TIP3    H239672   5.517   1.565   0.596  0.9428 -0.3167  0.4103
 6013TIP3   OH239673   1.707   4.648   7.999  0.4294 -0.1133 -0.3021
 6013TIP3    H139674   1.740   4.695   8.075 -2.3392 -0.2095  1.0970
 6013TIP3    H239675   1.760   4.569   7.995  1.3121  0.3864  0.8805
 6014TIP3   OH239676   0.353   4.170   8.858  0.2697 -0.4109  0.1057
 6014TIP3    H139677   0.286   4.202   8.918 -1.1086 -2.2157 -0.3757
 6014TIP3    H239678   0.329   4.208   8.773  0.1044 -0.6823  0.0275
 6015TIP3   OH239679   5.835   0.654   7.265 -0.3884 -0.3047  0.1184
 6015TIP3    H139680   5.814   0.717   7.334 -1.2336  1.0452 -1.3295
 6015TIP3    H239681   5.928   0.668   7.247 -1.2575  3.2944 -2.7299
 6016TIP3   OH239682   4.904   6.480   0.725 -0.4883  0.2466  0.2334
 6016TIP3    H139683   4.902   6.571   0.694 -2.9081 -0.2884 -1.4264
 6016TIP3    H239684   4.881   6.428   0.648  2.7691 -2.0490  0.5712
 6017TIP3   OH239685   5.385   4.578   7.233  0.3302  0.1283 -0.3649
 6017TIP3    H139686   5.424   4.602   7.317  0.5756 -2.5116  0.3840
 6017TIP3    H239687   5.310   4.524   7.257  1.5518 -2.3681 -1.7334
 6018TIP3   OH239688   1.072   0.382   1.856 -0.5098  0.2634 -0.3786
 6018TIP3    H139689   1.122   0.384   1.774  0.7807 -1.8138  0.2902
 6018TIP3    H239690   1.080   0.292   1.887 -0.1769  1.1824  2.5014
 6019TIP3   OH239691   1.917   6.566   0.065  0.4069 -0.6208 -0.5219
 6019TIP3    H139692   1.969   6.488   0.045  1.7066  0.3187 -0.9387
 6019TIP3    H239693   1.829   6.544   0.038  1.0827 -1.3475 -2.2429
 6020TIP3   OH239694   3.697   5.153   1.531  0.0577 -0.1554 -0.1741
 6020TIP3    H139695   3.790   5.164   1.550 -0.0005  1.6254 -0.7992
 6020TIP3    H239696   3.652   5.191   1.606 -0.1656 -0.3566 -0.2045
 6021TIP3   OH239697   6.282   4.458   2.435  0.5012 -0.4300  0.2252
 6021TIP3    H139698   6.335   4.382   2.411 -0.1473 -0.6496 -0.5250
 6021TIP3    H239699   6.196   4.422   2.456  0.5923 -0.0581  1.2938
 6022TIP3   OH239700   4.731   1.526   7.826 -0.2427 -0.0349 -0.1871
 6022TIP3    H139701   4.735   1.621   7.817  2.5231 -0.0860 -0.2232
 6022TIP3    H239702   4.742   1.493   7.738  1.9181 -0.3365  0.1297
 6023TIP3   OH239703   4.766   4.805   7.860  0.0246  0.5206  0.0168
 6023TIP3    H139704   4.770   4.716   7.895  1.9314  1.3817  2.3220
 6023TIP3    H239705   4.781   4.795   7.766 -3.1974 -1.7844 -0.4109
 6024TIP3   OH239706   2.337   4.434   8.834 -0.0442  0.2051 -0.3634
 6024TIP3    H139707   2.301   4.503   8.889  0.8209  1.0273 -0.7816
 6024TIP3    H239708   2.267   4.369   8.827 -0.3445  0.3119  1.2690
 6025TIP3   OH239709   3.194   4.867   7.361  0.0488 -0.1450 -0.4883
 6025TIP3    H139710   3.285   4.843   7.346 -0.1622 -2.2013  1.0258
 6025TIP3    H239711   3.149   4.839   7.281  0.7119  0.8488 -1.2302
 6026TIP3   OH239712   0.557   6.301   0.775  0.2296 -0.5329  0.6028
 6026TIP3    H139713   0.568   6.373   0.713  0.6936 -0.5192  0.7010
 6026TIP3    H239714   0.601   6.227   0.735  1.3068 -0.2967  1.3047
 6027TIP3   OH239715   4.507   4.302   0.312 -0.1622  0.2098 -0.1316
 6027TIP3    H139716   4.554   4.367   0.261 -0.3799 -1.6902 -2.9572
 6027TIP3    H239717   4.415   4.316   0.290 -0.3864  0.0848  0.6809
 6028TIP3   OH239718   2.790   2.865   7.342 -0.4736  0.2312 -0.1944
 6028TIP3    H139719   2.882   2.842   7.327 -0.5836 -1.2225  1.0691
 6028TIP3    H239720   2.788   2.961   7.335  1.5584  0.5082  1.7198
 6029TIP3   OH239721   2.189   0.434   8.508  0.3581  0.0621  0.3341
 6029TIP3    H139722   2.192   0.440   8.603  1.0439  0.8795  0.2715
 6029TIP3    H239723   2.176   0.341   8.490  1.6410 -0.3109  1.2119
 6030TIP3   OH239724   6.367   3.283   6.667  0.1846  0.6313  0.6129
 6030TIP3    H139725   6.427   3.211   6.648 -0.9996  0.0171 -0.9588
 6030TIP3    H239726   6.419   3.362   6.653  0.8955  0.1018  0.2300
 6031TIP3   OH239727   1.778   2.321   8.945 -0.5111 -0.0437  0.1441
 6031TIP3    H139728   1.807   2.337   9.035  0.1042  1.5520 -0.2921
 6031TIP3    H239729   1.744   2.232   8.946  0.0655 -0.2855  1.8086
 6032TIP3   OH239730   2.676   0.462   0.628  0.2152  0.4731  0.1184
 6032TIP3    H139731   2.627   0.517   0.689 -1.8492  0.4659 -1.3940
 6032TIP3    H239732   2.738   0.522   0.587  2.4008  0.2540  2.8602
 6033TIP3   OH239733   1.970   5.837   7.298 -0.2686  0.0683 -0.7896
 6033TIP3    H139734   2.028   5.855   7.372  1.0434 -0.4082 -1.6696
 6033TIP3    H239735   1.928   5.921   7.280 -0.5388  0.2085  0.4273
 6034TIP3   OH239736   5.752   1.150   0.218 -0.1641  0.3173  0.3437
 6034TIP3    H139737   5.846   1.148   0.200 -0.2971  1.2631 -0.5930
 6034TIP3    H239738   5.712   1.116   0.138 -0.6678  1.4819  0.0740
 6035TIP3   OH239739   4.047   5.068   8.956 -0.4174  0.1261  0.4188
 6035TIP3    H139740   4.106   4.998   8.985  0.2388  1.2735  2.0244
 6035TIP3    H239741   4.066   5.079   8.863  0.9483 -0.4619  0.6008
 6036TIP3   OH239742   5.782   0.071   7.511  0.0354 -0.7713  0.0918
 6036TIP3    H139743   5.846   0.055   7.442 -0.5134 -2.6644 -0.0405
 6036TIP3    H239744   5.833   0.106   7.584  0.6926  0.8099 -1.0818
 6037TIP3   OH239745   4.741   0.540   0.407  0.3502  0.2637  0.3419
 6037TIP3    H139746   4.820   0.512   0.361  0.4423  0.4379  0.3905
 6037TIP3    H239747   4.669   0.510   0.353  0.4153 -1.1233  0.9964
 6038TIP3   OH239748   3.388   6.621   8.205 -0.1926  0.0643 -0.6503
 6038TIP3    H139749   3.357   6.662   8.124  0.9159 -0.9324 -1.6252
 6038TIP3    H239750   3.470   6.666   8.225 -0.5739  0.4561  0.0568
 6039TIP3   OH239751   0.281   0.905   8.393  0.4981 -0.4777  0.6636
 6039TIP3    H139752   0.186   0.905   8.382  0.4234 -0.5645  1.2967
 6039TIP3    H239753   0.295   0.881   8.485  1.1292 -0.3992  0.5920
 6040TIP3   OH239754   0.576   3.509   8.333 -0.7918 -0.9064 -0.6017
 6040TIP3    H139755   0.670   3.495   8.348 -0.7736 -0.2437 -0.0324
 6040TIP3    H239756   0.537   3.422   8.337 -0.2853 -1.1177 -0.1923
 6041TIP3   OH239757   0.098   2.348   7.035 -0.6209 -0.4278  0.3520
 6041TIP3    H139758   0.075   2.267   7.081  1.7732 -0.7873  1.0643
 6041TIP3    H239759   0.065   2.418   7.092 -1.8275 -0.8649  0.2195
 6042TIP3   OH239760   3.942   4.061   2.023  0.2103 -0.2359 -0.3382
 6042TIP3    H139761   3.970   3.971   2.038  3.1100  0.8980  2.1236
 6042TIP3    H239762   3.894   4.085   2.102 -1.3445  0.1332 -1.3639
 6043TIP3   OH239763   0.156   3.880   1.613 -0.1473 -0.1764  0.5230
 6043TIP3    H139764   0.230   3.902   1.669 -1.2384  0.5711  1.7184
 6043TIP3    H239765   0.165   3.938   1.537 -0.6658  1.5366  1.6907
 6044TIP3   OH239766   5.496   3.005   0.186 -0.3812 -0.0719  0.0869
 6044TIP3    H139767   5.525   3.059   0.112 -0.7828  1.2716  0.8869
 6044TIP3    H239768   5.563   3.018   0.253  0.5200 -2.0888 -0.3613
 6045TIP3   OH239769   4.124   6.046   1.584 -0.3459  0.1423  0.2069
 6045TIP3    H139770   4.031   6.034   1.600 -0.2401 -0.0474  0.6938
 6045TIP3    H239771   4.167   6.004   1.658  0.1593 -0.6933 -0.5438
 6046TIP3   OH239772   1.783   4.676   0.072 -0.0580 -0.1010  0.3449
 6046TIP3    H139773   1.841   4.752   0.073  0.9450 -0.7964  2.9110
 6046TIP3    H239774   1.710   4.701   0.129 -0.2662 -0.6544  0.3257
 6047TIP3   OH239775   6.701   0.113   1.487 -0.2271 -0.6493 -0.2206
 6047TIP3    H139776   6.629   0.098   1.548  0.3121 -0.3174  0.5208
 6047TIP3    H239777   6.677   0.193   1.441  1.4941  1.9336  2.9571
 6048TIP3   OH239778   2.339   2.486   1.424  0.1493  0.2175 -0.2633
 6048TIP3    H139779   2.374   2.467   1.511  2.4597 -0.0903 -1.1892
 6048TIP3    H239780   2.368   2.576   1.406  2.0028 -0.6046 -1.7074
 6049TIP3   OH239781   4.657   2.141   1.020  0.6499 -0.3434  0.2144
 6049TIP3    H139782   4.583   2.128   0.960  0.1235  0.5866  0.6560
 6049TIP3    H239783   4.721   2.189   0.968  0.2029  0.4425  0.3754
 6050TIP3   OH239784   2.179   4.196   8.314 -0.8883  0.6201 -0.1767
 6050TIP3    H139785   2.175   4.260   8.385 -2.2939  0.4462 -0.0768
 6050TIP3    H239786   2.136   4.118   8.349  1.1760 -0.5719 -0.1443
 6051TIP3   OH239787   1.423   2.707   0.690  0.2617  0.1834  0.5458
 6051TIP3    H139788   1.488   2.670   0.629  0.7244  0.5143  0.8311
 6051TIP3    H239789   1.411   2.797   0.660 -0.0034  0.1457  0.5429
 6052TIP3   OH239790   0.453   4.596   0.862 -0.0159  0.6307 -0.2096
 6052TIP3    H139791   0.421   4.687   0.862 -2.8923 -0.2212 -2.6492
 6052TIP3    H239792   0.533   4.599   0.810  1.1496  2.0114  1.5216
 6053TIP3   OH239793   2.094   0.243   1.594 -0.4254  0.1096 -0.2534
 6053TIP3    H139794   2.112   0.167   1.650 -1.8238  0.1464  0.3130
 6053TIP3    H239795   2.122   0.318   1.646  0.8686  0.0000 -0.7737
 6054TIP3   OH239796   0.214   2.760   2.052  0.1790  0.3117  0.8129
 6054TIP3    H139797   0.215   2.764   1.956 -1.4246  0.2804  0.7649
 6054TIP3    H239798   0.275   2.689   2.074  0.3001  0.0882 -0.1956
 6055TIP3   OH239799   6.130   5.253   0.126  0.2503 -0.3829  0.3611
 6055TIP3    H139800   6.219   5.282   0.105  0.0451  0.0583  0.0943
 6055TIP3    H239801   6.106   5.306   0.202  0.2464 -0.5646  0.4866
 6056TIP3   OH239802   4.416   4.970   8.803  0.1650 -0.4331  0.3556
 6056TIP3    H139803   4.336   4.992   8.756  1.0491  1.2134 -0.4754
 6056TIP3    H239804   4.457   4.902   8.750  0.1382 -0.0701 -0.1347
 6057TIP3   OH239805   5.026   1.515   0.318 -0.6621  0.1416 -0.0629
 6057TIP3    H139806   5.115   1.549   0.310 -0.1233 -1.0259  0.7557
 6057TIP3    H239807   5.009   1.513   0.412 -1.8983  1.1502 -0.2260
 6058TIP3   OH239808   5.755   1.675   1.137  0.6042  0.3410 -0.8267
 6058TIP3    H139809   5.734   1.611   1.069  0.7438 -1.5416  0.8112
 6058TIP3    H239810   5.725   1.635   1.218  1.4534  2.0135  0.3826
 6059TIP3   OH239811   2.436   1.666   8.616 -0.0169  0.3462  0.1765
 6059TIP3    H139812   2.348   1.636   8.637  0.1983 -0.4926 -0.0689
 6059TIP3    H239813   2.491   1.631   8.686  0.2792 -0.0856 -0.2605
 6060TIP3   OH239814   2.368   5.863   8.995 -0.3057  0.2394 -0.1445
 6060TIP3    H139815   2.299   5.811   8.953 -1.6786  1.2858  0.7098
 6060TIP3    H239816   2.435   5.799   9.019 -1.1046 -0.8644 -0.7461
 6061TIP3   OH239817   4.384   0.392   7.573 -0.2441  0.0046  0.9098
 6061TIP3    H139818   4.341   0.418   7.492 -1.3203  0.1840  1.5206
 6061TIP3    H239819   4.467   0.441   7.574 -0.6594  0.7325  0.3737
 6062TIP3   OH239820   1.651   3.040   7.477 -0.0197 -0.0421 -0.3077
 6062TIP3    H139821   1.712   3.002   7.540 -1.3004 -1.5146  0.1124
 6062TIP3    H239822   1.699   3.042   7.394  0.6996 -0.8902  0.0753
 6063TIP3   OH239823   0.254   1.987   0.267  0.7095 -0.2687 -0.7372
 6063TIP3    H139824   0.275   2.073   0.305 -1.1885 -0.3725  0.6568
 6063TIP3    H239825   0.169   2.000   0.225  0.3795 -1.4913 -0.4585
 6064TIP3   OH239826   6.199   2.461   8.255  0.0227 -0.4569  0.1143
 6064TIP3    H139827   6.220   2.396   8.322 -0.4193 -0.4626  0.2494
 6064TIP3    H239828   6.116   2.500   8.284  0.9645  1.1615  0.7844
 6065TIP3   OH239829   0.206   1.145   8.844 -0.1522  0.4699  0.5596
 6065TIP3    H139830   0.257   1.226   8.851 -0.6419  0.7798  0.5318
 6065TIP3    H239831   0.188   1.136   8.751 -0.5711  0.6239  0.6237
 6066TIP3   OH239832   5.175   1.909   1.485  0.5385 -0.5438  0.5360
 6066TIP3    H139833   5.137   1.985   1.531 -3.7398 -1.2866 -1.3570
 6066TIP3    H239834   5.180   1.841   1.552 -1.9087 -0.4535  0.9083
 6067TIP3   OH239835   3.263   3.272   8.540  0.4805 -0.2782 -0.1555
 6067TIP3    H139836   3.315   3.344   8.503 -0.2301 -0.2042 -1.0351
 6067TIP3    H239837   3.302   3.193   8.501  0.7998 -0.3236  0.2490
 6068TIP3   OH239838   4.497   4.710   7.413  0.1571 -0.0430 -0.2885
 6068TIP3    H139839   4.531   4.798   7.397 -0.0571  0.0089 -0.4728
 6068TIP3    H239840   4.405   4.724   7.438 -0.2586 -0.2865 -1.6009
 6069TIP3   OH239841   3.151   0.570   2.914  0.2038  0.2722 -0.1700
 6069TIP3    H139842   3.096   0.642   2.944  0.6052  0.9264 -0.9696
 6069TIP3    H239843   3.203   0.546   2.991 -0.9202 -0.1126  0.4854
 6070TIP3   OH239844   2.850   3.180   0.120 -0.1258  0.0738  0.4691
 6070TIP3    H139845   2.917   3.111   0.115  0.5403  0.7906 -1.0073
 6070TIP3    H239846   2.772   3.140   0.081 -0.2766 -0.4215  1.2510
 6071TIP3   OH239847   1.413   2.099   8.929 -0.0993 -0.0357 -0.0599
 6071TIP3    H139848   1.392   2.183   8.889 -0.7990  0.8947  2.0668
 6071TIP3    H239849   1.337   2.078   8.983 -0.3867 -2.6004 -1.3022
 6072TIP3   OH239850   0.571   0.988   1.351  0.0253  0.1024  0.5094
 6072TIP3    H139851   0.652   0.952   1.387 -0.2928 -0.8299  0.3342
 6072TIP3    H239852   0.589   1.001   1.258  0.6054  1.8034  0.8270
 6073TIP3   OH239853   1.226   4.516   7.080  0.5052 -0.2058  0.3313
 6073TIP3    H139854   1.217   4.505   7.175 -0.8697  0.1210  0.2659
 6073TIP3    H239855   1.136   4.514   7.048  0.9705 -0.5202 -0.9997
 6074TIP3   OH239856   0.061   4.191   0.793 -0.0566 -0.3698 -0.1651
 6074TIP3    H139857  -0.012   4.179   0.733  0.8651  1.2751 -1.7182
 6074TIP3    H239858   0.021   4.212   0.877 -1.3741 -0.2404 -0.8085
 6075TIP3   OH239859   3.157   1.519   0.386 -0.4025 -0.6922 -0.4058
 6075TIP3    H139860   3.142   1.595   0.441  2.3525 -0.4951  0.2116
 6075TIP3    H239861   3.085   1.521   0.322 -2.2164  0.5285  1.5420
 6076TIP3   OH239862   4.812   2.020   0.753  0.5385  0.5099  0.1286
 6076TIP3    H139863   4.795   2.110   0.780 -2.0471  0.0330  0.3251
 6076TIP3    H239864   4.739   1.970   0.789  1.3096 -1.4885 -0.9301
 6077TIP3   OH239865   0.171   4.845   2.033 -0.1090 -0.0331  0.3666
 6077TIP3    H139866   0.254   4.797   2.029 -0.8650 -1.3587  0.0439
 6077TIP3    H239867   0.106   4.779   2.053 -1.3486  0.6557 -1.1782
 6078TIP3   OH239868   0.747   3.044   7.377 -0.0884 -0.0529 -0.1682
 6078TIP3    H139869   0.674   2.991   7.408  0.9890 -0.2511  2.2517
 6078TIP3    H239870   0.819   2.983   7.368  1.0964  0.8056  2.3869
 6079TIP3   OH239871   1.948   5.800   8.040 -0.4808  0.5288 -0.3724
 6079TIP3    H139872   1.899   5.772   8.117 -1.6607  1.2798 -0.8175
 6079TIP3    H239873   2.035   5.760   8.050 -0.1716  1.6663  1.9650
 6080TIP3   OH239874   0.478   5.960   1.920  0.1332  0.3378  0.8447
 6080TIP3    H139875   0.417   5.899   1.962 -0.4861  1.1163  1.0973
 6080TIP3    H239876   0.517   6.009   1.992  2.1004 -1.0650  0.7984
 6081TIP3   OH239877   1.451   4.048   1.706  0.2934 -0.5255 -1.3727
 6081TIP3    H139878   1.545   4.063   1.701  0.0560  1.3175 -0.9893
 6081TIP3    H239879   1.418   4.071   1.619  0.1872 -1.2981 -1.5490
 6082TIP3   OH239880   1.970   6.154   0.575 -0.9453  0.0722  0.2618
 6082TIP3    H139881   1.959   6.074   0.523 -1.5749 -0.0266  0.5371
 6082TIP3    H239882   1.979   6.224   0.510  0.3587 -0.3039  0.0107
 6083TIP3   OH239883   3.489   0.387   7.396  0.2575  0.2701  0.7353
 6083TIP3    H139884   3.432   0.464   7.392  1.0370  0.8948  1.3180
 6083TIP3    H239885   3.429   0.313   7.407 -0.6338  0.5531 -1.6704
 6084TIP3   OH239886   2.859   5.342   1.700  0.1425 -0.0402  0.0898
 6084TIP3    H139887   2.865   5.357   1.794 -0.2840  0.0812  0.0983
 6084TIP3    H239888   2.855   5.430   1.662 -0.4609 -0.0966  0.0115
 6085TIP3   OH239889   1.180   2.182   7.952 -0.5192  0.0295  0.1154
 6085TIP3    H139890   1.086   2.182   7.932 -0.8035 -2.3728  1.0772
 6085TIP3    H239891   1.221   2.153   7.871 -0.4336  2.2333 -0.6893
 6086TIP3   OH239892   5.012   2.540   1.144  0.1831  0.2790  0.1523
 6086TIP3    H139893   4.952   2.474   1.109  0.1377  0.6814 -0.5695
 6086TIP3    H239894   5.099   2.506   1.124  0.1910 -0.0864  0.7862
 6087TIP3   OH239895   3.192   1.230   1.340  0.1361  0.2464 -0.5303
 6087TIP3    H139896   3.129   1.299   1.360  1.7352  2.2090 -1.8937
 6087TIP3    H239897   3.182   1.214   1.246  1.3000  0.2338 -0.6688
 6088TIP3   OH239898   0.380   3.940   0.143 -0.4502 -0.2463 -0.4541
 6088TIP3    H139899   0.306   3.930   0.082 -1.7946 -0.5682  1.1456
 6088TIP3    H239900   0.356   4.015   0.197  0.5930 -0.1083 -0.1692
 6089TIP3   OH239901   4.461   2.425   8.015 -0.2401  0.1252 -0.0943
 6089TIP3    H139902   4.486   2.333   8.026  0.6915  0.2579 -0.9743
 6089TIP3    H239903   4.389   2.422   7.952  1.0554  0.1192 -1.6223
 6090TIP3   OH239904   6.649   0.183   0.784 -0.3067  0.3845 -0.4988
 6090TIP3    H139905   6.596   0.248   0.738  0.1910 -0.3088 -2.1367
 6090TIP3    H239906   6.591   0.106   0.791 -0.1116  0.2145 -0.7239
 6091TIP3   OH239907   2.962   6.461   0.663 -0.4470 -0.1430  0.3400
 6091TIP3    H139908   2.920   6.377   0.683 -1.3152 -0.0059 -0.8079
 6091TIP3    H239909   2.921   6.490   0.581  0.1962  1.1632  0.4483
 6092TIP3   OH239910   2.452   3.703   1.930 -0.2186 -0.4244 -0.2305
 6092TIP3    H139911   2.495   3.620   1.912 -0.2124 -0.6649  0.8079
 6092TIP3    H239912   2.514   3.750   1.987 -0.7630 -0.2332  0.2115
 6093TIP3   OH239913   2.434   3.284   1.118 -0.1166  0.1859 -0.0607
 6093TIP3    H139914   2.521   3.249   1.138  0.1584 -0.5615 -2.3083
 6093TIP3    H239915   2.449   3.377   1.103  0.5899 -0.1717 -1.7780
 6094TIP3   OH239916   6.576   6.195   7.514 -0.0238 -0.8595 -0.3434
 6094TIP3    H139917   6.670   6.186   7.505 -0.2049 -1.6619 -1.6187
 6094TIP3    H239918   6.549   6.120   7.566 -0.0701 -1.1526 -0.7872
 6095TIP3   OH239919   6.255   1.068   2.441 -0.1792  0.4780 -0.5999
 6095TIP3    H139920   6.231   1.054   2.533 -0.3084  0.9296 -0.5627
 6095TIP3    H239921   6.210   0.999   2.393  0.1365  0.0510 -0.2866
 6096TIP3   OH239922   1.599   5.624   0.691  1.2457 -0.4277 -0.2278
 6096TIP3    H139923   1.546   5.695   0.657  2.6340 -0.3665 -2.4638
 6096TIP3    H239924   1.675   5.667   0.732  1.2018 -0.5932  0.0332
 6097TIP3   OH239925   5.110   1.292   1.738  0.2032  0.1403  0.1939
 6097TIP3    H139926   5.161   1.267   1.661  0.9250  0.6233  0.5032
 6097TIP3    H239927   5.131   1.225   1.803 -1.6699 -1.2104 -0.5144
 6098TIP3   OH239928   5.218   2.055   8.788 -0.4397 -0.9377  0.1410
 6098TIP3    H139929   5.278   2.116   8.745 -0.2248 -1.4939 -0.3564
 6098TIP3    H239930   5.139   2.057   8.733  0.3854 -2.8117 -1.2053
 6099TIP3   OH239931   5.402   0.460   0.134  0.2912 -0.0466 -0.5048
 6099TIP3    H139932   5.497   0.468   0.130  0.1808  1.4657 -0.4836
 6099TIP3    H239933   5.371   0.495   0.051 -0.4329  3.9160  1.2126
 6100TIP3   OH239934   0.093   4.228   8.951 -0.3984  0.1231 -0.0462
 6100TIP3    H139935   0.111   4.246   9.043 -2.4218 -1.3388  0.7285
 6100TIP3    H239936   0.068   4.135   8.950  0.5098 -0.1568 -2.2412
 6101TIP3   OH239937   5.459   1.536   8.714 -0.6273  0.3992  0.4276
 6101TIP3    H139938   5.433   1.566   8.801  1.0470  0.5244  0.9361
 6101TIP3    H239939   5.533   1.478   8.730  0.0427  0.8291 -0.9333
 6102TIP3   OH239940   2.455   6.595   1.297 -0.0320 -0.1817  0.0029
 6102TIP3    H139941   2.397   6.662   1.262 -0.4519  0.6018  2.0764
 6102TIP3    H239942   2.512   6.641   1.358  0.1508 -1.5942  0.9491
 6103TIP3   OH239943   3.556   5.873   8.360 -0.0486  0.4181  0.2886
 6103TIP3    H139944   3.467   5.841   8.347  0.2967 -0.2774 -0.4450
 6103TIP3    H239945   3.546   5.967   8.374 -0.7125  0.8412 -2.4426
 6104TIP3   OH239946   4.046   1.834   1.280  0.3400 -0.2200 -0.5517
 6104TIP3    H139947   4.114   1.851   1.215  0.6633 -2.2816 -0.8415
 6104TIP3    H239948   3.991   1.767   1.239 -1.5708  0.9968 -0.0973
 6105TIP3   OH239949   6.454   5.942   1.978 -0.2672 -0.4397  0.0323
 6105TIP3    H139950   6.420   5.924   2.065 -1.4320 -0.0156 -0.3135
 6105TIP3    H239951   6.381   5.984   1.932  1.1607  1.8792 -0.2988
 6106TIP3   OH239952   1.982   3.342   1.563  0.0473 -0.0083  0.2670
 6106TIP3    H139953   1.927   3.388   1.627  0.9676 -1.0347  1.8694
 6106TIP3    H239954   1.922   3.316   1.493 -1.2107  0.1948  1.2458
 6107TIP3   OH239955   3.215   2.235   0.861  0.0575 -0.7191 -0.3113
 6107TIP3    H139956   3.147   2.168   0.865 -1.5034  0.4873 -3.2033
 6107TIP3    H239957   3.246   2.232   0.771  0.8822  1.5105 -0.1650
 6108TIP3   OH239958   6.626   2.322   8.711 -0.3320 -0.1833 -0.0313
 6108TIP3    H139959   6.572   2.330   8.789 -0.3823  0.8643 -0.1571
 6108TIP3    H239960   6.622   2.409   8.670 -1.6209 -1.1288 -2.0549
 6109TIP3   OH239961   5.026   4.650   0.940 -0.5705 -0.1254 -0.2886
 6109TIP3    H139962   5.024   4.565   0.897 -1.6531  1.1635 -3.0220
 6109TIP3    H239963   4.935   4.665   0.966 -0.2393 -0.0999  0.9455
 6110TIP3   OH239964   0.154   2.465   2.236 -0.0807 -0.1675 -0.1094
 6110TIP3    H139965   0.084   2.493   2.177  0.1176 -0.3344 -0.4214
 6110TIP3    H239966   0.234   2.472   2.185  0.2189  0.6636  0.4647
 6111TIP3   OH239967   3.908   3.266   0.469 -0.2374  0.3747 -0.3130
 6111TIP3    H139968   3.891   3.229   0.382 -0.8759  1.5273 -0.6926
 6111TIP3    H239969   3.944   3.353   0.452 -1.2021  0.9788  0.5632
 6112TIP3   OH239970   0.008   2.854   7.316 -0.1593  0.4928  0.2208
 6112TIP3    H139971  -0.037   2.936   7.339 -0.2225 -0.0764  2.3491
 6112TIP3    H239972  -0.055   2.785   7.337  0.5795 -0.1766  0.2813
 6113TIP3   OH239973   5.710   2.206   2.134  0.2920 -0.2937 -0.1524
 6113TIP3    H139974   5.627   2.235   2.095 -0.5150 -0.6680  1.1995
 6113TIP3    H239975   5.741   2.281   2.184 -0.4633 -0.8347  1.2202
 6114TIP3   OH239976   1.258   5.038   1.446  0.6262  0.6564  0.1316
 6114TIP3    H139977   1.249   4.942   1.450  0.8512  0.6652  1.0630
 6114TIP3    H239978   1.212   5.063   1.366 -0.9358 -0.0591  0.7549
 6115TIP3   OH239979   4.533   6.113   7.652 -0.0353 -0.5356  0.7370
 6115TIP3    H139980   4.464   6.170   7.619 -1.7094 -2.3700  0.8444
 6115TIP3    H239981   4.486   6.037   7.688  1.8833 -0.4176  3.8014
 6116TIP3   OH239982   1.994   4.571   7.347 -0.7851  0.4139  0.1147
 6116TIP3    H139983   2.038   4.506   7.293  1.1260  2.3688 -0.8351
 6116TIP3    H239984   1.970   4.641   7.286 -1.2296  1.3732  1.3463
 6117TIP3   OH239985   5.066   6.653   1.151  0.1877 -0.6708 -0.2573
 6117TIP3    H139986   5.035   6.563   1.149  0.5378 -0.8126  0.6147
 6117TIP3    H239987   5.097   6.667   1.240 -3.7150  1.6113  1.0129
 6118TIP3   OH239988   3.465   4.669   1.598 -0.2824  0.0027  0.6036
 6118TIP3    H139989   3.520   4.746   1.614 -1.5337  1.2163 -0.5925
 6118TIP3    H239990   3.378   4.705   1.582 -0.8263 -1.6443 -0.3933
 6119TIP3   OH239991   4.739   3.944   0.491  0.0308  0.0748  0.0309
 6119TIP3    H139992   4.645   3.961   0.498  0.3625  2.6629 -0.9484
 6119TIP3    H239993   4.761   3.967   0.401  1.6376 -0.4200  0.2764
 6120TIP3   OH239994   3.269   4.517   7.152  0.1105  0.0425  0.4633
 6120TIP3    H139995   3.188   4.467   7.166 -1.4631  2.4854  0.6166
 6120TIP3    H239996   3.282   4.512   7.057 -0.3180 -0.2053  0.4106
 6121TIP3   OH239997   6.665   6.116   1.515 -0.1462  0.2491 -0.7364
 6121TIP3    H139998   6.650   6.124   1.421 -0.5885 -0.5988 -0.7501
 6121TIP3    H239999   6.712   6.195   1.539 -0.3131  0.6226 -1.6153
 6122TIP3   OH240000   1.107   3.554   8.719 -0.1357  0.2691 -0.8004
 6122TIP3    H140001   1.136   3.533   8.630 -1.1724 -0.6167 -0.9484
 6122TIP3    H240002   1.189   3.565   8.768  0.4558  0.1337 -1.7176
 6123TIP3   OH240003   3.763   6.094   2.082  0.3215  0.3856 -0.2051
 6123TIP3    H140004   3.765   6.189   2.074 -3.8320  0.7392  0.3507
 6123TIP3    H240005   3.824   6.074   2.153  0.1261  2.8522  0.7379
 6124TIP3   OH240006   3.932   0.521   8.339 -0.0389  0.1070 -0.2703
 6124TIP3    H140007   3.854   0.465   8.335 -0.2937  0.3727  0.6134
 6124TIP3    H240008   3.976   0.508   8.255 -1.9211  1.2395 -1.5038
 6125TIP3   OH240009   5.070   2.043   7.221  0.3752  0.3636  0.1547
 6125TIP3    H140010   5.034   2.131   7.220 -2.1552 -0.5822 -0.1789
 6125TIP3    H240011   5.138   2.044   7.153  0.1005  1.9288 -0.1325
 6126TIP3   OH240012   0.823   4.317   7.273 -0.3785 -0.8862  0.2907
 6126TIP3    H140013   0.829   4.222   7.277 -1.2137 -0.9366  0.5379
 6126TIP3    H240014   0.795   4.336   7.183  0.8723 -0.8008 -0.0927
 6127TIP3   OH240015   4.505   0.726   8.205  0.0855 -0.8336 -0.2774
 6127TIP3    H140016   4.534   0.765   8.123  0.2262 -1.8369 -0.7150
 6127TIP3    H240017   4.466   0.799   8.254  2.4952  0.3768 -0.0198
 6128TIP3   OH240018   2.232   4.404   1.172 -0.5000  0.1672  0.1236
 6128TIP3    H140019   2.141   4.373   1.183 -0.3546  0.2157  1.8317
 6128TIP3    H240020   2.273   4.386   1.257  0.4320  2.3414  0.1879
 6129TIP3   OH240021   0.433   3.867   7.607  0.5527  0.2886 -0.4080
 6129TIP3    H140022   0.342   3.869   7.575  0.8851 -1.4478 -1.5753
 6129TIP3    H240023   0.425   3.842   7.699 -0.1388 -0.3678 -0.6374
 6130TIP3   OH240024   1.215   4.647   2.146  0.4315  0.6409 -0.1009
 6130TIP3    H140025   1.165   4.605   2.077 -1.4579  0.3330  1.3583
 6130TIP3    H240026   1.198   4.595   2.224 -1.3831  3.5361  1.6361
 6131TIP3   OH240027   0.649   6.078   8.982 -0.5718  0.0604 -0.1157
 6131TIP3    H140028   0.576   6.103   8.926 -0.0084  0.2125 -0.8018
 6131TIP3    H240029   0.614   6.082   9.071 -1.1797  0.8926 -0.3792
 6132TIP3   OH240030   6.261   4.798   0.018 -0.2223 -0.3085 -0.0260
 6132TIP3    H140031   6.168   4.820   0.011 -0.3932 -0.5971  1.0793
 6132TIP3    H240032   6.262   4.704   0.036  0.2036 -0.0753  1.2588
 6133TIP3   OH240033   4.525   2.232   0.449  0.5446  0.2632 -0.7430
 6133TIP3    H140034   4.598   2.291   0.470 -0.6290  1.0044  1.6329
 6133TIP3    H240035   4.549   2.149   0.490  1.4300 -0.4819 -2.6635
 6134TIP3   OH240036   5.968   2.759   2.332  0.3941 -0.0862 -0.3991
 6134TIP3    H140037   5.874   2.748   2.343  0.5953 -2.0880 -0.2788
 6134TIP3    H240038   5.995   2.813   2.406 -0.5642 -0.1297 -0.0058
 6135TIP3   OH240039   1.816   5.861   1.232  0.4803 -0.4429  0.5193
 6135TIP3    H140040   1.886   5.896   1.177  1.1679  0.9408  2.1884
 6135TIP3    H240041   1.859   5.794   1.286  0.2273 -0.4879  0.6674
 6136TIP3   OH240042   1.729   3.021   0.987  0.2727 -0.2524  0.1729
 6136TIP3    H140043   1.639   3.050   0.975  0.3690  0.1011  0.2897
 6136TIP3    H240044   1.779   3.102   1.000  0.6557 -0.4252 -0.2041
 6137TIP3   OH240045   4.476   2.032   1.505 -1.2318 -0.2630 -0.0011
 6137TIP3    H140046   4.434   2.116   1.524  1.6254  1.4922 -0.9227
 6137TIP3    H240047   4.463   2.018   1.412 -1.8276 -0.9466  0.1771
 6138TIP3   OH240048   5.236   2.468   0.778  0.2591  0.5239  0.3239
 6138TIP3    H140049   5.233   2.514   0.862 -0.3589  0.6771  0.2251
 6138TIP3    H240050   5.324   2.430   0.774 -0.2408 -0.9242  1.8177
 6139TIP3   OH240051   1.610   4.980   1.172 -0.3935 -0.1181 -0.0937
 6139TIP3    H140052   1.572   5.054   1.126 -2.0144 -0.0982  1.1506
 6139TIP3    H240053   1.705   4.992   1.164 -0.6095  1.9723 -0.1066
 6140TIP3   OH240054   5.379   0.782   8.684 -0.0604  0.6638 -0.0930
 6140TIP3    H140055   5.376   0.876   8.704 -0.7936  0.6280  0.0009
 6140TIP3    H240056   5.427   0.776   8.602 -0.8818  1.2204 -0.6299
 6141TIP3   OH240057   0.701   4.432   2.511 -0.0635 -0.1098 -0.4400
 6141TIP3    H140058   0.733   4.481   2.436 -0.3785  1.1438  0.2148
 6141TIP3    H240059   0.606   4.425   2.497 -0.3304  1.2933  0.4538
 6142TIP3   OH240060   5.312   2.143   7.863 -0.5464 -0.3814  0.0739
 6142TIP3    H140061   5.387   2.142   7.803 -1.7073 -0.7673 -1.4243
 6142TIP3    H240062   5.290   2.051   7.875 -2.3843 -0.2466 -1.6630
 6143TIP3   OH240063   4.872   6.593   1.412  0.6632 -0.9613 -0.1389
 6143TIP3    H140064   4.926   6.671   1.423  0.6221 -1.2416  2.7752
 6143TIP3    H240065   4.784   6.621   1.438  0.3878 -1.7021 -0.2371
 6144TIP3   OH240066   5.717   0.702   8.058 -0.1590 -0.3756  0.5467
 6144TIP3    H140067   5.715   0.725   8.151 -0.7256 -0.5290  0.5740
 6144TIP3    H240068   5.804   0.731   8.029 -0.0092 -0.2466  1.1001
 6145TIP3   OH240069   5.826   1.539   1.907 -0.1707  0.5566 -0.0592
 6145TIP3    H140070   5.764   1.470   1.883 -0.0082  0.0949  0.8100
 6145TIP3    H240071   5.834   1.532   2.002  1.3595  0.4964 -0.1709
 6146TIP3   OH240072   3.409   2.943   0.854 -0.2190  0.0260  0.6114
 6146TIP3    H140073   3.503   2.937   0.840 -0.0544 -0.2388  1.7320
 6146TIP3    H240074   3.382   3.021   0.805  0.7177  0.5781  0.9483
 6147TIP3   OH240075   6.567   0.961   0.653 -0.0798 -0.3384  0.2831
 6147TIP3    H140076   6.619   1.040   0.670  0.4836 -0.8501  0.9742
 6147TIP3    H240077   6.626   0.904   0.604 -0.2043 -0.6670  0.5129
 6148TIP3   OH240078   4.554   4.732   8.041  0.0432 -0.3251  1.1322
 6148TIP3    H140079   4.595   4.813   8.012 -1.6411  0.4435  0.7747
 6148TIP3    H240080   4.600   4.708   8.121  0.6668  0.8997  1.1552
 6149TIP3   OH240081   5.982   3.722   0.824  0.0250 -0.3306  0.0850
 6149TIP3    H140082   6.044   3.651   0.842 -2.3548 -2.1770  1.6299
 6149TIP3    H240083   5.924   3.722   0.900 -2.6747  0.4026 -1.8388
 6150TIP3   OH240084   6.451   2.911   1.083 -0.6456 -0.3664 -0.3858
 6150TIP3    H140085   6.479   2.947   1.167  2.1730 -0.1406 -1.3092
 6150TIP3    H240086   6.359   2.934   1.076 -0.1629  2.5212  1.1739
 6151TIP3   OH240087   5.941   4.801   8.985  0.0138 -0.7097 -0.3499
 6151TIP3    H140088   5.971   4.867   9.048  0.6604  0.4249 -1.7604
 6151TIP3    H240089   5.877   4.748   9.033  2.6714 -1.8980  2.2047
 6152TIP3   OH240090   0.913   2.818   7.326 -0.5264 -0.3608  0.4109
 6152TIP3    H140091   0.998   2.814   7.282 -0.2820  1.9296  0.5806
 6152TIP3    H240092   0.926   2.770   7.407  0.5772 -0.1347  0.3781
 6153TIP3   OH240093   0.113   1.825   1.664 -0.6276  0.0179  0.1328
 6153TIP3    H140094   0.154   1.834   1.578  1.8034  2.4781  1.4077
 6153TIP3    H240095   0.176   1.774   1.716 -2.2414 -1.7958  0.4520
 6154TIP3   OH240096   1.364   6.098   0.963  0.2252  0.1482 -0.3695
 6154TIP3    H140097   1.367   6.126   1.054 -0.4912  0.4648 -0.4397
 6154TIP3    H240098   1.384   6.004   0.966 -2.2985 -0.4447  0.4120
 6155TIP3   OH240099   5.214   6.313   7.334 -0.1784  0.2843  0.0112
 6155TIP3    H140100   5.275   6.359   7.391  0.4877 -1.0545  0.4312
 6155TIP3    H240101   5.180   6.380   7.275  0.2115  1.4241  1.0440
 6156TIP3   OH240102   6.178   2.098   2.678 -0.7551  0.1263 -0.3309
 6156TIP3    H140103   6.084   2.083   2.692 -0.3724 -0.1267  2.5259
 6156TIP3    H240104   6.215   2.011   2.672 -0.5573  0.1920 -0.0947
 6157TIP3   OH240105   5.229   2.332   7.085  0.1119 -0.1975 -0.0310
 6157TIP3    H140106   5.209   2.354   6.994 -1.3948  0.7348  0.5047
 6157TIP3    H240107   5.146   2.340   7.131  1.3656  2.4062  2.0300
 6158TIP3   OH240108   4.673   2.723   8.002 -0.2972 -0.1646  0.1456
 6158TIP3    H140109   4.656   2.707   7.909 -0.8002 -0.9999  0.3675
 6158TIP3    H240110   4.747   2.783   8.003 -0.7979  0.5036 -0.8109
 6159TIP3   OH240111   3.414   2.511   2.019 -0.2970  0.2074 -0.1826
 6159TIP3    H140112   3.400   2.591   2.068 -1.7742  0.2018 -0.5689
 6159TIP3    H240113   3.464   2.455   2.078 -1.2297  0.5471  0.9606
 6160TIP3   OH240114   4.984   2.621   1.560  0.0558  0.4307  0.4891
 6160TIP3    H140115   5.076   2.604   1.540 -0.1929 -1.8372  0.9707
 6160TIP3    H240116   4.961   2.554   1.624 -1.9378  0.9380  0.3595
 6161TIP3   OH240117   4.612   5.568   8.398 -0.1858 -0.1805 -0.4947
 6161TIP3    H140118   4.560   5.504   8.446  2.0046 -1.0265  0.8913
 6161TIP3    H240119   4.651   5.518   8.326 -0.3492  0.1703 -0.8299
 6162TIP3   OH240120   6.675   5.571   0.982 -0.0575 -0.6424  0.5325
 6162TIP3    H140121   6.658   5.665   0.993  1.5000 -0.0000 -1.7910
 6162TIP3    H240122   6.770   5.564   0.982 -0.1055 -1.9298 -1.1047
 6163TIP3   OH240123   3.011   3.668   7.493 -0.3980 -0.3865 -0.2704
 6163TIP3    H140124   3.090   3.710   7.458 -0.4837  0.1976  0.2247
 6163TIP3    H240125   3.038   3.578   7.509  1.5223  0.6517  3.8288
 6164TIP3   OH240126   0.969   0.681   8.711  0.0021  0.0760 -0.0081
 6164TIP3    H140127   0.975   0.643   8.623 -0.1371  2.5636 -1.1771
 6164TIP3    H240128   0.881   0.659   8.741 -0.4612  0.3673 -1.1021
 6165TIP3   OH240129   4.071   1.681   1.817 -0.1358 -0.6381 -0.1981
 6165TIP3    H140130   4.024   1.752   1.860  3.2590  0.7947  1.5760
 6165TIP3    H240131   4.089   1.713   1.729 -0.4921 -0.2448 -0.1279
 6166TIP3   OH240132   0.960   3.886   8.061 -0.1965 -0.2202 -0.5291
 6166TIP3    H140133   0.948   3.930   8.146  0.4854 -0.9052 -0.0654
 6166TIP3    H240134   0.874   3.846   8.043 -0.0378 -1.0181  0.3985
 6167TIP3   OH240135   1.759   2.894   0.735  0.3010 -0.4809 -0.7427
 6167TIP3    H140136   1.740   2.962   0.800  1.2156  0.5618 -1.5185
 6167TIP3    H240137   1.722   2.929   0.654  2.5292  0.0900 -1.5880
 6168TIP3   OH240138   5.106   6.606   6.680 -0.8803  0.2692 -0.0656
 6168TIP3    H140139   5.134   6.664   6.609 -0.6584  0.6883  0.3504
 6168TIP3    H240140   5.072   6.528   6.637 -1.4268  0.8192 -0.6505
 6169TIP3   OH240141   2.319   1.573   8.168 -0.3572  0.2021  0.6520
 6169TIP3    H140142   2.253   1.519   8.211 -0.0609 -0.4461  0.3070
 6169TIP3    H240143   2.379   1.598   8.239 -0.1249 -0.4773  0.6980
 6170TIP3   OH240144   4.998   6.512   1.778 -0.2847  0.2091 -0.2653
 6170TIP3    H140145   5.001   6.453   1.853  0.3960 -0.2662 -0.6642
 6170TIP3    H240146   5.069   6.484   1.721 -0.0762  1.2831 -0.5636
 6171TIP3   OH240147   5.515   1.721   7.996 -0.1833 -0.0526  0.1949
 6171TIP3    H140148   5.512   1.627   8.012  1.0140 -0.7378 -2.8814
 6171TIP3    H240149   5.428   1.742   7.962 -0.6751  0.1300  1.5227
 6172TIP3   OH240150   1.975   5.193   6.804 -0.4629 -0.1342  0.1907
 6172TIP3    H140151   1.897   5.193   6.859 -0.3611  0.2519  0.3361
 6172TIP3    H240152   1.962   5.265   6.744 -1.5760 -1.8296 -1.7415
 6173TIP3   OH240153   5.770   5.781   7.425  0.3367  0.7936 -0.0107
 6173TIP3    H140154   5.769   5.819   7.337  3.0264 -1.1033 -1.0323
 6173TIP3    H240155   5.701   5.714   7.423 -2.1827  3.2020  0.7140
 6174TIP3   OH240156   1.980   4.693   6.664  0.4092  0.3854 -0.6706
 6174TIP3    H140157   1.884   4.702   6.664  0.2969 -0.3815  0.7818
 6174TIP3    H240158   2.012   4.773   6.624 -0.8522  0.5666 -1.3776
 6175TIP3   OH240159   5.881   2.189   0.696  0.0784  0.2835  0.4678
 6175TIP3    H140160   5.899   2.279   0.725  2.6287  0.8548 -2.3409
 6175TIP3    H240161   5.957   2.139   0.725 -0.6203 -0.6562  0.7250
 6176TIP3   OH240162   6.490   5.231   0.032  0.4430 -0.1612  0.2040
 6176TIP3    H140163   6.428   5.280  -0.022 -0.3930  1.2015  2.2866
 6176TIP3    H240164   6.437   5.160   0.070 -0.0330  1.2347  2.2945
 6177TIP3   OH240165   5.325   4.604   8.179  0.6004  0.0333  0.3990
 6177TIP3    H140166   5.310   4.675   8.116 -1.4437  0.0139  0.7929
 6177TIP3    H240167   5.284   4.528   8.140 -0.1443 -0.1270  1.4411
 6178TIP3   OH240168   1.381   4.312   8.044  0.3255  0.2095  0.1668
 6178TIP3    H140169   1.405   4.277   8.129 -1.0189 -0.0984  0.4369
 6178TIP3    H240170   1.465   4.321   7.997  0.9857 -0.4521  1.1864
 6179TIP3   OH240171   6.140   3.376   0.242  0.2122  0.2790  0.5439
 6179TIP3    H140172   6.047   3.353   0.232  0.4070 -0.7466  0.9465
 6179TIP3    H240173   6.187   3.308   0.194  0.8180 -0.2943  1.8941
 6180TIP3   OH240174   4.929   1.061   6.366 -0.2523 -0.0180  0.2313
 6180TIP3    H140175   5.013   1.015   6.364 -0.6946 -1.1141  2.6282
 6180TIP3    H240176   4.950   1.149   6.397  0.0747 -0.0632  0.1428
 6181TIP3   OH240177   6.472   0.615   0.285  0.2450 -0.2751  0.1287
 6181TIP3    H140178   6.488   0.710   0.277  0.4600 -0.4340 -2.1977
 6181TIP3    H240179   6.378   0.606   0.278  0.2266 -0.2440  0.3239
 6182TIP3   OH240180   5.405   0.540   8.256 -0.6862  0.1262  0.1725
 6182TIP3    H140181   5.416   0.536   8.161 -0.7758  0.2924  0.1540
 6182TIP3    H240182   5.447   0.622   8.282  0.7885 -0.7095  0.4932
 6183TIP3   OH240183   3.843   6.367   8.819  0.3547 -0.4127 -0.2341
 6183TIP3    H140184   3.884   6.300   8.764  1.8800  0.3281 -0.0390
 6183TIP3    H240185   3.916   6.411   8.862 -0.3525  3.0746 -2.2311
 6184TIP3   OH240186   4.350   1.508   0.322  0.3624  0.4704  0.2209
 6184TIP3    H140187   4.386   1.436   0.270 -0.5031 -0.4372  0.8227
 6184TIP3    H240188   4.260   1.480   0.341 -0.3530  2.2106 -0.4151
 6185TIP3   OH240189   0.862   4.602   1.902 -0.1837 -0.1815  0.2106
 6185TIP3    H140190   0.898   4.633   1.819 -2.3234 -2.5823 -1.7832
 6185TIP3    H240191   0.781   4.558   1.878 -0.0712 -2.4393  3.3806
 6186TIP3   OH240192   1.133   5.095   2.546 -0.2803  0.2315 -0.0721
 6186TIP3    H140193   1.044   5.072   2.572  0.1493 -0.2668  1.0174
 6186TIP3    H240194   1.189   5.051   2.610  0.7283  1.0830 -0.3434
 6187TIP3   OH240195   2.987   0.202   8.831  0.3369  0.2136 -0.3971
 6187TIP3    H140196   2.972   0.109   8.849  0.0936  0.2903 -0.1897
 6187TIP3    H240197   3.068   0.223   8.877 -0.6418  0.5782  1.2777
 6188TIP3   OH240198   2.772   3.346   8.499 -0.1217 -0.6952  0.1978
 6188TIP3    H140199   2.848   3.359   8.442 -1.8914 -0.3505 -2.2383
 6188TIP3    H240200   2.765   3.252   8.509  0.4091 -0.7432  0.1558
 6189TIP3   OH240201   4.901   2.148   1.157 -0.2068 -0.0721 -0.0853
 6189TIP3    H140202   4.930   2.065   1.121 -0.1186 -1.6875  3.3034
 6189TIP3    H240203   4.807   2.136   1.173  0.1311 -0.2776  2.0372
 6190TIP3   OH240204   0.779   2.381   7.732  0.4676  0.2686  0.1888
 6190TIP3    H140205   0.827   2.318   7.785 -0.4889 -0.8917 -0.2711
 6190TIP3    H240206   0.706   2.408   7.788  0.6978  0.7419  0.2672
 6191TIP3   OH240207   2.467   6.696   8.365 -0.1269  0.0159 -0.5087
 6191TIP3    H140208   2.562   6.695   8.358 -0.1038  0.4379 -0.2709
 6191TIP3    H240209   2.449   6.685   8.458 -0.2140  3.2061 -0.0296
 6192TIP3   OH240210   1.277   1.460   1.458  0.0760  0.0380 -0.6098
 6192TIP3    H140211   1.328   1.416   1.389  0.0959 -0.6329 -0.1840
 6192TIP3    H240212   1.242   1.538   1.416 -0.3246 -0.6132 -1.5328
 6193TIP3   OH240213   5.458   6.606   0.898  0.1047  0.3572 -0.3663
 6193TIP3    H140214   5.445   6.512   0.891 -0.1078  0.4458 -1.3050
 6193TIP3    H240215   5.518   6.628   0.827 -0.5364  1.0458 -0.7174
 6194TIP3   OH240216   2.062   2.584   7.367 -0.1387  0.3934  0.3302
 6194TIP3    H140217   2.005   2.568   7.293 -0.1949 -0.9002  0.6301
 6194TIP3    H240218   2.110   2.501   7.379 -0.1394  0.5744  1.7285
 6195TIP3   OH240219   6.200   5.642   7.851 -0.1211  0.1315  0.7582
 6195TIP3    H140220   6.264   5.641   7.923  1.3424  2.2913 -0.4084
 6195TIP3    H240221   6.116   5.656   7.894  0.3123 -1.2979  2.2253
 6196TIP3   OH240222   0.782   6.596   1.046 -0.4872 -0.0650  0.9826
 6196TIP3    H140223   0.791   6.506   1.017  0.5005 -0.3324  2.0430
 6196TIP3    H240224   0.760   6.645   0.966  2.0094 -0.7854 -0.2377
 6197TIP3   OH240225   6.469   5.839   7.310 -0.9128  0.6104  0.2580
 6197TIP3    H140226   6.473   5.778   7.235 -2.5796  1.2903 -0.4323
 6197TIP3    H240227   6.529   5.801   7.374  0.0746 -0.3533 -1.1598
 6198TIP3   OH240228   0.767   6.474   6.672 -0.1344  0.6818  0.4826
 6198TIP3    H140229   0.715   6.396   6.691 -1.5754  1.6853  0.8045
 6198TIP3    H240230   0.781   6.472   6.577 -0.2378  0.0804  0.4786
 6199TIP3   OH240231   3.887   4.446   2.185  0.1105 -0.1211  0.4117
 6199TIP3    H140232   3.847   4.371   2.141  0.3291  0.3712 -0.6612
 6199TIP3    H240233   3.852   4.443   2.274 -0.8081 -0.8071  0.0438
 6200TIP3   OH240234   5.918   5.022   6.829  0.2187 -0.3763 -0.4500
 6200TIP3    H140235   5.929   4.985   6.917  0.9403  1.1057  0.1263
 6200TIP3    H240236   5.825   5.011   6.810 -0.4297  1.1508  1.4550
 6201TIP3   OH240237   1.974   2.401   8.605  0.0155  0.0513 -0.6947
 6201TIP3    H140238   1.897   2.457   8.614 -0.8230 -0.7597 -2.2536
 6201TIP3    H240239   1.941   2.323   8.561  1.7850 -0.1957 -1.6765
 6202TIP3   OH240240   3.652   3.793   1.464 -0.1467 -0.3098  0.0073
 6202TIP3    H140241   3.606   3.793   1.547 -0.0887  0.5027  0.0434
 6202TIP3    H240242   3.666   3.885   1.444  0.0437 -0.5039 -0.7889
 6203TIP3   OH240243   4.705   1.806   8.469  0.5393 -0.0103 -0.1188
 6203TIP3    H140244   4.744   1.761   8.544  0.7820 -0.5575 -0.5678
 6203TIP3    H240245   4.675   1.890   8.505  0.2188 -0.4590  0.6901
 6204TIP3   OH240246   0.081   0.022   6.503  0.1941 -0.0527  0.6407
 6204TIP3    H140247   0.133  -0.039   6.450 -0.3454  0.2284 -0.2453
 6204TIP3    H240248   0.131   0.033   6.583  0.7033 -1.0330  0.4767
 6205TIP3   OH240249   5.090   0.207   7.368  0.1621  0.1643 -0.0531
 6205TIP3    H140250   5.094   0.148   7.293  2.9514 -2.7275  2.0725
 6205TIP3    H240251   5.158   0.272   7.352  0.6921 -0.3948 -0.1193
 6206TIP3   OH240252   6.366   5.903   8.752 -1.0835 -0.7790  0.0267
 6206TIP3    H140253   6.420   5.836   8.794  0.5860 -0.3609 -1.3405
 6206TIP3    H240254   6.394   5.985   8.792 -1.4409 -0.6590  0.0337
 6207TIP3   OH240255   0.779   5.086   0.804  0.1466 -0.1845  0.2154
 6207TIP3    H140256   0.798   5.074   0.897 -3.3917  2.8648  1.5804
 6207TIP3    H240257   0.706   5.026   0.786 -0.8673  1.0397  0.1527
 6208TIP3   OH240258   2.383   4.322   1.411  0.4843 -0.8948 -0.2921
 6208TIP3    H140259   2.342   4.359   1.489 -1.8000 -1.4558 -1.1492
 6208TIP3    H240260   2.477   4.338   1.424 -0.1095  3.3320  0.3173
 6209TIP3   OH240261   3.144   2.716   7.584  0.1172 -0.1454  0.3872
 6209TIP3    H140262   3.126   2.804   7.550 -0.1645  0.3259  1.7142
 6209TIP3    H240263   3.190   2.672   7.513 -1.9896  0.2155 -1.2998
 6210TIP3   OH240264   2.144   5.375   6.959 -0.0487  0.3312  0.1161
 6210TIP3    H140265   2.133   5.280   6.963 -1.0394  0.4644  1.3963
 6210TIP3    H240266   2.176   5.392   6.870  1.6353 -1.3203  0.3339
 6211TIP3   OH240267   4.360   0.439   8.977  0.4087  0.4607  0.4078
 6211TIP3    H140268   4.440   0.386   8.975 -0.3340 -0.6880 -0.2626
 6211TIP3    H240269   4.374   0.505   8.909  0.6511  0.0429  0.0378
 6212TIP3   OH240270   1.936   3.914   0.293  0.6082  0.1905  0.4944
 6212TIP3    H140271   1.966   3.908   0.384  1.0566  1.2409  0.4237
 6212TIP3    H240272   1.932   3.823   0.264 -2.0846 -0.3992  2.3575
 6213TIP3   OH240273   6.275   4.127   6.953  0.0345  0.0428 -0.1819
 6213TIP3    H140274   6.361   4.121   6.912 -0.5262  0.6856 -1.5000
 6213TIP3    H240275   6.231   4.198   6.907 -0.8119  0.4761  1.2279
 6214TIP3   OH240276   1.656   3.780   7.636 -0.2663 -0.6186  0.1304
 6214TIP3    H140277   1.612   3.864   7.649 -1.3270 -1.1575  0.1051
 6214TIP3    H240278   1.589   3.714   7.654  0.3898 -1.4660 -0.4160
 6215TIP3   OH240279   0.718   4.600   2.280  0.2336 -0.4619  0.2559
 6215TIP3    H140280   0.645   4.568   2.227  0.9592 -0.7380 -0.5959
 6215TIP3    H240281   0.719   4.694   2.266 -0.5353 -0.3334  1.0145
 6216TIP3   OH240282   4.556   0.450   0.223  0.3136  0.3983  0.1915
 6216TIP3    H140283   4.591   0.471   0.136 -2.2305  0.9532 -0.7866
 6216TIP3    H240284   4.569   0.356   0.232  0.0762  0.2331 -1.0431
 6217TIP3   OH240285   4.701   1.700   2.531 -0.3301 -0.2307 -0.8595
 6217TIP3    H140286   4.715   1.738   2.617  0.5809 -2.5735  0.0809
 6217TIP3    H240287   4.608   1.676   2.531  0.0996 -2.0414  0.2893
 6218TIP3   OH240288   1.910   0.864   8.698 -0.0218  0.1129 -0.2069
 6218TIP3    H140289   1.948   0.931   8.641 -0.7849  0.7461  0.0088
 6218TIP3    H240290   1.823   0.897   8.720 -0.8221 -1.3944 -0.8881
 6219TIP3   OH240291   4.190   0.124   2.227  0.1660  0.6393  0.0102
 6219TIP3    H140292   4.136   0.046   2.239  1.4170 -0.6909 -2.3128
 6219TIP3    H240293   4.226   0.142   2.314 -2.6877  0.6801  1.3105
 6220TIP3   OH240294   5.635   5.289   1.599  0.2030  0.5857 -0.5795
 6220TIP3    H140295   5.616   5.280   1.505  1.3076  1.5212 -0.9114
 6220TIP3    H240296   5.653   5.200   1.628 -0.2658  0.2704 -1.2357
 6221TIP3   OH240297   4.793   5.308   1.448  0.2708 -0.3542  0.4436
 6221TIP3    H140298   4.842   5.241   1.400 -0.4917 -1.7707  1.5732
 6221TIP3    H240299   4.859   5.352   1.501  0.8648  0.1866 -0.6991
 6222TIP3   OH240300   3.244   0.798   8.078 -0.0611 -0.0712 -0.0705
 6222TIP3    H140301   3.157   0.810   8.038  0.0500  0.8725 -0.0442
 6222TIP3    H240302   3.225   0.756   8.162 -0.6444  1.3733  0.5677
 6223TIP3   OH240303   2.195   1.439   2.371 -0.3977  0.1456 -0.0093
 6223TIP3    H140304   2.109   1.417   2.334 -0.1234 -0.8915 -0.0558
 6223TIP3    H240305   2.178   1.453   2.464 -0.7367  0.6714 -0.1464
 6224TIP3   OH240306   6.013   5.175   8.655 -0.3014  0.1792  0.3893
 6224TIP3    H140307   5.981   5.087   8.678  0.6501 -0.6709 -1.2876
 6224TIP3    H240308   5.972   5.193   8.570  1.4363  0.2629 -0.4627
 6225TIP3   OH240309   2.682   4.118   1.323  0.8783  0.5877  0.6690
 6225TIP3    H140310   2.741   4.184   1.288  0.7430  1.0817  1.3379
 6225TIP3    H240311   2.642   4.161   1.399  0.7134 -0.2308  1.0480
 6226TIP3   OH240312   3.302   1.241   2.110  0.2637 -0.0407  0.1289
 6226TIP3    H140313   3.276   1.149   2.119 -2.0326  0.5919  0.4721
 6226TIP3    H240314   3.320   1.269   2.200 -0.5923  0.2448  0.2213
 6227TIP3   OH240315   4.827   0.190   0.754  0.0553 -0.0859 -0.0479
 6227TIP3    H140316   4.902   0.149   0.797 -1.0054 -0.9785  1.0076
 6227TIP3    H240317   4.859   0.277   0.727  1.2207 -0.1373  1.0927
 6228TIP3   OH240318   2.580   2.454   1.158 -0.6872  0.4047  0.6921
 6228TIP3    H140319   2.506   2.514   1.174 -1.8805 -1.0812  0.9709
 6228TIP3    H240320   2.539   2.373   1.130  0.8761 -0.4432  0.7718
 6229TIP3   OH240321   1.590   4.740   2.591 -0.5738  0.2987 -0.2516
 6229TIP3    H140322   1.549   4.665   2.548  0.0316  1.0877 -2.3545
 6229TIP3    H240323   1.669   4.705   2.632 -1.0910 -0.4548  0.1192
 6230TIP3   OH240324   0.775   3.358   8.041  0.1503 -0.3638 -0.9775
 6230TIP3    H140325   0.862   3.348   8.080 -0.0983  0.7621 -0.0637
 6230TIP3    H240326   0.726   3.283   8.075  0.8753 -1.2522 -1.8590
 6231TIP3   OH240327   0.903   4.339   7.897  0.2965  0.2886  0.8249
 6231TIP3    H140328   0.925   4.331   7.990  0.4833  0.9501  0.8423
 6231TIP3    H240329   0.954   4.269   7.855  0.2374  0.0075  1.2141
 6232TIP3   OH240330   1.059   1.313   2.444 -0.0884  0.0442 -0.1955
 6232TIP3    H140331   0.998   1.239   2.436  0.5639 -0.6436  0.9239
 6232TIP3    H240332   1.012   1.378   2.495 -0.1076 -0.2377  0.1467
 6233TIP3   OH240333   0.972   1.747   7.120 -0.1616 -0.9174 -0.3616
 6233TIP3    H140334   0.930   1.710   7.042 -0.3428 -3.1221  0.6785
 6233TIP3    H240335   1.045   1.687   7.138  0.5023  0.1364  0.5878
 6234TIP3   OH240336   4.901   1.066   8.998  0.1241  0.9499  0.1240
 6234TIP3    H140337   4.830   1.016   9.039  0.9905  0.5035  1.1180
 6234TIP3    H240338   4.856   1.130   8.943 -1.0866  1.2650  1.4127
 6235TIP3   OH240339   1.503   6.441   0.913  0.9136  0.1440  0.0554
 6235TIP3    H140340   1.558   6.373   0.952  1.4442 -1.0735 -2.6421
 6235TIP3    H240341   1.540   6.524   0.946  0.9568 -0.7497  2.5027
 6236TIP3   OH240342   1.064   3.320   0.576 -0.0068  0.1002 -0.0256
 6236TIP3    H140343   1.048   3.231   0.607 -0.2726  0.3571  0.6022
 6236TIP3    H240344   1.088   3.369   0.655  0.9821  0.3973 -0.4927
 6237TIP3   OH240345   1.507   3.748   2.318  0.0536  0.3728  0.5406
 6237TIP3    H140346   1.555   3.748   2.401 -0.7191  4.4433  1.1739
 6237TIP3    H240347   1.566   3.703   2.257  1.4863 -1.0399  2.8143
 6238TIP3   OH240348   1.179   2.899   0.299  0.2554 -0.0280 -0.7613
 6238TIP3    H140349   1.095   2.920   0.339  0.2855 -0.3271 -0.5292
 6238TIP3    H240350   1.243   2.914   0.369  0.1142 -2.5445  0.0241
 6239TIP3   OH240351   1.012   2.360   0.548  0.2447 -0.0448 -0.4091
 6239TIP3    H140352   0.961   2.384   0.626 -0.7771 -1.2851 -0.6593
 6239TIP3    H240353   0.960   2.292   0.506  2.1760 -1.4979 -0.6070
 6240TIP3   OH240354   1.882   2.087   2.019  0.2568  0.5780 -0.0762
 6240TIP3    H140355   1.902   2.165   1.965  0.9894 -0.2896 -1.1067
 6240TIP3    H240356   1.967   2.061   2.054  0.1729 -0.3172 -0.5265
 6241TIP3   OH240357   4.739   2.865   0.093 -0.3877 -0.3199  0.1274
 6241TIP3    H140358   4.748   2.780   0.049 -3.1399  0.0565 -1.4069
 6241TIP3    H240359   4.755   2.929   0.024 -0.5750  0.3710  0.7163
 6242TIP3   OH240360   4.467   2.471   8.473 -0.2132 -0.0248  0.2847
 6242TIP3    H140361   4.482   2.418   8.552  1.6222  0.2940  0.1919
 6242TIP3    H240362   4.394   2.428   8.429 -0.7298 -0.7008  1.7262
 6243TIP3   OH240363   6.222   3.451   1.551 -0.3988 -0.1298 -0.0930
 6243TIP3    H140364   6.307   3.495   1.546 -0.1577 -0.5492  0.2138
 6243TIP3    H240365   6.244   3.359   1.569 -0.9433  0.0292  1.6185
 6244TIP3   OH240366   1.401   3.774   1.468  0.1100 -0.5572 -0.2844
 6244TIP3    H140367   1.361   3.859   1.447 -1.4984 -1.4449 -0.9377
 6244TIP3    H240368   1.459   3.793   1.542 -0.4881  1.0444 -0.1842
 6245TIP3   OH240369   0.087   3.341   8.068 -0.1745  0.1560  0.0212
 6245TIP3    H140370   0.127   3.428   8.068 -1.4300  0.7665 -0.8979
 6245TIP3    H240371   0.128   3.296   7.994  1.5350 -0.5917  1.3547
 6246TIP3   OH240372   4.880   6.684   7.978 -0.1783  0.2543 -0.0229
 6246TIP3    H140373   4.871   6.589   7.971  0.3696  0.0572  1.6277
 6246TIP3    H240374   4.967   6.703   7.941 -0.2488  0.1091 -0.2660
 6247TIP3   OH240375   0.693   0.149   0.230 -0.0950  0.0019 -0.0747
 6247TIP3    H140376   0.672   0.090   0.157  0.4114  2.0614 -1.9928
 6247TIP3    H240377   0.788   0.159   0.226  0.1653 -1.0988  1.9536
 6248TIP3   OH240378   6.692   6.492   8.159  0.3125 -0.2505 -0.4226
 6248TIP3    H140379   6.697   6.398   8.140  2.2446 -0.3230  0.1518
 6248TIP3    H240380   6.773   6.527   8.123  1.9533  0.3586  3.3774
 6249TIP3   OH240381   5.428   4.555   2.015  0.1451 -0.2857 -0.2489
 6249TIP3    H140382   5.463   4.612   2.083 -0.4617  2.0285 -1.7418
 6249TIP3    H240383   5.443   4.466   2.047  1.8186  0.6809  1.8662
 6250TIP3   OH240384   5.564   2.678   0.978 -0.0951 -0.8409  0.3605
 6250TIP3    H140385   5.640   2.736   0.983 -0.6014 -0.2543  1.6620
 6250TIP3    H240386   5.552   2.662   0.884 -1.2515  2.9924 -0.3283
 6251TIP3   OH240387   0.309   4.781   0.568  0.4543 -0.2816 -0.4713
 6251TIP3    H140388   0.241   4.779   0.501  0.8611  1.8841 -1.0098
 6251TIP3    H240389   0.319   4.874   0.589  3.2293 -0.5293 -0.4099
 6252TIP3   OH240390   4.343   3.667   7.595 -0.0472 -0.8496  0.1072
 6252TIP3    H140391   4.336   3.591   7.538 -2.7255 -0.4151 -0.2941
 6252TIP3    H240392   4.331   3.742   7.536  2.2861 -0.0729  0.5240
 6253TIP3   OH240393   5.683   2.047   2.761  0.5495  0.2331  0.5215
 6253TIP3    H140394   5.622   1.991   2.712  0.2332  0.4498  0.6627
 6253TIP3    H240395   5.628   2.118   2.795  0.8506  0.3399  0.7923
 6254TIP3   OH240396   1.213   4.761   1.517 -0.7440  0.0132 -0.4045
 6254TIP3    H140397   1.293   4.710   1.527 -0.3955  0.2759 -1.6931
 6254TIP3    H240398   1.166   4.718   1.445  0.3352  2.4119 -2.6929
 6255TIP3   OH240399   5.992   0.797   7.976 -0.3292 -1.3267  0.1039
 6255TIP3    H140400   6.008   0.890   7.991 -2.7268 -0.8275  0.0235
 6255TIP3    H240401   6.050   0.752   8.038 -0.2332  0.2649  1.2274
 6256TIP3   OH240402   5.744   3.260   0.999 -0.3356  0.4909 -0.4517
 6256TIP3    H140403   5.813   3.277   1.063 -0.4732  1.6424 -0.5891
 6256TIP3    H240404   5.712   3.173   1.021  0.4066  0.3975  0.3124
 6257TIP3   OH240405   6.117   1.386   2.022  0.0649  0.5390  0.1913
 6257TIP3    H140406   6.096   1.350   2.108  0.8362  0.1389  0.2125
 6257TIP3    H240407   6.095   1.316   1.960  0.5013  0.4376  0.1471
 6258TIP3   OH240408   4.168   3.525   0.110  0.1406 -0.0539 -0.0440
 6258TIP3    H140409   4.073   3.520   0.106  0.0156  1.4169  0.6923
 6258TIP3    H240410   4.190   3.605   0.063  0.8193  0.8925  1.7875
 6259TIP3   OH240411   5.838   0.640   2.510  0.6313  0.8499 -0.2136
 6259TIP3    H140412   5.899   0.657   2.582  1.3985 -0.4116 -0.5550
 6259TIP3    H240413   5.761   0.693   2.532  1.0225  0.8339  1.3042
 6260TIP3   OH240414   5.990   0.470   7.731 -0.2940  0.2366  0.3190
 6260TIP3    H140415   5.984   0.465   7.826  0.4936 -0.9046  0.3240
 6260TIP3    H240416   6.078   0.437   7.711  0.1219  1.8562 -0.7112
 6261TIP3   OH240417   6.616   4.421   7.217 -0.2908 -0.3185 -0.2257
 6261TIP3    H140418   6.571   4.470   7.149 -0.6549  0.0537  0.2784
 6261TIP3    H240419   6.606   4.474   7.296  2.0582  0.3980 -0.3178
 6262TIP3   OH240420   4.959   3.985   8.343 -0.3830 -0.4918  0.0591
 6262TIP3    H140421   4.983   4.063   8.394 -0.7008 -0.8652  0.7933
 6262TIP3    H240422   4.998   3.912   8.392  1.9104 -0.6553 -1.8391
 6263TIP3   OH240423   3.996   0.943   6.939 -0.3326  0.3290  0.8926
 6263TIP3    H140424   4.046   0.884   6.882 -1.0873 -1.1649  1.7110
 6263TIP3    H240425   4.049   1.022   6.944  0.1426  0.1974 -1.2078
 6264TIP3   OH240426   5.452   0.254   8.070 -0.2602  0.0866 -0.1144
 6264TIP3    H140427   5.385   0.186   8.059  0.5186 -0.7765  0.3678
 6264TIP3    H240428   5.496   0.258   7.985 -1.3427  1.1507 -0.6615
 6265TIP3   OH240429   3.708   1.200   7.927 -0.7062  0.2690 -0.1549
 6265TIP3    H140430   3.752   1.276   7.888 -1.1403  1.2618  1.1681
 6265TIP3    H240431   3.693   1.140   7.855 -0.1625  1.3668 -1.2123
 6266TIP3   OH240432   5.757   0.451   7.921 -0.3487 -0.2104  0.0890
 6266TIP3    H140433   5.801   0.495   7.995  0.2201 -0.8468  0.1391
 6266TIP3    H240434   5.684   0.509   7.899 -0.0583  0.3834  0.6418
 6267TIP3   OH240435   3.986   5.514   0.212  0.5537  0.1423 -0.4041
 6267TIP3    H140436   3.998   5.596   0.163 -2.0107  1.1608  0.4782
 6267TIP3    H240437   3.995   5.539   0.304  2.6892 -1.2290 -0.1670
 6268TIP3   OH240438   3.354   1.456   1.956 -0.0864  0.5721 -0.7506
 6268TIP3    H140439   3.335   1.381   2.012  0.4026  1.6402  0.9201
 6268TIP3    H240440   3.385   1.418   1.873  0.3776 -1.0534  0.1385
 6269TIP3   OH240441   6.006   3.054   2.253 -0.0605  0.5902  0.5093
 6269TIP3    H140442   6.052   3.131   2.221  0.7098  0.3738  1.0757
 6269TIP3    H240443   6.065   2.981   2.238 -1.5961 -0.2691 -1.9451
 6270TIP3   OH240444   3.266   4.103   0.938 -0.9502 -0.0849 -0.2554
 6270TIP3    H140445   3.316   4.184   0.950 -1.9471  0.3915  0.8420
 6270TIP3    H240446   3.281   4.053   1.019  0.2700 -1.3827 -1.2199
 6271TIP3   OH240447   0.577   2.168   0.534 -0.0126 -0.0762 -0.3047
 6271TIP3    H140448   0.531   2.118   0.602  1.2547  0.3544  0.9348
 6271TIP3    H240449   0.526   2.249   0.526 -0.9299 -0.6851 -0.8702
 6272TIP3   OH240450   0.076   2.101   7.109  0.4277 -0.1377 -0.7520
 6272TIP3    H140451   0.078   2.084   7.203 -0.0332 -1.6699 -0.9928
 6272TIP3    H240452   0.139   2.039   7.072  1.1615  0.9523 -1.4161
 6273TIP3   OH240453   1.857   3.331   8.493  0.0618 -0.5755 -0.0382
 6273TIP3    H140454   1.877   3.381   8.415 -0.4698 -0.6914 -0.2526
 6273TIP3    H240455   1.930   3.349   8.553  0.5930 -0.6790 -0.6459
 6274TIP3   OH240456   6.746   6.065   8.464 -0.4185 -0.2283  0.1516
 6274TIP3    H140457   6.665   6.116   8.458  0.0825  0.4512 -1.3815
 6274TIP3    H240458   6.747   6.012   8.384  0.9974  0.3499 -0.2588
 6275TIP3   OH240459   1.557   4.045   0.480 -0.1791  0.2538  0.1929
 6275TIP3    H140460   1.471   4.006   0.463 -0.2906  1.2415 -1.9458
 6275TIP3    H240461   1.609   3.975   0.518 -1.4188 -0.8840 -0.1390
 6276TIP3   OH240462   0.436   3.990   1.003 -0.1524  0.3423  0.2899
 6276TIP3    H140463   0.483   4.023   0.927  0.9560  0.6951  1.1028
 6276TIP3    H240464   0.500   3.936   1.050 -0.0460  2.0272  2.2129
 6277TIP3   OH240465   1.282   0.174   1.070  0.9900 -0.4569 -0.1555
 6277TIP3    H140466   1.195   0.203   1.097 -0.1566 -2.5358 -1.3046
 6277TIP3    H240467   1.315   0.245   1.015  0.0405  0.3955  0.3346
 6278TIP3   OH240468   4.032   0.975   7.991  0.5765  0.2299 -0.1854
 6278TIP3    H140469   4.011   1.018   7.908 -1.6118 -1.2376 -0.4826
 6278TIP3    H240470   4.094   0.906   7.967  0.6694  0.4027 -0.4465
 6279TIP3   OH240471   0.537   0.473   1.120  0.2232  0.1815 -0.0090
 6279TIP3    H140472   0.566   0.439   1.035 -0.4499  1.6011 -0.8434
 6279TIP3    H240473   0.497   0.398   1.164  2.3210 -1.0602 -0.0997
 6280TIP3   OH240474   5.803   2.800   8.242  0.6606  0.2019 -0.6273
 6280TIP3    H140475   5.787   2.891   8.266  1.8145  0.5685 -1.1468
 6280TIP3    H240476   5.896   2.798   8.217  1.0809 -1.4555  0.8724
 6281TIP3   OH240477   1.704   4.024   8.698 -0.1612  1.2169  0.6897
 6281TIP3    H140478   1.771   4.011   8.764 -0.2734 -0.8975  0.4476
 6281TIP3    H240479   1.621   4.004   8.742 -0.4129  1.5162  0.3661
 6282TIP3   OH240480   1.572   1.914   0.191  0.2732 -0.4445  0.6300
 6282TIP3    H140481   1.525   1.935   0.271  0.7070 -1.0752  1.0536
 6282TIP3    H240482   1.610   1.828   0.206 -1.5283 -1.6107 -1.1085
 6283TIP3   OH240483   6.124   3.187   6.765  0.1584  0.1798 -0.3967
 6283TIP3    H140484   6.193   3.252   6.752 -1.4304  2.3808  1.4023
 6283TIP3    H240485   6.090   3.170   6.677  1.2217  1.0851 -1.0119
 6284TIP3   OH240486   0.884   4.221   1.971 -0.0272 -0.0812  0.4959
 6284TIP3    H140487   0.867   4.179   1.887  1.9061 -1.2018  0.6037
 6284TIP3    H240488   0.798   4.234   2.010 -0.8708 -0.7665 -1.0714
 6285TIP3   OH240489   5.095   1.364   1.000  0.4044  0.5011 -0.8067
 6285TIP3    H140490   5.175   1.407   0.971  0.6235  0.7204  0.0919
 6285TIP3    H240491   5.064   1.316   0.923  2.3944 -1.0941 -0.6744
 6286TIP3   OH240492   6.206   1.074   1.581 -0.6043  0.1481  0.0142
 6286TIP3    H140493   6.264   1.087   1.506 -1.5944  1.2410 -0.5889
 6286TIP3    H240494   6.173   0.985   1.571 -1.2818  0.5184 -1.2645
 6287TIP3   OH240495   2.094   0.314   7.256  0.2183 -0.2941  0.2675
 6287TIP3    H140496   2.014   0.268   7.231  0.1846 -0.5594  0.8730
 6287TIP3    H240497   2.120   0.276   7.340 -0.0139  1.0276  0.9653
 6288TIP3   OH240498   2.952   6.152   0.657  0.0141  0.0395  0.1822
 6288TIP3    H140499   3.048   6.146   0.660  0.1162  1.6870  1.3631
 6288TIP3    H240500   2.922   6.102   0.733  0.0616  1.2431  1.0084
 6289TIP3   OH240501   1.669   0.140   1.773  0.9579  0.3853 -0.6144
 6289TIP3    H140502   1.585   0.121   1.731  1.3780 -1.4745 -0.7067
 6289TIP3    H240503   1.695   0.225   1.738 -1.0328  1.1787 -0.3081
 6290TIP3   OH240504   1.225   2.181   2.552  0.2604 -0.3673 -0.1066
 6290TIP3    H140505   1.255   2.232   2.628 -4.7240  0.1834  1.8753
 6290TIP3    H240506   1.283   2.105   2.549  1.7108  0.4442  3.1978
 6291TIP3   OH240507   0.475   3.674   0.145  0.1198  0.1240  0.0243
 6291TIP3    H140508   0.567   3.697   0.139  0.1319 -0.2775 -2.8520
 6291TIP3    H240509   0.429   3.757   0.136  0.2302  0.0792 -1.1528
 6292TIP3   OH240510   4.012   5.282   7.501  0.0910  0.2034  0.2817
 6292TIP3    H140511   4.009   5.187   7.513  0.5918 -0.1528 -1.9711
 6292TIP3    H240512   3.986   5.318   7.586  1.4349 -1.9169  1.6889
 6293TIP3   OH240513   2.743   1.346   2.540 -0.3474  0.0132  0.0758
 6293TIP3    H140514   2.800   1.366   2.614  0.1669  0.7978 -0.5076
 6293TIP3    H240515   2.673   1.293   2.576  0.2666 -0.1963  0.9889
 6294TIP3   OH240516   4.863   4.616   1.354  0.1344 -0.2813 -0.1006
 6294TIP3    H140517   4.776   4.650   1.333 -0.0927 -1.4170 -1.1187
 6294TIP3    H240518   4.849   4.522   1.368  0.9636 -0.2378  1.2270
 6295TIP3   OH240519   6.476   5.842   0.991  0.0658  0.9584  0.1628
 6295TIP3    H140520   6.402   5.881   1.039 -0.2523  0.7317 -0.1354
 6295TIP3    H240521   6.445   5.835   0.901  0.6174  1.2648 -0.0515
 6296TIP3   OH240522   1.435   5.558   8.424  0.0515 -0.4952  0.1734
 6296TIP3    H140523   1.405   5.521   8.341 -0.0133  0.9683 -0.4808
 6296TIP3    H240524   1.388   5.641   8.431  1.3057  0.1824  0.8624
 6297TIP3   OH240525   0.876   4.563   7.496  0.1278  0.5205  0.2646
 6297TIP3    H140526   0.904   4.652   7.475  0.8329 -0.0005 -1.1611
 6297TIP3    H240527   0.945   4.528   7.552  1.0645  0.1220 -1.0862
 6298TIP3   OH240528   2.360   5.637   0.329 -0.0018  0.1976 -0.6011
 6298TIP3    H140529   2.333   5.547   0.343  0.1659  0.0433 -1.2087
 6298TIP3    H240530   2.443   5.646   0.376 -0.9787  0.6101  1.0886
 6299TIP3   OH240531   4.989   0.826   0.227 -0.7192  0.0675  0.2777
 6299TIP3    H140532   5.079   0.816   0.197 -0.9706 -1.3382 -0.0931
 6299TIP3    H240533   4.986   0.914   0.265  0.5504  0.5022 -0.5529
 6300TIP3   OH240534   5.983   0.457   0.259 -0.7952  0.8346 -0.2555
 6300TIP3    H140535   5.893   0.433   0.238 -0.1173 -0.3827 -2.0922
 6300TIP3    H240536   6.028   0.457   0.174  1.4104 -0.8815  0.7941
 6301TIP3   OH240537   1.248   2.628   0.432 -0.3007 -0.1470 -0.8306
 6301TIP3    H140538   1.278   2.650   0.343  2.2579  0.7532  0.1746
 6301TIP3    H240539   1.289   2.694   0.488 -1.6290 -0.8668  1.0817
 6302TIP3   OH240540   0.471   6.424   1.581  0.7911  0.0057 -0.0783
 6302TIP3    H140541   0.545   6.394   1.528  0.0371 -0.2695 -1.0204
 6302TIP3    H240542   0.446   6.348   1.633 -0.4734 -0.7593 -1.7141
 6303TIP3   OH240543   5.809   1.913   1.785 -0.3838  0.2531 -0.0055
 6303TIP3    H140544   5.889   1.906   1.733 -0.3517  2.3605 -0.3134
 6303TIP3    H240545   5.835   1.960   1.864 -1.1626  0.2923  0.2412
 6304TIP3   OH240546   1.069   0.948   8.721 -0.4472  0.5744  0.3286
 6304TIP3    H140547   1.044   0.856   8.731  1.6530  0.1180  2.0838
 6304TIP3    H240548   1.012   0.996   8.781 -0.8050  0.3027  0.2102
 6305TIP3   OH240549   2.782   3.977   8.447  0.0480  0.8389  0.0771
 6305TIP3    H140550   2.849   4.011   8.388 -0.1965  1.5063  0.1722
 6305TIP3    H240551   2.829   3.920   8.508  0.1501 -0.7341 -1.4146
 6306TIP3   OH240552   4.973   4.339   1.870 -0.8026 -0.2919 -0.1019
 6306TIP3    H140553   5.060   4.310   1.897 -0.7483  0.2199  0.2936
 6306TIP3    H240554   4.961   4.423   1.915 -2.2517 -1.2208  1.3528
 6307TIP3   OH240555   4.564   6.019   1.136 -0.0053 -0.3661 -0.2490
 6307TIP3    H140556   4.517   6.093   1.175  1.0289 -0.2512  0.8472
 6307TIP3    H240557   4.580   6.045   1.046 -1.6412 -0.2279 -0.5356
 6308TIP3   OH240558   5.820   3.279   2.152 -0.3064 -0.8585  0.5709
 6308TIP3    H140559   5.727   3.259   2.156 -0.7624  0.7558 -0.9206
 6308TIP3    H240560   5.852   3.235   2.073  0.2107 -1.3558  1.0401
 6309TIP3   OH240561   1.630   0.903   2.755 -0.0850  0.1644 -0.2605
 6309TIP3    H140562   1.705   0.883   2.700 -0.6435  1.8283 -1.7092
 6309TIP3    H240563   1.554   0.872   2.705 -0.5367  0.8068  0.0088
 6310TIP3   OH240564   3.087   2.000   6.917 -0.1519 -0.1877 -0.3780
 6310TIP3    H140565   3.133   1.967   6.840  1.3084 -0.7883  0.7246
 6310TIP3    H240566   3.109   1.938   6.987 -2.1436 -0.1498  0.3609
 6311TIP3   OH240567   5.523   5.156   0.839 -0.6381  0.4195 -0.2025
 6311TIP3    H140568   5.571   5.110   0.771  1.0729  0.0327  1.1954
 6311TIP3    H240569   5.517   5.247   0.808  0.0974  0.2459 -0.8723
 6312TIP3   OH240570   3.893   5.382   7.719 -0.0485  0.0301 -0.6608
 6312TIP3    H140571   3.856   5.372   7.807  0.7289 -0.0922 -0.3404
 6312TIP3    H240572   3.826   5.429   7.670 -0.7191 -0.3748 -0.1501
 6313TIP3   OH240573   4.222   5.442   0.091  0.2669 -0.3656 -0.3750
 6313TIP3    H140574   4.152   5.485   0.140  0.8760 -2.0748  2.1869
 6313TIP3    H240575   4.303   5.475   0.130  0.7607 -2.0780  0.1645
 6314TIP3   OH240576   0.857   0.452   1.161  0.0187  0.6385  0.7270
 6314TIP3    H140577   0.917   0.499   1.103  0.6634  1.2315  1.8474
 6314TIP3    H240578   0.773   0.454   1.115  0.9777 -0.9151 -1.2501
 6315TIP3   OH240579   2.322   0.392   8.787 -0.0321  0.2128 -0.7522
 6315TIP3    H140580   2.390   0.449   8.753  1.5476 -1.3711 -0.3648
 6315TIP3    H240581   2.278   0.444   8.855 -0.2505  1.7815 -2.0582
 6316TIP3   OH240582   3.239   4.570   7.414  0.2637  0.1349  0.1193
 6316TIP3    H140583   3.292   4.521   7.350 -0.2457 -0.3446  0.0589
 6316TIP3    H240584   3.253   4.662   7.391  0.9546  0.0076  0.0118
 6317TIP3   OH240585   0.229   1.440   8.630 -0.6617  0.1117 -0.9662
 6317TIP3    H140586   0.324   1.430   8.627 -0.7956 -1.1601 -2.1079
 6317TIP3    H240587   0.206   1.425   8.722  0.2714  0.9474 -0.5809
 6318TIP3   OH240588   2.251   3.012   7.156 -0.0100 -0.0775  0.2587
 6318TIP3    H140589   2.345   3.020   7.173 -0.3331  0.1826  2.1542
 6318TIP3    H240590   2.217   2.965   7.232 -1.4998  0.3691 -0.1019
 6319TIP3   OH240591   1.241   4.022   1.141 -0.0984 -0.2905 -0.0166
 6319TIP3    H140592   1.177   3.951   1.142  1.8843 -2.2219 -0.4129
 6319TIP3    H240593   1.226   4.067   1.059 -1.3612 -0.2780  0.2066
 6320TIP3   OH240594   2.514   5.979   8.612  0.2921 -0.3193  0.0304
 6320TIP3    H140595   2.578   5.992   8.541 -1.1399 -0.6664 -1.3725
 6320TIP3    H240596   2.430   5.972   8.568 -0.6836 -0.3745  1.8057
 6321TIP3   OH240597   2.911   3.737   8.193 -0.6021 -0.0732 -0.4203
 6321TIP3    H140598   2.954   3.657   8.162  1.0048 -0.0469  1.5439
 6321TIP3    H240599   2.819   3.713   8.201 -0.2898 -1.4596 -0.7224
 6322TIP3   OH240600   6.425   6.167   0.418  0.1512 -0.2922  0.1423
 6322TIP3    H140601   6.374   6.216   0.353  1.3077 -0.0173 -0.5852
 6322TIP3    H240602   6.515   6.195   0.404  0.8082 -2.2697  0.0168
 6323TIP3   OH240603   5.603   4.125   0.557 -0.2454  0.0096  0.7603
 6323TIP3    H140604   5.550   4.097   0.632 -1.7942  0.1829 -0.2209
 6323TIP3    H240605   5.583   4.062   0.488  1.9727 -0.7794  0.7515
 6324TIP3   OH240606   1.739   5.089   1.485 -0.6241 -0.5461 -0.3728
 6324TIP3    H140607   1.757   5.117   1.396  0.5044 -0.9722 -0.2946
 6324TIP3    H240608   1.794   5.012   1.497 -0.7053 -0.4457  0.7220
 6325TIP3   OH240609   6.587   2.068   6.988 -0.1470  0.1857 -0.5426
 6325TIP3    H140610   6.668   2.081   7.038 -0.9444  0.4414  0.7440
 6325TIP3    H240611   6.570   1.974   6.993 -0.6728  0.3171  0.4411
 6326TIP3   OH240612   4.962   1.338   7.123 -0.1843  0.0302 -0.9051
 6326TIP3    H140613   4.959   1.250   7.161  0.8501 -0.3034 -1.5511
 6326TIP3    H240614   4.874   1.352   7.088 -0.7609 -0.1877  0.3983
 6327TIP3   OH240615   4.185   0.109   6.740  0.2580  0.0232  0.2263
 6327TIP3    H140616   4.267   0.158   6.739  1.1610 -1.4236  0.4114
 6327TIP3    H240617   4.194   0.049   6.814 -1.7979  1.1397  1.4905
 6328TIP3   OH240618   1.256   1.499   8.368 -0.3364  0.2310  0.1335
 6328TIP3    H140619   1.305   1.571   8.406 -0.2327  0.6154 -0.7048
 6328TIP3    H240620   1.320   1.429   8.356  0.3320  1.1376 -2.0662
 6329TIP3   OH240621   3.093   3.352   0.251  0.8342  0.2279  0.7077
 6329TIP3    H140622   3.089   3.448   0.251 -1.4764  0.1740  0.9433
 6329TIP3    H240623   3.150   3.331   0.325  1.2639  1.3949  0.7375
 6330TIP3   OH240624   4.116   4.944   8.360 -0.3423  0.0962 -0.0022
 6330TIP3    H140625   4.077   4.866   8.399 -1.1865 -0.2711 -1.5078
 6330TIP3    H240626   4.067   4.957   8.279  1.4458  0.7307 -1.0242
 6331TIP3   OH240627   6.412   3.489   7.218  0.4727  0.4049 -0.6052
 6331TIP3    H140628   6.482   3.550   7.243  1.1819 -1.0821  1.2801
 6331TIP3    H240629   6.456   3.422   7.165  0.1933  0.2065 -0.5875
 6332TIP3   OH240630   6.143   0.393   7.963  0.2152  0.0525  0.0076
 6332TIP3    H140631   6.091   0.326   8.007  0.5039  0.0571  0.3647
 6332TIP3    H240632   6.199   0.345   7.902  1.1503 -0.1510  0.9804
 6333TIP3   OH240633   3.447   2.540   8.946  0.0928  0.0120 -0.2086
 6333TIP3    H140634   3.531   2.520   8.986  0.4679  1.7008 -0.0713
 6333TIP3    H240635   3.462   2.530   8.852 -0.5937 -3.2414 -0.1021
 6334TIP3   OH240636   4.326   3.578   8.576 -0.0904  0.1440 -0.4260
 6334TIP3    H140637   4.345   3.484   8.566 -2.8305 -0.3415 -2.0805
 6334TIP3    H240638   4.395   3.622   8.527  0.9126 -1.0163 -0.1004
 6335TIP3   OH240639   0.669   1.329   0.469 -0.0858 -0.2727 -0.2904
 6335TIP3    H140640   0.731   1.264   0.502 -0.0578 -0.6445 -1.0554
 6335TIP3    H240641   0.597   1.278   0.431 -0.6355  0.1500  0.1605
 6336TIP3   OH240642   0.761   5.064   6.545 -0.7644  0.1344  0.3800
 6336TIP3    H140643   0.680   5.016   6.560 -1.1534  1.3276  2.3421
 6336TIP3    H240644   0.824   4.997   6.518 -1.9708 -1.0430  0.4058
 6337TIP3   OH240645   1.347   1.840   1.784  0.0122  0.4450  0.1664
 6337TIP3    H140646   1.257   1.835   1.815 -0.0680 -1.7811 -0.2780
 6337TIP3    H240647   1.380   1.751   1.791  1.7673  0.9543 -0.9506
 6338TIP3   OH240648   4.768   6.160   7.812 -0.2178 -0.4536  0.0722
 6338TIP3    H140649   4.720   6.122   7.885 -0.1791  0.6726  0.7047
 6338TIP3    H240650   4.714   6.142   7.735 -1.7014  0.8034  0.7620
 6339TIP3   OH240651   5.631   5.984   0.638 -0.2512  0.0976  0.2833
 6339TIP3    H140652   5.601   5.941   0.717  1.0912  1.0857  1.3923
 6339TIP3    H240653   5.726   5.972   0.639 -0.1589  0.5581 -0.9151
 6340TIP3   OH240654   4.743   4.165   7.499  0.4369 -0.3520  0.2302
 6340TIP3    H140655   4.716   4.082   7.539  1.5014 -1.1395 -0.6038
 6340TIP3    H240656   4.725   4.154   7.406 -2.3991  1.6190  0.4128
 6341TIP3   OH240657   5.913   1.396   7.319  0.1113 -0.2383  0.0812
 6341TIP3    H140658   5.868   1.336   7.379 -0.8583 -0.7771 -1.1381
 6341TIP3    H240659   5.884   1.483   7.345  0.4649 -0.3809  0.9972
 6342TIP3   OH240660   3.224   5.997   7.705  0.0855 -0.1707 -0.4121
 6342TIP3    H140661   3.299   5.961   7.752  0.2436 -0.8066 -1.1391
 6342TIP3    H240662   3.163   6.023   7.775 -0.1662 -2.1183  0.1777
 6343TIP3   OH240663   0.193   3.089   1.877  0.1998 -0.3363  0.5054
 6343TIP3    H140664   0.170   3.132   1.959  0.9100 -2.9146  2.1872
 6343TIP3    H240665   0.289   3.093   1.874  0.1291  1.8236 -1.5023
 6344TIP3   OH240666   1.917   2.383   0.166  0.3723 -0.3113 -0.0526
 6344TIP3    H140667   1.858   2.314   0.195 -3.3904  2.8431  0.5833
 6344TIP3    H240668   1.966   2.407   0.244  0.4274 -1.0231  0.1414
 6345TIP3   OH240669   6.488   0.660   0.816 -0.0180  0.0585 -0.3660
 6345TIP3    H140670   6.483   0.752   0.845 -0.7992  0.0248 -0.3858
 6345TIP3    H240671   6.454   0.661   0.727 -3.8998 -0.8105  0.9040
 6346TIP3   OH240672   4.724   3.488   0.527 -0.0914 -0.1364 -0.4079
 6346TIP3    H140673   4.664   3.417   0.508  0.6766 -0.4185 -1.9509
 6346TIP3    H240674   4.722   3.543   0.449  0.9887  0.3167 -0.1433
 6347TIP3   OH240675   3.978   4.889   7.452  0.3763 -0.3495  0.2636
 6347TIP3    H140676   3.955   4.934   7.370 -1.5022 -1.2226  0.2483
 6347TIP3    H240677   3.910   4.917   7.513  1.5548  0.0021  1.4463
 6348TIP3   OH240678   4.304   4.181   8.404  0.1291 -0.0245  0.0149
 6348TIP3    H140679   4.385   4.136   8.381  0.1935 -0.0564  0.2913
 6348TIP3    H240680   4.327   4.274   8.407  0.0697 -0.0004 -0.2537
 6349TIP3   OH240681   2.372   5.863   0.877  0.3289 -0.3947 -0.4773
 6349TIP3    H140682   2.299   5.922   0.857  0.6204  1.4540  3.1512
 6349TIP3    H240683   2.449   5.909   0.845  0.3231 -0.0378  0.0159
 6350TIP3   OH240684   6.322   1.719   7.980 -0.3556  0.1165  0.9293
 6350TIP3    H140685   6.297   1.674   7.899 -0.8466  1.0458  0.5533
 6350TIP3    H240686   6.304   1.811   7.962  0.7194  0.4733  1.6627
 6351TIP3   OH240687   4.294   3.899   0.401 -0.6782  0.0906  0.2437
 6351TIP3    H140688   4.343   3.816   0.396 -1.2832 -0.3167  0.9480
 6351TIP3    H240689   4.362   3.965   0.417 -0.0222 -0.0571 -1.6485
 6352TIP3   OH240690   3.354   3.498   1.619 -0.1367  0.4020 -0.1433
 6352TIP3    H140691   3.322   3.463   1.702 -0.2021  1.3345  0.2360
 6352TIP3    H240692   3.418   3.564   1.644  1.4887 -0.8426 -0.8885
 6353TIP3   OH240693   5.333   2.943   1.396 -0.2380 -0.0056  0.2710
 6353TIP3    H140694   5.329   2.942   1.301 -1.9748 -1.4911  0.3159
 6353TIP3    H240695   5.302   3.031   1.420  0.3664  0.4333 -0.5261
 6354TIP3   OH240696   0.475   5.329   8.492 -0.4378  0.0708  0.7239
 6354TIP3    H140697   0.438   5.241   8.494 -0.5392  0.1181  1.0383
 6354TIP3    H240698   0.568   5.316   8.513 -0.5497  0.0833  1.2449
 6355TIP3   OH240699   0.787   1.116   7.780 -0.1741  0.8136  1.0249
 6355TIP3    H140700   0.734   1.072   7.847  0.9527  2.1821  2.9112
 6355TIP3    H240701   0.876   1.115   7.815  0.3176  2.2943 -0.0792
 6356TIP3   OH240702   2.260   1.903   8.566 -0.5019  0.0236 -0.4163
 6356TIP3    H140703   2.285   1.814   8.591  0.2206  0.2627 -0.2579
 6356TIP3    H240704   2.336   1.936   8.517  0.2870  1.3986  1.5867
 6357TIP3   OH240705   0.646   6.388   8.920  0.0881  0.0939 -0.5111
 6357TIP3    H140706   0.649   6.470   8.970  0.0015 -0.6036  0.6665
 6357TIP3    H240707   0.690   6.324   8.976  1.4958 -0.3526 -2.0686
 6358TIP3   OH240708   0.025   5.726   1.441 -0.0764 -0.2799 -0.3095
 6358TIP3    H140709   0.012   5.820   1.442 -2.3579 -0.5357 -1.1361
 6358TIP3    H240710  -0.027   5.695   1.367  0.2552 -2.2350  0.2192
 6359TIP3   OH240711   4.330   1.348   8.889  0.3233 -0.3643 -0.0408
 6359TIP3    H140712   4.359   1.296   8.813  1.2527  0.8970 -0.5992
 6359TIP3    H240713   4.337   1.288   8.963 -0.8104 -1.6985 -0.9557
 6360TIP3   OH240714   4.891   2.904   8.082 -0.0367 -0.0135  0.5186
 6360TIP3    H140715   4.836   2.928   8.156 -0.3505  0.4661  0.1367
 6360TIP3    H240716   4.978   2.938   8.103  0.0500 -0.5207  0.9934
 6361TIP3   OH240717   3.655   1.501   8.609 -0.1577 -0.2170  0.1348
 6361TIP3    H140718   3.600   1.572   8.642 -0.1562  0.0296 -0.3894
 6361TIP3    H240719   3.713   1.542   8.546  0.4718 -0.5267  0.4994
 6362TIP3   OH240720   2.882   6.359   7.402  0.5426  0.4676 -0.1310
 6362TIP3    H140721   2.821   6.417   7.355  2.0311  2.3739  0.1661
 6362TIP3    H240722   2.826   6.294   7.444 -1.2557  1.8540 -0.2573
 6363TIP3   OH240723   2.513   4.277   1.793  0.7045 -0.7501 -0.2651
 6363TIP3    H140724   2.433   4.302   1.840  0.6747  1.1865 -1.2518
 6363TIP3    H240725   2.521   4.183   1.809  0.9801 -0.2257  4.0087
 6364TIP3   OH240726   1.449   3.053   0.282  0.0878  0.2830 -0.2865
 6364TIP3    H140727   1.401   3.015   0.356 -0.5799  0.4270 -0.6400
 6364TIP3    H240728   1.432   3.147   0.287 -0.2302  0.2621 -0.7966
 6365TIP3   OH240729   2.769   2.600   7.990 -0.5524  0.0640  0.3569
 6365TIP3    H140730   2.695   2.661   7.996 -1.9698 -1.5254 -0.2972
 6365TIP3    H240731   2.792   2.581   8.081  0.6302  2.3100  0.6132
 6366TIP3   OH240732   0.493   6.767   7.633  0.0051 -0.3497  0.2870
 6366TIP3    H140733   0.484   6.682   7.590  1.1959  0.3134 -1.3506
 6366TIP3    H240734   0.459   6.830   7.569 -0.5928  0.4542  1.3644
 6367TIP3   OH240735   2.122   3.976   8.486  0.5665 -0.5496 -0.1252
 6367TIP3    H140736   2.071   3.902   8.519 -0.4607  0.7936  1.5025
 6367TIP3    H240737   2.195   3.984   8.547  1.1940 -0.7603 -0.8331
 6368TIP3   OH240738   4.790   2.810   0.711 -0.5650  0.4697  0.2451
 6368TIP3    H140739   4.791   2.888   0.655  0.4984  0.7471  0.6309
 6368TIP3    H240740   4.733   2.749   0.665  0.6428  0.5173 -1.4306
 6369TIP3   OH240741   5.095   3.198   7.535 -0.3064 -0.1670  0.4905
 6369TIP3    H140742   5.086   3.216   7.628 -1.6151 -0.7441  0.4952
 6369TIP3    H240743   5.175   3.244   7.509  0.2222 -0.2317  1.9419
 6370TIP3   OH240744   1.685   5.826   0.377  0.4261 -0.2571 -0.1780
 6370TIP3    H140745   1.685   5.749   0.320  1.3218 -1.9399  1.9373
 6370TIP3    H240746   1.592   5.845   0.391  0.1891  0.0934 -1.9941
 6371TIP3   OH240747   2.117   3.087   2.481  0.9387  0.1308 -0.4391
 6371TIP3    H140748   2.163   3.023   2.426  0.9267 -0.7063  0.5015
 6371TIP3    H240749   2.038   3.042   2.510  0.7986  0.6626  0.0228
 6372TIP3   OH240750   0.238   2.943   1.614  0.0512  0.2513  0.2855
 6372TIP3    H140751   0.299   2.972   1.546 -0.5509  0.1993 -0.2845
 6372TIP3    H240752   0.262   2.995   1.691  1.7260 -0.7440  0.4981
 6373TIP3   OH240753   2.774   4.376   0.285 -0.1233  0.5509 -0.1032
 6373TIP3    H140754   2.816   4.291   0.272  0.3416  0.9839 -1.5737
 6373TIP3    H240755   2.802   4.403   0.372  1.2710  0.0513 -0.3684
 6374TIP3   OH240756   4.773   0.089   7.753  0.2317  0.0042 -0.4934
 6374TIP3    H140757   4.802   0.009   7.708 -0.8154 -0.6187 -0.1038
 6374TIP3    H240758   4.809   0.080   7.841  0.7654  0.3454 -0.6742
 6375TIP3   OH240759   0.857   0.562   8.973  0.0274  0.0736 -0.4441
 6375TIP3    H140760   0.917   0.490   8.991 -0.2549 -0.4915 -1.6315
 6375TIP3    H240761   0.774   0.519   8.952 -0.4421  0.7959 -0.1131
 6376TIP3   OH240762   2.584   5.587   1.097 -0.1812  1.1749 -0.8745
 6376TIP3    H140763   2.521   5.596   1.025 -0.9470  0.0799 -0.3710
 6376TIP3    H240764   2.542   5.526   1.158  0.5637  1.8965  0.3922
 6377TIP3   OH240765   2.930   2.572   7.548  0.3920 -0.5918  0.0249
 6377TIP3    H140766   3.006   2.631   7.552  0.8399 -1.0046 -1.6300
 6377TIP3    H240767   2.968   2.485   7.535 -0.3324 -1.0029  0.5935
 6378TIP3   OH240768   0.336   6.064   8.927  0.2733  0.5319  0.7145
 6378TIP3    H140769   0.343   6.092   8.835 -2.3787  0.0507  0.2848
 6378TIP3    H240770   0.350   5.970   8.924 -0.8944  0.3439  0.5936
 6379TIP3   OH240771   3.681   4.728   8.490  0.9635 -0.0179 -0.0637
 6379TIP3    H140772   3.666   4.812   8.533  2.2708  0.4311 -0.4117
 6379TIP3    H240773   3.704   4.668   8.561  0.1561 -0.0595  0.1702
 6380TIP3   OH240774   0.953   3.495   0.089 -0.2716  0.1074  0.1631
 6380TIP3    H140775   1.006   3.415   0.084 -0.5505 -0.1123  0.6236
 6380TIP3    H240776   0.863   3.463   0.101 -0.1990  0.4851  2.0581
 6381TIP3   OH240777   1.446   6.290   1.955  0.0413 -0.5645 -0.4314
 6381TIP3    H140778   1.478   6.242   1.879  0.6239  0.4821 -0.8783
 6381TIP3    H240779   1.393   6.227   2.003 -0.6863 -1.1359 -1.9230
 6382TIP3   OH240780   4.188   3.967   0.107 -0.0379  0.2724  0.1103
 6382TIP3    H140781   4.248   4.026   0.152 -0.7001  3.2074 -2.5123
 6382TIP3    H240782   4.110   3.965   0.162  0.0520  1.7861  0.3240
 6383TIP3   OH240783   3.258   3.649   8.629  0.0032 -0.2961 -0.3236
 6383TIP3    H140784   3.183   3.688   8.673  0.4562  1.4900 -1.0584
 6383TIP3    H240785   3.230   3.638   8.538  0.6736  0.5707 -0.6504
 6384TIP3   OH240786   3.387   0.573   0.300 -0.5303  0.0874 -0.5288
 6384TIP3    H140787   3.444   0.638   0.340 -0.7628  0.3352 -0.5958
 6384TIP3    H240788   3.319   0.624   0.257 -0.9927 -0.2098 -0.1692
 6385TIP3   OH240789   5.975   0.079   0.386  0.1767 -0.1802  0.1577
 6385TIP3    H140790   5.997   0.124   0.305  2.2878 -1.6823 -0.1722
 6385TIP3    H240791   6.008   0.136   0.455 -1.2118  0.8785 -0.0179
 6386TIP3   OH240792   0.751   4.506   0.418  0.1266  0.5484  0.1939
 6386TIP3    H140793   0.668   4.548   0.443  1.6461  1.9115  3.5793
 6386TIP3    H240794   0.815   4.577   0.417  1.3082 -0.4282 -2.6431
 6387TIP3   OH240795   3.327   3.383   1.867 -0.1235  0.0761  0.1191
 6387TIP3    H140796   3.364   3.299   1.840  0.6330  0.0758  1.1163
 6387TIP3    H240797   3.325   3.379   1.963  1.2313  1.7254  0.2636
 6388TIP3   OH240798   0.280   0.772   0.138 -0.2021 -0.7015  0.2780
 6388TIP3    H140799   0.192   0.756   0.105  0.1285  1.0535 -1.6557
 6388TIP3    H240800   0.276   0.746   0.230 -2.6754 -0.8318  0.2023
 6389TIP3   OH240801   4.398   5.561   8.772  0.0140 -0.0275  0.2175
 6389TIP3    H140802   4.324   5.517   8.813 -1.1081  1.2814 -0.3488
 6389TIP3    H240803   4.475   5.521   8.813 -0.9904  1.3466  3.8239
 6390TIP3   OH240804   3.051   2.158   2.777  0.0191  0.0584  0.1308
 6390TIP3    H140805   3.039   2.079   2.723  2.6830 -0.7173  0.4890
 6390TIP3    H240806   3.089   2.222   2.716  0.7976 -0.0125  0.5348
 6391TIP3   OH240807   6.562   3.489   1.771  0.6093 -0.1680 -0.1460
 6391TIP3    H140808   6.469   3.489   1.790  0.7547 -1.0797  0.6284
 6391TIP3    H240809   6.570   3.538   1.689 -0.5903 -0.4565 -0.4527
 6392TIP3   OH240810   2.836   4.581   6.660 -0.0288  0.3181 -0.4931
 6392TIP3    H140811   2.840   4.495   6.620  0.9155 -0.1661  0.5544
 6392TIP3    H240812   2.820   4.564   6.753  0.3259  1.2528 -0.2397
 6393TIP3   OH240813   0.468   2.078   7.857 -0.1515 -0.4572 -0.1940
 6393TIP3    H140814   0.483   2.023   7.934  1.0472 -0.4565 -0.4016
 6393TIP3    H240815   0.409   2.147   7.887 -1.1570 -1.4779  0.2350
 6394TIP3   OH240816   4.417   4.187   1.315  0.8726 -0.0905  0.2428
 6394TIP3    H140817   4.344   4.249   1.315  2.2731  1.6678  1.3442
 6394TIP3    H240818   4.465   4.205   1.234  1.5019  0.5737  0.7517
 6395TIP3   OH240819   5.274   1.163   7.878 -0.1876 -0.3777  0.4000
 6395TIP3    H140820   5.286   1.108   7.956 -0.3053 -0.5300  0.3122
 6395TIP3    H240821   5.183   1.193   7.885  0.0016  0.1519  0.6680
 6396TIP3   OH240822   2.302   1.837   6.744 -0.3191 -1.0442  0.3553
 6396TIP3    H140823   2.318   1.903   6.676 -0.4731 -0.5496  0.7912
 6396TIP3    H240824   2.274   1.887   6.820 -1.7042 -1.7005  0.3137
 6397TIP3   OH240825   2.650   4.410   7.317 -0.5213 -0.2946 -0.1295
 6397TIP3    H140826   2.615   4.489   7.358  1.8476  0.5822  0.4027
 6397TIP3    H240827   2.683   4.440   7.232  1.0998 -0.4601  0.3963
 6398TIP3   OH240828   1.533   6.254   8.144  0.3874  0.3474  0.2355
 6398TIP3    H140829   1.528   6.303   8.062  0.6111 -0.9405 -0.5715
 6398TIP3    H240830   1.498   6.167   8.122  1.8088 -0.4821  1.1146
 6399TIP3   OH240831   1.111   3.961   1.620 -0.3644  0.4517 -0.6512
 6399TIP3    H140832   1.107   3.874   1.579  0.6686  0.0417  0.0672
 6399TIP3    H240833   1.146   4.018   1.552  0.3268 -0.0053 -0.6887
 6400TIP3   OH240834   6.082   3.667   0.143  0.3230 -0.1552 -0.6850
 6400TIP3    H140835   6.125   3.641   0.224 -0.5314 -1.4696 -0.6271
 6400TIP3    H240836   6.128   3.619   0.075  1.2316  1.1690 -1.0535
 6401TIP3   OH240837   6.139   1.412   8.971 -0.3132  0.2244 -0.0140
 6401TIP3    H140838   6.076   1.341   8.959 -0.5830  0.5014 -0.2899
 6401TIP3    H240839   6.133   1.434   9.064 -1.2305  0.7931 -0.1959
 6402TIP3   OH240840   0.298   5.033   0.684  0.8920  0.1236  0.3170
 6402TIP3    H140841   0.303   5.109   0.627  0.7027 -0.9256 -1.1505
 6402TIP3    H240842   0.245   5.062   0.759  2.0925  1.8663  0.5592
 6403TIP3   OH240843   5.520   4.277   1.146  0.7751 -0.3533  0.0924
 6403TIP3    H140844   5.518   4.188   1.110  2.1560 -0.3329 -0.0959
 6403TIP3    H240845   5.608   4.286   1.182 -0.1971 -0.0075  2.6065
 6404TIP3   OH240846   3.213   3.280   0.466  0.2729  0.1880  0.0121
 6404TIP3    H140847   3.265   3.200   0.474 -0.5642 -0.4657 -0.9350
 6404TIP3    H240848   3.242   3.335   0.539  0.1798 -1.3595  1.2436
 6405TIP3   OH240849   0.155   5.725   0.119  0.0866  0.3958 -0.2411
 6405TIP3    H140850   0.149   5.820   0.129 -1.5336  0.2240  0.7200
 6405TIP3    H240851   0.158   5.691   0.208 -2.0841 -0.5489 -0.4608
 6406TIP3   OH240852   6.589   3.669   7.293 -0.8188 -0.0537 -0.2465
 6406TIP3    H140853   6.622   3.694   7.379 -1.5570  1.7879 -0.4559
 6406TIP3    H240854   6.549   3.749   7.258 -2.2411 -1.2452 -1.5064
 6407TIP3   OH240855   6.553   6.452   2.129 -0.6065  0.5349  0.5988
 6407TIP3    H140856   6.624   6.392   2.151 -0.6798 -0.0621 -0.6873
 6407TIP3    H240857   6.491   6.399   2.078 -0.0896  1.9466 -1.6185
 6408TIP3   OH240858   3.581   1.476   0.159  0.4391 -0.4285 -0.1035
 6408TIP3    H140859   3.601   1.498   0.068  0.1621  1.4148  0.2373
 6408TIP3    H240860   3.665   1.449   0.196  0.4848 -1.5777 -0.9760
 6409TIP3   OH240861   3.680   0.636   1.250 -0.2078  0.9453 -0.4104
 6409TIP3    H140862   3.730   0.653   1.170 -0.6433  1.6760 -0.5310
 6409TIP3    H240863   3.746   0.607   1.313  0.3881  1.8891 -0.5740
 6410TIP3   OH240864   2.076   6.694   0.281  0.5969  0.0793  0.4215
 6410TIP3    H140865   2.003   6.729   0.331 -1.1938 -0.4708 -1.6806
 6410TIP3    H240866   2.036   6.645   0.209  3.0287 -0.9688 -0.3507
 6411TIP3   OH240867   3.869   2.549   8.603  0.0964 -0.0618  0.1306
 6411TIP3    H140868   3.963   2.561   8.596  0.0968 -0.0753  0.1115
 6411TIP3    H240869   3.852   2.466   8.558 -0.1908  0.9561 -1.7431
 6412TIP3   OH240870   1.990   4.960   6.588 -0.4286 -0.0902  0.6579
 6412TIP3    H140871   1.930   4.990   6.656  0.1427  0.3224  0.9891
 6412TIP3    H240872   1.992   5.031   6.525  2.5160  1.6175  2.4479
 6413TIP3   OH240873   2.280   1.495   0.472  0.1071  0.3631 -0.1352
 6413TIP3    H140874   2.263   1.589   0.480  1.4070  0.7524 -1.5913
 6413TIP3    H240875   2.375   1.487   0.477 -0.0141 -0.9691  0.6472
 6414TIP3   OH240876   4.116   6.298   0.495  0.1951 -0.1729  0.3089
 6414TIP3    H140877   4.037   6.335   0.533  0.8466  0.0267  1.5003
 6414TIP3    H240878   4.088   6.213   0.461 -0.9720  0.7423 -1.1334
 6415TIP3   OH240879   0.609   5.749   0.439 -0.1543 -0.2877 -0.5024
 6415TIP3    H140880   0.639   5.704   0.360 -1.7837 -0.2007 -1.2089
 6415TIP3    H240881   0.601   5.680   0.504  0.3268 -0.5093 -0.6708
 6416TIP3   OH240882   2.642   3.304   8.889 -0.2021 -0.6547 -0.0793
 6416TIP3    H140883   2.574   3.241   8.866 -0.6565  0.4119 -1.8778
 6416TIP3    H240884   2.724   3.258   8.871 -0.5117 -0.9877 -0.6833
 6417TIP3   OH240885   0.905   5.477   9.005 -0.5582 -0.2060 -0.1004
 6417TIP3    H140886   0.934   5.549   8.949  0.0896 -0.7990 -0.5455
 6417TIP3    H240887   0.810   5.476   8.997 -0.4036 -1.5184 -2.7901
 6418TIP3   OH240888   6.076   3.336   0.651 -0.5326  0.0875 -0.1660
 6418TIP3    H140889   6.061   3.249   0.613  1.1796  0.7535 -2.6523
 6418TIP3    H240890   5.990   3.378   0.650 -1.1428 -1.1165 -0.2042
 6419TIP3   OH240891   2.171   3.168   0.005 -0.1111  0.2010 -0.1337
 6419TIP3    H140892   2.181   3.100   0.072 -0.0832  0.3416  0.0029
 6419TIP3    H240893   2.219   3.134  -0.070  0.6179  0.4554  0.2125
 6420TIP3   OH240894   3.455   5.358   8.539 -0.0437 -0.5477  0.1322
 6420TIP3    H140895   3.549   5.341   8.534 -0.2473 -1.4561 -3.2211
 6420TIP3    H240896   3.415   5.287   8.489 -2.7513 -1.1659  2.8222
 6421TIP3   OH240897   0.661   0.077   2.199 -0.4642 -0.1346 -0.2302
 6421TIP3    H140898   0.625   0.017   2.265  0.1165 -2.3361 -1.8191
 6421TIP3    H240899   0.590   0.088   2.136 -0.5053  0.7675 -0.0414
 6422TIP3   OH240900   6.133   6.609   8.051 -0.3491 -0.6624 -0.5281
 6422TIP3    H140901   6.041   6.585   8.065 -0.1915 -0.6310  0.7120
 6422TIP3    H240902   6.171   6.606   8.139  0.1332  2.3003 -0.5635
 6423TIP3   OH240903   4.604   5.173   8.056  0.3417 -0.6173 -0.0415
 6423TIP3    H140904   4.677   5.139   8.107 -0.0441  0.2039  1.1179
 6423TIP3    H240905   4.531   5.115   8.077  0.3989 -0.7912 -0.3317
 6424TIP3   OH240906   0.899   0.719   7.905  0.1547 -0.4588 -0.1197
 6424TIP3    H140907   0.842   0.796   7.908 -0.9156 -1.2119 -0.4784
 6424TIP3    H240908   0.904   0.689   7.996  0.5777  0.0185  0.0222
 6425TIP3   OH240909   6.632   6.401   8.699  0.0644  0.4981 -0.0528
 6425TIP3    H140910   6.716   6.372   8.665 -0.1214 -0.4247  0.2499
 6425TIP3    H240911   6.648   6.418   8.792  0.4275  2.4323 -0.4314
 6426TIP3   OH240912   5.780   2.740   8.835  0.3068  0.0246 -0.0133
 6426TIP3    H140913   5.860   2.769   8.878 -0.0860 -0.3911  1.0506
 6426TIP3    H240914   5.744   2.674   8.895 -2.3099  2.1948  1.0580
 6427TIP3   OH240915   5.610   2.498   8.597 -0.1166 -0.2829 -0.1345
 6427TIP3    H140916   5.620   2.564   8.528 -1.1524 -1.7729 -1.8032
 6427TIP3    H240917   5.558   2.542   8.665  1.3836  1.3917 -0.0039
 6428TIP3   OH240918   2.675   3.583   8.650 -0.2520  0.2185 -0.2550
 6428TIP3    H140919   2.623   3.564   8.728 -0.7291  1.6048 -0.1967
 6428TIP3    H240920   2.691   3.498   8.609  0.3513 -0.5901  1.5688
 6429TIP3   OH240921   3.367   5.306   0.084  0.0966  0.7299  0.7924
 6429TIP3    H140922   3.432   5.362   0.127 -0.0154 -0.1315  2.1202
 6429TIP3    H240923   3.285   5.325   0.129 -0.7916  2.2992 -1.3062
 6430TIP3   OH240924   4.293   3.936   1.449  0.4692  0.7401 -0.5635
 6430TIP3    H140925   4.367   3.974   1.497 -0.6241  3.1570 -0.6006
 6430TIP3    H240926   4.296   3.979   1.363 -1.3021  1.4340 -0.3331
 6431TIP3   OH240927   0.807   4.809   8.632  0.2842  0.0520 -0.4846
 6431TIP3    H140928   0.837   4.754   8.705 -2.1469 -0.5427  0.1643
 6431TIP3    H240929   0.822   4.899   8.662  0.6425 -0.2066  0.1275
 6432TIP3   OH240930   0.437   4.787   8.142 -0.4290  0.3387 -0.4480
 6432TIP3    H140931   0.350   4.825   8.147 -0.8127 -0.6606  1.0057
 6432TIP3    H240932   0.428   4.700   8.180  0.7999 -0.5622 -2.0895
 6433TIP3   OH240933   3.408   4.613   8.415 -0.2740  0.3115 -0.2070
 6433TIP3    H140934   3.438   4.540   8.469  0.6086  0.5022 -0.4346
 6433TIP3    H240935   3.475   4.680   8.426 -0.9891  1.0351 -0.1337
 6434TIP3   OH240936   4.564   4.697   0.807 -0.0523 -0.1710 -0.0200
 6434TIP3    H140937   4.543   4.789   0.795 -0.7873 -0.4042 -0.5999
 6434TIP3    H240938   4.501   4.650   0.752  0.2446 -1.0239  0.3432
 6435TIP3   OH240939   1.507   0.565   6.516  0.1971  0.0596  0.0288
 6435TIP3    H140940   1.424   0.588   6.476 -1.2972 -0.6098  2.5210
 6435TIP3    H240941   1.527   0.478   6.481 -1.6977 -1.0432  1.4932
 6436TIP3   OH240942   4.819   1.475   0.901 -0.4419  0.1664 -0.1810
 6436TIP3    H140943   4.729   1.465   0.931 -0.9886  0.9390 -1.4714
 6436TIP3    H240944   4.853   1.386   0.899 -0.5325  0.0211  2.1061
 6437TIP3   OH240945   2.745   6.560   1.764 -0.4418  0.5741 -0.5176
 6437TIP3    H140946   2.751   6.547   1.859 -0.4962  1.8161 -0.3188
 6437TIP3    H240947   2.713   6.477   1.730  0.4355 -0.1838  0.4513
 6438TIP3   OH240948   0.514   5.129   8.763  0.4465 -0.5102  0.1639
 6438TIP3    H140949   0.475   5.046   8.790 -1.8264  0.9195  1.5986
 6438TIP3    H240950   0.448   5.169   8.706  1.6288  0.2061 -0.7546
 6439TIP3   OH240951   4.312   0.540   8.289  0.2740 -0.0634 -0.4741
 6439TIP3    H140952   4.380   0.592   8.246 -0.1519 -0.4864 -1.7007
 6439TIP3    H240953   4.231   0.588   8.274  0.3921  1.0679  2.0193
 6440TIP3   OH240954   3.281   3.453   0.664  0.2272 -0.2535  0.3919
 6440TIP3    H140955   3.195   3.495   0.669 -0.0995 -0.9816  1.0334
 6440TIP3    H240956   3.342   3.526   0.656 -0.4449  0.2750 -0.0265
 6441TIP3   OH240957   1.435   1.294   8.383 -0.1292 -0.0685 -0.4639
 6441TIP3    H140958   1.514   1.349   8.386 -0.8208  0.9192  0.8535
 6441TIP3    H240959   1.441   1.240   8.462  0.0679 -1.2576 -1.2639
 6442TIP3   OH240960   6.052   4.270   1.571 -0.8745 -0.1415 -0.2165
 6442TIP3    H140961   6.119   4.230   1.627  1.2392  1.8676 -1.1339
 6442TIP3    H240962   5.971   4.228   1.597  0.5653 -1.9104  1.7670
 6443TIP3   OH240963   1.870   6.464   8.649  0.0285  0.0501  0.1003
 6443TIP3    H140964   1.964   6.470   8.636 -0.2210  3.9660 -1.1662
 6443TIP3    H240965   1.837   6.424   8.568  0.5077 -0.4942  0.1664
 6444TIP3   OH240966   4.459   3.161   1.610 -0.2455 -0.3414  0.5832
 6444TIP3    H140967   4.397   3.106   1.562 -0.0455 -0.4787  0.4815
 6444TIP3    H240968   4.531   3.176   1.549  0.0005 -0.4970  0.8317
 6445TIP3   OH240969   4.554   2.021   8.959  0.2041  0.3304  0.1533
 6445TIP3    H140970   4.473   1.972   8.943  0.0887  0.0866  1.3875
 6445TIP3    H240971   4.527   2.095   9.014  0.8848 -0.0553  1.0339
 6446TIP3   OH240972   4.790   6.520   0.976  0.5791  0.5138  0.0296
 6446TIP3    H140973   4.839   6.470   1.041 -1.3333 -0.6878  0.6284
 6446TIP3    H240974   4.832   6.499   0.893  0.9059 -0.7444  0.4861
 6447TIP3   OH240975   3.359   6.734   8.742  0.8268  0.6871  0.0689
 6447TIP3    H140976   3.357   6.827   8.719  2.0860  0.6777 -0.1261
 6447TIP3    H240977   3.269   6.714   8.770  0.1860  1.6123 -1.2453
 6448TIP3   OH240978   4.265   5.617   8.495  0.4013  0.2322 -0.5546
 6448TIP3    H140979   4.317   5.664   8.560  2.0349 -0.8390 -1.0262
 6448TIP3    H240980   4.246   5.532   8.536  0.0938  0.1415 -0.8760
 6449TIP3   OH240981   2.352   0.900   7.329 -0.0276 -0.0210 -0.2980
 6449TIP3    H140982   2.288   0.951   7.280  0.1277  0.6867  0.2190
 6449TIP3    H240983   2.317   0.894   7.417 -0.0662 -0.8638 -0.3587
 6450TIP3   OH240984   2.320   0.815   6.801 -0.2677 -0.1824 -0.0068
 6450TIP3    H140985   2.355   0.762   6.872 -0.6722 -1.2687 -0.5990
 6450TIP3    H240986   2.395   0.867   6.771  0.5328 -1.4886 -0.3746
 6451TIP3   OH240987   3.654   3.191   0.171  0.1998  0.8176 -0.5060
 6451TIP3    H140988   3.585   3.254   0.150 -0.3607  1.1483  1.9379
 6451TIP3    H240989   3.618   3.142   0.245  2.4209  0.7621  0.6068
 6452TIP3   OH240990   2.617   3.305   1.493 -0.5291 -0.6250  0.1861
 6452TIP3    H140991   2.525   3.306   1.468 -0.6593 -0.0392  0.6663
 6452TIP3    H240992   2.627   3.379   1.553  0.1291 -1.0244  0.5843
 6453TIP3   OH240993   1.383   5.171   8.429 -0.3852  0.2330  0.5428
 6453TIP3    H140994   1.418   5.218   8.353  2.9168  1.2175  2.4369
 6453TIP3    H240995   1.309   5.224   8.459  2.1469  3.5676  1.5694
 6454TIP3   OH240996   1.907   2.585   7.122 -0.1536 -0.1420 -0.0707
 6454TIP3    H140997   1.986   2.539   7.094 -1.3114 -1.1097 -1.9799
 6454TIP3    H240998   1.872   2.624   7.041 -1.0941  1.1272  0.8991
 6455TIP3   OH240999   3.480   3.474   8.632  0.0478  0.4483 -0.8678
 6455TIP3    H141000   3.531   3.500   8.708 -0.5891 -2.0124  0.5106
 6455TIP3    H241001   3.401   3.528   8.637 -0.2642 -0.0810  0.6392
 6456TIP3   OH241002   2.063   4.397   7.774 -0.1598 -0.0228 -0.7423
 6456TIP3    H141003   2.052   4.302   7.767  0.3675  0.0314 -3.7872
 6456TIP3    H241004   1.974   4.431   7.778 -0.3497 -0.6209  1.4985
 6457TIP3   OH241005   4.632   6.581   7.060  0.4250  0.0562  0.6068
 6457TIP3    H141006   4.659   6.667   7.028  3.1557  0.2914  3.1487
 6457TIP3    H241007   4.633   6.526   6.982  1.5774  1.6941 -0.6212
 6458TIP3   OH241008   2.470   3.853   1.412 -0.1247 -0.1959  0.0807
 6458TIP3    H141009   2.551   3.812   1.382 -0.7212  0.2832 -2.4204
 6458TIP3    H241010   2.455   3.816   1.499  2.5729 -0.5358  0.4861
 6459TIP3   OH241011   2.056   4.690   2.020 -0.1275 -0.2931  0.0196
 6459TIP3    H141012   2.096   4.704   1.934 -0.2662  1.1602  0.1712
 6459TIP3    H241013   2.123   4.718   2.083 -1.0531  1.4673  0.2920
 6460TIP3   OH241014   6.573   0.218   8.605 -0.4300 -0.0073 -0.0167
 6460TIP3    H141015   6.517   0.283   8.648  0.2689  0.6815 -0.1293
 6460TIP3    H241016   6.572   0.243   8.513 -2.6558 -2.0051 -0.6534
 6461TIP3   OH241017   5.047   6.323   6.614 -0.3596 -0.1002  0.1059
 6461TIP3    H141018   4.990   6.313   6.691 -0.1775 -0.2364  0.2255
 6461TIP3    H241019   5.126   6.273   6.637 -0.1502  0.1763 -0.0161
 6462TIP3   OH241020   6.524   4.274   6.791 -0.1038 -0.8597  0.1813
 6462TIP3    H141021   6.497   4.352   6.841 -2.2332 -1.2306 -0.2893
 6462TIP3    H241022   6.596   4.305   6.736 -0.8817  0.8044  0.0253
 6463TIP3   OH241023   5.204   3.534   7.842  0.0834 -0.1280  0.2428
 6463TIP3    H141024   5.118   3.575   7.842  1.0403  2.0071  0.2446
 6463TIP3    H241025   5.263   3.601   7.808  1.8981 -1.1761  1.1486
 6464TIP3   OH241026   3.195   6.655   8.404 -0.2382 -0.5583  0.4332
 6464TIP3    H141027   3.274   6.650   8.350  0.3877  0.7371  1.1865
 6464TIP3    H241028   3.223   6.623   8.490 -0.3296  0.5632  0.8983
 6465TIP3   OH241029   4.127   5.965   7.659 -0.1827 -0.5550 -0.1891
 6465TIP3    H141030   4.214   5.931   7.638 -1.0567 -2.7352 -0.5991
 6465TIP3    H241031   4.106   6.024   7.587  0.7587 -0.3743 -0.3280
 6466TIP3   OH241032   2.644   1.017   8.834  0.3095  0.2892 -0.4718
 6466TIP3    H141033   2.739   1.021   8.849  0.3648  0.2812 -0.8298
 6466TIP3    H241034   2.618   0.933   8.871  0.1522  1.0293  1.2417
 6467TIP3   OH241035   0.123   6.709   1.149  0.0016  0.1302  0.3323
 6467TIP3    H141036   0.031   6.723   1.129  0.0980  2.2589  1.1705
 6467TIP3    H241037   0.122   6.654   1.228 -0.4851 -1.1124 -0.5053
 6468TIP3   OH241038   0.479   4.145   1.544 -0.6137  0.3379 -0.6840
 6468TIP3    H141039   0.515   4.084   1.608  0.6826 -1.4424 -2.9448
 6468TIP3    H241040   0.515   4.230   1.569  0.5452 -0.4447  0.4502
 6469TIP3   OH241041   4.653   3.097   7.354 -0.3119 -0.1896  0.7956
 6469TIP3    H141042   4.649   3.108   7.259 -1.2850 -0.3187  0.8140
 6469TIP3    H241043   4.736   3.139   7.380 -1.5077  2.7142  0.2792
 6470TIP3   OH241044   3.310   4.659   0.806 -0.4279 -0.1799  0.0354
 6470TIP3    H141045   3.236   4.699   0.852  0.3514  0.9726  0.3353
 6470TIP3    H241046   3.386   4.682   0.859  0.5032  1.1992 -1.7978
 6471TIP3   OH241047   0.104   3.616   1.646 -0.1355  0.1526 -0.1887
 6471TIP3    H141048   0.097   3.709   1.622  1.1544 -0.3053 -2.6324
 6471TIP3    H241049   0.165   3.579   1.582 -0.6478 -2.4151  0.6910
 6472TIP3   OH241050   5.976   3.516   1.673  0.0591  0.0792 -0.5986
 6472TIP3    H141051   5.918   3.504   1.598  0.3079 -0.6630 -0.6766
 6472TIP3    H241052   6.062   3.488   1.642  0.1223 -0.4482  0.0305
 6473TIP3   OH241053   5.578   0.754   8.456  0.3565 -0.6472 -0.1240
 6473TIP3    H141054   5.561   0.812   8.382 -0.4340 -0.0665  0.5082
 6473TIP3    H241055   5.616   0.675   8.416  0.3718 -0.1563 -1.0945
 6474TIP3   OH241056   5.859   1.994   2.046  0.2315 -0.1564  0.2352
 6474TIP3    H141057   5.871   1.938   2.122  0.4031 -1.6719 -0.8556
 6474TIP3    H241058   5.814   2.071   2.079 -1.9760 -1.8577  1.4440
 6475TIP3   OH241059   5.258   0.194   0.650  0.2731 -0.5092  0.1586
 6475TIP3    H141060   5.301   0.191   0.735 -0.3710  0.1590  0.5153
 6475TIP3    H241061   5.241   0.102   0.628 -0.7414 -0.6347  1.3687
 6476TIP3   OH241062   0.011   4.002   1.131  0.0203  0.4875  0.0390
 6476TIP3    H141063   0.054   3.918   1.116 -0.9819 -0.1005  0.3180
 6476TIP3    H241064   0.076   4.068   1.107  1.4398 -0.3413  1.4089
 6477TIP3   OH241065   3.412   0.995   8.117 -0.3518 -0.0811 -0.2222
 6477TIP3    H141066   3.475   0.943   8.167  1.1192 -0.1472 -2.0628
 6477TIP3    H241067   3.349   0.931   8.085 -0.5704 -0.2110  0.4413
 6478TIP3   OH241068   0.925   0.392   0.198  0.1052  0.2986 -0.6539
 6478TIP3    H141069   0.857   0.395   0.266  0.2204 -1.3906 -0.4336
 6478TIP3    H241070   0.961   0.481   0.197 -2.1990  1.3052 -0.9124
 6479TIP3   OH241071   3.039   0.815   1.777 -0.1294 -0.0195  0.2729
 6479TIP3    H141072   3.014   0.894   1.826  1.9798  0.0489  1.3167
 6479TIP3    H241073   3.024   0.839   1.685 -0.3746  1.2868  0.6294
 6480TIP3   OH241074   3.601   4.776   7.873 -0.7491  0.1230  0.3512
 6480TIP3    H141075   3.648   4.704   7.832 -0.0910  0.0026  1.2686
 6480TIP3    H241076   3.597   4.752   7.966 -0.4094  1.3162  0.6903
 6481TIP3   OH241077   2.886   0.901   1.561  0.0340 -0.2956 -0.1373
 6481TIP3    H141078   2.817   0.919   1.624  1.6545  3.2519  0.8792
 6481TIP3    H241079   2.885   0.977   1.502  1.0202 -1.7135 -2.1214
 6482TIP3   OH241080   4.300   0.585   1.321 -0.4688  0.9626 -0.2305
 6482TIP3    H141081   4.383   0.582   1.368 -0.9762  0.9732  0.6951
 6482TIP3    H241082   4.322   0.617   1.234  0.3704  1.8202  0.2873
 6483TIP3   OH241083   0.253   0.982   1.856  0.5183  0.0629 -0.1964
 6483TIP3    H141084   0.159   0.972   1.868  0.6064  0.4026  0.9532
 6483TIP3    H241085   0.290   0.896   1.877  0.5147  0.1292  0.0899
 6484TIP3   OH241086   1.382   5.941   8.875  0.6175  0.4344  0.4923
 6484TIP3    H141087   1.321   6.000   8.920  1.3384  1.8980 -0.3589
 6484TIP3    H241088   1.347   5.933   8.786  1.5883  1.2110  0.0262
 6485TIP3   OH241089   0.021   2.954   9.001 -0.0646 -0.1804  0.1878
 6485TIP3    H141090  -0.066   2.976   8.968 -0.0812 -0.3153  0.1401
 6485TIP3    H241091   0.017   2.860   9.018  0.1154 -0.2122  0.0581
 6486TIP3   OH241092   6.143   4.354   1.110 -0.1309 -0.7908  0.4813
 6486TIP3    H141093   6.111   4.321   1.194  1.3416 -1.8347  0.6778
 6486TIP3    H241094   6.106   4.295   1.045 -0.2058 -0.7807  0.5145
 6487TIP3   OH241095   5.137   5.976   0.680  0.1544 -0.0011 -0.2662
 6487TIP3    H141096   5.166   5.886   0.672 -0.2052 -0.1292 -0.1665
 6487TIP3    H241097   5.132   5.993   0.774 -0.9944 -0.2923 -0.2532
 6488TIP3   OH241098   6.315   6.661   7.860  0.4906 -0.0712 -0.0818
 6488TIP3    H141099   6.267   6.685   7.780  0.0874  1.4102  0.5722
 6488TIP3    H241100   6.247   6.628   7.919  0.3939  1.1684  0.5190
 6489TIP3   OH241101   2.134   2.512   1.221  0.2129 -0.2770  0.0416
 6489TIP3    H141102   2.203   2.487   1.283 -0.5011  0.4353  1.1401
 6489TIP3    H241103   2.181   2.559   1.151  0.9444 -0.5244  0.3560
 6490TIP3   OH241104   1.741   6.534   1.245 -0.3267 -0.1314  0.0465
 6490TIP3    H141105   1.647   6.544   1.262 -0.7695 -1.2015 -1.5679
 6490TIP3    H241106   1.755   6.573   1.159  0.5636 -0.6481 -0.0551
 6491TIP3   OH241107   4.111   3.546   1.254 -0.2551  0.7994 -0.2571
 6491TIP3    H141108   4.107   3.641   1.238 -0.0643  0.6457 -1.2863
 6491TIP3    H241109   4.025   3.523   1.288  0.0508  1.5203  1.0779
 6492TIP3   OH241110   5.144   6.325   0.968 -0.4888  0.1830 -0.6505
 6492TIP3    H141111   5.082   6.371   1.024 -0.3308  1.1291 -1.2301
 6492TIP3    H241112   5.183   6.393   0.914 -0.4430 -0.6670 -1.7320
 6493TIP3   OH241113   2.429   2.497   7.286 -0.1312  0.7036  0.0388
 6493TIP3    H141114   2.511   2.530   7.322  0.6400 -0.5310 -0.4987
 6493TIP3    H241115   2.411   2.554   7.211  0.8153  0.3599 -0.4723
 6494TIP3   OH241116   5.699   2.134   2.433 -0.0155 -0.3956 -0.2201
 6494TIP3    H141117   5.735   2.206   2.381  2.3932  0.5884  2.5517
 6494TIP3    H241118   5.605   2.152   2.435  0.1812  1.1685 -1.7353
 6495TIP3   OH241119   4.496   1.692   1.826 -0.0787  0.1293  0.4517
 6495TIP3    H141120   4.570   1.737   1.785  1.2089 -1.6910  0.6349
 6495TIP3    H241121   4.445   1.762   1.867  0.3846  1.6541 -1.4152
 6496TIP3   OH241122   2.022   5.219   2.271 -0.2946  0.0887  0.5921
 6496TIP3    H141123   1.953   5.258   2.218  0.2787 -0.0326 -0.2578
 6496TIP3    H241124   2.102   5.229   2.219  0.4931  0.9149  1.8775
 6497TIP3   OH241125   1.375   4.838   1.959 -0.1216 -0.1051 -0.2840
 6497TIP3    H141126   1.322   4.805   2.031 -2.6434  2.2684 -0.8590
 6497TIP3    H241127   1.393   4.761   1.904 -0.9155 -1.3839  1.1876
 6498TIP3   OH241128   1.387   5.983   1.380 -0.0659 -0.1150 -0.1652
 6498TIP3    H141129   1.475   6.018   1.368  0.1126 -0.6184 -0.3442
 6498TIP3    H241130   1.364   5.945   1.295 -0.3881 -0.1299 -0.0725
 6499TIP3   OH241131   5.901   2.752   1.621 -0.3752 -0.3323 -0.1005
 6499TIP3    H141132   5.861   2.833   1.653 -1.2231 -0.4430 -0.8345
 6499TIP3    H241133   5.995   2.769   1.623 -0.5656  1.2888 -1.7360
 6500TIP3   OH241134   2.666   4.013   1.066 -0.2284  0.2825  0.0769
 6500TIP3    H141135   2.661   4.088   1.007 -1.3334  0.8831  0.9017
 6500TIP3    H241136   2.668   4.051   1.154  3.1808 -0.5077  0.4859
 6501TIP3   OH241137   0.836   4.136   8.069  0.3343 -0.2939 -0.2208
 6501TIP3    H141138   0.906   4.096   8.017  0.0150 -0.3723 -0.5982
 6501TIP3    H241139   0.759   4.131   8.012  0.6230  2.3679 -1.0186
 6502TIP3   OH241140   0.499   4.754   0.345  0.0827 -0.0452 -0.3811
 6502TIP3    H141141   0.445   4.775   0.421  2.2159 -0.8388  1.4413
 6502TIP3    H241142   0.452   4.682   0.302 -0.2773 -0.8253  1.2491
 6503TIP3   OH241143   3.586   2.741   7.862  0.1006 -0.3628 -0.1837
 6503TIP3    H141144   3.531   2.734   7.785 -1.2635  0.4014  0.6864
 6503TIP3    H241145   3.547   2.811   7.914  1.6179 -0.1133  0.6982
 6504TIP3   OH241146   4.117   4.667   1.759 -0.4281 -0.1466 -0.0538
 6504TIP3    H141147   4.033   4.713   1.760 -0.2449  0.1879  1.0128
 6504TIP3    H241148   4.103   4.593   1.700 -0.6878  1.3216 -1.9442
 6505TIP3   OH241149   4.999   1.031   8.181  0.2474 -0.4121 -0.2838
 6505TIP3    H141150   5.045   1.030   8.265  0.0485 -1.1959 -0.1755
 6505TIP3    H241151   4.952   0.948   8.179  0.8397 -0.7377 -1.5009
 6506TIP3   OH241152   1.299   6.637   1.510 -0.2393 -0.2465  0.2192
 6506TIP3    H141153   1.209   6.639   1.477 -1.3044 -0.1993  2.9026
 6506TIP3    H241154   1.329   6.548   1.493 -0.2518  0.0967 -1.8783
 6507TIP3   OH241155   6.038   0.464   0.977  0.2660 -0.1177  0.3632
 6507TIP3    H141156   6.089   0.540   0.947 -1.7795  1.6261  1.0740
 6507TIP3    H241157   6.044   0.467   1.072 -2.1168  0.9297  0.5566
 6508TIP3   OH241158   1.762   4.353   8.584  0.2934  0.2887  0.0571
 6508TIP3    H141159   1.689   4.313   8.630  0.6930  0.0469  0.4924
 6508TIP3    H241160   1.825   4.374   8.654 -0.5674  3.1962  0.1163
 6509TIP3   OH241161   2.393   4.726   7.075  0.6095  1.0704  0.0263
 6509TIP3    H141162   2.407   4.643   7.028  3.4361  0.8349  1.1210
 6509TIP3    H241163   2.321   4.768   7.028 -1.1008 -2.0769 -0.4307
 6510TIP3   OH241164   4.520   0.875   1.599 -0.1462  0.3632 -0.0787
 6510TIP3    H141165   4.555   0.793   1.632  1.8446  1.4171  0.5798
 6510TIP3    H241166   4.428   0.856   1.580 -0.2956 -1.4163  2.0928
 6511TIP3   OH241167   1.153   6.257   1.666 -0.5211  0.7233  0.2118
 6511TIP3    H141168   1.111   6.218   1.589  0.1212  2.2998 -0.9882
 6511TIP3    H241169   1.245   6.266   1.642 -0.1253  0.4090  1.5335
 6512TIP3   OH241170   4.001   5.978   7.153  0.2082 -0.1100  0.3993
 6512TIP3    H141171   4.035   6.057   7.109  0.1961  0.5241  1.5061
 6512TIP3    H241172   4.076   5.918   7.156 -0.0397 -0.5786 -1.3545
 6513TIP3   OH241173   2.902   5.061   1.379  0.0655  0.5797 -0.5055
 6513TIP3    H141174   2.970   5.092   1.438 -0.5763  2.0724 -0.5290
 6513TIP3    H241175   2.822   5.060   1.432 -0.2859  0.7843 -1.0248
 6514TIP3   OH241176   4.754   1.273   2.267  0.3724 -0.0994 -0.4144
 6514TIP3    H141177   4.699   1.338   2.311  2.1381 -0.3921  2.4443
 6514TIP3    H241178   4.826   1.323   2.230 -1.1439  0.1584 -3.3241
 6515TIP3   OH241179   1.446   3.426   7.391  0.1529 -0.3117  0.0462
 6515TIP3    H141180   1.407   3.513   7.385 -1.2075 -0.7377  1.9396
 6515TIP3    H241181   1.372   3.368   7.408  1.5220 -1.0570  4.6664
 6516TIP3   OH241182   0.252   2.500   7.805  0.2110  0.2448  0.3115
 6516TIP3    H141183   0.218   2.539   7.725 -0.5748  2.0146  1.4469
 6516TIP3    H241184   0.346   2.491   7.790 -0.2192 -1.9003 -1.7274
 6517TIP3   OH241185   4.514   6.190   2.287 -0.3620  0.2705 -0.3213
 6517TIP3    H141186   4.459   6.258   2.327 -0.6756  0.2665 -0.7479
 6517TIP3    H241187   4.576   6.238   2.233  0.5417  0.3250  0.7293
 6518TIP3   OH241188   0.776   1.717   8.677  0.0486  0.0809 -0.2723
 6518TIP3    H141189   0.769   1.624   8.697  2.1297  0.0986  0.8154
 6518TIP3    H241190   0.827   1.720   8.596  1.6763  0.2624  0.7110
 6519TIP3   OH241191   5.880   5.580   8.889  0.2117 -0.0689  0.5012
 6519TIP3    H141192   5.959   5.529   8.870  0.8325  1.1562 -0.2862
 6519TIP3    H241193   5.879   5.588   8.984  0.8310 -0.4080  0.5426
 6520TIP3   OH241194   3.861   6.482   6.363 -0.0040  0.2322  0.3407
 6520TIP3    H141195   3.783   6.434   6.390  0.0009  0.4532  0.7525
 6520TIP3    H241196   3.874   6.457   6.271  0.5442 -1.2860  0.8073
 6521TIP3   OH241197   0.505   0.718   9.040  0.0492 -0.0252 -0.0434
 6521TIP3    H141198   0.442   0.724   9.112  0.1792  2.8983 -0.0474
 6521TIP3    H241199   0.515   0.808   9.009  0.6972 -1.0535 -3.1713
 6522TIP3   OH241200   3.749   6.188   7.659 -0.2371  0.2696 -0.0868
 6522TIP3    H141201   3.756   6.275   7.621  1.2994 -0.4000 -1.4785
 6522TIP3    H241202   3.803   6.191   7.737 -2.1878  1.2215  1.3050
 6523TIP3   OH241203   5.241   1.413   0.508 -0.3544  0.2636  0.0750
 6523TIP3    H141204   5.246   1.406   0.413 -2.1991 -1.4783  0.0426
 6523TIP3    H241205   5.332   1.420   0.536  0.1865  2.6380 -1.8694
 6524TIP3   OH241206   3.058   1.969   7.774 -0.0816  0.3725 -0.1039
 6524TIP3    H141207   3.113   1.908   7.823 -0.6759  1.1390  1.5884
 6524TIP3    H241208   2.987   1.992   7.834 -0.5961  1.7161 -1.1610
 6525TIP3   OH241209   2.511   4.960   8.245 -0.3771  0.4546 -0.1445
 6525TIP3    H141210   2.443   4.983   8.308 -2.4352  1.2025 -2.4720
 6525TIP3    H241211   2.552   5.044   8.223  0.6705  0.1337  0.4943
 6526TIP3   OH241212   3.612   3.692   7.286  0.0506  0.0532  0.4988
 6526TIP3    H141213   3.544   3.667   7.349 -0.0719 -0.3104  0.2212
 6526TIP3    H241214   3.640   3.610   7.246 -0.1692  0.3270 -0.2273
 6527TIP3   OH241215   4.952   6.376   0.235 -0.0966 -0.1632 -0.3374
 6527TIP3    H141216   4.926   6.420   0.154 -0.3829  2.7716  1.1853
 6527TIP3    H241217   4.963   6.284   0.210 -0.3908  0.5438 -3.6148
 6528TIP3   OH241218   0.205   1.469   2.160 -0.6345  0.0467 -0.2241
 6528TIP3    H141219   0.113   1.495   2.154 -0.2063  1.7657  0.2491
 6528TIP3    H241220   0.203   1.390   2.215 -1.5689  1.7693  2.3748
 6529TIP3   OH241221   6.372   3.288   6.997  0.4053  0.2792 -0.0222
 6529TIP3    H141222   6.396   3.349   6.927 -0.5568 -2.8192 -3.3618
 6529TIP3    H241223   6.278   3.300   7.007  0.0231 -1.1629 -1.4154
 6530TIP3   OH241224   5.712   2.939   8.591 -0.2820  0.2034  0.0664
 6530TIP3    H141225   5.770   2.872   8.555 -0.2091 -0.5671  1.5579
 6530TIP3    H241226   5.725   3.015   8.533 -1.6003 -1.4888 -2.6884
 6531TIP3   OH241227   1.000   1.369   7.010 -0.3820  0.3787 -0.4550
 6531TIP3    H141228   0.995   1.376   7.106  1.3864 -1.0445 -0.2108
 6531TIP3    H241229   0.994   1.275   6.993 -0.1535  0.5805 -1.7207
 6532TIP3   OH241230   6.189   4.189   7.960 -0.8123 -0.4419 -0.3744
 6532TIP3    H141231   6.209   4.232   7.877  0.8096  2.3447  1.2891
 6532TIP3    H241232   6.147   4.258   8.012  0.8598 -1.1583  2.0916
 6533TIP3   OH241233   6.550   4.374   1.972 -0.5099  0.6678 -0.2229
 6533TIP3    H141234   6.609   4.394   2.045  1.6841  1.3384 -2.0559
 6533TIP3    H241235   6.549   4.279   1.968  0.2764  0.6360  0.0161
 6534TIP3   OH241236   3.771   2.503   1.532 -0.2931 -0.0485 -0.3471
 6534TIP3    H141237   3.681   2.513   1.560 -0.1342  0.8411 -0.1169
 6534TIP3    H241238   3.824   2.529   1.608  0.1803 -1.6266 -0.0986
 6535TIP3   OH241239   5.299   0.967   2.337  0.0400  0.1924 -0.2291
 6535TIP3    H141240   5.323   0.913   2.412  0.4560 -0.3042 -0.7111
 6535TIP3    H241241   5.217   1.009   2.363  1.4587  2.0602  1.5230
 6536TIP3   OH241242   6.060   3.420   7.585 -0.1969 -0.4118  0.2672
 6536TIP3    H141243   5.983   3.385   7.539 -2.1556  1.3157  1.9890
 6536TIP3    H241244   6.127   3.426   7.518  0.3294 -6.7276 -0.3965
 6537TIP3   OH241245   6.351   2.963   0.781 -0.3809  0.3944  0.5281
 6537TIP3    H141246   6.300   2.912   0.717  1.8781 -1.6691  0.2159
 6537TIP3    H241247   6.336   2.919   0.864 -0.9779  1.2729  0.9003
 6538TIP3   OH241248   2.713   5.467   9.041  0.0832  0.0318  0.2448
 6538TIP3    H141249   2.797   5.486   9.000  0.5798  0.0407  1.2417
 6538TIP3    H241250   2.723   5.379   9.077 -1.4339 -1.3255 -2.3817
 6539TIP3   OH241251   3.999   1.739   0.070  0.0120 -0.2989  0.1017
 6539TIP3    H141252   4.048   1.667   0.030 -0.6307 -0.0490 -1.1854
 6539TIP3    H241253   3.995   1.806   0.002 -2.0131 -0.2722  0.1883
 6540TIP3   OH241254   3.735   0.348   1.969 -0.0947  0.2009  0.0606
 6540TIP3    H141255   3.723   0.378   2.059  0.0828  0.6242 -0.0522
 6540TIP3    H241256   3.656   0.377   1.923  0.0240  0.3904 -0.0231
 6541TIP3   OH241257   4.940   4.221   8.548 -0.1724 -0.0384 -0.0574
 6541TIP3    H141258   4.983   4.204   8.632  0.7207 -0.7694 -0.6475
 6541TIP3    H241259   4.863   4.163   8.549 -1.7025  1.8788  1.3562
 6542TIP3   OH241260   4.081   6.501   7.709  0.0828 -0.3441  0.4471
 6542TIP3    H141261   4.086   6.408   7.732  0.4415 -1.4281 -3.3108
 6542TIP3    H241262   4.172   6.529   7.703  0.0163 -0.1725  0.2176
 6543TIP3   OH241263   1.431   4.536   0.316  0.0014  0.7964  0.2860
 6543TIP3    H141264   1.452   4.626   0.341 -1.7380  1.2687  0.1376
 6543TIP3    H241265   1.510   4.505   0.272  0.5790  2.2974  0.1848
 6544TIP3   OH241266   0.666   4.326   1.056 -0.0329  0.9099  0.0539
 6544TIP3    H141267   0.581   4.311   1.013  0.1921  0.6057 -0.2913
 6544TIP3    H241268   0.726   4.345   0.984  0.1173  1.4878  0.3287
 6545TIP3   OH241269   3.534   1.573   7.802  0.0958 -0.0082  0.4590
 6545TIP3    H141270   3.542   1.594   7.709  0.4269  2.6059  0.9798
 6545TIP3    H241271   3.450   1.528   7.809 -0.0262 -0.0808 -1.0771
 6546TIP3   OH241272   2.359   5.950   7.306 -0.3184  0.5135 -0.5472
 6546TIP3    H141273   2.425   5.889   7.272 -0.5096 -0.4143  0.6803
 6546TIP3    H241274   2.400   6.036   7.298  0.9253 -0.0101 -0.1145
 6547TIP3   OH241275   0.957   6.428   7.139 -0.1566  0.3254 -0.6226
 6547TIP3    H141276   0.949   6.495   7.071 -0.1468  0.5570 -0.3962
 6547TIP3    H241277   0.956   6.345   7.091 -0.1618  0.4869 -0.9041
 6548TIP3   OH241278   1.636   5.078   1.839 -0.3120 -0.0759  0.1477
 6548TIP3    H141279   1.729   5.089   1.860 -0.1953 -2.3022  1.0933
 6548TIP3    H241280   1.635   5.003   1.778 -1.5295 -0.5274  0.7090
 6549TIP3   OH241281   1.457   6.717   0.618  0.0013  0.7681 -0.3745
 6549TIP3    H141282   1.432   6.631   0.582  0.6086 -0.0243  1.0304
 6549TIP3    H241283   1.381   6.745   0.668  0.6922 -0.1430  1.2369
 6550TIP3   OH241284   4.164   0.105   0.963  0.0289 -0.3181 -0.2892
 6550TIP3    H141285   4.231   0.046   0.997 -0.3237 -0.0962  0.8306
 6550TIP3    H241286   4.206   0.191   0.959 -0.1139 -0.2197  0.2160
 6551TIP3   OH241287   0.556   4.077   0.784  0.8312 -0.2891  0.2928
 6551TIP3    H141288   0.485   4.107   0.726  1.4995 -0.7869 -0.7980
 6551TIP3    H241289   0.633   4.126   0.755  1.1100 -0.3255  0.9604
 6552TIP3   OH241290   0.633   0.958   0.400  0.2240  0.2661  0.2333
 6552TIP3    H141291   0.579   0.910   0.463 -0.2429  0.9876  0.3994
 6552TIP3    H241292   0.670   0.891   0.343 -0.1355 -0.3108  0.6729
 6553TIP3   OH241293   2.949   6.327   1.869  0.3655 -0.1072 -0.7942
 6553TIP3    H141294   2.875   6.331   1.931  0.3964 -0.8580 -0.7049
 6553TIP3    H241295   3.007   6.397   1.898  0.3044 -0.3468 -0.0602
 6554TIP3   OH241296   2.546   0.377   2.073  0.3416  0.2796 -0.5338
 6554TIP3    H141297   2.628   0.390   2.026  0.2435 -2.2458 -1.5965
 6554TIP3    H241298   2.568   0.314   2.142 -0.7765 -1.0218 -1.3025
 6555TIP3   OH241299   1.488   3.039   0.005  0.0152 -0.0695 -0.1333
 6555TIP3    H141300   1.403   2.996  -0.005  1.5437 -3.3518 -0.3629
 6555TIP3    H241301   1.482   3.089   0.086 -1.7727 -1.1300  0.4188
 6556TIP3   OH241302   5.556   1.388   8.454  0.0941 -0.1949 -0.1475
 6556TIP3    H141303   5.594   1.402   8.542  0.1051 -0.7171 -0.0641
 6556TIP3    H241304   5.485   1.451   8.448  0.6727  0.4814 -0.1205
 6557TIP3   OH241305   3.476   5.367   1.975  0.1524 -0.2742 -0.6682
 6557TIP3    H141306   3.533   5.390   2.048  0.7587  0.8833 -1.4830
 6557TIP3    H241307   3.388   5.394   2.004  0.4457  0.5426 -0.5230
 6558TIP3   OH241308   2.912   5.294   1.216  0.5877  0.6212 -0.2189
 6558TIP3    H141309   2.920   5.244   1.297 -0.0445  0.3381 -0.3270
 6558TIP3    H241310   2.999   5.288   1.175  0.1662 -1.6350 -0.9468
 6559TIP3   OH241311   1.111   1.297   1.586  0.0511  0.1093  0.1251
 6559TIP3    H141312   1.167   1.232   1.630 -0.7902 -0.5027  0.3181
 6559TIP3    H241313   1.172   1.361   1.550  0.8944 -0.7093  0.0707
 6560TIP3   OH241314   3.245   4.217   8.076  0.0584 -0.1999 -0.0042
 6560TIP3    H141315   3.164   4.260   8.047 -0.6234 -1.6296 -0.3097
 6560TIP3    H241316   3.251   4.237   8.169 -1.1169 -0.7402  0.2119
 6561TIP3   OH241317   0.880   6.623   0.652 -0.2130  0.6697 -0.3132
 6561TIP3    H141318   0.845   6.662   0.572  0.1105  0.6442 -0.4700
 6561TIP3    H241319   0.971   6.603   0.631  0.0627  1.2567  0.2676
 6562TIP3   OH241320   1.911   2.980   7.579  0.2383  0.3828  0.5074
 6562TIP3    H141321   1.929   3.073   7.587 -0.6283  0.4981  1.2798
 6562TIP3    H241322   1.902   2.948   7.669 -3.2021  0.3581  0.2994
 6563TIP3   OH241323   3.853   5.711   7.344 -0.2932  0.1230  0.4118
 6563TIP3    H141324   3.923   5.653   7.376 -1.1617 -2.1973 -1.5231
 6563TIP3    H241325   3.874   5.723   7.251 -2.3860 -0.5830 -0.1931
 6564TIP3   OH241326   4.604   6.168   8.963 -0.4584  0.3895  1.1644
 6564TIP3    H141327   4.610   6.084   9.009 -2.5304  0.4099  1.6017
 6564TIP3    H241328   4.631   6.149   8.874 -0.5224 -0.6676  1.3619
 6565TIP3   OH241329   3.144   0.577   0.463 -0.1824  0.1259  0.7786
 6565TIP3    H141330   3.236   0.590   0.439 -0.4164 -0.6530 -0.6134
 6565TIP3    H241331   3.147   0.512   0.534  0.3284  0.1530  0.7891
 6566TIP3   OH241332   2.170   4.471   0.169  0.7438 -0.1057  0.0099
 6566TIP3    H141333   2.185   4.389   0.122  2.4945 -0.2377  0.7112
 6566TIP3    H241334   2.085   4.459   0.212  0.9097 -1.4926 -0.0108
 6567TIP3   OH241335   1.717   2.177   7.709 -0.3939 -0.0315 -0.8748
 6567TIP3    H141336   1.729   2.119   7.784  0.2957 -1.6358 -2.1744
 6567TIP3    H241337   1.802   2.220   7.699 -0.3266 -0.2001 -1.0352
 6568TIP3   OH241338   5.153   4.253   1.049  0.2297 -0.1056  0.1971
 6568TIP3    H141339   5.088   4.318   1.021 -1.2497 -1.6602 -0.1623
 6568TIP3    H241340   5.104   4.172   1.057  2.1520 -1.3693 -0.0850
 6569TIP3   OH241341   2.673   0.214   0.740 -0.3735 -0.0401 -0.9181
 6569TIP3    H141342   2.680   0.294   0.689 -1.5775  0.0689 -0.9376
 6569TIP3    H241343   2.731   0.152   0.695 -0.9613  0.2279 -2.0765
 6570TIP3   OH241344   5.461   0.273   7.738  0.1152  0.9305  0.4429
 6570TIP3    H141345   5.548   0.295   7.770  0.5781  0.1202 -0.2461
 6570TIP3    H241346   5.458   0.178   7.739 -1.4501  0.9257  2.2823
 6571TIP3   OH241347   2.081   3.741   7.273 -0.1772  0.3608 -0.3391
 6571TIP3    H141348   2.018   3.789   7.328 -0.7231  1.6614 -2.0293
 6571TIP3    H241349   2.165   3.783   7.292 -0.8563  3.3431 -3.0022
 6572TIP3   OH241350   4.847   2.023   0.462 -0.1149 -0.5493 -0.6771
 6572TIP3    H141351   4.856   1.937   0.421  0.2899 -0.4696 -0.7552
 6572TIP3    H241352   4.875   2.009   0.553 -1.8818 -0.9400 -0.1477
 6573TIP3   OH241353   6.522   0.878   8.268  0.3170 -0.4527 -0.1832
 6573TIP3    H141354   6.575   0.827   8.206 -2.1596  0.2749 -3.1594
 6573TIP3    H241355   6.553   0.968   8.257  1.2240 -0.5543  1.2502
 6574TIP3   OH241356   2.898   2.365   2.440 -0.5411 -0.3662  0.4564
 6574TIP3    H141357   2.820   2.419   2.424  0.1383  0.7155  0.6698
 6574TIP3    H241358   2.869   2.275   2.425 -1.4998  0.1189 -0.7014
 6575TIP3   OH241359   0.848   6.339   8.137  0.2033  0.4380 -0.0380
 6575TIP3    H141360   0.790   6.264   8.126 -0.3596  1.1067 -2.0001
 6575TIP3    H241361   0.936   6.302   8.130 -0.0359 -0.1615  0.0372
 6576TIP3   OH241362   5.318   6.169   1.140 -0.1760  0.7460 -0.7783
 6576TIP3    H141363   5.252   6.215   1.088 -0.9170 -0.4355 -0.9245
 6576TIP3    H241364   5.402   6.195   1.102 -0.5952  1.6159 -1.1260
 6577TIP3   OH241365   6.150   4.942   8.400 -0.2909  0.4675 -0.2225
 6577TIP3    H141366   6.126   4.858   8.439 -1.3800  0.1932 -1.4184
 6577TIP3    H241367   6.196   4.918   8.320  0.8175  1.0250  0.2301
 6578TIP3   OH241368   5.185   1.096   9.015 -0.0925  0.2753 -0.2275
 6578TIP3    H141369   5.176   1.016   9.068  1.3205 -1.4046 -2.3715
 6578TIP3    H241370   5.100   1.105   8.972 -0.7716  0.8545  1.1551
 6579TIP3   OH241371   2.489   5.746   2.445 -0.0072  0.0150  0.4184
 6579TIP3    H141372   2.426   5.805   2.486 -1.5264 -3.0416  2.9192
 6579TIP3    H241373   2.561   5.740   2.507  0.2233 -0.6107  0.1009
 6580TIP3   OH241374   3.501   0.777   0.466  0.5720  0.3266 -0.5259
 6580TIP3    H141375   3.514   0.759   0.559 -1.7607  0.6817 -0.0737
 6580TIP3    H241376   3.417   0.822   0.461  0.7499  0.5523 -2.7978
 6581TIP3   OH241377   5.753   5.081   1.035  0.0284 -0.3651 -0.3167
 6581TIP3    H141378   5.667   5.092   0.995  0.3588  0.2436 -0.8660
 6581TIP3    H241379   5.812   5.063   0.962  0.0977 -2.6436  0.2029
 6582TIP3   OH241380   2.127   2.845   8.074  0.0103  0.0989  0.2596
 6582TIP3    H141381   2.143   2.781   8.144 -1.4221  0.8557  1.3349
 6582TIP3    H241382   2.129   2.930   8.119 -3.0250  0.4840 -0.1393
 6583TIP3   OH241383   6.000   5.799   0.151  0.4761  1.1865 -0.0200
 6583TIP3    H141384   5.926   5.745   0.123  1.8075 -0.9732  0.3507
 6583TIP3    H241385   5.966   5.854   0.220 -0.4884 -0.8564  1.2192
 6584TIP3   OH241386   2.498   5.162   0.095  0.2504 -0.5169  0.1457
 6584TIP3    H141387   2.584   5.204   0.102 -0.0110 -0.1078  1.1264
 6584TIP3    H241388   2.510   5.075   0.134 -0.3800  0.5107  2.8532
 6585TIP3   OH241389   5.742   6.646   0.999 -0.3350 -0.0772  0.0271
 6585TIP3    H141390   5.795   6.596   0.938 -0.8622  0.4617 -0.8836
 6585TIP3    H241391   5.742   6.735   0.965  2.4827  1.1761  2.8221
 6586TIP3   OH241392   3.134   5.770   7.971  0.5463  0.1976 -0.1771
 6586TIP3    H141393   3.144   5.698   7.908 -1.5417 -1.7075  1.4944
 6586TIP3    H241394   3.188   5.743   8.046 -2.6341 -1.3788  1.7418
 6587TIP3   OH241395   5.489   6.045   7.246  0.0852 -0.1487  0.3981
 6587TIP3    H141396   5.408   6.035   7.197  0.5235  0.0241 -0.3892
 6587TIP3    H241397   5.544   5.973   7.216  0.3896  0.0029  0.5819
 6588TIP3   OH241398   6.025   3.345   8.874  0.9026  0.0937 -0.3515
 6588TIP3    H141399   6.088   3.293   8.825  1.6267 -0.4693  1.1107
 6588TIP3    H241400   6.078   3.398   8.934  0.0187 -0.3420  0.8623
 6589TIP3   OH241401   6.337   3.987   8.906 -0.0182 -0.0591 -0.1509
 6589TIP3    H141402   6.256   3.975   8.956 -1.5875 -1.3968 -2.8067
 6589TIP3    H241403   6.340   4.080   8.887 -0.9746  0.0105 -0.0215
 6590TIP3   OH241404   2.246   3.164   0.426  0.1358 -0.3473 -0.1909
 6590TIP3    H141405   2.219   3.255   0.410  0.3089 -0.4059 -0.8400
 6590TIP3    H241406   2.299   3.169   0.506 -0.6582 -0.0266  0.3258
 6591TIP3   OH241407   0.626   3.620   7.692  0.1043 -0.0381 -0.5710
 6591TIP3    H141408   0.592   3.668   7.768 -2.1191 -0.2688 -1.3423
 6591TIP3    H241409   0.652   3.535   7.727  2.6754  1.0854  0.5430
 6592TIP3   OH241410   1.256   5.138   2.142 -0.4383  0.1638 -0.3873
 6592TIP3    H141411   1.202   5.062   2.162 -0.6554  0.5765  0.6510
 6592TIP3    H241412   1.229   5.204   2.205  1.2333  0.4120  0.1170
 6593TIP3   OH241413   0.750   3.075   0.103  0.1340  0.5375  0.8972
 6593TIP3    H141414   0.715   3.156   0.066 -0.8396 -0.2023  0.1415
 6593TIP3    H241415   0.680   3.044   0.161 -0.0467 -0.4048  0.1989
 6594TIP3   OH241416   1.905   5.980   0.344 -0.1362  0.0796  0.1180
 6594TIP3    H141417   1.953   5.926   0.282  0.6579 -0.0425  0.8153
 6594TIP3    H241418   1.819   5.938   0.351  0.3661 -0.9284  0.4100
 6595TIP3   OH241419   4.025   0.497   8.730 -0.1810 -0.1683  0.0876
 6595TIP3    H141420   4.102   0.458   8.689  0.2843 -0.0479  0.8265
 6595TIP3    H241421   4.057   0.578   8.768 -0.0491 -1.3304  2.6460
 6596TIP3   OH241422   5.151   1.444   6.549  0.0349  0.7646  0.6770
 6596TIP3    H141423   5.195   1.365   6.516  1.5391  0.4357  3.2527
 6596TIP3    H241424   5.075   1.410   6.598 -0.7360  1.1083 -0.2383
 6597TIP3   OH241425   2.025   3.464   2.178  0.2026 -0.5691  0.2685
 6597TIP3    H141426   2.015   3.380   2.133  0.9382  0.0014 -1.0438
 6597TIP3    H241427   2.033   3.441   2.270 -3.4893 -1.6629  0.4663
 6598TIP3   OH241428   3.378   4.041   2.877 -0.8208 -0.4106  0.8774
 6598TIP3    H141429   3.414   3.963   2.836  0.8855  1.2174 -0.9696
 6598TIP3    H241430   3.389   4.027   2.971 -0.3239 -2.2296  0.5847
 6599TIP3   OH241431   4.514   2.744   7.242  0.9514 -0.2877 -0.3513
 6599TIP3    H141432   4.566   2.729   7.163  1.1406  1.2566 -0.5541
 6599TIP3    H241433   4.439   2.795   7.212  0.7551 -0.1274  0.3906
 6600TIP3   OH241434   3.853   1.599   8.448  0.4075  0.6077  0.7011
 6600TIP3    H141435   3.890   1.687   8.443  3.8133 -0.7542 -1.2894
 6600TIP3    H241436   3.845   1.570   8.357 -2.0863 -0.6478  1.2446
 6601TIP3   OH241437   0.424   0.058   8.562 -0.0104  0.7458  0.0274
 6601TIP3    H141438   0.365   0.125   8.528 -1.7990 -0.8418 -0.1521
 6601TIP3    H241439   0.480   0.036   8.487  0.3586  1.7468 -0.0125
 6602TIP3   OH241440   3.676   6.517   0.804 -0.2643 -0.0288 -0.3175
 6602TIP3    H141441   3.622   6.522   0.725 -0.2449 -1.3318 -0.4493
 6602TIP3    H241442   3.619   6.476   0.869 -0.2158  0.8617  0.2968
 6603TIP3   OH241443   2.080   2.566   1.581  0.4195  0.5878  0.1605
 6603TIP3    H141444   2.081   2.582   1.675  2.2409  0.5361  0.1865
 6603TIP3    H241445   2.158   2.609   1.548  0.4631 -0.4207 -1.1527
 6604TIP3   OH241446   0.331   5.434   1.668  0.0446 -0.1234 -0.2237
 6604TIP3    H141447   0.245   5.408   1.636 -1.8430  1.3789  3.0729
 6604TIP3    H241448   0.359   5.362   1.724 -0.3369  0.4474  0.7330
 6605TIP3   OH241449   5.529   5.254   8.971 -0.2263 -0.0043  0.4142
 6605TIP3    H141450   5.536   5.304   9.052 -0.3448  1.7145 -0.5733
 6605TIP3    H241451   5.547   5.318   8.902  0.0758 -1.4559 -0.9152
 6606TIP3   OH241452   3.381   2.533   7.342 -0.5526 -0.7127  0.2653
 6606TIP3    H141453   3.468   2.497   7.329 -0.7652 -1.4524  0.8696
 6606TIP3    H241454   3.340   2.530   7.255 -0.2524 -1.0819  0.1383
 6607TIP3   OH241455   6.562   0.459   6.614  0.9431 -0.1490  0.0058
 6607TIP3    H141456   6.482   0.429   6.657  1.2774  0.7055  1.2662
 6607TIP3    H241457   6.597   0.380   6.572  0.5163 -0.9929  1.1636
 6608TIP3   OH241458   1.100   4.282   2.185  0.6520 -0.5444 -0.1575
 6608TIP3    H141459   1.025   4.342   2.189  1.2889  0.3523 -1.1747
 6608TIP3    H241460   1.136   4.284   2.274  1.5972  1.8572 -0.5213
 6609TIP3   OH241461   3.968   1.002   1.548  0.7325  0.4612  0.0093
 6609TIP3    H141462   3.947   1.047   1.466  1.1418 -2.0086 -1.5408
 6609TIP3    H241463   4.059   1.027   1.566  0.6087  1.0916 -0.1953
 6610TIP3   OH241464   2.707   6.221   0.305 -0.3280  0.6866 -0.0999
 6610TIP3    H141465   2.635   6.263   0.258 -1.4355 -0.8124  0.1740
 6610TIP3    H241466   2.683   6.229   0.397 -0.9276 -1.0821 -0.0609
 6611TIP3   OH241467   2.961   0.981   1.151  0.2811 -0.1866 -0.0250
 6611TIP3    H141468   2.913   0.988   1.234  1.7209 -1.8209  1.0039
 6611TIP3    H241469   3.001   1.067   1.140 -0.0296  0.0917  0.9099
 6612TIP3   OH241470   0.464   3.736   1.835  0.1023  0.0932  0.2454
 6612TIP3    H141471   0.399   3.682   1.879 -1.8446  0.2093 -2.3095
 6612TIP3    H241472   0.492   3.685   1.759  1.2362  1.0385 -0.0135
 6613TIP3   OH241473   2.711   5.427   6.972 -0.3195 -0.4639 -0.2276
 6613TIP3    H141474   2.787   5.482   6.990 -0.5569 -0.3540  0.4964
 6613TIP3    H241475   2.650   5.484   6.927 -1.9483  0.9697  3.3951
 6614TIP3   OH241476   3.251   3.813   8.136 -0.1227 -0.0277  0.6088
 6614TIP3    H141477   3.324   3.837   8.079  1.4712 -0.3847  2.4269
 6614TIP3    H241478   3.175   3.811   8.077  0.6437  3.6318 -0.7545
 6615TIP3   OH241479   4.543   2.632   1.614 -0.3345  0.1959  0.4445
 6615TIP3    H141480   4.475   2.603   1.553  0.0314  2.9540 -1.4387
 6615TIP3    H241481   4.624   2.594   1.579 -0.3694  0.2227  0.3352
 6616TIP3   OH241482   2.134   3.831   1.533 -0.9051  0.3571  0.5014
 6616TIP3    H141483   2.092   3.753   1.571 -1.1521  0.8776  1.3272
 6616TIP3    H241484   2.225   3.825   1.562 -0.8905  0.3070  0.4464
 6617TIP3   OH241485   3.730   2.245   1.240 -0.1164  0.4074 -0.0030
 6617TIP3    H141486   3.715   2.284   1.154  0.1962  0.2820 -0.1160
 6617TIP3    H241487   3.812   2.283   1.270  0.2251 -0.2047 -0.1415
 6618TIP3   OH241488   4.707   1.290   0.191 -0.0004  0.3154  0.2353
 6618TIP3    H141489   4.620   1.329   0.198  0.1533  0.9503 -1.0848
 6618TIP3    H241490   4.701   1.208   0.240 -1.8229 -0.4351 -1.1140
 6619TIP3   OH241491   6.404   3.150   8.561 -0.0789 -0.8363  0.3655
 6619TIP3    H141492   6.423   3.068   8.514  3.3264  1.3480 -2.6497
 6619TIP3    H241493   6.485   3.170   8.607 -0.2112  1.5819 -0.3197
 6620TIP3   OH241494   5.026   5.488   0.122 -0.1971  0.4966 -0.0799
 6620TIP3    H141495   4.984   5.571   0.102 -1.8063 -0.4620 -0.9213
 6620TIP3    H241496   4.959   5.422   0.102  1.9286 -1.1850 -2.2520
 6621TIP3   OH241497   5.847   0.437   6.508 -0.0405 -0.3176  0.2809
 6621TIP3    H141498   5.756   0.463   6.522  0.2408  1.0077 -0.2389
 6621TIP3    H241499   5.870   0.474   6.422  0.5242 -1.9398 -0.3158
 6622TIP3   OH241500   4.250   2.452   7.832 -0.1485  0.2423  0.0728
 6622TIP3    H141501   4.231   2.546   7.822 -1.9993 -0.1460 -0.3954
 6622TIP3    H241502   4.276   2.424   7.744 -0.0720  0.2132  0.1050
 6623TIP3   OH241503   2.816   1.410   7.882  0.0730  0.0533 -0.3828
 6623TIP3    H141504   2.779   1.486   7.926  0.2310  0.6224 -1.1931
 6623TIP3    H241505   2.903   1.438   7.855 -0.2050 -0.0912 -1.4899
 6624TIP3   OH241506   2.441   2.264   0.322  0.1653 -0.4409 -0.1993
 6624TIP3    H141507   2.352   2.239   0.297  0.2279  0.9419 -2.0462
 6624TIP3    H241508   2.454   2.350   0.281  1.8269  0.0796  1.3013
 6625TIP3   OH241509   4.327   1.341   8.395 -0.2644 -0.3826 -0.4570
 6625TIP3    H141510   4.359   1.315   8.308 -1.0052  0.4572 -1.0038
 6625TIP3    H241511   4.234   1.320   8.393 -0.2531 -0.4992  0.1986
 6626TIP3   OH241512   5.786   3.570   2.572 -0.1003  0.1374 -0.4313
 6626TIP3    H141513   5.857   3.508   2.587 -0.7346 -1.3847 -2.9806
 6626TIP3    H241514   5.707   3.516   2.575 -0.7585  0.9845 -1.7217
 6627TIP3   OH241515   2.322   0.452   7.803  0.0338  0.5024 -0.2282
 6627TIP3    H141516   2.286   0.526   7.854  1.1060 -0.2768  1.7749
 6627TIP3    H241517   2.330   0.381   7.867 -0.4999 -1.2244 -1.9943
 6628TIP3   OH241518   1.659   0.118   2.807  0.3336 -0.5312  0.2196
 6628TIP3    H141519   1.741   0.098   2.761  1.8882 -1.0386  2.9930
 6628TIP3    H241520   1.616   0.033   2.817 -0.1666 -0.3752 -0.5329
 6629TIP3   OH241521   0.815   0.871   6.694 -0.4721  0.2940  0.3516
 6629TIP3    H141522   0.767   0.950   6.668 -0.4903 -0.3563 -1.7741
 6629TIP3    H241523   0.747   0.806   6.710 -0.4038 -0.0794 -0.7666
 6630TIP3   OH241524   4.346   6.275   7.569 -0.3941 -0.5423  0.5296
 6630TIP3    H141525   4.316   6.355   7.526 -0.1081 -1.2663 -1.1043
 6630TIP3    H241526   4.300   6.273   7.652 -0.3058  1.3802  0.6680
 6631TIP3   OH241527   6.407   1.242   0.387  0.3538  0.0834  0.2165
 6631TIP3    H141528   6.391   1.337   0.387  1.7416  0.3969 -2.2758
 6631TIP3    H241529   6.321   1.203   0.400 -0.0557  1.6316  2.8404
 6632TIP3   OH241530   6.591   6.229   1.777 -0.6698  0.5917 -0.1631
 6632TIP3    H141531   6.608   6.221   1.683 -0.5480 -0.0357 -0.0946
 6632TIP3    H241532   6.520   6.293   1.784  0.5204  1.9844 -0.5607
 6633TIP3   OH241533   1.591   5.678   6.632 -0.3808  0.9816 -0.8507
 6633TIP3    H141534   1.596   5.584   6.613 -1.5846  0.7304 -0.0560
 6633TIP3    H241535   1.500   5.701   6.615 -0.7583  1.4124  1.4143
 6634TIP3   OH241536   3.632   6.417   1.287 -0.2736  0.3879  0.0818
 6634TIP3    H141537   3.609   6.328   1.312 -2.4133  0.7588 -0.3668
 6634TIP3    H241538   3.603   6.425   1.196  2.6950  0.6492 -0.9596
 6635TIP3   OH241539   2.739   4.262   8.264  0.3270  0.5127 -0.1776
 6635TIP3    H141540   2.778   4.343   8.231 -0.6324  1.0869  0.0698
 6635TIP3    H241541   2.772   4.254   8.354  1.2191  0.0839 -0.5286
 6636TIP3   OH241542   2.999   0.899   2.209 -0.2403  0.0699 -0.0764
 6636TIP3    H141543   2.962   0.844   2.141 -0.0984  1.2293 -1.1399
 6636TIP3    H241544   2.992   0.988   2.174  0.2280  0.6527  1.2466
 6637TIP3   OH241545   4.458   2.689   8.159  0.3715 -0.6734 -0.0037
 6637TIP3    H141546   4.537   2.715   8.111 -0.4672  0.3937 -0.8509
 6637TIP3    H241547   4.456   2.594   8.150  0.8736 -0.5988 -1.0759
 6638TIP3   OH241548   5.959   4.087   0.135  0.4916  0.7869 -0.0648
 6638TIP3    H141549   5.989   4.160   0.188 -1.3062  0.7138  1.1268
 6638TIP3    H241550   5.865   4.080   0.153  0.1660 -0.3838 -1.8978
 6639TIP3   OH241551   0.335   0.445   7.702  0.0070  0.2581 -0.1951
 6639TIP3    H141552   0.245   0.433   7.674 -0.9753 -1.0481  3.0136
 6639TIP3    H241553   0.368   0.356   7.716  1.6456  0.7253 -0.8354
 6640TIP3   OH241554   5.676   6.202   0.154  0.2433 -0.1774  0.2714
 6640TIP3    H141555   5.690   6.151   0.074 -1.2718 -1.1638  0.5990
 6640TIP3    H241556   5.759   6.248   0.167  0.2741  0.7012 -2.3282
 6641TIP3   OH241557   3.256   0.866   0.393 -0.5689 -0.5613 -0.5163
 6641TIP3    H141558   3.213   0.853   0.309 -0.7116  1.3245 -0.7814
 6641TIP3    H241559   3.331   0.922   0.373 -0.4165 -0.3624  0.5444
 6642TIP3   OH241560   1.826   6.252   1.281 -0.1611 -0.6590 -0.2751
 6642TIP3    H141561   1.823   6.348   1.289  1.3231 -0.7308  2.6768
 6642TIP3    H241562   1.919   6.231   1.281 -0.4773 -2.1556 -0.0761
 6643TIP3   OH241563   5.929   5.245   1.804  0.5356 -0.1217  0.3969
 6643TIP3    H141564   5.920   5.239   1.899  0.3397  0.7005  0.4421
 6643TIP3    H241565   5.842   5.223   1.770 -0.7419  3.7909  0.6433
 6644TIP3   OH241566   1.222   3.945   2.150  0.2273 -0.5324  0.1859
 6644TIP3    H141567   1.238   3.852   2.163  0.9885 -0.4251  0.0526
 6644TIP3    H241568   1.271   3.988   2.221  2.0689 -0.1015 -1.2656
 6645TIP3   OH241569   2.944   6.504   7.770 -0.2506  0.2240 -0.2212
 6645TIP3    H141570   2.883   6.434   7.793 -0.0977 -0.4064 -1.6510
 6645TIP3    H241571   3.017   6.460   7.727 -0.2912  1.2718 -1.4319
 6646TIP3   OH241572   3.413   5.737   0.179  0.9526  0.3979 -0.0226
 6646TIP3    H141573   3.427   5.642   0.175 -0.4743  0.1877 -0.7051
 6646TIP3    H241574   3.501   5.774   0.186  1.4516 -1.0231  1.7108
 6647TIP3   OH241575   4.929   2.402   1.716  0.0692  0.0298  0.3031
 6647TIP3    H141576   4.865   2.424   1.783  0.3047  0.6112  0.3411
 6647TIP3    H241577   4.892   2.326   1.671 -0.6589  0.3881  0.2948
 6648TIP3   OH241578   2.324   2.973   1.310  0.4985 -0.2774  0.3191
 6648TIP3    H141579   2.348   2.976   1.218  0.7713  1.2421  0.4211
 6648TIP3    H241580   2.251   2.911   1.314  0.5231 -0.3995 -0.8895
 6649TIP3   OH241581   2.859   2.358   8.877  0.0785 -0.4115  0.0092
 6649TIP3    H141582   2.785   2.298   8.882  1.2424 -2.0307 -1.0519
 6649TIP3    H241583   2.839   2.415   8.803  0.1465 -1.2461 -0.6666
 6650TIP3   OH241584   3.614   2.408   8.519  0.0836  0.3185 -0.5599
 6650TIP3    H141585   3.645   2.449   8.438  0.1719 -1.0804 -1.2574
 6650TIP3    H241586   3.538   2.461   8.544  1.3960  2.1763 -0.2698
 6651TIP3   OH241587   5.811   2.831   1.107  0.6885  0.0342 -0.5560
 6651TIP3    H141588   5.875   2.889   1.068 -0.5744  0.2452 -2.4439
 6651TIP3    H241589   5.729   2.881   1.107  0.6409  0.2242  2.8522
 6652TIP3   OH241590   3.756   1.092   0.468  0.0140 -0.2750  0.0646
 6652TIP3    H141591   3.727   1.176   0.504 -0.2484  0.4101 -1.6580
 6652TIP3    H241592   3.783   1.042   0.545  1.0335  1.6942  1.1013
 6653TIP3   OH241593   6.613   0.909   1.797 -0.5806 -0.5301  0.2907
 6653TIP3    H141594   6.650   0.927   1.883 -0.7571  0.9145  0.0861
 6653TIP3    H241595   6.521   0.889   1.814 -0.3703 -1.3249  0.5290
 6654TIP3   OH241596   1.440   1.379   8.040 -0.3032 -0.0554  0.1343
 6654TIP3    H141597   1.528   1.407   8.016 -0.0104 -0.8396  0.2387
 6654TIP3    H241598   1.449   1.284   8.055 -1.7946 -0.7903 -2.8412
 6655TIP3   OH241599   1.746   5.029   8.363 -0.2556 -0.2147  0.6131
 6655TIP3    H141600   1.741   5.094   8.433 -0.4914 -0.2059  0.5902
 6655TIP3    H241601   1.701   5.070   8.289  0.1401 -0.1574  0.4060
 6656TIP3   OH241602   3.922   6.465   0.630  0.5357  0.3646  0.0535
 6656TIP3    H141603   3.992   6.468   0.695 -0.4382  0.8932  1.1106
 6656TIP3    H241604   3.841   6.470   0.681 -0.3178 -1.0728 -1.0863
 6657TIP3   OH241605   0.230   1.991   8.304  0.0794 -0.2188 -0.2546
 6657TIP3    H141606   0.173   2.056   8.263  0.2636  0.9336  1.2002
 6657TIP3    H241607   0.316   2.008   8.267 -0.2157 -0.9203 -1.2919
 6658TIP3   OH241608   1.923   5.218   0.096 -0.4474 -0.4558  0.1155
 6658TIP3    H141609   2.017   5.204   0.081  0.3749  0.9166  3.1394
 6658TIP3    H241610   1.903   5.302   0.055 -0.6905 -1.2991 -1.5512
 6659TIP3   OH241611   4.095   6.288   8.287  0.0786 -0.1653  0.0759
 6659TIP3    H141612   4.048   6.291   8.370  1.3271 -1.6436  0.8901
 6659TIP3    H241613   4.107   6.195   8.269  1.3898  0.1466 -0.8508
 6660TIP3   OH241614   5.139   5.756   7.114 -0.1261 -0.8513  0.1115
 6660TIP3    H141615   5.177   5.816   7.049 -0.2218 -1.5959 -0.6388
 6660TIP3    H241616   5.072   5.707   7.066 -2.2435  0.5687  1.4407
 6661TIP3   OH241617   2.996   3.636   1.961  0.4343 -0.1963  0.0468
 6661TIP3    H141618   2.929   3.657   1.895  0.2214  0.5875  0.4933
 6661TIP3    H241619   3.014   3.543   1.949 -0.1388 -0.2256 -0.6302
 6662TIP3   OH241620   3.923   6.153   1.269 -0.1569  0.1879  0.4540
 6662TIP3    H141621   3.866   6.103   1.210 -0.3541 -1.7409  2.1622
 6662TIP3    H241622   3.982   6.200   1.211 -0.3063 -1.6519 -1.3115
 6663TIP3   OH241623   5.507   3.472   1.821  0.3910  0.2005 -0.3335
 6663TIP3    H141624   5.450   3.419   1.765  1.6814 -3.1771  1.2474
 6663TIP3    H241625   5.463   3.473   1.905 -0.4646  3.3593 -0.7118
 6664TIP3   OH241626   4.177   4.673   0.272  0.6116 -0.0241  0.1556
 6664TIP3    H141627   4.266   4.673   0.306  0.7738  3.0364  0.0040
 6664TIP3    H241628   4.180   4.730   0.195 -1.8104  2.0948  1.4496
 6665TIP3   OH241629   4.330   3.530   7.869 -0.5083 -0.1557 -0.5393
 6665TIP3    H141630   4.360   3.473   7.798 -1.1769 -0.0160 -0.9383
 6665TIP3    H241631   4.295   3.607   7.825 -0.2112  0.2784 -0.0240
 6666TIP3   OH241632   6.141   2.931   8.329  0.0528 -0.0522 -0.1699
 6666TIP3    H141633   6.208   2.864   8.339  0.6123  0.3447 -1.1038
 6666TIP3    H241634   6.094   2.907   8.249 -2.9415 -2.0033  1.9281
 6667TIP3   OH241635   3.080   4.752   7.138 -0.0518 -0.5439  1.2366
 6667TIP3    H141636   3.143   4.760   7.067 -0.1135 -0.3349  1.2063
 6667TIP3    H241637   3.097   4.666   7.176  0.9995 -0.0353  1.9469
 6668TIP3   OH241638   5.560   0.925   1.513  0.2626 -0.2311 -0.6554
 6668TIP3    H141639   5.574   0.836   1.480  3.9600  0.0193 -0.1381
 6668TIP3    H241640   5.500   0.914   1.587  0.1967 -2.1868 -0.9541
 6669TIP3   OH241641   2.641   1.511   1.077 -0.4424 -0.0756  0.5123
 6669TIP3    H141642   2.685   1.451   1.137  0.0531  1.0467  1.3041
 6669TIP3    H241643   2.677   1.598   1.099 -0.7257  0.4455 -0.9752
 6670TIP3   OH241644   5.915   4.616   6.662  0.0669  0.8090 -0.2588
 6670TIP3    H141645   5.833   4.659   6.686  0.2446  1.3690 -0.6379
 6670TIP3    H241646   5.965   4.613   6.744 -1.4517 -2.1933  0.7265
 6671TIP3   OH241647   6.690   0.583   7.011  0.0798 -0.8683  0.8105
 6671TIP3    H141648   6.736   0.660   6.976  0.1774 -1.4264 -0.3469
 6671TIP3    H241649   6.599   0.596   6.985 -0.3619 -0.0209  2.6501
 6672TIP3   OH241650   3.515   2.143   8.864 -0.1855  0.2493  0.3485
 6672TIP3    H141651   3.501   2.106   8.777  0.4755 -0.1504  0.4110
 6672TIP3    H241652   3.438   2.199   8.878 -0.7175 -0.3322 -0.1467
 6673TIP3   OH241653   0.192   3.984   0.661 -0.4101 -0.1660  0.4363
 6673TIP3    H141654   0.244   3.928   0.720  1.1982  0.9308  0.1247
 6673TIP3    H241655   0.150   4.047   0.718  1.1442  0.8931  0.4750
 6674TIP3   OH241656   2.978   0.261   1.215  0.7431  0.0138 -0.2679
 6674TIP3    H141657   3.049   0.322   1.232 -0.7586  1.9607 -0.5801
 6674TIP3    H241658   2.930   0.301   1.142  0.4993 -2.2886 -1.4522
 6675TIP3   OH241659   1.035   5.674   8.493  0.5180  0.1771  0.7500
 6675TIP3    H141660   1.047   5.694   8.586 -0.9164  3.1995  0.4260
 6675TIP3    H241661   0.940   5.677   8.480  0.7523  2.3793 -1.1815
 6676TIP3   OH241662   1.894   0.091   1.935  0.4396 -0.0993  0.3172
 6676TIP3    H141663   1.919  -0.001   1.947  0.8009 -0.1664 -0.8047
 6676TIP3    H241664   1.830   0.090   1.865 -0.2613  0.4249  0.9340
 6677TIP3   OH241665   5.422   2.405   7.423 -0.0669 -0.1812 -0.2603
 6677TIP3    H141666   5.393   2.346   7.492 -0.2697 -0.6893 -0.7669
 6677TIP3    H241667   5.514   2.420   7.441 -0.4157  0.7870  0.8940
 6678TIP3   OH241668   0.787   0.961   8.536 -0.0845  0.5041  0.2147
 6678TIP3    H141669   0.802   1.030   8.601 -1.4772  0.3483  0.7305
 6678TIP3    H241670   0.771   0.882   8.588  1.1068 -0.1573 -0.3686
 6679TIP3   OH241671   0.532   6.207   8.466 -0.0477  0.3329  0.6116
 6679TIP3    H141672   0.436   6.209   8.473 -0.0244 -0.7055  1.5593
 6679TIP3    H241673   0.550   6.186   8.375 -0.7451 -0.0319  0.5541
 6680TIP3   OH241674   3.535   0.824   2.133  0.7026  0.5139 -0.3846
 6680TIP3    H141675   3.596   0.895   2.155  2.7826 -0.8662 -1.3537
 6680TIP3    H241676   3.591   0.747   2.121 -1.3948 -1.1330 -0.1592
 6681TIP3   OH241677   1.428   2.692   1.467 -0.2768 -0.1096 -0.0783
 6681TIP3    H141678   1.480   2.683   1.547 -0.6189 -0.3498  0.1222
 6681TIP3    H241679   1.386   2.606   1.457 -0.9507  0.2047 -0.0128
 6682TIP3   OH241680   0.180   2.130   0.713  0.7574  0.5782 -0.7357
 6682TIP3    H141681   0.182   2.037   0.690 -0.1205  0.4614 -0.3841
 6682TIP3    H241682   0.249   2.139   0.779  0.3310  0.0026 -0.1949
 6683TIP3   OH241683   0.808   5.411   8.243  0.7972  0.4767  0.1252
 6683TIP3    H141684   0.790   5.440   8.332 -0.3671  0.0895  0.0360
 6683TIP3    H241685   0.844   5.488   8.200  1.7016  0.5652  1.0157
 6684TIP3   OH241686   5.560   0.858   6.737 -0.1737  0.1662  0.4243
 6684TIP3    H141687   5.636   0.830   6.788 -0.2036 -0.4183  0.1502
 6684TIP3    H241688   5.514   0.777   6.716  0.8039  0.1821 -2.0742
 6685TIP3   OH241689   1.886   6.352   7.822 -0.0397 -0.1560 -0.8388
 6685TIP3    H141690   1.926   6.282   7.875  1.7450  1.8735  0.6726
 6685TIP3    H241691   1.943   6.360   7.746 -0.6645 -0.7841 -1.3903
 6686TIP3   OH241692   5.573   4.055   9.006 -0.4188  0.2553  0.3242
 6686TIP3    H141693   5.640   4.014   8.951 -2.2633  0.0127 -1.8688
 6686TIP3    H241694   5.621   4.082   9.085  1.6541 -2.6822  0.2638
 6687TIP3   OH241695   4.981   4.912   7.989 -0.2019 -0.0310  0.8900
 6687TIP3    H141696   5.031   4.976   7.938 -1.4071  0.3193  0.0793
 6687TIP3    H241697   4.908   4.887   7.931  0.1885 -2.1091  1.1983
 6688TIP3   OH241698   3.634   0.100   0.099 -0.1031 -0.8843 -0.0247
 6688TIP3    H141699   3.574   0.163   0.139  1.6193 -0.2845  1.7890
 6688TIP3    H241700   3.613   0.016   0.141  0.1049 -0.7242  0.4143
 6689TIP3   OH241701   4.868   5.872   8.595 -0.0916  0.0117  0.0191
 6689TIP3    H141702   4.820   5.865   8.512 -0.2648  0.7049  0.0498
 6689TIP3    H241703   4.960   5.864   8.570 -0.0070  1.9758 -0.5170
 6690TIP3   OH241704   5.744   3.019   8.864  0.2246  0.2552  0.1059
 6690TIP3    H141705   5.723   2.926   8.870 -0.5019  0.5083  2.0374
 6690TIP3    H241706   5.782   3.029   8.776 -0.0038 -1.7756 -0.2746
 6691TIP3   OH241707   2.793   4.242   6.972 -0.5489  0.6607 -0.6876
 6691TIP3    H141708   2.807   4.325   7.018 -0.2065 -0.3422  1.0869
 6691TIP3    H241709   2.823   4.260   6.883  1.2909  1.9408  0.1011
 6692TIP3   OH241710   4.260   3.417   1.487 -0.1092 -0.0523  0.0002
 6692TIP3    H141711   4.232   3.408   1.395 -1.1932 -0.7384  0.3764
 6692TIP3    H241712   4.278   3.511   1.497 -2.8848  0.5981 -0.1625
 6693TIP3   OH241713   3.013   1.902   6.524 -0.6784 -0.1740  0.3566
 6693TIP3    H141714   2.984   1.826   6.474 -1.5093 -0.2885  1.0062
 6693TIP3    H241715   3.029   1.970   6.458 -1.7034 -0.3421 -0.0696
 6694TIP3   OH241716   2.346   6.624   1.584 -0.2867 -0.1566  0.1829
 6694TIP3    H141717   2.277   6.636   1.519 -0.4411 -1.2176  0.1467
 6694TIP3    H241718   2.367   6.531   1.581  0.6728  0.0319  0.6813
 6695TIP3   OH241719   0.766   5.526   8.508  0.6865  0.6102  0.3403
 6695TIP3    H141720   0.787   5.470   8.582 -0.6414  0.8600  0.9335
 6695TIP3    H241721   0.695   5.582   8.539  0.2650  0.8894 -1.0387
 6696TIP3   OH241722   1.093   3.368   0.854 -0.1300  0.0493  0.2880
 6696TIP3    H141723   1.108   3.275   0.870 -0.3570 -0.3013 -1.4191
 6696TIP3    H241724   1.169   3.411   0.894  0.5663 -0.9551  0.0907
 6697TIP3   OH241725   5.552   3.239   8.740  0.1620  0.0727  0.8531
 6697TIP3    H141726   5.571   3.311   8.800 -1.1913  0.8698  0.3805
 6697TIP3    H241727   5.616   3.250   8.669 -0.4062  1.1852  0.4948
 6698TIP3   OH241728   5.177   2.421   8.765 -0.0005  0.1682 -0.3117
 6698TIP3    H141729   5.228   2.346   8.734  1.8908  1.0705  0.4685
 6698TIP3    H241730   5.131   2.453   8.687 -0.6540 -1.5981 -0.7063
 6699TIP3   OH241731   1.281   1.133   1.801 -0.0496  0.1900  0.3108
 6699TIP3    H141732   1.227   1.053   1.800 -0.1486  0.2460 -1.0917
 6699TIP3    H241733   1.364   1.106   1.761 -0.8167  1.2316 -2.1693
 6700TIP3   OH241734   4.547   2.273   8.740  0.5480  0.5600 -0.1808
 6700TIP3    H141735   4.454   2.283   8.719  0.6928 -0.1336 -1.2398
 6700TIP3    H241736   4.566   2.345   8.801 -0.1414  2.0826 -1.6874
 6701TIP3   OH241737   0.881   4.821   6.540 -0.7603  0.2328 -0.5033
 6701TIP3    H141738   0.835   4.751   6.586  0.2802 -0.5668 -0.6305
 6701TIP3    H241739   0.964   4.781   6.513  0.6691  2.0204  0.9936
 6702TIP3   OH241740   2.631   5.854   0.219 -0.3828  0.4524 -0.0626
 6702TIP3    H141741   2.549   5.894   0.248 -0.0802  1.2876 -0.3469
 6702TIP3    H241742   2.655   5.795   0.290 -1.1668  0.2843  0.0790
 6703TIP3   OH241743   2.478   6.448   0.546  0.0968  0.0290 -0.0269
 6703TIP3    H141744   2.489   6.354   0.559  1.2366  0.0388 -0.7162
 6703TIP3    H241745   2.384   6.462   0.542 -0.0932 -0.9870  0.7445
 6704TIP3   OH241746   2.834   5.619   6.319  0.5147  0.0122  0.0091
 6704TIP3    H141747   2.873   5.702   6.346  0.6678  0.3962 -1.3193
 6704TIP3    H241748   2.889   5.589   6.247 -0.1034 -0.7656 -0.1509
 6705TIP3   OH241749   1.597   1.165   8.892 -0.3696  0.8404  0.2716
 6705TIP3    H141750   1.550   1.240   8.927 -1.9799  0.0420 -0.0829
 6705TIP3    H241751   1.620   1.113   8.969  0.2538  1.3966  0.4716
 6706TIP3   OH241752   1.177   4.280   1.222 -0.0380 -0.2824  0.3129
 6706TIP3    H141753   1.159   4.186   1.219 -0.2243 -0.2742  1.0037
 6706TIP3    H241754   1.137   4.310   1.304 -0.6698  0.5537 -0.2813
 6707TIP3   OH241755   1.295   6.319   7.781 -0.4041  0.0260  0.2602
 6707TIP3    H141756   1.383   6.286   7.796 -1.1544 -1.7757  0.8954
 6707TIP3    H241757   1.275   6.295   7.690 -0.4081  0.0164  0.2636
 6708TIP3   OH241758   5.955   1.693   8.358  0.3570  0.3940 -0.0373
 6708TIP3    H141759   5.962   1.736   8.443 -0.9962 -2.2181  1.5463
 6708TIP3    H241760   5.878   1.731   8.318  1.2249  1.9233 -0.3076
 6709TIP3   OH241761   2.536   0.665   8.246 -0.1730  0.5388 -0.4431
 6709TIP3    H141762   2.507   0.588   8.197 -1.0640  0.2773  0.4436
 6709TIP3    H241763   2.455   0.716   8.260  0.3168  1.3693 -0.5624
 6710TIP3   OH241764   6.411   5.111   7.987 -0.1512 -0.6827 -0.1341
 6710TIP3    H141765   6.491   5.061   7.972  0.0359  0.3368 -3.2875
 6710TIP3    H241766   6.340   5.048   7.972  0.0138 -1.2735  1.4001
 6711TIP3   OH241767   5.649   6.303   1.350 -0.1008 -0.5965  0.0411
 6711TIP3    H141768   5.701   6.351   1.285 -0.1863  0.1227  0.4923
 6711TIP3    H241769   5.657   6.211   1.324  0.1720 -0.3529 -0.7658
 6712TIP3   OH241770   6.093   1.349   0.388 -0.2695  0.2095 -0.4533
 6712TIP3    H141771   6.166   1.407   0.368  1.2913 -1.5208 -0.0376
 6712TIP3    H241772   6.054   1.386   0.467 -0.2336  1.4642 -0.9896
 6713TIP3   OH241773   2.504   3.542   8.854  0.1018  0.5864  0.2060
 6713TIP3    H141774   2.548   3.458   8.866  1.0774  1.0903  0.2593
 6713TIP3    H241775   2.413   3.519   8.834  0.3001 -0.4677  0.4547
 6714TIP3   OH241776   0.238   2.245   7.898  0.1303  0.3998  0.0388
 6714TIP3    H141777   0.236   2.326   7.848  0.1375 -0.3738 -1.2575
 6714TIP3    H241778   0.176   2.188   7.853 -2.1328  0.6168  2.6204
 6715TIP3   OH241779   0.041   3.248   8.483 -0.3796 -0.4454 -0.1068
 6715TIP3    H141780  -0.025   3.251   8.413  0.5825  0.8058 -1.0318
 6715TIP3    H241781   0.028   3.164   8.525 -1.4236 -0.9671 -1.3918
 6716TIP3   OH241782   3.938   5.872   1.129  0.2251 -0.0701 -0.6081
 6716TIP3    H141783   3.937   5.952   1.077  1.4920 -1.1757 -2.4488
 6716TIP3    H241784   3.851   5.834   1.116 -1.2400  1.9810  2.0784
 6717TIP3   OH241785   2.722   5.959   7.662 -0.0264 -0.1845 -0.0355
 6717TIP3    H141786   2.767   5.884   7.702 -0.2391  0.4296  1.4365
 6717TIP3    H241787   2.632   5.929   7.650  0.0680 -0.4150 -0.1980
 6718TIP3   OH241788   5.142   2.037   0.316  0.7831  0.5314  0.0009
 6718TIP3    H141789   5.199   2.016   0.242 -0.0609 -3.0402  0.2253
 6718TIP3    H241790   5.099   2.119   0.290  2.2741  0.6765 -2.3390
 6719TIP3   OH241791   1.315   1.011   2.131  0.1835  0.1916 -0.5845
 6719TIP3    H141792   1.341   0.961   2.208 -0.3361  0.5065 -0.2047
 6719TIP3    H241793   1.242   1.065   2.160 -0.7945 -0.5461 -1.5980
 6720TIP3   OH241794   1.631   3.759   1.811 -0.1939  0.1069 -0.1431
 6720TIP3    H141795   1.686   3.810   1.870 -0.2884  0.3823 -0.2897
 6720TIP3    H241796   1.639   3.669   1.842  0.0615  0.1951  0.0508
 6721TIP3   OH241797   0.229   0.826   0.707 -0.7298 -0.4412 -0.3804
 6721TIP3    H141798   0.212   0.733   0.724 -1.8137 -0.5205 -1.7235
 6721TIP3    H241799   0.321   0.829   0.680 -1.3512 -1.5668 -2.9392
 6722TIP3   OH241800   5.516   5.417   0.780  0.2350 -0.2450  0.6336
 6722TIP3    H141801   5.603   5.446   0.753  0.1646 -0.6474 -0.0549
 6722TIP3    H241802   5.457   5.453   0.714 -0.2073  0.5397  1.4294
 6723TIP3   OH241803   1.182   4.087   8.039  0.5242 -0.0055  0.5264
 6723TIP3    H141804   1.168   4.097   7.945 -1.1101 -0.8876  0.6440
 6723TIP3    H241805   1.266   4.130   8.055  1.9423 -1.7708 -1.6877
 6724TIP3   OH241806   0.412   2.706   8.347 -0.2937 -0.1098  0.0088
 6724TIP3    H141807   0.492   2.658   8.324 -1.2397 -0.3622 -3.2588
 6724TIP3    H241808   0.384   2.667   8.430  1.7180 -1.6133  0.0778
 6725TIP3   OH241809   4.347   6.407   2.787 -0.3026 -0.1690  0.4002
 6725TIP3    H141810   4.301   6.431   2.706  1.5567 -1.2578 -1.0641
 6725TIP3    H241811   4.287   6.347   2.832 -0.9236 -0.4005 -0.7023
 6726TIP3   OH241812   1.730   5.612   7.764 -0.7326  0.2722  0.4866
 6726TIP3    H141813   1.713   5.567   7.682 -0.7608  1.2077 -0.0329
 6726TIP3    H241814   1.649   5.604   7.814 -1.0308  0.4858  0.0414
 6727TIP3   OH241815   4.399   0.961   8.301 -0.1893 -0.3744 -0.4318
 6727TIP3    H141816   4.313   0.957   8.342 -1.2255 -0.8195 -2.4860
 6727TIP3    H241817   4.393   1.035   8.240  0.7602 -0.6259 -0.8482
 6728TIP3   OH241818   1.813   2.890   1.939  0.2291  0.2915 -0.5502
 6728TIP3    H141819   1.790   2.977   1.907  0.4717  0.7097  0.3666
 6728TIP3    H241820   1.751   2.874   2.011 -0.2380 -0.5769 -1.1169
 6729TIP3   OH241821   0.778   0.657   1.589 -0.3273 -0.5159  0.8617
 6729TIP3    H141822   0.748   0.688   1.674 -1.3781 -0.7990  0.6139
 6729TIP3    H241823   0.698   0.627   1.545  0.2509 -0.7387 -0.0695
 6730TIP3   OH241824   3.156   5.971   1.379 -0.1611  0.2041  0.1601
 6730TIP3    H141825   3.081   5.976   1.438 -0.9841 -0.7038 -0.7829
 6730TIP3    H241826   3.186   6.062   1.371 -0.6232  0.4654  1.2065
 6731TIP3   OH241827   4.619   0.430   0.787  0.6133 -0.2994  0.0078
 6731TIP3    H141828   4.660   0.506   0.745  1.1342  0.6516  2.1022
 6731TIP3    H241829   4.691   0.386   0.832 -0.2296 -0.0257  1.6822
 6732TIP3   OH241830   1.699   1.036   0.069 -0.7288 -0.6402 -0.5290
 6732TIP3    H141831   1.644   0.985   0.127 -1.2086 -0.9874 -1.2732
 6732TIP3    H241832   1.782   0.989   0.065 -1.3998 -1.7966 -1.7724
 6733TIP3   OH241833   6.029   5.736   8.043 -0.2951  0.2138  0.5372
 6733TIP3    H141834   6.121   5.737   8.069  0.3113 -0.7371 -1.3744
 6733TIP3    H241835   6.002   5.828   8.046  0.3177  0.3710  2.3190
 6734TIP3   OH241836   4.126   0.950   0.542 -0.2054  0.0296 -0.2496
 6734TIP3    H141837   4.083   0.874   0.504  0.9716 -0.6035 -0.3740
 6734TIP3    H241838   4.165   0.918   0.623  2.2947 -0.1803 -1.4205
 6735TIP3   OH241839   1.934   6.082   0.861  0.5801  0.5861  0.5356
 6735TIP3    H141840   1.995   6.095   0.789  1.4366  2.1936  1.4910
 6735TIP3    H241841   1.983   6.034   0.927  0.4107  0.7933  0.8148
 6736TIP3   OH241842   0.341   2.993   0.436  0.7074  0.0822  0.2022
 6736TIP3    H141843   0.318   3.084   0.417  0.8306 -0.3470 -2.3021
 6736TIP3    H241844   0.353   2.991   0.531 -1.8709  2.0691  0.6735
 6737TIP3   OH241845   6.547   6.645   1.415 -0.1144 -0.0531  0.1694
 6737TIP3    H141846   6.484   6.648   1.343  0.0880 -0.2777 -0.0194
 6737TIP3    H241847   6.518   6.713   1.476 -0.8808 -0.5497  0.3720
 6738TIP3   OH241848   5.235   3.882   2.222  0.0441  0.0987  0.2604
 6738TIP3    H141849   5.233   3.821   2.148 -1.3301 -1.2467  1.3521
 6738TIP3    H241850   5.185   3.957   2.192 -1.5034 -0.9273  0.1869
 6739TIP3   OH241851   0.357   2.979   8.393  0.2514 -0.1001 -0.1406
 6739TIP3    H141852   0.279   2.951   8.442  0.3582 -0.6368 -0.2772
 6739TIP3    H241853   0.401   2.897   8.369  0.1563  0.1594 -1.2141
 6740TIP3   OH241854   1.175   1.572   6.826  0.3478 -0.0407  0.6958
 6740TIP3    H141855   1.262   1.602   6.854  1.2295  0.2365 -2.0209
 6740TIP3    H241856   1.125   1.652   6.814  0.6430 -0.0038 -0.3998
 6741TIP3   OH241857   5.323   1.527   0.919  0.2686 -0.2200 -0.1233
 6741TIP3    H141858   5.364   1.591   0.977 -1.5676  0.1688  0.8412
 6741TIP3    H241859   5.249   1.574   0.881 -0.3288 -1.3766 -0.4348
 6742TIP3   OH241860   3.243   6.531   0.714  0.2133 -0.1363  0.0043
 6742TIP3    H141861   3.240   6.612   0.765 -0.3786  1.0299 -1.7688
 6742TIP3    H241862   3.152   6.514   0.691  0.4082 -0.9711 -0.1703
 6743TIP3   OH241863   1.405   5.405   8.680  0.2143  0.0125  0.4547
 6743TIP3    H141864   1.478   5.404   8.743 -0.3437 -0.1699  1.1075
 6743TIP3    H241865   1.438   5.457   8.607  0.3900  1.3930  1.4795
 6744TIP3   OH241866   6.646   4.747   1.059 -0.3298 -0.1515 -0.1975
 6744TIP3    H141867   6.642   4.653   1.039  1.8466 -0.8219  1.9915
 6744TIP3    H241868   6.621   4.753   1.151 -0.3728  1.4448 -0.2852
 6745TIP3   OH241869   1.854   1.247   8.123  0.2876  0.4953 -0.3290
 6745TIP3    H141870   1.902   1.257   8.041 -0.5070  0.2117 -0.8519
 6745TIP3    H241871   1.790   1.178   8.105  1.5089 -1.1329  1.2047
 6746TIP3   OH241872   2.431   2.245   7.183  0.8674  0.9712 -0.0488
 6746TIP3    H141873   2.453   2.270   7.093 -0.2046  0.2730 -0.5295
 6746TIP3    H241874   2.426   2.328   7.230  1.2949  1.3577 -0.6748
 6747TIP3   OH241875   2.082   4.016   1.731  0.5726  0.5408 -0.1159
 6747TIP3    H141876   2.083   4.099   1.684 -2.4704 -0.0400 -1.4099
 6747TIP3    H241877   2.071   3.949   1.663 -1.3462 -0.5388  1.1678
 6748TIP3   OH241878   3.595   3.150   7.853 -0.5395 -0.4791  0.2774
 6748TIP3    H141879   3.593   3.246   7.847  1.0767 -0.4460 -0.3688
 6748TIP3    H241880   3.540   3.120   7.781  1.0821 -0.0034 -1.2257
 6749TIP3   OH241881   2.472   5.953   1.609 -0.4177  0.0556 -0.2350
 6749TIP3    H141882   2.503   6.015   1.543  1.0528  0.6192  0.9303
 6749TIP3    H241883   2.377   5.952   1.598 -0.3685  1.5862 -1.0889
 6750TIP3   OH241884   1.410   4.547   8.709 -0.5857 -0.1914  0.1170
 6750TIP3    H141885   1.389   4.579   8.797 -1.5312 -1.3397  0.3367
 6750TIP3    H241886   1.438   4.456   8.722  2.0172  0.4384 -0.4907
 6751TIP3   OH241887   0.180   1.702   0.433 -0.1737  0.0303 -0.1440
 6751TIP3    H141888   0.220   1.777   0.476 -0.8574 -0.1735  0.8862
 6751TIP3    H241889   0.252   1.640   0.420  0.4281  0.9101 -1.1500
 6752TIP3   OH241890   3.256   2.791   8.820 -1.0136  0.4592  0.3635
 6752TIP3    H141891   3.306   2.872   8.830 -1.1088  0.5728 -0.0730
 6752TIP3    H241892   3.319   2.721   8.839 -0.6214  0.5905 -0.4190
 6753TIP3   OH241893   3.776   1.438   7.781  0.4708 -0.0201 -0.4277
 6753TIP3    H141894   3.828   1.501   7.731  1.7536 -0.0829  0.7752
 6753TIP3    H241895   3.702   1.489   7.814  1.6001  0.9299  0.7016
 6754TIP3   OH241896   5.243   6.201   8.677  0.2372 -0.3926 -0.4418
 6754TIP3    H141897   5.325   6.249   8.666 -0.5229  1.5108  1.3961
 6754TIP3    H241898   5.221   6.170   8.589  1.7309  1.0872 -1.3907
 6755TIP3   OH241899   6.353   2.548   7.207 -0.5094 -0.7520 -0.2527
 6755TIP3    H141900   6.377   2.461   7.174 -0.3221 -0.6850 -0.2893
 6755TIP3    H241901   6.286   2.530   7.274 -1.3786 -0.8464 -1.1315
 6756TIP3   OH241902   3.142   1.052   8.664 -0.1675 -0.0241  0.4323
 6756TIP3    H141903   3.204   1.087   8.727 -1.4143 -1.1949  2.4048
 6756TIP3    H241904   3.194   0.992   8.610  1.0185  1.3699 -0.0538
 6757TIP3   OH241905   2.854   1.501   0.312 -0.4271 -0.0049 -0.1042
 6757TIP3    H141906   2.843   1.444   0.388  0.3031  0.7555  0.5882
 6757TIP3    H241907   2.773   1.489   0.262 -0.4858 -1.2738  0.2673
 6758TIP3   OH241908   2.814   3.733   0.783  0.3262  0.1965 -0.0641
 6758TIP3    H141909   2.787   3.791   0.711  1.5403  1.0038  0.0902
 6758TIP3    H241910   2.901   3.766   0.808  1.3515 -2.1118 -0.4006
 6759TIP3   OH241911   5.983   6.434   8.279 -0.6793  0.7008 -0.1635
 6759TIP3    H141912   5.893   6.405   8.293 -0.1915 -1.0739 -0.4580
 6759TIP3    H241913   5.998   6.419   8.185 -0.2325  1.4636 -0.2189
 6760TIP3   OH241914   2.941   3.463   0.851 -0.1914 -0.2331 -0.4010
 6760TIP3    H141915   2.980   3.496   0.770 -0.0488  0.5439 -0.0210
 6760TIP3    H241916   2.850   3.444   0.827 -1.1363  3.2193  0.0513
 6761TIP3   OH241917   2.088   5.556   0.229  0.5796  0.5452  0.6854
 6761TIP3    H141918   2.058   5.521   0.145  2.5620  1.0422 -0.2901
 6761TIP3    H241919   2.074   5.651   0.222  1.9511  0.7500  0.3371
 6762TIP3   OH241920   4.883   2.411   2.131  0.3884  0.1883 -0.1277
 6762TIP3    H141921   4.857   2.350   2.200  0.8410  0.2193  0.0712
 6762TIP3    H241922   4.941   2.359   2.074 -1.0014 -0.2299 -1.2250
 6763TIP3   OH241923   5.396   5.153   2.438 -0.7666  0.7354 -0.1490
 6763TIP3    H141924   5.413   5.229   2.383 -0.4963 -0.7509 -2.2918
 6763TIP3    H241925   5.352   5.187   2.515  0.5651  3.1850 -0.3814
 6764TIP3   OH241926   1.669   4.450   7.541 -0.0304 -0.3097  0.0011
 6764TIP3    H141927   1.736   4.513   7.568 -0.6101 -0.4742  1.9362
 6764TIP3    H241928   1.719   4.380   7.498  0.7137  0.9753 -1.3171
 6765TIP3   OH241929   5.681   6.655   7.951  0.0964  0.0893 -0.2576
 6765TIP3    H141930   5.687   6.750   7.940  2.9842  0.0835  0.3548
 6765TIP3    H241931   5.677   6.620   7.862 -0.7958  0.7525 -0.4891
 6766TIP3   OH241932   4.093   6.272   7.209  0.0565 -0.8135 -0.6520
 6766TIP3    H141933   4.045   6.299   7.131  0.4990 -1.8545 -1.2905
 6766TIP3    H241934   4.040   6.306   7.282 -1.5185 -1.6987 -1.3438
 6767TIP3   OH241935   6.727   1.291   0.393  0.2285  0.0017 -0.9882
 6767TIP3    H141936   6.637   1.270   0.416  0.8234 -0.9148  0.6667
 6767TIP3    H241937   6.720   1.352   0.319 -1.6915 -1.8175 -2.4218
 6768TIP3   OH241938   3.323   1.145   8.347 -0.3603 -0.0504  0.3388
 6768TIP3    H141939   3.237   1.104   8.347  0.1038 -1.1543 -1.5363
 6768TIP3    H241940   3.366   1.112   8.268  1.8527  0.3380  1.2820
 6769TIP3   OH241941   2.846   2.601   8.274  0.0092 -0.3961  0.5891
 6769TIP3    H141942   2.939   2.580   8.260  0.3447  0.5048  1.3239
 6769TIP3    H241943   2.845   2.651   8.356 -0.9529  0.7554 -0.0919
 6770TIP3   OH241944   5.918   3.574   7.905 -0.2168  0.3448  0.0933
 6770TIP3    H141945   5.897   3.515   7.977 -1.2047 -0.4807 -0.8578
 6770TIP3    H241946   5.851   3.642   7.910 -0.6529 -0.0440 -0.4111
 6771TIP3   OH241947   2.201   5.581   8.951  0.5281  0.2778 -0.0261
 6771TIP3    H141948   2.240   5.534   9.025 -0.6479 -1.8512 -0.6727
 6771TIP3    H241949   2.272   5.585   8.886  0.9794  0.4017  0.4700
 6772TIP3   OH241950   4.705   2.981   6.841 -0.0705 -0.4568  0.1664
 6772TIP3    H141951   4.719   3.030   6.760 -0.6814 -1.9350 -0.8777
 6772TIP3    H241952   4.657   3.041   6.898  0.5346  0.6720 -0.4885
 6773TIP3   OH241953   5.113   3.267   0.280  0.0415 -0.7722  0.4529
 6773TIP3    H141954   5.064   3.349   0.273  1.0649 -0.2229 -0.6290
 6773TIP3    H241955   5.093   3.220   0.199 -0.2317 -1.4193  0.8924
 6774TIP3   OH241956   0.283   6.065   7.070  0.0315  0.0700  0.1029
 6774TIP3    H141957   0.255   6.005   7.139  1.3165  0.0327  0.6078
 6774TIP3    H241958   0.364   6.104   7.102 -0.0810  1.1027 -0.7910
 6775TIP3   OH241959   4.208   4.481   8.148 -0.5905 -0.0174  0.6748
 6775TIP3    H141960   4.229   4.402   8.099  0.8739  1.5381 -1.3504
 6775TIP3    H241961   4.279   4.490   8.212  0.4763  0.7715 -0.5699
 6776TIP3   OH241962   1.545   0.590   6.795 -0.0891 -0.1171 -0.3121
 6776TIP3    H141963   1.518   0.598   6.704 -1.5874  0.1923  0.1335
 6776TIP3    H241964   1.518   0.502   6.821 -0.2073  0.0054 -0.0096
 6777TIP3   OH241965   3.663   4.083   0.119  0.2769 -0.2028 -0.2342
 6777TIP3    H141966   3.725   4.155   0.114  0.9566 -0.7374  0.3553
 6777TIP3    H241967   3.636   4.068   0.029  0.9027  0.1182 -0.4779
 6778TIP3   OH241968   6.678   5.842   6.683 -0.5276 -0.0245  0.2103
 6778TIP3    H141969   6.682   5.824   6.777 -1.2626 -0.0467  0.2431
 6778TIP3    H241970   6.683   5.938   6.677 -2.2593  0.1021  0.3975
 6779TIP3   OH241971   5.258   6.194   6.717 -0.3085  0.8054 -0.1851
 6779TIP3    H141972   5.324   6.125   6.718 -1.5369 -0.4787 -1.6370
 6779TIP3    H241973   5.307   6.275   6.730  1.3496 -0.2180  0.1990
 6780TIP3   OH241974   5.585   5.084   1.275 -0.1869  0.2476 -0.3119
 6780TIP3    H141975   5.533   5.163   1.263  0.6091  0.6748 -0.9997
 6780TIP3    H241976   5.673   5.107   1.245  0.3775 -0.5153  0.6762
 6781TIP3   OH241977   1.541   2.868   6.627  0.5492 -0.0967 -0.0944
 6781TIP3    H141978   1.505   2.842   6.542  0.6101  0.6563 -0.3583
 6781TIP3    H241979   1.568   2.786   6.667 -1.3316 -0.7055  0.0594
 6782TIP3   OH241980   5.618   5.074   1.766 -0.6565 -0.0796  0.7342
 6782TIP3    H141981   5.621   5.084   1.861  0.2683  0.3874  0.6671
 6782TIP3    H241982   5.655   4.987   1.750  0.7280  0.4906  0.7166
 6783TIP3   OH241983   6.030   2.079   1.083  0.3905 -0.3628  0.5727
 6783TIP3    H141984   5.955   2.019   1.077 -0.8057  1.2345 -1.7284
 6783TIP3    H241985   6.106   2.024   1.065 -0.6676 -1.2532 -1.5406
 6784TIP3   OH241986   4.050   0.504   0.658  0.0423  0.6682 -0.0780
 6784TIP3    H141987   4.082   0.425   0.614  2.1235 -0.8369  3.6591
 6784TIP3    H241988   3.967   0.477   0.699  0.8359  0.2599  1.3388
 6785TIP3   OH241989   4.374   2.747   8.394  0.3537 -0.0723  0.1339
 6785TIP3    H141990   4.391   2.739   8.300 -1.0362 -0.6790 -0.0956
 6785TIP3    H241991   4.414   2.669   8.433 -1.0903 -1.0676 -0.2901
 6786TIP3   OH241992   3.388   0.563   9.010 -0.6216  0.2404  0.4999
 6786TIP3    H141993   3.318   0.566   9.076 -0.9953 -1.7419  0.2506
 6786TIP3    H241994   3.425   0.475   9.018 -0.0799  0.2558 -1.3379
 6787TIP3   OH241995   5.107   0.443   1.475 -0.0825 -0.0812  0.3128
 6787TIP3    H141996   5.152   0.435   1.559 -0.5155  1.7573  0.7523
 6787TIP3    H241997   5.023   0.398   1.489  0.1696 -0.4720  0.5931
 6788TIP3   OH241998   5.056   1.589   6.962 -0.3938 -0.3878  0.0477
 6788TIP3    H141999   5.109   1.625   6.891  0.3393  0.7451  1.1307
 6788TIP3    H242000   4.980   1.550   6.918  0.3017 -0.1930 -1.3806
 6789TIP3   OH242001   6.715   5.912   1.706  0.3854 -0.6848  0.4237
 6789TIP3    H142002   6.811   5.921   1.706  0.2586  1.0836  1.7545
 6789TIP3    H242003   6.685   5.977   1.642 -0.0141  0.5966  1.8616
 6790TIP3   OH242004   3.160   1.917   8.605 -0.0786  0.2566  0.2298
 6790TIP3    H142005   3.202   1.889   8.686 -1.7001 -0.9381  0.7053
 6790TIP3    H242006   3.161   2.013   8.610  0.8184  0.2210  1.1341
 6791TIP3   OH242007   2.790   5.227   0.755 -0.1269  0.1150 -0.0074
 6791TIP3    H142008   2.763   5.284   0.827 -0.3616  1.0350 -0.8001
 6791TIP3    H242009   2.722   5.160   0.751 -0.3753  0.3436  0.3088
 6792TIP3   OH242010   4.282   0.406   8.520 -0.3093  0.4500  0.4001
 6792TIP3    H142011   4.265   0.326   8.469  0.1923  1.0219 -0.7138
 6792TIP3    H242012   4.292   0.474   8.453 -2.1136  1.7299  1.3518
 6793TIP3   OH242013   2.648   4.553   1.622  0.2862 -0.5620  0.4713
 6793TIP3    H142014   2.642   4.468   1.579 -2.9465  0.3266 -1.1710
 6793TIP3    H242015   2.557   4.575   1.645  1.0781  2.1841  1.3685
 6794TIP3   OH242016   1.642   2.341   7.949 -0.0208 -0.1369 -0.1167
 6794TIP3    H142017   1.658   2.252   7.919 -1.6858 -0.1313 -1.1379
 6794TIP3    H242018   1.552   2.359   7.924  0.0148  1.5475  0.8201
 6795TIP3   OH242019   3.186   3.722   6.539  0.0953 -0.2423 -0.2881
 6795TIP3    H142020   3.262   3.753   6.588 -0.6647  0.6741  0.3441
 6795TIP3    H242021   3.137   3.668   6.601 -1.3987  1.7405  0.3469
 6796TIP3   OH242022   4.425   0.733   2.165 -0.7438 -0.0707 -0.5849
 6796TIP3    H142023   4.468   0.679   2.099 -1.5198  0.6698 -1.7347
 6796TIP3    H242024   4.332   0.711   2.158 -0.7698 -0.5140  0.7923
 6797TIP3   OH242025   3.601   4.778   0.218  0.3805  0.7729  0.0447
 6797TIP3    H142026   3.525   4.794   0.274  0.6188  1.5401  0.1672
 6797TIP3    H242027   3.676   4.795   0.274  0.6385  0.2079 -0.1327
 6798TIP3   OH242028   0.048   3.251   8.877 -0.0947  0.0770 -0.0432
 6798TIP3    H142029   0.032   3.333   8.830  0.3179  0.2455  0.1035
 6798TIP3    H242030  -0.039   3.218   8.898 -0.2606  0.6742  0.2344
 6799TIP3   OH242031   0.004   1.780   0.244 -0.0796 -0.1917 -0.1804
 6799TIP3    H142032   0.006   1.872   0.218 -1.0191 -0.0576  0.1922
 6799TIP3    H242033   0.078   1.772   0.304 -0.8104  0.6795  0.8864
 6800TIP3   OH242034   1.217   1.789   7.557 -0.0840  0.0594  0.7733
 6800TIP3    H142035   1.247   1.858   7.617  1.5533  0.7323 -0.7190
 6800TIP3    H242036   1.175   1.837   7.485 -0.0016 -0.5743  0.2972
 6801TIP3   OH242037   5.801   0.144   2.174  0.6297  0.5543  0.7303
 6801TIP3    H142038   5.717   0.153   2.128  0.6738  1.9394  0.8774
 6801TIP3    H242039   5.803   0.218   2.234  1.8190  0.3334  0.9802
 6802TIP3   OH242040   1.689   6.484   0.312 -0.8393 -0.0407  0.2675
 6802TIP3    H142041   1.748   6.454   0.242 -0.0340 -1.3592  1.4623
 6802TIP3    H242042   1.601   6.468   0.278 -0.5106  0.6182 -0.9695
 6803TIP3   OH242043   2.625   0.932   2.199  0.4529 -0.2963  0.2214
 6803TIP3    H142044   2.620   0.914   2.105 -1.6529 -1.1968  0.4437
 6803TIP3    H242045   2.648   1.024   2.206  0.7970 -0.2633 -1.1573
 6804TIP3   OH242046   3.062   5.200   1.562  0.3472 -0.5332  0.1019
 6804TIP3    H142047   2.984   5.246   1.594  1.0916  2.1813 -1.6037
 6804TIP3    H242048   3.135   5.251   1.595  1.4110 -2.3578  0.6926
 6805TIP3   OH242049   3.177   6.198   8.818 -0.4415  0.2780  0.2035
 6805TIP3    H142050   3.185   6.111   8.856 -1.1906  0.7493  1.5297
 6805TIP3    H242051   3.215   6.191   8.731  0.3447 -1.1315  0.6441
 6806TIP3   OH242052   4.461   5.289   0.547  0.3529 -0.2254 -0.0619
 6806TIP3    H142053   4.385   5.288   0.490 -1.0951 -1.2837  1.7627
 6806TIP3    H242054   4.500   5.202   0.536  0.2749 -0.3054  0.2688
 6807TIP3   OH242055   5.034   2.464   7.976  0.2198 -0.6602  0.9796
 6807TIP3    H142056   5.097   2.531   8.002  0.6955 -0.6212 -0.2249
 6807TIP3    H242057   5.080   2.381   7.992  0.6951 -0.6289 -0.1012
 6808TIP3   OH242058   2.624   1.103   1.171  0.2553  1.0156  0.7136
 6808TIP3    H142059   2.672   1.154   1.106  0.0627  1.3508  0.8352
 6808TIP3    H242060   2.533   1.107   1.143  0.4185 -0.6789 -0.2390
 6809TIP3   OH242061   3.053   2.797   2.335  0.6256  0.0164 -0.2597
 6809TIP3    H142062   3.004   2.819   2.257  1.9002  1.0270 -0.8147
 6809TIP3    H242063   3.119   2.734   2.305  0.7381 -0.0570  0.1300
 6810TIP3   OH242064   1.429   1.210   0.128 -0.2732 -0.2233  0.5202
 6810TIP3    H142065   1.334   1.218   0.137 -0.2611  0.8223 -0.1203
 6810TIP3    H242066   1.451   1.132   0.180 -1.8874 -2.4905 -1.8950
 6811TIP3   OH242067   6.612   3.014   6.964 -0.0570  0.0041 -0.2298
 6811TIP3    H142068   6.531   3.039   6.918 -0.1430  2.8235  1.2753
 6811TIP3    H242069   6.582   2.977   7.047  0.1795 -0.1105 -0.1956
 6812TIP3   OH242070   6.130   5.749   7.246  0.4858 -0.2197 -0.3683
 6812TIP3    H142071   6.101   5.815   7.309  0.7276 -2.0584  1.7959
 6812TIP3    H242072   6.144   5.798   7.165  0.7763  2.3907  1.1465
 6813TIP3   OH242073   6.650   4.827   1.891  0.3010  0.6912 -0.5628
 6813TIP3    H142074   6.740   4.793   1.892  0.3945  0.9427 -0.4254
 6813TIP3    H242075   6.600   4.759   1.845  0.5040  0.4148 -0.3829
 6814TIP3   OH242076   1.804   1.374   8.545 -0.6201 -0.1712  0.0790
 6814TIP3    H142077   1.742   1.411   8.482  0.3374 -0.5759 -1.1478
 6814TIP3    H242078   1.824   1.287   8.510  1.7987  0.5348 -0.4217
 6815TIP3   OH242079   2.637   4.296   1.544 -0.5067  0.2393 -0.0386
 6815TIP3    H142080   2.727   4.284   1.574 -0.2740 -3.0633 -1.6324
 6815TIP3    H242081   2.585   4.293   1.624  0.6795  1.6321  0.8510
 6816TIP3   OH242082   0.836   0.504   7.468  0.2041  0.0003 -0.5944
 6816TIP3    H142083   0.826   0.522   7.561  0.1664 -1.9995 -0.1746
 6816TIP3    H242084   0.929   0.488   7.456  0.0304 -1.0753 -0.6162
 6817TIP3   OH242085   0.924   3.713   8.392  0.1090  0.0276 -0.5792
 6817TIP3    H142086   0.970   3.697   8.475 -1.1141 -0.7533 -0.0227
 6817TIP3    H242087   0.852   3.771   8.416  0.4673  0.8055 -1.3397
 6818TIP3   OH242088   3.376   1.349   8.537  0.0524  0.3929 -0.1997
 6818TIP3    H142089   3.357   1.277   8.477 -1.0070 -2.2679  3.0662
 6818TIP3    H242090   3.471   1.359   8.532  0.1755 -0.9055 -1.0517
 6819TIP3   OH242091   1.395   3.440   9.012 -0.0810 -0.2859  0.0210
 6819TIP3    H142092   1.420   3.380   8.942 -0.1388 -0.5332  0.2080
 6819TIP3    H242093   1.345   3.509   8.968  0.0797 -0.3178 -0.2126
 6820TIP3   OH242094   0.636   1.860   1.861 -0.1166  0.1269  0.1826
 6820TIP3    H142095   0.715   1.909   1.837 -0.4230  0.4933 -0.1025
 6820TIP3    H242096   0.588   1.920   1.918  1.2020 -1.1931  2.8748
 6821TIP3   OH242097   3.796   0.037   7.285  0.1082  0.0623 -0.0862
 6821TIP3    H142098   3.823   0.009   7.372  1.5071 -1.7769 -1.0321
 6821TIP3    H242099   3.753   0.122   7.299  2.5595  1.0817  2.0904
 6822TIP3   OH242100   3.556   0.120   2.469  0.0122 -0.7913 -0.4425
 6822TIP3    H142101   3.560   0.059   2.395 -0.7022 -0.9910 -0.3144
 6822TIP3    H242102   3.615   0.192   2.443 -1.1973 -0.2336 -1.7844
 6823TIP3   OH242103   1.227   6.764   2.331 -0.2791 -0.4658  0.3287
 6823TIP3    H142104   1.293   6.758   2.263 -0.9828 -1.4871 -0.2935
 6823TIP3    H242105   1.221   6.858   2.351  1.8440 -0.4114  0.9382
 6824TIP3   OH242106   3.923   3.683   1.014  0.4937 -0.1222  0.8506
 6824TIP3    H142107   3.848   3.709   0.960 -0.7200 -0.5147  2.2658
 6824TIP3    H242108   3.920   3.587   1.015  1.4890 -0.1714  0.3077
 6825TIP3   OH242109   1.793   3.605   8.657 -0.1846  0.3769  0.1691
 6825TIP3    H142110   1.776   3.635   8.746  0.9287 -1.4897  1.0857
 6825TIP3    H242111   1.877   3.559   8.663  0.1126  0.5361 -1.9444
 6826TIP3   OH242112   1.572   0.752   7.000  0.3092 -0.1259  0.3510
 6826TIP3    H142113   1.543   0.691   6.932 -0.7266  2.2988 -1.5636
 6826TIP3    H242114   1.663   0.772   6.977  0.3384 -0.2304  0.3792
 6827TIP3   OH242115   4.094   6.482   0.831 -0.3202  0.0139 -0.4451
 6827TIP3    H142116   4.179   6.522   0.812  0.0997 -1.4235 -1.7837
 6827TIP3    H242117   4.086   6.487   0.927  1.3398  0.0458 -0.2766
 6828TIP3   OH242118   6.283   5.308   7.369 -0.4069 -0.7213  0.2613
 6828TIP3    H142119   6.368   5.271   7.393  1.2082 -0.2003 -3.8394
 6828TIP3    H242120   6.283   5.395   7.407  1.5280 -0.2613 -0.6709
 6829TIP3   OH242121   1.967   0.123   7.747  0.0499 -0.1623 -0.2460
 6829TIP3    H142122   2.006   0.039   7.770  0.3897 -0.2833 -1.2297
 6829TIP3    H242123   1.917   0.148   7.825  1.8496 -0.1217  0.9559
 6830TIP3   OH242124   3.479   0.461   2.870 -0.4582 -0.0524 -0.0758
 6830TIP3    H142125   3.462   0.504   2.953 -0.7161  0.3991 -0.3561
 6830TIP3    H242126   3.446   0.372   2.882  0.5667 -0.3480  0.6833
 6831TIP3   OH242127   6.049   6.275   8.958 -0.1221 -0.0342 -0.1110
 6831TIP3    H142128   6.034   6.311   9.045  2.8960 -0.6034  0.7585
 6831TIP3    H242129   6.038   6.180   8.969  0.2918 -0.1118 -0.3215
 6832TIP3   OH242130   6.755   3.563   3.172  0.2078 -0.1404 -0.0736
 6832TIP3    H142131   6.698   3.534   3.243  0.9209 -0.2457  0.4705
 6832TIP3    H242132   6.716   3.526   3.093  0.1492 -1.1734  0.4158
 6833TIP3   OH242133   3.646   3.495   7.018  0.3724 -0.5529  0.0146
 6833TIP3    H142134   3.674   3.537   6.937 -1.0810  0.4810  0.0068
 6833TIP3    H242135   3.556   3.468   7.000 -0.4419  0.8700  1.6907
 6834TIP3   OH242136   1.424   4.580   1.852 -0.2150  0.3969  0.1986
 6834TIP3    H142137   1.345   4.534   1.880 -2.0557  2.2438 -1.5431
 6834TIP3    H242138   1.435   4.554   1.760  0.6724  0.8574  0.1638
 6835TIP3   OH242139   0.164   1.930   6.490  0.2472 -0.0377  0.6533
 6835TIP3    H142140   0.233   1.865   6.507  0.8756 -0.4301 -2.6101
 6835TIP3    H242141   0.083   1.887   6.517  1.0071 -0.6031  2.1322
 6836TIP3   OH242142   2.759   5.311   8.694 -0.3959  0.2242  0.3252
 6836TIP3    H142143   2.826   5.368   8.733  0.6755 -0.0336 -1.0513
 6836TIP3    H242144   2.694   5.300   8.763 -0.1847  2.3781  0.9459
 6837TIP3   OH242145   0.538   4.437   6.865 -0.0509  0.8801 -0.5078
 6837TIP3    H142146   0.468   4.462   6.926  0.6207 -1.7030  1.5425
 6837TIP3    H242147   0.508   4.355   6.826  1.1450  0.5662 -0.8102
 6838TIP3   OH242148   3.880   3.587   2.196 -0.3343 -0.1658  0.2692
 6838TIP3    H142149   3.948   3.551   2.139 -0.1644 -0.0218  0.3814
 6838TIP3    H242150   3.881   3.530   2.274  0.7267  0.7592  0.9595
 6839TIP3   OH242151   0.899   1.468   8.954 -0.6648 -0.1761 -0.4465
 6839TIP3    H142152   0.988   1.501   8.956 -0.7393  0.0102 -0.1776
 6839TIP3    H242153   0.900   1.393   9.014 -1.1502  1.0052  1.1001
 6840TIP3   OH242154   2.622   6.164   1.449  0.3317 -0.4642  0.0315
 6840TIP3    H142155   2.587   6.234   1.394 -0.5363  0.1408  1.3213
 6840TIP3    H242156   2.692   6.125   1.396 -0.5272  0.0296 -1.5354
 6841TIP3   OH242157   5.941   6.306   7.564  0.4819  0.6944 -0.3177
 6841TIP3    H142158   5.933   6.211   7.553  1.3114  0.5647  0.0758
 6841TIP3    H242159   5.933   6.341   7.475  0.4034  0.2364 -0.4946
 6842TIP3   OH242160   6.678   3.178   1.602 -0.0928 -0.2102  0.3383
 6842TIP3    H142161   6.728   3.105   1.564  1.1127 -0.2975  1.9860
 6842TIP3    H242162   6.738   3.252   1.597 -1.3484  0.7772 -1.4239
 6843TIP3   OH242163   4.898   2.720   1.820  0.0430 -0.3455  0.3919
 6843TIP3    H142164   4.920   2.720   1.727 -0.6078 -1.7179  0.2177
 6843TIP3    H242165   4.983   2.710   1.865  0.3810  0.5357 -0.0256
 6844TIP3   OH242166   4.926   0.858   7.787  0.1395 -0.1475 -0.1032
 6844TIP3    H142167   5.007   0.860   7.736 -1.2808 -0.6317 -2.5396
 6844TIP3    H242168   4.918   0.768   7.818  0.2779 -0.2168 -0.2730
 6845TIP3   OH242169   0.982   2.507   8.606 -0.1349  0.3910  0.3934
 6845TIP3    H142170   1.066   2.517   8.561  0.4355  1.5598  1.6401
 6845TIP3    H242171   0.969   2.413   8.611  0.6987  0.2088 -0.5543
 6846TIP3   OH242172   3.165   1.910   0.507 -0.0928 -0.1056  0.2879
 6846TIP3    H142173   3.191   1.914   0.599  0.8810 -0.4114  0.0362
 6846TIP3    H242174   3.095   1.845   0.505  2.2879 -2.8699  0.3181
 6847TIP3   OH242175   2.351   0.453   7.139 -0.5133 -0.2899  0.5592
 6847TIP3    H142176   2.268   0.408   7.151 -0.3312 -1.1519 -1.2135
 6847TIP3    H242177   2.397   0.403   7.072  1.7063 -0.1830  1.8917
 6848TIP3   OH242178   1.474   5.745   7.872  0.6314  0.4956 -0.9689
 6848TIP3    H142179   1.404   5.727   7.808  1.2641 -0.4425 -1.4296
 6848TIP3    H242180   1.525   5.816   7.833  0.3923  0.6484 -1.0031
 6849TIP3   OH242181   6.236   2.715   7.004 -0.1367 -0.1610  0.0432
 6849TIP3    H142182   6.303   2.690   7.068  0.3350  0.5152 -0.1790
 6849TIP3    H242183   6.257   2.805   6.981 -0.2587 -0.4160 -1.1186
 6850TIP3   OH242184   2.997   4.771   1.261  0.6625  0.1140  0.2223
 6850TIP3    H142185   2.945   4.757   1.340  0.7860 -1.2385  0.0920
 6850TIP3    H242186   2.933   4.798   1.195  0.4978  0.8399  0.6658
 6851TIP3   OH242187   2.051   3.855   0.546 -0.1055 -0.0529  0.2597
 6851TIP3    H142188   2.124   3.797   0.569 -0.3116 -0.4396 -0.0477
 6851TIP3    H242189   2.087   3.943   0.553  0.0585 -0.1867  1.2863
 6852TIP3   OH242190   6.768   1.550   7.288  0.3686  0.0589 -0.0165
 6852TIP3    H142191   6.742   1.465   7.251 -0.2954  0.6013 -0.8190
 6852TIP3    H242192   6.768   1.535   7.383 -3.0708  0.0143  0.1205
 6853TIP3   OH242193   0.825   4.493   8.525  0.6685 -0.0485 -0.6809
 6853TIP3    H142194   0.810   4.587   8.514 -2.7984 -0.6245 -1.9644
 6853TIP3    H242195   0.918   4.487   8.549  1.7991  3.4951 -3.2325
 6854TIP3   OH242196   0.509   1.318   8.650 -0.0285 -0.4722 -0.0717
 6854TIP3    H142197   0.582   1.370   8.617 -0.1210  0.3824  1.0193
 6854TIP3    H242198   0.475   1.273   8.573 -0.5895  1.8678 -1.3017
 6855TIP3   OH242199   5.808   0.207   8.659 -0.3151  0.6126  0.4834
 6855TIP3    H142200   5.801   0.296   8.694 -0.3291  2.1923 -3.1356
 6855TIP3    H242201   5.718   0.178   8.647 -0.3751  1.2364 -0.7594
 6856TIP3   OH242202   2.323   3.055   8.870  0.3277 -0.3127  0.5000
 6856TIP3    H142203   2.413   3.068   8.840  0.2641 -0.5863  0.1902
 6856TIP3    H242204   2.330   2.986   8.936  0.2210 -0.9850 -0.1853
 6857TIP3   OH242205   5.537   2.155   7.044 -0.1356 -0.4168 -0.9558
 6857TIP3    H142206   5.609   2.117   6.995  0.3144  0.3089 -0.8693
 6857TIP3    H242207   5.567   2.243   7.068  0.5402 -1.4457  2.4590
 6858TIP3   OH242208   0.441   1.490   0.770 -0.4743  0.1414 -0.7840
 6858TIP3    H142209   0.376   1.491   0.841 -1.4915 -0.2675 -1.6821
 6858TIP3    H242210   0.478   1.579   0.770 -1.2858  0.4889 -0.4729
 6859TIP3   OH242211   6.047   3.387   1.946  0.1955  0.5866 -0.1177
 6859TIP3    H142212   6.005   3.421   2.026 -0.3299  0.0649 -0.1657
 6859TIP3    H242213   5.977   3.387   1.881 -0.5216 -2.7843  0.4793
 6860TIP3   OH242214   1.163   5.558   0.589 -0.4669 -0.2767 -0.1167
 6860TIP3    H142215   1.208   5.477   0.610 -1.2594 -0.8959 -0.7756
 6860TIP3    H242216   1.218   5.601   0.523 -0.0261 -0.2362  0.2674
 6861TIP3   OH242217   6.405   5.552   6.800  0.9772 -0.1323 -0.5575
 6861TIP3    H142218   6.316   5.554   6.766  1.6861 -1.6315 -2.6920
 6861TIP3    H242219   6.455   5.606   6.739  1.7305 -0.2105 -0.0222
 6862TIP3   OH242220   6.523   3.974   8.516 -0.5266 -0.0493  0.3543
 6862TIP3    H142221   6.581   3.911   8.473  0.2974  1.9046 -1.6197
 6862TIP3    H242222   6.435   3.949   8.487 -0.1417  0.1258 -1.0310
 6863TIP3   OH242223   4.830   1.328   1.727 -0.0149 -0.6340  0.2562
 6863TIP3    H142224   4.817   1.289   1.813 -0.3204  1.5715  1.2676
 6863TIP3    H242225   4.925   1.329   1.715 -0.0153 -2.7856 -0.3949
 6864TIP3   OH242226   3.849   4.757   2.124  0.1330 -0.1672  0.0167
 6864TIP3    H142227   3.772   4.702   2.108 -1.4860  1.3607  2.0091
 6864TIP3    H242228   3.895   4.712   2.194 -0.2313  0.1091  0.4363
 6865TIP3   OH242229   4.816   0.431   8.532 -0.3647  0.0491 -0.0816
 6865TIP3    H142230   4.861   0.347   8.524  2.7066  1.5850 -0.3899
 6865TIP3    H242231   4.737   0.420   8.479  1.2471 -1.8570 -2.3625
 6866TIP3   OH242232   5.150   2.131   0.745 -0.0315 -0.3340  0.1200
 6866TIP3    H142233   5.199   2.102   0.668  0.2777 -3.5176  1.3623
 6866TIP3    H242234   5.061   2.100   0.729 -0.2444  0.0666  0.5152
 6867TIP3   OH242235   6.098   5.731   6.618  0.3462  0.6002  0.1102
 6867TIP3    H142236   6.062   5.819   6.606  0.6476  0.4647 -2.0837
 6867TIP3    H242237   6.185   5.746   6.655  0.5052  1.2349 -0.5074
 6868TIP3   OH242238   6.381   4.065   7.615  0.0668  0.0780  0.2569
 6868TIP3    H142239   6.332   4.137   7.654  1.5944  1.4676 -0.3155
 6868TIP3    H242240   6.465   4.103   7.589  0.4715 -1.6191 -1.1346
 6869TIP3   OH242241   3.950   6.061   0.537 -0.7658 -0.1061  0.3635
 6869TIP3    H142242   3.995   6.060   0.453  0.8435  1.9652  1.1200
 6869TIP3    H242243   3.947   5.970   0.564 -0.9703 -0.7692 -1.7246
 6870TIP3   OH242244   0.845   5.648   6.749 -0.1639 -0.6236  0.3016
 6870TIP3    H142245   0.907   5.627   6.819  2.4973  0.2018 -1.6284
 6870TIP3    H242246   0.820   5.739   6.765 -0.1679 -0.6740  0.5851
 6871TIP3   OH242247   5.809   1.427   2.156 -0.1047  0.1262  0.2410
 6871TIP3    H142248   5.855   1.460   2.233  1.0676 -1.7817  0.4219
 6871TIP3    H242249   5.777   1.340   2.182  0.3781 -0.5895 -1.4152
 6872TIP3   OH242250   6.758   0.863   7.597 -0.1763  0.3201  0.1520
 6872TIP3    H142251   6.785   0.833   7.510 -0.7572  0.1840  0.0167
 6872TIP3    H242252   6.835   0.910   7.631  0.9192 -1.6356  0.5268
 6873TIP3   OH242253   3.897   3.596   7.144 -0.4058 -0.6478 -0.1071
 6873TIP3    H142254   3.972   3.613   7.201 -2.2411  0.1363  2.2960
 6873TIP3    H242255   3.927   3.617   7.056  2.2755 -0.8018  0.7027
 6874TIP3   OH242256   5.812   2.050   8.853 -0.0996  0.4973 -0.2805
 6874TIP3    H142257   5.907   2.041   8.848  0.0231  1.5398  0.0690
 6874TIP3    H242258   5.780   1.960   8.857  0.9004  0.1515  0.1485
 6875TIP3   OH242259   1.244   0.011   8.511 -0.0124 -0.1179 -0.0574
 6875TIP3    H142260   1.222   0.084   8.453  0.1313  2.0896  2.4790
 6875TIP3    H242261   1.161  -0.034   8.526 -0.6112  1.0834  0.3093
 6876TIP3   OH242262   4.774   4.057   8.171 -0.0031 -0.1311 -0.4374
 6876TIP3    H142263   4.765   3.966   8.142 -1.4155 -0.1527 -0.0144
 6876TIP3    H242264   4.843   4.054   8.237 -0.6770 -1.0990  0.2677
 6877TIP3   OH242265   2.474   6.252   1.983  0.3627 -0.0429 -0.0859
 6877TIP3    H142266   2.403   6.189   1.970 -0.1639  1.0941 -3.9005
 6877TIP3    H242267   2.434   6.321   2.037 -0.3515 -0.9931  0.6291
 6878TIP3   OH242268   2.157   5.221   8.998 -0.5793  0.0246  0.0352
 6878TIP3    H142269   2.211   5.297   9.020  1.5459 -0.7806 -1.9652
 6878TIP3    H242270   2.219   5.148   8.997 -1.7558 -1.0255 -2.0382
 6879TIP3   OH242271   3.543   4.685   8.157 -0.0566 -0.1466  0.2116
 6879TIP3    H142272   3.578   4.623   8.221  0.3738 -1.3352 -1.1134
 6879TIP3    H242273   3.488   4.632   8.100 -1.8389  1.2022  0.5897
 6880TIP3   OH242274   0.158   3.993   8.488 -0.4645  0.1967  0.0978
 6880TIP3    H142275   0.098   3.919   8.499  0.7204 -0.7459  0.5267
 6880TIP3    H242276   0.106   4.070   8.510 -0.9466 -0.7772  2.8433
 6881TIP3   OH242277   4.776   1.044   1.136  0.2915  0.2958  0.3639
 6881TIP3    H142278   4.800   1.046   1.043  0.7627  3.4117  0.4569
 6881TIP3    H242279   4.857   1.019   1.181  0.2305 -0.5903  0.0067
 6882TIP3   OH242280   3.838   5.141   0.411  0.0545 -0.3822  0.5325
 6882TIP3    H142281   3.898   5.131   0.338 -1.2993  1.3249 -0.9143
 6882TIP3    H242282   3.752   5.119   0.375 -0.8373  1.7680  1.1487
 6883TIP3   OH242283   1.421   4.563   1.550 -0.2647  1.0379  0.5597
 6883TIP3    H142284   1.486   4.626   1.519 -0.4858  0.9585 -0.0637
 6883TIP3    H242285   1.407   4.504   1.476  1.3735 -0.9633  1.7018
 6884TIP3   OH242286   3.113   5.452   0.537 -0.4543 -0.3413  0.4116
 6884TIP3    H142287   3.194   5.458   0.486 -0.7329  0.7494  0.0621
 6884TIP3    H242288   3.118   5.367   0.581  0.2048 -0.9126 -0.7219
 6885TIP3   OH242289   3.594   1.875   1.942 -0.0323 -0.1713  0.0131
 6885TIP3    H142290   3.550   1.837   1.866 -1.4741 -0.7139  1.0933
 6885TIP3    H242291   3.558   1.964   1.948  1.2534  0.4455 -0.8326
 6886TIP3   OH242292   5.897   1.472   2.423  0.0781  0.2486  0.8138
 6886TIP3    H142293   5.834   1.414   2.464 -0.5382  0.4265  0.1558
 6886TIP3    H242294   5.899   1.549   2.479 -2.6527  1.5833 -0.6971
 6887TIP3   OH242295   3.592   6.355   0.162 -0.0791 -0.1955 -0.5577
 6887TIP3    H142296   3.576   6.441   0.124 -2.0092  0.2986  1.1824
 6887TIP3    H242297   3.585   6.368   0.256 -0.7938 -2.3039 -0.2464
 6888TIP3   OH242298   5.892   2.311   7.312  0.1602 -0.2714 -0.1319
 6888TIP3    H142299   5.880   2.319   7.218 -0.7457 -1.7885 -0.1794
 6888TIP3    H242300   5.818   2.357   7.350 -0.3731 -1.0392 -0.2148
 6889TIP3   OH242301   0.902   4.108   0.223  0.1362  0.3614  0.1064
 6889TIP3    H142302   0.807   4.120   0.218 -0.0403 -1.1689 -0.7100
 6889TIP3    H242303   0.938   4.196   0.209 -1.1296  0.7985 -0.5544
 6890TIP3   OH242304   3.789   5.094   8.895  0.3922 -0.5272 -0.5143
 6890TIP3    H142305   3.882   5.075   8.910  1.0328  1.4872 -1.5486
 6890TIP3    H242306   3.764   5.039   8.821  1.2151  0.0142 -1.2177
 6891TIP3   OH242307   2.782   5.457   7.890  0.8213  0.4813  0.1630
 6891TIP3    H142308   2.720   5.384   7.890  1.1775  0.1694  1.3368
 6891TIP3    H242309   2.836   5.442   7.812  0.5144 -0.1840  0.0695
 6892TIP3   OH242310   4.953   1.468   8.477 -0.1916 -0.2142  0.1913
 6892TIP3    H142311   4.991   1.532   8.538  1.2314 -0.5911 -0.2529
 6892TIP3    H242312   5.005   1.389   8.490 -1.0251 -0.8552 -0.2690
 6893TIP3   OH242313   2.180   1.357   8.515 -0.5241  0.2954  0.2118
 6893TIP3    H142314   2.142   1.288   8.570  2.0771 -1.7154 -0.3228
 6893TIP3    H242315   2.182   1.320   8.427  1.2198  0.8753 -0.0401
 6894TIP3   OH242316   5.207   2.103   2.706 -0.0529  0.5300 -0.7769
 6894TIP3    H142317   5.172   2.030   2.654  2.6103  1.1443 -3.7211
 6894TIP3    H242318   5.248   2.060   2.782 -1.2857 -0.7019 -0.7596
 6895TIP3   OH242319   5.678   1.771   1.995  1.1117  0.0429 -0.0980
 6895TIP3    H142320   5.671   1.826   1.917 -1.6965  2.2146  1.4659
 6895TIP3    H242321   5.676   1.681   1.962  1.1177  0.8694 -2.5496
 6896TIP3   OH242322   3.851   1.765   7.377 -0.4762  0.0120  0.0126
 6896TIP3    H142323   3.864   1.775   7.282  0.3166 -0.5143  0.0562
 6896TIP3    H242324   3.766   1.807   7.394 -0.2085  0.9212 -0.7794
 6897TIP3   OH242325   1.244   2.401   8.790 -0.1817 -0.4575  0.4363
 6897TIP3    H142326   1.324   2.424   8.744  0.5057 -1.9865  0.7808
 6897TIP3    H242327   1.225   2.477   8.845  0.8075  0.0864  0.0539
 6898TIP3   OH242328   4.094   3.214   1.583  0.5706 -0.1638 -0.0321
 6898TIP3    H142329   4.001   3.228   1.564  0.4414  0.3299  0.8753
 6898TIP3    H242330   4.138   3.290   1.546  0.7695 -0.9312 -1.4401
 6899TIP3   OH242331   0.697   3.732   2.020 -0.2046 -0.0910 -0.4133
 6899TIP3    H142332   0.619   3.720   1.967 -0.7865 -0.6472  0.5306
 6899TIP3    H242333   0.720   3.644   2.049 -0.5578  0.2875  1.1351
 6900TIP3   OH242334   6.371   5.859   8.456  0.0955  0.0271 -0.6941
 6900TIP3    H142335   6.298   5.798   8.468  1.1198 -0.8711  1.4957
 6900TIP3    H242336   6.368   5.916   8.533  0.8879  0.8760 -1.2768
 6901TIP3   OH242337   3.340   6.463   6.930 -0.0141  0.3248 -0.1443
 6901TIP3    H142338   3.253   6.493   6.958 -0.9308 -0.3680 -2.0643
 6901TIP3    H242339   3.350   6.499   6.842  1.5181  0.1017 -0.0858
 6902TIP3   OH242340   0.117   0.088   0.711  0.4642 -0.0442 -0.3977
 6902TIP3    H142341   0.031   0.102   0.750 -0.6763 -3.4986 -1.2991
 6902TIP3    H242342   0.103   0.102   0.617  1.6921  2.1451 -0.3346
 6903TIP3   OH242343   6.621   4.857   8.075  0.2961 -0.1407 -0.1939
 6903TIP3    H142344   6.711   4.828   8.083  0.8094  0.7672 -2.0991
 6903TIP3    H242345   6.614   4.889   7.985 -1.3190  1.8030  0.5472
 6904TIP3   OH242346   0.744   6.011   1.504 -0.1823 -0.1722 -0.0156
 6904TIP3    H142347   0.703   5.929   1.477  0.5521 -0.6027  0.1617
 6904TIP3    H242348   0.682   6.051   1.565 -0.8118 -0.3005 -0.5580
 6905TIP3   OH242349   1.313   0.170   1.935  0.5836 -0.1014  0.1972
 6905TIP3    H142350   1.250   0.099   1.944 -0.2411  0.6732  0.6021
 6905TIP3    H242351   1.380   0.152   2.000 -0.4476  0.3412  1.4101
 6906TIP3   OH242352   5.750   2.895   7.467  0.4152  0.1665  0.5829
 6906TIP3    H142353   5.821   2.934   7.417 -0.2903  1.3138  0.4345
 6906TIP3    H242354   5.696   2.850   7.401  0.9044 -0.5562  0.6729
 6907TIP3   OH242355   4.400   1.242   0.732  0.1440 -0.6292 -0.3206
 6907TIP3    H142356   4.377   1.256   0.641 -0.6345 -1.3429 -0.2540
 6907TIP3    H242357   4.424   1.150   0.737  1.7038 -0.2370 -0.0936
 6908TIP3   OH242358   0.010   1.395   1.457  0.0945 -0.4099  0.2726
 6908TIP3    H142359   0.030   1.304   1.436  2.3151  0.2567 -0.7070
 6908TIP3    H242360   0.081   1.423   1.513 -0.8589  0.6022  1.0210
 6909TIP3   OH242361   3.589   3.036   0.378 -0.3091 -0.1439  0.1495
 6909TIP3    H142362   3.664   2.989   0.414 -0.7414 -1.3361 -0.4505
 6909TIP3    H242363   3.559   3.093   0.449  0.4256 -0.5437  0.7937
 6910TIP3   OH242364   6.134   1.114   7.098  0.2194  0.5225  0.7506
 6910TIP3    H142365   6.054   1.064   7.083 -0.7299  1.3740  2.5187
 6910TIP3    H242366   6.113   1.202   7.067  0.2974  0.8638  1.6456
 6911TIP3   OH242367   1.068   6.543   6.840  0.5485 -0.2085  0.5516
 6911TIP3    H142368   0.975   6.557   6.820  1.2190  2.9978 -1.0010
 6911TIP3    H242369   1.109   6.529   6.755  1.6101 -1.0064  1.1663
 6912TIP3   OH242370   4.418   0.110   8.499  0.2030  0.7309  0.3170
 6912TIP3    H142371   4.499   0.107   8.448 -1.0933  0.1370 -1.8271
 6912TIP3    H242372   4.389   0.019   8.503 -1.6025  1.1725 -1.1738
 6913TIP3   OH242373   6.284   2.273   2.240 -0.2457  0.6823 -0.5757
 6913TIP3    H142374   6.371   2.291   2.205  0.9097 -2.2202  0.4502
 6913TIP3    H242375   6.300   2.214   2.314 -3.0356  0.9081  0.3195
 6914TIP3   OH242376   6.092   3.125   0.492 -0.9388 -0.6064  0.0904
 6914TIP3    H142377   6.017   3.065   0.502 -1.6079  0.1262 -0.4459
 6914TIP3    H242378   6.127   3.106   0.405  0.4808 -2.0136  0.9103
 6915TIP3   OH242379   2.545   0.751   8.833  0.2528  0.1281 -0.0983
 6915TIP3    H142380   2.538   0.682   8.767  0.0732 -0.7309  0.8036
 6915TIP3    H242381   2.604   0.715   8.899 -1.3365  0.0430  1.3398
 6916TIP3   OH242382   1.479   2.326   7.714  0.6374  0.0441  0.4587
 6916TIP3    H142383   1.568   2.291   7.717  1.0731  1.1410  0.8567
 6916TIP3    H242384   1.452   2.315   7.623  1.7816  1.1061 -0.0415
 6917TIP3   OH242385   4.502   6.469   7.259 -0.0005  0.2102  0.0335
 6917TIP3    H142386   4.477   6.547   7.309 -2.1119 -0.0833 -0.4699
 6917TIP3    H242387   4.558   6.502   7.189 -1.1187  1.3590 -0.3608
 6918TIP3   OH242388   5.692   5.744   0.936  0.0843 -0.1384 -0.0513
 6918TIP3    H142389   5.745   5.670   0.966  0.6155  0.2775  0.0576
 6918TIP3    H242390   5.648   5.775   1.015 -0.1100 -0.3134 -0.0900
 6919TIP3   OH242391   5.726   6.346   8.286  0.1236 -0.0933  0.7864
 6919TIP3    H142392   5.772   6.268   8.254  0.2738 -0.2266  1.3033
 6919TIP3    H242393   5.652   6.357   8.227  0.6438 -0.0650  0.1330
 6920TIP3   OH242394   3.164   6.394   6.640 -0.1089  0.6810  0.0150
 6920TIP3    H142395   3.158   6.302   6.665 -3.3201 -0.1522 -3.0947
 6920TIP3    H242396   3.224   6.395   6.565 -1.6301  0.7192 -1.2416
 6921TIP3   OH242397   2.030   1.240   7.892 -0.5738  0.0434 -0.2535
 6921TIP3    H142398   1.987   1.273   7.813 -0.5906 -0.2322 -0.3604
 6921TIP3    H242399   2.117   1.213   7.863 -0.7864 -0.5986 -0.2931
 6922TIP3   OH242400   5.476   5.224   7.792 -0.4222  0.2859 -0.4701
 6922TIP3    H142401   5.388   5.213   7.755 -0.0098  0.1582 -1.4671
 6922TIP3    H242402   5.523   5.144   7.766 -0.0663  0.2672  0.2136
 6923TIP3   OH242403   1.142   0.452   7.394  0.0155  0.0331 -0.4252
 6923TIP3    H142404   1.199   0.411   7.459  2.1436  1.2416 -1.4379
 6923TIP3    H242405   1.199   0.511   7.346 -1.7779  0.1478 -2.5540
 6924TIP3   OH242406   6.264   6.451   8.600 -0.4213 -0.0126  0.4959
 6924TIP3    H142407   6.200   6.447   8.671  0.8100  1.4538  1.7509
 6924TIP3    H242408   6.233   6.386   8.536 -3.7613  1.3307  0.5213
 6925TIP3   OH242409   4.076   4.066   0.693  0.2296  0.3958 -0.0684
 6925TIP3    H142410   4.034   4.142   0.654 -1.9031  0.0271  1.3550
 6925TIP3    H242411   4.168   4.091   0.704  0.0042  1.9573 -1.5188
 6926TIP3   OH242412   0.031   1.652   9.025 -0.1072 -0.1173  0.1145
 6926TIP3    H142413   0.023   1.723   8.961  0.0277  0.9435  1.2388
 6926TIP3    H242414   0.086   1.688   9.095  0.8403 -1.6901  0.2331
 6927TIP3   OH242415   5.565   6.305   1.009  0.4990 -0.6227  0.0059
 6927TIP3    H142416   5.658   6.313   0.986  0.5488 -3.0142 -1.0126
 6927TIP3    H242417   5.519   6.318   0.926 -0.2065  1.4628  0.6654
 6928TIP3   OH242418   1.815   5.025   0.467  0.6882 -0.3830 -0.0003
 6928TIP3    H142419   1.731   5.029   0.512 -0.1889 -0.1124 -1.6158
 6928TIP3    H242420   1.857   5.108   0.488 -0.7186  0.7847 -1.5050
 6929TIP3   OH242421   3.158   1.713   9.028 -0.0072  0.4807  0.4086
 6929TIP3    H142422   3.203   1.652   9.086  1.3014 -0.3125 -1.3535
 6929TIP3    H242423   3.076   1.734   9.073  1.0707  0.1450  2.6369
 6930TIP3   OH242424   4.872   5.676   7.239 -0.0872 -0.2152 -0.7249
 6930TIP3    H142425   4.790   5.640   7.206 -0.4801  0.0767 -0.0877
 6930TIP3    H242426   4.901   5.737   7.171 -2.0801  2.1533  0.3886
 6931TIP3   OH242427   2.821   5.033   1.835  0.0232  0.1554 -0.1237
 6931TIP3    H142428   2.819   4.955   1.891 -0.5326 -0.6743 -1.2678
 6931TIP3    H242429   2.770   5.098   1.884 -1.2786 -0.8599 -0.0825
 6932TIP3   OH242430   0.691   4.919   0.289 -0.3582  0.9681 -0.0789
 6932TIP3    H142431   0.625   4.850   0.285 -1.0574  1.6137  0.0903
 6932TIP3    H242432   0.698   4.942   0.381 -0.0114  1.0201 -0.1126
 6933TIP3   OH242433   6.128   1.250   2.270 -0.2094 -0.0909 -0.0036
 6933TIP3    H142434   6.041   1.209   2.266 -1.4550  2.1616  1.7700
 6933TIP3    H242435   6.174   1.200   2.337  0.2074 -1.7961 -1.4956
 6934TIP3   OH242436   6.213   3.215   1.196  0.0756  0.4376 -0.6138
 6934TIP3    H142437   6.219   3.308   1.219 -1.0146  0.1706  0.8882
 6934TIP3    H242438   6.187   3.172   1.277 -0.9537 -0.9886 -1.6621
 6935TIP3   OH242439   1.332   3.940   8.260  0.6128 -0.3901  0.1270
 6935TIP3    H142440   1.408   3.998   8.252  1.8887 -1.8923  0.8147
 6935TIP3    H242441   1.302   3.927   8.170 -0.3723  2.0933  0.0047
 6936TIP3   OH242442   5.152   3.784   8.480  0.1447 -0.0090 -0.2413
 6936TIP3    H142443   5.112   3.770   8.566  1.1434  0.6368  0.3535
 6936TIP3    H242444   5.232   3.732   8.482  0.7198  0.8476 -0.3613
 6937TIP3   OH242445   2.489   1.978   1.996  0.5053 -0.5456 -0.1501
 6937TIP3    H142446   2.508   1.894   2.038  3.3484  0.0852  0.0340
 6937TIP3    H242447   2.432   2.024   2.059 -2.4537 -2.8150 -0.9602
 6938TIP3   OH242448   4.064   3.636   7.403  0.5074  0.4604  0.1004
 6938TIP3    H142449   4.120   3.713   7.397  1.5071 -0.3152 -0.8756
 6938TIP3    H242450   4.120   3.568   7.440  0.7484 -0.7724 -2.3260
 6939TIP3   OH242451   4.538   6.391   1.340  0.2731 -0.0232  0.4910
 6939TIP3    H142452   4.634   6.394   1.350  0.3994  0.3931 -0.6992
 6939TIP3    H242453   4.518   6.466   1.285 -0.8941  0.6273  1.7261
 6940TIP3   OH242454   3.855   6.324   0.998  0.5484 -0.2201 -0.2925
 6940TIP3    H142455   3.779   6.349   0.946  0.4590  0.6177  0.2215
 6940TIP3    H242456   3.908   6.404   1.002  1.4032 -0.7628 -0.5500
 6941TIP3   OH242457   5.821   2.984   1.374 -0.1704  0.1942  0.2582
 6941TIP3    H142458   5.825   2.915   1.307  1.3072  0.6746 -0.1879
 6941TIP3    H242459   5.747   2.959   1.429 -0.6836 -0.8584 -0.8575
 6942TIP3   OH242460   0.272   0.220   0.035  0.5543 -0.0336  0.1651
 6942TIP3    H142461   0.253   0.304   0.076 -1.1811 -0.1408 -0.3342
 6942TIP3    H242462   0.293   0.161   0.107  0.4073  0.4936  0.6390
 6943TIP3   OH242463   4.440   6.658   2.612  0.3799 -0.2626  0.0439
 6943TIP3    H142464   4.353   6.625   2.589 -0.3390  1.1080  0.6722
 6943TIP3    H242465   4.445   6.744   2.569  0.2801  0.9081  2.1998
 6944TIP3   OH242466   1.959   1.150   3.085 -0.2557 -0.6696 -0.3763
 6944TIP3    H142467   1.912   1.124   3.163 -0.2937 -1.6791 -0.7136
 6944TIP3    H242468   2.052   1.138   3.108  0.0269  2.6679  0.7756
 6945TIP3   OH242469   4.127   4.282   1.884 -0.1281 -0.3118 -0.1684
 6945TIP3    H142470   4.057   4.241   1.935 -1.4217  1.2853 -0.5651
 6945TIP3    H242471   4.191   4.310   1.950 -1.7033  1.5912  0.6587
 6946TIP3   OH242472   1.277   1.627   0.592 -0.0970  0.0323  0.0895
 6946TIP3    H142473   1.214   1.679   0.542  0.6245  0.6871 -0.1616
 6946TIP3    H242474   1.333   1.586   0.525 -0.0376 -0.2704  0.3198
 6947TIP3   OH242475   6.201   2.509   1.103 -0.8890  0.7092 -0.9052
 6947TIP3    H142476   6.153   2.428   1.086 -0.4448  0.1340  0.4295
 6947TIP3    H242477   6.134   2.570   1.135 -1.1439  0.7102 -1.4429
 6948TIP3   OH242478   5.955   3.751   1.819 -0.2475  0.3600  0.4669
 6948TIP3    H142479   5.953   3.677   1.759 -1.1480  0.2635  0.5967
 6948TIP3    H242480   6.034   3.738   1.871  0.3840  0.2924 -0.4911
 6949TIP3   OH242481   5.345   0.405   1.307 -0.2496  1.0541  0.1259
 6949TIP3    H142482   5.409   0.359   1.361 -0.0714 -0.6731 -1.4690
 6949TIP3    H242483   5.261   0.390   1.351 -0.1014 -0.2477 -0.0086
 6950TIP3   OH242484   3.262   0.305   0.651 -0.6141 -0.3049  0.1718
 6950TIP3    H142485   3.283   0.254   0.729 -1.5705 -0.1006  0.5759
 6950TIP3    H242486   3.167   0.319   0.656 -0.5637  0.4001 -0.6039
 6951TIP3   OH242487   6.293   3.315   0.839 -0.1855 -0.2538  1.0269
 6951TIP3    H142488   6.212   3.314   0.787 -0.0636  0.4214  0.8121
 6951TIP3    H242489   6.314   3.222   0.852 -0.9388 -0.4406  1.0059
 6952TIP3   OH242490   1.142   6.123   1.423  0.1544  0.3877 -0.3406
 6952TIP3    H142491   1.130   6.176   1.344  1.0906 -2.4869 -2.5967
 6952TIP3    H242492   1.219   6.069   1.404  0.3129 -0.5592  2.5194
 6953TIP3   OH242493   5.122   5.225   1.437  0.2213 -0.5549 -0.0360
 6953TIP3    H142494   5.196   5.180   1.477 -1.2321 -1.9718  1.1799
 6953TIP3    H242495   5.100   5.295   1.498  0.3299 -0.3537 -0.2251
 6954TIP3   OH242496   2.018   2.580   7.641  0.4091 -1.0758 -0.2366
 6954TIP3    H142497   2.093   2.615   7.688  0.6399  1.7243 -2.3946
 6954TIP3    H242498   2.044   2.584   7.549 -2.1238 -0.5801 -1.0079
 6955TIP3   OH242499   4.325   2.440   8.742  0.5260 -0.0079  0.6481
 6955TIP3    H142500   4.345   2.532   8.760  1.2446 -0.1215  0.4579
 6955TIP3    H242501   4.242   2.443   8.694 -1.3595  0.3257  3.6116
 6956TIP3   OH242502   5.563   5.116   0.264 -0.0517 -0.0985 -0.2239
 6956TIP3    H142503   5.512   5.131   0.343  0.4316 -0.9961  0.2742
 6956TIP3    H242504   5.510   5.056   0.212  0.2193 -0.5583  0.0248
 6957TIP3   OH242505   3.537   0.907   0.982  0.2186  0.4806 -0.3292
 6957TIP3    H142506   3.538   0.981   0.922  1.4170 -0.7454 -1.9115
 6957TIP3    H242507   3.623   0.867   0.974 -0.2527 -0.8826  0.7558
 6958TIP3   OH242508   4.639   0.438   7.533  0.6756  0.0944 -0.8919
 6958TIP3    H142509   4.682   0.384   7.467  0.9200 -1.2426  0.3233
 6958TIP3    H242510   4.623   0.379   7.606 -1.0259  1.1595 -0.3469
 6959TIP3   OH242511   5.863   2.706   8.553  0.5380 -0.0995 -0.0405
 6959TIP3    H142512   5.880   2.751   8.636  0.4093  0.3379 -0.2446
 6959TIP3    H242513   5.848   2.615   8.578 -2.3549  0.4995  0.7683
 6960TIP3   OH242514   2.351   5.800   6.525 -0.5739 -0.3619  0.0207
 6960TIP3    H142515   2.436   5.834   6.552 -1.1659 -0.5634  2.3111
 6960TIP3    H242516   2.371   5.740   6.454  1.0327  0.6599 -0.4452
 6961TIP3   OH242517   6.726   4.432   1.483  0.2347 -0.5055 -0.0255
 6961TIP3    H142518   6.769   4.357   1.442 -0.6977 -1.5197  0.7831
 6961TIP3    H242519   6.783   4.457   1.556  0.2228 -0.8624  0.1079
 6962TIP3   OH242520   3.772   5.674   8.217 -0.0965  0.6338  0.5473
 6962TIP3    H142521   3.860   5.684   8.181  0.1117 -2.2946 -0.0371
 6962TIP3    H242522   3.715   5.718   8.154  0.5977 -1.2935 -1.5612
 6963TIP3   OH242523   4.016   0.071   1.803  0.1212  0.2766  0.6791
 6963TIP3    H142524   4.043   0.119   1.882 -0.1829  0.7800  0.4802
 6963TIP3    H242525   4.010   0.138   1.735  2.0206 -0.3813 -0.2133
 6964TIP3   OH242526   3.293   6.389   2.130 -0.6578  0.3239 -0.4888
 6964TIP3    H142527   3.340   6.473   2.129 -0.2466  0.1889  1.9942
 6964TIP3    H242528   3.201   6.413   2.144 -0.6415  0.3902 -0.4942
 6965TIP3   OH242529   4.661   5.435   8.833  0.2258  0.4795 -0.5157
 6965TIP3    H142530   4.610   5.360   8.804  3.3128 -1.6719 -0.8653
 6965TIP3    H242531   4.717   5.456   8.758  1.8344  0.8688  0.7477
 6966TIP3   OH242532   0.442   1.928   8.482 -0.2660  0.2486 -0.1895
 6966TIP3    H142533   0.485   2.012   8.465  0.1274 -0.2736 -1.9706
 6966TIP3    H242534   0.352   1.940   8.450  0.4780 -0.7382 -2.9637
 6967TIP3   OH242535   6.103   1.586   0.146 -0.1217  0.2350  0.3356
 6967TIP3    H142536   6.172   1.564   0.209 -0.8571 -1.6753  0.5379
 6967TIP3    H242537   6.022   1.560   0.190 -0.7416 -0.0516 -0.9442
 6968TIP3   OH242538   2.749   4.732   8.663  0.8639  0.2448  0.3172
 6968TIP3    H142539   2.705   4.753   8.581 -0.7029 -0.2877  0.9846
 6968TIP3    H242540   2.816   4.668   8.640 -2.0680 -2.9149 -0.0778
 6969TIP3   OH242541   5.594   1.944   2.200 -0.5234 -0.7247  0.1056
 6969TIP3    H142542   5.550   2.029   2.205 -1.9500 -1.4847  1.0303
 6969TIP3    H242543   5.611   1.932   2.106 -0.5790  0.4274 -0.0695
 6970TIP3   OH242544   4.091   6.744   8.031  0.1883  0.4583  0.1991
 6970TIP3    H142545   4.130   6.777   8.112 -0.7461 -0.2807  0.9679
 6970TIP3    H242546   4.071   6.652   8.050 -0.2909  0.3459 -0.7894
 6971TIP3   OH242547   0.034   1.638   1.327  0.1093 -0.7061 -0.3830
 6971TIP3    H142548   0.001   1.601   1.246  0.1616  0.9969 -1.2161
 6971TIP3    H242549   0.030   1.566   1.390 -3.4374 -1.1147 -0.8905
 6972TIP3   OH242550   4.531   3.204   6.951 -0.0503  0.1968  0.5206
 6972TIP3    H142551   4.483   3.170   7.026  0.6949 -2.2989 -0.0317
 6972TIP3    H242552   4.467   3.255   6.903 -1.7280 -1.5806  0.7101
 6973TIP3   OH242553   1.961   3.277   7.406 -0.1603 -0.2135 -0.1567
 6973TIP3    H142554   1.979   3.360   7.360 -2.4303 -0.2173 -1.2384
 6973TIP3    H242555   1.941   3.215   7.336 -0.4558 -1.1460  0.7284
 6974TIP3   OH242556   6.021   1.650   1.765  0.0075  0.1275 -0.3262
 6974TIP3    H142557   5.948   1.608   1.810 -0.6525  1.0102 -0.5444
 6974TIP3    H242558   6.067   1.579   1.720 -1.7836 -0.2181 -1.7054
 6975TIP3   OH242559   1.542   4.398   7.207 -0.0287 -0.0537  0.0146
 6975TIP3    H142560   1.474   4.338   7.176  0.5664 -0.5304 -0.4058
 6975TIP3    H242561   1.619   4.374   7.156 -0.4600  3.0090 -2.3216
 6976TIP3   OH242562   2.206   2.351   7.386  0.5552 -0.0999  0.3484
 6976TIP3    H142563   2.291   2.395   7.376  0.6192  0.1413  1.6738
 6976TIP3    H242564   2.215   2.269   7.338  0.8581  0.7783 -1.1560
 6977TIP3   OH242565   2.871   5.897   1.410  0.3673  0.1996  0.0026
 6977TIP3    H142566   2.938   5.835   1.380  0.4321  0.3903 -0.2461
 6977TIP3    H242567   2.877   5.894   1.506  0.9685  0.4745 -0.0256
 6978TIP3   OH242568   6.078   3.957   8.757 -0.2323  0.1431 -0.4151
 6978TIP3    H142569   6.092   3.959   8.851 -0.5444  0.4744 -0.3748
 6978TIP3    H242570   6.029   3.876   8.742 -1.1846  0.6574 -0.1475
 6979TIP3   OH242571   0.027   5.015   7.667  0.2277 -0.0327 -0.3636
 6979TIP3    H142572  -0.007   5.083   7.609 -0.9784 -1.7573 -1.7611
 6979TIP3    H242573   0.107   4.985   7.624 -0.6445 -1.2826 -1.1805
 6980TIP3   OH242574   2.431   5.435   7.702  0.0315 -0.0913 -0.0240
 6980TIP3    H142575   2.421   5.368   7.635  2.0695  1.3441 -1.9407
 6980TIP3    H242576   2.508   5.408   7.752 -1.6097 -1.2739  2.0226
 6981TIP3   OH242577   5.652   6.661   0.699 -0.2301 -0.2957 -0.0410
 6981TIP3    H142578   5.598   6.619   0.633  0.6784 -0.2575 -0.8287
 6981TIP3    H242579   5.742   6.646   0.670  0.1807  3.2858 -1.1143
 6982TIP3   OH242580   1.549   2.545   2.768  0.2092  0.2517 -0.1887
 6982TIP3    H142581   1.481   2.612   2.774  0.4618  0.4800  0.2904
 6982TIP3    H242582   1.626   2.587   2.807 -0.0188 -0.8273  1.5619
 6983TIP3   OH242583   4.259   5.475   0.660  0.5269 -0.2470 -0.3037
 6983TIP3    H142584   4.352   5.459   0.642  0.4375  0.1211 -1.1632
 6983TIP3    H242585   4.237   5.414   0.730  1.6863  0.4147  0.6700
 6984TIP3   OH242586   2.827   2.023   0.269  0.4843  0.1646  0.2350
 6984TIP3    H142587   2.798   1.952   0.211  1.1472  0.2383 -0.2040
 6984TIP3    H242588   2.788   2.102   0.232 -0.1308  0.0453  0.6342
 6985TIP3   OH242589   0.329   0.529   8.907  0.5353  0.0403 -0.8565
 6985TIP3    H142590   0.240   0.526   8.942  2.1104 -2.6889  3.8608
 6985TIP3    H242591   0.370   0.603   8.951  1.2421 -0.2990 -0.9263
 6986TIP3   OH242592   0.425   5.166   8.231 -0.2423 -0.1231  0.1334
 6986TIP3    H142593   0.346   5.118   8.257 -0.1888  0.0737  0.6701
 6986TIP3    H242594   0.497   5.117   8.271 -0.0095 -0.8275 -1.1091
 6987TIP3   OH242595   1.255   5.534   7.848 -0.0352  0.2850 -0.2923
 6987TIP3    H142596   1.270   5.509   7.757  3.4204  0.3093  0.1265
 6987TIP3    H242597   1.184   5.598   7.844  0.7219  1.1085 -3.1152
 6988TIP3   OH242598   1.657   1.463   8.316  0.2004 -0.1521 -0.3681
 6988TIP3    H142599   1.661   1.554   8.288 -1.2430 -0.4539 -1.6866
 6988TIP3    H242600   1.707   1.416   8.250  1.2512 -0.3087  0.5063
 6989TIP3   OH242601   3.555   5.166   7.737 -0.1116 -0.3830  0.2141
 6989TIP3    H142602   3.491   5.220   7.691  0.5247 -0.7262 -1.1102
 6989TIP3    H242603   3.516   5.151   7.824 -0.4635  1.8685  0.4941
 6990TIP3   OH242604   1.072   2.725   8.765 -0.7655  0.1182  0.3650
 6990TIP3    H142605   1.022   2.646   8.744 -1.7490  0.9977 -0.6875
 6990TIP3    H242606   1.027   2.764   8.839  0.1595 -0.6728  1.3785
 6991TIP3   OH242607   6.053   0.326   7.356 -0.6803 -0.1534  0.7582
 6991TIP3    H142608   5.969   0.312   7.312 -1.6882  1.1800  2.1406
 6991TIP3    H242609   6.073   0.242   7.397 -1.9342 -0.1846  1.3504
 6992TIP3   OH242610   2.148   5.748   0.490  0.8289 -0.1968 -0.2863
 6992TIP3    H142611   2.176   5.838   0.473 -0.4372  0.1365 -0.7072
 6992TIP3    H242612   2.178   5.698   0.414 -0.1778  0.2687 -1.0162
 6993TIP3   OH242613   0.127   1.286   1.014  0.0325 -0.3140  0.0288
 6993TIP3    H142614   0.110   1.254   0.926  1.0823  0.8543 -0.6214
 6993TIP3    H242615   0.182   1.363   1.002 -1.3606  1.0084  1.6090
 6994TIP3   OH242616   0.620   2.573   1.521 -0.0193 -0.1347 -0.2615
 6994TIP3    H142617   0.527   2.593   1.527 -0.4389 -2.2649  1.0536
 6994TIP3    H242618   0.643   2.536   1.606  1.7494 -0.7718 -0.9601
 6995TIP3   OH242619   5.654   4.053   7.307 -0.1658 -1.1790  0.5752
 6995TIP3    H142620   5.742   4.018   7.317 -0.6405 -2.0558  1.9699
 6995TIP3    H242621   5.624   4.017   7.223  1.6807  1.2532 -1.2813
 6996TIP3   OH242622   0.505   5.669   7.557  0.1825 -0.2550  0.0262
 6996TIP3    H142623   0.553   5.717   7.624 -1.8759  1.4853  0.3709
 6996TIP3    H242624   0.500   5.580   7.590  1.1950  0.0397  1.0351
 6997TIP3   OH242625   1.532   5.490   7.050  0.0030  0.0384 -0.1668
 6997TIP3    H142626   1.609   5.541   7.023  0.0571 -0.1446 -0.3530
 6997TIP3    H242627   1.536   5.491   7.146  0.1955  0.0941 -0.1746
 6998TIP3   OH242628   0.956   1.776   8.444  0.6580 -0.1645  0.1171
 6998TIP3    H142629   0.953   1.786   8.348  0.2701  0.1881  0.1641
 6998TIP3    H242630   0.994   1.858   8.475 -0.4364  0.2640  0.3529
 6999TIP3   OH242631   3.894   2.658   1.738 -0.2187 -0.2145 -0.0494
 6999TIP3    H142632   3.928   2.742   1.706  0.6313 -1.3021 -2.2014
 6999TIP3    H242633   3.827   2.682   1.801 -0.9263  2.1256 -1.5608
 7000TIP3   OH242634   4.307   5.153   1.644  0.2345 -0.6100 -0.0570
 7000TIP3    H142635   4.390   5.187   1.611  0.5125 -0.0293  1.1560
 7000TIP3    H242636   4.332   5.083   1.704 -0.1985 -1.0451 -0.3842
 7001TIP3   OH242637   3.742   1.759   1.633  0.3784  0.4636 -0.0776
 7001TIP3    H142638   3.785   1.760   1.719 -1.5641 -0.5269  0.9882
 7001TIP3    H242639   3.648   1.759   1.654 -0.1449 -0.6866 -2.1923
 7002TIP3   OH242640   5.742   6.403   6.759  0.7413  0.0888 -0.0082
 7002TIP3    H142641   5.817   6.348   6.737  0.5432 -0.0711 -0.2893
 7002TIP3    H242642   5.762   6.488   6.718  2.3313  1.1291  2.6525
 7003TIP3   OH242643   4.075   1.553   6.793  0.0521  0.0823  0.4593
 7003TIP3    H142644   4.044   1.477   6.744  2.3020 -1.7799  1.6925
 7003TIP3    H242645   4.155   1.580   6.748 -0.5889  1.6214  0.1817
 7004TIP3   OH242646   6.542   5.657   8.234 -0.6848  0.0851  0.2064
 7004TIP3    H142647   6.601   5.605   8.289  1.2369  1.9127  0.0127
 7004TIP3    H242648   6.528   5.738   8.283  0.0807  1.2365 -1.3599
 7005TIP3   OH242649   2.746   0.615   0.306  0.0082 -0.1661 -0.1522
 7005TIP3    H142650   2.738   0.706   0.276 -0.0534 -0.0225  0.2855
 7005TIP3    H242651   2.695   0.564   0.243  1.7146 -0.1680 -1.5986
 7006TIP3   OH242652   1.308   4.851   8.660 -0.1703 -0.4063  0.0983
 7006TIP3    H142653   1.379   4.914   8.674  0.1926 -0.1171 -2.5885
 7006TIP3    H242654   1.341   4.769   8.697  1.7810 -0.3859 -1.4450
 7007TIP3   OH242655   6.187   0.388   1.440 -0.4074 -0.7105 -0.3091
 7007TIP3    H142656   6.195   0.297   1.470 -0.2185 -0.4502  0.4701
 7007TIP3    H242657   6.214   0.440   1.516 -0.0763 -0.0128 -0.8941
 7008TIP3   OH242658   5.682   5.941   1.766 -0.3000 -0.3497  0.4423
 7008TIP3    H142659   5.706   6.024   1.808 -1.3979  0.8650 -1.2372
 7008TIP3    H242660   5.587   5.944   1.760 -0.3203 -1.5700  0.0064
 7009TIP3   OH242661   1.276   0.366   6.574 -0.3015 -0.4222  0.3058
 7009TIP3    H142662   1.244   0.426   6.507  1.2349  1.6451  1.3386
 7009TIP3    H242663   1.341   0.312   6.530  0.6743  0.8980  0.0994
 7010TIP3   OH242664   0.012   4.265   0.187  0.0002  0.6711 -0.3457
 7010TIP3    H142665  -0.074   4.235   0.218 -0.9126  1.0878 -2.2992
 7010TIP3    H242666  -0.007   4.348   0.142  1.3476  0.5559 -1.1747
 7011TIP3   OH242667   3.416   1.248   0.094  0.7777  0.5658  0.7425
 7011TIP3    H142668   3.482   1.223   0.029  1.6387 -1.8473  2.4201
 7011TIP3    H242669   3.424   1.343   0.102 -0.8475  1.4108 -4.1566
 7012TIP3   OH242670   1.248   6.688   1.873 -0.4859  0.1988 -0.6816
 7012TIP3    H142671   1.267   6.622   1.939 -0.2488  0.7921 -0.1415
 7012TIP3    H242672   1.190   6.644   1.810 -2.3992  0.2132  0.9878
 7013TIP3   OH242673   3.665   4.896   1.625 -0.2147 -0.3669 -0.0885
 7013TIP3    H142674   3.715   4.871   1.702 -2.2666  0.0952  1.4896
 7013TIP3    H242675   3.679   4.990   1.617 -0.3771 -0.3319  0.0246
 7014TIP3   OH242676   3.724   6.362   2.079  0.2416  0.0416 -0.0556
 7014TIP3    H142677   3.801   6.379   2.133  0.4362  1.2824 -0.6950
 7014TIP3    H242678   3.671   6.441   2.086  0.3651  0.3174 -1.8196
 7015TIP3   OH242679   4.475   0.438   7.953  0.5705  0.2382 -0.2838
 7015TIP3    H142680   4.483   0.379   8.028  0.1836  1.5602  0.8375
 7015TIP3    H242681   4.552   0.419   7.899 -0.3460 -2.3532 -0.7813
 7016TIP3   OH242682   1.495   3.758   8.884 -0.1460 -0.1901  0.1623
 7016TIP3    H142683   1.486   3.738   8.791  0.7120 -0.2438  0.0776
 7016TIP3    H242684   1.406   3.763   8.917 -0.4716  0.5406 -0.8083
 7017TIP3   OH242685   4.398   6.347   9.034 -0.2080 -0.3007  0.3369
 7017TIP3    H142686   4.466   6.280   9.019 -0.7068 -0.6896 -0.2128
 7017TIP3    H242687   4.445   6.430   9.029  0.0118 -0.4941 -1.4081
 7018TIP3   OH242688   2.294   4.873   6.736  0.2692  0.2354  0.0069
 7018TIP3    H142689   2.276   4.799   6.679 -0.0896 -0.4124  0.9389
 7018TIP3    H242690   2.383   4.899   6.714 -0.0353  0.3302 -1.1968
 7019TIP3   OH242691   5.180   4.087   7.079  0.6412 -0.0961 -0.5590
 7019TIP3    H142692   5.231   4.007   7.086  0.1297 -0.3612  0.2391
 7019TIP3    H242693   5.146   4.087   6.989  1.1486 -0.4522 -0.7528
 7020TIP3   OH242694   4.783   0.475   8.116 -0.0252 -0.2056  0.0396
 7020TIP3    H142695   4.869   0.435   8.130  0.1540 -0.0222 -0.5183
 7020TIP3    H242696   4.725   0.401   8.097  0.0277 -0.3189  0.3113
 7021TIP3   OH242697   3.614   4.993   0.052 -0.0592 -0.0372  0.4016
 7021TIP3    H142698   3.673   5.029  -0.015  0.3154 -1.5219 -0.1050
 7021TIP3    H242699   3.657   4.912   0.080 -0.2620  0.4886  2.3894
 7022TIP3   OH242700   4.815   1.773   0.096  0.1980 -0.4765  0.0320
 7022TIP3    H142701   4.868   1.785   0.175  1.0510  2.9429 -0.8993
 7022TIP3    H242702   4.726   1.759   0.128  0.5266  0.8572  1.6659
 7023TIP3   OH242703   0.621   0.937   1.087 -0.1011 -0.3481  0.4046
 7023TIP3    H142704   0.531   0.948   1.055  0.1799 -0.8153 -0.6087
 7023TIP3    H242705   0.657   0.866   1.032  0.7599 -0.4290  1.0570
 7024TIP3   OH242706   0.407   5.422   0.279 -0.0151 -0.8041 -0.2486
 7024TIP3    H142707   0.469   5.357   0.244  2.0448  1.3133 -0.8068
 7024TIP3    H242708   0.454   5.462   0.353 -1.2741 -0.0357  0.1674
 7025TIP3   OH242709   5.819   2.336   8.625 -0.0678 -0.3085  0.0528
 7025TIP3    H142710   5.820   2.300   8.714 -0.4235  0.2070  0.2728
 7025TIP3    H242711   5.731   2.372   8.614  0.4871  1.1692  0.1319
 7026TIP3   OH242712   1.554   0.795   1.901  0.1125  0.1067 -0.7050
 7026TIP3    H142713   1.529   0.886   1.916  0.6094  0.1238  0.0666
 7026TIP3    H242714   1.643   0.800   1.866  0.2461 -0.0987 -0.3905
 7027TIP3   OH242715   0.051   5.769   8.745 -0.3509 -0.4442  0.1850
 7027TIP3    H142716   0.053   5.729   8.832  0.3934 -2.5465 -0.7277
 7027TIP3    H242717  -0.040   5.756   8.715  0.3103 -3.5123 -0.8928
 7028TIP3   OH242718   3.029   4.095   8.335  0.2527 -0.3572  0.0257
 7028TIP3    H142719   3.124   4.097   8.342  0.2045 -1.5004  1.5226
 7028TIP3    H242720   2.999   4.158   8.401 -0.0563  0.8828 -1.2318
 7029TIP3   OH242721   2.826   3.136   2.180  0.1763  0.1628 -0.3264
 7029TIP3    H142722   2.826   3.089   2.263 -0.2532 -1.8978 -1.4206
 7029TIP3    H242723   2.896   3.201   2.189  1.3563 -1.2207  0.9826
 7030TIP3   OH242724   5.818   3.694   1.044  0.2678 -0.2070  0.2443
 7030TIP3    H142725   5.879   3.725   1.111  2.2368 -0.0989 -1.5161
 7030TIP3    H242726   5.802   3.602   1.067  1.5275 -0.3912  0.4631
 7031TIP3   OH242727   3.314   0.234   2.892 -0.1611  0.5301  0.7801
 7031TIP3    H142728   3.296   0.170   2.824  1.1959  0.2872  0.6119
 7031TIP3    H242729   3.233   0.240   2.942 -0.3224 -1.3194  0.8042
 7032TIP3   OH242730   6.521   4.832   8.475  0.3508 -0.2142 -0.0199
 7032TIP3    H142731   6.553   4.914   8.511  1.0342  0.3054 -1.6984
 7032TIP3    H242732   6.501   4.778   8.551 -0.9470  1.7945  1.1348
 7033TIP3   OH242733   2.167   4.320   8.568 -0.0730  0.1509 -0.4063
 7033TIP3    H142734   2.120   4.294   8.647  0.8797 -0.6124 -0.0706
 7033TIP3    H242735   2.257   4.291   8.583  0.3908  1.0808 -1.2651
 7034TIP3   OH242736   5.884   3.518   0.684  0.5854 -0.6600  0.0473
 7034TIP3    H142737   5.794   3.500   0.713  0.5696  1.0833  1.2599
 7034TIP3    H242738   5.905   3.602   0.724  1.8236  0.2702 -2.3921
 7035TIP3   OH242739   0.378   3.984   1.759 -0.3741 -0.0802  0.3555
 7035TIP3    H142740   0.374   4.055   1.823 -1.6151  0.3897 -0.2109
 7035TIP3    H242741   0.412   3.909   1.808 -1.3408  0.2591  1.5918
 7036TIP3   OH242742   1.257   1.848   8.773  0.4845 -0.5279 -0.5323
 7036TIP3    H142743   1.348   1.861   8.745 -0.3289  0.7566 -2.8734
 7036TIP3    H242744   1.241   1.919   8.835  1.2696 -1.2241  0.5029
 7037TIP3   OH242745   0.374   0.092   0.251 -0.1941 -0.2990  0.2844
 7037TIP3    H142746   0.453   0.110   0.201 -0.7532  0.5018 -0.3336
 7037TIP3    H242747   0.403   0.092   0.343  0.2631  1.5984  0.1801
 7038TIP3   OH242748   1.274   0.599   8.907  0.3215  0.1213  0.2548
 7038TIP3    H142749   1.195   0.634   8.949  0.1897 -1.5030  1.4772
 7038TIP3    H242750   1.325   0.562   8.980  1.1947 -0.7475 -0.7697
 7039TIP3   OH242751   2.696   2.543   7.360  0.1951 -0.1610 -0.0164
 7039TIP3    H142752   2.773   2.597   7.380 -1.0753  1.6586  0.1970
 7039TIP3    H242753   2.729   2.454   7.360  2.0859  0.4751  1.2112
 7040TIP3   OH242754   0.598   3.921   6.935 -0.3998 -0.0585  0.2051
 7040TIP3    H142755   0.625   3.835   6.903 -1.9892 -0.2095 -0.8419
 7040TIP3    H242756   0.518   3.941   6.886  0.7284  2.6981 -0.7049
 7041TIP3   OH242757   2.535   1.121   0.015 -0.1465 -0.1668  0.2732
 7041TIP3    H142758   2.480   1.198   0.033 -2.4240 -1.8656  1.0310
 7041TIP3    H242759   2.540   1.118  -0.081 -1.2412  0.1670  0.1901
 7042TIP3   OH242760   5.699   2.963   8.006  1.1284  0.2801 -0.3607
 7042TIP3    H142761   5.622   2.970   7.950  0.3867  1.5348  0.7534
 7042TIP3    H242762   5.694   2.875   8.043  1.1867 -0.2629 -1.6068
 7043TIP3   OH242763   5.978   1.626   6.430  0.1371  0.0384  0.4617
 7043TIP3    H142764   5.963   1.548   6.482 -0.1443 -0.8362 -0.8881
 7043TIP3    H242765   5.911   1.624   6.362  2.5740 -0.7898 -2.1183
 7044TIP3   OH242766   3.167   2.647   2.113 -0.6050  0.1895  0.3518
 7044TIP3    H142767   3.196   2.586   2.046 -0.3615  0.8764 -0.1792
 7044TIP3    H242768   3.220   2.627   2.190  0.8643  1.0202 -0.4144
 7045TIP3   OH242769   3.066   2.545   8.139  0.3890 -0.2387  0.2378
 7045TIP3    H142770   3.056   2.595   8.058  1.4292 -1.4300 -0.6719
 7045TIP3    H242771   3.158   2.557   8.162  0.2283 -0.3537  0.9409
 7046TIP3   OH242772   5.233   4.633   6.670  0.0545  0.0397 -0.5574
 7046TIP3    H142773   5.269   4.672   6.591 -0.5368 -0.3761 -1.0404
 7046TIP3    H242774   5.141   4.617   6.650 -0.0006 -0.4768  0.0568
 7047TIP3   OH242775   5.680   4.814   0.331 -0.4255  0.0343  0.8824
 7047TIP3    H142776   5.589   4.800   0.357 -0.2606 -1.0542  0.9169
 7047TIP3    H242777   5.727   4.738   0.366  0.2292 -0.2066 -0.4452
 7048TIP3   OH242778   3.005   5.730   0.579  0.0869  0.4683 -0.1763
 7048TIP3    H142779   3.023   5.641   0.549  1.4585  0.9545 -0.8843
 7048TIP3    H242780   3.091   5.766   0.602 -0.2791  1.9943 -1.0178
 7049TIP3   OH242781   3.047   1.073   7.934  0.5230 -0.2303 -0.3844
 7049TIP3    H142782   3.098   1.097   7.857 -0.4197  1.1166 -0.6089
 7049TIP3    H242783   3.062   1.144   7.996 -0.0562 -0.4704  0.0389
 7050TIP3   OH242784   5.710   2.935   2.135  0.4437  0.1342  0.7572
 7050TIP3    H142785   5.697   2.875   2.061 -3.0100  1.5129  0.0520
 7050TIP3    H242786   5.714   2.877   2.211 -2.9388 -1.1910  0.1329
 7051TIP3   OH242787   4.255   4.236   6.805 -0.2674 -0.2913 -0.1196
 7051TIP3    H142788   4.164   4.237   6.833 -0.7320 -0.6486 -1.5140
 7051TIP3    H242789   4.255   4.180   6.727  0.8087  1.1060 -1.1872
 7052TIP3   OH242790   6.556   0.435   7.945  0.1163 -0.6039 -0.6409
 7052TIP3    H142791   6.595   0.492   7.879  1.3520 -0.3999  0.2467
 7052TIP3    H242792   6.480   0.484   7.977  0.6590  0.1786 -0.5091
 7053TIP3   OH242793   1.453   5.968   8.142  0.4163  0.9552  0.4589
 7053TIP3    H142794   1.369   5.925   8.124  0.4298  1.4073 -0.7739
 7053TIP3    H242795   1.474   5.942   8.231 -0.6056  0.1130  0.4805
 7054TIP3   OH242796   6.639   3.652   8.724 -0.4283  0.3886 -0.4278
 7054TIP3    H142797   6.546   3.664   8.704  0.0900  0.0210 -3.4219
 7054TIP3    H242798   6.666   3.577   8.671  1.4930  0.1552  0.7694
 7055TIP3   OH242799   0.702   5.790   1.762  0.2475  0.1749 -0.3351
 7055TIP3    H142800   0.788   5.827   1.741 -0.0220  0.6628 -0.6165
 7055TIP3    H242801   0.665   5.850   1.827  0.2450 -0.2062  0.0177
 7056TIP3   OH242802   4.215   6.249   1.140 -0.0408 -0.4814  0.4436
 7056TIP3    H142803   4.200   6.341   1.163 -0.3114 -0.6657  1.0382
 7056TIP3    H242804   4.268   6.253   1.061 -0.9272  0.1924 -0.1456
 7057TIP3   OH242805   2.381   3.693   1.632  0.7009  0.3464 -0.2652
 7057TIP3    H142806   2.337   3.608   1.633 -0.1580  0.7854  0.1581
 7057TIP3    H242807   2.428   3.697   1.715 -1.6513  1.4835  1.0860
 7058TIP3   OH242808   5.314   3.816   9.002  0.3961 -0.3231  0.0941
 7058TIP3    H142809   5.220   3.814   8.985  0.4412 -0.3858 -0.1615
 7058TIP3    H242810   5.329   3.897   9.050  0.1196 -0.6248  0.7013
 7059TIP3   OH242811   1.504   3.319   2.012 -0.2875 -0.1868 -0.0057
 7059TIP3    H142812   1.439   3.316   2.082  0.9907  1.3917  1.3077
 7059TIP3    H242813   1.453   3.306   1.932 -1.7479 -2.3388  1.1597
 7060TIP3   OH242814   3.083   6.053   7.937 -0.9538  0.1640  0.8276
 7060TIP3    H142815   3.103   5.963   7.963  1.0302  0.5472  0.7687
 7060TIP3    H242816   3.115   6.107   8.009  0.3503  0.9633 -0.3013
 7061TIP3   OH242817   0.834   3.428   8.410  0.6834 -0.2168 -0.1741
 7061TIP3    H142818   0.896   3.371   8.365  0.2434 -0.0480 -1.0235
 7061TIP3    H242819   0.869   3.516   8.398  0.2509 -0.1112 -0.7405
 7062TIP3   OH242820   0.585   1.036   0.735  0.1634 -0.6909  0.3833
 7062TIP3    H142821   0.556   1.002   0.820  0.2946  0.5096  0.9307
 7062TIP3    H242822   0.582   0.960   0.676 -1.0635 -1.2867  1.1730
 7063TIP3   OH242823   3.961   1.895   7.101 -0.1730 -0.1010 -0.4018
 7063TIP3    H142824   4.055   1.916   7.104  0.1264 -1.4640  0.5789
 7063TIP3    H242825   3.953   1.828   7.034 -0.0559 -1.6559  1.0802
 7064TIP3   OH242826   2.470   2.197   0.771  0.6150 -0.0406  0.3658
 7064TIP3    H142827   2.390   2.146   0.781  0.9000 -1.0231 -1.7746
 7064TIP3    H242828   2.532   2.155   0.832 -0.1149 -0.0666  1.1108
 7065TIP3   OH242829   0.176   5.245   6.814 -0.5821  0.1522  0.1085
 7065TIP3    H142830   0.216   5.307   6.875  0.2135  0.8739 -1.1137
 7065TIP3    H242831   0.119   5.299   6.760  0.8981  0.0361 -1.6506
 7066TIP3   OH242832   2.938   2.259   1.590  0.1337 -0.1373 -0.4159
 7066TIP3    H142833   2.904   2.345   1.564  1.1921  1.0257  1.7300
 7066TIP3    H242834   2.866   2.218   1.637  0.1622  0.3075  0.0218
 7067TIP3   OH242835   5.750   0.504   0.925 -0.0596  0.1066 -0.4223
 7067TIP3    H142836   5.842   0.478   0.918  0.3190  1.1045  0.5902
 7067TIP3    H242837   5.730   0.544   0.841  0.3817 -0.2509 -0.7024
 7068TIP3   OH242838   1.647   2.416   0.337 -0.7004 -0.3920 -0.4799
 7068TIP3    H142839   1.732   2.373   0.341 -0.5492  0.0063  1.2993
 7068TIP3    H242840   1.609   2.385   0.254  1.0549 -0.7464 -1.2007
 7069TIP3   OH242841   4.120   3.109   1.033 -0.2830  0.4399  0.4047
 7069TIP3    H142842   4.030   3.095   1.002  0.4565 -0.7656 -1.3905
 7069TIP3    H242843   4.144   3.025   1.073  1.0791 -0.4895 -2.0980
 7070TIP3   OH242844   5.304   3.301   1.768  0.2773 -0.2048  0.0968
 7070TIP3    H142845   5.290   3.226   1.825  0.4284  1.0142  1.7917
 7070TIP3    H242846   5.230   3.359   1.785 -1.4103 -1.1323 -3.2878
 7071TIP3   OH242847   6.485   4.239   1.524  0.2603  0.0188 -0.6364
 7071TIP3    H142848   6.431   4.257   1.600 -0.0243 -0.2219 -0.7779
 7071TIP3    H242849   6.517   4.325   1.496  0.0903  0.1448 -0.4482
 7072TIP3   OH242850   5.192   4.702   0.672 -0.1860 -0.1582  0.4336
 7072TIP3    H142851   5.231   4.616   0.687 -0.2945 -0.1474  0.7954
 7072TIP3    H242852   5.127   4.711   0.743 -0.7204 -0.1072 -0.0559
 7073TIP3   OH242853   5.581   4.968   8.951  0.2486  0.0756  0.1112
 7073TIP3    H142854   5.598   5.062   8.961 -2.2515  1.0738 -3.1251
 7073TIP3    H242855   5.508   4.951   9.011 -0.2680  0.6265 -0.3389
 7074TIP3   OH242856   4.631   1.545   8.746  0.3785  0.4374 -0.1245
 7074TIP3    H142857   4.631   1.556   8.650  0.0353  0.5633 -0.1119
 7074TIP3    H242858   4.721   1.522   8.767  0.1661 -1.0404 -0.6475
 7075TIP3   OH242859   0.885   5.989   8.087  0.4024 -0.4642 -0.0474
 7075TIP3    H142860   0.904   6.050   8.016 -0.9084  1.0323  0.8357
 7075TIP3    H242861   0.800   5.951   8.064 -0.7749  1.1580  1.3882
 7076TIP3   OH242862   0.536   2.820   7.937  0.7769  0.5782  0.2305
 7076TIP3    H142863   0.443   2.799   7.948  1.2224 -1.1189  1.1424
 7076TIP3    H242864   0.537   2.897   7.881 -1.1382 -0.6578 -1.6589
 7077TIP3   OH242865   4.431   3.000   9.021  0.0329  0.4689 -0.1138
 7077TIP3    H142866   4.505   2.943   8.998 -0.3728  0.0672 -0.4590
 7077TIP3    H242867   4.467   3.088   9.019  1.2597  0.1491  2.5825
 7078TIP3   OH242868   5.737   4.950   1.504 -0.2748  0.3595  0.4609
 7078TIP3    H142869   5.667   4.984   1.449 -0.3597 -1.7507 -0.8517
 7078TIP3    H242870   5.700   4.872   1.545  1.5096 -1.3995 -1.0461
 7079TIP3   OH242871   4.965   1.266   7.413 -0.2063 -0.3765  0.1409
 7079TIP3    H142872   4.893   1.226   7.461 -0.9908 -0.5420 -1.1409
 7079TIP3    H242873   4.932   1.352   7.387  1.6834  1.5543  3.4339
 7080TIP3   OH242874   0.486   1.397   7.326 -0.5297 -0.2312  0.3517
 7080TIP3    H142875   0.419   1.451   7.368  0.1841 -0.0219  1.2433
 7080TIP3    H242876   0.471   1.309   7.360 -1.2138 -0.4691 -0.5210
 7081TIP3   OH242877   1.855   3.952   2.527  0.2468 -0.0458 -0.5213
 7081TIP3    H142878   1.847   3.925   2.436  0.4395 -1.2915 -0.1948
 7081TIP3    H242879   1.774   3.922   2.568  0.3048  0.2135 -0.2133
 7082TIP3   OH242880   3.072   0.028   1.519  0.1522  0.0526  0.3661
 7082TIP3    H142881   3.054  -0.017   1.601 -2.3506  3.0579  1.6974
 7082TIP3    H242882   3.019   0.108   1.523 -0.2560  0.3247 -4.2752
 7083TIP3   OH242883   1.556   2.798   0.299 -0.6179  0.3172 -0.3690
 7083TIP3    H142884   1.514   2.858   0.237 -1.6421 -0.3171 -0.2988
 7083TIP3    H242885   1.637   2.771   0.254  0.3015  2.3386 -0.0768
 7084TIP3   OH242886   5.021   2.303   2.693 -0.0956 -0.5596  0.1363
 7084TIP3    H142887   4.957   2.240   2.660 -0.9167  1.3340 -2.2572
 7084TIP3    H242888   5.093   2.250   2.727 -1.3793 -2.7435 -0.4136
 7085TIP3   OH242889   2.307   1.276   2.744 -0.3242 -0.0087  0.0571
 7085TIP3    H142890   2.268   1.198   2.782  0.9906  0.5662  2.8666
 7085TIP3    H242891   2.373   1.303   2.808 -0.5942  3.2925 -0.8689
 7086TIP3   OH242892   6.200   3.520   0.471  0.4444  0.2647  0.4871
 7086TIP3    H142893   6.184   3.479   0.386 -2.6370 -0.1960  1.1867
 7086TIP3    H242894   6.203   3.448   0.533 -0.5881  0.8026  1.1761
 7087TIP3   OH242895   0.516   2.011   8.176 -0.1040  0.7435  0.5990
 7087TIP3    H142896   0.607   1.991   8.199 -0.3052  1.7604  2.4637
 7087TIP3    H242897   0.492   1.941   8.115  1.3096 -0.7479  1.6262
 7088TIP3   OH242898   4.901   6.001   8.193 -0.8067 -0.2339 -0.8047
 7088TIP3    H142899   4.839   5.940   8.233  0.4900 -0.2286  1.4219
 7088TIP3    H242900   4.924   5.961   8.109 -1.2446 -1.9697 -0.1392
 7089TIP3   OH242901   5.540   1.716   7.080  0.0229  0.5043 -0.0087
 7089TIP3    H142902   5.522   1.752   7.166 -1.9019 -1.1315  0.3483
 7089TIP3    H242903   5.461   1.735   7.029  0.5862  0.2693 -0.9965
 7090TIP3   OH242904   4.107   0.724   8.496  0.5861  0.0923  0.3916
 7090TIP3    H142905   4.014   0.729   8.518  0.1320  1.3949 -1.5759
 7090TIP3    H242906   4.115   0.642   8.447  0.0333  0.8676 -1.0721
 7091TIP3   OH242907   3.888   4.072   1.234 -0.0811  0.2836  0.1253
 7091TIP3    H142908   3.793   4.074   1.224 -0.1081  0.8650  0.4845
 7091TIP3    H242909   3.902   4.011   1.307 -0.1929  0.3784  0.2271
 7092TIP3   OH242910   0.450   3.995   8.544  0.4369  0.0618 -0.0888
 7092TIP3    H142911   0.388   3.937   8.501  1.2263 -1.0962  0.2830
 7092TIP3    H242912   0.400   4.073   8.565 -0.8387 -0.7572  0.0147
 7093TIP3   OH242913   1.192   1.702   1.355  0.1235  0.5045 -0.7833
 7093TIP3    H142914   1.136   1.779   1.362  0.0141  0.3258  0.9778
 7093TIP3    H242915   1.275   1.729   1.395 -0.2279 -0.5095  0.7616
 7094TIP3   OH242916   1.634   2.948   0.516 -0.2172  0.5590 -0.2580
 7094TIP3    H142917   1.634   2.892   0.438 -0.7682 -0.8391  0.7086
 7094TIP3    H242918   1.543   2.971   0.529 -0.0220  1.4949 -0.4996
 7095TIP3   OH242919   3.174   2.888   8.029 -0.0383 -0.1735  0.2880
 7095TIP3    H142920   3.120   2.810   8.014  1.3963 -0.6259 -4.1194
 7095TIP3    H242921   3.264   2.857   8.019  0.5613  2.1259 -4.1652
 7096TIP3   OH242922   0.171   2.677   0.222 -0.1838  0.7783  0.4673
 7096TIP3    H142923   0.187   2.766   0.252  2.4036  0.3018  0.7424
 7096TIP3    H242924   0.167   2.626   0.303 -0.2405  0.4571  0.2632
 7097TIP3   OH242925   1.483   6.249   8.651  0.2378  0.2766  0.3890
 7097TIP3    H142926   1.555   6.216   8.705 -1.3072 -3.6393  0.3206
 7097TIP3    H242927   1.409   6.257   8.711 -0.6375 -0.9237 -0.4882
 7098TIP3   OH242928   6.249   2.208   8.383 -0.0463  0.4729  0.2479
 7098TIP3    H142929   6.260   2.223   8.477  1.3146 -2.2573  0.6112
 7098TIP3    H242930   6.339   2.211   8.348 -0.2847 -0.8738 -0.5352
 7099TIP3   OH242931   0.674   4.487   8.950  0.4637  0.9661  0.1448
 7099TIP3    H142932   0.735   4.560   8.959  2.6125 -0.8034  0.7223
 7099TIP3    H242933   0.681   4.440   9.033 -1.4236  0.4597  0.0710
 7100TIP3   OH242934   5.527   2.207   7.712  0.4925 -0.3559 -0.0953
 7100TIP3    H142935   5.510   2.301   7.703 -1.6249 -0.6324  0.4140
 7100TIP3    H242936   5.612   2.203   7.756  0.4542  1.3331  0.2384
 7101TIP3   OH242937   5.812   5.609   0.122  0.0755  0.5016 -0.0674
 7101TIP3    H142938   5.767   5.525   0.123  0.3881  0.3260  1.3116
 7101TIP3    H242939   5.750   5.670   0.162  0.2920  0.6705  0.0124
 7102TIP3   OH242940   2.009   4.686   1.150 -0.5291  0.1698 -0.2548
 7102TIP3    H142941   2.002   4.697   1.055  0.4551  0.4679 -0.2999
 7102TIP3    H242942   2.010   4.591   1.163  1.5366  0.0926 -0.7407
 7103TIP3   OH242943   2.494   4.971   1.435 -0.1891  0.0656 -0.0516
 7103TIP3    H142944   2.469   5.022   1.358  0.3631  0.1872 -0.1548
 7103TIP3    H242945   2.544   5.032   1.488 -0.5330 -0.0304  0.3919
 7104TIP3   OH242946   0.295   1.946   7.276  0.5827 -0.9087 -0.2399
 7104TIP3    H142947   0.351   2.024   7.280 -1.5208  0.6480  1.6847
 7104TIP3    H242948   0.298   1.919   7.184  3.4147 -0.1721 -0.4459
 7105TIP3   OH242949   2.710   2.375   8.293  0.2698 -0.6002 -0.2711
 7105TIP3    H142950   2.781   2.314   8.310  0.8919  0.2741  0.4118
 7105TIP3    H242951   2.753   2.460   8.280 -0.5692 -0.2610 -1.0706
 7106TIP3   OH242952   0.641   5.124   7.766  0.1821 -0.1934 -0.4524
 7106TIP3    H142953   0.646   5.059   7.836 -0.7292 -0.4360 -0.6034
 7106TIP3    H242954   0.724   5.171   7.771  0.2177 -0.3492  0.6499
 7107TIP3   OH242955   5.268   3.369   1.035 -0.4122 -0.0539 -0.2921
 7107TIP3    H142956   5.223   3.356   1.118 -0.8509  1.8107 -0.1786
 7107TIP3    H242957   5.352   3.409   1.059 -1.2965  2.2757 -0.7462
 7108TIP3   OH242958   5.408   1.270   0.825 -0.1019 -0.4070 -0.2389
 7108TIP3    H142959   5.381   1.211   0.895 -0.0797  1.7379  1.7245
 7108TIP3    H242960   5.367   1.354   0.848  2.8886  1.3342 -0.7049
 7109TIP3   OH242961   3.738   3.815   0.829  0.7563  0.7636  0.3074
 7109TIP3    H142962   3.808   3.880   0.837 -0.2075  1.8719 -0.0224
 7109TIP3    H242963   3.733   3.797   0.735  2.4238 -1.4290  0.5507
 7110TIP3   OH242964   6.500   5.215   2.115  0.2875  0.6978 -0.6362
 7110TIP3    H142965   6.457   5.276   2.175 -1.3239  0.4412 -1.4806
 7110TIP3    H242966   6.549   5.156   2.172 -1.0721  0.5534  0.4430
 7111TIP3   OH242967   5.226   5.230   7.674 -0.2192  0.3754  0.3536
 7111TIP3    H142968   5.270   5.266   7.598 -2.3805  0.0550 -1.1481
 7111TIP3    H242969   5.198   5.143   7.646 -3.1963  1.1660  0.5591
 7112TIP3   OH242970   3.314   6.609   1.152  0.1962  0.3439 -0.3179
 7112TIP3    H142971   3.345   6.695   1.179  2.4809 -0.7291  0.6620
 7112TIP3    H242972   3.261   6.578   1.226  1.8255 -0.2681  0.6438
 7113TIP3   OH242973   6.232   0.226   1.173 -0.4661 -0.0240  0.0594
 7113TIP3    H142974   6.300   0.159   1.184 -0.8319 -0.6877 -1.4363
 7113TIP3    H242975   6.157   0.192   1.221 -0.3589 -0.2373  0.0770
 7114TIP3   OH242976   6.324   5.212   8.639 -0.6299 -0.2503  0.0982
 7114TIP3    H142977   6.244   5.166   8.612 -0.7354 -0.1015  0.1518
 7114TIP3    H242978   6.375   5.222   8.559 -1.5036  1.3082 -0.3053
 7115TIP3   OH242979   1.788   4.124   1.358 -0.7205  0.4581  0.2171
 7115TIP3    H142980   1.876   4.113   1.322 -1.3194 -0.1362 -1.1371
 7115TIP3    H242981   1.747   4.038   1.346 -1.6791  0.8978  0.2628
 7116TIP3   OH242982   3.978   2.697   2.356 -0.1767 -0.1773  0.3444
 7116TIP3    H142983   4.053   2.678   2.299  0.1801  2.6937 -0.3101
 7116TIP3    H242984   4.000   2.656   2.440  0.1787 -2.8582 -0.9370
 7117TIP3   OH242985   1.499   0.279   6.445 -0.1425  0.3466  0.4530
 7117TIP3    H142986   1.556   0.289   6.369  0.0588 -0.4519  0.4892
 7117TIP3    H242987   1.555   0.239   6.512 -0.2782  1.1617  1.0742
 7118TIP3   OH242988   4.372   2.836   7.624  0.2397 -0.1313 -0.2645
 7118TIP3    H142989   4.399   2.831   7.532 -1.6428 -0.4322 -0.8389
 7118TIP3    H242990   4.354   2.929   7.637  1.8944  0.1544  0.2682
 7119TIP3   OH242991   2.252   0.890   0.849  0.2864  0.4608 -0.5196
 7119TIP3    H142992   2.259   0.797   0.825 -0.9506 -0.2378  1.6143
 7119TIP3    H242993   2.256   0.891   0.944 -1.8458  2.3923 -0.3589
 7120TIP3   OH242994   5.635   3.064   0.403 -0.3178 -0.0362 -0.0363
 7120TIP3    H142995   5.680   3.148   0.411 -0.5958  0.0983  0.1238
 7120TIP3    H242996   5.695   3.001   0.444  0.6217 -0.1816 -1.5832
 7121TIP3   OH242997   5.617   2.165   0.570 -0.4154  0.3079 -0.0383
 7121TIP3    H142998   5.614   2.167   0.474 -2.3531  0.4953 -0.0258
 7121TIP3    H242999   5.706   2.192   0.592  0.5018 -1.0284 -1.7979
 7122TIP3   OH243000   5.373   3.172   7.812 -0.4471 -0.3862 -0.5454
 7122TIP3    H143001   5.279   3.194   7.811 -0.6656 -1.1693  0.5932
 7122TIP3    H243002   5.414   3.239   7.758 -1.1769  2.4390  2.0925
 7123TIP3   OH243003   1.011   0.136   9.014 -0.3690 -0.4253 -0.2145
 7123TIP3    H143004   0.994   0.177   9.099  0.0123 -0.9418  0.1161
 7123TIP3    H243005   0.926   0.137   8.970 -0.7545 -0.8620  0.4892
 7124TIP3   OH243006   1.241   6.505   8.972  0.1686  0.2260 -0.4952
 7124TIP3    H143007   1.230   6.535   8.882  0.4382  1.6779 -0.0748
 7124TIP3    H243008   1.260   6.585   9.022  1.8018 -0.7623  0.5635
 7125TIP3   OH243009   1.926   5.551   8.616 -0.1041 -0.3746 -0.3071
 7125TIP3    H143010   1.835   5.549   8.585 -0.6433 -2.4774  1.2110
 7125TIP3    H243011   1.946   5.460   8.637  0.1675  0.6581  5.3001
 7126TIP3   OH243012   3.369   5.956   9.001  0.2661  0.2019 -0.0696
 7126TIP3    H143013   3.376   5.904   9.082  1.8380  0.3969 -0.0577
 7126TIP3    H243014   3.441   6.018   9.006 -1.2328  2.0417 -0.3774
 7127TIP3   OH243015   5.833   4.753   7.804 -0.7794  0.4251 -0.6466
 7127TIP3    H143016   5.847   4.815   7.875 -0.1390  0.3736 -0.7186
 7127TIP3    H243017   5.788   4.679   7.845 -1.4868  0.8996 -0.5486
 7128TIP3   OH243018   3.067   3.196   2.633  0.3520  0.1120  0.5155
 7128TIP3    H143019   3.104   3.147   2.706  2.2369  0.7169  0.0248
 7128TIP3    H243020   3.033   3.129   2.574  2.4161 -0.6666  0.1001
 7129TIP3   OH243021   5.373   5.816   6.952  0.3803 -0.2460 -0.1298
 7129TIP3    H143022   5.462   5.839   6.978  0.4291 -1.6800  1.1288
 7129TIP3    H243023   5.326   5.899   6.950  1.4775  0.4016  0.2886
 7130TIP3   OH243024   2.993   3.317   8.675 -0.0346 -0.1510 -0.0573
 7130TIP3    H143025   3.075   3.301   8.627  0.6464 -0.7618  1.2636
 7130TIP3    H243026   2.983   3.412   8.672  0.2795 -0.1275 -0.9160
 7131TIP3   OH243027   6.735   5.206   0.523 -0.4730  0.6470  0.2632
 7131TIP3    H143028   6.657   5.261   0.516 -0.9738 -0.0400  0.3681
 7131TIP3    H243029   6.771   5.204   0.435  0.2707  2.1534  0.4895
 7132TIP3   OH243030   3.785   6.590   8.674  0.0672 -0.2722  0.4085
 7132TIP3    H143031   3.810   6.525   8.740  2.8971  0.9208  0.6529
 7132TIP3    H243032   3.864   6.604   8.622 -1.8797 -0.7073 -2.9606
 7133TIP3   OH243033   5.921   0.024   1.144  0.6489 -0.3911  0.4376
 7133TIP3    H143034   5.864  -0.048   1.118  0.0606  0.3276 -0.2908
 7133TIP3    H243035   5.954   0.061   1.062 -0.6898  1.4652  0.6806
 7134TIP3   OH243036   2.819   0.479   7.684  0.5139  0.1146  0.1295
 7134TIP3    H143037   2.760   0.548   7.714 -0.2997 -0.3565 -0.3368
 7134TIP3    H243038   2.893   0.525   7.645  0.0128  0.7213 -0.1169
 7135TIP3   OH243039   3.841   2.883   7.544  0.3359 -0.1723  0.2359
 7135TIP3    H143040   3.843   2.964   7.594 -0.5491  0.0373 -0.0651
 7135TIP3    H243041   3.817   2.909   7.455  2.2025 -0.5049 -0.4247
 7136TIP3   OH243042   0.749   1.988   8.765  0.0827  0.3354  0.2758
 7136TIP3    H143043   0.780   1.902   8.734  1.0034  0.7610 -0.0195
 7136TIP3    H243044   0.655   1.988   8.746  0.4053  0.1442 -1.5326
 7137TIP3   OH243045   2.918   4.000   7.809 -0.3497 -0.2442 -0.3112
 7137TIP3    H143046   2.935   4.016   7.902 -0.7814  0.1684 -0.2959
 7137TIP3    H243047   2.986   3.940   7.782  0.5974  0.6824 -0.0528
 7138TIP3   OH243048   1.708   0.776   1.033 -0.3503 -0.6196 -0.4597
 7138TIP3    H143049   1.672   0.688   1.044 -0.6909 -0.2312  2.3555
 7138TIP3    H243050   1.656   0.831   1.090  0.1897  1.3624 -1.7683
 7139TIP3   OH243051   0.636   3.301   7.141  0.0583  0.0070  0.4547
 7139TIP3    H143052   0.622   3.213   7.178  3.7664  0.4335  3.4932
 7139TIP3    H243053   0.725   3.299   7.108 -0.3481  2.2261 -0.9074
 7140TIP3   OH243054   2.845   4.733   0.261  0.4424 -0.5432 -0.0237
 7140TIP3    H143055   2.908   4.672   0.299  0.1224 -0.6995  0.2615
 7140TIP3    H243056   2.765   4.681   0.250  0.9456 -0.9240 -2.2927
 7141TIP3   OH243057   0.328   1.469   6.947 -0.4739 -0.2079 -0.1328
 7141TIP3    H143058   0.309   1.380   6.977  2.7070 -0.0620  3.0410
 7141TIP3    H243059   0.305   1.525   7.022  0.5428  1.2280 -0.8343
 7142TIP3   OH243060   3.860   5.399   0.884 -0.2733  0.1872 -0.2638
 7142TIP3    H143061   3.888   5.341   0.814  2.9340  0.9629  0.2175
 7142TIP3    H243062   3.901   5.483   0.864  0.3389  0.5803  2.2470
 7143TIP3   OH243063   3.686   0.858   8.716  0.0925 -0.2878  0.5614
 7143TIP3    H143064   3.742   0.800   8.664  1.3512  1.4421 -0.0985
 7143TIP3    H243065   3.650   0.920   8.653 -0.2893  0.3793  1.4161
 7144TIP3   OH243066   5.138   5.452   1.277  0.4329  0.3581 -0.3321
 7144TIP3    H143067   5.148   5.366   1.316 -1.5881  0.5339  0.6827
 7144TIP3    H243068   5.184   5.511   1.337 -1.6236  0.4627  1.2647
 7145TIP3   OH243069   4.912   1.890   1.061 -0.5067 -0.0991  0.1529
 7145TIP3    H143070   4.869   1.856   0.983 -0.2088 -0.7876  0.2804
 7145TIP3    H243071   5.001   1.856   1.056 -0.1006  0.9268  0.1268
 7146TIP3   OH243072   0.964   2.890   7.730  0.0237 -0.6061  0.1383
 7146TIP3    H143073   0.960   2.809   7.679 -1.7176  0.6768 -1.9336
 7146TIP3    H243074   1.052   2.924   7.712 -0.8967  0.4104 -3.2166
 7147TIP3   OH243075   6.765   6.482   1.320  0.2708 -0.0287 -0.1003
 7147TIP3    H143076   6.728   6.418   1.259 -0.2922 -0.6318  0.8357
 7147TIP3    H243077   6.695   6.547   1.332  1.0372  1.1022 -1.4696
 7148TIP3   OH243078   2.064   5.940   1.095 -0.4959 -0.0126 -0.4152
 7148TIP3    H143079   2.064   6.017   1.151  1.1749  1.6685 -2.5251
 7148TIP3    H243080   2.138   5.888   1.126 -0.6559  0.0278  0.0348
 7149TIP3   OH243081   5.557   4.465   0.033 -0.0382  0.1783 -0.1538
 7149TIP3    H143082   5.519   4.428  -0.046 -0.2753 -1.2852  0.6207
 7149TIP3    H243083   5.652   4.459   0.019 -0.0798  0.0928 -0.3999
 7150TIP3   OH243084   3.336   5.026   0.002 -0.6070  0.0217 -0.7053
 7150TIP3    H143085   3.316   5.116   0.026 -2.1416  0.3933 -3.0732
 7150TIP3    H243086   3.431   5.019   0.013 -0.5736  1.6442  0.3274
 7151TIP3   OH243087   5.868   1.649   7.394  0.2625  0.2116  0.1972
 7151TIP3    H143088   5.839   1.718   7.334 -2.5880 -1.1440 -0.1339
 7151TIP3    H243089   5.813   1.661   7.472 -0.0881 -1.4841  0.2348
 7152TIP3   OH243090   2.369   3.876   7.290 -0.3915 -0.5132 -0.1892
 7152TIP3    H143091   2.462   3.852   7.286  0.0027  0.3273  2.2072
 7152TIP3    H243092   2.347   3.899   7.200  1.7111 -0.7594 -0.8385
 7153TIP3   OH243093   2.767   4.445   1.869 -0.0626  0.2044 -0.2186
 7153TIP3    H143094   2.711   4.389   1.816  2.5870 -0.6250 -2.4022
 7153TIP3    H243095   2.791   4.517   1.810  2.3066 -0.2711  0.0805
 7154TIP3   OH243096   2.144   1.772   0.554 -0.0237 -0.7089 -0.4719
 7154TIP3    H143097   2.101   1.689   0.572 -2.1099  0.2386 -0.8128
 7154TIP3    H243098   2.094   1.810   0.482 -1.6829  2.5408  2.1017
 7155TIP3   OH243099   1.070   5.977   8.641 -0.2959 -0.5225 -1.2868
 7155TIP3    H143100   1.027   5.927   8.711  0.2495  0.3125 -0.3349
 7155TIP3    H243101   1.004   5.982   8.572 -1.7318  0.6247  0.0872
 7156TIP3   OH243102   5.483   3.234   8.138 -0.0370  0.2921 -0.1895
 7156TIP3    H143103   5.554   3.251   8.076 -0.5580  3.3574 -0.1149
 7156TIP3    H243104   5.408   3.212   8.083  0.2054  0.1524 -0.4643
 7157TIP3   OH243105   1.398   5.699   1.866  0.2825 -0.3695  0.1993
 7157TIP3    H143106   1.348   5.780   1.861  0.3219 -0.2989  0.8533
 7157TIP3    H243107   1.338   5.635   1.903  0.0048 -0.8608 -1.0277
 7158TIP3   OH243108   0.955   0.840   7.506  0.1451  0.0394 -0.2508
 7158TIP3    H143109   1.049   0.851   7.490  0.2450 -1.3022 -0.6975
 7158TIP3    H243110   0.923   0.792   7.430 -0.6372 -0.7065  0.5252
 7159TIP3   OH243111   1.142   5.734   0.102 -0.7909 -0.6584  0.4698
 7159TIP3    H143112   1.138   5.679   0.180 -2.1024 -0.5682  0.4833
 7159TIP3    H243113   1.106   5.818   0.130  0.0780 -0.1572  0.1322
 7160TIP3   OH243114   6.463   2.581   8.629 -0.4016  0.0617 -0.1770
 7160TIP3    H143115   6.425   2.665   8.655  0.2656  0.7309 -1.3405
 7160TIP3    H243116   6.395   2.517   8.653 -0.7519  0.8593  1.0981
 7161TIP3   OH243117   3.464   1.228   2.362 -0.3039 -0.6692 -0.4222
 7161TIP3    H143118   3.450   1.140   2.398 -0.3377 -0.6928 -0.4929
 7161TIP3    H243119   3.516   1.273   2.429 -0.3220 -0.7295 -0.3668
 7162TIP3   OH243120   2.893   4.138   0.333  0.3724  0.3639  0.2695
 7162TIP3    H143121   2.951   4.077   0.288 -0.2448  0.7087 -1.0447
 7162TIP3    H243122   2.948   4.179   0.400  1.7061  0.8014 -1.0425
 7163TIP3   OH243123   4.043   6.108   0.281  0.5911  0.5520  0.1137
 7163TIP3    H143124   4.043   6.046   0.209 -1.4931 -0.3397  0.7999
 7163TIP3    H243125   3.991   6.182   0.249 -1.7576 -0.5436  1.1492
 7164TIP3   OH243126   1.315   3.738   0.855  0.0746 -0.3089 -0.5785
 7164TIP3    H143127   1.390   3.756   0.798  1.3623 -0.4966  1.0040
 7164TIP3    H243128   1.334   3.785   0.936 -1.0214 -1.1939  0.2270
 7165TIP3   OH243129   5.390   2.200   1.997  0.1151 -0.4715 -0.3487
 7165TIP3    H143130   5.369   2.109   1.976 -2.4866 -0.2799  0.9918
 7165TIP3    H243131   5.408   2.240   1.912 -1.7115 -1.5972 -1.3471
 7166TIP3   OH243132   6.576   5.928   1.298 -0.4454  0.3401  0.0076
 7166TIP3    H143133   6.481   5.942   1.292 -0.2523  1.5120 -1.0288
 7166TIP3    H243134   6.588   5.835   1.280 -1.3297  0.4162 -1.1097
 7167TIP3   OH243135   4.734   5.977   1.352  0.0115 -0.4543 -0.2728
 7167TIP3    H143136   4.674   5.997   1.280 -1.2078 -2.0528  0.2295
 7167TIP3    H243137   4.698   6.024   1.427  1.5289  1.5738 -0.7128
 7168TIP3   OH243138   2.262   4.068   7.432 -0.3563 -0.4294 -0.5851
 7168TIP3    H143139   2.301   3.999   7.378  0.8163  0.1315 -0.4938
 7168TIP3    H243140   2.318   4.145   7.416 -1.0934  0.2485  0.0079
 7169TIP3   OH243141   1.971   4.931   6.948 -0.2292  0.4203 -0.0834
 7169TIP3    H143142   1.947   5.006   7.002  0.9514 -0.7295  2.1719
 7169TIP3    H243143   1.895   4.917   6.891 -1.1776  2.2120  0.6638
 7170TIP3   OH243144   4.305   1.513   1.908  0.1430  0.6287 -1.1757
 7170TIP3    H143145   4.226   1.549   1.867  0.4613  3.1996  0.2654
 7170TIP3    H243146   4.373   1.577   1.888  1.2383 -0.1614 -0.0857
 7171TIP3   OH243147   6.035   0.199   0.890 -0.3409  0.0795  0.1328
 7171TIP3    H143148   5.962   0.183   0.831 -0.6041 -0.8067  0.6813
 7171TIP3    H243149   6.042   0.294   0.895  0.1137  0.1991 -1.8314
 7172TIP3   OH243150   6.509   4.135   1.829  0.1072 -0.2587 -0.3590
 7172TIP3    H143151   6.448   4.195   1.785  2.3269  2.3008 -0.1330
 7172TIP3    H243152   6.565   4.103   1.758 -0.1227 -0.9715 -0.2346
 7173TIP3   OH243153   5.341   3.091   1.074  0.2021  0.2040 -0.3491
 7173TIP3    H143154   5.275   3.043   1.024 -1.2030 -0.5399  2.0617
 7173TIP3    H243155   5.331   3.182   1.046  0.6586 -0.3553 -2.5857
 7174TIP3   OH243156   5.422   2.821   7.118 -0.0481  0.0761 -0.0678
 7174TIP3    H143157   5.394   2.734   7.091  1.7949 -0.2041 -1.3440
 7174TIP3    H243158   5.458   2.860   7.038 -0.1042  1.7044  0.6588
 7175TIP3   OH243159   4.819   1.217   1.991  0.2982 -0.0759  0.9100
 7175TIP3    H143160   4.762   1.241   2.064  0.3457  1.9590  0.3554
 7175TIP3    H243161   4.907   1.223   2.027  0.2627 -1.1435  1.2094
 7176TIP3   OH243162   4.453   1.189   8.155  0.3190 -0.4713 -0.0626
 7176TIP3    H143163   4.532   1.239   8.133  0.4709 -0.8573 -0.3984
 7176TIP3    H243164   4.432   1.141   8.075 -1.8101  1.6437 -0.9090
 7177LIG     O143165   3.329   1.155   7.104  0.4192 -0.5548 -0.0305
 7177LIG     O243166   3.096   0.967   7.449  0.4221  0.0655 -0.0937
 7177LIG     N143167   3.024   1.178   7.383 -0.6420 -0.5056  0.0259
 7177LIG     N243168   3.144   1.400   7.126  0.4545  0.7301 -0.0618
 7177LIG     N343169   3.208   1.058   7.274 -0.0321 -0.3069 -0.1634
 7177LIG     N443170   2.986   1.406   7.288  0.1632  0.8081  0.2935
 7177LIG     C143171   3.153   1.277   7.197 -0.2545  0.5940  0.2683
 7177LIG     C243172   3.055   1.282   7.291 -0.7710  0.6606  0.1084
 7177LIG     C343173   3.236   1.160   7.185 -0.2019 -0.5638 -0.1737
 7177LIG     C443174   3.112   1.062   7.376  0.0308 -0.0815 -0.2361
 7177LIG     C543175   3.038   1.468   7.183  0.4426  0.1181 -0.2887
 7177LIG     C643176   2.912   1.180   7.480 -0.1956  0.6641 -0.2910
 7177LIG     C743177   3.229   1.443   7.016 -0.7660 -0.0397 -0.3036
 7177LIG     C843178   3.291   0.936   7.269 -0.2484 -0.1533 -0.1556
 7177LIG     H143179   3.012   1.566   7.141  1.3336  0.1725 -0.7427
 7177LIG     H243180   2.832   1.254   7.458 -1.2429  0.4530  2.5518
 7177LIG     H343181   2.947   1.187   7.585 -3.5386 -1.6013  1.1375
 7177LIG     H443182   2.866   1.080   7.492  0.2069  0.7587  2.6044
 7177LIG     H543183   3.326   1.481   7.055 -0.5222 -0.1214 -0.8244
 7177LIG     H643184   3.192   1.526   6.951 -0.2307  0.0642 -0.4806
 7177LIG     H743185   3.248   1.354   6.953  1.1426  0.4179 -0.4263
 7177LIG     H843186   3.228   0.846   7.248 -0.9646 -0.3472  2.4249
 7177LIG     H943187   3.343   0.930   7.367 -0.5474  2.1300  0.1951
 7177LIG    H1043188   3.373   0.944   7.195 -0.3830  0.4449 -0.2397
   6.77169   6.77169   9.04317
