Title
43170
    1CHL1    C3    1   1.271   1.261   5.863  0.5036 -0.1307 -0.5912
    1CHL1    H3    2   1.363   1.225   5.812  2.2097 -1.0150  2.7807
    1CHL1    O3    3   1.321   1.285   5.998  0.1546 -0.1971  0.2973
    1CHL1   H3'    4   1.244   1.294   6.056  0.6615  0.9783  0.8140
    1CHL1    C4    5   1.221   1.390   5.795  0.2153  0.7050 -0.2001
    1CHL1   H4A    6   1.133   1.423   5.853 -0.7845 -1.1199 -0.5928
    1CHL1   H4B    7   1.302   1.465   5.802  0.3399  0.3913  3.6125
    1CHL1    C5    8   1.183   1.345   5.654 -0.5675 -0.9011  0.2490
    1CHL1    C6    9   1.245   1.402   5.545 -0.1643 -0.2909  0.4548
    1CHL1    H6   10   1.304   1.492   5.565 -1.6882  1.0543 -0.7900
    1CHL1    C7   11   1.206   1.371   5.403  0.8789  0.0202  0.6188
    1CHL1   H7A   12   1.177   1.465   5.352 -0.4102 -0.5378  0.2816
    1CHL1   H7B   13   1.294   1.336   5.346 -0.0205 -2.7820  0.7798
    1CHL1    C8   14   1.078   1.281   5.387 -0.6657 -0.4192 -0.2457
    1CHL1    H8   15   0.989   1.346   5.401  0.5144  1.0767  0.6660
    1CHL1   C14   16   1.071   1.224   5.251  0.4150  0.6783 -0.5377
    1CHL1   H14   17   1.161   1.162   5.233 -1.1857 -1.8135 -0.4517
    1CHL1   C15   18   1.072   1.323   5.135 -0.4618 -0.1610 -0.2218
    1CHL1  H15A   19   1.009   1.411   5.158 -0.2287 -0.1132  0.2502
    1CHL1  H15B   20   1.166   1.366   5.094 -0.6843 -2.4667 -3.5601
    1CHL1   C16   21   1.015   1.243   5.016  0.9363  0.0313  0.7139
    1CHL1  H16A   22   0.932   1.299   4.967 -0.1601 -0.3562  2.0485
    1CHL1  H16B   23   1.092   1.213   4.942 -0.1493 -0.1239 -0.3992
    1CHL1   C17   24   0.966   1.108   5.078  0.3040 -0.5263  1.0093
    1CHL1   H17   25   1.049   1.034   5.068  1.4206  0.9579 -2.1525
    1CHL1   C13   26   0.938   1.138   5.230 -1.0302  0.2280 -0.3131
    1CHL1   C18   27   0.806   1.214   5.248  0.3703 -0.4243  0.0171
    1CHL1  H18A   28   0.719   1.147   5.268  1.2020 -0.9053  2.2282
    1CHL1  H18B   29   0.803   1.274   5.341  0.8842 -0.8502  0.3075
    1CHL1  H18C   30   0.780   1.279   5.161 -0.7863 -0.6473  0.1704
    1CHL1   C12   31   0.956   1.018   5.329  0.5727 -0.1936  0.7304
    1CHL1  H12A   32   0.866   0.953   5.317 -0.6160  1.5319 -0.1765
    1CHL1  H12B   33   1.046   0.969   5.287  1.5780 -0.6712  3.2469
    1CHL1   C11   34   0.962   1.068   5.468 -0.1762 -0.0169 -0.0317
    1CHL1  H11A   35   0.860   1.103   5.496 -0.7420 -0.1921 -1.7104
    1CHL1  H11B   36   0.973   0.986   5.542 -0.2593 -0.0227 -0.0257
    1CHL1    C9   37   1.074   1.172   5.492 -0.1860 -0.2052  0.0584
    1CHL1    H9   38   1.172   1.121   5.478  1.1110  2.2290 -0.3637
    1CHL1   C10   39   1.087   1.229   5.637  0.5957 -0.5192  0.7671
    1CHL1   C19   40   0.953   1.294   5.680 -0.4623 -0.9014 -0.0372
    1CHL1  H19A   41   0.925   1.376   5.611  1.7132  0.2592  0.3761
    1CHL1  H19B   42   0.867   1.224   5.679 -0.1088 -1.3389  0.0212
    1CHL1  H19C   43   0.964   1.331   5.784 -0.4252  0.3002 -0.4521
    1CHL1    C1   44   1.123   1.107   5.720  0.1136  0.8723 -0.2461
    1CHL1   H1A   45   1.041   1.034   5.739  1.2832 -0.0634  1.5225
    1CHL1   H1B   46   1.201   1.047   5.670  0.5806  1.9241 -0.8040
    1CHL1    C2   47   1.170   1.146   5.864 -0.0117  0.0938  0.0249
    1CHL1   H2A   48   1.214   1.060   5.918 -2.8785 -2.7413 -1.7638
    1CHL1   H2B   49   1.083   1.175   5.927  1.4342  0.0169  2.1348
    1CHL1   C20   50   0.846   1.056   4.986  0.1284  1.2808 -0.0940
    1CHL1   H20   51   0.766   1.132   4.975 -0.4569  0.6605 -0.1743
    1CHL1   C21   52   0.792   0.926   5.049  0.2949 -0.8328  0.3093
    1CHL1  H21A   53   0.875   0.854   5.067  1.6572  0.3402 -0.9768
    1CHL1  H21B   54   0.726   0.880   4.973  1.0413 -2.1667  0.4338
    1CHL1  H21C   55   0.725   0.941   5.136  0.0520 -2.2374  0.3821
    1CHL1   C22   56   0.892   1.030   4.841 -0.0834  0.3853 -0.3245
    1CHL1  H22A   57   0.944   1.114   4.791 -1.0596  0.0649 -1.9539
    1CHL1  H22B   58   0.968   0.951   4.858  1.6764  1.9528 -0.6166
    1CHL1   C23   59   0.784   0.983   4.737 -0.7594 -0.4760  0.1471
    1CHL1  H23A   60   0.751   0.882   4.767  0.5118 -1.0854 -0.4507
    1CHL1  H23B   61   0.694   1.049   4.745 -1.1982 -1.0314 -0.1319
    1CHL1   C24   62   0.851   0.986   4.596  0.3277  0.0374 -0.3518
    1CHL1  H24A   63   0.913   1.078   4.587  0.4852  0.1504  1.6258
    1CHL1  H24B   64   0.922   0.901   4.593 -0.2041 -0.5333  1.6377
    1CHL1   C25   65   0.753   0.993   4.476 -0.2202  0.9343  0.6003
    1CHL1   H25   66   0.684   1.079   4.477  0.2262  1.6167 -4.1199
    1CHL1   C26   67   0.838   1.020   4.351  0.4611 -0.9938  0.3627
    1CHL1  H26A   68   0.897   1.113   4.371  0.8880 -1.3729  0.9260
    1CHL1  H26B   69   0.902   0.932   4.328 -0.8060 -2.2961  1.6240
    1CHL1  H26C   70   0.781   1.031   4.257  0.8899  2.9680  0.3640
    1CHL1   C27   71   0.665   0.866   4.467 -1.0319 -0.4532 -0.1662
    1CHL1  H27A   72   0.607   0.841   4.558  0.1351  0.4195  0.8374
    1CHL1  H27B   73   0.601   0.858   4.376 -0.2430 -1.5476 -0.6533
    1CHL1  H27C   74   0.724   0.771   4.461 -0.2873 -0.0485  0.5834
    2CHL1    C3   75   3.061   2.212   5.717  0.5343  0.4620 -0.2080
    2CHL1    H3   76   2.952   2.213   5.698  0.3032 -0.2061  0.9692
    2CHL1    O3   77   3.074   2.241   5.853 -0.3077 -0.6657  0.3019
    2CHL1   H3'   78   3.009   2.185   5.897  0.0706  1.2751  3.6776
    2CHL1    C4   79   3.097   2.071   5.675  0.7499 -0.2563  0.4625
    2CHL1   H4A   80   3.201   2.037   5.694  0.8533 -1.0077 -1.2304
    2CHL1   H4B   81   3.025   2.007   5.730 -1.3974  0.6906 -1.0998
    2CHL1    C5   82   3.080   2.044   5.525 -0.5779 -1.0611  0.0123
    2CHL1    C6   83   3.009   1.940   5.477  0.4493  0.1401 -0.0814
    2CHL1    H6   84   2.963   1.867   5.545  3.1415  1.0474  3.0211
    2CHL1    C7   85   3.004   1.915   5.333 -1.0293  0.0398  0.1949
    2CHL1   H7A   86   3.032   1.808   5.324 -1.5609 -0.0976  0.1063
    2CHL1   H7B   87   2.906   1.935   5.284 -1.9848 -1.3934  1.4637
    2CHL1    C8   88   3.110   1.994   5.248  0.4069  0.1240  0.3667
    2CHL1    H8   89   3.212   1.957   5.272  0.9039  0.4047 -1.1873
    2CHL1   C14   90   3.094   1.963   5.095 -0.1086 -0.3640 -0.1518
    2CHL1   H14   91   2.991   1.998   5.072  0.5765  0.0211 -3.0048
    2CHL1   C15   92   3.100   1.818   5.046  0.4556  0.1614  0.2868
    2CHL1  H15A   93   3.194   1.774   5.085  0.1285  0.4934  1.4638
    2CHL1  H15B   94   3.007   1.767   5.079 -0.8844  2.4584  0.2840
    2CHL1   C16   95   3.124   1.828   4.890 -0.2695 -0.2888 -1.1610
    2CHL1  H16A   96   3.228   1.788   4.886  0.2068  0.7499  0.0980
    2CHL1  H16B   97   3.050   1.784   4.820  0.9138 -2.3768 -1.2025
    2CHL1   C17   98   3.149   1.983   4.870  0.2092 -0.5384  0.3862
    2CHL1   H17   99   3.048   2.022   4.845  0.6741  1.9089  1.9706
    2CHL1   C13  100   3.183   2.047   5.008 -0.3033 -0.1428  0.2816
    2CHL1   C18  101   3.333   2.023   5.030  0.1961 -0.1242 -0.2505
    2CHL1  H18A  102   3.387   2.094   4.964 -2.0528  1.0068 -0.9827
    2CHL1  H18B  103   3.377   2.041   5.131 -0.0151  2.0792 -0.4958
    2CHL1  H18C  104   3.363   1.925   4.988  0.1721 -0.8539  1.3609
    2CHL1   C12  105   3.145   2.188   5.041  0.3072 -0.4813  0.7295
    2CHL1  H12A  106   3.187   2.268   4.976  0.5232 -1.1921 -0.0112
    2CHL1  H12B  107   3.038   2.215   5.030  1.3072  4.0417 -0.0705
    2CHL1   C11  108   3.183   2.222   5.186 -0.4019 -0.6457 -0.0335
    2CHL1  H11A  109   3.294   2.221   5.189 -0.4132 -0.7022  0.4573
    2CHL1  H11B  110   3.160   2.328   5.213 -1.0375 -0.7620 -0.0921
    2CHL1    C9  111   3.103   2.139   5.289  0.1038  0.3710 -0.0153
    2CHL1    H9  112   2.997   2.170   5.280  0.0393 -0.2302 -1.4948
    2CHL1   C10  113   3.152   2.157   5.438 -0.7948  0.3495  0.1143
    2CHL1   C19  114   3.310   2.153   5.441 -0.0979  0.2634  0.1564
    2CHL1  H19A  115   3.337   2.172   5.547 -0.3841  0.3899  0.2070
    2CHL1  H19B  116   3.352   2.053   5.415 -1.5309  0.0026 -1.2940
    2CHL1  H19C  117   3.358   2.229   5.375 -1.8997  0.4898 -0.9756
    2CHL1    C1  118   3.101   2.301   5.487 -0.7753  0.0250  0.2759
    2CHL1   H1A  119   3.163   2.378   5.436 -3.0427  2.1500  0.5340
    2CHL1   H1B  120   2.997   2.323   5.457 -0.0485  2.6558 -0.5883
    2CHL1    C2  121   3.124   2.323   5.635  0.2046 -0.4525 -0.0300
    2CHL1   H2A  122   3.076   2.421   5.656  0.5716  0.8173 -4.1434
    2CHL1   H2B  123   3.233   2.333   5.655  0.5882  2.3198 -2.8224
    2CHL1   C20  124   3.235   2.013   4.742  0.4908  0.4576 -0.8632
    2CHL1   H20  125   3.335   1.971   4.766  0.9119  1.2280 -1.2325
    2CHL1   C21  126   3.261   2.170   4.730 -0.5724 -0.6824  0.5640
    2CHL1  H21A  127   3.158   2.212   4.726 -0.1340  0.3986 -3.7133
    2CHL1  H21B  128   3.309   2.191   4.632 -0.2541 -1.0358  0.6411
    2CHL1  H21C  129   3.327   2.208   4.811 -2.1006 -1.4723  2.2645
    2CHL1   C22  130   3.178   1.950   4.611 -0.0253  0.0864 -0.3787
    2CHL1  H22A  131   3.105   1.870   4.634  0.9676 -0.4074  1.1933
    2CHL1  H22B  132   3.113   2.026   4.562 -1.0335 -2.0771 -2.6241
    2CHL1   C23  133   3.295   1.912   4.519 -0.4070 -0.4408  0.3228
    2CHL1  H23A  134   3.361   2.001   4.507 -0.4697 -0.4657 -0.2275
    2CHL1  H23B  135   3.358   1.828   4.557 -0.7080 -1.1352 -0.6692
    2CHL1   C24  136   3.238   1.861   4.381  0.1995  0.3067  1.0087
    2CHL1  H24A  137   3.206   1.756   4.396  1.8311 -0.2513  0.8771
    2CHL1  H24B  138   3.148   1.915   4.347  0.1116  0.3458  1.3011
    2CHL1   C25  139   3.347   1.836   4.274 -0.3074 -0.0165 -0.1812
    2CHL1   H25  140   3.418   1.760   4.315 -0.4032 -0.5463 -0.9763
    2CHL1   C26  141   3.273   1.780   4.149  0.0207  0.0634  0.3786
    2CHL1  H26A  142   3.203   1.849   4.096  0.8354 -0.6078 -1.6892
    2CHL1  H26B  143   3.333   1.737   4.066 -0.3799 -1.6985  0.9416
    2CHL1  H26C  144   3.215   1.694   4.189 -1.8459  1.0728 -0.0295
    2CHL1   C27  145   3.428   1.962   4.238 -0.0454  0.1340  0.1126
    2CHL1  H27A  146   3.482   1.990   4.331 -2.9175 -4.1096  3.4664
    2CHL1  H27B  147   3.497   1.923   4.160  0.3776 -0.9782  1.0210
    2CHL1  H27C  148   3.356   2.044   4.212  0.1850  0.7056  1.2139
    3CHL1    C3  149   2.493   1.210   5.787  0.0004  0.8708  0.7319
    3CHL1    H3  150   2.459   1.314   5.768  0.6266  1.7291  3.7597
    3CHL1    O3  151   2.538   1.203   5.921  0.3619  0.2646  0.5262
    3CHL1   H3'  152   2.516   1.113   5.946  0.7481 -0.3736 -1.2292
    3CHL1    C4  153   2.381   1.101   5.774  0.0723 -0.2218  0.3810
    3CHL1   H4A  154   2.414   0.998   5.796 -0.1260 -0.4732 -0.4659
    3CHL1   H4B  155   2.294   1.127   5.839 -0.5907 -0.5260 -0.3598
    3CHL1    C5  156   2.320   1.101   5.641  0.0026  0.4181  0.6816
    3CHL1    C6  157   2.200   1.144   5.607  0.3999 -0.4525  0.2574
    3CHL1    H6  158   2.126   1.177   5.681 -1.8089  1.8324 -2.7629
    3CHL1    C7  159   2.146   1.133   5.465  0.6668  0.0011 -0.3446
    3CHL1   H7A  160   2.051   1.077   5.459  0.0482  1.1054 -1.3076
    3CHL1   H7B  161   2.121   1.235   5.430 -1.2415 -0.7155 -1.1547
    3CHL1    C8  162   2.234   1.060   5.361  0.8037 -0.4520  0.5084
    3CHL1    H8  163   2.222   0.951   5.378 -3.9729 -0.1147  0.4930
    3CHL1   C14  164   2.196   1.096   5.216 -0.1610 -0.5017 -0.1770
    3CHL1   H14  165   2.223   1.204   5.210 -1.4554 -0.1233  0.4290
    3CHL1   C15  166   2.046   1.088   5.174  0.9727  0.7120  0.0323
    3CHL1  H15A  167   2.004   0.996   5.218  0.7549  0.5854 -0.4322
    3CHL1  H15B  168   1.995   1.179   5.212  0.0181  0.6673 -1.0934
    3CHL1   C16  169   2.056   1.081   5.018  0.5636  1.0381 -0.1936
    3CHL1  H16A  170   2.013   0.984   4.984  0.6344  1.8685 -2.9158
    3CHL1  H16B  171   2.002   1.168   4.976 -1.5347  0.8279  1.8746
    3CHL1   C17  172   2.205   1.079   4.974 -0.3948  0.2207  0.5261
    3CHL1   H17  173   2.242   1.183   4.963 -2.0864  1.0757  2.2351
    3CHL1   C13  174   2.274   1.020   5.105 -0.1487  0.2329 -0.5270
    3CHL1   C18  175   2.248   0.866   5.118  0.0324 -0.0899 -0.1410
    3CHL1  H18A  176   2.271   0.833   5.222 -2.8582  1.8780  1.2324
    3CHL1  H18B  177   2.142   0.837   5.102  0.2273 -1.1766  0.4388
    3CHL1  H18C  178   2.303   0.806   5.042 -0.4619  1.0068 -1.4096
    3CHL1   C12  179   2.424   1.056   5.131  0.4132 -1.2383 -0.1622
    3CHL1  H12A  180   2.490   0.985   5.075 -0.0189 -1.8707  0.1140
    3CHL1  H12B  181   2.443   1.160   5.098 -0.8004 -1.4172 -1.5095
    3CHL1   C11  182   2.476   1.044   5.277  0.1786  0.5944 -0.0702
    3CHL1  H11A  183   2.502   0.938   5.295 -0.3846  0.7349  1.6944
    3CHL1  H11B  184   2.565   1.111   5.281 -0.8065  2.3218 -3.0309
    3CHL1    C9  185   2.377   1.091   5.395 -0.1158 -0.0125 -0.1207
    3CHL1    H9  186   2.381   1.201   5.381  1.1850  0.2494  1.9511
    3CHL1   C10  187   2.425   1.066   5.539 -0.4495  0.0666  0.6468
    3CHL1   C19  188   2.440   0.903   5.561 -0.1549  0.4082 -0.1468
    3CHL1  H19A  189   2.497   0.855   5.479  1.9177  0.8756  0.9337
    3CHL1  H19B  190   2.488   0.881   5.659 -1.3460  0.1745  0.4017
    3CHL1  H19C  191   2.336   0.864   5.561 -0.3747  0.8454 -2.7034
    3CHL1    C1  192   2.562   1.135   5.556 -0.1774  0.1063  0.4095
    3CHL1   H1A  193   2.635   1.071   5.500  0.7368  1.0625  0.4766
    3CHL1   H1B  194   2.569   1.234   5.506 -2.1701  0.2014  0.2520
    3CHL1    C2  195   2.613   1.161   5.696  0.0040  0.5274 -0.4001
    3CHL1   H2A  196   2.693   1.238   5.705  0.7431 -0.1736 -0.8122
    3CHL1   H2B  197   2.645   1.064   5.737 -1.4687  1.0464  2.1352
    3CHL1   C20  198   2.223   1.002   4.846 -0.6806 -0.0338 -0.1898
    3CHL1   H20  199   2.192   0.897   4.865 -0.8409 -0.3475 -2.0458
    3CHL1   C21  200   2.370   1.004   4.802 -0.6961 -0.1980 -0.0522
    3CHL1  H21A  201   2.402   1.105   4.769 -1.2683  0.3781  1.1097
    3CHL1  H21B  202   2.385   0.935   4.716 -3.8265 -0.0508 -0.8466
    3CHL1  H21C  203   2.439   0.977   4.884  0.7991  3.9853  0.2786
    3CHL1   C22  204   2.135   1.044   4.724  0.0815 -0.1976  0.7188
    3CHL1  H22A  205   2.139   0.974   4.638 -0.7427  0.8443 -0.1932
    3CHL1  H22B  206   2.032   1.038   4.763 -0.8034  0.2491 -1.3985
    3CHL1   C23  207   2.154   1.189   4.663 -0.0057 -0.5069  0.6141
    3CHL1  H23A  208   2.155   1.267   4.742  0.9284  0.3642 -0.2463
    3CHL1  H23B  209   2.251   1.190   4.611  0.2076  1.4105  0.9834
    3CHL1   C24  210   2.050   1.225   4.551 -0.2858  0.1093  0.7911
    3CHL1  H24A  211   2.074   1.327   4.514  1.4013 -1.1439 -1.8545
    3CHL1  H24B  212   2.083   1.152   4.475  1.4388 -0.4682  2.0436
    3CHL1   C25  213   1.900   1.217   4.587 -0.2685  0.0320 -0.2041
    3CHL1   H25  214   1.876   1.119   4.635 -0.1395 -0.3874 -0.9715
    3CHL1   C26  215   1.854   1.327   4.681  0.2586 -0.5033 -0.2462
    3CHL1  H26A  216   1.748   1.299   4.699  0.1934  0.0630  0.2732
    3CHL1  H26B  217   1.908   1.329   4.778 -1.0174  0.9998  0.4809
    3CHL1  H26C  218   1.869   1.425   4.633  2.0802 -0.2170  0.7926
    3CHL1   C27  219   1.821   1.220   4.461 -0.1456  0.3273 -0.3226
    3CHL1  H27A  220   1.828   1.317   4.407 -2.2666  0.4558 -0.4272
    3CHL1  H27B  221   1.851   1.130   4.402  1.5275 -1.6271  3.1487
    3CHL1  H27C  222   1.714   1.208   4.485  0.0736 -0.4118  0.3417
    4CHL1    C3  223   1.929   0.183   5.663 -0.7805  0.6557 -0.0830
    4CHL1    H3  224   1.819   0.198   5.657 -0.8752  0.3702  0.8604
    4CHL1    O3  225   1.953   0.142   5.795  0.2802  0.1916 -0.1343
    4CHL1   H3'  226   2.044   0.112   5.793  0.6106  1.0520 -2.8771
    4CHL1    C4  227   1.985   0.092   5.557  0.0896 -0.9128 -0.1896
    4CHL1   H4A  228   2.090   0.068   5.586  0.7670  3.6357  2.1231
    4CHL1   H4B  229   1.916   0.008   5.579 -2.8559  1.0740 -1.2357
    4CHL1    C5  230   1.972   0.135   5.415  0.4523 -0.1366 -0.2087
    4CHL1    C6  231   1.899   0.075   5.317 -0.4139  0.1569  0.6576
    4CHL1    H6  232   1.857  -0.025   5.334 -1.6894  0.5597 -0.0380
    4CHL1    C7  233   1.886   0.132   5.185  0.6331  0.6109 -0.8379
    4CHL1   H7A  234   1.879   0.052   5.109 -1.5812 -1.3483  1.2588
    4CHL1   H7B  235   1.782   0.170   5.191  0.4471 -0.1065  1.1755
    4CHL1    C8  236   1.999   0.233   5.154 -0.0217 -0.0314  0.3493
    4CHL1    H8  237   2.089   0.168   5.146 -0.7132 -0.9692 -0.1040
    4CHL1   C14  238   1.976   0.298   5.019 -0.4378 -0.4095 -0.1606
    4CHL1   H14  239   1.885   0.362   5.019  1.8022  3.0578 -0.2796
    4CHL1   C15  240   1.964   0.203   4.898  0.0033  0.6524  0.5340
    4CHL1  H15A  241   2.035   0.120   4.880 -3.0995 -1.4766 -3.3908
    4CHL1  H15B  242   1.869   0.148   4.909  0.0749 -0.4780 -3.1610
    4CHL1   C16  243   1.995   0.298   4.784  0.0343 -0.7350  0.6917
    4CHL1  H16A  244   2.066   0.251   4.713  0.0008 -2.5505  1.8055
    4CHL1  H16B  245   1.901   0.318   4.728  1.5988  0.8808 -1.5323
    4CHL1   C17  246   2.049   0.436   4.832  0.0732  0.1760  0.4132
    4CHL1   H17  247   1.967   0.511   4.837  0.5640  0.9831 -2.0525
    4CHL1   C13  248   2.092   0.391   4.973  0.1952 -0.2221 -0.1677
    4CHL1   C18  249   2.226   0.314   4.972 -0.4202  0.6025 -1.3524
    4CHL1  H18A  250   2.239   0.260   5.068  0.5808  2.0006 -0.6586
    4CHL1  H18B  251   2.231   0.232   4.898  1.1714 -0.1584 -0.4574
    4CHL1  H18C  252   2.302   0.391   4.947  0.9736 -0.4101 -0.3650
    4CHL1   C12  253   2.101   0.510   5.076  0.3670  0.4504 -1.0055
    4CHL1  H12A  254   2.201   0.557   5.065 -0.2736  2.0670 -0.1430
    4CHL1  H12B  255   2.010   0.574   5.070 -0.7319 -0.9437 -0.1121
    4CHL1   C11  256   2.120   0.455   5.221  0.1096 -0.1260  0.2175
    4CHL1  H11A  257   2.221   0.409   5.216  0.8509  1.3808  0.7634
    4CHL1  H11B  258   2.125   0.532   5.301  2.6423 -1.5639  1.5608
    4CHL1    C9  259   2.016   0.340   5.262 -0.4551  0.2112 -0.8679
    4CHL1    H9  260   1.919   0.393   5.278  0.0303  0.8137  0.2486
    4CHL1   C10  261   2.044   0.277   5.403 -0.5295  0.4923 -0.7756
    4CHL1   C19  262   2.199   0.258   5.413  0.3686 -0.4086 -0.1828
    4CHL1  H19A  263   2.227   0.214   5.511  1.2114 -0.2964 -0.3632
    4CHL1  H19B  264   2.241   0.195   5.331  3.7048  0.5549  0.6333
    4CHL1  H19C  265   2.254   0.354   5.407 -2.3918  1.2716 -0.2462
    4CHL1    C1  266   1.990   0.371   5.514 -0.7554 -0.2070  0.2151
    4CHL1   H1A  267   2.050   0.464   5.510 -0.2015 -0.5821 -0.5458
    4CHL1   H1B  268   1.881   0.393   5.501 -0.8178  0.5205  1.7219
    4CHL1    C2  269   2.007   0.317   5.650  0.4861  0.1975  0.4512
    4CHL1   H2A  270   1.968   0.381   5.732 -0.0911 -0.0099  0.3423
    4CHL1   H2B  271   2.116   0.313   5.668  1.4053  2.4309 -3.3642
    4CHL1   C20  272   2.150   0.496   4.730  0.3808  0.3684  0.2579
    4CHL1   H20  273   2.235   0.427   4.711  1.1511  1.7905 -1.8507
    4CHL1   C21  274   2.205   0.628   4.779 -0.2667  0.5453 -0.5284
    4CHL1  H21A  275   2.271   0.681   4.708 -1.4342  1.2850 -1.0805
    4CHL1  H21B  276   2.275   0.606   4.863  0.1561 -1.6462 -1.3728
    4CHL1  H21C  277   2.117   0.692   4.800  0.1212  0.2852  2.2270
    4CHL1   C22  278   2.078   0.505   4.590  0.4102 -0.2448  0.8699
    4CHL1  H22A  279   2.056   0.403   4.553 -2.0533  0.9670 -1.3910
    4CHL1  H22B  280   1.988   0.569   4.608  0.1526  0.0707 -1.2934
    4CHL1   C23  281   2.167   0.555   4.475  0.3417  0.0979  0.7937
    4CHL1  H23A  282   2.232   0.641   4.501  0.2216  0.8933 -1.3269
    4CHL1  H23B  283   2.235   0.470   4.456 -1.1056 -0.9627  0.1492
    4CHL1   C24  284   2.103   0.579   4.343  0.7116 -0.1710 -0.0539
    4CHL1  H24A  285   2.181   0.585   4.265 -0.3356 -2.0172 -1.3094
    4CHL1  H24B  286   2.049   0.487   4.314  0.8173  0.0116 -0.8634
    4CHL1   C25  287   1.998   0.694   4.335  0.3670  0.7341 -1.1399
    4CHL1   H25  288   1.904   0.660   4.382  1.5293 -2.5293 -0.8943
    4CHL1   C26  289   2.054   0.814   4.415 -0.1902  1.0179 -0.6206
    4CHL1  H26A  290   2.165   0.810   4.406  0.0735 -2.9186  2.0365
    4CHL1  H26B  291   2.015   0.909   4.373 -0.4444  1.9854  1.6871
    4CHL1  H26C  292   2.038   0.802   4.524 -0.0537 -1.7608 -0.8325
    4CHL1   C27  293   1.980   0.731   4.182  0.6127  0.2106  0.1889
    4CHL1  H27A  294   2.071   0.780   4.143  0.8804  0.2814  0.8849
    4CHL1  H27B  295   1.952   0.644   4.119 -0.9793  1.8153 -1.4406
    4CHL1  H27C  296   1.900   0.807   4.169  0.6191 -0.1027 -1.9471
    5CHL1    C3  297   2.908   2.943   5.974 -0.8439  0.4757  0.0441
    5CHL1    H3  298   3.011   2.929   5.934 -0.7170  0.1067  0.4920
    5CHL1    O3  299   2.910   2.898   6.108  0.2016  0.4502 -0.1894
    5CHL1   H3'  300   2.967   2.963   6.150  0.6804  0.4071 -0.7598
    5CHL1    C4  301   2.871   3.090   5.975  0.1148  0.1465  1.1221
    5CHL1   H4A  302   2.773   3.094   6.028  0.6514  0.5921  2.1163
    5CHL1   H4B  303   2.947   3.136   6.041  1.9675 -0.1565 -0.6996
    5CHL1    C5  304   2.874   3.145   5.829  0.3229  0.7238  0.0444
    5CHL1    C6  305   2.947   3.261   5.816  0.1143 -0.6643  0.6377
    5CHL1    H6  306   3.005   3.300   5.901  1.2951 -0.4501 -0.2530
    5CHL1    C7  307   2.964   3.321   5.679  0.7324 -0.4608  1.1089
    5CHL1   H7A  308   2.926   3.426   5.679  1.4756 -0.1856  1.6741
    5CHL1   H7B  309   3.070   3.312   5.647  0.5214 -1.4475  0.6608
    5CHL1    C8  310   2.875   3.254   5.566 -0.0608  0.3778 -0.6065
    5CHL1    H8  311   2.774   3.298   5.574 -1.1647 -2.0681 -0.1141
    5CHL1   C14  312   2.937   3.291   5.432 -0.8169  0.5210 -0.3528
    5CHL1   H14  313   3.033   3.236   5.441 -1.2957 -0.4433 -0.9403
    5CHL1   C15  314   2.973   3.433   5.386 -0.3016 -1.0358 -0.2126
    5CHL1  H15A  315   2.892   3.504   5.415  1.6556  1.8018 -1.2159
    5CHL1  H15B  316   3.054   3.473   5.451 -1.8449 -1.3845  2.0614
    5CHL1   C16  317   3.013   3.419   5.243  0.5532  0.3413  0.1660
    5CHL1  H16A  318   2.965   3.494   5.176  1.0540 -0.2322 -0.8687
    5CHL1  H16B  319   3.121   3.419   5.218  0.3296 -2.9696 -1.3451
    5CHL1   C17  320   2.962   3.277   5.197  0.0848 -0.6923  0.1096
    5CHL1   H17  321   3.046   3.203   5.199  0.2399 -0.5927 -1.5624
    5CHL1   C13  322   2.867   3.222   5.308 -0.1224 -0.6632 -0.7807
    5CHL1   C18  323   2.735   3.286   5.285  0.2180  0.6388 -0.6242
    5CHL1  H18A  324   2.668   3.234   5.214  0.5277 -3.4812  1.7721
    5CHL1  H18B  325   2.679   3.295   5.381  0.0271  0.7637 -0.7461
    5CHL1  H18C  326   2.753   3.389   5.248  0.6774 -0.0425 -2.3704
    5CHL1   C12  327   2.864   3.065   5.328 -0.3408  0.3170 -0.2093
    5CHL1  H12A  328   2.810   3.024   5.241 -0.1649  1.1304 -0.7191
    5CHL1  H12B  329   2.968   3.025   5.330 -0.3624  0.2174 -0.7776
    5CHL1   C11  330   2.800   3.031   5.466  0.2392 -0.0934 -0.9599
    5CHL1  H11A  331   2.691   3.047   5.454  0.3551  1.4303 -0.2141
    5CHL1  H11B  332   2.806   2.920   5.473 -0.4441  0.0003  2.3372
    5CHL1    C9  333   2.864   3.099   5.586 -0.2918 -0.4868 -0.1477
    5CHL1    H9  334   2.971   3.070   5.577 -0.0797 -0.1619  1.0671
    5CHL1   C10  335   2.807   3.053   5.720 -0.6553 -0.1826  0.0783
    5CHL1   C19  336   2.651   3.080   5.728 -0.0314 -0.1794  0.2240
    5CHL1  H19A  337   2.632   3.189   5.720 -1.6838 -0.4736 -0.1945
    5CHL1  H19B  338   2.587   3.032   5.651 -1.5398  3.3470 -0.9072
    5CHL1  H19C  339   2.612   3.043   5.825 -1.2432 -0.2962 -0.2884
    5CHL1    C1  340   2.819   2.904   5.749 -0.3408  0.2938  0.0769
    5CHL1   H1A  341   2.743   2.852   5.687  0.2228 -0.0529 -0.3279
    5CHL1   H1B  342   2.923   2.878   5.721  0.1388  2.4274 -0.3138
    5CHL1    C2  343   2.805   2.863   5.897  0.0284 -0.0973 -0.3027
    5CHL1   H2A  344   2.838   2.758   5.909  0.2433 -0.0343 -0.3393
    5CHL1   H2B  345   2.703   2.875   5.940  0.4086 -0.3339  0.6819
    5CHL1   C20  346   2.913   3.281   5.051  0.0843  0.4122 -0.1747
    5CHL1   H20  347   2.830   3.355   5.050 -0.0239  0.3139 -1.8730
    5CHL1   C21  348   2.858   3.145   5.006 -0.2846  0.1235 -0.1681
    5CHL1  H21A  349   2.932   3.065   5.028  2.1091  2.4304  0.7393
    5CHL1  H21B  350   2.846   3.134   4.896 -0.9085 -1.3497  0.0234
    5CHL1  H21C  351   2.753   3.133   5.040 -0.9547  0.1287 -2.0829
    5CHL1   C22  352   3.029   3.330   4.958 -0.0518  0.0739  0.5101
    5CHL1  H22A  353   3.063   3.433   4.978  2.5089  0.0903 -2.8771
    5CHL1  H22B  354   3.116   3.261   4.974 -1.0832 -0.8658  2.3296
    5CHL1   C23  355   2.991   3.324   4.809 -0.6296 -0.1682  0.3175
    5CHL1  H23A  356   3.072   3.377   4.755 -1.3101  1.1101  0.5175
    5CHL1  H23B  357   2.994   3.218   4.777  0.8478 -0.0638  0.0471
    5CHL1   C24  358   2.858   3.394   4.775  0.1367 -0.3185 -0.4341
    5CHL1  H24A  359   2.762   3.350   4.812  0.9108 -0.4387  1.5421
    5CHL1  H24B  360   2.851   3.487   4.836  0.0057 -1.9540  2.2331
    5CHL1   C25  361   2.847   3.420   4.619  0.3307  0.5100 -0.3783
    5CHL1   H25  362   2.950   3.448   4.587  0.0197  2.6403  0.3167
    5CHL1   C26  363   2.800   3.288   4.555 -0.2568  0.1811  0.4140
    5CHL1  H26A  364   2.817   3.291   4.445 -2.6767 -0.5324 -0.0562
    5CHL1  H26B  365   2.846   3.203   4.608  1.0964 -0.1081 -1.1631
    5CHL1  H26C  366   2.689   3.289   4.567 -0.3050  0.4684 -0.0253
    5CHL1   C27  367   2.754   3.541   4.580  0.0856  0.4658  0.4007
    5CHL1  H27A  368   2.760   3.570   4.473 -1.2909  2.4794  0.8012
    5CHL1  H27B  369   2.651   3.526   4.621 -0.5805  1.8489 -0.6638
    5CHL1  H27C  370   2.781   3.629   4.642  1.6151 -1.1315  2.1355
    6CHL1    C3  371   1.534   0.323   5.560 -0.1031 -0.3534 -0.0270
    6CHL1    H3  372   1.634   0.286   5.529 -0.1905 -1.4241  0.8829
    6CHL1    O3  373   1.537   0.357   5.701 -0.2797 -0.4244  0.5599
    6CHL1   H3'  374   1.450   0.375   5.737  0.2149 -0.9578  2.1004
    6CHL1    C4  375   1.497   0.438   5.467  0.1705 -0.8379 -0.2279
    6CHL1   H4A  376   1.400   0.471   5.510  0.5059 -0.8030  0.5205
    6CHL1   H4B  377   1.561   0.527   5.486 -0.6909 -0.2382 -0.0773
    6CHL1    C5  378   1.493   0.399   5.322 -0.0351 -0.5353 -0.1868
    6CHL1    C6  379   1.565   0.461   5.231  0.4568 -0.4226 -0.5617
    6CHL1    H6  380   1.619   0.547   5.274  0.3574 -0.9937  0.7604
    6CHL1    C7  381   1.563   0.441   5.087 -0.1600 -0.3996  0.5690
    6CHL1   H7A  382   1.561   0.539   5.034  0.8805 -0.6669 -0.0067
    6CHL1   H7B  383   1.661   0.397   5.057  0.6688  1.2831  0.6787
    6CHL1    C8  384   1.454   0.342   5.033 -0.2853 -0.1954  0.2175
    6CHL1    H8  385   1.357   0.397   5.033 -1.8577 -2.7659  0.9884
    6CHL1   C14  386   1.485   0.278   4.898 -0.0901 -0.0510  0.6177
    6CHL1   H14  387   1.583   0.230   4.915  0.4977  0.3762 -1.3450
    6CHL1   C15  388   1.513   0.376   4.787  0.0949 -0.0454 -0.2330
    6CHL1  H15A  389   1.444   0.462   4.801  1.8689  1.2848  0.9207
    6CHL1  H15B  390   1.615   0.421   4.782 -0.6401  1.7911  0.2957
    6CHL1   C16  391   1.479   0.298   4.656 -0.2050  0.1925  0.8387
    6CHL1  H16A  392   1.391   0.344   4.606 -0.8038 -2.5922 -0.9011
    6CHL1  H16B  393   1.568   0.297   4.589  0.7259  0.6121  2.0300
    6CHL1   C17  394   1.426   0.151   4.699 -0.1295  0.3594  0.0912
    6CHL1   H17  395   1.517   0.092   4.720  1.1213  2.3088  0.3633
    6CHL1   C13  396   1.377   0.178   4.847 -0.1224  0.6527  0.7398
    6CHL1   C18  397   1.231   0.248   4.835  0.6721  0.1425  0.0772
    6CHL1  H18A  398   1.200   0.317   4.916 -0.4907 -0.2767  0.0145
    6CHL1  H18B  399   1.230   0.320   4.750  2.3254  0.2228  0.1062
    6CHL1  H18C  400   1.150   0.172   4.832 -0.2780  0.6728  4.7524
    6CHL1   C12  401   1.364   0.064   4.947 -0.1646 -0.3990 -0.9957
    6CHL1  H12A  402   1.287  -0.014   4.932 -1.5531  1.0111 -1.3915
    6CHL1  H12B  403   1.466   0.021   4.957  0.4346  1.1316 -0.1039
    6CHL1   C11  404   1.325   0.118   5.092  0.4643 -0.3350  0.6453
    6CHL1  H11A  405   1.223   0.162   5.097  1.2885  1.7853 -0.0482
    6CHL1  H11B  406   1.335   0.030   5.160 -1.0771 -0.1256  1.1768
    6CHL1    C9  407   1.425   0.233   5.138  0.5662  0.3972 -0.5672
    6CHL1    H9  408   1.524   0.182   5.140 -0.1208 -1.0728 -2.0251
    6CHL1   C10  409   1.399   0.283   5.282  0.1850 -0.1992 -0.7736
    6CHL1   C19  410   1.258   0.345   5.294 -0.2001 -0.2937 -1.2226
    6CHL1  H19A  411   1.236   0.386   5.395 -1.3585 -3.0692 -0.2270
    6CHL1  H19B  412   1.228   0.411   5.210 -0.2779  2.3198  0.7537
    6CHL1  H19C  413   1.184   0.262   5.298 -2.3491  1.5014 -1.6182
    6CHL1    C1  414   1.416   0.164   5.389 -0.0543 -0.1826 -0.1425
    6CHL1   H1A  415   1.323   0.104   5.380 -0.8207  1.0130 -0.3253
    6CHL1   H1B  416   1.514   0.120   5.361 -0.1632 -0.4240 -0.1450
    6CHL1    C2  417   1.428   0.209   5.538  0.2588 -0.1097  0.6591
    6CHL1   H2A  418   1.460   0.116   5.590  1.8653  0.2870  0.4404
    6CHL1   H2B  419   1.329   0.232   5.583  0.2846  0.0877  0.6163
    6CHL1   C20  420   1.347   0.077   4.592  0.8397  0.0346 -0.4143
    6CHL1   H20  421   1.259   0.141   4.569  0.6432 -0.7948 -2.1255
    6CHL1   C21  422   1.285  -0.058   4.644 -0.3016 -0.2615 -0.1466
    6CHL1  H21A  423   1.227  -0.030   4.734  2.1111  1.9120  0.8683
    6CHL1  H21B  424   1.369  -0.122   4.678  0.6536  1.2702  0.4837
    6CHL1  H21C  425   1.229  -0.119   4.570  0.5275 -1.5886  0.3005
    6CHL1   C22  426   1.425   0.066   4.459  0.4746 -0.5602  0.0857
    6CHL1  H22A  427   1.501   0.146   4.443  0.0624 -0.6848 -2.9473
    6CHL1  H22B  428   1.472  -0.034   4.452  0.6170 -1.0699  4.8497
    6CHL1   C23  429   1.335   0.094   4.330  0.5487  0.3033  0.2947
    6CHL1  H23A  430   1.282  -0.002   4.314 -0.1696  0.8810 -1.0090
    6CHL1  H23B  431   1.261   0.177   4.338  0.7587  0.5769 -0.4980
    6CHL1   C24  432   1.414   0.103   4.198  0.1281  0.2660  0.1701
    6CHL1  H24A  433   1.466   0.201   4.186  1.5644 -0.4921  0.0171
    6CHL1  H24B  434   1.497   0.029   4.191  2.5687  2.7819  0.6125
    6CHL1   C25  435   1.325   0.088   4.072  0.5683  0.9782 -0.0081
    6CHL1   H25  436   1.240   0.018   4.086 -0.6264  2.4192  0.2069
    6CHL1   C26  437   1.281   0.230   4.030  0.8764  0.2329  0.4084
    6CHL1  H26A  438   1.221   0.232   3.936  1.0875 -0.9803  0.2329
    6CHL1  H26B  439   1.216   0.266   4.112  3.3832  3.0216  1.3444
    6CHL1  H26C  440   1.370   0.296   4.019  0.6055  0.5474  0.0660
    6CHL1   C27  441   1.407   0.035   3.948 -0.0493 -0.0506  0.3946
    6CHL1  H27A  442   1.438  -0.070   3.968  2.6654  0.2744 -1.5625
    6CHL1  H27B  443   1.354   0.020   3.852  3.0428 -1.6194 -1.2335
    6CHL1  H27C  444   1.501   0.091   3.931  0.5286 -1.0551  0.2168
    7CHL1    C3  445   2.184   1.651   5.941 -0.6757  0.1694  0.6215
    7CHL1    H3  446   2.257   1.734   5.943 -1.5871  1.1289 -1.6776
    7CHL1    O3  447   2.170   1.592   6.070  0.2943 -0.1055  0.2265
    7CHL1   H3'  448   2.089   1.541   6.069 -0.0594  0.4147  0.7386
    7CHL1    C4  449   2.052   1.701   5.895 -0.1131  0.1379 -0.1086
    7CHL1   H4A  450   1.972   1.626   5.916 -1.5589  1.0210 -2.0909
    7CHL1   H4B  451   2.028   1.795   5.948  2.2845  0.1592  1.0833
    7CHL1    C5  452   2.043   1.726   5.739 -0.6329 -0.3503 -0.5013
    7CHL1    C6  453   2.001   1.842   5.680  0.0602  0.4843 -0.4669
    7CHL1    H6  454   1.957   1.918   5.747 -1.7115 -0.7284 -0.1838
    7CHL1    C7  455   1.983   1.860   5.528  0.1597  0.3165 -0.2247
    7CHL1   H7A  456   1.892   1.922   5.510 -1.1968 -1.4869  0.1730
    7CHL1   H7B  457   2.059   1.926   5.482 -1.3446  0.6419 -2.4487
    7CHL1    C8  458   1.995   1.729   5.446 -0.0338 -0.0306  0.2898
    7CHL1    H8  459   1.906   1.663   5.457 -0.6872  0.7543 -0.1591
    7CHL1   C14  460   2.022   1.759   5.300 -0.2873 -0.5472  0.6983
    7CHL1   H14  461   2.116   1.817   5.316 -0.3948 -0.9247  3.0511
    7CHL1   C15  462   1.920   1.846   5.224 -0.2513  0.3124  0.5080
    7CHL1  H15A  463   1.818   1.805   5.235  0.0965 -0.6994  0.1284
    7CHL1  H15B  464   1.933   1.953   5.252 -0.7797  0.4758  0.1495
    7CHL1   C16  465   1.954   1.825   5.073 -1.0868  0.1822  0.0752
    7CHL1  H16A  466   1.863   1.803   5.013 -0.3712 -0.8423 -0.6763
    7CHL1  H16B  467   1.994   1.920   5.032 -0.6156 -0.1701 -0.2887
    7CHL1   C17  468   2.059   1.707   5.071 -0.1177  0.2505  0.4616
    7CHL1   H17  469   2.160   1.753   5.059 -0.4356  1.5991  2.4995
    7CHL1   C13  470   2.051   1.642   5.210  0.2131  0.3898 -0.4953
    7CHL1   C18  471   1.931   1.545   5.204 -0.3873  0.6170 -1.0877
    7CHL1  H18A  472   1.933   1.486   5.299 -2.8765  1.1193 -0.6620
    7CHL1  H18B  473   1.836   1.600   5.190  1.1155  3.4808 -0.7479
    7CHL1  H18C  474   1.936   1.466   5.126 -0.7311 -1.4445  0.8722
    7CHL1   C12  475   2.178   1.573   5.257  0.3625 -0.6316  0.1423
    7CHL1  H12A  476   2.202   1.479   5.203  2.3461  0.5146 -1.1295
    7CHL1  H12B  477   2.261   1.647   5.254  0.4047 -0.5791  1.7072
    7CHL1   C11  478   2.170   1.534   5.407  0.2888 -0.1804  0.4103
    7CHL1  H11A  479   2.112   1.440   5.409 -0.6872  0.4023  0.0074
    7CHL1  H11B  480   2.266   1.497   5.449 -0.5399 -1.1893  1.5042
    7CHL1    C9  481   2.111   1.646   5.501 -0.0346  0.9837 -1.0802
    7CHL1    H9  482   2.196   1.717   5.494  0.9587 -0.3078 -4.0406
    7CHL1   C10  483   2.101   1.613   5.655  0.0511 -0.1243  0.5277
    7CHL1   C19  484   2.015   1.486   5.656 -0.3354 -1.0772 -0.0238
    7CHL1  H19A  485   2.007   1.445   5.760  0.1239 -3.4441 -0.8592
    7CHL1  H19B  486   1.911   1.499   5.619  0.3583 -0.0453 -1.7038
    7CHL1  H19C  487   2.060   1.407   5.593  3.3102  0.9078 -0.1623
    7CHL1    C1  488   2.235   1.582   5.703 -1.7675 -0.0866 -0.0927
    7CHL1   H1A  489   2.283   1.501   5.643 -0.1395  0.1820  0.7760
    7CHL1   H1B  490   2.305   1.665   5.678 -0.3859 -1.6692 -1.8253
    7CHL1    C2  491   2.249   1.541   5.849  0.0762  0.0355  0.6130
    7CHL1   H2A  492   2.352   1.518   5.885 -0.1163  1.6668  2.3861
    7CHL1   H2B  493   2.197   1.444   5.858 -1.2347  0.6081 -0.3458
    7CHL1   C20  494   2.038   1.622   4.944  0.0157  0.2185  0.2809
    7CHL1   H20  495   1.939   1.572   4.954 -0.0362 -0.0663 -1.3866
    7CHL1   C21  496   2.154   1.526   4.925 -0.4244 -0.3274 -0.0470
    7CHL1  H21A  497   2.248   1.581   4.946 -1.1901  1.3014 -0.7641
    7CHL1  H21B  498   2.179   1.494   4.822  2.1253 -2.1175  1.0161
    7CHL1  H21C  499   2.152   1.437   4.992  1.3767 -1.6870 -1.7139
    7CHL1   C22  500   2.007   1.703   4.817 -0.3714  0.4111  0.1112
    7CHL1  H22A  501   1.998   1.630   4.734 -0.7390  1.1880 -0.5486
    7CHL1  H22B  502   1.918   1.770   4.815  0.3108  1.3226 -0.4146
    7CHL1   C23  503   2.120   1.791   4.779 -0.1061  0.2503  0.2108
    7CHL1  H23A  504   2.113   1.879   4.846  0.4841  0.3329  0.1708
    7CHL1  H23B  505   2.222   1.749   4.793 -0.7928 -1.8850 -0.7129
    7CHL1   C24  506   2.117   1.852   4.634  0.2091 -0.3808  0.0220
    7CHL1  H24A  507   2.013   1.842   4.596  0.3894  0.8328 -0.8378
    7CHL1  H24B  508   2.157   1.956   4.635 -0.4636 -0.1143  0.6438
    7CHL1   C25  509   2.202   1.785   4.526  0.2389 -0.3923 -0.0122
    7CHL1   H25  510   2.298   1.781   4.581  0.3708  1.6814 -0.0098
    7CHL1   C26  511   2.139   1.650   4.491  0.2641  0.3821  0.6021
    7CHL1  H26A  512   2.033   1.653   4.458  0.0729 -0.7440  1.0691
    7CHL1  H26B  513   2.182   1.607   4.398 -1.2246  1.6614 -0.7462
    7CHL1  H26C  514   2.152   1.589   4.583 -1.3514  0.6281  1.0204
    7CHL1   C27  515   2.210   1.881   4.409 -0.7091  0.2391  0.3734
    7CHL1  H27A  516   2.232   1.817   4.321 -0.7366 -1.2377  1.3961
    7CHL1  H27B  517   2.114   1.930   4.385 -0.8871 -0.0509  0.4861
    7CHL1  H27C  518   2.288   1.960   4.402  0.0399 -0.5736 -0.9157
    8CHL1    C3  519   0.785   0.232   5.753  0.1039 -0.7386 -0.3295
    8CHL1    H3  520   0.801   0.340   5.730  1.0180 -0.7760  0.1103
    8CHL1    O3  521   0.753   0.233   5.892  0.7140  0.2665  0.3409
    8CHL1   H3'  522   0.756   0.141   5.920 -0.1686  0.3335  0.6792
    8CHL1    C4  523   0.660   0.174   5.677  0.8463  0.3068 -0.6461
    8CHL1   H4A  524   0.646   0.071   5.716  1.1890  0.4874 -0.0233
    8CHL1   H4B  525   0.570   0.231   5.710  1.1944 -0.1983  1.3031
    8CHL1    C5  526   0.682   0.175   5.530  0.3347 -0.4829 -0.1725
    8CHL1    C6  527   0.587   0.237   5.457 -0.3669  0.7006  0.0136
    8CHL1    H6  528   0.508   0.298   5.503 -0.2843 -1.4700  3.3977
    8CHL1    C7  529   0.580   0.220   5.310  0.8489 -0.4758  0.3125
    8CHL1   H7A  530   0.478   0.186   5.280  0.3678  1.4542 -0.4433
    8CHL1   H7B  531   0.597   0.316   5.256 -3.1561  0.7621  0.8809
    8CHL1    C8  532   0.679   0.114   5.259 -0.0296 -0.5535 -0.2317
    8CHL1    H8  533   0.626   0.017   5.261 -0.6625 -0.2410 -1.1126
    8CHL1   C14  534   0.697   0.126   5.108  1.1132  0.5689  0.0282
    8CHL1   H14  535   0.748   0.225   5.100 -0.1030  1.3422  1.3019
    8CHL1   C15  536   0.587   0.141   5.012  0.3806 -0.0867  0.2270
    8CHL1  H15A  537   0.500   0.079   5.042 -0.5815  0.9127 -0.4015
    8CHL1  H15B  538   0.546   0.244   5.001  1.5928  0.2491 -1.6068
    8CHL1   C16  539   0.636   0.096   4.868  0.2740  0.3930 -0.2982
    8CHL1  H16A  540   0.576   0.011   4.828 -1.6923  1.3783  0.4697
    8CHL1  H16B  541   0.632   0.174   4.790  1.0858  0.3618 -0.3836
    8CHL1   C17  542   0.777   0.050   4.889  0.5265  0.0834  0.2037
    8CHL1   H17  543   0.855   0.129   4.886 -0.5269  1.1281 -0.4621
    8CHL1   C13  544   0.792   0.029   5.044  0.4590  0.2734 -0.5449
    8CHL1   C18  545   0.734  -0.114   5.078 -0.1817 -0.1017 -0.7807
    8CHL1  H18A  546   0.804  -0.186   5.031 -2.1163  0.4326 -4.9752
    8CHL1  H18B  547   0.728  -0.135   5.187  1.4303 -1.0498 -0.8536
    8CHL1  H18C  548   0.642  -0.135   5.019 -0.5135 -0.4162 -0.1653
    8CHL1   C12  549   0.931   0.050   5.103  0.0063 -0.0046 -0.0454
    8CHL1  H12A  550   1.008  -0.024   5.070  0.1964 -0.0330  0.4489
    8CHL1  H12B  551   0.973   0.150   5.082 -0.5577  0.2805  0.1803
    8CHL1   C11  552   0.929   0.033   5.258 -0.0865  0.3090  0.5997
    8CHL1  H11A  553   0.917  -0.075   5.279 -2.6141  0.2997 -0.5780
    8CHL1  H11B  554   1.026   0.048   5.310  1.8328 -1.6651 -2.1361
    8CHL1    C9  555   0.819   0.118   5.329 -0.1877  0.2029  0.1746
    8CHL1    H9  556   0.852   0.223   5.318 -1.8240  0.7147 -0.2409
    8CHL1   C10  557   0.805   0.098   5.482  1.4393  0.1636  0.3934
    8CHL1   C19  558   0.775  -0.046   5.511  0.3813 -0.4868  0.5835
    8CHL1  H19A  559   0.863  -0.106   5.480 -0.2657 -0.3387 -1.7362
    8CHL1  H19B  560   0.741  -0.069   5.614 -2.6101 -0.9656 -0.4220
    8CHL1  H19C  561   0.689  -0.073   5.446  1.7387  2.1754 -2.6323
    8CHL1    C1  562   0.924   0.160   5.556 -0.5323 -0.4663  0.3084
    8CHL1   H1A  563   1.012   0.100   5.522 -0.1224 -0.0464  0.6210
    8CHL1   H1B  564   0.942   0.265   5.527  0.1000 -0.2136  1.5455
    8CHL1    C2  565   0.913   0.156   5.711  0.5866  0.1413 -0.0443
    8CHL1   H2A  566   1.005   0.197   5.758  1.0966 -0.0541 -0.8511
    8CHL1   H2B  567   0.906   0.052   5.750  1.0750  0.4958  1.0257
    8CHL1   C20  568   0.833  -0.056   4.791 -0.0536  0.4487 -0.0672
    8CHL1   H20  569   0.930  -0.091   4.834 -0.5434 -0.4382  0.3543
    8CHL1   C21  570   0.880   0.028   4.673 -0.5373 -0.1942 -0.3097
    8CHL1  H21A  571   0.917  -0.044   4.596 -4.0030 -1.8588 -0.5881
    8CHL1  H21B  572   0.967   0.087   4.710  0.9776 -0.6985 -2.8013
    8CHL1  H21C  573   0.800   0.090   4.627  0.0403 -0.4732 -1.7539
    8CHL1   C22  574   0.751  -0.188   4.760  0.4626  0.4317 -0.1493
    8CHL1  H22A  575   0.719  -0.233   4.856  0.2168  0.4622 -0.2182
    8CHL1  H22B  576   0.679  -0.138   4.693 -0.7192 -0.7517  0.1929
    8CHL1   C23  577   0.836  -0.285   4.680 -0.2065 -0.6589  0.3204
    8CHL1  H23A  578   0.882  -0.244   4.587  1.8734 -0.9130  1.1700
    8CHL1  H23B  579   0.926  -0.318   4.736  1.1894 -0.3927 -1.6456
    8CHL1   C24  580   0.751  -0.410   4.652  0.3929 -0.2811  0.5401
    8CHL1  H24A  581   0.718  -0.448   4.751  0.3032  0.6411  0.8731
    8CHL1  H24B  582   0.660  -0.373   4.601  1.2087  0.0931 -0.6852
    8CHL1   C25  583   0.831  -0.523   4.589 -0.6664 -0.9440 -0.0860
    8CHL1   H25  584   0.922  -0.539   4.651  1.1557 -0.7709 -2.5413
    8CHL1   C26  585   0.750  -0.658   4.587 -0.3452  0.3497 -0.8428
    8CHL1  H26A  586   0.804  -0.739   4.534 -0.1685 -0.3118  0.3311
    8CHL1  H26B  587   0.730  -0.686   4.692  1.5885  1.6115 -0.0917
    8CHL1  H26C  588   0.655  -0.644   4.531 -0.4692  1.9248 -0.2740
    8CHL1   C27  589   0.878  -0.500   4.438  0.2531  0.1899  0.4200
    8CHL1  H27A  590   0.957  -0.572   4.409  2.2686  2.0191  1.0531
    8CHL1  H27B  591   0.788  -0.518   4.376  0.5296  2.7073 -0.8851
    8CHL1  H27C  592   0.923  -0.398   4.432  1.0132 -0.1349  0.4161
    9CHL1    C3  593   3.114   0.495   5.407  0.2385  0.2720  0.0738
    9CHL1    H3  594   3.152   0.590   5.364 -0.3805 -0.0794 -1.2805
    9CHL1    O3  595   3.048   0.507   5.533  0.4843 -0.1685  0.2289
    9CHL1   H3'  596   3.050   0.418   5.568  3.2914 -0.8839 -1.4081
    9CHL1    C4  597   3.023   0.430   5.295  0.0628  0.1789 -0.1254
    9CHL1   H4A  598   2.977   0.338   5.336  0.3292 -0.5000 -1.3133
    9CHL1   H4B  599   2.941   0.503   5.278  0.3472  1.7328  4.0242
    9CHL1    C5  600   3.107   0.415   5.170  0.1372  0.5381 -0.4592
    9CHL1    C6  601   3.068   0.467   5.050  0.2691 -1.3709 -0.0874
    9CHL1    H6  602   2.969   0.510   5.027  0.2351 -1.5189 -0.2211
    9CHL1    C7  603   3.151   0.445   4.928 -0.0331 -0.3963 -0.0120
    9CHL1   H7A  604   3.079   0.419   4.848  1.0662 -0.6907 -0.9273
    9CHL1   H7B  605   3.208   0.534   4.892  1.9453 -0.9256  1.6025
    9CHL1    C8  606   3.240   0.318   4.940  0.2466  0.3380 -0.2744
    9CHL1    H8  607   3.175   0.228   4.944 -0.0755  0.5910  0.2771
    9CHL1   C14  608   3.334   0.322   4.822 -0.0181 -0.3700 -0.4821
    9CHL1   H14  609   3.397   0.413   4.812 -1.1188  0.4423 -0.2933
    9CHL1   C15  610   3.275   0.340   4.677 -1.7526 -0.1029 -0.5908
    9CHL1  H15A  611   3.191   0.270   4.656 -1.9735 -0.6479  1.8082
    9CHL1  H15B  612   3.240   0.442   4.651  1.9888  1.5565  0.2034
    9CHL1   C16  613   3.390   0.300   4.584  0.9212 -0.2300  0.0852
    9CHL1  H16A  614   3.353   0.224   4.513 -0.9321  1.7775 -1.2220
    9CHL1  H16B  615   3.431   0.378   4.515  0.1851  0.0649 -0.0320
    9CHL1   C17  616   3.492   0.241   4.681  0.0214  0.4747  0.4243
    9CHL1   H17  617   3.558   0.327   4.705 -1.5932  1.1791  2.6920
    9CHL1   C13  618   3.427   0.212   4.821 -0.5289  0.6281  0.4964
    9CHL1   C18  619   3.356   0.069   4.815  0.2709  0.1185  0.2594
    9CHL1  H18A  620   3.283   0.058   4.898 -1.0919 -0.1032 -0.9302
    9CHL1  H18B  621   3.296   0.061   4.722 -0.9957  1.0211  0.9601
    9CHL1  H18C  622   3.428  -0.013   4.835  0.2555  0.8619  4.2153
    9CHL1   C12  623   3.524   0.217   4.939 -0.6695 -0.4882 -0.4072
    9CHL1  H12A  624   3.605   0.142   4.947  1.9319  2.2935  1.7691
    9CHL1  H12B  625   3.579   0.314   4.938  1.1423 -1.3778  2.2195
    9CHL1   C11  626   3.446   0.232   5.071  0.1568  0.4004 -0.5801
    9CHL1  H11A  627   3.418   0.127   5.093  0.4383  0.5863  0.7624
    9CHL1  H11B  628   3.520   0.259   5.150  2.5887  0.8214 -2.8640
    9CHL1    C9  629   3.324   0.329   5.068  0.3786  0.1000  0.3935
    9CHL1    H9  630   3.365   0.432   5.062 -0.6685  0.4460 -1.5172
    9CHL1   C10  631   3.235   0.326   5.194  0.5005 -1.0342  0.4605
    9CHL1   C19  632   3.179   0.187   5.228 -0.3497 -0.3812 -0.2016
    9CHL1  H19A  633   3.087   0.154   5.175  0.7491 -0.5712 -2.0732
    9CHL1  H19B  634   3.257   0.109   5.217 -0.5273 -0.4386 -1.0561
    9CHL1  H19C  635   3.154   0.188   5.336  1.4613  0.4933  0.2608
    9CHL1    C1  636   3.322   0.391   5.310  0.5480  0.4877  0.3094
    9CHL1   H1A  637   3.397   0.317   5.346 -1.1214 -1.0238  0.8674
    9CHL1   H1B  638   3.373   0.476   5.261  2.5095 -1.2148 -0.7592
    9CHL1    C2  639   3.241   0.418   5.436  0.2165  0.1034  0.4477
    9CHL1   H2A  640   3.298   0.476   5.512 -1.2261  1.9647  0.1890
    9CHL1   H2B  641   3.209   0.327   5.491  0.8590  0.1617  0.9313
    9CHL1   C20  642   3.588   0.144   4.613  0.8712  0.2948 -0.0025
    9CHL1   H20  643   3.627   0.082   4.696  0.6685 -0.4813 -0.4691
    9CHL1   C21  644   3.719   0.216   4.570  0.3306 -0.3783 -0.7669
    9CHL1  H21A  645   3.789   0.141   4.528 -0.5295 -1.2852 -0.6043
    9CHL1  H21B  646   3.761   0.282   4.649  0.9925  1.4214 -2.5535
    9CHL1  H21C  647   3.693   0.288   4.490 -2.5616  1.3796  1.5135
    9CHL1   C22  648   3.536   0.048   4.502 -0.3980 -0.5816  0.8550
    9CHL1  H22A  649   3.433   0.007   4.514 -1.2544 -0.5753 -4.1359
    9CHL1  H22B  650   3.529   0.106   4.407  0.2504 -0.5590  0.8139
    9CHL1   C23  651   3.627  -0.072   4.469 -0.6325  0.7616 -0.4324
    9CHL1  H23A  652   3.576  -0.133   4.391 -0.5185 -1.6899  1.2934
    9CHL1  H23B  653   3.726  -0.036   4.435  0.2341  0.6634  1.8724
    9CHL1   C24  654   3.649  -0.153   4.600  1.1074 -0.1196  0.2408
    9CHL1  H24A  655   3.695  -0.102   4.687 -0.0024 -1.6372  1.7916
    9CHL1  H24B  656   3.546  -0.183   4.629 -0.1950  0.5655 -3.1578
    9CHL1   C25  657   3.733  -0.285   4.576  0.8888  0.4811  0.0439
    9CHL1   H25  658   3.687  -0.333   4.486 -0.7927  0.8843  0.6606
    9CHL1   C26  659   3.881  -0.271   4.552  0.3710 -0.2455 -0.4499
    9CHL1  H26A  660   3.910  -0.226   4.455  1.9777 -1.2136 -0.4600
    9CHL1  H26B  661   3.929  -0.222   4.639  1.6944 -0.6151 -0.9417
    9CHL1  H26C  662   3.931  -0.371   4.551  0.8314 -0.0177 -0.6795
    9CHL1   C27  663   3.714  -0.375   4.693  0.3097  0.0113 -0.2246
    9CHL1  H27A  664   3.778  -0.466   4.686  0.7156  0.3099 -0.3924
    9CHL1  H27B  665   3.749  -0.317   4.781 -2.2376  0.7864  0.3610
    9CHL1  H27C  666   3.608  -0.396   4.717 -0.1868  0.6149 -1.8010
   10CHL1    C3  667   2.424   2.013   5.878 -0.8219 -0.7244 -0.0918
   10CHL1    H3  668   2.456   1.908   5.866  1.0522 -0.7850  3.8744
   10CHL1    O3  669   2.406   2.039   6.019 -0.0477  0.3433  0.1056
   10CHL1   H3'  670   2.416   2.135   6.023  0.2007  0.2978  0.8423
   10CHL1    C4  671   2.528   2.109   5.818 -0.6112  0.6200  0.4434
   10CHL1   H4A  672   2.508   2.214   5.847  1.5832  1.5226 -1.0040
   10CHL1   H4B  673   2.620   2.074   5.868 -0.4747 -0.5796 -0.5847
   10CHL1    C5  674   2.544   2.112   5.665 -0.3184  0.2688  0.0154
   10CHL1    C6  675   2.661   2.108   5.603  0.1067 -0.3408  0.8781
   10CHL1    H6  676   2.758   2.101   5.653 -0.0170  0.1613  1.1909
   10CHL1    C7  677   2.670   2.107   5.452  0.4495 -0.1443 -0.2049
   10CHL1   H7A  678   2.752   2.180   5.435  0.0345  0.9680  2.1632
   10CHL1   H7B  679   2.694   2.001   5.429 -1.6338 -0.2384 -2.3335
   10CHL1    C8  680   2.542   2.161   5.378  0.5482  0.6152 -0.1921
   10CHL1    H8  681   2.531   2.271   5.392 -2.7417  0.1689  1.7310
   10CHL1   C14  682   2.547   2.126   5.229 -0.0008 -1.4846  0.6568
   10CHL1   H14  683   2.539   2.017   5.211  0.2557 -1.2350 -1.1509
   10CHL1   C15  684   2.680   2.156   5.153 -0.0328  0.1246  0.0016
   10CHL1  H15A  685   2.724   2.253   5.185 -1.4400  0.5978  0.5896
   10CHL1  H15B  686   2.756   2.078   5.173 -0.2423 -1.0989 -3.3095
   10CHL1   C16  687   2.632   2.159   5.006 -0.1751  0.0978  0.0282
   10CHL1  H16A  688   2.640   2.254   4.949 -2.3194 -0.8462 -2.0200
   10CHL1  H16B  689   2.684   2.079   4.949  1.2923 -0.4894  2.0802
   10CHL1   C17  690   2.478   2.132   5.002 -0.4964 -0.5548  0.2586
   10CHL1   H17  691   2.457   2.024   4.988 -0.7655 -0.7183  1.7768
   10CHL1   C13  692   2.430   2.175   5.143 -0.0091 -0.3717  0.2118
   10CHL1   C18  693   2.401   2.330   5.140  0.0895 -0.0805 -0.7608
   10CHL1  H18A  694   2.485   2.392   5.103 -1.8193  1.6894 -2.4168
   10CHL1  H18B  695   2.311   2.358   5.080 -0.4969 -0.8554 -0.2720
   10CHL1  H18C  696   2.389   2.366   5.244 -0.6777  0.8470 -1.1508
   10CHL1   C12  697   2.307   2.100   5.204  0.1132  0.1169 -0.9165
   10CHL1  H12A  698   2.209   2.139   5.169 -0.7870 -0.8607  0.4109
   10CHL1  H12B  699   2.309   1.999   5.158  1.0526  0.0477 -0.7514
   10CHL1   C11  700   2.295   2.116   5.360 -0.0103  0.1805 -0.2392
   10CHL1  H11A  701   2.258   2.220   5.372 -1.1554 -0.2555  0.1459
   10CHL1  H11B  702   2.219   2.041   5.393 -0.7133  1.7277  1.9083
   10CHL1    C9  703   2.427   2.087   5.436  0.0511  0.0258 -0.6233
   10CHL1    H9  704   2.442   1.977   5.428  3.0572  0.2896 -0.0676
   10CHL1   C10  705   2.413   2.119   5.590  0.1844 -0.2855  0.2311
   10CHL1   C19  706   2.349   2.258   5.607 -0.1908  0.2211 -0.3787
   10CHL1  H19A  707   2.392   2.326   5.530  0.0065  0.3307 -0.1731
   10CHL1  H19B  708   2.238   2.257   5.604 -0.2909 -2.1283  1.3434
   10CHL1  H19C  709   2.383   2.312   5.699  0.3329  0.2289 -0.5727
   10CHL1    C1  710   2.310   2.021   5.655 -0.1604  0.6495  0.1539
   10CHL1   H1A  711   2.211   2.027   5.605 -0.2919 -1.3847  0.0960
   10CHL1   H1B  712   2.335   1.914   5.640 -0.9540  0.6510 -1.4870
   10CHL1    C2  713   2.295   2.041   5.801  0.7134  0.1857  0.4497
   10CHL1   H2A  714   2.219   1.972   5.846 -1.5179  0.6048 -2.4128
   10CHL1   H2B  715   2.258   2.136   5.845  0.4883  0.7656 -0.9493
   10CHL1   C20  716   2.409   2.197   4.875  0.0982  0.5838 -0.1247
   10CHL1   H20  717   2.415   2.307   4.894  1.1692  0.7527 -1.3354
   10CHL1   C21  718   2.268   2.141   4.864 -0.7479 -0.0241 -0.2622
   10CHL1  H21A  719   2.224   2.184   4.771 -1.7852 -0.1790  0.1472
   10CHL1  H21B  720   2.205   2.181   4.946  0.3399  0.1350  0.5127
   10CHL1  H21C  721   2.263   2.030   4.876  1.2204  0.1262  2.7625
   10CHL1   C22  722   2.495   2.169   4.750 -0.0987 -0.1758  0.2661
   10CHL1  H22A  723   2.453   2.229   4.666 -0.3579 -2.2882 -1.2123
   10CHL1  H22B  724   2.598   2.207   4.768 -0.4824  1.6369 -1.0501
   10CHL1   C23  725   2.487   2.025   4.695  0.0714  0.0588 -0.4291
   10CHL1  H23A  726   2.521   1.952   4.771  1.6442  0.7683 -0.4090
   10CHL1  H23B  727   2.383   1.991   4.675  1.0517 -1.0554 -4.9321
   10CHL1   C24  728   2.547   1.995   4.559 -0.7737 -0.0716  0.2996
   10CHL1  H24A  729   2.495   1.909   4.512  0.9305 -0.2762 -1.3479
   10CHL1  H24B  730   2.523   2.077   4.488  0.0132 -0.5857 -0.5879
   10CHL1   C25  731   2.694   1.958   4.556  0.2445  0.4988  0.2868
   10CHL1   H25  732   2.755   2.036   4.607  0.7461  2.2420 -2.7120
   10CHL1   C26  733   2.724   1.823   4.623  0.0866  0.7228 -0.1290
   10CHL1  H26A  734   2.825   1.789   4.591  0.2123  0.9309  0.0431
   10CHL1  H26B  735   2.740   1.839   4.732  0.2200 -0.7736  0.0940
   10CHL1  H26C  736   2.646   1.745   4.611  2.2206 -1.4752 -0.6361
   10CHL1   C27  737   2.733   1.957   4.410  0.0826  0.2347  0.4614
   10CHL1  H27A  738   2.675   1.881   4.352 -1.4257 -0.2394  2.4665
   10CHL1  H27B  739   2.712   2.060   4.375  1.9895  0.1985 -0.8912
   10CHL1  H27C  740   2.843   1.942   4.401  0.3494  0.7673  2.3983
   11CHL1    C3  741   0.243   6.748   5.455 -0.1291  0.1168 -0.1378
   11CHL1    H3  742   0.225   6.832   5.385  0.5952  1.7343  1.5347
   11CHL1    O3  743   0.242   6.799   5.592 -0.5347 -0.2228  0.4114
   11CHL1   H3'  744   0.178   6.747   5.642 -0.5188 -0.3025  0.3477
   11CHL1    C4  745   0.142   6.634   5.435 -0.0939 -0.8653 -0.7102
   11CHL1   H4A  746   0.163   6.553   5.507  2.9579 -0.8201 -1.4201
   11CHL1   H4B  747   0.047   6.686   5.460  0.2737 -0.2503 -0.5806
   11CHL1    C5  748   0.141   6.585   5.293 -0.1800 -0.2294  0.1668
   11CHL1    C6  749   0.032   6.583   5.219  0.1768  0.3919  0.9684
   11CHL1    H6  750  -0.065   6.603   5.268 -0.0045  0.6798  0.5049
   11CHL1    C7  751   0.021   6.540   5.075 -0.2216 -0.1447  0.0486
   11CHL1   H7A  752  -0.067   6.474   5.062 -0.2058 -0.2324  0.3895
   11CHL1   H7B  753   0.015   6.624   5.003 -0.2557  0.8706  1.2162
   11CHL1    C8  754   0.146   6.459   5.028  0.4831  0.8056  0.2685
   11CHL1    H8  755   0.132   6.357   5.072  1.1341 -0.1679 -1.6720
   11CHL1   C14  756   0.154   6.455   4.876  0.3572  0.4071 -0.0639
   11CHL1   H14  757   0.155   6.560   4.840 -0.1891 -0.0607 -1.5133
   11CHL1   C15  758   0.036   6.391   4.804 -0.1256 -0.0701  0.7458
   11CHL1  H15A  759   0.014   6.293   4.851  0.2191 -0.7865 -0.5313
   11CHL1  H15B  760  -0.047   6.463   4.792 -0.0808 -0.2971 -1.2740
   11CHL1   C16  761   0.091   6.351   4.671 -0.6258 -0.3919  0.1281
   11CHL1  H16A  762   0.076   6.241   4.660 -1.2808 -0.5450  2.1462
   11CHL1  H16B  763   0.044   6.392   4.579  0.7063  1.6807  0.2971
   11CHL1   C17  764   0.243   6.378   4.676 -0.0799  0.5543 -0.3557
   11CHL1   H17  765   0.258   6.484   4.646 -3.4350  0.6222 -2.3244
   11CHL1   C13  766   0.282   6.379   4.825  0.0337  0.2258 -0.3682
   11CHL1   C18  767   0.288   6.230   4.876 -0.3209 -0.1332 -0.1071
   11CHL1  H18A  768   0.377   6.188   4.824 -0.0605 -0.8340  0.8749
   11CHL1  H18B  769   0.290   6.226   4.987 -0.4096  0.5769 -0.0738
   11CHL1  H18C  770   0.196   6.170   4.860 -0.6732  0.2009  0.6288
   11CHL1   C12  771   0.399   6.463   4.863 -0.0945  0.2665 -0.9041
   11CHL1  H12A  772   0.489   6.410   4.825 -0.0729 -0.7900  0.5339
   11CHL1  H12B  773   0.382   6.563   4.818 -2.3865 -0.8956 -2.8800
   11CHL1   C11  774   0.414   6.474   5.014  1.0578 -0.2404 -0.5567
   11CHL1  H11A  775   0.442   6.375   5.055 -1.1388  0.0660  1.9748
   11CHL1  H11B  776   0.499   6.540   5.041  0.8527 -1.0676  2.4972
   11CHL1    C9  777   0.276   6.523   5.080  0.1309  0.0858 -0.0194
   11CHL1    H9  778   0.268   6.626   5.038  0.5870  0.0628 -0.1654
   11CHL1   C10  779   0.280   6.548   5.234  0.3143  0.9007  0.4656
   11CHL1   C19  780   0.316   6.410   5.295 -0.6888 -0.4465 -0.5385
   11CHL1  H19A  781   0.339   6.413   5.404 -0.2890 -1.0179 -0.6046
   11CHL1  H19B  782   0.222   6.352   5.298 -0.4173 -0.8329  1.2579
   11CHL1  H19C  783   0.409   6.361   5.260  1.1004  0.7301  2.2034
   11CHL1    C1  784   0.381   6.660   5.264  0.1250  0.2114  0.2069
   11CHL1   H1A  785   0.481   6.623   5.235  0.0439  0.0348  0.1532
   11CHL1   H1B  786   0.359   6.743   5.193 -2.3787  1.0605  1.8263
   11CHL1    C2  787   0.384   6.710   5.409 -0.5265  0.4825  0.0666
   11CHL1   H2A  788   0.448   6.798   5.430  0.1654 -0.5124  2.4979
   11CHL1   H2B  789   0.421   6.621   5.465 -0.3843 -0.0568 -0.8602
   11CHL1   C20  790   0.338   6.305   4.576 -0.5841 -0.2657 -0.0129
   11CHL1   H20  791   0.437   6.285   4.621  1.2088  0.8991 -3.1476
   11CHL1   C21  792   0.366   6.398   4.456  0.4199 -0.3474  0.0604
   11CHL1  H21A  793   0.409   6.496   4.487 -3.5849  1.0843  1.7787
   11CHL1  H21B  794   0.267   6.422   4.411  0.2843 -1.3129 -0.1663
   11CHL1  H21C  795   0.435   6.358   4.379  2.2036  1.7143  0.4745
   11CHL1   C22  796   0.274   6.170   4.526  0.2613  0.0858  0.0386
   11CHL1  H22A  797   0.241   6.108   4.612  1.0425 -1.9989 -1.0873
   11CHL1  H22B  798   0.185   6.192   4.463 -1.2619  0.2198  2.1248
   11CHL1   C23  799   0.366   6.083   4.439 -0.6487  0.3957  0.4102
   11CHL1  H23A  800   0.431   6.147   4.376 -0.2130  0.3400  0.7988
   11CHL1  H23B  801   0.431   6.017   4.499 -0.1039 -0.8465 -1.4697
   11CHL1   C24  802   0.276   5.997   4.343 -0.3912 -1.0693 -0.2569
   11CHL1  H24A  803   0.196   5.938   4.391 -0.0213 -3.6809 -2.5824
   11CHL1  H24B  804   0.231   6.074   4.276  0.2305 -0.5800 -0.1304
   11CHL1   C25  805   0.357   5.903   4.255  0.1193  0.3163 -0.4749
   11CHL1   H25  806   0.437   5.955   4.198  0.6794 -0.6956 -0.6355
   11CHL1   C26  807   0.428   5.793   4.332 -0.3774 -0.3771 -0.4523
   11CHL1  H26A  808   0.350   5.748   4.397  0.1255 -1.1029 -0.3545
   11CHL1  H26B  809   0.469   5.718   4.262 -0.1171 -1.0014  0.3627
   11CHL1  H26C  810   0.505   5.833   4.401 -1.1008  0.9058 -0.3415
   11CHL1   C27  811   0.263   5.835   4.158  0.2119 -0.2203 -0.2513
   11CHL1  H27A  812   0.321   5.756   4.106  1.3137  1.3554 -1.5116
   11CHL1  H27B  813   0.177   5.794   4.216  1.2723 -0.1356  1.4450
   11CHL1  H27C  814   0.229   5.906   4.079  1.2095  0.5150 -0.0368
   12CHL1    C3  815   1.244   4.969   5.826 -0.6882 -0.6173  0.1267
   12CHL1    H3  816   1.220   4.868   5.785 -0.3064 -0.5248 -0.3315
   12CHL1    O3  817   1.194   4.966   5.958  0.3156  0.8383  0.5336
   12CHL1   H3'  818   1.196   5.060   5.978  1.1561  0.9234  0.1143
   12CHL1    C4  819   1.393   4.989   5.828 -0.0407  0.0670  0.2787
   12CHL1   H4A  820   1.410   5.085   5.881 -0.2713  1.0288 -1.3300
   12CHL1   H4B  821   1.439   4.910   5.891  1.1857  1.7520  1.6007
   12CHL1    C5  822   1.452   4.991   5.687  0.1924 -0.1353 -0.6168
   12CHL1    C6  823   1.535   4.898   5.636  0.3058 -0.1883  0.7372
   12CHL1    H6  824   1.567   4.809   5.692 -1.8918 -2.5616 -1.5201
   12CHL1    C7  825   1.594   4.908   5.496 -0.6473 -0.1728  0.2535
   12CHL1   H7A  826   1.703   4.895   5.515 -0.7793  0.2287  1.4240
   12CHL1   H7B  827   1.554   4.817   5.448  2.6002 -2.3946  1.3861
   12CHL1    C8  828   1.570   5.038   5.416 -0.3227 -0.1366  0.0317
   12CHL1    H8  829   1.646   5.115   5.443 -0.2561 -0.0184 -0.4802
   12CHL1   C14  830   1.574   5.011   5.267  0.3940 -0.1545  0.3175
   12CHL1   H14  831   1.490   4.940   5.251 -1.4084  2.2337 -1.7025
   12CHL1   C15  832   1.686   4.927   5.207  0.3945 -0.4116 -0.6031
   12CHL1  H15A  833   1.788   4.965   5.232  0.3732  2.0092 -3.6457
   12CHL1  H15B  834   1.687   4.823   5.246  1.4313 -0.2795 -0.2356
   12CHL1   C16  835   1.659   4.942   5.055 -0.3993  0.0084 -0.1786
   12CHL1  H16A  836   1.755   4.986   5.020  0.6601 -1.9236  0.1049
   12CHL1  H16B  837   1.627   4.852   4.997 -2.3815 -1.0015  2.2873
   12CHL1   C17  838   1.550   5.053   5.036  1.2369  0.3006 -0.8797
   12CHL1   H17  839   1.455   4.996   5.033  0.8520  0.8526  0.1635
   12CHL1   C13  840   1.533   5.130   5.170 -0.0160  0.5801  0.8432
   12CHL1   C18  841   1.645   5.239   5.181 -0.3677  0.2011  0.8234
   12CHL1  H18A  842   1.636   5.298   5.087 -1.0323 -0.1339  0.6728
   12CHL1  H18B  843   1.654   5.303   5.271  2.0857  0.1528  0.6880
   12CHL1  H18C  844   1.738   5.181   5.166 -0.9709 -0.2992 -1.4487
   12CHL1   C12  845   1.390   5.172   5.208 -0.0924  0.2271  0.2049
   12CHL1  H12A  846   1.384   5.269   5.153 -0.9010 -0.8088 -1.6250
   12CHL1  H12B  847   1.310   5.101   5.179  1.4064 -2.0030  1.2657
   12CHL1   C11  848   1.387   5.201   5.359 -0.2676 -0.0185  0.1113
   12CHL1  H11A  849   1.443   5.296   5.374 -0.9255  0.2839  0.7248
   12CHL1  H11B  850   1.280   5.222   5.381  0.1318  1.6984  0.5501
   12CHL1    C9  851   1.429   5.084   5.448  0.2493  0.2135 -0.3822
   12CHL1    H9  852   1.358   5.005   5.417  1.7405 -0.7549 -1.4511
   12CHL1   C10  853   1.386   5.102   5.598 -0.8653 -0.5638 -0.3607
   12CHL1   C19  854   1.441   5.236   5.656 -0.4251  0.5487 -0.1760
   12CHL1  H19A  855   1.419   5.327   5.598  0.3056  1.0084  0.2482
   12CHL1  H19B  856   1.406   5.245   5.761 -0.0583 -0.5569  0.0610
   12CHL1  H19C  857   1.552   5.232   5.666 -0.3902 -1.4202 -0.9676
   12CHL1    C1  858   1.234   5.099   5.609  0.3033  0.4533  0.7674
   12CHL1   H1A  859   1.186   5.190   5.568  0.1410  0.6626  1.4008
   12CHL1   H1B  860   1.195   5.009   5.556  0.2281  1.3178 -0.6912
   12CHL1    C2  861   1.173   5.083   5.755  0.7804  0.2259 -0.0345
   12CHL1   H2A  862   1.066   5.056   5.746  0.7680  0.0935  0.4630
   12CHL1   H2B  863   1.169   5.181   5.807  0.6872 -0.1180  0.6295
   12CHL1   C20  864   1.568   5.126   4.900 -0.6567  0.7687 -0.0742
   12CHL1   H20  865   1.660   5.187   4.901  0.4741 -0.7778 -2.0863
   12CHL1   C21  866   1.453   5.219   4.878 -0.9336 -0.0173 -0.7720
   12CHL1  H21A  867   1.441   5.301   4.953  0.8175  0.2585 -0.7350
   12CHL1  H21B  868   1.358   5.163   4.873 -1.2322  0.2127  1.2538
   12CHL1  H21C  869   1.476   5.282   4.789 -3.0060  2.6304  0.4025
   12CHL1   C22  870   1.591   5.031   4.781 -0.1540 -0.0498  0.7287
   12CHL1  H22A  871   1.666   4.951   4.801  0.7668  0.9262  1.3215
   12CHL1  H22B  872   1.493   4.981   4.769 -1.3451  1.4181  3.4621
   12CHL1   C23  873   1.642   5.098   4.648 -0.1721 -0.3633 -0.5953
   12CHL1  H23A  874   1.560   5.163   4.613  1.9565  1.5528 -2.3621
   12CHL1  H23B  875   1.726   5.161   4.685 -1.9564  1.2509  0.8821
   12CHL1   C24  876   1.675   5.003   4.531 -0.2739  0.0583 -0.0066
   12CHL1  H24A  877   1.752   4.933   4.569 -0.6852  0.0360  0.7927
   12CHL1  H24B  878   1.583   4.947   4.504 -0.6878 -0.1912  1.8387
   12CHL1   C25  879   1.736   5.069   4.404  0.0444 -0.0451 -0.1174
   12CHL1   H25  880   1.825   5.120   4.448  1.1175 -0.5067 -1.6540
   12CHL1   C26  881   1.779   4.971   4.294 -0.3363 -0.4376 -0.2481
   12CHL1  H26A  882   1.824   4.877   4.332 -0.2689 -0.2265  0.1924
   12CHL1  H26B  883   1.691   4.945   4.232  0.7134  0.3754 -2.1746
   12CHL1  H26C  884   1.850   5.020   4.223 -2.6126 -0.8556 -2.9712
   12CHL1   C27  885   1.651   5.184   4.345 -0.5202 -0.6672  0.3117
   12CHL1  H27A  886   1.567   5.136   4.291 -1.2229 -1.3482  1.9532
   12CHL1  H27B  887   1.612   5.261   4.414 -0.7840  0.3573 -0.9360
   12CHL1  H27C  888   1.709   5.236   4.265 -2.6468  2.0072  0.3903
   13CHL1    C3  889   6.334   6.256   6.025 -0.1310 -0.8393 -0.4313
   13CHL1    H3  890   6.229   6.291   6.022  0.3234  0.6137 -0.5317
   13CHL1    O3  891   6.369   6.203   6.153  0.4679 -0.0012 -0.2101
   13CHL1   H3'  892   6.456   6.233   6.179  0.3760 -0.2542  0.4256
   13CHL1    C4  893   6.361   6.142   5.922  0.3596  0.4403 -0.1663
   13CHL1   H4A  894   6.467   6.110   5.931  0.3589  0.5584  0.2942
   13CHL1   H4B  895   6.294   6.057   5.945  0.4303  1.1676  3.3470
   13CHL1    C5  896   6.343   6.181   5.771 -0.6630  0.0361 -1.1520
   13CHL1    C6  897   6.275   6.101   5.691 -1.0124 -0.6381  0.3526
   13CHL1    H6  898   6.218   6.016   5.734 -1.6097  0.3323  1.5308
   13CHL1    C7  899   6.263   6.133   5.543  0.5658  0.5967  0.7091
   13CHL1   H7A  900   6.292   6.050   5.476  2.2775  0.8205  1.1270
   13CHL1   H7B  901   6.159   6.169   5.526 -0.1064 -1.8523 -0.7883
   13CHL1    C8  902   6.366   6.238   5.490  0.4702  0.8973 -0.2836
   13CHL1    H8  903   6.462   6.187   5.467  1.6453  3.5489 -1.6839
   13CHL1   C14  904   6.315   6.297   5.356 -0.0696  0.3201  0.5726
   13CHL1   H14  905   6.214   6.333   5.386 -0.5430  0.3767 -1.0103
   13CHL1   C15  906   6.283   6.200   5.241 -0.9155 -0.2269  0.7357
   13CHL1  H15A  907   6.366   6.129   5.226  1.6838  2.4958  1.1520
   13CHL1  H15B  908   6.187   6.149   5.263 -1.5037  0.7808  0.5484
   13CHL1   C16  909   6.266   6.288   5.116 -0.0201  0.4268 -0.1165
   13CHL1  H16A  910   6.332   6.241   5.040 -0.2521 -2.2131  1.2048
   13CHL1  H16B  911   6.161   6.289   5.081 -0.3040  1.3655  0.6979
   13CHL1   C17  912   6.318   6.428   5.158  0.2922  0.3725 -0.5352
   13CHL1   H17  913   6.229   6.483   5.196  2.1962  3.4204 -0.1996
   13CHL1   C13  914   6.398   6.409   5.293 -0.3725  0.0336  0.7520
   13CHL1   C18  915   6.548   6.352   5.271  0.8912  0.3924  0.3774
   13CHL1  H18A  916   6.622   6.433   5.250  0.9400  0.4215  0.6601
   13CHL1  H18B  917   6.578   6.284   5.353 -1.9028 -0.9102  0.4553
   13CHL1  H18C  918   6.555   6.278   5.189  2.3542  0.9825 -0.0603
   13CHL1   C12  919   6.410   6.527   5.392 -0.1282 -0.6513  0.0668
   13CHL1  H12A  920   6.486   6.598   5.353 -1.5326  1.2808  0.7055
   13CHL1  H12B  921   6.313   6.579   5.406 -1.6411 -3.4555  0.9192
   13CHL1   C11  922   6.465   6.470   5.534 -0.0665 -0.7842  0.3295
   13CHL1  H11A  923   6.568   6.438   5.507  0.0837 -0.8972  1.0206
   13CHL1  H11B  924   6.460   6.563   5.596  1.0133  0.8005 -1.8502
   13CHL1    C9  925   6.382   6.354   5.594 -0.2202  0.0842 -0.2362
   13CHL1    H9  926   6.281   6.398   5.606 -0.1412  0.5032 -0.9963
   13CHL1   C10  927   6.419   6.310   5.740  0.0015 -0.6992  0.1207
   13CHL1   C19  928   6.565   6.268   5.729 -1.3185 -0.2819  1.1598
   13CHL1  H19A  929   6.622   6.359   5.702 -2.1690 -0.0314  0.1316
   13CHL1  H19B  930   6.596   6.219   5.824 -2.1542  1.4014  2.3782
   13CHL1  H19C  931   6.588   6.198   5.647 -0.7821  1.0726  0.1084
   13CHL1    C1  932   6.399   6.420   5.849  0.5075  0.3573  0.2298
   13CHL1   H1A  933   6.456   6.512   5.824  1.8126 -0.4839 -0.0335
   13CHL1   H1B  934   6.290   6.436   5.838 -0.2801 -3.5972  0.6690
   13CHL1    C2  935   6.417   6.378   5.994 -0.7042 -0.0840  0.7467
   13CHL1   H2A  936   6.409   6.465   6.062  2.0339  0.7263  0.1641
   13CHL1   H2B  937   6.527   6.359   6.000 -0.6095 -0.7723 -1.8726
   13CHL1   C20  938   6.371   6.505   5.040  0.1982  0.3405 -0.4075
   13CHL1   H20  939   6.457   6.449   4.997 -0.2322  0.5528 -1.5818
   13CHL1   C21  940   6.426   6.637   5.087  0.4999  0.2197  0.2843
   13CHL1  H21A  941   6.345   6.682   5.149 -0.6573  0.1712 -1.1246
   13CHL1  H21B  942   6.438   6.695   4.993 -2.7616 -0.3357 -0.6350
   13CHL1  H21C  943   6.521   6.639   5.144  1.1360  0.6528 -0.7540
   13CHL1   C22  944   6.290   6.526   4.910  0.6254 -0.4240  0.0198
   13CHL1  H22A  945   6.215   6.444   4.906  0.4406 -0.2104 -1.8230
   13CHL1  H22B  946   6.236   6.624   4.914  0.6349 -0.4229  0.1384
   13CHL1   C23  947   6.358   6.521   4.771 -0.5308  0.2265 -0.1257
   13CHL1  H23A  948   6.449   6.586   4.765  0.0198 -0.4469  0.7858
   13CHL1  H23B  949   6.390   6.417   4.750  0.0047 -0.0088  1.7284
   13CHL1   C24  950   6.259   6.565   4.663 -0.1554  0.5900 -0.0398
   13CHL1  H24A  951   6.190   6.478   4.654  1.0504 -0.6307  1.8323
   13CHL1  H24B  952   6.212   6.664   4.686 -2.8003 -0.7204  0.6633
   13CHL1   C25  953   6.326   6.570   4.522  0.6985 -0.2232  0.1672
   13CHL1   H25  954   6.378   6.668   4.522  0.6089 -0.1151  2.3338
   13CHL1   C26  955   6.430   6.452   4.490  0.3732  0.0523  0.5737
   13CHL1  H26A  956   6.479   6.469   4.392 -1.5931 -1.6484 -0.7825
   13CHL1  H26B  957   6.508   6.457   4.569  2.3520  2.0003 -1.3420
   13CHL1  H26C  958   6.385   6.351   4.489  0.4087 -0.0544  3.0835
   13CHL1   C27  959   6.221   6.580   4.402  0.4893 -0.0456 -0.1002
   13CHL1  H27A  960   6.147   6.660   4.421  0.0469 -0.7207  1.1501
   13CHL1  H27B  961   6.278   6.596   4.308  0.5272  1.8383  0.2079
   13CHL1  H27C  962   6.154   6.491   4.398 -0.1480  0.4881 -2.0299
   14CHL1    C3  963   6.285   2.790   5.851 -0.2752 -0.0324  0.7973
   14CHL1    H3  964   6.284   2.900   5.834 -0.8974 -0.3376 -1.4891
   14CHL1    O3  965   6.201   2.754   5.964  0.6328 -0.2857 -0.0542
   14CHL1   H3'  966   6.228   2.665   5.986  0.0851 -0.4755 -0.1300
   14CHL1    C4  967   6.217   2.731   5.727  0.5051  0.2501  0.3802
   14CHL1   H4A  968   6.198   2.622   5.738 -0.6866  0.1942 -1.6450
   14CHL1   H4B  969   6.114   2.772   5.717  0.1778 -0.2008  1.7277
   14CHL1    C5  970   6.304   2.744   5.600  0.2922  0.2227  0.4204
   14CHL1    C6  971   6.265   2.797   5.488 -0.3825  0.7957 -0.5910
   14CHL1    H6  972   6.166   2.845   5.481 -0.7071  0.2466  0.0463
   14CHL1    C7  973   6.341   2.786   5.357  0.2201 -0.0745 -0.0589
   14CHL1   H7A  974   6.275   2.734   5.285  0.7167  1.4911 -1.7071
   14CHL1   H7B  975   6.374   2.883   5.314  0.5792 -1.2582 -2.6276
   14CHL1    C8  976   6.475   2.709   5.367  0.4959  0.1648 -0.0619
   14CHL1    H8  977   6.441   2.603   5.361 -0.0560  0.3928 -1.7546
   14CHL1   C14  978   6.560   2.741   5.252 -0.1052 -0.6058 -0.2382
   14CHL1   H14  979   6.591   2.847   5.268 -0.2251 -0.6588  0.3734
   14CHL1   C15  980   6.493   2.731   5.111 -0.8674  0.7555  0.3381
   14CHL1  H15A  981   6.435   2.637   5.104  0.3966 -0.1435  1.3410
   14CHL1  H15B  982   6.420   2.812   5.088 -1.0498  1.2495  2.4071
   14CHL1   C16  983   6.613   2.727   5.015  0.0110 -0.0550  0.3785
   14CHL1  H16A  984   6.599   2.636   4.951  0.7640 -0.4605  0.7789
   14CHL1  H16B  985   6.632   2.818   4.954  2.3057 -0.2692  0.6590
   14CHL1   C17  986   6.739   2.701   5.105  0.3687  0.4885 -0.6136
   14CHL1   H17  987   6.783   2.802   5.118  0.5028  0.2432  0.9452
   14CHL1   C13  988   6.694   2.659   5.250  0.2373 -0.8386  0.3215
   14CHL1   C18  989   6.662   2.511   5.244  0.5225 -0.1546  0.4701
   14CHL1  H18A  990   6.590   2.483   5.164  0.7778  0.4397  0.0261
   14CHL1  H18B  991   6.749   2.445   5.223  0.4314  0.2659 -1.4443
   14CHL1  H18C  992   6.615   2.476   5.338  0.4506 -0.7483  0.2186
   14CHL1   C12  993   6.771   2.702   5.377 -1.1073  0.5174  0.8894
   14CHL1  H12A  994   6.868   2.648   5.378 -0.2092  1.9722 -1.1328
   14CHL1  H12B  995   6.795   2.808   5.356  1.5412 -0.5617 -2.6821
   14CHL1   C11  996   6.688   2.682   5.502  0.0454 -0.2389 -0.4721
   14CHL1  H11A  997   6.698   2.573   5.520  0.7062 -0.2251 -0.7249
   14CHL1  H11B  998   6.736   2.729   5.590  0.9345 -1.4204 -0.3098
   14CHL1    C9  999   6.546   2.739   5.495 -0.1559  0.3844 -0.5529
   14CHL1    H9 1000   6.569   2.847   5.498  0.2393  0.2976 -0.3195
   14CHL1   C10 1001   6.448   2.695   5.617  0.0793 -0.2599 -0.2580
   14CHL1   C19 1002   6.454   2.545   5.634 -0.4008 -0.2246  0.2749
   14CHL1  H19A 1003   6.374   2.498   5.696 -0.8876  0.0392 -0.1461
   14CHL1  H19B 1004   6.441   2.493   5.537 -0.3703 -0.8071  0.5801
   14CHL1  H19C 1005   6.550   2.519   5.683  0.1586  0.1842 -0.5777
   14CHL1    C1 1006   6.508   2.756   5.753 -0.4077 -0.4849 -0.2294
   14CHL1   H1A 1007   6.602   2.704   5.780 -2.0391 -2.7621  1.4660
   14CHL1   H1B 1008   6.514   2.867   5.756 -2.0411 -0.3798  1.5523
   14CHL1    C2 1009   6.429   2.727   5.879  0.2964 -0.0691  0.5848
   14CHL1   H2A 1010   6.484   2.776   5.963 -1.5300  1.9730  0.6759
   14CHL1   H2B 1011   6.414   2.620   5.904  0.4671 -0.1345  0.4063
   14CHL1   C20 1012   6.846   2.608   5.037  0.6603 -0.2180 -0.3450
   14CHL1   H20 1013   6.785   2.516   5.026 -0.9102  0.2593  2.8740
   14CHL1   C21 1014   6.965   2.587   5.129  0.7233 -1.0391  0.9397
   14CHL1  H21A 1015   7.006   2.685   5.161  0.8376 -1.1625  1.1709
   14CHL1  H21B 1016   7.051   2.534   5.083 -0.3066 -2.5619  0.6953
   14CHL1  H21C 1017   6.951   2.521   5.218 -0.3135 -1.5185  0.4434
   14CHL1   C22 1018   6.890   2.651   4.902 -0.2864 -0.1910 -0.4146
   14CHL1  H22A 1019   6.806   2.694   4.843 -1.5216 -0.2133  1.2844
   14CHL1  H22B 1020   6.975   2.723   4.910 -0.0302 -0.4471 -0.7595
   14CHL1   C23 1021   6.933   2.528   4.819  0.1398  0.1978 -0.1389
   14CHL1  H23A 1022   7.014   2.481   4.880  0.8660  1.9311  0.3047
   14CHL1  H23B 1023   6.854   2.450   4.818 -0.0018  0.2552  1.9120
   14CHL1   C24 1024   6.980   2.564   4.686  0.0679  0.2061  0.6343
   14CHL1  H24A 1025   6.902   2.626   4.638 -0.5438 -0.1409  1.1644
   14CHL1  H24B 1026   7.074   2.623   4.690 -0.5970  1.6188 -2.1141
   14CHL1   C25 1027   6.998   2.446   4.592 -0.9452 -0.1678  0.4076
   14CHL1   H25 1028   6.920   2.371   4.616  0.1403 -2.5401 -2.6508
   14CHL1   C26 1029   7.000   2.487   4.443 -0.3477  1.0231  0.1780
   14CHL1  H26A 1030   7.029   2.394   4.389 -0.0651  1.2640 -0.0868
   14CHL1  H26B 1031   6.898   2.519   4.412 -0.0991  0.7528 -0.9348
   14CHL1  H26C 1032   7.073   2.561   4.405  1.1210 -1.2350 -1.7436
   14CHL1   C27 1033   7.128   2.379   4.630 -0.0483  0.9474 -0.4939
   14CHL1  H27A 1034   7.115   2.328   4.728  1.6175 -1.0514 -1.2399
   14CHL1  H27B 1035   7.150   2.291   4.566  2.2533 -1.6744  3.4113
   14CHL1  H27C 1036   7.208   2.455   4.641 -0.0416  0.7749  0.9144
   15CHL1    C3 1037   0.636   3.523   5.787 -0.1801 -0.6694 -0.1119
   15CHL1    H3 1038   0.735   3.493   5.747  0.4514  0.0312  0.8677
   15CHL1    O3 1039   0.656   3.549   5.930  0.3976 -0.0254  0.0029
   15CHL1   H3' 1040   0.595   3.491   5.976 -0.8841  1.8570  0.8242
   15CHL1    C4 1041   0.588   3.657   5.717 -0.2041  0.2209  0.1469
   15CHL1   H4A 1042   0.485   3.672   5.757 -1.2770 -0.2923 -2.2831
   15CHL1   H4B 1043   0.657   3.739   5.747  0.6071 -0.1480 -0.6589
   15CHL1    C5 1044   0.582   3.648   5.560 -0.4630  0.0594 -0.5191
   15CHL1    C6 1045   0.654   3.731   5.475  0.2501  0.1954 -0.1354
   15CHL1    H6 1046   0.723   3.811   5.507  1.8190 -0.3750 -1.9094
   15CHL1    C7 1047   0.623   3.733   5.328 -0.0775 -0.5900 -0.1247
   15CHL1   H7A 1048   0.598   3.837   5.298 -0.8887  0.0728  2.5301
   15CHL1   H7B 1049   0.710   3.698   5.270 -1.6507 -0.4818 -2.6950
   15CHL1    C8 1050   0.506   3.644   5.283 -0.2199 -0.1835  0.0747
   15CHL1    H8 1051   0.409   3.696   5.298  0.9042  2.2862 -0.8145
   15CHL1   C14 1052   0.517   3.607   5.135 -0.3348  0.8553 -0.6908
   15CHL1   H14 1053   0.608   3.543   5.130 -0.0325  0.9331  1.9447
   15CHL1   C15 1054   0.536   3.713   5.027 -0.4147 -0.2849  0.4956
   15CHL1  H15A 1055   0.473   3.804   5.042 -2.5856 -0.8559 -3.5992
   15CHL1  H15B 1056   0.641   3.748   5.022 -0.8974  1.1192 -2.6173
   15CHL1   C16 1057   0.505   3.636   4.897 -0.2466 -0.4700 -0.4653
   15CHL1  H16A 1058   0.418   3.684   4.848  0.1094 -0.0899 -0.7295
   15CHL1  H16B 1059   0.590   3.637   4.825 -0.0961 -1.5124 -0.3201
   15CHL1   C17 1060   0.463   3.486   4.939  0.1145  0.0025  0.5544
   15CHL1   H17 1061   0.557   3.427   4.937 -0.9177 -1.7232  0.8879
   15CHL1   C13 1062   0.409   3.506   5.086 -0.4103 -0.1034  0.2999
   15CHL1   C18 1063   0.274   3.585   5.086  0.0980 -0.0589 -0.0867
   15CHL1  H18A 1064   0.249   3.628   5.185  2.3976  0.2272  0.4364
   15CHL1  H18B 1065   0.287   3.665   5.011 -2.2055  0.9865  0.5432
   15CHL1  H18C 1066   0.194   3.514   5.055  0.1717  0.5569 -1.7991
   15CHL1   C12 1067   0.417   3.373   5.160  0.0457 -0.3362 -0.0784
   15CHL1  H12A 1068   0.348   3.296   5.120 -0.6529 -0.4932  1.3623
   15CHL1  H12B 1069   0.522   3.337   5.153 -0.1038 -0.6954 -0.5658
   15CHL1   C11 1070   0.399   3.403   5.314 -0.4885 -0.3590  0.1666
   15CHL1  H11A 1071   0.290   3.421   5.332 -0.5579  1.3843 -1.6028
   15CHL1  H11B 1072   0.413   3.304   5.363 -1.5968 -2.4496 -3.3664
   15CHL1    C9 1073   0.498   3.513   5.365 -0.4303  0.4248  0.2970
   15CHL1    H9 1074   0.595   3.458   5.360 -0.7977 -0.3585  1.4594
   15CHL1   C10 1075   0.487   3.533   5.515  0.1028 -0.6142 -0.1752
   15CHL1   C19 1076   0.339   3.569   5.539  0.8289  0.6659  0.8452
   15CHL1  H19A 1077   0.277   3.477   5.536  1.0320  0.5579 -0.4197
   15CHL1  H19B 1078   0.320   3.596   5.645  1.2380  0.6467  0.9278
   15CHL1  H19C 1079   0.302   3.651   5.475 -0.6602 -1.2999 -0.9549
   15CHL1    C1 1080   0.520   3.401   5.596 -0.3208 -0.2388 -0.0645
   15CHL1   H1A 1081   0.450   3.321   5.565 -0.1614  0.6311 -3.0308
   15CHL1   H1B 1082   0.620   3.374   5.558  0.3527  2.2316 -0.2069
   15CHL1    C2 1083   0.540   3.404   5.755 -0.4855 -0.0405 -0.1404
   15CHL1   H2A 1084   0.586   3.305   5.772  1.0902  0.8257  0.9109
   15CHL1   H2B 1085   0.438   3.407   5.799 -1.3281 -3.0693 -1.6695
   15CHL1   C20 1086   0.376   3.418   4.831  0.3254 -0.8755  0.4340
   15CHL1   H20 1087   0.271   3.447   4.855  1.3352  2.2031  1.6504
   15CHL1   C21 1088   0.390   3.264   4.828  0.0361 -0.0904 -0.6532
   15CHL1  H21A 1089   0.393   3.221   4.930 -1.9430  0.7610 -0.1894
   15CHL1  H21B 1090   0.483   3.240   4.773  1.1118  0.9262  0.6532
   15CHL1  H21C 1091   0.307   3.207   4.783 -0.1358 -0.0021 -0.4519
   15CHL1   C22 1092   0.403   3.469   4.686 -0.8117 -0.1514 -0.5024
   15CHL1  H22A 1093   0.387   3.579   4.685 -0.7369 -0.0913  1.3534
   15CHL1  H22B 1094   0.504   3.433   4.660 -0.9779 -0.9709 -0.0515
   15CHL1   C23 1095   0.310   3.396   4.582 -0.2503 -0.2137 -0.2362
   15CHL1  H23A 1096   0.311   3.285   4.590 -1.4270 -0.1143  2.1683
   15CHL1  H23B 1097   0.206   3.418   4.615  0.0705  0.1843  0.5339
   15CHL1   C24 1098   0.327   3.448   4.439 -0.4117 -0.4173  0.6922
   15CHL1  H24A 1099   0.334   3.558   4.454  3.9158 -0.6492  1.8716
   15CHL1  H24B 1100   0.424   3.412   4.399 -2.1057 -1.9606 -2.3832
   15CHL1   C25 1101   0.214   3.399   4.340 -0.6632 -0.4228  0.6630
   15CHL1   H25 1102   0.122   3.413   4.401  0.5320  0.0341  2.4365
   15CHL1   C26 1103   0.211   3.489   4.207  0.0787  0.0193  0.7679
   15CHL1  H26A 1104   0.215   3.592   4.247 -2.6115  0.7811 -0.6710
   15CHL1  H26B 1105   0.310   3.461   4.166  0.5720  0.8699  1.3623
   15CHL1  H26C 1106   0.115   3.479   4.151  0.5308 -0.9985  0.1571
   15CHL1   C27 1107   0.220   3.253   4.301  0.2175  0.5130  0.3611
   15CHL1  H27A 1108   0.214   3.194   4.395  0.4891  1.1991  0.8076
   15CHL1  H27B 1109   0.127   3.227   4.245 -0.0467  0.7788  0.6709
   15CHL1  H27C 1110   0.310   3.230   4.240 -0.2924 -0.8818  0.0849
   16CHL1    C3 1111   6.192   0.535   6.480 -0.0628 -0.1239 -0.2885
   16CHL1    H3 1112   6.205   0.426   6.464 -1.5804 -0.0118 -2.7553
   16CHL1    O3 1113   6.215   0.579   6.615  0.4437  0.2353  0.0437
   16CHL1   H3' 1114   6.310   0.594   6.622  0.7982 -1.5293 -0.4324
   16CHL1    C4 1115   6.298   0.603   6.387 -0.4204  0.0904 -0.0533
   16CHL1   H4A 1116   6.311   0.711   6.412  1.4111 -0.5085  1.9446
   16CHL1   H4B 1117   6.400   0.570   6.417 -0.3514  0.0530 -0.3277
   16CHL1    C5 1118   6.276   0.567   6.243  0.8629  0.3134 -0.3856
   16CHL1    C6 1119   6.370   0.501   6.172  0.3196 -1.2694 -0.2830
   16CHL1    H6 1120   6.467   0.478   6.218  0.8026 -0.0758 -0.6631
   16CHL1    C7 1121   6.355   0.487   6.024  0.7935 -0.1270 -0.8958
   16CHL1   H7A 1122   6.443   0.503   5.958  1.6029  1.2840  0.4731
   16CHL1   H7B 1123   6.323   0.384   5.998 -0.6588  0.5918 -2.1310
   16CHL1    C8 1124   6.242   0.583   5.964 -0.8573 -0.9619  0.2585
   16CHL1    H8 1125   6.283   0.686   5.962  0.5367 -1.4936 -1.7528
   16CHL1   C14 1126   6.216   0.541   5.817 -0.1655  0.7247 -0.6309
   16CHL1   H14 1127   6.199   0.431   5.819 -1.8715  0.9757  1.0598
   16CHL1   C15 1128   6.331   0.552   5.718 -0.0951  0.1351 -0.9052
   16CHL1  H15A 1129   6.386   0.646   5.737  0.4654 -0.3509 -0.0159
   16CHL1  H15B 1130   6.399   0.467   5.742 -0.1062  0.3201 -0.1883
   16CHL1   C16 1131   6.263   0.543   5.582  0.4872 -0.0998 -0.6188
   16CHL1  H16A 1132   6.280   0.636   5.523  0.9890  1.0985  1.3211
   16CHL1  H16B 1133   6.305   0.464   5.516 -1.0923 -1.2190 -0.3397
   16CHL1   C17 1134   6.111   0.538   5.604 -0.3575 -0.7096 -0.2245
   16CHL1   H17 1135   6.086   0.430   5.611  3.1570 -1.7895 -1.8600
   16CHL1   C13 1136   6.097   0.603   5.746  0.4996  0.1718 -0.1682
   16CHL1   C18 1137   6.121   0.761   5.741 -0.1957  0.8446  0.6864
   16CHL1  H18A 1138   6.041   0.799   5.674 -1.6343 -0.4981  1.5892
   16CHL1  H18B 1139   6.097   0.807   5.839  0.3421  1.3873  0.5749
   16CHL1  H18C 1140   6.221   0.799   5.710 -0.8096  1.7146 -0.3544
   16CHL1   C12 1141   5.967   0.559   5.826  0.3038 -0.0444  0.0548
   16CHL1  H12A 1142   5.876   0.602   5.780 -0.7686 -0.8323  1.3742
   16CHL1  H12B 1143   5.964   0.448   5.830  0.9247 -0.0530  3.7106
   16CHL1   C11 1144   5.984   0.616   5.970  0.2422  0.3498  0.6432
   16CHL1  H11A 1145   5.977   0.726   5.971  0.3400  0.4506 -2.0995
   16CHL1  H11B 1146   5.894   0.582   6.025 -0.7629 -0.4070 -1.3514
   16CHL1    C9 1147   6.114   0.569   6.047  0.1283 -0.4224 -0.7928
   16CHL1    H9 1148   6.103   0.458   6.048  0.5976 -0.4843 -1.4407
   16CHL1   C10 1149   6.129   0.612   6.196  0.1149  0.0306  0.5715
   16CHL1   C19 1150   6.114   0.765   6.210 -0.4022 -0.2833  0.6087
   16CHL1  H19A 1151   6.164   0.818   6.126  1.6164 -0.9872  1.3288
   16CHL1  H19B 1152   6.007   0.796   6.208 -0.5751 -0.7992  1.3183
   16CHL1  H19C 1153   6.154   0.805   6.306  3.4579  3.4827 -2.1774
   16CHL1    C1 1154   6.027   0.543   6.288 -0.0932 -1.0605 -0.5617
   16CHL1   H1A 1155   5.920   0.554   6.257 -0.6672 -0.5973  1.4521
   16CHL1   H1B 1156   6.042   0.434   6.275  0.8732 -0.7501 -2.3015
   16CHL1    C2 1157   6.052   0.572   6.439  0.2013 -0.6493  0.0361
   16CHL1   H2A 1158   5.990   0.501   6.497 -0.3791 -1.9941 -2.1027
   16CHL1   H2B 1159   6.028   0.677   6.468  0.5272 -0.7871  0.8421
   16CHL1   C20 1160   6.029   0.597   5.486  0.8208 -0.0386 -0.3410
   16CHL1   H20 1161   6.054   0.705   5.486  1.1360 -0.0210  2.5713
   16CHL1   C21 1162   5.876   0.584   5.515 -0.1981  0.2894 -0.1611
   16CHL1  H21A 1163   5.807   0.612   5.433 -1.3218  0.9082  0.9593
   16CHL1  H21B 1164   5.847   0.656   5.595 -0.1775 -0.6484  0.7248
   16CHL1  H21C 1165   5.849   0.480   5.540 -1.7770  0.6406 -0.3366
   16CHL1   C22 1166   6.056   0.540   5.347  0.1085  0.1349 -0.7704
   16CHL1  H22A 1167   6.161   0.566   5.324  0.9295 -1.4449  0.9570
   16CHL1  H22B 1168   6.046   0.432   5.369 -0.7717  0.7215  2.0459
   16CHL1   C23 1169   5.967   0.578   5.230 -0.0266  0.0980  0.9636
   16CHL1  H23A 1170   5.871   0.525   5.246  1.3447 -2.3740  1.5150
   16CHL1  H23B 1171   5.953   0.688   5.233  0.5255  0.1751  0.9758
   16CHL1   C24 1172   6.025   0.519   5.099  0.1124  0.1521  0.5957
   16CHL1  H24A 1173   6.120   0.576   5.086  0.9736 -1.0204  1.4844
   16CHL1  H24B 1174   6.042   0.410   5.112 -3.8891 -0.4315  2.1304
   16CHL1   C25 1175   5.942   0.561   4.976  0.4580 -0.3325  0.2376
   16CHL1   H25 1176   5.912   0.667   4.993  2.1851 -0.1887  2.8037
   16CHL1   C26 1177   6.012   0.560   4.839  0.0377 -0.2301  0.1882
   16CHL1  H26A 1178   6.104   0.619   4.859 -0.6745  0.5712  1.1682
   16CHL1  H26B 1179   6.056   0.460   4.817  4.7057  1.3426  1.1351
   16CHL1  H26C 1180   5.955   0.603   4.753 -0.3748  0.9729  1.0455
   16CHL1   C27 1181   5.815   0.466   4.960  0.2461  0.3415 -0.7087
   16CHL1  H27A 1182   5.855   0.364   4.946 -1.9449 -0.6992  0.2235
   16CHL1  H27B 1183   5.758   0.473   5.055  0.3515  0.2183 -0.6355
   16CHL1  H27C 1184   5.760   0.504   4.871  3.0406  0.3645 -2.5628
   17CHL1    C3 1185   0.239   5.530   5.909  0.3600 -0.0067  0.1889
   17CHL1    H3 1186   0.341   5.528   5.864 -0.1614 -2.1640 -1.0648
   17CHL1    O3 1187   0.249   5.556   6.043  0.0978  0.0038 -0.3107
   17CHL1   H3' 1188   0.157   5.574   6.061  0.0264  1.5014 -1.8924
   17CHL1    C4 1189   0.160   5.641   5.833 -0.9213  0.1627 -0.5020
   17CHL1   H4A 1190   0.054   5.651   5.864 -0.7283  1.3047 -0.1535
   17CHL1   H4B 1191   0.210   5.737   5.857 -0.4810 -0.2050  0.0937
   17CHL1    C5 1192   0.144   5.611   5.688  0.0326 -0.0228  0.0386
   17CHL1    C6 1193   0.195   5.697   5.603  0.0993  0.8949 -0.3276
   17CHL1    H6 1194   0.242   5.791   5.638 -3.0820  2.7546 -0.6214
   17CHL1    C7 1195   0.185   5.670   5.454 -0.1596  0.5087  0.0975
   17CHL1   H7A 1196   0.154   5.765   5.403 -1.6457 -0.0949 -0.1855
   17CHL1   H7B 1197   0.290   5.650   5.425 -0.4381 -3.3436  1.2615
   17CHL1    C8 1198   0.074   5.562   5.418 -0.1576 -0.9478 -0.4826
   17CHL1    H8 1199  -0.027   5.603   5.441  0.9571  1.7912 -0.1691
   17CHL1   C14 1200   0.088   5.524   5.267 -1.0370 -0.1519 -0.2380
   17CHL1   H14 1201   0.195   5.497   5.255 -0.6054  1.6062 -0.6212
   17CHL1   C15 1202   0.068   5.640   5.171  0.4948  0.0424  0.3016
   17CHL1  H15A 1203  -0.027   5.696   5.185 -0.3868 -1.6249  1.3470
   17CHL1  H15B 1204   0.155   5.709   5.167 -0.1418  0.7853 -1.4929
   17CHL1   C16 1205   0.061   5.565   5.036  0.6951  0.3470  0.0742
   17CHL1  H16A 1206  -0.021   5.615   4.981 -0.0355  2.9972  3.2488
   17CHL1  H16B 1207   0.153   5.566   4.973 -1.0760  2.4717 -2.7385
   17CHL1   C17 1208   0.034   5.413   5.064 -0.3223 -0.0511  0.0700
   17CHL1   H17 1209   0.130   5.358   5.053 -0.5253 -0.3944  0.0223
   17CHL1   C13 1210  -0.001   5.412   5.219  0.0117  0.0855 -0.0518
   17CHL1   C18 1211  -0.146   5.454   5.248  0.4508 -0.2600 -0.5287
   17CHL1  H18A 1212  -0.210   5.366   5.222 -1.8720  1.3920 -0.7331
   17CHL1  H18B 1213  -0.165   5.483   5.354  0.8196  0.2042 -0.5887
   17CHL1  H18C 1214  -0.175   5.546   5.194  1.2744  1.2244  1.4469
   17CHL1   C12 1215   0.037   5.281   5.299  0.0443 -0.0956 -0.2806
   17CHL1  H12A 1216  -0.017   5.192   5.259 -0.2430  0.2965 -0.7761
   17CHL1  H12B 1217   0.144   5.257   5.282  0.4558  0.9681  0.7133
   17CHL1   C11 1218   0.037   5.312   5.455  0.0768  0.5948  0.5278
   17CHL1  H11A 1219  -0.069   5.298   5.486 -0.0268 -1.0131 -0.4641
   17CHL1  H11B 1220   0.088   5.224   5.501 -0.1635 -1.0801 -2.2232
   17CHL1    C9 1221   0.108   5.439   5.502 -0.0014  0.4047  0.5469
   17CHL1    H9 1222   0.218   5.424   5.489  0.2771  2.3426  0.4779
   17CHL1   C10 1223   0.087   5.471   5.656 -0.0068  0.0470  0.0304
   17CHL1   C19 1224  -0.062   5.468   5.681 -0.4255 -0.2711  0.5383
   17CHL1  H19A 1225  -0.116   5.520   5.599 -0.8501 -0.7387  0.5150
   17CHL1  H19B 1226  -0.096   5.362   5.683  0.8758 -0.6994  0.8943
   17CHL1  H19C 1227  -0.079   5.494   5.788  0.6436  0.6764  0.4908
   17CHL1    C1 1228   0.162   5.361   5.736 -0.2090  0.2463  0.2003
   17CHL1   H1A 1229   0.119   5.258   5.732  3.0433 -1.2575  0.5149
   17CHL1   H1B 1230   0.269   5.352   5.711 -0.2960  1.2899 -0.5807
   17CHL1    C2 1231   0.170   5.395   5.888 -0.1917  0.0052  0.4640
   17CHL1   H2A 1232   0.237   5.319   5.934  0.5933 -0.6872 -1.6647
   17CHL1   H2B 1233   0.067   5.391   5.928 -1.6926  1.3707 -2.8603
   17CHL1   C20 1234  -0.066   5.353   4.969  0.1074  0.5652  0.1479
   17CHL1   H20 1235  -0.160   5.413   4.966 -0.3847 -0.1774  0.4220
   17CHL1   C21 1236  -0.093   5.205   5.009  0.7901 -0.3155  0.3595
   17CHL1  H21A 1237   0.007   5.157   5.012 -0.0836 -2.2501 -0.2281
   17CHL1  H21B 1238  -0.151   5.158   4.927 -0.9993  2.5110 -0.1469
   17CHL1  H21C 1239  -0.157   5.193   5.099 -0.1884 -1.4222 -0.4601
   17CHL1   C22 1240  -0.033   5.359   4.818  0.3271 -0.0249 -0.1500
   17CHL1  H22A 1241  -0.117   5.304   4.771 -1.5478 -0.3237  3.2278
   17CHL1  H22B 1242  -0.026   5.459   4.771  2.0036  0.0272  0.1481
   17CHL1   C23 1243   0.098   5.285   4.781  0.8471 -0.0344 -0.1204
   17CHL1  H23A 1244   0.175   5.293   4.861  1.0268  0.3399 -0.3254
   17CHL1  H23B 1245   0.076   5.177   4.768  2.5007 -0.4728  0.4019
   17CHL1   C24 1246   0.163   5.348   4.652  0.1522 -0.2235 -0.1625
   17CHL1  H24A 1247   0.190   5.455   4.665  0.8964 -0.5583  1.2793
   17CHL1  H24B 1248   0.260   5.296   4.640 -0.2270 -1.0332  0.1983
   17CHL1   C25 1249   0.079   5.331   4.527 -0.4531 -0.4982 -0.1913
   17CHL1   H25 1250  -0.028   5.353   4.546 -0.2473  0.3712  0.0216
   17CHL1   C26 1251   0.132   5.438   4.430  0.3777 -0.0627  0.3514
   17CHL1  H26A 1252   0.102   5.423   4.324 -0.0868  3.3949 -0.1098
   17CHL1  H26B 1253   0.114   5.542   4.464  1.8569  0.1908  0.4568
   17CHL1  H26C 1254   0.243   5.426   4.430  0.5721  1.2007  2.3335
   17CHL1   C27 1255   0.094   5.191   4.474  0.0421  0.5127  0.2671
   17CHL1  H27A 1256   0.170   5.187   4.394 -1.0324  2.1354 -0.8974
   17CHL1  H27B 1257   0.103   5.109   4.549  1.4513  0.6293  0.2404
   17CHL1  H27C 1258   0.003   5.172   4.413  0.6744  1.3301 -0.9583
   18CHL1    C3 1259   5.952   6.600   6.204 -0.3613  0.2603 -0.0648
   18CHL1    H3 1260   5.905   6.700   6.216  0.1165  0.3433  1.3974
   18CHL1    O3 1261   5.987   6.559   6.339  0.3749  0.1371  0.1209
   18CHL1   H3' 1262   6.081   6.574   6.348  0.3149  1.3794 -0.9169
   18CHL1    C4 1263   5.845   6.504   6.149  0.6221  0.3312  0.1401
   18CHL1   H4A 1264   5.869   6.399   6.177 -0.9698  0.1171  0.8161
   18CHL1   H4B 1265   5.752   6.516   6.209 -0.1764  0.6717 -1.1226
   18CHL1    C5 1266   5.828   6.526   5.998 -0.4477  0.5617 -0.9631
   18CHL1    C6 1267   5.704   6.549   5.954 -0.5899  0.0108  0.2566
   18CHL1    H6 1268   5.615   6.555   6.017 -1.0173  0.5761 -0.3819
   18CHL1    C7 1269   5.668   6.574   5.811  0.2110 -1.0827 -0.1266
   18CHL1   H7A 1270   5.573   6.524   5.781 -0.3214 -0.1485 -0.0220
   18CHL1   H7B 1271   5.638   6.681   5.813 -0.7852 -1.3421 -0.2631
   18CHL1    C8 1272   5.785   6.528   5.717 -0.0272 -0.5693  0.6267
   18CHL1    H8 1273   5.777   6.417   5.716  0.7929 -0.6474 -0.8318
   18CHL1   C14 1274   5.770   6.580   5.582 -0.0046  0.6772  0.2618
   18CHL1   H14 1275   5.770   6.690   5.601 -2.2995  0.4986  1.6496
   18CHL1   C15 1276   5.635   6.573   5.503 -0.9888  0.0046  0.2878
   18CHL1  H15A 1277   5.573   6.486   5.532 -0.4638 -1.0087 -1.4193
   18CHL1  H15B 1278   5.582   6.668   5.523  2.0022  1.5932  1.2800
   18CHL1   C16 1279   5.676   6.560   5.352 -0.3766  0.1449  0.2397
   18CHL1  H16A 1280   5.645   6.458   5.321  1.4763 -0.2491 -0.4482
   18CHL1  H16B 1281   5.613   6.632   5.295  1.4803  1.2844 -0.4687
   18CHL1   C17 1282   5.823   6.582   5.349 -0.5091 -0.7147  0.2281
   18CHL1   H17 1283   5.834   6.692   5.349  2.2328 -0.8749 -1.7858
   18CHL1   C13 1284   5.872   6.527   5.482  0.1687  0.1719 -0.3274
   18CHL1   C18 1285   5.868   6.373   5.477  0.0122 -0.1419 -0.6764
   18CHL1  H18A 1286   5.934   6.327   5.401 -0.0714 -3.1765  0.8962
   18CHL1  H18B 1287   5.903   6.331   5.574 -1.3118 -0.2200 -0.2051
   18CHL1  H18C 1288   5.764   6.334   5.475 -0.4636  1.0770 -2.8123
   18CHL1   C12 1289   6.010   6.572   5.524 -0.1468 -0.3386 -0.9549
   18CHL1  H12A 1290   6.085   6.511   5.469  2.7332  1.1577  1.0308
   18CHL1  H12B 1291   6.030   6.681   5.513  1.1009 -0.5867 -1.3417
   18CHL1   C11 1292   6.035   6.531   5.666 -0.3945 -0.0402  0.0036
   18CHL1  H11A 1293   6.065   6.425   5.660 -0.7754 -0.0701 -2.2038
   18CHL1  H11B 1294   6.127   6.587   5.694 -0.9318  0.3894  0.9743
   18CHL1    C9 1295   5.925   6.565   5.770  0.0605 -0.1411  0.2061
   18CHL1    H9 1296   5.909   6.675   5.769  1.3491  0.0589 -0.2523
   18CHL1   C10 1297   5.952   6.509   5.912 -0.5072 -1.0459  0.3152
   18CHL1   C19 1298   5.991   6.363   5.900 -0.5585  0.0649  0.5793
   18CHL1  H19A 1299   6.094   6.347   5.861  0.0714 -0.9072  2.4785
   18CHL1  H19B 1300   6.000   6.314   6.000  3.2501 -0.1444  0.2934
   18CHL1  H19C 1301   5.916   6.314   5.835 -1.0291  1.2569  0.2059
   18CHL1    C1 1302   6.061   6.607   5.975  0.8263  0.8775  0.9558
   18CHL1   H1A 1303   6.155   6.575   5.926 -0.4390  0.4365 -1.3452
   18CHL1   H1B 1304   6.039   6.711   5.943 -1.5101 -0.4596 -2.3889
   18CHL1    C2 1305   6.089   6.597   6.125  0.5514 -0.5844 -0.5263
   18CHL1   H2A 1306   6.149   6.675   6.176 -0.6740  0.2931 -0.3616
   18CHL1   H2B 1307   6.143   6.501   6.141  3.7744  1.1973  0.1237
   18CHL1   C20 1308   5.887   6.537   5.216  0.1356 -0.3709  0.2710
   18CHL1   H20 1309   5.909   6.429   5.207 -4.1670 -1.4095 -0.3947
   18CHL1   C21 1310   6.017   6.633   5.201  0.3514  0.2151  0.4342
   18CHL1  H21A 1311   6.058   6.624   5.098  3.0883 -0.0805  1.4519
   18CHL1  H21B 1312   6.102   6.627   5.273 -0.2784  4.0884  1.7561
   18CHL1  H21C 1313   5.973   6.734   5.211 -1.1865 -0.1703 -1.7077
   18CHL1   C22 1314   5.800   6.575   5.093  0.0986 -0.7527  0.5984
   18CHL1  H22A 1315   5.692   6.550   5.095  0.1836 -1.7017 -2.1509
   18CHL1  H22B 1316   5.816   6.684   5.078  1.9955 -0.9268  1.0890
   18CHL1   C23 1317   5.842   6.492   4.962  0.9444 -0.4426 -0.2486
   18CHL1  H23A 1318   5.939   6.533   4.928  0.9122 -0.9612 -0.9863
   18CHL1  H23B 1319   5.848   6.383   4.986  0.5369 -0.3359  0.3626
   18CHL1   C24 1320   5.743   6.524   4.851 -0.6350  0.1602 -0.1032
   18CHL1  H24A 1321   5.644   6.475   4.866 -0.6446 -0.5586 -2.0994
   18CHL1  H24B 1322   5.729   6.634   4.846  1.3934  0.4759  0.1514
   18CHL1   C25 1323   5.797   6.493   4.707 -0.4249 -0.2509  0.1142
   18CHL1   H25 1324   5.879   6.562   4.679  0.8300 -0.5187  2.8505
   18CHL1   C26 1325   5.861   6.355   4.717 -0.1142 -0.3954 -0.2743
   18CHL1  H26A 1326   5.885   6.329   4.611  0.7614 -1.4695  0.1761
   18CHL1  H26B 1327   5.962   6.350   4.761  0.2079  2.1848 -0.5612
   18CHL1  H26C 1328   5.792   6.279   4.761 -0.3783 -0.2633 -0.4580
   18CHL1   C27 1329   5.678   6.500   4.610  0.0916  0.5838  0.9484
   18CHL1  H27A 1330   5.624   6.596   4.623  2.0569  2.1889 -1.6906
   18CHL1  H27B 1331   5.712   6.494   4.504  0.1813 -0.0547  1.0117
   18CHL1  H27C 1332   5.603   6.421   4.628 -1.0420  0.9753 -1.6225
   19CHL1    C3 1333   5.844   4.496   6.348 -0.2259  0.0350  0.2912
   19CHL1    H3 1334   5.877   4.400   6.301 -0.0681 -0.3639  1.1879
   19CHL1    O3 1335   5.813   4.469   6.482  0.0885  0.3554  0.1222
   19CHL1   H3' 1336   5.732   4.516   6.504  0.1597  0.6389 -0.2235
   19CHL1    C4 1337   5.951   4.600   6.348  0.1999 -0.2870  0.0198
   19CHL1   H4A 1338   5.916   4.695   6.394 -0.1493 -0.0003 -0.8082
   19CHL1   H4B 1339   6.039   4.570   6.409 -1.3059 -1.7852  1.5448
   19CHL1    C5 1340   5.992   4.621   6.201  0.2383  0.6319  0.0520
   19CHL1    C6 1341   6.121   4.601   6.165  0.4777  0.0548 -0.2006
   19CHL1    H6 1342   6.198   4.589   6.242  1.8441  3.2845 -0.8838
   19CHL1    C7 1343   6.170   4.634   6.032 -0.1628 -0.0645  0.0982
   19CHL1   H7A 1344   6.253   4.707   6.042 -1.1437  0.9195  1.3705
   19CHL1   H7B 1345   6.209   4.544   5.979 -1.3513  1.5786 -3.9167
   19CHL1    C8 1346   6.066   4.696   5.931  0.6032  0.0812  0.0196
   19CHL1    H8 1347   6.077   4.805   5.952 -0.3999  0.4394 -1.1671
   19CHL1   C14 1348   6.107   4.683   5.786  0.9425  0.0159  0.4420
   19CHL1   H14 1349   6.103   4.575   5.761  2.2244  0.3522 -1.3842
   19CHL1   C15 1350   6.249   4.714   5.754 -1.0163 -0.4808 -0.2114
   19CHL1  H15A 1351   6.278   4.810   5.802 -0.9270  1.5110 -3.8441
   19CHL1  H15B 1352   6.320   4.635   5.787 -0.0793 -0.2932 -1.6852
   19CHL1   C16 1353   6.241   4.737   5.602 -0.8623  0.1005 -0.2082
   19CHL1  H16A 1354   6.275   4.840   5.576 -0.7673 -0.0233 -0.5786
   19CHL1  H16B 1355   6.295   4.660   5.542 -0.7713  1.0384 -1.3686
   19CHL1   C17 1356   6.092   4.726   5.560 -0.1086  0.6921  0.0481
   19CHL1   H17 1357   6.065   4.623   5.527  2.4997  0.4914 -1.7064
   19CHL1   C13 1358   6.014   4.752   5.689  0.0156 -0.2075 -0.5512
   19CHL1   C18 1359   6.011   4.901   5.702  0.5727 -0.1028 -0.0153
   19CHL1  H18A 1360   6.112   4.945   5.686  0.3582  0.1102 -0.8224
   19CHL1  H18B 1361   5.946   4.952   5.628  0.5932 -0.7324 -0.4676
   19CHL1  H18C 1362   5.991   4.942   5.803  3.2210 -1.0453  0.9974
   19CHL1   C12 1363   5.871   4.693   5.699  0.3899  0.9918 -0.3925
   19CHL1  H12A 1364   5.804   4.743   5.627  2.2176  1.0480 -2.1406
   19CHL1  H12B 1365   5.881   4.585   5.672  0.4483  0.9733 -0.2991
   19CHL1   C11 1366   5.819   4.703   5.845  0.3767 -0.3336 -0.4408
   19CHL1  H11A 1367   5.788   4.809   5.859 -1.7543 -1.0418  0.5619
   19CHL1  H11B 1368   5.727   4.645   5.864  2.0238 -2.9189  0.1030
   19CHL1    C9 1369   5.919   4.650   5.956 -0.4460  0.6390 -0.4598
   19CHL1    H9 1370   5.921   4.540   5.939 -1.2373  0.5521 -0.0547
   19CHL1   C10 1371   5.877   4.665   6.100  0.0796  0.9390 -0.2828
   19CHL1   C19 1372   5.832   4.807   6.115  0.0712  0.3457 -0.7756
   19CHL1  H19A 1373   5.748   4.833   6.046 -0.3635  1.5162  0.1489
   19CHL1  H19B 1374   5.791   4.816   6.218  1.8152 -1.6221  0.1506
   19CHL1  H19C 1375   5.916   4.879   6.101  0.2224  0.2532 -0.3479
   19CHL1    C1 1376   5.755   4.568   6.125 -0.9907  0.1895 -0.4397
   19CHL1   H1A 1377   5.667   4.609   6.070 -0.3399 -0.6284 -2.1625
   19CHL1   H1B 1378   5.782   4.466   6.090  1.5725  0.3715  0.7520
   19CHL1    C2 1379   5.718   4.548   6.277 -0.0848  0.4145  0.0279
   19CHL1   H2A 1380   5.639   4.470   6.291 -1.8057  1.9248 -0.8387
   19CHL1   H2B 1381   5.682   4.638   6.330  2.4163  0.9169  0.9864
   19CHL1   C20 1382   6.065   4.803   5.429 -0.0954 -0.5054  0.2097
   19CHL1   H20 1383   6.072   4.910   5.455 -0.8567 -0.5784  0.7568
   19CHL1   C21 1384   5.917   4.782   5.382 -0.4078  0.3197  0.2948
   19CHL1  H21A 1385   5.843   4.840   5.441 -1.1305  0.6291 -0.8815
   19CHL1  H21B 1386   5.899   4.673   5.376 -1.8559  0.6016 -1.5460
   19CHL1  H21C 1387   5.902   4.816   5.277 -1.2711 -2.4014 -0.5446
   19CHL1   C22 1388   6.161   4.778   5.315 -0.2892 -0.2301 -0.2555
   19CHL1  H22A 1389   6.127   4.847   5.236 -2.2478 -0.5683  0.2138
   19CHL1  H22B 1390   6.264   4.808   5.343 -0.5774  0.9008 -0.3491
   19CHL1   C23 1391   6.148   4.637   5.258  0.3114 -0.0281  0.2564
   19CHL1  H23A 1392   6.160   4.553   5.330 -0.2581 -0.4880 -0.1784
   19CHL1  H23B 1393   6.045   4.643   5.219 -0.4468 -1.3786  1.9148
   19CHL1   C24 1394   6.242   4.614   5.135 -0.7999 -0.4322 -0.3207
   19CHL1  H24A 1395   6.211   4.688   5.057 -0.9569  0.8431  0.9121
   19CHL1  H24B 1396   6.342   4.652   5.163 -0.7191 -0.1255 -0.9986
   19CHL1   C25 1397   6.246   4.474   5.076  0.3142 -0.0686 -0.2070
   19CHL1   H25 1398   6.304   4.419   5.153  2.1789  3.8783  1.4566
   19CHL1   C26 1399   6.111   4.406   5.066 -0.8010 -0.0730  0.2777
   19CHL1  H26A 1400   6.120   4.300   5.033  3.7384  0.4352 -0.7194
   19CHL1  H26B 1401   6.057   4.409   5.163 -0.0361  0.8450  0.6884
   19CHL1  H26C 1402   6.048   4.457   4.990 -1.0794  0.2270  0.7105
   19CHL1   C27 1403   6.322   4.464   4.939 -0.5128 -0.9798 -0.0639
   19CHL1  H27A 1404   6.260   4.517   4.864  0.5340  2.1050  1.1060
   19CHL1  H27B 1405   6.422   4.508   4.959 -1.7097  2.0459 -0.2741
   19CHL1  H27C 1406   6.320   4.359   4.903 -2.6221 -0.7684 -0.6962
   20CHL1    C3 1407   4.279   0.046   6.040  0.2959 -0.2674 -0.4233
   20CHL1    H3 1408   4.179   0.019   5.998 -0.3099  0.2600  0.6319
   20CHL1    O3 1409   4.268   0.033   6.188 -0.4670 -0.1863 -0.1901
   20CHL1   H3' 1410   4.317   0.109   6.222 -0.8691  1.4438 -2.9414
   20CHL1    C4 1411   4.383  -0.045   5.982 -0.8676 -0.1473 -0.0142
   20CHL1   H4A 1412   4.474  -0.004   6.032 -1.3337 -0.6299  1.2779
   20CHL1   H4B 1413   4.357  -0.148   6.012 -1.4907  0.0820  0.2393
   20CHL1    C5 1414   4.393  -0.037   5.832 -1.3951 -0.0025  0.7869
   20CHL1    C6 1415   4.406  -0.153   5.761 -0.2460  0.4722 -0.0059
   20CHL1    H6 1416   4.409  -0.253   5.805  0.5708  0.8535  0.8620
   20CHL1    C7 1417   4.416  -0.146   5.610  0.2152  0.5207  0.0648
   20CHL1   H7A 1418   4.493  -0.219   5.578  0.3864  0.2387  1.0789
   20CHL1   H7B 1419   4.324  -0.173   5.553  0.4026  1.5831 -0.7554
   20CHL1    C8 1420   4.446  -0.011   5.552  0.0450 -0.1774 -0.2379
   20CHL1    H8 1421   4.556   0.003   5.559 -0.1887  1.7334  0.1671
   20CHL1   C14 1422   4.420  -0.001   5.401  0.4638  0.4163  0.9968
   20CHL1   H14 1423   4.309  -0.010   5.400  0.5251 -0.6409  1.6108
   20CHL1   C15 1424   4.466  -0.118   5.314 -0.5218  0.2304  0.2288
   20CHL1  H15A 1425   4.577  -0.124   5.327 -0.4786 -0.2732 -0.3470
   20CHL1  H15B 1426   4.414  -0.210   5.346 -0.5129 -0.4307 -1.5753
   20CHL1   C16 1427   4.424  -0.068   5.175 -0.1878 -0.4760 -0.7191
   20CHL1  H16A 1428   4.497  -0.107   5.101  0.8341  0.9476 -0.4967
   20CHL1  H16B 1429   4.327  -0.108   5.137 -1.4227 -0.2832  2.0343
   20CHL1   C17 1430   4.412   0.085   5.177  0.5877  0.8839  0.1517
   20CHL1   H17 1431   4.303   0.103   5.176 -0.0344 -2.1405  1.4301
   20CHL1   C13 1432   4.460   0.122   5.323  0.8556 -0.6646  0.6372
   20CHL1   C18 1433   4.604   0.164   5.336 -0.5532  0.7383  0.1457
   20CHL1  H18A 1434   4.627   0.190   5.441  0.4645  1.1723 -0.1670
   20CHL1  H18B 1435   4.673   0.085   5.299 -0.3309  1.8802 -2.0784
   20CHL1  H18C 1436   4.633   0.254   5.278 -0.1635 -0.2830 -1.3212
   20CHL1   C12 1437   4.369   0.230   5.388 -1.0882  0.5703  0.3102
   20CHL1  H12A 1438   4.380   0.332   5.346 -0.2166 -0.0646 -1.0653
   20CHL1  H12B 1439   4.264   0.197   5.373 -1.2626 -0.0207  2.5718
   20CHL1   C11 1440   4.381   0.236   5.547  0.0729 -0.1370  0.1907
   20CHL1  H11A 1441   4.480   0.283   5.569  0.4257 -0.5639 -0.4705
   20CHL1  H11B 1442   4.299   0.306   5.576  1.8657  1.6496  1.2194
   20CHL1    C9 1443   4.371   0.100   5.617 -0.3215 -0.6879 -0.3428
   20CHL1    H9 1444   4.266   0.063   5.611  0.5149 -2.9828 -2.3869
   20CHL1   C10 1445   4.393   0.108   5.773 -0.1170 -0.0912  0.2212
   20CHL1   C19 1446   4.536   0.173   5.794 -0.2906  0.2835  0.2528
   20CHL1  H19A 1447   4.619   0.134   5.730  0.4926  1.5742  0.4462
   20CHL1  H19B 1448   4.532   0.282   5.772 -2.7596 -0.1312 -1.8607
   20CHL1  H19C 1449   4.553   0.158   5.902 -0.1072 -0.7846  0.0915
   20CHL1    C1 1450   4.286   0.195   5.839  0.7665 -0.3313 -0.1453
   20CHL1   H1A 1451   4.301   0.302   5.812  0.8103  0.1577  1.6737
   20CHL1   H1B 1452   4.186   0.152   5.815 -0.0645  1.4257  0.0471
   20CHL1    C2 1453   4.302   0.189   5.992  0.0683  0.5125 -0.7019
   20CHL1   H2A 1454   4.224   0.248   6.044  0.3816  0.2190  0.1136
   20CHL1   H2B 1455   4.400   0.228   6.027 -0.7127  0.7128  1.4009
   20CHL1   C20 1456   4.476   0.152   5.053  0.5738 -0.9340  0.4036
   20CHL1   H20 1457   4.587   0.147   5.056  0.5709 -1.0955  3.2778
   20CHL1   C21 1458   4.443   0.306   5.067 -0.5963  0.7036 -0.2692
   20CHL1  H21A 1459   4.332   0.312   5.064 -0.7496 -0.8280  0.7883
   20CHL1  H21B 1460   4.478   0.360   4.977 -1.7118 -0.5583 -1.5125
   20CHL1  H21C 1461   4.497   0.347   5.154  1.2499  3.2350 -2.4703
   20CHL1   C22 1462   4.421   0.106   4.919 -0.1566  0.2069 -0.4655
   20CHL1  H22A 1463   4.403  -0.004   4.912 -0.4135  0.1081  1.3055
   20CHL1  H22B 1464   4.327   0.163   4.902  0.0343  0.9354  0.8144
   20CHL1   C23 1465   4.507   0.130   4.789  0.1147 -0.0172  0.0294
   20CHL1  H23A 1466   4.499   0.235   4.754  2.2695 -0.5672 -2.4622
   20CHL1  H23B 1467   4.611   0.126   4.825 -0.3826 -2.1701  1.4021
   20CHL1   C24 1468   4.478   0.022   4.682  0.5321  1.3724 -0.2776
   20CHL1  H24A 1469   4.483  -0.081   4.724 -1.0995  1.1133 -0.6501
   20CHL1  H24B 1470   4.370   0.036   4.661  0.7749  2.2908 -0.9920
   20CHL1   C25 1471   4.543   0.028   4.545  0.0100  0.7574 -0.0938
   20CHL1   H25 1472   4.652   0.015   4.557  0.1627  1.7343 -0.3284
   20CHL1   C26 1473   4.494  -0.079   4.443  0.5307  0.2851  0.0528
   20CHL1  H26A 1474   4.387  -0.068   4.417  0.1242  0.1677  1.5882
   20CHL1  H26B 1475   4.554  -0.085   4.349 -0.6613 -1.1920 -0.6721
   20CHL1  H26C 1476   4.503  -0.182   4.483 -0.7015  0.7883  1.7211
   20CHL1   C27 1477   4.553   0.164   4.478 -0.3038  0.3680  0.1807
   20CHL1  H27A 1478   4.616   0.237   4.535  0.1011  0.5415 -0.4797
   20CHL1  H27B 1479   4.593   0.141   4.377 -0.9414 -3.2215  0.6340
   20CHL1  H27C 1480   4.451   0.208   4.474 -1.4978 -2.2767 -0.4397
   21CHL1    C3 1481   3.621   5.804   6.006 -0.4512  0.1671  0.4552
   21CHL1    H3 1482   3.675   5.710   6.027  3.7681  1.9881 -1.1637
   21CHL1    O3 1483   3.618   5.872   6.136 -0.8555  0.0542 -0.1619
   21CHL1   H3' 1484   3.579   5.958   6.118  0.4276  0.6707 -0.1487
   21CHL1    C4 1485   3.689   5.900   5.904 -0.0321 -1.0038 -0.1853
   21CHL1   H4A 1486   3.632   5.995   5.915 -0.8151 -1.7386  3.2515
   21CHL1   H4B 1487   3.791   5.924   5.939 -0.4143  1.2885 -0.4980
   21CHL1    C5 1488   3.693   5.845   5.761  0.6617 -0.1776 -0.6210
   21CHL1    C6 1489   3.805   5.829   5.690 -0.3882  0.4182  0.2499
   21CHL1    H6 1490   3.896   5.871   5.734 -0.9710 -0.0614  2.0105
   21CHL1    C7 1491   3.811   5.769   5.554 -1.0314 -0.3177  0.2992
   21CHL1   H7A 1492   3.875   5.824   5.482 -3.6494  0.7095 -1.4165
   21CHL1   H7B 1493   3.858   5.668   5.561  4.0765  1.6521 -0.9625
   21CHL1    C8 1494   3.670   5.764   5.486  0.9970  0.7160 -0.1218
   21CHL1    H8 1495   3.643   5.871   5.469  0.6322  0.4663 -1.2442
   21CHL1   C14 1496   3.672   5.679   5.360  0.4798 -0.1312  0.1341
   21CHL1   H14 1497   3.682   5.574   5.394  0.7824 -0.0019  0.4408
   21CHL1   C15 1498   3.785   5.710   5.262 -0.4506 -0.1085 -0.0632
   21CHL1  H15A 1499   3.825   5.813   5.260 -0.8074  0.0440  0.5280
   21CHL1  H15B 1500   3.874   5.643   5.261  0.2976  0.8128 -2.3757
   21CHL1   C16 1501   3.728   5.673   5.126 -0.6102  0.1991 -0.3706
   21CHL1  H16A 1502   3.703   5.771   5.081 -0.5986 -0.2705 -1.4232
   21CHL1  H16B 1503   3.805   5.638   5.054  1.1084  3.9133 -0.5950
   21CHL1   C17 1504   3.593   5.600   5.154 -0.4969 -0.0725  0.7665
   21CHL1   H17 1505   3.618   5.494   5.178  2.4785  0.4485  0.3288
   21CHL1   C13 1506   3.541   5.668   5.281 -0.1552 -0.4506 -0.1921
   21CHL1   C18 1507   3.499   5.816   5.249 -0.1225 -0.3142  0.1607
   21CHL1  H18A 1508   3.466   5.864   5.344  1.8656  0.2345  0.6176
   21CHL1  H18B 1509   3.578   5.886   5.215  0.3563 -0.0374  1.7528
   21CHL1  H18C 1510   3.417   5.810   5.175  2.1199  1.0542 -2.6206
   21CHL1   C12 1511   3.440   5.592   5.376  0.4380  0.0914  0.0536
   21CHL1  H12A 1512   3.343   5.567   5.327  0.0026 -2.2156  1.9255
   21CHL1  H12B 1513   3.479   5.492   5.403 -0.9310  0.6889  5.2074
   21CHL1   C11 1514   3.426   5.671   5.516  0.7056 -0.0441  0.1863
   21CHL1  H11A 1515   3.361   5.760   5.502  2.2929  1.2066  0.5127
   21CHL1  H11B 1516   3.361   5.613   5.584  0.1813 -0.3114 -0.5251
   21CHL1    C9 1517   3.565   5.712   5.582  1.2614  0.2273 -0.3526
   21CHL1    H9 1518   3.611   5.619   5.622 -0.8908 -1.2023 -1.0013
   21CHL1   C10 1519   3.556   5.802   5.711  0.2044  0.9755  0.6009
   21CHL1   C19 1520   3.475   5.931   5.689 -0.2576  0.7140 -0.2692
   21CHL1  H19A 1521   3.465   5.984   5.786 -2.3865  0.2658 -0.1818
   21CHL1  H19B 1522   3.521   5.995   5.611 -2.5179  0.1069 -2.2256
   21CHL1  H19C 1523   3.374   5.901   5.655 -1.6252  2.1462  2.1833
   21CHL1    C1 1524   3.474   5.718   5.815  0.4686  0.1542 -0.2135
   21CHL1   H1A 1525   3.367   5.719   5.784  0.3686  1.2682  0.0998
   21CHL1   H1B 1526   3.515   5.615   5.824  2.1500  0.8259  0.1818
   21CHL1    C2 1527   3.478   5.777   5.957  0.3193 -0.0462 -0.0118
   21CHL1   H2A 1528   3.427   5.708   6.027 -0.5712 -0.4803 -1.0647
   21CHL1   H2B 1529   3.411   5.866   5.956 -0.9990 -1.0200 -0.0398
   21CHL1   C20 1530   3.507   5.593   5.028  0.9289 -0.3418 -0.7149
   21CHL1   H20 1531   3.498   5.694   4.983  1.3376 -0.5864 -1.3517
   21CHL1   C21 1532   3.364   5.526   5.062 -0.0396 -0.5502  0.5285
   21CHL1  H21A 1533   3.297   5.600   5.111 -0.7943  0.3390 -1.7421
   21CHL1  H21B 1534   3.380   5.436   5.125  1.4359  0.0657  1.0824
   21CHL1  H21C 1535   3.307   5.496   4.972  1.2423 -0.5123 -0.3206
   21CHL1   C22 1536   3.565   5.512   4.909 -0.1080  0.0240 -0.2072
   21CHL1  H22A 1537   3.676   5.521   4.902 -0.1533  0.5060 -0.3497
   21CHL1  H22B 1538   3.551   5.404   4.930  0.3726  0.1082  0.6057
   21CHL1   C23 1539   3.504   5.545   4.771 -0.4392  0.3405 -0.1265
   21CHL1  H23A 1540   3.394   5.530   4.769 -0.3891 -0.0131 -0.3847
   21CHL1  H23B 1541   3.527   5.651   4.747 -1.8112  0.4785 -0.9463
   21CHL1   C24 1542   3.572   5.463   4.662 -0.3830  0.2760  0.4729
   21CHL1  H24A 1543   3.680   5.489   4.660 -0.3376  0.0247 -1.3953
   21CHL1  H24B 1544   3.551   5.355   4.681 -0.4214  0.6351  2.7750
   21CHL1   C25 1545   3.521   5.486   4.525  0.3300  0.5457  0.5865
   21CHL1   H25 1546   3.414   5.456   4.516  0.1747  0.8145  1.4743
   21CHL1   C26 1547   3.529   5.629   4.470  0.0101 -0.0418 -0.2211
   21CHL1  H26A 1548   3.638   5.653   4.464  0.5226 -2.1519 -0.1485
   21CHL1  H26B 1549   3.489   5.632   4.366  0.8349 -1.2816 -0.6006
   21CHL1  H26C 1550   3.477   5.705   4.532 -0.1235 -0.4511  0.1734
   21CHL1   C27 1551   3.584   5.389   4.417  0.5441 -0.3813 -0.2516
   21CHL1  H27A 1552   3.557   5.426   4.316 -1.8765  0.5673  0.6670
   21CHL1  H27B 1553   3.695   5.385   4.428  0.6978 -0.2885 -1.5556
   21CHL1  H27C 1554   3.539   5.288   4.423 -2.3523  0.8872  0.9345
   22CHL1    C3 1555   0.041   2.111   5.882  0.2602  0.0816  0.4343
   22CHL1    H3 1556   0.068   2.004   5.892  1.0871  0.1897 -0.4729
   22CHL1    O3 1557   0.046   2.168   6.004 -0.0195 -0.3849 -0.2404
   22CHL1   H3' 1558  -0.022   2.133   6.063 -0.2538  1.1589  0.4479
   22CHL1    C4 1559   0.135   2.186   5.782  0.2078 -0.1014  0.0363
   22CHL1   H4A 1560   0.114   2.295   5.786  2.1385  0.3237 -0.2570
   22CHL1   H4B 1561   0.243   2.180   5.806  0.4064  0.3787 -0.6924
   22CHL1    C5 1562   0.126   2.147   5.637  0.1276 -0.3266  0.0063
   22CHL1    C6 1563   0.236   2.113   5.572  0.5231  1.0413  0.0698
   22CHL1    H6 1564   0.327   2.122   5.634 -0.7718 -0.5074  2.3549
   22CHL1    C7 1565   0.242   2.072   5.426  0.0075  0.2692 -0.4562
   22CHL1   H7A 1566   0.323   2.120   5.367 -0.1436  1.6798  0.4267
   22CHL1   H7B 1567   0.270   1.964   5.424 -1.1215 -0.0500  0.0256
   22CHL1    C8 1568   0.103   2.104   5.360 -0.7013  0.0121 -0.5006
   22CHL1    H8 1569   0.088   2.213   5.349 -0.6825  0.0278 -0.3720
   22CHL1   C14 1570   0.107   2.035   5.224 -0.0139 -0.3829 -0.1211
   22CHL1   H14 1571   0.136   1.929   5.236  0.3590 -0.3875 -1.0094
   22CHL1   C15 1572   0.213   2.088   5.125  0.5925 -0.1721 -0.1290
   22CHL1  H15A 1573   0.231   2.198   5.128  3.6971 -0.5919 -0.1546
   22CHL1  H15B 1574   0.312   2.039   5.137  0.9560  0.7534  0.8509
   22CHL1   C16 1575   0.148   2.059   4.987 -0.2941 -0.1299 -0.5894
   22CHL1  H16A 1576   0.127   2.162   4.951 -1.4751 -0.4392 -0.8188
   22CHL1  H16B 1577   0.207   2.004   4.910  2.9211  0.7286  1.1082
   22CHL1   C17 1578   0.014   1.990   5.016  0.3046  0.2793  0.5640
   22CHL1   H17 1579   0.041   1.885   5.038 -0.7125  0.3123  2.0659
   22CHL1   C13 1580  -0.032   2.051   5.154 -0.7749 -0.2451  0.1771
   22CHL1   C18 1581  -0.080   2.194   5.137 -0.0285 -0.3568  0.1897
   22CHL1  H18A 1582  -0.112   2.247   5.229  0.2677  0.3493 -0.1010
   22CHL1  H18B 1583  -0.007   2.258   5.082  0.1191  0.7106  1.5677
   22CHL1  H18C 1584  -0.176   2.190   5.082 -0.2294  0.2235  0.5015
   22CHL1   C12 1585  -0.139   1.973   5.227  1.0050 -0.5030 -0.2283
   22CHL1  H12A 1586  -0.244   1.967   5.191  0.5561 -1.8773  1.1821
   22CHL1  H12B 1587  -0.102   1.868   5.231 -0.9783 -1.2300  0.0982
   22CHL1   C11 1588  -0.155   2.028   5.376  0.0439  0.1685  0.3357
   22CHL1  H11A 1589  -0.199   2.130   5.377  0.0217  0.2777  4.2522
   22CHL1  H11B 1590  -0.216   1.960   5.440  1.2842 -0.2986  1.0501
   22CHL1    C9 1591  -0.012   2.050   5.445 -0.8323 -0.8612 -0.3643
   22CHL1    H9 1592   0.021   1.950   5.480 -0.7579 -0.3451  1.1258
   22CHL1   C10 1593  -0.022   2.131   5.575 -0.4305 -0.5731  0.0934
   22CHL1   C19 1594  -0.087   2.278   5.552 -0.7850 -0.1277 -0.4064
   22CHL1  H19A 1595  -0.028   2.329   5.472  0.7242  0.0143  0.7500
   22CHL1  H19B 1596  -0.192   2.294   5.520 -0.4927 -0.4235 -1.5824
   22CHL1  H19C 1597  -0.074   2.345   5.639  1.3470  2.7940 -2.7275
   22CHL1    C1 1598  -0.113   2.056   5.678  0.7335  0.4173  0.1858
   22CHL1   H1A 1599  -0.218   2.072   5.644 -0.5806 -0.1448  3.4973
   22CHL1   H1B 1600  -0.079   1.951   5.667  1.9403  0.7352  0.7090
   22CHL1    C2 1601  -0.102   2.100   5.826  0.5571  0.1121  0.6768
   22CHL1   H2A 1602  -0.178   2.044   5.884 -0.8121  0.9356 -0.2748
   22CHL1   H2B 1603  -0.139   2.205   5.836 -0.2459 -0.0555 -0.3347
   22CHL1   C20 1604  -0.090   1.985   4.900  0.2892 -0.1096  0.3518
   22CHL1   H20 1605  -0.164   2.068   4.910  0.1204 -0.4546  2.4836
   22CHL1   C21 1606  -0.166   1.850   4.912 -0.2760 -0.3047  0.3034
   22CHL1  H21A 1607  -0.101   1.761   4.896 -0.5188 -0.0244 -2.9919
   22CHL1  H21B 1608  -0.243   1.850   4.832  1.5593  4.3113 -1.8118
   22CHL1  H21C 1609  -0.199   1.838   5.017 -0.1658 -0.9472  0.2678
   22CHL1   C22 1610  -0.025   2.009   4.758 -0.1023  0.1655  0.0943
   22CHL1  H22A 1611  -0.001   2.116   4.741 -0.1729 -0.0842 -1.7944
   22CHL1  H22B 1612   0.069   1.949   4.760 -0.6372 -0.8020 -1.4933
   22CHL1   C23 1613  -0.105   1.961   4.631 -0.1348  0.0251 -0.3577
   22CHL1  H23A 1614  -0.133   1.854   4.643  0.8279 -0.7270 -3.7488
   22CHL1  H23B 1615  -0.195   2.024   4.611 -0.4908 -0.3921 -0.1064
   22CHL1   C24 1616  -0.014   1.959   4.507  0.0870  0.7726 -0.1335
   22CHL1  H24A 1617   0.052   2.049   4.506 -0.7225  1.5581  3.4911
   22CHL1  H24B 1618   0.060   1.880   4.535  0.8746  1.5540  0.0235
   22CHL1   C25 1619  -0.076   1.949   4.360  0.4876  0.6680 -0.6519
   22CHL1   H25 1620   0.010   1.920   4.296  2.1253  0.2273  1.6120
   22CHL1   C26 1621  -0.179   1.838   4.352  0.2025 -0.5603  0.2127
   22CHL1  H26A 1622  -0.215   1.830   4.247  0.1810 -0.6252  0.2252
   22CHL1  H26B 1623  -0.151   1.737   4.388  0.8245 -0.1559  0.9091
   22CHL1  H26C 1624  -0.273   1.866   4.403  1.1018 -0.9069  2.1448
   22CHL1   C27 1625  -0.130   2.082   4.306 -1.1328  0.6314 -0.0119
   22CHL1  H27A 1626  -0.136   2.085   4.195  4.4702 -2.2545 -0.7082
   22CHL1  H27B 1627  -0.231   2.088   4.353 -1.8466 -3.4938 -0.6438
   22CHL1  H27C 1628  -0.072   2.169   4.344 -2.5870  0.5902  2.5554
   23CHL1    C3 1629   5.499   1.398   6.358  0.1038  0.2527 -0.1342
   23CHL1    H3 1630   5.595   1.453   6.350 -0.6649  1.6630  0.0817
   23CHL1    O3 1631   5.468   1.367   6.493  0.0863 -0.1191  0.1889
   23CHL1   H3' 1632   5.402   1.298   6.481 -1.7244  1.5123  0.1353
   23CHL1    C4 1633   5.389   1.482   6.300 -0.3901  0.0028 -0.1946
   23CHL1   H4A 1634   5.291   1.439   6.328  1.6381 -3.9195  1.8066
   23CHL1   H4B 1635   5.390   1.584   6.344 -0.0665 -0.1578  0.1783
   23CHL1    C5 1636   5.394   1.495   6.148  0.1147 -0.3021  0.0287
   23CHL1    C6 1637   5.398   1.620   6.096  0.2497  0.6007  1.0439
   23CHL1    H6 1638   5.391   1.709   6.161 -0.3941  1.3514 -0.0252
   23CHL1    C7 1639   5.411   1.660   5.945  0.3180  0.0870  0.0569
   23CHL1   H7A 1640   5.338   1.734   5.905  0.6173  1.0092  1.1666
   23CHL1   H7B 1641   5.514   1.698   5.933 -0.0284  0.7018 -1.0873
   23CHL1    C8 1642   5.396   1.523   5.865 -0.7415  0.0505  0.3741
   23CHL1    H8 1643   5.289   1.491   5.865  0.1497 -3.2654 -0.3668
   23CHL1   C14 1644   5.429   1.543   5.714 -0.4664  0.2829  0.1506
   23CHL1   H14 1645   5.529   1.593   5.713 -1.3688  2.2197 -1.2731
   23CHL1   C15 1646   5.340   1.636   5.632 -0.6031  0.5778  0.9391
   23CHL1  H15A 1647   5.231   1.620   5.646 -1.5458  3.2271 -2.1515
   23CHL1  H15B 1648   5.368   1.740   5.660 -0.0136  0.7847 -0.3420
   23CHL1   C16 1649   5.392   1.619   5.487 -0.1808  0.6785  0.6554
   23CHL1  H16A 1650   5.306   1.602   5.418  1.1927  0.4136 -1.0659
   23CHL1  H16B 1651   5.448   1.710   5.459 -1.6421  2.0637  2.0292
   23CHL1   C17 1652   5.479   1.485   5.488  1.3189 -0.6091  0.0295
   23CHL1   H17 1653   5.583   1.524   5.489  0.5930  1.4722  1.2372
   23CHL1   C13 1654   5.455   1.421   5.627 -0.4726  0.1118 -0.5653
   23CHL1   C18 1655   5.327   1.338   5.614 -0.2617  0.5682 -0.1310
   23CHL1  H18A 1656   5.266   1.339   5.707  0.4791 -0.3571  0.3784
   23CHL1  H18B 1657   5.254   1.389   5.548  0.6565  2.0905 -0.0257
   23CHL1  H18C 1658   5.335   1.236   5.571  0.9290  1.2003 -1.5195
   23CHL1   C12 1659   5.565   1.334   5.689 -0.1866 -0.1264 -0.2273
   23CHL1  H12A 1660   5.580   1.240   5.632 -1.6464 -2.0441  2.3492
   23CHL1  H12B 1661   5.660   1.387   5.712 -0.1417 -1.3554  2.8714
   23CHL1   C11 1662   5.502   1.289   5.826 -0.6641 -0.3864  0.4366
   23CHL1  H11A 1663   5.419   1.217   5.811  1.3072 -2.3690 -1.7460
   23CHL1  H11B 1664   5.574   1.221   5.876  0.7954  0.3047 -0.6211
   23CHL1    C9 1665   5.477   1.409   5.923  1.2236 -0.1070 -0.6821
   23CHL1    H9 1666   5.577   1.455   5.929  1.2233 -0.0654 -0.9887
   23CHL1   C10 1667   5.426   1.366   6.065  0.1341 -0.1321 -0.4457
   23CHL1   C19 1668   5.293   1.288   6.054  1.1037  0.1968  0.1849
   23CHL1  H19A 1669   5.241   1.280   6.153 -0.1161  1.5098 -0.3180
   23CHL1  H19B 1670   5.223   1.347   5.991 -0.2192 -0.4574  0.9878
   23CHL1  H19C 1671   5.313   1.193   6.000  2.2356 -0.3565  1.5050
   23CHL1    C1 1672   5.530   1.272   6.137  0.1434 -0.2543  0.0881
   23CHL1   H1A 1673   5.539   1.170   6.095  1.7638 -0.2444  0.3434
   23CHL1   H1B 1674   5.625   1.325   6.113 -0.1738 -0.3711 -1.5556
   23CHL1    C2 1675   5.514   1.265   6.286  0.2682  0.2186 -0.4997
   23CHL1   H2A 1676   5.596   1.209   6.337 -0.4355 -1.1490 -0.8326
   23CHL1   H2B 1677   5.425   1.200   6.301  0.0209  0.2403 -1.7323
   23CHL1   C20 1678   5.463   1.399   5.365  0.2868  0.0528  0.1974
   23CHL1   H20 1679   5.360   1.361   5.356 -0.0827  1.1721 -0.5445
   23CHL1   C21 1680   5.566   1.289   5.358 -0.4624 -0.0387 -0.0858
   23CHL1  H21A 1681   5.667   1.334   5.343 -0.9436  0.8808 -0.6390
   23CHL1  H21B 1682   5.544   1.217   5.276 -0.2771 -0.2420  0.0403
   23CHL1  H21C 1683   5.564   1.218   5.443 -0.5471  0.9545  0.7648
   23CHL1   C22 1684   5.485   1.490   5.244 -0.6134 -0.1977 -0.4727
   23CHL1  H22A 1685   5.398   1.559   5.240 -0.1102  0.4486 -0.5419
   23CHL1  H22B 1686   5.580   1.548   5.254  0.2076 -1.5427 -0.2044
   23CHL1   C23 1687   5.488   1.414   5.107  0.3403  0.2510 -0.5096
   23CHL1  H23A 1688   5.582   1.356   5.102  1.0393  1.3112  0.0619
   23CHL1  H23B 1689   5.413   1.331   5.105 -0.9144  1.3436 -0.0313
   23CHL1   C24 1690   5.467   1.501   4.979  1.2069 -0.3797  0.0760
   23CHL1  H24A 1691   5.375   1.563   4.989  1.7832  0.6744 -0.8540
   23CHL1  H24B 1692   5.551   1.573   4.971  0.4301  0.8200  1.9949
   23CHL1   C25 1693   5.467   1.416   4.846 -0.5395  0.7468  0.0818
   23CHL1   H25 1694   5.533   1.330   4.870 -2.2948 -0.5508  0.4664
   23CHL1   C26 1695   5.330   1.358   4.811  0.2622 -0.2132 -0.4418
   23CHL1  H26A 1696   5.253   1.433   4.784  1.2939  1.3987  0.9440
   23CHL1  H26B 1697   5.330   1.293   4.721  0.0005  0.3638 -0.8658
   23CHL1  H26C 1698   5.290   1.312   4.904 -1.1155  1.2735 -0.2454
   23CHL1   C27 1699   5.523   1.484   4.723 -0.1718  0.2587 -0.5192
   23CHL1  H27A 1700   5.546   1.411   4.642 -3.3198 -0.7508 -0.6002
   23CHL1  H27B 1701   5.450   1.557   4.681 -2.1080 -1.9362 -1.1521
   23CHL1  H27C 1702   5.616   1.539   4.750  1.5729 -2.2277 -1.1425
   24CHL1    C3 1703   5.185   5.571   6.135  0.7059  0.0775  0.2851
   24CHL1    H3 1704   5.079   5.558   6.105  1.3097 -1.0410 -1.5725
   24CHL1    O3 1705   5.181   5.552   6.275  0.7225 -0.1856  0.0173
   24CHL1   H3' 1706   5.146   5.462   6.277 -1.5002  0.6383  0.7356
   24CHL1    C4 1707   5.275   5.470   6.064 -0.4320 -0.1554  0.5695
   24CHL1   H4A 1708   5.375   5.470   6.114 -0.2132  3.3190  0.3592
   24CHL1   H4B 1709   5.248   5.367   6.094  0.5927 -1.3297 -2.1525
   24CHL1    C5 1710   5.293   5.494   5.914  0.0629  0.7458 -0.1339
   24CHL1    C6 1711   5.283   5.387   5.834  0.1925  0.3972  0.0728
   24CHL1    H6 1712   5.258   5.287   5.870 -0.1439  0.3604 -0.2578
   24CHL1    C7 1713   5.309   5.392   5.685 -0.1845  0.6790 -0.6996
   24CHL1   H7A 1714   5.381   5.313   5.654 -0.9973 -1.4594  2.3957
   24CHL1   H7B 1715   5.218   5.361   5.631 -0.3032  1.0935 -0.7342
   24CHL1    C8 1716   5.352   5.535   5.629  0.0023  1.4696 -0.0931
   24CHL1    H8 1717   5.462   5.542   5.629  0.1281 -0.0892 -0.7892
   24CHL1   C14 1718   5.305   5.538   5.483 -0.3016  0.1444 -0.4466
   24CHL1   H14 1719   5.198   5.507   5.484  0.2345 -2.0317  2.3063
   24CHL1   C15 1720   5.387   5.444   5.388 -0.5889 -0.4529 -0.3651
   24CHL1  H15A 1721   5.491   5.436   5.425  0.6787  3.6586 -2.4292
   24CHL1  H15B 1722   5.348   5.341   5.376  0.7323 -0.9114 -0.8954
   24CHL1   C16 1723   5.375   5.506   5.251  1.0208  0.5070 -0.2739
   24CHL1  H16A 1724   5.474   5.532   5.206 -0.2727 -0.0189 -3.7472
   24CHL1  H16B 1725   5.334   5.428   5.183  1.9136  0.9535 -1.3556
   24CHL1   C17 1726   5.276   5.626   5.277  0.3382  0.8916  0.1383
   24CHL1   H17 1727   5.168   5.602   5.287  0.4288  0.5281  0.2470
   24CHL1   C13 1728   5.322   5.673   5.413 -0.2256 -0.0726  0.4379
   24CHL1   C18 1729   5.476   5.723   5.415  0.6633  0.0993 -0.2830
   24CHL1  H18A 1730   5.547   5.651   5.368 -0.7724 -1.2918 -0.4005
   24CHL1  H18B 1731   5.485   5.815   5.352  0.0953  0.4033  0.0748
   24CHL1  H18C 1732   5.519   5.738   5.516  0.2076 -1.9629  0.2639
   24CHL1   C12 1733   5.236   5.771   5.499 -0.6679  0.2186  0.8120
   24CHL1  H12A 1734   5.250   5.871   5.453 -0.5424  0.5254  1.5152
   24CHL1  H12B 1735   5.129   5.744   5.487 -0.1291 -1.1559 -1.7963
   24CHL1   C11 1736   5.287   5.785   5.647 -0.6663  0.1094 -0.2684
   24CHL1  H11A 1737   5.388   5.830   5.644 -1.4581  1.9860 -0.8181
   24CHL1  H11B 1738   5.221   5.853   5.706  0.8004  0.2493  1.2736
   24CHL1    C9 1739   5.287   5.646   5.715 -0.1273 -0.3376  0.0820
   24CHL1    H9 1740   5.180   5.618   5.705 -0.5799  1.7751 -1.9796
   24CHL1   C10 1741   5.315   5.641   5.865 -0.4036  0.3152 -0.3274
   24CHL1   C19 1742   5.465   5.672   5.881  0.1264 -0.9078 -0.1079
   24CHL1  H19A 1743   5.493   5.668   5.988 -0.1515  2.0770  0.1606
   24CHL1  H19B 1744   5.530   5.597   5.831 -0.4697 -0.8821 -0.9444
   24CHL1  H19C 1745   5.476   5.776   5.846 -0.5507 -0.9294 -0.4158
   24CHL1    C1 1746   5.218   5.735   5.946  0.8173 -0.5540 -0.1700
   24CHL1   H1A 1747   5.233   5.841   5.916 -2.9645  0.3730  0.6107
   24CHL1   H1B 1748   5.117   5.708   5.906 -0.7717  0.7146  2.6522
   24CHL1    C2 1749   5.214   5.713   6.098 -0.0761 -0.2493 -0.3320
   24CHL1   H2A 1750   5.136   5.778   6.144 -0.5703 -0.1604 -1.2633
   24CHL1   H2B 1751   5.307   5.751   6.145  0.3013 -2.9897  1.3732
   24CHL1   C20 1752   5.283   5.723   5.162  0.5301  0.3324  0.0023
   24CHL1   H20 1753   5.383   5.771   5.152  0.2544  1.2875  1.6068
   24CHL1   C21 1754   5.178   5.842   5.172 -0.0610  0.5495  0.6541
   24CHL1  H21A 1755   5.084   5.809   5.220 -0.7199  0.1225 -0.8684
   24CHL1  H21B 1756   5.153   5.890   5.075  0.0264 -1.5047 -0.4317
   24CHL1  H21C 1757   5.229   5.914   5.239 -0.2682 -0.8559  2.4006
   24CHL1   C22 1758   5.270   5.655   5.020 -0.1931  0.6210 -0.3760
   24CHL1  H22A 1759   5.298   5.738   4.951 -0.5782 -0.0205 -1.3322
   24CHL1  H22B 1760   5.347   5.575   5.019 -0.8654 -0.0428  0.2019
   24CHL1   C23 1761   5.126   5.609   4.987  0.3896 -0.3607  0.1328
   24CHL1  H23A 1762   5.101   5.538   5.069  0.0848  0.9310  1.1899
   24CHL1  H23B 1763   5.057   5.696   4.993  1.3820  0.6510 -1.8362
   24CHL1   C24 1764   5.125   5.537   4.850 -0.0310  0.0996 -0.6627
   24CHL1  H24A 1765   5.187   5.591   4.775 -0.4533  0.4179 -0.7903
   24CHL1  H24B 1766   5.167   5.436   4.866 -1.0627 -0.1597  0.5692
   24CHL1   C25 1767   4.981   5.541   4.792  0.1976 -0.4679  0.1937
   24CHL1   H25 1768   4.936   5.642   4.778 -1.5588 -0.9870  1.7795
   24CHL1   C26 1769   4.985   5.474   4.652  0.0412  0.3510  0.5038
   24CHL1  H26A 1770   4.882   5.452   4.615  0.7514 -3.2094  0.3686
   24CHL1  H26B 1771   5.033   5.535   4.572  1.4887  0.7954  1.6763
   24CHL1  H26C 1772   5.036   5.376   4.655 -1.7996 -0.6644  0.4838
   24CHL1   C27 1773   4.880   5.466   4.875  0.7375  0.5053  0.1232
   24CHL1  H27A 1774   4.780   5.475   4.829 -0.3750  0.0107  2.2980
   24CHL1  H27B 1775   4.901   5.358   4.887 -1.8036 -0.2568 -1.5273
   24CHL1  H27C 1776   4.857   5.513   4.973 -2.3441 -0.8417  0.1501
   25CHL1    C3 1777   2.275   5.951   5.205 -0.4153 -0.2045 -0.0372
   25CHL1    H3 1778   2.188   6.001   5.157 -1.2475 -2.3820 -0.9328
   25CHL1    O3 1779   2.231   5.866   5.309 -0.0161 -0.2591  0.0507
   25CHL1   H3' 1780   2.313   5.841   5.352  0.1245  0.1181  0.0112
   25CHL1    C4 1781   2.363   5.867   5.110  0.1930  0.7829 -0.1708
   25CHL1   H4A 1782   2.446   5.819   5.166  0.1314  1.4096  0.4807
   25CHL1   H4B 1783   2.307   5.782   5.066 -0.9804  1.2513  0.3533
   25CHL1    C5 1784   2.406   5.952   4.993  0.7582 -0.2180  0.2440
   25CHL1    C6 1785   2.376   5.923   4.869 -1.1377  0.5851  0.5251
   25CHL1    H6 1786   2.321   5.831   4.844 -0.3041  0.7197 -2.1901
   25CHL1    C7 1787   2.417   5.999   4.746 -0.2192 -0.2773  0.2420
   25CHL1   H7A 1788   2.439   5.934   4.659  0.2286  0.0420  0.1113
   25CHL1   H7B 1789   2.329   6.059   4.717  0.5075  0.4025 -0.6228
   25CHL1    C8 1790   2.535   6.095   4.785 -0.3592 -0.2847  0.3275
   25CHL1    H8 1791   2.625   6.031   4.785  1.4697  2.0481 -2.4001
   25CHL1   C14 1792   2.548   6.201   4.675 -0.3167 -0.6216 -0.0988
   25CHL1   H14 1793   2.447   6.248   4.667 -0.8283 -1.6232  0.2100
   25CHL1   C15 1794   2.584   6.149   4.535  0.3286  0.1302  0.0042
   25CHL1  H15A 1795   2.660   6.068   4.542  1.4192  1.1099 -0.0421
   25CHL1  H15B 1796   2.488   6.119   4.489  0.6635 -2.7937  1.0037
   25CHL1   C16 1797   2.640   6.265   4.458 -0.0126  0.4232  0.5543
   25CHL1  H16A 1798   2.740   6.231   4.423 -1.2634 -5.8373  1.8768
   25CHL1  H16B 1799   2.576   6.306   4.377  1.0580  3.5827  1.1864
   25CHL1   C17 1800   2.645   6.381   4.558  0.0772 -0.3550 -0.8133
   25CHL1   H17 1801   2.542   6.421   4.551 -0.1430 -0.9380 -0.9682
   25CHL1   C13 1802   2.655   6.311   4.694 -0.4518  0.2892 -0.3479
   25CHL1   C18 1803   2.798   6.249   4.706  0.3860 -0.7026 -0.0122
   25CHL1  H18A 1804   2.870   6.319   4.755  0.7722  0.6189 -2.3358
   25CHL1  H18B 1805   2.788   6.160   4.772 -2.5327  0.3962  1.1573
   25CHL1  H18C 1806   2.830   6.200   4.612 -3.5057 -2.9692 -0.3673
   25CHL1   C12 1807   2.618   6.391   4.819 -0.3095 -0.2332  0.3704
   25CHL1  H12A 1808   2.701   6.457   4.855  0.1287 -1.1707  1.1200
   25CHL1  H12B 1809   2.535   6.458   4.787 -0.0878 -0.1530 -0.0455
   25CHL1   C11 1810   2.605   6.290   4.940  0.6064 -0.1244  0.5026
   25CHL1  H11A 1811   2.708   6.252   4.956  0.5485 -0.4046  0.2286
   25CHL1  H11B 1812   2.565   6.361   5.015 -2.1251  0.2920 -1.1812
   25CHL1    C9 1813   2.506   6.169   4.917 -0.0368 -0.8798  0.7992
   25CHL1    H9 1814   2.409   6.222   4.904  0.7290  0.1775 -1.0359
   25CHL1   C10 1815   2.483   6.079   5.034 -0.7235  0.7169 -0.4168
   25CHL1   C19 1816   2.625   6.033   5.077 -0.7216 -0.8492 -0.1673
   25CHL1  H19A 1817   2.621   5.960   5.161 -1.1704 -0.9348 -0.2638
   25CHL1  H19B 1818   2.680   5.980   4.996  1.0628  0.8627 -0.1514
   25CHL1  H19C 1819   2.684   6.115   5.123 -0.7082 -1.0447  0.1712
   25CHL1    C1 1820   2.414   6.155   5.150  0.4137  0.1266  0.3683
   25CHL1   H1A 1821   2.486   6.223   5.201  0.2144 -0.3288  1.2564
   25CHL1   H1B 1822   2.325   6.216   5.122  1.1330  1.6533  1.2690
   25CHL1    C2 1823   2.363   6.063   5.268 -0.3065 -0.5318  0.0402
   25CHL1   H2A 1824   2.316   6.124   5.348  0.5054 -0.7431  0.6924
   25CHL1   H2B 1825   2.451   6.013   5.313  0.9832  1.1177 -0.5400
   25CHL1   C20 1826   2.749   6.491   4.526 -0.6974 -0.2029 -0.0840
   25CHL1   H20 1827   2.852   6.452   4.541 -0.4269  0.7418  0.5628
   25CHL1   C21 1828   2.724   6.608   4.619  0.7246  0.2414  0.5383
   25CHL1  H21A 1829   2.755   6.585   4.723  0.2165 -2.8821  0.1092
   25CHL1  H21B 1830   2.618   6.640   4.619  0.8230  0.9135 -2.5506
   25CHL1  H21C 1831   2.785   6.696   4.590 -0.7945  1.1305 -0.0988
   25CHL1   C22 1832   2.751   6.541   4.380 -0.8115  0.9772  0.3234
   25CHL1  H22A 1833   2.835   6.615   4.378  0.2396 -0.1654 -1.8812
   25CHL1  H22B 1834   2.778   6.454   4.316 -0.5471  0.9713  0.4429
   25CHL1   C23 1835   2.617   6.607   4.337 -0.0251  0.5818  0.1330
   25CHL1  H23A 1836   2.534   6.535   4.353  0.9620 -0.2124  2.0923
   25CHL1  H23B 1837   2.593   6.706   4.380 -2.0545  1.2314 -2.3121
   25CHL1   C24 1838   2.621   6.649   4.189  0.4469  0.0247 -0.9653
   25CHL1  H24A 1839   2.624   6.561   4.122 -1.1413 -1.4580  0.7993
   25CHL1  H24B 1840   2.520   6.692   4.167 -0.8509 -1.1630  2.0861
   25CHL1   C25 1841   2.735   6.753   4.156 -0.1058 -0.4590  0.3098
   25CHL1   H25 1842   2.833   6.703   4.170 -0.6496 -1.2367  1.5752
   25CHL1   C26 1843   2.736   6.789   4.003  0.0036 -0.3001 -0.5822
   25CHL1  H26A 1844   2.658   6.865   3.977  0.0974 -0.5181 -1.5385
   25CHL1  H26B 1845   2.834   6.831   3.971 -0.5136  1.2854 -0.1862
   25CHL1  H26C 1846   2.729   6.702   3.933  0.1047 -2.4576  1.9597
   25CHL1   C27 1847   2.745   6.878   4.245 -0.5969  0.6367 -0.8839
   25CHL1  H27A 1848   2.652   6.938   4.239  0.5309  2.3686 -1.9440
   25CHL1  H27B 1849   2.770   6.856   4.351  0.3321  3.4691 -0.4190
   25CHL1  H27C 1850   2.831   6.937   4.207  0.6774  1.4225  2.8141
   26CHL1    C3 1851   0.822   4.195   6.035  0.2741  0.0014  1.0215
   26CHL1    H3 1852   0.804   4.086   6.049  0.0359 -0.1376 -0.3209
   26CHL1    O3 1853   0.821   4.262   6.162  0.0198 -0.3422  0.0447
   26CHL1   H3' 1854   0.832   4.356   6.145 -1.1720  0.0865  1.4429
   26CHL1    C4 1855   0.953   4.218   5.971 -0.3687  0.6633  0.0951
   26CHL1   H4A 1856   0.974   4.326   5.962  0.5542  0.4798 -0.1131
   26CHL1   H4B 1857   1.030   4.170   6.035  0.9360  0.1286 -1.7831
   26CHL1    C5 1858   0.969   4.167   5.829 -0.5135 -0.2882 -0.1057
   26CHL1    C6 1859   1.073   4.083   5.795 -0.1229 -0.0475  0.1122
   26CHL1    H6 1860   1.148   4.053   5.870 -0.0282 -0.2685 -0.0690
   26CHL1    C7 1861   1.084   4.037   5.643 -0.0549  0.1377 -0.1402
   26CHL1   H7A 1862   1.186   4.055   5.602 -0.8482  1.2113 -1.7166
   26CHL1   H7B 1863   1.065   3.929   5.626  1.0175 -0.1263  0.2789
   26CHL1    C8 1864   0.994   4.117   5.546 -0.4737  0.0256 -0.4991
   26CHL1    H8 1865   1.046   4.216   5.549  2.3564 -1.3661  0.2322
   26CHL1   C14 1866   0.986   4.053   5.412  0.6860 -0.7072 -0.2330
   26CHL1   H14 1867   0.930   3.959   5.430  0.3360 -0.1516  1.7646
   26CHL1   C15 1868   1.114   4.002   5.349 -0.2775  0.3989 -0.6222
   26CHL1  H15A 1869   1.204   4.064   5.373 -1.0010  1.5422 -0.8036
   26CHL1  H15B 1870   1.136   3.901   5.390  1.3816  2.0357  3.0051
   26CHL1   C16 1871   1.092   4.010   5.195 -0.4230 -0.1254 -0.3139
   26CHL1  H16A 1872   1.142   4.102   5.157 -2.0407  0.4266 -1.1868
   26CHL1  H16B 1873   1.125   3.920   5.137  0.0680  1.7688 -3.1836
   26CHL1   C17 1874   0.939   4.050   5.184  0.3931 -0.4065  0.0430
   26CHL1   H17 1875   0.876   3.961   5.202 -2.6994  1.7292  0.7262
   26CHL1   C13 1876   0.917   4.139   5.312 -0.3064 -0.2201  0.5835
   26CHL1   C18 1877   0.987   4.273   5.291 -0.3608  0.1096 -0.1536
   26CHL1  H18A 1878   1.011   4.317   5.390  0.1229  2.1904 -1.1296
   26CHL1  H18B 1879   1.086   4.259   5.242 -0.8007 -2.0295 -0.5295
   26CHL1  H18C 1880   0.929   4.348   5.233 -0.7727 -1.3458 -1.7176
   26CHL1   C12 1881   0.774   4.164   5.354 -0.1987  0.4867  0.8789
   26CHL1  H12A 1882   0.733   4.239   5.283  0.6062 -0.5299 -0.7130
   26CHL1  H12B 1883   0.711   4.073   5.353  0.1573  0.1419  3.4040
   26CHL1   C11 1884   0.762   4.208   5.501 -0.4124  0.1621  0.1483
   26CHL1  H11A 1885   0.798   4.312   5.487  1.8952 -0.4795  0.8465
   26CHL1  H11B 1886   0.655   4.221   5.529 -0.2319 -0.6750  1.3398
   26CHL1    C9 1887   0.851   4.144   5.598 -0.5009  0.8269 -0.2898
   26CHL1    H9 1888   0.802   4.045   5.614  0.5457  0.3919  0.3080
   26CHL1   C10 1889   0.859   4.215   5.736 -0.8388 -1.2458  0.1848
   26CHL1   C19 1890   0.886   4.368   5.706 -0.0116  0.2254  0.3091
   26CHL1  H19A 1891   0.896   4.429   5.799 -0.3951 -0.6978  0.9677
   26CHL1  H19B 1892   0.986   4.376   5.659  0.7907 -0.8592  1.7230
   26CHL1  H19C 1893   0.809   4.424   5.649  0.5536  1.8473  1.0629
   26CHL1    C1 1894   0.719   4.186   5.809 -0.1877  0.1950  0.3831
   26CHL1   H1A 1895   0.646   4.220   5.732  1.4060 -0.4278 -1.4776
   26CHL1   H1B 1896   0.706   4.077   5.827 -1.7798  0.2631 -0.1703
   26CHL1    C2 1897   0.708   4.249   5.946 -0.3931 -0.1658 -1.2582
   26CHL1   H2A 1898   0.610   4.230   5.995  0.8599 -1.0678  1.0513
   26CHL1   H2B 1899   0.720   4.359   5.938 -2.4143  0.4686  2.4920
   26CHL1   C20 1900   0.883   4.104   5.051  0.6798  0.4030 -0.4689
   26CHL1   H20 1901   0.912   4.212   5.046 -3.7262  1.8082 -0.0342
   26CHL1   C21 1902   0.731   4.103   5.040  0.1782 -0.3704 -0.4697
   26CHL1  H21A 1903   0.693   4.008   5.083  0.3557  0.4660  1.6310
   26CHL1  H21B 1904   0.692   4.115   4.936  1.5805 -3.5155 -1.4848
   26CHL1  H21C 1905   0.688   4.185   5.101  0.4144  0.4307 -1.3521
   26CHL1   C22 1906   0.938   4.022   4.938 -0.7121 -0.2063  1.0008
   26CHL1  H22A 1907   1.023   3.952   4.953 -1.4270 -1.5163 -0.7585
   26CHL1  H22B 1908   0.859   3.947   4.916 -0.3173 -0.1991 -0.5803
   26CHL1   C23 1909   0.967   4.102   4.808  0.3811  0.9464 -0.2176
   26CHL1  H23A 1910   0.865   4.131   4.775 -1.0124 -1.2023  1.7557
   26CHL1  H23B 1911   1.015   4.195   4.845 -0.1750  1.2831 -0.3284
   26CHL1   C24 1912   1.048   4.025   4.704  0.4157  0.1000  1.0492
   26CHL1  H24A 1913   1.145   3.988   4.741  0.2762 -1.2751  0.1062
   26CHL1  H24B 1914   0.982   3.937   4.686 -1.7603  1.5482  1.4927
   26CHL1   C25 1915   1.069   4.100   4.570  0.6369  0.2125 -0.2744
   26CHL1   H25 1916   1.134   4.034   4.510  0.9897 -0.6844  1.0487
   26CHL1   C26 1917   0.937   4.112   4.477 -0.6028  0.0706 -0.6404
   26CHL1  H26A 1918   0.846   4.126   4.540  0.3704 -0.0068  0.8329
   26CHL1  H26B 1919   0.946   4.186   4.396  0.7076  1.4066  0.6770
   26CHL1  H26C 1920   0.917   4.010   4.437  0.3147 -0.3711 -0.0201
   26CHL1   C27 1921   1.128   4.244   4.583  0.2010  0.0088  0.0464
   26CHL1  H27A 1922   1.224   4.239   4.638 -0.4076 -2.5582  1.0217
   26CHL1  H27B 1923   1.141   4.285   4.480  0.0400  0.7573  0.3218
   26CHL1  H27C 1924   1.059   4.300   4.649  1.7824  0.4921  1.3458
   27CHL1    C3 1925   5.024   4.527   5.883 -0.4776 -0.4572  0.0144
   27CHL1    H3 1926   4.932   4.580   5.849  1.1557  2.9380  0.4498
   27CHL1    O3 1927   5.057   4.566   6.014  0.1872 -0.2078 -0.4206
   27CHL1   H3' 1928   4.985   4.529   6.067  0.2469  0.3421  0.0568
   27CHL1    C4 1929   5.013   4.372   5.882  0.3435 -0.1630  0.0936
   27CHL1   H4A 1930   5.106   4.332   5.928 -0.5643 -1.9900  0.4308
   27CHL1   H4B 1931   4.927   4.341   5.945  1.8020 -0.4896  2.0135
   27CHL1    C5 1932   4.989   4.319   5.735 -0.3932  0.2281 -0.4596
   27CHL1    C6 1933   4.870   4.255   5.708 -0.6784 -0.4545 -0.2736
   27CHL1    H6 1934   4.786   4.246   5.779  0.3819  0.3476  1.1287
   27CHL1    C7 1935   4.846   4.192   5.573 -0.5755 -0.1425 -0.0192
   27CHL1   H7A 1936   4.809   4.087   5.584 -1.0323  0.1462  1.4289
   27CHL1   H7B 1937   4.762   4.241   5.519 -0.2722  0.1037 -0.2709
   27CHL1    C8 1938   4.980   4.191   5.479  0.4983 -0.5697 -0.2754
   27CHL1    H8 1939   5.044   4.107   5.513  0.0484 -1.2472 -1.0737
   27CHL1   C14 1940   4.934   4.186   5.336  0.6003  0.0239 -1.0512
   27CHL1   H14 1941   4.870   4.274   5.313 -2.5984 -1.5935  0.9035
   27CHL1   C15 1942   4.845   4.066   5.309  0.3143 -1.1358  0.0983
   27CHL1  H15A 1943   4.884   3.974   5.356  0.6347 -1.0441  0.0193
   27CHL1  H15B 1944   4.741   4.088   5.343 -0.2049 -0.9438 -1.5322
   27CHL1   C16 1945   4.844   4.057   5.155 -0.5655 -0.9404 -0.3120
   27CHL1  H16A 1946   4.875   3.951   5.139  1.1303 -0.4185 -0.6510
   27CHL1  H16B 1947   4.743   4.077   5.114 -0.2424 -0.8041 -1.0455
   27CHL1   C17 1948   4.948   4.165   5.106 -0.2639 -0.1148  0.3671
   27CHL1   H17 1949   4.883   4.253   5.091  1.0459  0.6138 -1.3944
   27CHL1   C13 1950   5.039   4.192   5.225 -0.7815  0.3104 -0.5815
   27CHL1   C18 1951   5.142   4.077   5.245 -0.2400  0.2149 -0.4780
   27CHL1  H18A 1952   5.116   3.973   5.215 -1.3261  0.4932 -0.5334
   27CHL1  H18B 1953   5.229   4.107   5.184 -0.3885  0.1517 -0.7235
   27CHL1  H18C 1954   5.168   4.076   5.353  0.2538  0.8222 -0.5840
   27CHL1   C12 1955   5.103   4.329   5.241  0.0308  0.9479 -0.0512
   27CHL1  H12A 1956   5.190   4.332   5.172  0.3869 -1.7524  0.1637
   27CHL1  H12B 1957   5.031   4.408   5.213 -1.5955 -0.1786  0.7794
   27CHL1   C11 1958   5.155   4.349   5.385  0.0541 -0.0445  0.0416
   27CHL1  H11A 1959   5.242   4.280   5.392 -0.6747 -1.0053 -0.1546
   27CHL1  H11B 1960   5.192   4.454   5.388  0.6741 -0.2105 -1.1944
   27CHL1    C9 1961   5.050   4.324   5.493  0.1065  0.7421 -0.2763
   27CHL1    H9 1962   4.973   4.399   5.463 -0.8521 -1.7021 -4.7970
   27CHL1   C10 1963   5.100   4.352   5.635 -0.1950 -0.3161 -0.1213
   27CHL1   C19 1964   5.230   4.263   5.670 -0.0226 -0.6465 -0.5787
   27CHL1  H19A 1965   5.305   4.292   5.594 -0.8664  0.6864 -0.9461
   27CHL1  H19B 1966   5.268   4.286   5.772 -3.6390 -3.7680  1.7460
   27CHL1  H19C 1967   5.210   4.154   5.666 -0.8170 -0.6399  1.6141
   27CHL1    C1 1968   5.138   4.499   5.649  0.7309  0.0023 -0.2746
   27CHL1   H1A 1969   5.229   4.525   5.592  0.0489 -0.2488 -1.5124
   27CHL1   H1B 1970   5.053   4.557   5.606 -1.0733 -1.4247  1.2021
   27CHL1    C2 1971   5.142   4.552   5.794 -0.0693 -0.0481  0.2738
   27CHL1   H2A 1972   5.130   4.661   5.782 -1.5515 -0.5159 -3.6359
   27CHL1   H2B 1973   5.241   4.521   5.836  1.3834  0.5391 -2.5035
   27CHL1   C20 1974   5.015   4.123   4.968 -0.2030 -0.1112  0.9920
   27CHL1   H20 1975   5.078   4.033   4.986 -0.3688 -0.4887 -0.2680
   27CHL1   C21 1976   5.098   4.242   4.919 -0.3958 -0.2564  0.5499
   27CHL1  H21A 1977   5.034   4.330   4.898 -0.4971 -0.6963 -1.1065
   27CHL1  H21B 1978   5.140   4.218   4.819 -0.2409 -1.2331  0.8414
   27CHL1  H21C 1979   5.181   4.266   4.989 -0.5271 -0.1476  0.6697
   27CHL1   C22 1980   4.919   4.086   4.853 -0.0874 -0.1576 -0.0623
   27CHL1  H22A 1981   4.846   4.015   4.896  1.4914 -0.9130  1.4741
   27CHL1  H22B 1982   4.867   4.179   4.823  0.3916 -0.1011 -0.7409
   27CHL1   C23 1983   4.978   4.019   4.728 -0.8437  0.5482  0.8094
   27CHL1  H23A 1984   4.893   3.984   4.665  0.2914  2.7244 -2.1811
   27CHL1  H23B 1985   5.031   4.093   4.664 -2.6808 -0.6303 -2.3121
   27CHL1   C24 1986   5.075   3.905   4.750 -0.2298  0.0564 -0.0664
   27CHL1  H24A 1987   5.169   3.960   4.773 -0.3809  0.1048  0.4580
   27CHL1  H24B 1988   5.049   3.843   4.838  0.7408 -1.7174 -0.9765
   27CHL1   C25 1989   5.106   3.809   4.631 -0.2969 -0.0308 -1.0008
   27CHL1   H25 1990   5.022   3.741   4.605 -0.2223 -0.9107  0.9416
   27CHL1   C26 1991   5.136   3.886   4.504  0.6211 -0.5007 -0.0956
   27CHL1  H26A 1992   5.209   3.837   4.435 -0.4916 -0.3106 -1.4560
   27CHL1  H26B 1993   5.043   3.929   4.461  0.9903  1.7252  1.2162
   27CHL1  H26C 1994   5.186   3.980   4.537 -1.5387  0.9638 -0.8092
   27CHL1   C27 1995   5.226   3.723   4.665  0.0502  0.5521  0.3767
   27CHL1  H27A 1996   5.316   3.788   4.670  0.1873  0.3669  0.3484
   27CHL1  H27B 1997   5.212   3.676   4.765 -0.7218  0.4916  0.2417
   27CHL1  H27C 1998   5.246   3.645   4.588 -1.5369  0.7294 -0.2341
   28CHL1    C3 1999   4.361   4.999   5.975  0.0174 -0.1006 -0.1280
   28CHL1    H3 2000   4.421   4.906   5.976 -0.4334 -0.3974  1.2880
   28CHL1    O3 2001   4.351   5.015   6.117 -0.5375 -0.2522  0.7269
   28CHL1   H3' 2002   4.283   5.082   6.131 -2.0988 -1.1223 -2.1219
   28CHL1    C4 2003   4.446   5.110   5.912 -0.3254  0.0029  0.4098
   28CHL1   H4A 2004   4.408   5.213   5.931  1.6927  0.8015  0.3766
   28CHL1   H4B 2005   4.547   5.115   5.957  0.1068 -0.8886 -0.4334
   28CHL1    C5 2006   4.454   5.078   5.763  0.9365  0.1226 -0.6979
   28CHL1    C6 2007   4.573   5.063   5.699 -0.0843 -0.2831  0.3442
   28CHL1    H6 2008   4.663   5.092   5.756  0.7477  2.0585 -1.9765
   28CHL1    C7 2009   4.592   5.036   5.554  0.1831  0.0801 -0.3574
   28CHL1   H7A 2010   4.672   5.096   5.507 -0.7950  0.6798 -1.2959
   28CHL1   H7B 2011   4.619   4.928   5.550  3.6490  0.7383  1.5293
   28CHL1    C8 2012   4.456   5.059   5.478 -0.0169  0.4805  0.2751
   28CHL1    H8 2013   4.435   5.167   5.464  0.1337  0.2924 -1.7383
   28CHL1   C14 2014   4.468   4.993   5.336  0.1899  0.2667  0.0747
   28CHL1   H14 2015   4.463   4.883   5.349 -4.6542  0.3823  1.0118
   28CHL1   C15 2016   4.605   5.023   5.267  0.8718 -0.0566  0.0126
   28CHL1  H15A 2017   4.622   5.131   5.286 -2.8932  0.4385  1.4784
   28CHL1  H15B 2018   4.689   4.960   5.305  2.6605  3.2718  2.0085
   28CHL1   C16 2019   4.577   5.001   5.123  0.2171  0.3242  0.6863
   28CHL1  H16A 2020   4.596   5.100   5.075 -1.3429 -0.3042 -1.3618
   28CHL1  H16B 2021   4.640   4.928   5.068 -1.7322 -1.3130  0.4834
   28CHL1   C17 2022   4.423   4.955   5.115  0.2503 -0.4250 -0.0178
   28CHL1   H17 2023   4.413   4.847   5.137 -1.3211 -0.1646  0.6021
   28CHL1   C13 2024   4.354   5.017   5.242  0.0924  0.1488  0.2700
   28CHL1   C18 2025   4.345   5.167   5.227  0.1488 -0.3992 -0.3244
   28CHL1  H18A 2026   4.318   5.227   5.317 -2.0624  1.4682 -2.1033
   28CHL1  H18B 2027   4.431   5.218   5.178 -0.1397  1.6575  1.2207
   28CHL1  H18C 2028   4.259   5.198   5.164 -1.0653  0.4780  1.6538
   28CHL1   C12 2029   4.231   4.951   5.307 -0.0909 -0.9186  0.7968
   28CHL1  H12A 2030   4.144   4.990   5.251 -0.1178  1.7602  2.5338
   28CHL1  H12B 2031   4.245   4.841   5.302 -0.8818 -1.0083  0.4246
   28CHL1   C11 2032   4.210   4.992   5.453 -0.2226  0.0572 -0.4447
   28CHL1  H11A 2033   4.173   5.097   5.444  0.3847  0.4641  1.3966
   28CHL1  H11B 2034   4.134   4.931   5.506  0.9787  2.3503  4.5897
   28CHL1    C9 2035   4.333   4.998   5.547  0.0558  1.0602 -0.4111
   28CHL1    H9 2036   4.352   4.889   5.561  0.1173  1.1514  0.2595
   28CHL1   C10 2037   4.316   5.050   5.691 -0.0182  0.0768  0.3764
   28CHL1   C19 2038   4.233   5.182   5.675  0.6204 -0.1894 -0.2101
   28CHL1  H19A 2039   4.273   5.252   5.598  0.3501  0.7301  0.4689
   28CHL1  H19B 2040   4.134   5.147   5.637  1.9579 -3.8214 -0.7089
   28CHL1  H19C 2041   4.226   5.234   5.773 -0.5050 -0.4851 -0.1218
   28CHL1    C1 2042   4.227   4.947   5.769  0.5705  0.1912  0.2158
   28CHL1   H1A 2043   4.126   4.946   5.724  1.1865  0.8793 -1.2352
   28CHL1   H1B 2044   4.263   4.842   5.769 -2.7298 -1.0347  0.2071
   28CHL1    C2 2045   4.220   4.977   5.922 -0.3418  0.5810  0.0684
   28CHL1   H2A 2046   4.165   4.901   5.981  1.0489 -1.6999 -1.4097
   28CHL1   H2B 2047   4.168   5.074   5.930 -1.6354  0.3739 -3.7356
   28CHL1   C20 2048   4.367   4.977   4.973  0.3387  0.3098  0.0034
   28CHL1   H20 2049   4.380   5.084   4.946 -1.3202  0.3479 -0.7776
   28CHL1   C21 2050   4.211   4.941   4.978 -0.3461 -0.0951 -0.0792
   28CHL1  H21A 2051   4.176   4.942   4.873 -1.1390  1.2980  0.1760
   28CHL1  H21B 2052   4.152   5.017   5.033 -1.2708 -0.5479 -0.4263
   28CHL1  H21C 2053   4.193   4.838   5.015  1.5785 -0.0162  1.2875
   28CHL1   C22 2054   4.452   4.884   4.874  0.6013  0.4936  0.3457
   28CHL1  H22A 2055   4.553   4.928   4.864 -0.4632  2.5869 -2.0607
   28CHL1  H22B 2056   4.456   4.777   4.904  2.3569 -0.2955 -2.3164
   28CHL1   C23 2057   4.400   4.894   4.729  0.5251  0.1067  0.0858
   28CHL1  H23A 2058   4.304   4.849   4.699  1.5658 -0.3308 -2.9412
   28CHL1  H23B 2059   4.398   5.004   4.712 -0.7905  0.0701 -0.0803
   28CHL1   C24 2060   4.509   4.835   4.641  0.5899  0.9915 -0.0617
   28CHL1  H24A 2061   4.606   4.887   4.651  0.7387  0.4315  1.6007
   28CHL1  H24B 2062   4.525   4.730   4.672  1.7226  1.1266 -0.1754
   28CHL1   C25 2063   4.469   4.816   4.492  0.3028 -1.0165  0.0906
   28CHL1   H25 2064   4.364   4.779   4.479 -0.9752  2.8152 -2.2580
   28CHL1   C26 2065   4.443   4.960   4.434  0.5202  0.6180 -1.0867
   28CHL1  H26A 2066   4.380   5.020   4.503  1.5174 -1.5430  1.8761
   28CHL1  H26B 2067   4.541   5.011   4.424  0.9087 -0.0054 -0.4893
   28CHL1  H26C 2068   4.402   4.961   4.330 -1.5116  0.4447 -0.3347
   28CHL1   C27 2069   4.579   4.739   4.416 -0.1428 -0.1340  0.2781
   28CHL1  H27A 2070   4.667   4.804   4.397  0.7821 -1.8344 -1.7704
   28CHL1  H27B 2071   4.607   4.648   4.473 -3.7797 -1.3225  0.4310
   28CHL1  H27C 2072   4.547   4.709   4.313  1.7973 -0.5692 -0.2474
   29CHL1    C3 2073   0.048   2.911   2.999  0.1040 -0.3380 -0.4027
   29CHL1    H3 2074   0.064   2.807   3.035  1.1135  0.1430  0.6098
   29CHL1    O3 2075   0.067   2.904   2.860  0.8964  0.1583  0.2619
   29CHL1   H3' 2076  -0.016   2.897   2.812  1.3592 -1.5806 -0.3378
   29CHL1    C4 2077  -0.096   2.951   3.027  0.1685 -0.2232  0.5324
   29CHL1   H4A 2078  -0.117   3.041   2.966  0.9985 -0.1366  0.3517
   29CHL1   H4B 2079  -0.158   2.869   2.987  1.1689 -0.7798  0.0794
   29CHL1    C5 2080  -0.121   2.973   3.174  0.7683  0.1086 -0.3903
   29CHL1    C6 2081  -0.229   2.913   3.225 -0.0275  0.3852  0.6928
   29CHL1    H6 2082  -0.301   2.862   3.160  1.0466  1.4584 -1.4355
   29CHL1    C7 2083  -0.260   2.922   3.367 -0.5429 -0.2313  0.2434
   29CHL1   H7A 2084  -0.370   2.922   3.386 -1.0373 -0.8389 -2.2789
   29CHL1   H7B 2085  -0.232   2.826   3.415 -2.4253 -0.1763  1.5846
   29CHL1    C8 2086  -0.187   3.041   3.448 -0.6559  0.7960 -0.7926
   29CHL1    H8 2087  -0.230   3.136   3.408 -0.0817  1.4341  0.0666
   29CHL1   C14 2088  -0.201   3.026   3.607 -0.2671 -0.4885  0.4429
   29CHL1   H14 2089  -0.157   2.926   3.629  1.6123  0.5293  1.5296
   29CHL1   C15 2090  -0.338   3.033   3.668 -0.0423  0.2677 -0.0755
   29CHL1  H15A 2091  -0.399   3.114   3.623 -0.9870  0.4981  1.5314
   29CHL1  H15B 2092  -0.412   2.954   3.643  0.5257 -0.3751  0.2338
   29CHL1   C16 2093  -0.317   3.057   3.816 -0.0682  0.5765 -0.3419
   29CHL1  H16A 2094  -0.383   3.141   3.847  1.5615  1.1874  1.6957
   29CHL1  H16B 2095  -0.345   2.970   3.878 -0.5557  0.7916 -0.2554
   29CHL1   C17 2096  -0.166   3.099   3.831 -0.0185 -0.8216  1.7359
   29CHL1   H17 2097  -0.108   3.008   3.859  1.2772  0.0713  2.0628
   29CHL1   C13 2098  -0.118   3.131   3.691  0.3828 -0.1526  0.0173
   29CHL1   C18 2099  -0.168   3.279   3.660 -0.1425 -0.0354 -0.3279
   29CHL1  H18A 2100  -0.093   3.346   3.707  0.0583 -1.2163  1.1106
   29CHL1  H18B 2101  -0.170   3.304   3.552 -2.8753 -0.2425 -0.3932
   29CHL1  H18C 2102  -0.271   3.297   3.698 -0.1013 -2.2586  1.0505
   29CHL1   C12 2103   0.028   3.111   3.650 -0.0452  0.3297  0.1678
   29CHL1  H12A 2104   0.088   3.189   3.703  2.4918  1.2596 -3.6648
   29CHL1  H12B 2105   0.072   3.018   3.692  0.0763  0.9780  1.5419
   29CHL1   C11 2106   0.057   3.127   3.499  0.2311 -0.3535  0.0082
   29CHL1  H11A 2107   0.035   3.233   3.472 -2.2060 -0.7817  0.0732
   29CHL1  H11B 2108   0.165   3.117   3.476  0.6631  2.9462  0.0636
   29CHL1    C9 2109  -0.039   3.035   3.406  0.2016  0.1741  0.0363
   29CHL1    H9 2110  -0.013   2.929   3.427 -1.8196 -0.0474  1.8605
   29CHL1   C10 2111  -0.010   3.045   3.255  0.0850 -0.0357  0.0054
   29CHL1   C19 2112  -0.022   3.196   3.223  0.1838  0.4658  0.5886
   29CHL1  H19A 2113  -0.121   3.220   3.268 -0.6844  1.3471 -1.6618
   29CHL1  H19B 2114   0.055   3.263   3.265 -2.3201  3.2168  1.1493
   29CHL1  H19C 2115  -0.016   3.213   3.114  1.7712  2.8170  0.9684
   29CHL1    C1 2116   0.131   2.983   3.223 -0.1867 -0.3886 -0.5538
   29CHL1   H1A 2117   0.214   3.036   3.275 -0.2360 -2.9112  2.3683
   29CHL1   H1B 2118   0.135   2.876   3.250  0.3552 -0.4339 -0.7883
   29CHL1    C2 2119   0.164   2.990   3.070 -0.0257  0.1872  0.0028
   29CHL1   H2A 2120   0.260   2.937   3.051 -0.4242 -0.3201 -0.6212
   29CHL1   H2B 2121   0.169   3.092   3.025  0.9458  0.4472  0.6883
   29CHL1   C20 2122  -0.174   3.204   3.944 -0.1407  0.5262 -0.0079
   29CHL1   H20 2123  -0.234   3.290   3.909  2.2481  1.3175 -2.4266
   29CHL1   C21 2124  -0.029   3.254   3.975  0.4360 -0.0310  0.5803
   29CHL1  H21A 2125   0.022   3.302   3.889  1.7773  1.7063  2.2792
   29CHL1  H21B 2126   0.033   3.168   4.007  0.7558  0.2839  0.8120
   29CHL1  H21C 2127  -0.033   3.325   4.060  1.0098  0.5660  0.1184
   29CHL1   C22 2128  -0.236   3.142   4.078  0.9389 -0.2780 -0.2520
   29CHL1  H22A 2129  -0.344   3.128   4.055  1.4683 -1.0234 -2.6291
   29CHL1  H22B 2130  -0.194   3.039   4.085  2.5151  0.3932  0.4828
   29CHL1   C23 2131  -0.223   3.220   4.209 -0.1038 -0.1432  0.1559
   29CHL1  H23A 2132  -0.119   3.202   4.245 -0.7944  0.4457  2.5963
   29CHL1  H23B 2133  -0.238   3.329   4.191  0.0398  0.1476  1.6504
   29CHL1   C24 2134  -0.321   3.189   4.330  1.2587 -0.2970  0.5033
   29CHL1  H24A 2135  -0.294   3.266   4.404 -1.4921  1.4584 -0.1687
   29CHL1  H24B 2136  -0.421   3.219   4.292  1.4699  0.5245  0.5740
   29CHL1   C25 2137  -0.328   3.048   4.382 -0.1872  0.9996 -0.5753
   29CHL1   H25 2138  -0.233   2.997   4.355 -1.8630 -2.7690 -0.1097
   29CHL1   C26 2139  -0.365   3.050   4.532 -0.1307  0.2631  0.2283
   29CHL1  H26A 2140  -0.469   3.084   4.551 -0.5290 -1.3742  1.2125
   29CHL1  H26B 2141  -0.367   2.945   4.569 -2.5502 -1.0932 -3.1934
   29CHL1  H26C 2142  -0.296   3.111   4.594  0.3904  0.5467 -0.6096
   29CHL1   C27 2143  -0.439   2.961   4.314  0.5470  0.0976 -0.6185
   29CHL1  H27A 2144  -0.537   3.009   4.335  0.5725  0.9659 -2.3029
   29CHL1  H27B 2145  -0.423   2.949   4.205 -0.5537  1.0052 -0.9040
   29CHL1  H27C 2146  -0.421   2.857   4.348  1.8190 -0.0111 -1.5403
   30CHL1    C3 2147   0.024   5.452   3.108  0.9572  0.0332  0.1270
   30CHL1    H3 2148   0.059   5.556   3.120  1.8289 -0.4813  2.7828
   30CHL1    O3 2149  -0.037   5.408   2.984  0.3433 -0.7824 -0.5162
   30CHL1   H3' 2150   0.024   5.430   2.914  0.8652  1.2288  0.4883
   30CHL1    C4 2151   0.152   5.365   3.126 -0.2667  0.5678 -0.5290
   30CHL1   H4A 2152   0.110   5.263   3.135  0.6292  0.4037  2.7577
   30CHL1   H4B 2153   0.224   5.364   3.041  0.6924 -2.0515  0.2221
   30CHL1    C5 2154   0.215   5.383   3.269 -0.3262  0.7226  0.4146
   30CHL1    C6 2155   0.347   5.423   3.273  0.6445 -0.9427 -0.6712
   30CHL1    H6 2156   0.403   5.454   3.184 -0.7827  0.7095 -1.0628
   30CHL1    C7 2157   0.411   5.446   3.405  0.3658 -0.4332  0.2414
   30CHL1   H7A 2158   0.515   5.408   3.415 -0.0809 -1.4320  1.4021
   30CHL1   H7B 2159   0.411   5.553   3.433 -2.3043  0.2047 -1.8082
   30CHL1    C8 2160   0.324   5.386   3.530 -0.1312  0.9273 -0.1095
   30CHL1    H8 2161   0.320   5.276   3.516  0.5532  0.8092  0.5380
   30CHL1   C14 2162   0.389   5.421   3.655 -0.0571 -0.2526  0.4134
   30CHL1   H14 2163   0.389   5.532   3.655  0.8560 -0.2448  0.5014
   30CHL1   C15 2164   0.537   5.385   3.677 -0.1937  0.1187  0.1299
   30CHL1  H15A 2165   0.557   5.282   3.640  1.9975  0.7390 -0.5639
   30CHL1  H15B 2166   0.606   5.451   3.620 -1.6064  1.2141 -0.3585
   30CHL1   C16 2167   0.557   5.394   3.828  0.6318 -0.3748  0.3466
   30CHL1  H16A 2168   0.592   5.296   3.870 -1.8047 -1.2403  0.4860
   30CHL1  H16B 2169   0.627   5.475   3.860  1.5172 -1.1961  0.5626
   30CHL1   C17 2170   0.421   5.423   3.886  0.1276  0.5539  0.3547
   30CHL1   H17 2171   0.417   5.534   3.884 -0.0976  0.5365 -0.3383
   30CHL1   C13 2172   0.317   5.372   3.780 -0.3219  0.6293  0.2670
   30CHL1   C18 2173   0.310   5.213   3.784 -0.1989 -0.1898 -0.3933
   30CHL1  H18A 2174   0.404   5.167   3.822 -0.9436 -1.6044 -0.2157
   30CHL1  H18B 2175   0.225   5.165   3.837  0.1025 -0.8211 -0.4683
   30CHL1  H18C 2176   0.313   5.170   3.682  2.4446 -1.0282 -0.0564
   30CHL1   C12 2177   0.171   5.426   3.783 -0.6522  0.4346 -0.5827
   30CHL1  H12A 2178   0.117   5.365   3.859  0.4927 -1.4826 -1.2170
   30CHL1  H12B 2179   0.169   5.536   3.794  1.9384  0.5673 -0.7172
   30CHL1   C11 2180   0.098   5.392   3.653  0.0758  0.3104 -0.6073
   30CHL1  H11A 2181   0.065   5.286   3.660 -0.2137  0.4841  1.0711
   30CHL1  H11B 2182  -0.002   5.437   3.666 -0.4654 -1.2344  0.9953
   30CHL1    C9 2183   0.177   5.421   3.521  0.0177 -0.2024  0.1396
   30CHL1    H9 2184   0.181   5.532   3.516  2.2407 -0.2126  0.3077
   30CHL1   C10 2185   0.123   5.367   3.392  0.2534  0.0826  0.1809
   30CHL1   C19 2186   0.090   5.211   3.401 -0.3351 -0.8812  0.2391
   30CHL1  H19A 2187   0.181   5.151   3.425  1.0615  0.8667 -0.3712
   30CHL1  H19B 2188   0.010   5.199   3.477 -1.8097  1.1904 -0.8624
   30CHL1  H19C 2189   0.053   5.175   3.304  1.2266 -1.6666 -0.1039
   30CHL1    C1 2190  -0.008   5.443   3.360  0.6913 -0.5644 -0.0905
   30CHL1   H1A 2191  -0.079   5.407   3.438  0.7051  0.1080  0.2469
   30CHL1   H1B 2192   0.006   5.553   3.371 -0.6207 -0.3843  0.0273
   30CHL1    C2 2193  -0.070   5.418   3.220  0.1566  0.4261 -0.1301
   30CHL1   H2A 2194  -0.155   5.490   3.212  2.2096  2.8501 -1.4497
   30CHL1   H2B 2195  -0.113   5.316   3.214 -0.7314  0.7681  0.1560
   30CHL1   C20 2196   0.415   5.375   4.034 -0.3498 -0.6283 -0.1062
   30CHL1   H20 2197   0.420   5.264   4.034  1.5337 -0.5830 -0.5871
   30CHL1   C21 2198   0.281   5.419   4.092 -0.5866  0.3613  0.2880
   30CHL1  H21A 2199   0.279   5.385   4.197  2.3660  0.6742  0.5152
   30CHL1  H21B 2200   0.189   5.374   4.047 -1.6631  0.3652  2.3798
   30CHL1  H21C 2201   0.261   5.528   4.088  0.4244  0.5269 -2.0844
   30CHL1   C22 2202   0.537   5.431   4.115 -0.3920 -0.3198 -0.0431
   30CHL1  H22A 2203   0.632   5.390   4.073 -0.0479 -1.0840  1.4341
   30CHL1  H22B 2204   0.556   5.539   4.096  1.3147 -0.7358 -0.9105
   30CHL1   C23 2205   0.534   5.399   4.268  0.8368  0.7356 -0.6188
   30CHL1  H23A 2206   0.629   5.445   4.302  0.8407 -0.6948  1.5066
   30CHL1  H23B 2207   0.453   5.460   4.313  0.5469 -0.8069  1.0624
   30CHL1   C24 2208   0.516   5.257   4.311  0.0536 -0.5585 -0.1411
   30CHL1  H24A 2209   0.475   5.243   4.413 -0.5965 -3.3142 -0.6961
   30CHL1  H24B 2210   0.434   5.211   4.251  1.0553 -1.3973 -0.9046
   30CHL1   C25 2211   0.640   5.172   4.300  0.2302  0.1731  0.3619
   30CHL1   H25 2212   0.687   5.199   4.203 -1.2397  0.0815 -0.4023
   30CHL1   C26 2213   0.737   5.196   4.421 -0.1163  0.5612  0.5690
   30CHL1  H26A 2214   0.838   5.151   4.415  0.3005  1.5592 -0.1131
   30CHL1  H26B 2215   0.755   5.305   4.426 -0.9593  0.7374  0.1135
   30CHL1  H26C 2216   0.694   5.152   4.513  0.5575  0.7222  0.9622
   30CHL1   C27 2217   0.593   5.027   4.294  0.6180 -0.2517 -0.0192
   30CHL1  H27A 2218   0.519   5.010   4.375 -0.1655  0.3620 -0.5819
   30CHL1  H27B 2219   0.528   5.005   4.206  1.8334  0.3160 -1.1015
   30CHL1  H27C 2220   0.670   4.948   4.304  1.5224  0.4550 -1.0909
   31CHL1    C3 2221   0.394   0.609   2.606 -0.5328  0.1556  0.0461
   31CHL1    H3 2222   0.354   0.506   2.619 -1.1113  0.4063  0.2981
   31CHL1    O3 2223   0.423   0.622   2.465 -0.1999 -0.2759 -0.4128
   31CHL1   H3' 2224   0.441   0.716   2.465  0.7032 -0.4247 -1.9661
   31CHL1    C4 2225   0.283   0.704   2.653 -0.4093  0.3823 -0.1894
   31CHL1   H4A 2226   0.327   0.799   2.616  0.9719  0.1903  0.8773
   31CHL1   H4B 2227   0.188   0.683   2.599 -1.4806 -2.1674  2.4472
   31CHL1    C5 2228   0.263   0.715   2.805  0.4839  0.8377 -0.2205
   31CHL1    C6 2229   0.139   0.691   2.855 -0.2036 -0.3287  0.1474
   31CHL1    H6 2230   0.060   0.681   2.779  1.1534  1.0189 -1.5089
   31CHL1    C7 2231   0.108   0.707   2.998  0.3579  0.4241 -0.0044
   31CHL1   H7A 2232   0.033   0.786   3.020  0.5939  0.9754 -1.0921
   31CHL1   H7B 2233   0.066   0.610   3.030  0.4211 -0.2878 -1.9191
   31CHL1    C8 2234   0.232   0.755   3.084  0.1248  0.2093  0.4641
   31CHL1    H8 2235   0.237   0.866   3.079  2.4006  0.1787  0.9488
   31CHL1   C14 2236   0.214   0.719   3.233 -0.2393 -0.4632  0.4353
   31CHL1   H14 2237   0.230   0.609   3.236  1.3056 -0.2615  0.9303
   31CHL1   C15 2238   0.083   0.746   3.313  0.4161 -0.2155 -0.9874
   31CHL1  H15A 2239   0.042   0.845   3.282 -1.5216 -1.2604 -1.9464
   31CHL1  H15B 2240  -0.001   0.680   3.282 -0.3524  1.3521 -2.4119
   31CHL1   C16 2241   0.126   0.768   3.461  0.0020  0.3102 -0.3694
   31CHL1  H16A 2242   0.121   0.873   3.496 -0.7777 -0.1801  1.0977
   31CHL1  H16B 2243   0.066   0.697   3.522 -0.6254 -1.1873 -2.5984
   31CHL1   C17 2244   0.278   0.723   3.469 -0.3083  0.1203 -0.0472
   31CHL1   H17 2245   0.284   0.612   3.466 -1.7265  0.0389 -0.1373
   31CHL1   C13 2246   0.328   0.775   3.327 -0.2658  0.4480 -0.6556
   31CHL1   C18 2247   0.333   0.930   3.319 -0.9614  0.8182 -0.2185
   31CHL1  H18A 2248   0.384   0.982   3.403  0.1985 -1.0385  0.2890
   31CHL1  H18B 2249   0.372   0.977   3.226 -0.5995  3.2922  1.1106
   31CHL1  H18C 2250   0.227   0.961   3.331 -2.6285 -2.7745 -3.3697
   31CHL1   C12 2251   0.457   0.719   3.278 -0.3732 -0.1812 -0.4854
   31CHL1  H12A 2252   0.548   0.760   3.326  1.0596 -3.9533  0.3586
   31CHL1  H12B 2253   0.467   0.610   3.294 -0.6020 -0.1718 -0.2830
   31CHL1   C11 2254   0.479   0.744   3.132  0.2037 -0.3358  0.2223
   31CHL1  H11A 2255   0.500   0.853   3.131 -1.2290 -0.0318 -0.6234
   31CHL1  H11B 2256   0.570   0.696   3.090 -0.7310 -2.2074  0.2383
   31CHL1    C9 2257   0.363   0.697   3.039  0.8118 -0.3160 -0.0459
   31CHL1    H9 2258   0.352   0.588   3.052 -0.1277  0.0593  3.1090
   31CHL1   C10 2259   0.388   0.730   2.888  0.5715  0.0419 -0.0723
   31CHL1   C19 2260   0.448   0.874   2.874  0.4255  0.2952  0.1376
   31CHL1  H19A 2261   0.463   0.891   2.766 -1.6323 -2.2007 -0.6508
   31CHL1  H19B 2262   0.374   0.951   2.904 -1.9489 -2.1951  1.0455
   31CHL1  H19C 2263   0.544   0.892   2.928  1.1613 -0.2884 -0.9403
   31CHL1    C1 2264   0.492   0.628   2.836  0.3510 -0.2051  0.3092
   31CHL1   H1A 2265   0.586   0.644   2.894  0.0448  0.4633  0.6435
   31CHL1   H1B 2266   0.451   0.525   2.843  0.5725 -0.4103 -1.1161
   31CHL1    C2 2267   0.523   0.635   2.686  0.1069 -0.4164  0.0526
   31CHL1   H2A 2268   0.606   0.567   2.657  0.9138  0.2680  0.6984
   31CHL1   H2B 2269   0.559   0.736   2.656 -0.0203 -0.6074 -0.7781
   31CHL1   C20 2270   0.357   0.772   3.598  1.1892 -0.1540 -0.5005
   31CHL1   H20 2271   0.370   0.882   3.589 -1.1932  0.1994 -0.4101
   31CHL1   C21 2272   0.494   0.704   3.599  0.0773  0.3696 -0.1279
   31CHL1  H21A 2273   0.548   0.710   3.696  1.7447 -4.0468 -0.5591
   31CHL1  H21B 2274   0.562   0.731   3.516  0.5428 -0.8196 -0.1488
   31CHL1  H21C 2275   0.469   0.596   3.587  2.2608 -0.0227 -1.7534
   31CHL1   C22 2276   0.265   0.746   3.725  0.4979  0.2361 -0.5156
   31CHL1  H22A 2277   0.161   0.782   3.712 -0.0164 -0.9952  0.0462
   31CHL1  H22B 2278   0.268   0.635   3.727  3.1119  0.2339 -0.4930
   31CHL1   C23 2279   0.319   0.797   3.861 -0.5039  0.8707  0.2718
   31CHL1  H23A 2280   0.239   0.777   3.935 -0.8947  3.5135  0.6370
   31CHL1  H23B 2281   0.409   0.737   3.886  0.9388  2.0201 -1.8519
   31CHL1   C24 2282   0.350   0.946   3.873  0.2424  0.7949  0.1712
   31CHL1  H24A 2283   0.441   0.963   3.811  0.5381 -1.0156  0.0564
   31CHL1  H24B 2284   0.272   1.012   3.829 -0.3434 -0.6676 -1.0987
   31CHL1   C25 2285   0.379   0.996   4.015 -0.0129 -0.4325 -0.4308
   31CHL1   H25 2286   0.281   0.994   4.066 -1.0383  2.4644 -2.0877
   31CHL1   C26 2287   0.484   0.916   4.095 -0.5782  0.1704  0.0981
   31CHL1  H26A 2288   0.572   0.915   4.028  1.4667  2.1340  2.5426
   31CHL1  H26B 2289   0.510   0.960   4.194  0.1523  0.0249 -0.0274
   31CHL1  H26C 2290   0.444   0.813   4.103 -0.6375  0.0214 -1.8429
   31CHL1   C27 2291   0.423   1.142   4.011 -0.2564 -0.2544 -0.1681
   31CHL1  H27A 2292   0.443   1.184   4.112 -0.3859 -0.4677 -0.0533
   31CHL1  H27B 2293   0.518   1.145   3.955 -0.4842 -0.2059 -0.5556
   31CHL1  H27C 2294   0.344   1.204   3.962  0.8892  2.0565  0.7299
   32CHL1    C3 2295   0.707   3.850   2.476 -0.2441 -0.3031  0.1164
   32CHL1    H3 2296   0.670   3.745   2.475  2.0077 -1.1656 -1.2346
   32CHL1    O3 2297   0.745   3.885   2.337  0.4195 -0.1116 -0.0687
   32CHL1   H3' 2298   0.764   3.979   2.339  0.2373 -0.0581  2.5959
   32CHL1    C4 2299   0.610   3.953   2.525 -0.1230  0.3966 -0.6215
   32CHL1   H4A 2300   0.649   4.057   2.531 -1.5026  0.9161 -0.3589
   32CHL1   H4B 2301   0.521   3.953   2.459  1.6050  0.9273 -3.0724
   32CHL1    C5 2302   0.578   3.918   2.671  0.4233  0.1114 -0.4303
   32CHL1    C6 2303   0.452   3.894   2.713  0.0611  0.7564 -0.2680
   32CHL1    H6 2304   0.369   3.894   2.640  0.8246  1.1873 -1.1455
   32CHL1    C7 2305   0.420   3.873   2.856 -0.7701 -0.6188 -0.1452
   32CHL1   H7A 2306   0.329   3.931   2.882 -0.0423  1.3781 -1.7721
   32CHL1   H7B 2307   0.401   3.765   2.876 -1.6897 -0.4798 -0.2368
   32CHL1    C8 2308   0.536   3.917   2.958 -0.2933 -0.1443 -0.2130
   32CHL1    H8 2309   0.542   4.028   2.965  0.5307 -0.3032  2.9156
   32CHL1   C14 2310   0.501   3.876   3.095 -0.4654 -0.3420 -0.6030
   32CHL1   H14 2311   0.498   3.765   3.102  0.6702 -0.3960 -0.7927
   32CHL1   C15 2312   0.369   3.923   3.146  0.0014 -0.4205 -0.5107
   32CHL1  H15A 2313   0.369   4.033   3.135 -1.1351 -0.4627 -1.1083
   32CHL1  H15B 2314   0.275   3.878   3.107 -0.2963  1.6403 -2.3701
   32CHL1   C16 2315   0.377   3.904   3.295 -0.0407  0.3701 -0.6009
   32CHL1  H16A 2316   0.352   3.995   3.354 -0.1493 -0.0557  0.0342
   32CHL1  H16B 2317   0.304   3.824   3.323 -0.6538  1.1198 -0.0197
   32CHL1   C17 2318   0.531   3.870   3.337 -0.7216 -0.4395  0.0890
   32CHL1   H17 2319   0.538   3.760   3.340  0.5943 -0.3534  2.0830
   32CHL1   C13 2320   0.608   3.908   3.208 -0.0947 -0.0869 -0.3002
   32CHL1   C18 2321   0.636   4.063   3.210 -0.4555  0.4591 -0.5604
   32CHL1  H18A 2322   0.684   4.107   3.121  0.9837  0.4825  0.1966
   32CHL1  H18B 2323   0.547   4.122   3.241 -0.2196  0.2228  0.6170
   32CHL1  H18C 2324   0.705   4.077   3.296  0.1838 -0.2057 -0.9571
   32CHL1   C12 2325   0.738   3.828   3.170 -0.4737 -0.1017 -0.0723
   32CHL1  H12A 2326   0.807   3.852   3.254 -0.5297 -1.1210  0.2836
   32CHL1  H12B 2327   0.712   3.720   3.172 -1.6039  0.1406  2.2053
   32CHL1   C11 2328   0.781   3.872   3.025  0.3886  0.1416  0.1704
   32CHL1  H11A 2329   0.806   3.980   3.033 -0.9597  0.5920 -1.1559
   32CHL1  H11B 2330   0.872   3.812   3.001  0.0909 -0.7378  1.1659
   32CHL1    C9 2331   0.672   3.860   2.910 -0.2767  0.6609 -0.1473
   32CHL1    H9 2332   0.663   3.749   2.903  2.4414  0.4116 -0.7030
   32CHL1   C10 2333   0.703   3.908   2.769 -0.1319 -0.3004 -0.0665
   32CHL1   C19 2334   0.761   4.054   2.785 -0.1081  0.4465  0.1091
   32CHL1  H19A 2335   0.802   4.092   2.689 -1.7518  0.2366 -0.7179
   32CHL1  H19B 2336   0.705   4.131   2.843  2.4157  2.0720  0.5293
   32CHL1  H19C 2337   0.856   4.040   2.840 -0.2301 -1.6415 -0.1416
   32CHL1    C1 2338   0.811   3.815   2.706  0.1410 -1.0431  1.2983
   32CHL1   H1A 2339   0.905   3.826   2.764  0.3772  1.4424  0.5442
   32CHL1   H1B 2340   0.776   3.709   2.707  1.8463 -1.6456  1.7236
   32CHL1    C2 2341   0.832   3.846   2.561 -0.4712 -0.3272 -0.3131
   32CHL1   H2A 2342   0.899   3.774   2.509 -1.2993 -0.6597 -0.9337
   32CHL1   H2B 2343   0.888   3.942   2.556  0.0507 -0.6377 -0.5689
   32CHL1   C20 2344   0.569   3.922   3.477 -0.1321 -0.2469  0.5536
   32CHL1   H20 2345   0.556   4.033   3.478  1.1447  0.1996 -4.6369
   32CHL1   C21 2346   0.720   3.892   3.512  0.6238 -0.4437  0.5838
   32CHL1  H21A 2347   0.737   3.782   3.513 -0.6376 -0.6809 -0.9093
   32CHL1  H21B 2348   0.747   3.932   3.612 -0.5149  1.6794  0.0968
   32CHL1  H21C 2349   0.785   3.948   3.441  0.4473 -2.8442 -1.6586
   32CHL1   C22 2350   0.469   3.873   3.581  0.7317  0.3087 -0.6741
   32CHL1  H22A 2351   0.372   3.927   3.571  0.6567  0.1863 -0.6145
   32CHL1  H22B 2352   0.452   3.763   3.573  0.0048  0.0722  2.6539
   32CHL1   C23 2353   0.514   3.887   3.733 -0.2796  0.0650  0.5514
   32CHL1  H23A 2354   0.602   3.821   3.754 -0.9604 -0.3484  2.3319
   32CHL1  H23B 2355   0.560   3.988   3.741 -0.7772  0.3390 -0.0147
   32CHL1   C24 2356   0.404   3.853   3.821 -0.2940  0.1263  0.2581
   32CHL1  H24A 2357   0.308   3.904   3.795 -0.7855 -0.6385  0.5267
   32CHL1  H24B 2358   0.388   3.743   3.814  1.3819 -0.0306 -3.2545
   32CHL1   C25 2359   0.418   3.883   3.972  0.2722  0.0060 -0.2292
   32CHL1   H25 2360   0.427   3.992   3.988 -0.7532  0.3005 -1.5107
   32CHL1   C26 2361   0.285   3.849   4.042 -0.4076  0.4548  0.0781
   32CHL1  H26A 2362   0.252   3.745   4.020  0.7083 -0.0109  0.5234
   32CHL1  H26B 2363   0.301   3.856   4.152  0.9193  0.4717 -0.1020
   32CHL1  H26C 2364   0.214   3.926   4.005 -1.1063  0.3964  1.2567
   32CHL1   C27 2365   0.526   3.797   4.037 -0.0529  0.6569 -0.1622
   32CHL1  H27A 2366   0.540   3.816   4.146 -0.4151  3.4787 -0.5435
   32CHL1  H27B 2367   0.496   3.690   4.049  0.6897  0.5054  0.4452
   32CHL1  H27C 2368   0.619   3.795   3.977 -1.0017 -0.0828 -1.6661
   33CHL1    C3 2369   5.358   3.087   2.983 -0.4627  0.1273 -1.2345
   33CHL1    H3 2370   5.270   3.026   3.010  0.0073 -0.4231 -0.9254
   33CHL1    O3 2371   5.373   3.106   2.849 -0.0199 -0.4031  0.0417
   33CHL1   H3' 2372   5.376   3.021   2.804  0.3863 -0.3595 -0.0181
   33CHL1    C4 2373   5.335   3.226   3.050 -0.2211  0.4381  0.0615
   33CHL1   H4A 2374   5.405   3.298   3.003 -1.3494  2.1100  0.8397
   33CHL1   H4B 2375   5.234   3.256   3.014 -0.1904 -0.4437 -0.8036
   33CHL1    C5 2376   5.333   3.237   3.197  0.4325 -0.4792 -1.1619
   33CHL1    C6 2377   5.230   3.281   3.272 -0.5370 -0.2474  0.1833
   33CHL1    H6 2378   5.139   3.310   3.219 -1.3996 -0.4115  1.5237
   33CHL1    C7 2379   5.224   3.280   3.421  0.0666 -0.5056 -0.3329
   33CHL1   H7A 2380   5.172   3.371   3.458  0.0693  0.0390 -1.6149
   33CHL1   H7B 2381   5.163   3.194   3.456  0.0865 -0.9875 -1.4325
   33CHL1    C8 2382   5.368   3.265   3.481  0.7714 -0.4932 -0.0295
   33CHL1    H8 2383   5.416   3.365   3.468 -0.2160  0.2419  1.5686
   33CHL1   C14 2384   5.356   3.230   3.631  0.5921 -0.1573 -0.5540
   33CHL1   H14 2385   5.303   3.132   3.621 -1.7122  1.0003 -0.3441
   33CHL1   C15 2386   5.270   3.313   3.725  0.1960  0.9325 -0.0326
   33CHL1  H15A 2387   5.287   3.422   3.710  0.3694  1.1571  1.6162
   33CHL1  H15B 2388   5.160   3.299   3.720  0.2805  0.2249  0.0547
   33CHL1   C16 2389   5.319   3.278   3.867  0.0051 -0.3720 -0.0212
   33CHL1  H16A 2390   5.371   3.365   3.914 -0.3009  0.7590 -1.6887
   33CHL1  H16B 2391   5.245   3.232   3.935  0.6914 -1.4045  0.0489
   33CHL1   C17 2392   5.430   3.166   3.849 -0.1611 -0.1513 -0.7570
   33CHL1   H17 2393   5.371   3.072   3.853  0.4365 -0.5854 -1.8512
   33CHL1   C13 2394   5.486   3.198   3.710 -0.1096 -0.1660  0.1450
   33CHL1   C18 2395   5.575   3.321   3.716  0.5676  0.3024  0.2637
   33CHL1  H18A 2396   5.681   3.302   3.745  0.9611  0.8147 -0.7904
   33CHL1  H18B 2397   5.582   3.363   3.613  1.0399 -2.7681 -1.0527
   33CHL1  H18C 2398   5.537   3.397   3.788 -1.6104 -0.4642 -0.0253
   33CHL1   C12 2399   5.553   3.078   3.640 -0.0410  0.3201  0.0805
   33CHL1  H12A 2400   5.656   3.054   3.672 -0.3833 -1.4094 -0.0046
   33CHL1  H12B 2401   5.494   2.985   3.655 -0.4988  0.6961  0.6653
   33CHL1   C11 2402   5.578   3.104   3.490 -0.1657 -0.1068  0.2584
   33CHL1  H11A 2403   5.651   3.189   3.485 -1.6952  1.2150 -0.5597
   33CHL1  H11B 2404   5.634   3.022   3.440  0.3706  0.6825 -0.4774
   33CHL1    C9 2405   5.455   3.157   3.411  0.4685 -0.0662  0.6695
   33CHL1    H9 2406   5.378   3.077   3.422  0.8030 -0.7100 -1.2011
   33CHL1   C10 2407   5.468   3.174   3.257  0.5778  0.3301 -0.1355
   33CHL1   C19 2408   5.585   3.274   3.220  0.4465  0.2843  0.0727
   33CHL1  H19A 2409   5.599   3.297   3.112  1.5709  2.4217  0.6315
   33CHL1  H19B 2410   5.582   3.375   3.267  0.4274 -0.3744  1.5475
   33CHL1  H19C 2411   5.679   3.226   3.255  0.8258 -0.5982 -1.9866
   33CHL1    C1 2412   5.494   3.035   3.199  0.1001 -0.5594 -0.2515
   33CHL1   H1A 2413   5.600   3.005   3.215  0.4345  0.8996  0.4832
   33CHL1   H1B 2414   5.429   2.957   3.244 -0.3984  0.2322  0.4419
   33CHL1    C2 2415   5.483   3.025   3.040  0.6747 -0.9358 -0.2342
   33CHL1   H2A 2416   5.506   2.925   2.998  1.2277 -1.1762  0.6144
   33CHL1   H2B 2417   5.571   3.078   3.000  0.3170 -0.0830  0.0880
   33CHL1   C20 2418   5.524   3.174   3.967 -0.3407  0.2837 -0.5163
   33CHL1   H20 2419   5.592   3.262   3.971  1.3005 -0.9729  0.6477
   33CHL1   C21 2420   5.623   3.050   3.952  0.2283  0.7997 -0.3575
   33CHL1  H21A 2421   5.548   2.970   3.936  0.8698  0.5786 -2.5292
   33CHL1  H21B 2422   5.685   3.022   4.040 -0.7261  0.8676  0.3517
   33CHL1  H21C 2423   5.687   3.063   3.862  0.5448 -2.3100 -0.6884
   33CHL1   C22 2424   5.459   3.142   4.104  0.1652  0.2316 -0.1267
   33CHL1  H22A 2425   5.354   3.176   4.104 -0.6666 -2.1768 -0.6137
   33CHL1  H22B 2426   5.458   3.036   4.136  3.0606  0.1130 -0.1607
   33CHL1   C23 2427   5.540   3.200   4.217 -0.1836 -0.6746 -0.1006
   33CHL1  H23A 2428   5.640   3.152   4.213 -0.3709 -1.2801 -5.2622
   33CHL1  H23B 2429   5.559   3.308   4.204  1.9937 -1.3207 -4.0117
   33CHL1   C24 2430   5.470   3.171   4.354  0.3065 -0.3384 -0.1035
   33CHL1  H24A 2431   5.360   3.178   4.339  0.2974 -1.4699 -0.7021
   33CHL1  H24B 2432   5.500   3.078   4.406  1.7203 -0.3629 -0.8874
   33CHL1   C25 2433   5.490   3.286   4.465 -0.5049  0.3410  0.0660
   33CHL1   H25 2434   5.453   3.242   4.560 -0.2811 -0.2829 -0.1275
   33CHL1   C26 2435   5.636   3.336   4.477 -0.0347 -0.0123  0.3866
   33CHL1  H26A 2436   5.654   3.378   4.376 -1.7203  0.4841  0.2521
   33CHL1  H26B 2437   5.649   3.422   4.546  1.7207  1.5710 -1.7874
   33CHL1  H26C 2438   5.704   3.254   4.509  0.5060 -0.8995 -2.7398
   33CHL1   C27 2439   5.396   3.412   4.438 -0.4487  0.2242  0.8038
   33CHL1  H27A 2440   5.294   3.369   4.423 -0.4942  0.2344  1.0822
   33CHL1  H27B 2441   5.391   3.491   4.515 -1.6703  1.5913 -0.6127
   33CHL1  H27C 2442   5.427   3.464   4.345 -2.9926 -2.2406 -1.6282
   34CHL1    C3 2443   6.376   6.463   2.738  0.1912 -0.1306 -0.2505
   34CHL1    H3 2444   6.455   6.525   2.786 -1.2504  1.2347  0.4573
   34CHL1    O3 2445   6.399   6.435   2.602  0.0244  0.5318 -0.1809
   34CHL1   H3' 2446   6.360   6.511   2.558 -0.1868 -0.2999 -1.4618
   34CHL1    C4 2447   6.386   6.328   2.825 -0.3089 -0.0674 -0.0825
   34CHL1   H4A 2448   6.314   6.261   2.774 -2.2743  0.9931  1.1256
   34CHL1   H4B 2449   6.486   6.292   2.794  0.3141  3.0639 -2.1820
   34CHL1    C5 2450   6.347   6.349   2.970 -0.9365  0.0584  0.4310
   34CHL1    C6 2451   6.425   6.300   3.072 -0.1327  0.2750  0.7831
   34CHL1    H6 2452   6.523   6.255   3.049 -0.4495 -0.8934  1.6232
   34CHL1    C7 2453   6.397   6.318   3.217  0.6389  0.4880 -0.2211
   34CHL1   H7A 2454   6.393   6.224   3.275 -1.0780 -1.1194 -2.7476
   34CHL1   H7B 2455   6.482   6.384   3.247  1.4616 -0.2867 -0.7792
   34CHL1    C8 2456   6.268   6.391   3.243  0.4559 -0.3311  0.2934
   34CHL1    H8 2457   6.187   6.314   3.241 -1.6163  1.7612 -0.8233
   34CHL1   C14 2458   6.286   6.456   3.383 -0.6800 -0.1864 -0.3349
   34CHL1   H14 2459   6.354   6.542   3.364 -0.4973 -0.4461 -0.8652
   34CHL1   C15 2460   6.322   6.373   3.504 -0.2321 -0.5131  0.1788
   34CHL1  H15A 2461   6.254   6.285   3.516 -0.3236 -0.1073  3.6744
   34CHL1  H15B 2462   6.424   6.330   3.493  0.1464  0.2563  0.6581
   34CHL1   C16 2463   6.291   6.472   3.619 -0.1985  0.5169 -0.2169
   34CHL1  H16A 2464   6.247   6.422   3.708  1.6142 -0.0217  0.4350
   34CHL1  H16B 2465   6.384   6.524   3.650  1.0203  0.0120 -2.7648
   34CHL1   C17 2466   6.198   6.587   3.561  0.5743 -0.4647 -0.5285
   34CHL1   H17 2467   6.268   6.671   3.541  1.8119 -1.3291  0.0607
   34CHL1   C13 2468   6.158   6.530   3.430  0.5550 -0.0114  0.4425
   34CHL1   C18 2469   6.034   6.439   3.457  0.6278  0.0993 -0.2532
   34CHL1  H18A 2470   6.009   6.382   3.365  2.0606 -0.2833 -0.4255
   34CHL1  H18B 2471   6.052   6.378   3.548 -1.1600  1.4998  1.1023
   34CHL1  H18C 2472   5.942   6.498   3.475  1.2352 -0.0150  4.5144
   34CHL1   C12 2473   6.134   6.641   3.326  0.1202  0.0782 -0.6972
   34CHL1  H12A 2474   6.042   6.695   3.356 -1.0642 -2.5125  0.6312
   34CHL1  H12B 2475   6.220   6.710   3.316  0.4990 -0.1366  0.8666
   34CHL1   C11 2476   6.108   6.582   3.188 -0.1639 -0.1030  0.6710
   34CHL1  H11A 2477   6.016   6.521   3.186  0.6790 -1.4788 -2.5814
   34CHL1  H11B 2478   6.089   6.661   3.112 -0.6906 -1.8245 -1.0788
   34CHL1    C9 2479   6.231   6.499   3.137 -0.4242 -0.1605 -0.8772
   34CHL1    H9 2480   6.322   6.563   3.140 -0.1965 -0.4980 -0.4131
   34CHL1   C10 2481   6.226   6.446   2.996 -0.6287 -0.2974  1.0108
   34CHL1   C19 2482   6.106   6.346   2.984  0.4552 -0.2486  0.2697
   34CHL1  H19A 2483   6.089   6.318   2.878 -1.2753 -0.1197  0.4813
   34CHL1  H19B 2484   6.120   6.249   3.038  0.9959 -0.7287 -0.7010
   34CHL1  H19C 2485   6.007   6.390   3.010  0.0102 -0.0508 -1.6159
   34CHL1    C1 2486   6.201   6.564   2.896  0.3127  0.1565 -0.5378
   34CHL1   H1A 2487   6.099   6.606   2.901  0.4312  0.4490 -0.5519
   34CHL1   H1B 2488   6.268   6.639   2.943 -0.6452  2.0792 -2.1049
   34CHL1    C2 2489   6.239   6.529   2.755 -0.2155  0.1163 -0.6153
   34CHL1   H2A 2490   6.240   6.624   2.698 -1.2072  0.4222 -0.1438
   34CHL1   H2B 2491   6.160   6.462   2.716 -1.3026  1.0617 -0.1103
   34CHL1   C20 2492   6.107   6.650   3.667  0.3443 -0.0002 -0.4226
   34CHL1   H20 2493   6.011   6.594   3.674  0.1317  0.2830 -1.0171
   34CHL1   C21 2494   6.058   6.791   3.628 -0.3945  0.4986  0.0964
   34CHL1  H21A 2495   6.004   6.790   3.531  1.0841  0.1491 -0.7448
   34CHL1  H21B 2496   6.145   6.858   3.615  1.1662 -0.4710  4.0898
   34CHL1  H21C 2497   5.993   6.838   3.705 -1.8573 -0.0105 -0.7885
   34CHL1   C22 2498   6.169   6.645   3.810 -0.2742 -1.2982 -0.3044
   34CHL1  H22A 2499   6.165   6.537   3.834  0.7701 -1.6790 -1.7572
   34CHL1  H22B 2500   6.276   6.676   3.810 -0.8944  1.1415 -1.6950
   34CHL1   C23 2501   6.102   6.716   3.931  0.1680 -0.4474 -0.4462
   34CHL1  H23A 2502   6.168   6.703   4.019  0.1985  0.0384 -0.3902
   34CHL1  H23B 2503   6.097   6.825   3.909  0.1624 -0.3921 -0.1781
   34CHL1   C24 2504   5.965   6.669   3.973 -0.1953 -0.0744 -0.5130
   34CHL1  H24A 2505   5.899   6.682   3.885 -1.4395  4.1105  0.7980
   34CHL1  H24B 2506   5.970   6.565   4.012 -0.9401 -0.9992 -2.7138
   34CHL1   C25 2507   5.913   6.757   4.086  0.1312  0.2767  0.0448
   34CHL1   H25 2508   6.000   6.761   4.156 -0.9088 -2.4926  1.6426
   34CHL1   C26 2509   5.879   6.901   4.052  0.5510 -0.0817 -0.3198
   34CHL1  H26A 2510   5.791   6.923   3.986  0.4782 -0.6209 -0.4047
   34CHL1  H26B 2511   5.874   6.961   4.145 -0.3849 -0.4785 -0.1008
   34CHL1  H26C 2512   5.966   6.943   3.997 -1.0312  0.4629 -2.5986
   34CHL1   C27 2513   5.793   6.695   4.164 -0.4529 -0.2758 -0.1631
   34CHL1  H27A 2514   5.704   6.699   4.097  0.7087 -1.3526 -1.8719
   34CHL1  H27B 2515   5.820   6.591   4.193 -0.9151  0.0048  1.3303
   34CHL1  H27C 2516   5.778   6.745   4.262 -0.7773  0.9191 -0.8061
   35CHL1    C3 2517   4.325   6.499   2.856 -0.4966  0.1378  0.3195
   35CHL1    H3 2518   4.403   6.577   2.851 -0.1374 -0.2872 -2.9833
   35CHL1    O3 2519   4.254   6.484   2.730  0.3249 -0.6594  0.5331
   35CHL1   H3' 2520   4.287   6.555   2.675 -2.3442  2.1132  2.1653
   35CHL1    C4 2521   4.397   6.358   2.898  0.3822 -0.4598  0.1405
   35CHL1   H4A 2522   4.335   6.266   2.895  0.7495 -0.8167  2.0879
   35CHL1   H4B 2523   4.469   6.344   2.814 -0.4531 -0.9595 -0.5134
   35CHL1    C5 2524   4.461   6.391   3.034  0.0783  0.8073  0.1499
   35CHL1    C6 2525   4.588   6.384   3.052  0.4771 -0.3199  0.1168
   35CHL1    H6 2526   4.656   6.361   2.969  1.3940  2.0623  0.1154
   35CHL1    C7 2527   4.653   6.399   3.187 -0.2796 -0.0819 -0.1049
   35CHL1   H7A 2528   4.729   6.320   3.210 -0.5279 -0.1895  0.3624
   35CHL1   H7B 2529   4.711   6.493   3.195 -1.1843  0.5182 -0.4710
   35CHL1    C8 2530   4.561   6.395   3.307 -0.2749  0.4752  0.1734
   35CHL1    H8 2531   4.530   6.288   3.311  2.0348 -0.2209  1.5790
   35CHL1   C14 2532   4.642   6.433   3.431  0.7923  0.0479 -0.4054
   35CHL1   H14 2533   4.669   6.541   3.423 -1.3270  0.7940  1.4319
   35CHL1   C15 2534   4.773   6.358   3.471  0.0741 -0.4920 -0.3599
   35CHL1  H15A 2535   4.759   6.248   3.468 -2.7454 -0.2444  1.1220
   35CHL1  H15B 2536   4.847   6.385   3.392  0.3996  0.2328  0.1771
   35CHL1   C16 2537   4.796   6.401   3.613 -0.1091 -0.3995 -0.2151
   35CHL1  H16A 2538   4.828   6.309   3.666 -0.0555  0.0301  0.5196
   35CHL1  H16B 2539   4.874   6.480   3.621 -1.6854  1.0767  2.9920
   35CHL1   C17 2540   4.659   6.454   3.667  0.2157  0.0084  0.5546
   35CHL1   H17 2541   4.663   6.565   3.658  2.2652 -0.2202 -3.4065
   35CHL1   C13 2542   4.550   6.422   3.552 -0.1989  0.0166 -0.1532
   35CHL1   C18 2543   4.501   6.277   3.571 -0.4139  0.1062 -0.5137
   35CHL1  H18A 2544   4.456   6.245   3.475  2.2609  0.3175 -1.9126
   35CHL1  H18B 2545   4.575   6.195   3.584 -1.7358 -1.5621 -2.7737
   35CHL1  H18C 2546   4.421   6.273   3.649  0.8218 -1.3653  0.7533
   35CHL1   C12 2547   4.431   6.519   3.539  0.2377 -0.1727  0.3989
   35CHL1  H12A 2548   4.351   6.498   3.614 -1.1813  0.0987 -0.9854
   35CHL1  H12B 2549   4.477   6.617   3.559  2.1186 -1.0849  0.7585
   35CHL1   C11 2550   4.352   6.509   3.406 -0.2514 -0.2311 -0.5527
   35CHL1  H11A 2551   4.274   6.431   3.420  2.0345 -2.3729  1.2939
   35CHL1  H11B 2552   4.295   6.604   3.396 -0.8097 -0.4343  0.6128
   35CHL1    C9 2553   4.446   6.481   3.286  0.3474 -0.5000  0.0565
   35CHL1    H9 2554   4.485   6.581   3.255  1.8418 -0.9896  0.2695
   35CHL1   C10 2555   4.368   6.435   3.149 -0.3888  0.2281 -0.0969
   35CHL1   C19 2556   4.284   6.307   3.171  0.3850 -0.1927  0.4132
   35CHL1  H19A 2557   4.350   6.237   3.228  1.5644  0.6823  0.1758
   35CHL1  H19B 2558   4.191   6.338   3.222 -0.1842 -3.3241  1.5262
   35CHL1  H19C 2559   4.251   6.259   3.076  0.4401 -1.6479  1.0994
   35CHL1    C1 2560   4.277   6.555   3.102 -0.6645  0.7095 -0.4178
   35CHL1   H1A 2561   4.195   6.556   3.178  0.8787  0.0738  1.3290
   35CHL1   H1B 2562   4.346   6.642   3.106  0.2935 -0.0581  0.3844
   35CHL1    C2 2563   4.223   6.533   2.961  0.2013 -0.1658 -0.0741
   35CHL1   H2A 2564   4.179   6.633   2.941  1.0097  0.2828  0.3227
   35CHL1   H2B 2565   4.141   6.458   2.963  0.2768 -0.2526 -0.2027
   35CHL1   C20 2566   4.628   6.433   3.811  0.4167 -0.8583 -0.3976
   35CHL1   H20 2567   4.591   6.331   3.836 -1.6035  0.4677  2.4944
   35CHL1   C21 2568   4.520   6.533   3.859  0.0218  0.3285  0.2697
   35CHL1  H21A 2569   4.484   6.498   3.958  1.2685 -3.6368 -0.4838
   35CHL1  H21B 2570   4.426   6.533   3.799  0.2732 -1.1554 -0.1771
   35CHL1  H21C 2571   4.559   6.636   3.871 -2.1473  1.2390 -0.0279
   35CHL1   C22 2572   4.759   6.454   3.889 -0.4630 -0.6172  0.1567
   35CHL1  H22A 2573   4.841   6.389   3.851 -0.0549 -0.5027  0.8131
   35CHL1  H22B 2574   4.793   6.556   3.864 -0.8029 -0.8606 -1.4077
   35CHL1   C23 2575   4.743   6.425   4.044 -0.6015 -0.0907  0.3791
   35CHL1  H23A 2576   4.665   6.499   4.074 -1.1235 -0.0686 -0.9897
   35CHL1  H23B 2577   4.695   6.325   4.049 -3.4647  1.1016 -1.0117
   35CHL1   C24 2578   4.881   6.447   4.121  0.4901 -0.0089 -0.1131
   35CHL1  H24A 2579   4.946   6.370   4.076 -1.6530 -3.9178  2.8444
   35CHL1  H24B 2580   4.907   6.555   4.114 -1.0145  0.7746  3.6885
   35CHL1   C25 2581   4.863   6.417   4.269 -0.5816  0.5714 -0.4077
   35CHL1   H25 2582   4.771   6.467   4.306  0.3343  1.9844  0.0213
   35CHL1   C26 2583   4.835   6.262   4.296  0.1098 -0.1048  0.5818
   35CHL1  H26A 2584   4.748   6.224   4.237 -0.5492  0.1915  1.3631
   35CHL1  H26B 2585   4.932   6.208   4.285  0.2522  0.4371 -1.2316
   35CHL1  H26C 2586   4.808   6.253   4.403 -0.8069 -0.0009  0.3697
   35CHL1   C27 2587   4.987   6.454   4.348  0.2397  0.4037  0.0082
   35CHL1  H27A 2588   4.983   6.420   4.454 -0.2525 -0.1989 -0.1993
   35CHL1  H27B 2589   5.082   6.406   4.318  0.9528 -0.0595  2.7220
   35CHL1  H27C 2590   4.992   6.565   4.343 -0.2829  0.3888 -2.8703
   36CHL1    C3 2591   5.731   1.984   2.899 -0.7605 -0.6353  0.1474
   36CHL1    H3 2592   5.823   1.963   2.957 -0.9629  0.7051  0.9964
   36CHL1    O3 2593   5.746   1.964   2.761 -0.3128  0.1139 -0.5313
   36CHL1   H3' 2594   5.661   1.972   2.716  0.1425  2.3821 -1.1561
   36CHL1    C4 2595   5.614   1.892   2.943  0.4745 -0.6355 -0.3573
   36CHL1   H4A 2596   5.521   1.923   2.891  1.6483  2.8012 -0.6703
   36CHL1   H4B 2597   5.639   1.788   2.910  1.9815 -0.4587  0.1520
   36CHL1    C5 2598   5.601   1.903   3.095  0.5798  0.4525 -0.3752
   36CHL1    C6 2599   5.606   1.793   3.171  0.6935  0.1627 -1.0839
   36CHL1    H6 2600   5.621   1.693   3.126 -2.5967 -1.3175  0.7435
   36CHL1    C7 2601   5.569   1.797   3.318  0.0431  0.2899 -0.5579
   36CHL1   H7A 2602   5.489   1.725   3.344  1.0065 -0.9719 -1.0128
   36CHL1   H7B 2603   5.662   1.763   3.369  1.5068 -1.3708 -4.0233
   36CHL1    C8 2604   5.518   1.933   3.368  0.9743  0.0154 -0.3202
   36CHL1    H8 2605   5.409   1.937   3.343  0.2976  2.4063  2.3672
   36CHL1   C14 2606   5.534   1.947   3.518 -0.4028 -0.3406  0.1548
   36CHL1   H14 2607   5.642   1.955   3.542 -0.0822 -0.9405 -1.0186
   36CHL1   C15 2608   5.479   1.834   3.603  0.0295  0.2334 -0.2996
   36CHL1  H15A 2609   5.376   1.810   3.568  0.6679 -0.5860 -1.6799
   36CHL1  H15B 2610   5.538   1.741   3.593 -0.9987 -0.4089 -0.5640
   36CHL1   C16 2611   5.467   1.905   3.740 -0.1697  0.1933  0.2354
   36CHL1  H16A 2612   5.368   1.868   3.774  0.1235 -4.0580 -2.8398
   36CHL1  H16B 2613   5.541   1.862   3.811 -2.5898 -0.1939  2.7050
   36CHL1   C17 2614   5.483   2.058   3.724 -0.1675  0.4494 -0.1754
   36CHL1   H17 2615   5.591   2.068   3.746  0.4992  0.1734 -2.9121
   36CHL1   C13 2616   5.472   2.085   3.574  0.3709  0.8585 -0.5211
   36CHL1   C18 2617   5.324   2.097   3.539  0.9274 -0.8656 -0.3024
   36CHL1  H18A 2618   5.276   1.998   3.550 -2.2400  0.6118  0.3323
   36CHL1  H18B 2619   5.262   2.176   3.586 -0.3840 -1.0748 -1.6357
   36CHL1  H18C 2620   5.327   2.126   3.432  0.6834 -0.5460 -0.2251
   36CHL1   C12 2621   5.554   2.197   3.517 -0.2494 -0.4731  0.2259
   36CHL1  H12A 2622   5.507   2.292   3.547  3.3399  1.3422  0.6502
   36CHL1  H12B 2623   5.656   2.184   3.560  1.0036 -0.7680 -2.6380
   36CHL1   C11 2624   5.563   2.192   3.365 -0.2677 -0.5700 -0.1032
   36CHL1  H11A 2625   5.470   2.233   3.320  0.3359 -0.0901 -0.9453
   36CHL1  H11B 2626   5.642   2.266   3.340 -2.0690  0.8875 -1.7806
   36CHL1    C9 2627   5.584   2.048   3.300  0.4619 -0.4291  0.0392
   36CHL1    H9 2628   5.694   2.029   3.308  0.3745 -1.6349 -1.2123
   36CHL1   C10 2629   5.563   2.040   3.146 -0.3986 -0.0744 -0.1333
   36CHL1   C19 2630   5.413   2.067   3.107  0.8538 -0.7940  1.1617
   36CHL1  H19A 2631   5.391   2.080   2.999  2.7015 -1.4877  0.6669
   36CHL1  H19B 2632   5.349   1.980   3.132 -0.9954  0.1637  0.0362
   36CHL1  H19C 2633   5.369   2.148   3.168 -1.2840 -2.2588  1.6724
   36CHL1    C1 2634   5.652   2.148   3.068 -0.2545  0.0643 -0.5904
   36CHL1   H1A 2635   5.601   2.247   3.070 -0.7433 -0.1295 -2.0059
   36CHL1   H1B 2636   5.745   2.163   3.126 -1.7331  1.4603  1.6099
   36CHL1    C2 2637   5.682   2.128   2.922 -0.3372  0.2256  0.0488
   36CHL1   H2A 2638   5.749   2.202   2.874  0.9945 -0.7977  0.2575
   36CHL1   H2B 2639   5.589   2.132   2.862  0.5954  4.4669 -1.4883
   36CHL1   C20 2640   5.390   2.124   3.823  0.3302  0.0089  0.3107
   36CHL1   H20 2641   5.288   2.099   3.788 -0.4428  0.2498  2.2577
   36CHL1   C21 2642   5.407   2.278   3.816 -0.0994 -0.3664  0.3009
   36CHL1  H21A 2643   5.512   2.294   3.851  0.0946 -0.1993 -0.3513
   36CHL1  H21B 2644   5.347   2.341   3.885  1.7555  2.8321 -0.7921
   36CHL1  H21C 2645   5.399   2.320   3.714 -2.8800  0.0357  0.6022
   36CHL1   C22 2646   5.408   2.066   3.964  0.3945  0.1314  0.1869
   36CHL1  H22A 2647   5.387   1.957   3.970  1.6784 -0.2178 -1.3304
   36CHL1  H22B 2648   5.516   2.085   3.983  0.1382  0.5710  1.3136
   36CHL1   C23 2649   5.328   2.125   4.078  0.3293  0.0312  0.3498
   36CHL1  H23A 2650   5.351   2.078   4.176  0.9815  2.8564  1.6476
   36CHL1  H23B 2651   5.360   2.232   4.078  1.5636 -0.3216  0.1426
   36CHL1   C24 2652   5.170   2.118   4.058  0.0481 -0.5270  0.3293
   36CHL1  H24A 2653   5.137   2.185   3.976  0.9402 -0.0370  0.3524
   36CHL1  H24B 2654   5.145   2.016   4.023 -0.8511 -0.0689 -0.4099
   36CHL1   C25 2655   5.081   2.156   4.178  0.0542 -0.0498  0.0513
   36CHL1   H25 2656   4.986   2.124   4.132  0.4191 -1.8992  0.5176
   36CHL1   C26 2657   5.112   2.077   4.309 -0.0980  0.1954  0.5483
   36CHL1  H26A 2658   5.216   2.094   4.344  0.3869 -0.0192 -0.7497
   36CHL1  H26B 2659   5.047   2.117   4.390 -2.2102 -0.3275 -0.8093
   36CHL1  H26C 2660   5.085   1.973   4.281 -0.5913  0.2922  0.6548
   36CHL1   C27 2661   5.079   2.309   4.208  0.7444 -0.4779 -0.2000
   36CHL1  H27A 2662   5.029   2.328   4.305  0.9427 -1.6848  0.1549
   36CHL1  H27B 2663   5.184   2.337   4.233  0.3936  0.0201  0.7601
   36CHL1  H27C 2664   5.030   2.372   4.131 -1.4736 -0.0944  1.4253
   37CHL1    C3 2665   2.589   5.354   2.755 -0.5470 -0.5313  0.0972
   37CHL1    H3 2666   2.673   5.281   2.752  0.6570  0.7975  0.1517
   37CHL1    O3 2667   2.589   5.399   2.618  0.1389 -0.0946 -0.6957
   37CHL1   H3' 2668   2.519   5.465   2.610  0.2468  0.4467  1.9120
   37CHL1    C4 2669   2.453   5.291   2.791 -0.0061  0.0346 -0.0000
   37CHL1   H4A 2670   2.372   5.367   2.782  0.0385  0.0341 -0.4556
   37CHL1   H4B 2671   2.426   5.205   2.725 -1.6646  0.4778  0.0406
   37CHL1    C5 2672   2.450   5.242   2.936 -0.1380  0.1313  0.0135
   37CHL1    C6 2673   2.402   5.116   2.965  0.2570 -0.4639  0.5722
   37CHL1    H6 2674   2.370   5.051   2.883  2.4453 -0.3591 -0.4282
   37CHL1    C7 2675   2.391   5.066   3.109  0.5601  0.3057  0.1394
   37CHL1   H7A 2676   2.291   5.021   3.128  0.3522  1.1931  1.2428
   37CHL1   H7B 2677   2.463   4.984   3.132 -0.7491 -0.9814 -0.2371
   37CHL1    C8 2678   2.404   5.183   3.214 -0.9206 -0.1723 -0.2078
   37CHL1    H8 2679   2.304   5.233   3.215 -0.8067  0.0534  0.6081
   37CHL1   C14 2680   2.415   5.123   3.350 -0.7357 -0.0246 -0.1701
   37CHL1   H14 2681   2.504   5.058   3.329  0.4216  1.8461 -1.3809
   37CHL1   C15 2682   2.302   5.026   3.400 -0.0265 -0.2142  0.0582
   37CHL1  H15A 2683   2.201   5.068   3.383  0.1337  0.5074  0.8174
   37CHL1  H15B 2684   2.309   4.929   3.346 -1.2331 -0.1365 -0.2557
   37CHL1   C16 2685   2.332   5.007   3.548 -0.0459  0.1201 -0.2371
   37CHL1  H16A 2686   2.251   5.045   3.614 -2.2029 -1.2126 -2.0075
   37CHL1  H16B 2687   2.348   4.898   3.559 -1.5428 -0.3185 -2.0484
   37CHL1   C17 2688   2.462   5.089   3.576  0.1804  0.1720  0.3075
   37CHL1   H17 2689   2.553   5.028   3.555  0.3834  0.1010  1.3347
   37CHL1   C13 2690   2.455   5.205   3.477  0.0068 -0.6387  0.0001
   37CHL1   C18 2691   2.337   5.306   3.509  0.4022  0.0135  0.0428
   37CHL1  H18A 2692   2.305   5.351   3.412 -1.2157 -0.8303  0.1431
   37CHL1  H18B 2693   2.248   5.255   3.552  1.1509 -0.3614  1.1911
   37CHL1  H18C 2694   2.371   5.398   3.561  1.5237 -0.5875  0.4105
   37CHL1   C12 2695   2.588   5.284   3.434  0.2727 -0.0858  1.0401
   37CHL1  H12A 2696   2.616   5.355   3.515  0.9586  0.0134  0.7200
   37CHL1  H12B 2697   2.669   5.216   3.400 -0.4366  0.7715 -2.8649
   37CHL1   C11 2698   2.564   5.369   3.305 -0.7558  0.2281 -0.7575
   37CHL1  H11A 2699   2.487   5.449   3.313 -0.7023  0.2128 -0.0991
   37CHL1  H11B 2700   2.662   5.414   3.279 -1.9380  2.9401 -0.8170
   37CHL1    C9 2701   2.524   5.280   3.185  0.2079  0.2779  0.1038
   37CHL1    H9 2702   2.611   5.211   3.183  0.8019  1.0420 -0.7708
   37CHL1   C10 2703   2.500   5.348   3.047  0.4519  0.4474  0.2297
   37CHL1   C19 2704   2.392   5.456   3.062  0.6498  0.0830 -0.1687
   37CHL1  H19A 2705   2.363   5.500   2.964 -0.6893 -1.5206 -0.5473
   37CHL1  H19B 2706   2.295   5.414   3.098 -0.2490  1.1705 -1.2315
   37CHL1  H19C 2707   2.427   5.529   3.138 -0.2754 -0.3373  0.6830
   37CHL1    C1 2708   2.636   5.407   2.999  0.3824  0.1285  0.5911
   37CHL1   H1A 2709   2.655   5.495   3.064 -0.3225  2.2056 -1.8742
   37CHL1   H1B 2710   2.720   5.335   3.005  1.4546  0.9470 -2.5905
   37CHL1    C2 2711   2.633   5.465   2.858  0.4561 -0.1453  0.1931
   37CHL1   H2A 2712   2.726   5.510   2.817  0.9782 -0.9411  0.4632
   37CHL1   H2B 2713   2.557   5.545   2.857  1.1050  0.5687 -3.0451
   37CHL1   C20 2714   2.482   5.114   3.728  0.0548  0.1664  0.2012
   37CHL1   H20 2715   2.387   5.162   3.760 -0.5967  0.0146 -1.3589
   37CHL1   C21 2716   2.590   5.220   3.760  0.4099 -0.0416  0.6462
   37CHL1  H21A 2717   2.563   5.320   3.719 -2.8197 -2.0689 -2.8492
   37CHL1  H21B 2718   2.687   5.185   3.720  0.3238 -0.5272  0.8581
   37CHL1  H21C 2719   2.595   5.246   3.868  3.1771 -0.0609  0.5936
   37CHL1   C22 2720   2.498   4.982   3.805  0.8711 -1.3123 -0.4852
   37CHL1  H22A 2721   2.416   4.911   3.780  0.1142 -1.2198  1.5042
   37CHL1  H22B 2722   2.591   4.933   3.770  1.4188  0.3071 -1.3992
   37CHL1   C23 2723   2.487   5.010   3.959 -0.3936  0.2144  0.3313
   37CHL1  H23A 2724   2.544   5.101   3.989 -2.1596  0.9355  1.6959
   37CHL1  H23B 2725   2.381   5.029   3.984 -0.4734 -0.7633  0.7552
   37CHL1   C24 2726   2.521   4.885   4.024  0.2089  0.4256  0.9687
   37CHL1  H24A 2727   2.463   4.804   3.975 -0.8920  0.7793  1.6744
   37CHL1  H24B 2728   2.628   4.861   4.002 -0.0423 -0.0292  0.1738
   37CHL1   C25 2729   2.496   4.895   4.175  0.4740 -0.0659 -0.1898
   37CHL1   H25 2730   2.454   4.994   4.200  1.4254  0.2455  0.1893
   37CHL1   C26 2731   2.399   4.783   4.206  0.5387 -0.3394 -0.7314
   37CHL1  H26A 2732   2.369   4.794   4.313  1.3876  0.3224 -0.5466
   37CHL1  H26B 2733   2.316   4.765   4.136  1.3440 -0.3590 -1.7074
   37CHL1  H26C 2734   2.463   4.692   4.198  1.9414  0.6192 -0.8591
   37CHL1   C27 2735   2.627   4.880   4.254  0.5030 -0.6232 -0.2128
   37CHL1  H27A 2736   2.702   4.954   4.220 -0.4755  0.2191 -0.5882
   37CHL1  H27B 2737   2.599   4.913   4.356 -0.5530  0.4411 -0.8237
   37CHL1  H27C 2738   2.678   4.782   4.257  1.3962 -0.1718  2.3674
   38CHL1    C3 2739   0.748   5.513   2.807 -0.5679 -0.3699  0.5661
   38CHL1    H3 2740   0.814   5.598   2.779 -0.4135 -1.1878 -1.8925
   38CHL1    O3 2741   0.680   5.481   2.681  0.3192 -0.1645 -0.0331
   38CHL1   H3' 2742   0.749   5.468   2.615 -0.0395 -1.3455 -0.1882
   38CHL1    C4 2743   0.827   5.397   2.853 -0.0156 -0.1599 -0.0637
   38CHL1   H4A 2744   0.759   5.309   2.845 -0.6683  0.4939 -3.9783
   38CHL1   H4B 2745   0.909   5.387   2.778  1.4471 -0.7183  1.5543
   38CHL1    C5 2746   0.904   5.406   2.982 -0.1870  1.0014 -0.3524
   38CHL1    C6 2747   1.040   5.384   2.998 -0.2678  0.6463 -0.2463
   38CHL1    H6 2748   1.105   5.358   2.914  0.3608 -0.4482  0.5508
   38CHL1    C7 2749   1.104   5.394   3.131  0.2593  0.1449 -0.6247
   38CHL1   H7A 2750   1.185   5.318   3.139 -0.5704 -0.6902  0.1616
   38CHL1   H7B 2751   1.152   5.492   3.148 -0.3661  0.0552  2.1463
   38CHL1    C8 2752   1.001   5.377   3.248  0.6574  0.5353 -0.5710
   38CHL1    H8 2753   0.957   5.275   3.243  1.2406  0.1799  0.9977
   38CHL1   C14 2754   1.070   5.402   3.381 -0.2772  0.4995 -0.0158
   38CHL1   H14 2755   1.123   5.500   3.370 -0.4045  0.4101 -1.7174
   38CHL1   C15 2756   1.192   5.309   3.414 -0.0692  0.1420  0.4099
   38CHL1  H15A 2757   1.168   5.201   3.401  0.1358  0.0413  0.8410
   38CHL1  H15B 2758   1.285   5.324   3.354  0.5333 -3.2703  0.2427
   38CHL1   C16 2759   1.205   5.332   3.571 -0.3096  0.1230  0.5912
   38CHL1  H16A 2760   1.196   5.233   3.621 -1.5457 -0.3983 -0.5964
   38CHL1  H16B 2761   1.309   5.366   3.588  1.1473 -1.2981 -3.9912
   38CHL1   C17 2762   1.094   5.428   3.619 -0.2809 -0.4697  0.5087
   38CHL1   H17 2763   1.134   5.531   3.604  0.7094 -0.9593 -0.2917
   38CHL1   C13 2764   0.984   5.408   3.508 -0.2766 -0.7695 -0.4142
   38CHL1   C18 2765   0.906   5.273   3.525 -0.6271 -0.2831 -0.7109
   38CHL1  H18A 2766   0.978   5.189   3.538  1.6476  1.4666 -1.3898
   38CHL1  H18B 2767   0.851   5.290   3.619  1.1646  0.8993  0.1776
   38CHL1  H18C 2768   0.840   5.241   3.442  0.3750 -1.6190 -1.0338
   38CHL1   C12 2769   0.897   5.527   3.489  0.8000  0.4939 -0.9007
   38CHL1  H12A 2770   0.831   5.546   3.576  0.4224  2.1922 -1.5208
   38CHL1  H12B 2771   0.958   5.619   3.479  0.8736  0.3366 -2.1415
   38CHL1   C11 2772   0.815   5.506   3.358  0.2030 -0.4509 -0.2657
   38CHL1  H11A 2773   0.752   5.418   3.383 -0.5665  0.4639  1.1646
   38CHL1  H11B 2774   0.743   5.585   3.328  0.4910 -1.0855 -2.8855
   38CHL1    C9 2775   0.888   5.477   3.231 -0.8087  0.1394 -0.3583
   38CHL1    H9 2776   0.938   5.574   3.208 -0.9774  0.2593 -0.2241
   38CHL1   C10 2777   0.809   5.449   3.097 -0.4670  0.5170 -0.2093
   38CHL1   C19 2778   0.694   5.347   3.118 -0.1537  0.3893 -0.5100
   38CHL1  H19A 2779   0.608   5.394   3.171  0.3161 -0.2449  0.8591
   38CHL1  H19B 2780   0.654   5.303   3.024 -1.1086 -1.4517  0.6902
   38CHL1  H19C 2781   0.737   5.266   3.181 -0.1524 -0.4270 -1.5352
   38CHL1    C1 2782   0.735   5.579   3.047  0.6969 -0.3180  0.1771
   38CHL1   H1A 2783   0.659   5.596   3.127 -0.3765  0.9265 -1.0458
   38CHL1   H1B 2784   0.800   5.669   3.043  0.3375  0.0072  1.3346
   38CHL1    C2 2785   0.656   5.563   2.911  0.5891  0.6994 -0.1844
   38CHL1   H2A 2786   0.617   5.663   2.881 -1.1901 -0.2847 -1.3979
   38CHL1   H2B 2787   0.572   5.492   2.925 -1.0606  2.1717 -1.9529
   38CHL1   C20 2788   1.035   5.424   3.754 -0.0388 -0.1569 -0.5667
   38CHL1   H20 2789   0.929   5.455   3.745  0.3460  1.7746  0.9041
   38CHL1   C21 2790   1.119   5.528   3.843 -0.0401 -0.0845 -0.3481
   38CHL1  H21A 2791   1.229   5.511   3.841  0.1025  0.4874 -3.8307
   38CHL1  H21B 2792   1.093   5.529   3.951 -1.7805  1.4207 -0.7342
   38CHL1  H21C 2793   1.119   5.631   3.800  0.9304 -0.2445 -0.7567
   38CHL1   C22 2794   1.049   5.287   3.826  0.5405  0.2647  0.4787
   38CHL1  H22A 2795   1.011   5.206   3.760 -2.3897  1.2411  0.8178
   38CHL1  H22B 2796   1.155   5.271   3.854  0.7060  1.1175  0.3491
   38CHL1   C23 2797   0.956   5.270   3.948  0.7596 -0.1310  0.2786
   38CHL1  H23A 2798   0.972   5.354   4.019  1.3829  0.2414 -0.2946
   38CHL1  H23B 2799   0.851   5.299   3.926  0.1623 -0.9361  1.8875
   38CHL1   C24 2800   0.963   5.131   4.027  0.9601 -0.7434 -0.6988
   38CHL1  H24A 2801   0.887   5.151   4.105  0.3191 -0.4384 -1.3874
   38CHL1  H24B 2802   0.914   5.057   3.959 -0.8356 -2.1734  1.9705
   38CHL1   C25 2803   1.096   5.085   4.076  0.8568 -0.2003  0.2792
   38CHL1   H25 2804   1.167   5.092   3.990 -0.0768 -2.4974 -0.7678
   38CHL1   C26 2805   1.151   5.182   4.184 -0.2130 -0.0412  0.2058
   38CHL1  H26A 2806   1.072   5.231   4.245  0.0337  2.0643 -1.0876
   38CHL1  H26B 2807   1.221   5.135   4.257  1.9632  0.4847 -1.4368
   38CHL1  H26C 2808   1.203   5.258   4.123 -0.0733  0.1336  0.5451
   38CHL1   C27 2809   1.084   4.943   4.129 -0.0349  0.0291 -0.0898
   38CHL1  H27A 2810   1.069   4.873   4.044 -2.9428  1.0673 -0.5717
   38CHL1  H27B 2811   1.178   4.908   4.175  0.6941  2.2123  0.2228
   38CHL1  H27C 2812   0.997   4.936   4.197 -0.5164  2.0136 -0.4266
   39CHL1    C3 2813   5.007   5.555   2.665  0.0558 -0.1525  0.0983
   39CHL1    H3 2814   4.901   5.527   2.679 -0.4379  1.9758  1.1004
   39CHL1    O3 2815   5.044   5.562   2.529 -0.0262 -0.3456  0.4122
   39CHL1   H3' 2816   5.138   5.577   2.539  0.3977 -1.0423 -1.9704
   39CHL1    C4 2817   5.038   5.689   2.744 -0.3764  0.1831  0.2376
   39CHL1   H4A 2818   5.130   5.729   2.698  0.0342 -1.9861 -0.9847
   39CHL1   H4B 2819   4.967   5.768   2.711 -0.7171 -0.8819 -1.7248
   39CHL1    C5 2820   5.044   5.675   2.899 -0.6657 -0.0605  0.4042
   39CHL1    C6 2821   4.983   5.767   2.974 -0.4072  0.0444 -0.6046
   39CHL1    H6 2822   4.938   5.856   2.928  1.5021  1.4771  0.1527
   39CHL1    C7 2823   4.989   5.767   3.132 -0.5455 -0.1760  0.9436
   39CHL1   H7A 2824   5.026   5.867   3.163 -1.4695  1.4530 -2.6845
   39CHL1   H7B 2825   4.892   5.753   3.186 -0.5282 -1.2120  0.7317
   39CHL1    C8 2826   5.086   5.657   3.185  0.4581 -0.0550 -0.2428
   39CHL1    H8 2827   5.189   5.700   3.183  0.5287 -0.2414 -0.8231
   39CHL1   C14 2828   5.057   5.630   3.333 -0.2171  0.3424 -0.5070
   39CHL1   H14 2829   4.957   5.580   3.336  0.6343 -1.7104 -2.6709
   39CHL1   C15 2830   5.067   5.751   3.422  0.2117 -0.4674 -0.4867
   39CHL1  H15A 2831   5.148   5.824   3.401  1.5562 -1.8144 -0.2402
   39CHL1  H15B 2832   4.975   5.811   3.410 -0.5288 -1.1800  1.2393
   39CHL1   C16 2833   5.071   5.687   3.572  0.3326 -0.3866  0.4256
   39CHL1  H16A 2834   5.145   5.736   3.639 -0.9861  1.4384  0.6162
   39CHL1  H16B 2835   4.977   5.686   3.631  0.6497 -0.9711  0.9328
   39CHL1   C17 2836   5.098   5.534   3.554  0.2820 -0.2754 -0.2105
   39CHL1   H17 2837   5.000   5.482   3.557  1.2264 -2.1416 -0.2529
   39CHL1   C13 2838   5.140   5.527   3.405 -0.1531  0.2174 -0.5075
   39CHL1   C18 2839   5.296   5.563   3.404  0.1583 -0.0133  1.0009
   39CHL1  H18A 2840   5.363   5.498   3.465  0.6598  2.1509  2.8906
   39CHL1  H18B 2841   5.336   5.572   3.301 -0.4150  0.3708  0.8147
   39CHL1  H18C 2842   5.312   5.666   3.441  3.2776  0.4369 -1.2421
   39CHL1   C12 2843   5.111   5.401   3.329  0.1481 -0.0296 -0.0484
   39CHL1  H12A 2844   5.169   5.323   3.382  1.1887  0.5878 -0.2511
   39CHL1  H12B 2845   5.004   5.373   3.334  0.5456 -1.3173  3.6184
   39CHL1   C11 2846   5.149   5.407   3.173  0.3677  0.0485 -0.0702
   39CHL1  H11A 2847   5.259   5.405   3.157  0.2596 -2.6203 -1.0222
   39CHL1  H11B 2848   5.113   5.313   3.125  0.2089  0.1168 -0.0852
   39CHL1    C9 2849   5.082   5.530   3.102 -0.6829 -0.3510 -0.1151
   39CHL1    H9 2850   4.975   5.504   3.109 -0.6633 -0.0807  2.1759
   39CHL1   C10 2851   5.121   5.552   2.954  1.1959 -0.2668 -0.4157
   39CHL1   C19 2852   5.273   5.560   2.938 -0.2051  0.3617  0.0552
   39CHL1  H19A 2853   5.328   5.609   3.022 -0.5741  0.4854  0.2237
   39CHL1  H19B 2854   5.303   5.453   2.927 -1.2924 -0.0485  0.8828
   39CHL1  H19C 2855   5.295   5.605   2.839 -1.7332 -0.9646 -0.9411
   39CHL1    C1 2856   5.077   5.430   2.873 -0.0047 -0.5454 -0.9284
   39CHL1   H1A 2857   5.126   5.336   2.907 -0.6572 -1.2291 -1.8645
   39CHL1   H1B 2858   4.970   5.403   2.881  0.2399 -1.1864  0.8011
   39CHL1    C2 2859   5.104   5.451   2.721  0.2186  0.8204  0.1771
   39CHL1   H2A 2860   5.090   5.356   2.665 -2.6435  0.7343  0.8721
   39CHL1   H2B 2861   5.209   5.481   2.701 -0.4626  3.6121  0.3621
   39CHL1   C20 2862   5.169   5.474   3.674  0.9161  0.5262 -0.5221
   39CHL1   H20 2863   5.266   5.527   3.688  1.5211 -0.3500 -1.2888
   39CHL1   C21 2864   5.188   5.326   3.644 -0.5022  0.7840  0.3383
   39CHL1  H21A 2865   5.215   5.280   3.741  0.0646  2.1144  0.8389
   39CHL1  H21B 2866   5.276   5.328   3.577 -0.3238  0.9539  0.5764
   39CHL1  H21C 2867   5.105   5.277   3.589  1.5690 -0.6680 -1.6415
   39CHL1   C22 2868   5.081   5.491   3.806 -1.4028  0.6945 -0.8798
   39CHL1  H22A 2869   5.031   5.590   3.802 -0.3189  1.2425 -1.4271
   39CHL1  H22B 2870   5.005   5.411   3.817 -0.9925  0.4039 -0.0892
   39CHL1   C23 2871   5.175   5.494   3.927 -0.1744  0.1822 -0.5574
   39CHL1  H23A 2872   5.234   5.400   3.921 -0.8872 -0.3955  0.9375
   39CHL1  H23B 2873   5.245   5.579   3.912 -0.0420 -0.1511 -1.9628
   39CHL1   C24 2874   5.097   5.498   4.059 -0.1594 -0.0275 -0.1700
   39CHL1  H24A 2875   5.018   5.420   4.054  0.2552 -0.3926 -1.6161
   39CHL1  H24B 2876   5.172   5.473   4.137 -0.7715  2.5632  1.3640
   39CHL1   C25 2877   5.012   5.619   4.072  0.0035 -0.2205  0.3350
   39CHL1   H25 2878   4.946   5.627   3.983  0.0995  2.6407  0.4177
   39CHL1   C26 2879   4.910   5.598   4.186  0.4955 -0.1322  0.2011
   39CHL1  H26A 2880   4.964   5.600   4.283  2.6587  0.5971 -0.9437
   39CHL1  H26B 2881   4.835   5.677   4.205  0.5358 -0.4750  2.0049
   39CHL1  H26C 2882   4.859   5.499   4.179 -1.4637  0.7867  0.8379
   39CHL1   C27 2883   5.086   5.749   4.093  0.1168  0.3054 -0.4802
   39CHL1  H27A 2884   5.186   5.733   4.137 -0.2913 -1.3977 -0.0996
   39CHL1  H27B 2885   5.101   5.813   4.003  0.5458 -0.0930 -0.6953
   39CHL1  H27C 2886   5.036   5.820   4.162  0.9102  0.2991  0.1194
   40CHL1    C3 2887   3.594   4.793   2.605  0.1148  0.2579  0.0137
   40CHL1    H3 2888   3.532   4.711   2.646  1.7859 -1.9575 -1.6032
   40CHL1    O3 2889   3.587   4.781   2.463 -0.1056 -0.0353  0.2888
   40CHL1   H3' 2890   3.622   4.867   2.437  0.6691  0.0586  1.5785
   40CHL1    C4 2891   3.536   4.925   2.628  0.2827 -0.6668  0.7174
   40CHL1   H4A 2892   3.590   5.008   2.578 -3.7010  0.8422 -1.4452
   40CHL1   H4B 2893   3.433   4.925   2.586 -0.3117  4.8070  1.3637
   40CHL1    C5 2894   3.535   4.976   2.770 -0.9539 -0.3503 -0.3289
   40CHL1    C6 2895   3.426   5.019   2.832  0.0980 -0.0645  1.0556
   40CHL1    H6 2896   3.327   5.021   2.784  0.5420 -0.8571  0.0818
   40CHL1    C7 2897   3.416   5.065   2.968 -0.3883 -0.1801 -0.6198
   40CHL1   H7A 2898   3.358   5.159   2.978 -1.0842 -0.7306  0.7238
   40CHL1   H7B 2899   3.353   4.989   3.020 -1.3473  1.2397  0.3559
   40CHL1    C8 2900   3.559   5.077   3.036  0.3564  0.3835  0.0536
   40CHL1    H8 2901   3.598   5.177   3.008  3.8162 -1.5544 -2.8915
   40CHL1   C14 2902   3.543   5.074   3.191  0.0815  0.0018 -0.7428
   40CHL1   H14 2903   3.490   4.978   3.212  2.3986 -0.9894  1.0404
   40CHL1   C15 2904   3.441   5.178   3.257  0.3379  0.1779  0.0178
   40CHL1  H15A 2905   3.458   5.278   3.210 -0.2515  0.0999 -0.3680
   40CHL1  H15B 2906   3.338   5.150   3.225  0.0580  0.1337  0.9231
   40CHL1   C16 2907   3.481   5.167   3.411  0.4025  0.2847 -0.3346
   40CHL1  H16A 2908   3.487   5.270   3.454  0.5026  0.0845  0.1318
   40CHL1  H16B 2909   3.396   5.111   3.454  0.5488 -0.5177 -1.0706
   40CHL1   C17 2910   3.607   5.076   3.412 -0.5341  0.3752 -0.1292
   40CHL1   H17 2911   3.571   4.972   3.430 -1.7547  1.0978  2.0611
   40CHL1   C13 2912   3.665   5.080   3.275 -0.7262  0.1658 -0.6573
   40CHL1   C18 2913   3.739   5.216   3.258  0.1914  0.3900  0.5368
   40CHL1  H18A 2914   3.670   5.302   3.272 -0.0270  0.4630 -0.8533
   40CHL1  H18B 2915   3.833   5.228   3.316  1.1133  0.7261 -0.9622
   40CHL1  H18C 2916   3.777   5.226   3.154  1.2310  0.0924  0.8768
   40CHL1   C12 2917   3.741   4.950   3.239 -0.6089 -0.7270 -0.0918
   40CHL1  H12A 2918   3.829   4.942   3.308 -1.0878  1.8870  0.9081
   40CHL1  H12B 2919   3.671   4.867   3.262 -0.0419 -0.7378  1.8376
   40CHL1   C11 2920   3.779   4.956   3.092 -0.5878 -0.5884  0.5622
   40CHL1  H11A 2921   3.841   5.046   3.072 -0.8723 -0.3836  0.5945
   40CHL1  H11B 2922   3.832   4.861   3.069  1.3352  0.8782 -1.5395
   40CHL1    C9 2923   3.653   4.965   2.995  0.3697  0.7930 -0.3038
   40CHL1    H9 2924   3.602   4.871   3.024 -1.0975  2.5548  3.5869
   40CHL1   C10 2925   3.673   4.962   2.842 -0.2194  0.4452 -0.3528
   40CHL1   C19 2926   3.760   5.078   2.802 -0.4577 -0.1634  0.6428
   40CHL1  H19A 2927   3.854   5.060   2.859  0.6626 -0.9918 -1.3929
   40CHL1  H19B 2928   3.795   5.082   2.697 -2.1001  3.7904  0.0664
   40CHL1  H19C 2929   3.714   5.173   2.836  2.7624  1.2385  1.4731
   40CHL1    C1 2930   3.750   4.827   2.807  1.0007 -0.3290 -0.8581
   40CHL1   H1A 2931   3.855   4.830   2.843  0.2351  2.1539  1.5149
   40CHL1   H1B 2932   3.699   4.755   2.875 -0.4720  0.4859 -1.0676
   40CHL1    C2 2933   3.742   4.787   2.649 -0.1585 -0.3786 -0.4750
   40CHL1   H2A 2934   3.782   4.685   2.633  0.0616 -0.4233  0.3033
   40CHL1   H2B 2935   3.799   4.867   2.597 -1.0397 -0.4178 -1.5235
   40CHL1   C20 2936   3.697   5.110   3.534  0.2761  0.6407 -0.0793
   40CHL1   H20 2937   3.762   5.195   3.501 -1.3910  2.1434  0.3696
   40CHL1   C21 2938   3.776   4.986   3.568  0.4696 -0.1227 -0.4326
   40CHL1  H21A 2939   3.823   4.997   3.668  0.1849 -1.5913 -0.1169
   40CHL1  H21B 2940   3.862   4.978   3.498  2.1248  0.9935  1.3832
   40CHL1  H21C 2941   3.709   4.897   3.576 -0.7697  0.8343  0.0918
   40CHL1   C22 2942   3.624   5.163   3.655 -0.2323  0.0417  0.0839
   40CHL1  H22A 2943   3.708   5.169   3.727 -0.4467 -1.3224  0.4667
   40CHL1  H22B 2944   3.586   5.266   3.633  1.9389  0.5052 -1.9388
   40CHL1   C23 2945   3.513   5.080   3.712  0.5295  0.3778 -0.4866
   40CHL1  H23A 2946   3.443   5.054   3.630  1.5163 -0.9200 -0.9567
   40CHL1  H23B 2947   3.556   4.985   3.749  0.5999  0.8756  0.7786
   40CHL1   C24 2948   3.425   5.162   3.812 -0.1925  0.1973 -0.1622
   40CHL1  H24A 2949   3.378   5.256   3.775 -1.5499 -0.6749 -0.7473
   40CHL1  H24B 2950   3.341   5.092   3.829 -0.0528 -0.5374 -2.2043
   40CHL1   C25 2951   3.501   5.193   3.948 -0.4084  0.5833  0.9910
   40CHL1   H25 2952   3.604   5.220   3.915  0.0145 -2.0271 -0.1171
   40CHL1   C26 2953   3.452   5.305   4.045 -0.1487  0.7353 -0.1948
   40CHL1  H26A 2954   3.522   5.304   4.131  0.7986 -1.1695 -0.9348
   40CHL1  H26B 2955   3.457   5.409   4.006  0.2839  0.7523 -0.0952
   40CHL1  H26C 2956   3.347   5.291   4.079 -0.0709 -0.6639 -0.4425
   40CHL1   C27 2957   3.499   5.070   4.030 -0.0048  0.4069  0.6623
   40CHL1  H27A 2958   3.550   4.990   3.973  2.6675  3.0018 -0.8390
   40CHL1  H27B 2959   3.559   5.083   4.123 -1.2716  0.3701  1.5142
   40CHL1  H27C 2960   3.396   5.055   4.068 -0.0837  1.9728  1.1474
   41CHL1    C3 2961   6.492   0.621   2.861 -0.3908 -0.1225  0.2881
   41CHL1    H3 2962   6.403   0.678   2.826 -0.8651 -1.7188 -1.2675
   41CHL1    O3 2963   6.588   0.599   2.754  0.6029 -0.1804 -0.7424
   41CHL1   H3' 2964   6.533   0.602   2.675 -0.2991 -1.3690 -0.1851
   41CHL1    C4 2965   6.565   0.692   2.973  0.0819  0.2165 -0.5757
   41CHL1   H4A 2966   6.673   0.667   2.969  0.4892  1.9570 -2.0052
   41CHL1   H4B 2967   6.565   0.796   2.934 -2.4000  0.9941  1.2081
   41CHL1    C5 2968   6.525   0.675   3.119  0.1993 -0.7745  0.1589
   41CHL1    C6 2969   6.515   0.781   3.201  0.4446 -0.1670 -0.3916
   41CHL1    H6 2970   6.561   0.873   3.160  0.4011 -1.1241 -2.7822
   41CHL1    C7 2971   6.468   0.774   3.345 -0.2337  0.2003 -0.0951
   41CHL1   H7A 2972   6.534   0.832   3.412 -1.3489 -1.1450  2.2994
   41CHL1   H7B 2973   6.371   0.827   3.350 -0.7247 -0.6145 -0.6307
   41CHL1    C8 2974   6.462   0.630   3.395 -0.4105 -1.1553  0.1526
   41CHL1    H8 2975   6.564   0.603   3.427  0.0954  0.0781 -0.3528
   41CHL1   C14 2976   6.369   0.627   3.522 -0.9888 -0.4914  0.6216
   41CHL1   H14 2977   6.266   0.642   3.483 -0.1774 -0.4002 -1.6562
   41CHL1   C15 2978   6.387   0.732   3.635 -0.3971  0.2607 -0.1809
   41CHL1  H15A 2979   6.493   0.758   3.654 -0.7013 -0.5993  3.7015
   41CHL1  H15B 2980   6.322   0.822   3.623  0.4197  1.0422  1.0060
   41CHL1   C16 2981   6.339   0.668   3.763 -0.1198 -0.3045  0.2532
   41CHL1  H16A 2982   6.426   0.650   3.830 -1.7165 -2.8552  1.7967
   41CHL1  H16B 2983   6.258   0.723   3.814 -1.2929 -0.2214 -1.5923
   41CHL1   C17 2984   6.285   0.524   3.724  0.4349  0.0100  0.9932
   41CHL1   H17 2985   6.181   0.531   3.688  0.8903 -1.9911 -0.9144
   41CHL1   C13 2986   6.365   0.493   3.594  0.3506 -0.5377  0.3876
   41CHL1   C18 2987   6.505   0.440   3.618 -0.4855  0.6165 -1.2219
   41CHL1  H18A 2988   6.570   0.502   3.683 -1.6786  1.2983 -0.6536
   41CHL1  H18B 2989   6.489   0.337   3.659 -1.3638  0.4767 -1.8877
   41CHL1  H18C 2990   6.561   0.426   3.524 -0.6198  0.3912 -1.2705
   41CHL1   C12 2991   6.306   0.396   3.498 -0.0400  0.0021  0.6152
   41CHL1  H12A 2992   6.315   0.292   3.536 -0.3723  0.9488  3.5711
   41CHL1  H12B 2993   6.200   0.423   3.479 -1.0586 -2.6437  1.9744
   41CHL1   C11 2994   6.374   0.397   3.352  0.4625 -0.0864 -0.0960
   41CHL1  H11A 2995   6.467   0.339   3.370 -0.8581 -1.9534  1.1706
   41CHL1  H11B 2996   6.305   0.340   3.287 -0.2713 -1.2975  1.6441
   41CHL1    C9 2997   6.404   0.538   3.294  0.2594 -0.1547  0.2745
   41CHL1    H9 2998   6.300   0.577   3.281  0.1208 -0.2929  0.9153
   41CHL1   C10 2999   6.479   0.536   3.154  0.4872  0.4617 -0.7282
   41CHL1   C19 3000   6.608   0.442   3.166 -0.1604 -0.0448  0.1731
   41CHL1  H19A 3001   6.662   0.461   3.261 -1.9581  2.7962  0.7612
   41CHL1  H19B 3002   6.570   0.337   3.156 -0.8457  0.2800 -0.7702
   41CHL1  H19C 3003   6.677   0.457   3.081 -1.3140  0.4396 -0.7060
   41CHL1    C1 3004   6.378   0.504   3.045  0.0922 -0.0610 -0.1976
   41CHL1   H1A 3005   6.340   0.401   3.062  2.7345 -1.0411  0.3862
   41CHL1   H1B 3006   6.292   0.574   3.043 -1.5503 -1.9612  0.7938
   41CHL1    C2 3007   6.449   0.486   2.911  0.3096 -0.5607  0.7643
   41CHL1   H2A 3008   6.380   0.438   2.838  1.2311 -0.5447 -0.1356
   41CHL1   H2B 3009   6.526   0.406   2.917 -0.2785 -1.1835  0.1797
   41CHL1   C20 3010   6.280   0.417   3.836  0.0239  0.4579  0.3111
   41CHL1   H20 3011   6.377   0.409   3.888  0.4737 -0.6474 -0.6445
   41CHL1   C21 3012   6.238   0.279   3.778  0.3936 -0.5615  0.3939
   41CHL1  H21A 3013   6.196   0.213   3.857 -0.6841 -1.0185 -0.5297
   41CHL1  H21B 3014   6.329   0.219   3.756 -0.9888 -2.5677 -0.1554
   41CHL1  H21C 3015   6.178   0.273   3.685 -1.3381 -0.7585  1.4782
   41CHL1   C22 3016   6.178   0.473   3.937  0.2958  0.7932  0.3407
   41CHL1  H22A 3017   6.227   0.566   3.974  1.3462  0.1577  0.6096
   41CHL1  H22B 3018   6.090   0.512   3.882 -0.9416 -2.0899  0.0932
   41CHL1   C23 3019   6.150   0.388   4.061  0.0939  0.3373 -0.2277
   41CHL1  H23A 3020   6.079   0.440   4.129 -0.7576 -1.2379  0.1129
   41CHL1  H23B 3021   6.091   0.300   4.032  0.1835 -0.2056  1.1584
   41CHL1   C24 3022   6.277   0.329   4.137 -0.5641 -0.6477 -0.7255
   41CHL1  H24A 3023   6.323   0.250   4.074 -2.5003 -1.9549 -0.5878
   41CHL1  H24B 3024   6.360   0.404   4.137  0.3113 -1.5833 -1.8752
   41CHL1   C25 3025   6.257   0.278   4.280 -0.6186  0.2321  0.5306
   41CHL1   H25 3026   6.361   0.246   4.303 -0.2296  0.5913 -0.6370
   41CHL1   C26 3027   6.216   0.381   4.377  0.0502 -0.2306 -0.2246
   41CHL1  H26A 3028   6.228   0.333   4.476  0.0778 -0.2443 -0.2348
   41CHL1  H26B 3029   6.287   0.466   4.386  0.2492 -0.2880 -1.1207
   41CHL1  H26C 3030   6.111   0.417   4.369  0.5327  1.0122 -1.3043
   41CHL1   C27 3031   6.170   0.152   4.270 -0.4413  0.3220 -0.0310
   41CHL1  H27A 3032   6.178   0.096   4.366 -0.0791 -0.8892 -0.7460
   41CHL1  H27B 3033   6.065   0.189   4.266 -1.1410 -1.5877 -0.9563
   41CHL1  H27C 3034   6.195   0.089   4.182  1.8697 -2.0980  2.1873
   42CHL1    C3 3035   1.462   6.587   2.497 -0.0532 -0.2800  0.3395
   42CHL1    H3 3036   1.564   6.630   2.487 -0.4476  0.2937 -1.5252
   42CHL1    O3 3037   1.381   6.616   2.385  0.6708  0.6089 -0.0529
   42CHL1   H3' 3038   1.400   6.707   2.362  1.6068  0.3109 -0.4681
   42CHL1    C4 3039   1.453   6.435   2.515  0.3057 -0.3132 -0.2775
   42CHL1   H4A 3040   1.343   6.433   2.526  0.2406  1.3459 -0.4418
   42CHL1   H4B 3041   1.476   6.379   2.421  1.7637 -1.0984  0.4997
   42CHL1    C5 3042   1.503   6.372   2.645 -0.6474 -0.0448 -0.5086
   42CHL1    C6 3043   1.589   6.266   2.642  0.8875 -0.7567  0.4562
   42CHL1    H6 3044   1.613   6.216   2.547 -2.0233 -2.3313  0.4300
   42CHL1    C7 3045   1.645   6.205   2.763 -0.1713  0.1087 -0.8517
   42CHL1   H7A 3046   1.629   6.095   2.765 -0.5943  0.1772  0.6227
   42CHL1   H7B 3047   1.754   6.221   2.776 -0.1145 -0.1233 -1.0396
   42CHL1    C8 3048   1.573   6.251   2.897 -0.5825 -0.5535  0.4149
   42CHL1    H8 3049   1.476   6.196   2.900 -0.5378 -0.6062  1.5959
   42CHL1   C14 3050   1.646   6.190   3.019  0.2019  0.0178 -0.1155
   42CHL1   H14 3051   1.749   6.231   3.013  0.1407  0.1685 -0.1408
   42CHL1   C15 3052   1.661   6.049   3.025  0.4856  0.5923 -0.9038
   42CHL1  H15A 3053   1.569   5.987   3.016  1.2283 -0.7827  0.5108
   42CHL1  H15B 3054   1.745   6.003   2.969 -0.5134 -1.5218 -0.7652
   42CHL1   C16 3055   1.705   6.036   3.175  0.0194  0.4913  0.1295
   42CHL1  H16A 3056   1.649   5.950   3.219  0.4028 -0.5766 -1.3731
   42CHL1  H16B 3057   1.813   6.020   3.192  0.1498  1.4643  0.2418
   42CHL1   C17 3058   1.673   6.173   3.239 -0.5750 -0.2823 -0.3469
   42CHL1   H17 3059   1.771   6.225   3.246 -1.8154  2.5925 -2.3705
   42CHL1   C13 3060   1.586   6.244   3.147  0.1389 -0.5063 -0.4414
   42CHL1   C18 3061   1.439   6.201   3.171 -0.5137 -0.2863  0.8033
   42CHL1  H18A 3062   1.378   6.216   3.079  1.4417 -1.9306 -0.8570
   42CHL1  H18B 3063   1.424   6.092   3.189 -1.0877 -0.4192 -0.3990
   42CHL1  H18C 3064   1.398   6.262   3.254 -1.3925  1.1081 -0.5962
   42CHL1   C12 3065   1.604   6.402   3.136  0.0420  0.9588  0.4494
   42CHL1  H12A 3066   1.577   6.458   3.228  0.5635 -0.7498  1.7040
   42CHL1  H12B 3067   1.712   6.415   3.113 -0.2273  0.2061 -1.4140
   42CHL1   C11 3068   1.518   6.466   3.029  1.0162 -0.4952 -0.0838
   42CHL1  H11A 3069   1.414   6.435   3.053  1.3305 -2.3638 -0.9269
   42CHL1  H11B 3070   1.516   6.576   3.038  0.7536 -0.2895 -2.0898
   42CHL1    C9 3071   1.556   6.408   2.891  0.2306 -0.9811  0.0222
   42CHL1    H9 3072   1.655   6.450   2.864 -1.3926  1.8601 -2.0305
   42CHL1   C10 3073   1.465   6.449   2.769  0.8031  0.6578 -0.8930
   42CHL1   C19 3074   1.316   6.406   2.799  0.1509  0.7720  0.7296
   42CHL1  H19A 3075   1.279   6.441   2.898 -1.2677 -0.6832  0.7521
   42CHL1  H19B 3076   1.256   6.459   2.723  1.9041  0.0037 -1.3018
   42CHL1  H19C 3077   1.289   6.299   2.788  1.2529  0.3551  1.8413
   42CHL1    C1 3078   1.468   6.603   2.755  0.2603 -0.2416  0.6009
   42CHL1   H1A 3079   1.419   6.655   2.840 -2.3552 -0.0188 -0.9307
   42CHL1   H1B 3080   1.573   6.637   2.762  0.2261  0.2084 -0.6396
   42CHL1    C2 3081   1.409   6.663   2.623 -0.2027  0.3443 -0.4383
   42CHL1   H2A 3082   1.413   6.774   2.616 -0.0494  0.3862  0.2769
   42CHL1   H2B 3083   1.300   6.640   2.630 -0.5760  1.8301 -1.0167
   42CHL1   C20 3084   1.620   6.168   3.386 -0.3501  0.6801 -0.1084
   42CHL1   H20 3085   1.522   6.116   3.381  0.2588 -0.4799 -0.1810
   42CHL1   C21 3086   1.618   6.312   3.443  0.0060 -0.5107 -0.8514
   42CHL1  H21A 3087   1.610   6.313   3.554  0.9985  1.6700 -0.7499
   42CHL1  H21B 3088   1.524   6.358   3.404 -0.6705 -0.8452  0.3052
   42CHL1  H21C 3089   1.714   6.361   3.419  0.6615 -1.5041 -0.3077
   42CHL1   C22 3090   1.723   6.083   3.478 -0.2104 -0.2139 -0.0423
   42CHL1  H22A 3091   1.762   5.994   3.426 -3.2430 -0.7726 -1.6201
   42CHL1  H22B 3092   1.803   6.155   3.504 -2.4091  1.7471  1.8591
   42CHL1   C23 3093   1.678   6.036   3.621 -0.1102  0.3165  0.2773
   42CHL1  H23A 3094   1.669   6.130   3.680 -1.0515 -0.3614  1.2695
   42CHL1  H23B 3095   1.581   5.981   3.612  0.2242  0.0994 -3.2542
   42CHL1   C24 3096   1.786   5.952   3.692  0.2866 -0.4596  0.0726
   42CHL1  H24A 3097   1.794   5.858   3.634  0.4882 -1.5627  1.8275
   42CHL1  H24B 3098   1.882   6.007   3.688 -1.3673  2.6696 -0.3206
   42CHL1   C25 3099   1.757   5.922   3.842 -0.2859  0.3474  0.0078
   42CHL1   H25 3100   1.658   5.873   3.826 -1.1132  1.5772  1.1711
   42CHL1   C26 3101   1.865   5.831   3.899  0.2814  0.3569 -0.0168
   42CHL1  H26A 3102   1.824   5.768   3.981 -2.5430  2.3390  0.2393
   42CHL1  H26B 3103   1.921   5.768   3.827  0.3439  0.1175  0.2384
   42CHL1  H26C 3104   1.937   5.904   3.942 -0.2978  1.2918 -0.5964
   42CHL1   C27 3105   1.746   6.053   3.926  0.5941  0.3415 -0.4417
   42CHL1  H27A 3106   1.777   6.030   4.030  1.3483 -2.1711 -1.1537
   42CHL1  H27B 3107   1.809   6.140   3.894  1.5692  0.6623  2.1261
   42CHL1  H27C 3108   1.641   6.088   3.919  0.9980  1.5664 -0.6980
   43CHL1    C3 3109   4.724   5.298   2.529 -0.7309 -0.1709  0.0290
   43CHL1    H3 3110   4.818   5.354   2.546 -0.5351 -0.6234  0.4180
   43CHL1    O3 3111   4.725   5.292   2.385 -0.8575  0.0637 -0.0580
   43CHL1   H3' 3112   4.783   5.364   2.359 -0.0321  0.2502  2.0736
   43CHL1    C4 3113   4.729   5.163   2.599  0.1577  0.0538  0.1294
   43CHL1   H4A 3114   4.635   5.111   2.572  1.1543 -1.1690 -1.1377
   43CHL1   H4B 3115   4.812   5.094   2.572  0.2017 -0.6082  1.7880
   43CHL1    C5 3116   4.728   5.182   2.753 -0.1758  1.2166 -0.2119
   43CHL1    C6 3117   4.832   5.133   2.826  0.3037  0.0717 -0.1676
   43CHL1    H6 3118   4.907   5.074   2.772  0.5866 -0.9061  1.2552
   43CHL1    C7 3119   4.861   5.142   2.977 -0.2492 -0.4686  0.8837
   43CHL1   H7A 3120   4.872   5.044   3.028 -1.1983 -0.2465  1.5374
   43CHL1   H7B 3121   4.951   5.203   3.000 -0.2245 -0.4754  0.8025
   43CHL1    C8 3122   4.736   5.216   3.044 -0.2485 -0.1211  0.5117
   43CHL1    H8 3123   4.664   5.132   3.051 -1.5816  0.7356 -1.9845
   43CHL1   C14 3124   4.765   5.266   3.190  0.0258  0.5030  0.1475
   43CHL1   H14 3125   4.833   5.354   3.187 -0.7412  1.0847 -2.0932
   43CHL1   C15 3126   4.841   5.172   3.290  0.2111 -0.0010 -0.0960
   43CHL1  H15A 3127   4.817   5.064   3.280  0.6275 -0.0813 -0.2288
   43CHL1  H15B 3128   4.950   5.183   3.271  0.2156  1.6005  0.6548
   43CHL1   C16 3129   4.797   5.220   3.431  0.0277 -0.3333 -0.2945
   43CHL1  H16A 3130   4.735   5.140   3.478 -1.1512  1.3509  1.1638
   43CHL1  H16B 3131   4.892   5.236   3.487  1.7396  0.7418 -3.3061
   43CHL1   C17 3132   4.703   5.343   3.410 -0.0769  0.0501 -0.7777
   43CHL1   H17 3133   4.760   5.438   3.399 -2.6243  1.4984 -2.5780
   43CHL1   C13 3134   4.645   5.323   3.264 -0.0967 -0.1560 -0.4564
   43CHL1   C18 3135   4.528   5.222   3.279 -0.2162  0.0119  0.6730
   43CHL1  H18A 3136   4.497   5.184   3.179 -0.1091 -0.5686  0.8608
   43CHL1  H18B 3137   4.564   5.143   3.348  2.4469  0.5653  0.0113
   43CHL1  H18C 3138   4.439   5.278   3.315 -0.8939 -0.8030  0.2956
   43CHL1   C12 3139   4.610   5.450   3.183  0.1848 -0.1486  0.3771
   43CHL1  H12A 3140   4.528   5.503   3.235 -0.8584  1.1489 -2.4025
   43CHL1  H12B 3141   4.701   5.515   3.182  0.5997 -0.5240  3.4549
   43CHL1   C11 3142   4.566   5.411   3.035  0.1720  0.3053 -0.6141
   43CHL1  H11A 3143   4.471   5.354   3.048 -0.4944  1.1743 -1.5229
   43CHL1  H11B 3144   4.542   5.511   2.993 -0.7020  0.9840  1.3485
   43CHL1    C9 3145   4.666   5.327   2.957 -1.2904  0.7905 -0.1907
   43CHL1    H9 3146   4.737   5.409   2.935 -0.2832  0.1330  0.5386
   43CHL1   C10 3147   4.624   5.282   2.814 -0.4140  0.5163 -0.5133
   43CHL1   C19 3148   4.492   5.206   2.822 -0.5889 -0.2939 -0.0671
   43CHL1  H19A 3149   4.412   5.282   2.837 -0.2669 -0.0316  0.3185
   43CHL1  H19B 3150   4.463   5.161   2.725  2.2659  1.6518 -1.9871
   43CHL1  H19C 3151   4.478   5.123   2.895 -1.3034  0.3883  0.5863
   43CHL1    C1 3152   4.615   5.406   2.719 -0.4715  0.5155 -0.0395
   43CHL1   H1A 3153   4.520   5.452   2.753 -0.5323  0.0777  0.3938
   43CHL1   H1B 3154   4.695   5.483   2.732 -1.2952  1.0521  2.6166
   43CHL1    C2 3155   4.606   5.377   2.570 -0.7713 -0.0252  0.2283
   43CHL1   H2A 3156   4.592   5.471   2.512  3.2668  0.0035 -0.9999
   43CHL1   H2B 3157   4.512   5.322   2.547  0.2148 -0.9070 -2.0829
   43CHL1   C20 3158   4.611   5.361   3.533  0.0201 -0.0280 -0.9781
   43CHL1   H20 3159   4.527   5.288   3.523 -0.1089 -0.0987  0.4380
   43CHL1   C21 3160   4.547   5.504   3.524  0.3595  1.0020 -0.3514
   43CHL1  H21A 3161   4.484   5.527   3.612  0.4620  1.3972 -0.3778
   43CHL1  H21B 3162   4.478   5.507   3.436  1.9943  1.5353 -1.6734
   43CHL1  H21C 3163   4.623   5.584   3.509  0.3771  1.2109  0.8076
   43CHL1   C22 3164   4.673   5.349   3.679  0.1694 -0.3552 -0.5979
   43CHL1  H22A 3165   4.762   5.283   3.686 -1.0185 -1.8207  2.2015
   43CHL1  H22B 3166   4.693   5.455   3.707 -1.6899  0.7093 -2.8740
   43CHL1   C23 3167   4.575   5.298   3.792  0.2504 -0.0956  0.2773
   43CHL1  H23A 3168   4.476   5.348   3.788  0.2857  0.1225  1.7215
   43CHL1  H23B 3169   4.544   5.193   3.774  1.1849 -0.4127  0.4397
   43CHL1   C24 3170   4.640   5.307   3.925  0.1026 -0.4526  0.3440
   43CHL1  H24A 3171   4.750   5.288   3.924  0.2340 -0.0922  2.4890
   43CHL1  H24B 3172   4.641   5.410   3.965 -0.8164 -0.4983  0.4894
   43CHL1   C25 3173   4.595   5.198   4.029 -0.0055  0.5833  0.0117
   43CHL1   H25 3174   4.609   5.095   3.991  0.2896  0.3932  0.6179
   43CHL1   C26 3175   4.689   5.198   4.150  0.2107  0.6813  0.4517
   43CHL1  H26A 3176   4.664   5.128   4.233  2.4742  0.5590  1.0873
   43CHL1  H26B 3177   4.787   5.174   4.105 -0.7442  0.1608 -1.4164
   43CHL1  H26C 3178   4.704   5.299   4.196 -0.5836  0.3816  1.4244
   43CHL1   C27 3179   4.455   5.231   4.083  0.4876  0.4010 -0.1788
   43CHL1  H27A 3180   4.385   5.248   3.999 -0.8192  0.4299  0.8740
   43CHL1  H27B 3181   4.422   5.145   4.146  0.9593  0.5033  0.2201
   43CHL1  H27C 3182   4.442   5.322   4.145 -1.5656 -1.2722  2.0694
   44CHL1    C3 3183   2.476   6.454   2.566  0.4998  0.8632  0.0287
   44CHL1    H3 3184   2.371   6.418   2.573  1.2972 -1.2488  2.3316
   44CHL1    O3 3185   2.505   6.508   2.438  0.1142 -0.1209  0.6841
   44CHL1   H3' 3186   2.594   6.539   2.454  1.2643 -2.3519 -0.9026
   44CHL1    C4 3187   2.496   6.575   2.658  0.9289  0.3274 -0.6993
   44CHL1   H4A 3188   2.599   6.611   2.635  0.6510  1.4945 -0.1670
   44CHL1   H4B 3189   2.411   6.644   2.640 -1.4574 -2.7511 -2.2290
   44CHL1    C5 3190   2.505   6.548   2.810  1.0229  0.0319  0.1814
   44CHL1    C6 3191   2.422   6.613   2.896 -0.0818  0.2255  0.0431
   44CHL1    H6 3192   2.350   6.688   2.861  2.0816  3.0359  1.2297
   44CHL1    C7 3193   2.408   6.576   3.043 -0.0388  0.6221  0.5581
   44CHL1   H7A 3194   2.400   6.659   3.116 -1.5323 -0.1297  1.2972
   44CHL1   H7B 3195   2.320   6.508   3.052  0.5004 -0.1656  0.0159
   44CHL1    C8 3196   2.530   6.484   3.088 -0.4020  0.8928 -0.0791
   44CHL1    H8 3197   2.623   6.542   3.104  1.3975 -1.6729 -0.7360
   44CHL1   C14 3198   2.505   6.441   3.229  0.0961  0.1873 -0.2290
   44CHL1   H14 3199   2.416   6.377   3.217  1.1237 -1.3462  0.0302
   44CHL1   C15 3200   2.465   6.545   3.340 -0.1645 -0.1666 -0.5735
   44CHL1  H15A 3201   2.530   6.635   3.346  1.6407 -1.5235  1.3562
   44CHL1  H15B 3202   2.357   6.571   3.334  0.0630  0.8796 -0.2991
   44CHL1   C16 3203   2.487   6.474   3.471  0.3517  0.4309 -0.5111
   44CHL1  H16A 3204   2.560   6.532   3.531  0.5415  0.6689 -0.9632
   44CHL1  H16B 3205   2.394   6.469   3.532  0.2467  1.7484 -0.5358
   44CHL1   C17 3206   2.543   6.331   3.435 -0.6529  0.0323 -0.5388
   44CHL1   H17 3207   2.447   6.278   3.418 -0.4078 -1.0328  1.1503
   44CHL1   C13 3208   2.606   6.347   3.297  0.1689  0.0229  0.6038
   44CHL1   C18 3209   2.751   6.400   3.315  0.6456 -0.0929 -0.2291
   44CHL1  H18A 3210   2.748   6.480   3.393 -2.6941 -1.2924  1.0221
   44CHL1  H18B 3211   2.834   6.333   3.346  1.9734  2.4248  2.1936
   44CHL1  H18C 3212   2.776   6.443   3.215 -0.7598  1.4230  0.0292
   44CHL1   C12 3213   2.620   6.221   3.204  0.4026  0.1966  0.5802
   44CHL1  H12A 3214   2.689   6.143   3.241 -2.1243 -1.8663  1.2481
   44CHL1  H12B 3215   2.526   6.161   3.198  1.3136 -1.1503 -0.6474
   44CHL1   C11 3216   2.648   6.256   3.057  0.1643 -0.2481 -0.0340
   44CHL1  H11A 3217   2.754   6.287   3.043  0.3276 -0.7288  0.0956
   44CHL1  H11B 3218   2.643   6.162   2.999 -0.7742 -0.9079  1.0608
   44CHL1    C9 3219   2.561   6.369   2.993 -0.4742 -0.5640  0.2303
   44CHL1    H9 3220   2.467   6.313   2.973  0.6750 -2.4228 -0.2687
   44CHL1   C10 3221   2.600   6.425   2.852  0.4747 -0.9302  0.4502
   44CHL1   C19 3222   2.744   6.480   2.846  0.0295 -0.3429 -0.5326
   44CHL1  H19A 3223   2.815   6.396   2.857 -0.3631 -0.4229  2.0239
   44CHL1  H19B 3224   2.752   6.522   2.744 -2.6696  1.3512 -0.1409
   44CHL1  H19C 3225   2.762   6.557   2.924  0.6729  0.4569 -1.4435
   44CHL1    C1 3226   2.580   6.313   2.750 -0.4786  0.7890 -0.3519
   44CHL1   H1A 3227   2.665   6.244   2.763 -0.5530  0.5701 -0.9862
   44CHL1   H1B 3228   2.483   6.260   2.765  0.9362 -1.4555  1.4519
   44CHL1    C2 3229   2.579   6.345   2.598 -0.3696  0.3921  0.4520
   44CHL1   H2A 3230   2.546   6.252   2.546 -1.3853  0.4633  0.9517
   44CHL1   H2B 3231   2.685   6.369   2.575 -0.1464 -1.8507 -1.2533
   44CHL1   C20 3232   2.621   6.250   3.548  0.0581  0.0976  0.1935
   44CHL1   H20 3233   2.726   6.233   3.519 -0.9545 -3.0963 -2.2679
   44CHL1   C21 3234   2.555   6.107   3.539  0.2230  0.0281  1.0527
   44CHL1  H21A 3235   2.549   6.079   3.432 -0.5462 -0.3862  1.1930
   44CHL1  H21B 3236   2.450   6.091   3.573  0.0585 -3.1126 -0.5740
   44CHL1  H21C 3237   2.617   6.038   3.600 -0.2910  0.0028  1.5646
   44CHL1   C22 3238   2.616   6.311   3.689 -0.2503 -0.6545 -0.6690
   44CHL1  H22A 3239   2.674   6.406   3.686 -1.0980  0.0462  2.2860
   44CHL1  H22B 3240   2.509   6.329   3.714  0.2619  1.6693  0.0868
   44CHL1   C23 3241   2.658   6.213   3.806 -0.0258 -1.0111 -0.1263
   44CHL1  H23A 3242   2.627   6.271   3.895 -0.3964  0.1606 -0.9874
   44CHL1  H23B 3243   2.594   6.122   3.799 -1.5732  0.0328 -0.1800
   44CHL1   C24 3244   2.806   6.175   3.827 -0.3172 -0.1906  0.6981
   44CHL1  H24A 3245   2.840   6.132   3.730 -1.0217  2.2989 -0.7272
   44CHL1  H24B 3246   2.860   6.271   3.829 -3.0954  1.5477 -0.9930
   44CHL1   C25 3247   2.820   6.079   3.945  0.1187  0.5955  0.6489
   44CHL1   H25 3248   2.763   5.986   3.921  0.6489  0.5284 -0.4170
   44CHL1   C26 3249   2.972   6.030   3.951  0.5863 -0.3299  0.3791
   44CHL1  H26A 3250   2.978   5.968   4.043 -0.5622 -0.3530  0.4497
   44CHL1  H26B 3251   2.996   5.968   3.861  1.4690  0.8229 -0.2072
   44CHL1  H26C 3252   3.054   6.105   3.959  0.2302  0.0125  0.8580
   44CHL1   C27 3253   2.772   6.143   4.074  0.1901  0.9429 -0.4781
   44CHL1  H27A 3254   2.826   6.240   4.085  2.4902 -0.2621 -0.5383
   44CHL1  H27B 3255   2.663   6.161   4.069 -0.0885  0.5447  2.3825
   44CHL1  H27C 3256   2.791   6.073   4.159 -0.3561  0.1948 -0.9595
   45CHL1    C3 3257   2.880   0.135   2.582  0.1553 -0.3456  0.2530
   45CHL1    H3 3258   2.981   0.165   2.617 -0.4930 -0.3447  2.2539
   45CHL1    O3 3259   2.882   0.104   2.443  0.1574 -0.9594  0.0845
   45CHL1   H3' 3260   2.903   0.192   2.411  0.2498 -0.5991  1.1032
   45CHL1    C4 3261   2.826   0.007   2.655  0.1465 -0.4762 -0.3133
   45CHL1   H4A 3262   2.725  -0.013   2.614 -0.5636  0.3870  0.9236
   45CHL1   H4B 3263   2.889  -0.082   2.634 -0.0313 -0.3579 -1.4295
   45CHL1    C5 3264   2.817   0.038   2.808 -0.2094  0.3174  0.0409
   45CHL1    C6 3265   2.883  -0.030   2.901  0.6221  0.2592  0.2554
   45CHL1    H6 3266   2.947  -0.115   2.873 -0.1420 -0.7295  1.4283
   45CHL1    C7 3267   2.870  -0.002   3.050 -0.3620 -0.2579  0.5690
   45CHL1   H7A 3268   2.884  -0.099   3.103 -1.2272 -1.6524 -1.6272
   45CHL1   H7B 3269   2.954   0.061   3.087 -2.0486  1.5459  1.4737
   45CHL1    C8 3270   2.739   0.068   3.088 -0.3744 -0.5956  0.1378
   45CHL1    H8 3271   2.656  -0.004   3.073 -0.5717 -0.1433 -1.0875
   45CHL1   C14 3272   2.746   0.120   3.231 -0.0498  0.3998  0.3142
   45CHL1   H14 3273   2.827   0.196   3.236  1.3166 -1.0025  0.3324
   45CHL1   C15 3274   2.793   0.023   3.346  0.7218  0.3911  0.3878
   45CHL1  H15A 3275   2.746  -0.077   3.330 -0.3318  0.6048  1.9091
   45CHL1  H15B 3276   2.901   0.002   3.331  0.5403  0.2720 -0.8957
   45CHL1   C16 3277   2.751   0.097   3.471  0.4677 -0.5573 -0.7466
   45CHL1  H16A 3278   2.675   0.027   3.512 -0.3107  0.3059 -0.6741
   45CHL1  H16B 3279   2.830   0.113   3.547 -0.6732 -1.0013  0.5603
   45CHL1   C17 3280   2.674   0.228   3.426 -0.0762  0.1244  0.2914
   45CHL1   H17 3281   2.757   0.300   3.411  0.8096 -1.0360 -0.5967
   45CHL1   C13 3282   2.628   0.198   3.278 -0.1607  0.1645  0.0354
   45CHL1   C18 3283   2.504   0.113   3.285 -0.5789 -0.3338 -0.1611
   45CHL1  H18A 3284   2.518   0.027   3.354  1.9425 -1.9605 -2.4945
   45CHL1  H18B 3285   2.420   0.176   3.322 -0.1872 -0.8062  1.6645
   45CHL1  H18C 3286   2.471   0.058   3.195 -1.3776 -0.3872  0.1535
   45CHL1   C12 3287   2.612   0.325   3.184 -0.5741 -0.0571 -0.3746
   45CHL1  H12A 3288   2.511   0.364   3.209 -1.6950 -2.6508 -0.5691
   45CHL1  H12B 3289   2.686   0.404   3.209 -1.0922  0.2874  0.1045
   45CHL1   C11 3290   2.605   0.278   3.037  0.2798  0.9428  0.0691
   45CHL1  H11A 3291   2.512   0.218   3.027  0.9317  0.1231 -1.4689
   45CHL1  H11B 3292   2.601   0.362   2.963 -0.0109 -0.8392 -2.0299
   45CHL1    C9 3293   2.716   0.189   2.995 -0.8900 -0.3229  0.1588
   45CHL1    H9 3294   2.809   0.248   3.012 -1.2853  0.3534 -0.0011
   45CHL1   C10 3295   2.717   0.158   2.835 -0.2810  0.4159  0.6813
   45CHL1   C19 3296   2.566   0.139   2.793 -0.1948  0.0192 -0.3051
   45CHL1  H19A 3297   2.525   0.060   2.859  1.9244 -0.0244  1.0670
   45CHL1  H19B 3298   2.514   0.237   2.801 -1.9535 -0.5706 -2.9193
   45CHL1  H19C 3299   2.544   0.098   2.692 -1.0784 -1.1182  0.3216
   45CHL1    C1 3300   2.775   0.279   2.768  0.9700  0.0893  0.1736
   45CHL1   H1A 3301   2.708   0.366   2.776  1.3419  0.4981 -0.9311
   45CHL1   H1B 3302   2.870   0.306   2.820  1.3375 -2.1137  0.7521
   45CHL1    C2 3303   2.790   0.266   2.610 -0.8696  0.0245 -0.7070
   45CHL1   H2A 3304   2.835   0.365   2.590 -1.8209  0.9737  1.4613
   45CHL1   H2B 3305   2.692   0.248   2.561 -1.8871 -1.9701  1.7995
   45CHL1   C20 3306   2.570   0.276   3.529 -0.9523 -0.9904 -0.3794
   45CHL1   H20 3307   2.495   0.195   3.540 -1.6165 -0.4532 -0.8264
   45CHL1   C21 3308   2.495   0.407   3.481 -0.5287 -0.1169  0.2963
   45CHL1  H21A 3309   2.423   0.386   3.400  0.4352 -0.5202 -0.4618
   45CHL1  H21B 3310   2.570   0.479   3.442 -0.4581 -1.3387 -1.9084
   45CHL1  H21C 3311   2.438   0.449   3.568  0.1447 -1.1148  1.2427
   45CHL1   C22 3312   2.640   0.292   3.670  0.1460 -0.0330 -0.0128
   45CHL1  H22A 3313   2.657   0.186   3.696 -1.7213 -0.9641 -2.2228
   45CHL1  H22B 3314   2.736   0.347   3.661  0.2985 -0.2175  0.4507
   45CHL1   C23 3315   2.552   0.355   3.782  0.1699 -1.0573  0.6377
   45CHL1  H23A 3316   2.538   0.460   3.747 -1.4630 -0.8654  1.7373
   45CHL1  H23B 3317   2.446   0.320   3.779  0.2679 -1.5740  2.3502
   45CHL1   C24 3318   2.611   0.355   3.921  0.2188  0.1448  0.5713
   45CHL1  H24A 3319   2.578   0.258   3.963  0.7783 -0.5661 -0.5816
   45CHL1  H24B 3320   2.722   0.369   3.921  0.5519 -2.1317  0.9387
   45CHL1   C25 3321   2.548   0.455   4.016 -0.1110  0.4938  0.8029
   45CHL1   H25 3322   2.604   0.458   4.113 -0.7204  1.6995  1.1432
   45CHL1   C26 3323   2.542   0.608   3.967  0.3869  0.3787  0.0638
   45CHL1  H26A 3324   2.475   0.624   3.880  0.9432 -2.5433 -1.0225
   45CHL1  H26B 3325   2.511   0.680   4.046 -0.1745 -0.6177  0.7765
   45CHL1  H26C 3326   2.639   0.651   3.933  0.3529 -0.2852 -0.8926
   45CHL1   C27 3327   2.402   0.410   4.052  0.1935 -0.0181  0.0838
   45CHL1  H27A 3328   2.359   0.485   4.123 -2.9238 -1.3729 -0.2157
   45CHL1  H27B 3329   2.322   0.420   3.976 -0.0789  2.8907  0.6337
   45CHL1  H27C 3330   2.397   0.311   4.101 -0.5062 -0.2783 -0.5049
   46CHL1    C3 3331   5.921   0.822   2.817 -0.5818  0.9396 -0.2568
   46CHL1    H3 3332   6.011   0.886   2.829 -0.2277  0.6023 -1.0363
   46CHL1    O3 3333   5.926   0.755   2.691  0.3641 -0.0812  0.2631
   46CHL1   H3' 3334   6.011   0.715   2.677  0.1674  0.3102 -2.6594
   46CHL1    C4 3335   5.944   0.704   2.922  0.1896 -0.0288 -0.7640
   46CHL1   H4A 3336   5.867   0.628   2.896  0.4222 -0.0624 -1.3616
   46CHL1   H4B 3337   6.043   0.658   2.900 -0.5396 -1.4283 -1.3032
   46CHL1    C5 3338   5.935   0.761   3.065  0.6724  0.2382  0.0045
   46CHL1    C6 3339   6.040   0.746   3.150  0.5086 -0.5152  1.0186
   46CHL1    H6 3340   6.135   0.698   3.123 -0.4301 -2.1347  0.4449
   46CHL1    C7 3341   6.036   0.779   3.296 -0.7145 -0.3001 -0.0202
   46CHL1   H7A 3342   6.095   0.700   3.348  0.7868  0.1122 -1.0465
   46CHL1   H7B 3343   6.086   0.877   3.305 -0.6886 -0.0837 -2.1106
   46CHL1    C8 3344   5.888   0.794   3.341  0.4390  0.1121  0.3777
   46CHL1    H8 3345   5.836   0.698   3.360 -1.8000  1.2345  0.1956
   46CHL1   C14 3346   5.887   0.875   3.471 -0.6229 -0.0117  0.6151
   46CHL1   H14 3347   5.945   0.966   3.444  3.0892 -2.6030 -0.9965
   46CHL1   C15 3348   5.968   0.813   3.585  0.2849 -0.3849 -0.3686
   46CHL1  H15A 3349   5.939   0.707   3.595  0.1865 -0.3306 -0.0866
   46CHL1  H15B 3350   6.078   0.810   3.568  0.1515 -1.0652 -1.1470
   46CHL1   C16 3351   5.926   0.896   3.706  0.0965 -0.1732  0.3432
   46CHL1  H16A 3352   5.893   0.820   3.779 -2.5474 -0.9719 -1.4973
   46CHL1  H16B 3353   6.014   0.952   3.744  0.0068  0.7296 -0.6986
   46CHL1   C17 3354   5.805   0.980   3.656 -0.1659 -0.8073 -0.4028
   46CHL1   H17 3355   5.849   1.079   3.630 -0.8224 -0.3544  0.1798
   46CHL1   C13 3356   5.750   0.915   3.532 -0.0193 -0.0690 -0.5466
   46CHL1   C18 3357   5.664   0.791   3.562  0.1578 -0.0010  0.1810
   46CHL1  H18A 3358   5.646   0.722   3.477 -0.1165  0.2544  0.0284
   46CHL1  H18B 3359   5.708   0.732   3.645 -2.0782 -2.0121  0.0405
   46CHL1  H18C 3360   5.562   0.825   3.590  0.4062  1.0594 -0.1702
   46CHL1   C12 3361   5.685   1.004   3.427  0.2607 -0.1205  0.4252
   46CHL1  H12A 3362   5.581   1.034   3.453  0.2960  2.4747 -1.9740
   46CHL1  H12B 3363   5.734   1.104   3.422 -1.6092  0.8266  0.1386
   46CHL1   C11 3364   5.675   0.935   3.286 -0.4017 -0.3894  0.2912
   46CHL1  H11A 3365   5.603   0.852   3.299  0.6584 -1.7805 -2.1384
   46CHL1  H11B 3366   5.638   1.005   3.208 -1.8465 -1.6350 -0.1806
   46CHL1    C9 3367   5.811   0.879   3.237 -0.6511  0.3259 -0.0313
   46CHL1    H9 3368   5.873   0.971   3.236 -2.5474  1.7282  1.7909
   46CHL1   C10 3369   5.801   0.822   3.094 -0.6597  0.3646 -0.5971
   46CHL1   C19 3370   5.691   0.713   3.089  0.6838 -0.6052  0.1100
   46CHL1  H19A 3371   5.597   0.742   3.140 -0.8491 -1.7657 -1.9317
   46CHL1  H19B 3372   5.676   0.691   2.982  0.5364  0.5653 -0.1232
   46CHL1  H19C 3373   5.719   0.614   3.130  0.0979 -0.5484  0.6602
   46CHL1    C1 3374   5.780   0.940   2.993 -0.0984  0.6023  0.0527
   46CHL1   H1A 3375   5.679   0.984   3.007 -1.3452 -1.8782 -0.4234
   46CHL1   H1B 3376   5.856   1.017   3.018  2.1115 -0.4386 -2.7731
   46CHL1    C2 3377   5.798   0.901   2.842  0.2360 -0.3544 -0.0107
   46CHL1   H2A 3378   5.801   0.990   2.776  0.6827  0.0231  0.5145
   46CHL1   H2B 3379   5.707   0.841   2.819  0.6704 -1.3547  0.8069
   46CHL1   C20 3380   5.709   0.995   3.777 -0.5598 -0.4494 -0.1198
   46CHL1   H20 3381   5.660   0.896   3.792  0.8133 -1.1979 -0.4087
   46CHL1   C21 3382   5.594   1.093   3.736 -0.0393  0.8233  0.0977
   46CHL1  H21A 3383   5.544   1.054   3.644  1.2709  1.6186 -1.0024
   46CHL1  H21B 3384   5.649   1.189   3.721  0.7232  0.5158  0.8129
   46CHL1  H21C 3385   5.515   1.107   3.812 -0.2510  1.8637 -0.2943
   46CHL1   C22 3386   5.779   1.051   3.908  0.0776  0.0343 -0.1567
   46CHL1  H22A 3387   5.873   0.999   3.936  0.8625  0.0212 -2.5600
   46CHL1  H22B 3388   5.814   1.156   3.893 -1.6499  0.6768  0.1149
   46CHL1   C23 3389   5.683   1.041   4.028  0.0057  0.2478 -0.1267
   46CHL1  H23A 3390   5.587   1.092   4.006 -0.3970 -0.4072  0.0990
   46CHL1  H23B 3391   5.664   0.935   4.056  1.7682 -0.5580 -1.7215
   46CHL1   C24 3392   5.743   1.111   4.152 -0.4986 -0.5224 -0.0831
   46CHL1  H24A 3393   5.839   1.063   4.180  0.6430  0.8117 -1.4969
   46CHL1  H24B 3394   5.778   1.211   4.117  1.5450 -0.6948  1.2679
   46CHL1   C25 3395   5.640   1.127   4.266 -0.2089  0.1232 -0.3387
   46CHL1   H25 3396   5.545   1.163   4.222 -0.5613 -0.7030 -0.2719
   46CHL1   C26 3397   5.605   0.990   4.328  0.8075  0.6013  0.2404
   46CHL1  H26A 3398   5.526   0.983   4.405  0.6395 -1.2070 -0.0575
   46CHL1  H26B 3399   5.553   0.929   4.251 -1.6370  2.4537  0.3027
   46CHL1  H26C 3400   5.700   0.941   4.359  0.8716  0.6734  0.1633
   46CHL1   C27 3401   5.693   1.224   4.371 -0.2743  0.1429 -0.0539
   46CHL1  H27A 3402   5.620   1.224   4.454  0.1691  0.8074  0.3491
   46CHL1  H27B 3403   5.782   1.176   4.418 -2.1784 -1.9250  1.6691
   46CHL1  H27C 3404   5.714   1.322   4.322  2.0257 -1.1157 -1.8152
   47CHL1    C3 3405   5.102   1.775   2.703 -0.1109 -0.2025 -1.2324
   47CHL1    H3 3406   5.178   1.704   2.743 -1.8257 -0.4315  1.9723
   47CHL1    O3 3407   5.106   1.742   2.568 -0.1630  0.1933 -0.3398
   47CHL1   H3' 3408   5.196   1.725   2.539 -0.2846 -1.3427  0.1175
   47CHL1    C4 3409   4.973   1.728   2.764  0.6240  0.8962  1.0493
   47CHL1   H4A 3410   4.892   1.775   2.705  1.5984  1.1271 -0.1535
   47CHL1   H4B 3411   4.969   1.619   2.743  2.4238  1.5644 -4.1725
   47CHL1    C5 3412   4.943   1.767   2.908  0.0488 -0.3445 -0.1304
   47CHL1    C6 3413   4.907   1.670   2.995 -0.0248 -0.6817  0.5308
   47CHL1    H6 3414   4.900   1.568   2.953  0.5227  0.4717 -2.6840
   47CHL1    C7 3415   4.869   1.706   3.134  0.0337 -0.7868  0.4523
   47CHL1   H7A 3416   4.774   1.661   3.170 -1.1923  1.5351  0.3629
   47CHL1   H7B 3417   4.946   1.681   3.210 -0.9944  2.9623  3.0108
   47CHL1    C8 3418   4.854   1.854   3.158 -0.7422 -0.4799 -0.6761
   47CHL1    H8 3419   4.760   1.896   3.116 -0.6410 -0.5573 -0.9792
   47CHL1   C14 3420   4.862   1.877   3.314 -0.0193 -0.0304 -0.0880
   47CHL1   H14 3421   4.960   1.846   3.355  0.6085  1.0212 -0.7367
   47CHL1   C15 3422   4.754   1.802   3.401 -0.0377  0.3066  0.8291
   47CHL1  H15A 3423   4.659   1.801   3.343  0.8199 -3.2644 -0.7131
   47CHL1  H15B 3424   4.789   1.698   3.416 -0.3453 -0.0638 -0.7945
   47CHL1   C16 3425   4.747   1.892   3.524 -0.2145 -0.1259 -1.0219
   47CHL1  H16A 3426   4.646   1.936   3.534 -0.3887 -0.8221  0.6468
   47CHL1  H16B 3427   4.778   1.844   3.620 -0.2003  1.1714 -0.3571
   47CHL1   C17 3428   4.851   2.008   3.508  0.2003 -0.1323 -1.3902
   47CHL1   H17 3429   4.944   1.957   3.542 -0.2312  0.0093  0.0681
   47CHL1   C13 3430   4.855   2.024   3.354  0.4484 -0.2724 -0.3897
   47CHL1   C18 3431   4.733   2.101   3.307  0.3429  0.0129 -0.3508
   47CHL1  H18A 3432   4.731   2.201   3.354  0.4624  0.1976 -0.7367
   47CHL1  H18B 3433   4.716   2.111   3.197 -2.1767 -2.5162 -0.3047
   47CHL1  H18C 3434   4.644   2.049   3.346  0.4293 -0.7198 -1.0925
   47CHL1   C12 3435   4.979   2.094   3.302 -0.5768 -0.4728  0.1278
   47CHL1  H12A 3436   4.994   2.196   3.341  0.7828 -0.4213 -0.4743
   47CHL1  H12B 3437   5.070   2.048   3.345  0.7555  1.2688 -0.7438
   47CHL1   C11 3438   4.994   2.080   3.150 -0.2789  0.1192  0.0474
   47CHL1  H11A 3439   4.909   2.140   3.110  0.4535 -0.4208 -2.4973
   47CHL1  H11B 3440   5.087   2.125   3.109  0.9444 -0.8600  1.6382
   47CHL1    C9 3441   4.975   1.930   3.096 -0.1916 -0.3244 -0.4337
   47CHL1    H9 3442   5.066   1.883   3.139  1.8947  3.4365 -0.3357
   47CHL1   C10 3443   4.980   1.916   2.941  0.5827  0.2631 -0.0465
   47CHL1   C19 3444   4.872   2.017   2.881 -0.0109  0.1789  0.0793
   47CHL1  H19A 3445   4.874   2.125   2.909  1.0367 -0.1632  1.4077
   47CHL1  H19B 3446   4.883   2.005   2.771  0.8956 -0.8543  0.2680
   47CHL1  H19C 3447   4.770   1.986   2.911 -0.0282 -0.2409 -0.4022
   47CHL1    C1 3448   5.122   1.947   2.886  0.0669  0.3265 -0.4297
   47CHL1   H1A 3449   5.149   2.053   2.908  2.4484 -0.4183  0.6276
   47CHL1   H1B 3450   5.195   1.892   2.950 -2.2396 -0.8621  1.3106
   47CHL1    C2 3451   5.137   1.920   2.737  0.2027  0.2131  0.0372
   47CHL1   H2A 3452   5.240   1.952   2.712 -0.8433  2.0021 -2.3930
   47CHL1   H2B 3453   5.075   1.987   2.673 -1.7120 -1.8673 -0.4388
   47CHL1   C20 3454   4.821   2.128   3.600  0.1466 -0.0675  0.2993
   47CHL1   H20 3455   4.739   2.189   3.556  0.3719 -0.2787 -0.4372
   47CHL1   C21 3456   4.944   2.217   3.619 -0.1773  0.0231  0.5242
   47CHL1  H21A 3457   4.935   2.288   3.704  0.0926  1.1398 -0.3609
   47CHL1  H21B 3458   4.954   2.292   3.539  0.2400  3.3843  3.4681
   47CHL1  H21C 3459   5.038   2.159   3.632 -0.2406 -0.1312  0.2957
   47CHL1   C22 3460   4.777   2.089   3.739 -0.5728  0.2403 -0.3487
   47CHL1  H22A 3461   4.754   2.188   3.783  0.0167 -0.3648  1.3798
   47CHL1  H22B 3462   4.679   2.037   3.730 -1.0438  0.6186  1.9431
   47CHL1   C23 3463   4.873   2.001   3.822 -0.7821  0.4319 -0.2713
   47CHL1  H23A 3464   4.905   1.909   3.768 -0.1737  0.6037 -0.2052
   47CHL1  H23B 3465   4.973   2.049   3.827  0.6702 -2.4467  1.0855
   47CHL1   C24 3466   4.813   1.975   3.968 -0.2271 -0.3202 -0.1352
   47CHL1  H24A 3467   4.882   1.907   4.023  0.8268  0.5470 -0.3546
   47CHL1  H24B 3468   4.798   2.075   4.015 -0.3215  0.0816 -0.9932
   47CHL1   C25 3469   4.682   1.902   3.977 -0.4613 -0.4760  0.2009
   47CHL1   H25 3470   4.603   1.972   3.943  0.2964 -0.6021 -1.9472
   47CHL1   C26 3471   4.682   1.772   3.899 -0.4003 -0.5634 -0.3379
   47CHL1  H26A 3472   4.697   1.790   3.791  0.1203 -2.5065 -0.6351
   47CHL1  H26B 3473   4.769   1.706   3.920 -1.7526 -1.9956  1.0416
   47CHL1  H26C 3474   4.585   1.720   3.916 -1.3087  1.6234  1.8116
   47CHL1   C27 3475   4.653   1.874   4.126 -0.5736  0.4618  0.0769
   47CHL1  H27A 3476   4.702   1.775   4.141 -1.1593 -0.4217 -3.1425
   47CHL1  H27B 3477   4.675   1.959   4.193 -0.0706 -1.5318  2.6084
   47CHL1  H27C 3478   4.550   1.836   4.141 -0.0576 -1.3587 -0.6993
   48CHL1    C3 3479   5.420   3.817   2.596  0.3994  0.7468  0.3370
   48CHL1    H3 3480   5.522   3.775   2.607  1.1880  2.4957  0.0040
   48CHL1    O3 3481   5.396   3.803   2.459  0.2658  0.0246 -0.0466
   48CHL1   H3' 3482   5.306   3.835   2.457  0.2894  0.4504  2.1460
   48CHL1    C4 3483   5.319   3.718   2.673 -0.1913  0.3836  0.2433
   48CHL1   H4A 3484   5.215   3.756   2.667 -0.6443 -0.2689  2.6738
   48CHL1   H4B 3485   5.330   3.614   2.636  1.8856 -0.0550  1.8730
   48CHL1    C5 3486   5.344   3.721   2.824  0.1276  0.2896  0.6244
   48CHL1    C6 3487   5.363   3.610   2.906  0.1130 -0.1565 -0.2209
   48CHL1    H6 3488   5.354   3.508   2.865  0.1020 -0.6488  0.9701
   48CHL1    C7 3489   5.376   3.618   3.057  0.4767 -0.5147  0.0366
   48CHL1   H7A 3490   5.321   3.545   3.121  0.7413  1.3948  2.6327
   48CHL1   H7B 3491   5.483   3.597   3.080  0.2309 -0.7811  1.0026
   48CHL1    C8 3492   5.346   3.764   3.114  0.2272 -0.7882  0.4403
   48CHL1    H8 3493   5.241   3.779   3.146  0.8329 -1.2150  2.7852
   48CHL1   C14 3494   5.420   3.768   3.251 -0.0758 -0.4340 -0.1109
   48CHL1   H14 3495   5.530   3.761   3.240  0.2773  0.4665  2.2434
   48CHL1   C15 3496   5.395   3.648   3.347  0.2894  0.0014 -0.3419
   48CHL1  H15A 3497   5.286   3.629   3.339  0.1446  1.1217 -1.1945
   48CHL1  H15B 3498   5.453   3.562   3.306 -1.0610 -0.0708 -2.2346
   48CHL1   C16 3499   5.429   3.706   3.483 -0.1121  0.5739  0.2227
   48CHL1  H16A 3500   5.348   3.683   3.556  0.9008 -0.9552  0.9381
   48CHL1  H16B 3501   5.519   3.655   3.525  1.2141  1.9495 -0.8702
   48CHL1   C17 3502   5.462   3.858   3.463 -0.0136  0.1427 -0.0172
   48CHL1   H17 3503   5.573   3.854   3.456  0.1673  1.7362  1.1137
   48CHL1   C13 3504   5.391   3.896   3.335 -0.7169 -0.4218 -0.4504
   48CHL1   C18 3505   5.245   3.920   3.366 -0.6945 -0.1083 -0.6719
   48CHL1  H18A 3506   5.178   3.911   3.278 -2.7883  0.6260  0.7754
   48CHL1  H18B 3507   5.208   3.853   3.446  1.4410  0.3455  0.7769
   48CHL1  H18C 3508   5.245   4.024   3.404  2.2878  0.1379 -1.1532
   48CHL1   C12 3509   5.457   4.008   3.252  0.2525  0.3835 -0.4511
   48CHL1  H12A 3510   5.448   4.112   3.289 -1.5559  0.8175 -1.9277
   48CHL1  H12B 3511   5.564   3.982   3.261  0.8630  2.1074 -2.2712
   48CHL1   C11 3512   5.399   4.013   3.103 -0.4414  0.3982 -0.1193
   48CHL1  H11A 3513   5.293   4.046   3.112 -0.2022  0.7806  1.6264
   48CHL1  H11B 3514   5.466   4.091   3.060 -0.0485  0.0542 -0.1361
   48CHL1    C9 3515   5.403   3.879   3.026  0.0089  0.1175 -0.0500
   48CHL1    H9 3516   5.512   3.863   3.017  0.1105 -0.2008  1.4857
   48CHL1   C10 3517   5.344   3.874   2.886  0.1873  0.0245  0.0512
   48CHL1   C19 3518   5.198   3.935   2.906  0.0678  0.0038 -0.5915
   48CHL1  H19A 3519   5.138   3.924   2.813  0.7664 -1.1973 -0.9314
   48CHL1  H19B 3520   5.144   3.888   2.991  0.7589 -0.6539 -0.5017
   48CHL1  H19C 3521   5.217   4.043   2.920  4.6242 -0.6216 -0.3789
   48CHL1    C1 3522   5.432   3.968   2.803 -0.5281  0.3102  0.9378
   48CHL1   H1A 3523   5.419   4.075   2.831 -0.7949  0.1762  1.3418
   48CHL1   H1B 3524   5.536   3.934   2.820 -0.9576 -1.4117  0.3180
   48CHL1    C2 3525   5.405   3.957   2.647  0.8765  0.1341 -0.4724
   48CHL1   H2A 3526   5.481   4.021   2.597 -1.6076  1.4984 -2.7570
   48CHL1   H2B 3527   5.300   3.980   2.620  0.7028  1.6427  1.3111
   48CHL1   C20 3528   5.443   3.946   3.591  0.1331 -0.5418  0.3285
   48CHL1   H20 3529   5.334   3.955   3.610  0.0194  2.3721 -1.0441
   48CHL1   C21 3530   5.481   4.088   3.557  0.4579  0.5089 -0.0711
   48CHL1  H21A 3531   5.579   4.099   3.506  0.7870 -2.6715 -0.3231
   48CHL1  H21B 3532   5.479   4.153   3.646  1.6732  1.2621 -0.5735
   48CHL1  H21C 3533   5.399   4.129   3.493  0.1737 -1.1663 -0.8582
   48CHL1   C22 3534   5.511   3.892   3.718  0.3274  0.3431 -0.5292
   48CHL1  H22A 3535   5.484   3.785   3.732  0.6259 -0.0035 -2.4183
   48CHL1  H22B 3536   5.620   3.912   3.721  0.6198 -1.2502 -0.0169
   48CHL1   C23 3537   5.467   3.958   3.854 -0.5417 -0.1000  0.6240
   48CHL1  H23A 3538   5.457   4.068   3.863 -2.3944 -0.1704 -0.0392
   48CHL1  H23B 3539   5.364   3.918   3.867 -0.5427  0.0138  0.9819
   48CHL1   C24 3540   5.556   3.904   3.967  0.4354  0.1804 -0.5602
   48CHL1  H24A 3541   5.580   3.796   3.949  0.4606  0.2943 -1.2570
   48CHL1  H24B 3542   5.655   3.954   3.978  0.2811  0.1219  1.3910
   48CHL1   C25 3543   5.476   3.913   4.098  0.3880  0.7574  0.1097
   48CHL1   H25 3544   5.377   3.868   4.074  1.2439 -0.1504 -1.8976
   48CHL1   C26 3545   5.535   3.839   4.219  0.8561  0.1808 -0.3027
   48CHL1  H26A 3546   5.610   3.908   4.263 -1.9309  4.0042 -1.0268
   48CHL1  H26B 3547   5.455   3.828   4.295 -1.1408  0.6792 -2.2383
   48CHL1  H26C 3548   5.574   3.738   4.194 -4.2567 -2.7426  1.8840
   48CHL1   C27 3549   5.462   4.061   4.132 -0.5544  0.4126  0.4067
   48CHL1  H27A 3550   5.402   4.072   4.225  0.6105 -0.2766  1.2646
   48CHL1  H27B 3551   5.563   4.104   4.146 -0.3723  0.2130 -0.2361
   48CHL1  H27C 3552   5.414   4.119   4.050  1.2562  2.7350  0.8800
   49CHL1    C3 3553   2.735   1.172   2.593 -0.1574 -0.7436  0.2992
   49CHL1    H3 3554   2.691   1.267   2.555  0.4964 -0.9825 -1.1136
   49CHL1    O3 3555   2.787   1.111   2.477 -0.2767  0.3703 -0.0605
   49CHL1   H3' 3556   2.812   1.024   2.507 -0.5936  0.3797  0.2345
   49CHL1    C4 3557   2.856   1.193   2.682  0.2832 -0.2700 -0.2711
   49CHL1   H4A 3558   2.914   1.101   2.700 -0.2167 -0.6741 -0.7004
   49CHL1   H4B 3559   2.927   1.262   2.632  0.5810  0.2789  0.8650
   49CHL1    C5 3560   2.814   1.249   2.818  0.3001  0.0315 -0.6953
   49CHL1    C6 3561   2.863   1.362   2.865  0.2146 -0.0545  0.4522
   49CHL1    H6 3562   2.938   1.418   2.807  1.2036  0.4842  2.1839
   49CHL1    C7 3563   2.826   1.429   2.995 -0.0881 -0.2106 -0.2523
   49CHL1   H7A 3564   2.914   1.483   3.034  1.0578 -1.0673 -1.5627
   49CHL1   H7B 3565   2.749   1.505   2.970 -0.6619 -0.7096 -0.0429
   49CHL1    C8 3566   2.773   1.321   3.088 -0.5682 -0.2802  0.1470
   49CHL1    H8 3567   2.855   1.251   3.117  0.0607 -0.0482 -1.0081
   49CHL1   C14 3568   2.741   1.384   3.227 -0.1784  0.2220 -1.2162
   49CHL1   H14 3569   2.668   1.464   3.204 -1.0030 -0.3971 -0.7907
   49CHL1   C15 3570   2.860   1.452   3.307 -0.1888 -0.0086  0.8956
   49CHL1  H15A 3571   2.940   1.376   3.316 -1.9470 -1.8544  1.9684
   49CHL1  H15B 3572   2.893   1.542   3.250  0.7264 -0.4180  0.7664
   49CHL1   C16 3573   2.796   1.487   3.445  0.2839 -0.1007  0.6380
   49CHL1  H16A 3574   2.864   1.456   3.528  1.4748  2.5097  0.7387
   49CHL1  H16B 3575   2.783   1.598   3.445  0.5280 -0.0655  1.4168
   49CHL1   C17 3576   2.661   1.396   3.443 -0.0109 -0.2607 -0.1026
   49CHL1   H17 3577   2.584   1.468   3.404  2.1399  2.6090  0.5844
   49CHL1   C13 3578   2.664   1.293   3.331 -0.8479 -0.4182 -0.3243
   49CHL1   C18 3579   2.750   1.180   3.376  0.8935 -0.3345  0.1515
   49CHL1  H18A 3580   2.796   1.131   3.287 -0.5449  0.6437 -1.1968
   49CHL1  H18B 3581   2.820   1.214   3.455 -0.7195 -0.2063  1.5740
   49CHL1  H18C 3582   2.690   1.098   3.419 -3.1210  0.5818 -3.0799
   49CHL1   C12 3583   2.537   1.251   3.261  0.6909 -0.4091 -0.4284
   49CHL1  H12A 3584   2.479   1.191   3.334 -1.0508  1.8167  0.1391
   49CHL1  H12B 3585   2.476   1.343   3.247  0.6782 -0.1919  0.9475
   49CHL1   C11 3586   2.562   1.178   3.123  0.3725 -0.1389  0.1760
   49CHL1  H11A 3587   2.604   1.079   3.152 -0.8921 -0.4667  0.9679
   49CHL1  H11B 3588   2.469   1.153   3.067  0.0817 -1.8420  1.3413
   49CHL1    C9 3589   2.654   1.252   3.018 -0.0831 -0.7960  0.6425
   49CHL1    H9 3590   2.582   1.328   2.981 -1.3702 -2.4327 -0.3709
   49CHL1   C10 3591   2.700   1.170   2.889 -0.1659  0.3784 -0.5085
   49CHL1   C19 3592   2.767   1.034   2.940 -0.0155 -0.3115 -0.0779
   49CHL1  H19A 3593   2.814   0.968   2.864 -0.2773 -1.1466  0.4700
   49CHL1  H19B 3594   2.840   1.056   3.021  0.9156  0.0191 -0.9858
   49CHL1  H19C 3595   2.678   0.975   2.971  0.6883 -0.0807  2.6555
   49CHL1    C1 3596   2.583   1.145   2.791 -0.1174  0.1978  0.3769
   49CHL1   H1A 3597   2.511   1.076   2.841 -0.9285  0.6206 -0.1834
   49CHL1   H1B 3598   2.530   1.240   2.770 -0.5126 -0.3339 -1.1434
   49CHL1    C2 3599   2.627   1.087   2.656 -0.2566  0.5618  0.0083
   49CHL1   H2A 3600   2.539   1.065   2.592  1.0065  0.3940 -1.7504
   49CHL1   H2B 3601   2.660   0.982   2.671 -2.5007 -0.4526 -1.5633
   49CHL1   C20 3602   2.624   1.347   3.582  0.1120  0.7879 -0.4944
   49CHL1   H20 3603   2.695   1.268   3.615  0.7778  0.9792 -1.4384
   49CHL1   C21 3604   2.486   1.262   3.588 -0.6641  0.0635  0.8206
   49CHL1  H21A 3605   2.409   1.326   3.540  1.3229  0.6872 -1.7305
   49CHL1  H21B 3606   2.457   1.231   3.691 -2.9006  0.9026  0.5025
   49CHL1  H21C 3607   2.497   1.169   3.529 -0.2917  0.2062  0.6651
   49CHL1   C22 3608   2.611   1.455   3.690  0.2377 -0.5754  0.3865
   49CHL1  H22A 3609   2.574   1.411   3.785 -0.3441 -0.3837  0.2521
   49CHL1  H22B 3610   2.706   1.509   3.708 -1.4338  2.2538  1.3018
   49CHL1   C23 3611   2.505   1.568   3.667  0.0119 -0.4638 -0.5009
   49CHL1  H23A 3612   2.549   1.643   3.598  0.8662 -1.5201 -1.1373
   49CHL1  H23B 3613   2.418   1.519   3.618  0.4394  0.5134 -2.3295
   49CHL1   C24 3614   2.460   1.634   3.801 -0.4683  0.2289 -0.2054
   49CHL1  H24A 3615   2.420   1.556   3.870  2.4731 -4.2670 -3.0836
   49CHL1  H24B 3616   2.555   1.672   3.846 -0.2094  2.8134 -2.6278
   49CHL1   C25 3617   2.377   1.767   3.794 -0.1161 -0.0434  0.9193
   49CHL1   H25 3618   2.434   1.852   3.751 -0.7580  0.1920  0.5070
   49CHL1   C26 3619   2.258   1.752   3.701  0.7325  0.6512  0.2889
   49CHL1  H26A 3620   2.197   1.844   3.693  0.3417  0.2632 -1.5855
   49CHL1  H26B 3621   2.300   1.724   3.602 -1.4259 -2.6469  0.1517
   49CHL1  H26C 3622   2.192   1.672   3.741  0.4797  1.7790  2.2606
   49CHL1   C27 3623   2.334   1.812   3.931 -0.0785 -0.1395 -0.0445
   49CHL1  H27A 3624   2.263   1.749   3.988  1.5816 -0.4567  1.7430
   49CHL1  H27B 3625   2.428   1.828   3.988  1.4732  1.2319 -2.7787
   49CHL1  H27C 3626   2.288   1.913   3.932 -1.3353 -0.7027  1.3958
   50CHL1    C3 3627   0.974   1.015   2.693 -0.3696  0.7590 -0.4787
   50CHL1    H3 3628   1.047   1.098   2.705 -0.9977  1.1277  1.0593
   50CHL1    O3 3629   0.954   0.987   2.556  0.0670  0.1641 -0.1637
   50CHL1   H3' 3630   1.036   0.946   2.527 -0.3342 -0.5200 -0.3429
   50CHL1    C4 3631   1.040   0.890   2.754 -0.0149 -0.5261 -0.2988
   50CHL1   H4A 3632   0.963   0.810   2.744 -1.8111  0.9888  0.6817
   50CHL1   H4B 3633   1.126   0.849   2.698 -0.2483 -1.2043 -0.1840
   50CHL1    C5 3634   1.050   0.891   2.908 -0.0667 -0.4720  0.2182
   50CHL1    C6 3635   1.160   0.865   2.974 -0.1040 -0.1610  0.0652
   50CHL1    H6 3636   1.244   0.820   2.919  0.4315 -0.9700  1.4698
   50CHL1    C7 3637   1.168   0.857   3.120  0.4239 -0.1958  0.3604
   50CHL1   H7A 3638   1.227   0.768   3.152  0.0425 -0.9642 -0.9750
   50CHL1   H7B 3639   1.240   0.934   3.153  0.7348 -0.0437 -0.6351
   50CHL1    C8 3640   1.039   0.866   3.205  1.2488  0.5923 -0.3635
   50CHL1    H8 3641   0.998   0.763   3.199  3.1666 -0.3997  2.1790
   50CHL1   C14 3642   1.052   0.902   3.349  0.3222 -0.4468 -0.1208
   50CHL1   H14 3643   1.099   1.003   3.356  0.2912 -0.3606 -1.0426
   50CHL1   C15 3644   1.153   0.821   3.435 -0.0058 -0.3041  0.3637
   50CHL1  H15A 3645   1.149   0.713   3.409  1.3907 -0.7772  1.9511
   50CHL1  H15B 3646   1.258   0.856   3.424 -0.2946  1.1466  1.7418
   50CHL1   C16 3647   1.100   0.844   3.585 -0.9723  0.1231 -0.0420
   50CHL1  H16A 3648   1.073   0.742   3.619  3.0738 -1.3489 -0.6212
   50CHL1  H16B 3649   1.182   0.876   3.653 -0.1083 -1.4975 -0.2661
   50CHL1   C17 3650   0.978   0.945   3.571  1.0019 -0.2407  0.0715
   50CHL1   H17 3651   1.019   1.048   3.569 -0.2168  0.3052  1.5428
   50CHL1   C13 3652   0.924   0.919   3.427  0.7531  0.7730  0.3451
   50CHL1   C18 3653   0.848   0.791   3.432  0.4971  0.6773  0.3881
   50CHL1  H18A 3654   0.758   0.808   3.495  0.3217  0.7080  0.1323
   50CHL1  H18B 3655   0.813   0.750   3.335  1.5962  1.1176 -0.2036
   50CHL1  H18C 3656   0.905   0.706   3.475 -1.9596 -2.5207 -2.0938
   50CHL1   C12 3657   0.848   1.039   3.369 -0.1558  0.0242 -0.7769
   50CHL1  H12A 3658   0.755   1.060   3.425  0.8086  1.8002  0.2355
   50CHL1  H12B 3659   0.918   1.125   3.376  0.8094 -0.8792  1.9005
   50CHL1   C11 3660   0.821   0.999   3.220 -0.5440  0.3149 -0.3700
   50CHL1  H11A 3661   0.749   0.914   3.226  0.9274 -0.9311  0.2217
   50CHL1  H11B 3662   0.773   1.089   3.176  0.5200  1.8702  1.4996
   50CHL1    C9 3663   0.946   0.967   3.139 -0.0265  0.2132  0.1124
   50CHL1    H9 3664   1.006   1.060   3.137 -0.7380  0.6686 -1.1216
   50CHL1   C10 3665   0.924   0.934   2.989  0.1943  0.5541 -0.4891
   50CHL1   C19 3666   0.827   0.805   2.962  0.2862  0.1489 -0.8963
   50CHL1  H19A 3667   0.729   0.830   3.007 -0.9738  0.0539 -3.4115
   50CHL1  H19B 3668   0.806   0.786   2.855 -1.1273  1.0980 -0.8183
   50CHL1  H19C 3669   0.872   0.717   3.012  2.6642  1.3088 -0.8341
   50CHL1    C1 3670   0.866   1.061   2.916  0.3726  0.1117 -0.1021
   50CHL1   H1A 3671   0.764   1.088   2.949  0.4338  1.1895 -0.7403
   50CHL1   H1B 3672   0.933   1.148   2.936 -0.5825  0.8973 -0.2303
   50CHL1    C2 3673   0.844   1.051   2.763  0.6543 -0.2604  0.3837
   50CHL1   H2A 3674   0.793   1.141   2.722  0.5735 -1.3121 -1.9822
   50CHL1   H2B 3675   0.776   0.967   2.738 -0.0903 -0.1818  2.0033
   50CHL1   C20 3676   0.880   0.947   3.686 -0.2643  0.1220 -0.6263
   50CHL1   H20 3677   0.816   0.856   3.678 -1.2642  0.6025  1.2963
   50CHL1   C21 3678   0.787   1.075   3.692 -0.0939  0.0664 -0.3027
   50CHL1  H21A 3679   0.694   1.058   3.633 -1.4878  0.4974  1.6684
   50CHL1  H21B 3680   0.849   1.157   3.650 -1.2117 -0.5136 -3.4039
   50CHL1  H21C 3681   0.765   1.108   3.796  1.0246 -4.3796  1.5559
   50CHL1   C22 3682   0.948   0.927   3.825  0.5404 -0.8627 -0.3752
   50CHL1  H22A 3683   0.873   0.936   3.906  2.4287  1.9930  1.2425
   50CHL1  H22B 3684   0.997   0.827   3.826 -0.8667 -1.5731  0.1569
   50CHL1   C23 3685   1.053   1.032   3.859 -0.1093  0.1841  0.4867
   50CHL1  H23A 3686   1.158   1.000   3.840 -0.2710 -0.3568  0.4827
   50CHL1  H23B 3687   1.035   1.127   3.805  0.2889 -0.7611 -1.4062
   50CHL1   C24 3688   1.052   1.051   4.011 -0.6051  0.2315 -0.9679
   50CHL1  H24A 3689   0.955   1.083   4.053 -0.8607 -0.3459 -1.1161
   50CHL1  H24B 3690   1.065   0.956   4.066  0.5567  0.6404 -0.4874
   50CHL1   C25 3691   1.164   1.157   4.051 -0.4102  0.0552 -0.8082
   50CHL1   H25 3692   1.263   1.130   4.009  0.0491  0.8883 -0.2865
   50CHL1   C26 3693   1.129   1.292   4.003 -0.0616  0.0607  0.3209
   50CHL1  H26A 3694   1.029   1.326   4.038  0.3869  1.3574  0.4092
   50CHL1  H26B 3695   1.197   1.369   4.047 -0.0649  2.6278 -3.6699
   50CHL1  H26C 3696   1.136   1.318   3.895 -1.6319 -2.1542 -0.3667
   50CHL1   C27 3697   1.176   1.151   4.203  0.2355 -0.4612 -0.2712
   50CHL1  H27A 3698   1.226   1.236   4.254  1.5777 -0.8200 -0.9274
   50CHL1  H27B 3699   1.077   1.127   4.245 -0.1588 -1.9763 -1.9360
   50CHL1  H27C 3700   1.235   1.062   4.234  1.2072  0.0357 -0.6367
   51CHL1    C3 3701   4.259   1.077   3.052 -0.5056 -0.7665 -0.0453
   51CHL1    H3 3702   4.173   1.008   3.038 -1.3807  0.3580 -0.3085
   51CHL1    O3 3703   4.308   1.112   2.926  0.2223  0.5938 -0.0696
   51CHL1   H3' 3704   4.294   1.206   2.918 -0.7438  0.4913  0.2132
   51CHL1    C4 3705   4.201   1.194   3.134 -0.5095 -0.4927 -0.0420
   51CHL1   H4A 3706   4.272   1.279   3.143 -0.9214 -0.2224  0.7835
   51CHL1   H4B 3707   4.118   1.242   3.077 -0.7344 -2.0287 -1.0766
   51CHL1    C5 3708   4.147   1.147   3.271  0.4399 -0.4359  0.3458
   51CHL1    C6 3709   4.018   1.165   3.301 -0.3972 -0.2522  0.3674
   51CHL1    H6 3710   3.966   1.237   3.237 -1.7318 -2.0213 -0.6203
   51CHL1    C7 3711   3.954   1.119   3.434  0.2283 -1.0014  0.2343
   51CHL1   H7A 3712   3.887   1.196   3.478  0.2615  0.3071 -1.8516
   51CHL1   H7B 3713   3.892   1.030   3.409 -3.5104  1.8076 -1.4381
   51CHL1    C8 3714   4.062   1.079   3.540  0.4103 -0.1217  0.4641
   51CHL1    H8 3715   4.102   1.176   3.577  0.8145  0.1006 -0.5068
   51CHL1   C14 3716   4.000   0.993   3.647 -0.4289 -0.1739  0.2241
   51CHL1   H14 3717   3.976   0.896   3.599 -1.7807  1.3402 -2.3713
   51CHL1   C15 3718   3.870   1.048   3.711  0.1321 -0.0583  1.0524
   51CHL1  H15A 3719   3.879   1.158   3.717 -2.6694  0.3348 -0.2175
   51CHL1  H15B 3720   3.782   1.033   3.645 -0.4337  1.9971  1.2864
   51CHL1   C16 3721   3.860   0.975   3.847 -0.6393 -0.0988  0.4054
   51CHL1  H16A 3722   3.835   1.048   3.927 -0.2069  1.3764 -0.7469
   51CHL1  H16B 3723   3.779   0.901   3.837 -1.0567  0.3313  0.5422
   51CHL1   C17 3724   4.001   0.902   3.872  0.1419 -0.3813  0.5650
   51CHL1   H17 3725   3.995   0.793   3.852  0.1772 -0.7158  2.2606
   51CHL1   C13 3726   4.097   0.967   3.765 -0.3744  0.1796  0.3479
   51CHL1   C18 3727   4.165   1.099   3.822 -0.3439 -0.7047  0.6383
   51CHL1  H18A 3728   4.092   1.164   3.875  1.4991  0.6817  1.5794
   51CHL1  H18B 3729   4.235   1.058   3.898 -1.2338  0.2221  2.0070
   51CHL1  H18C 3730   4.223   1.159   3.748 -0.8251  0.9226  1.5379
   51CHL1   C12 3731   4.209   0.880   3.713 -0.4262 -0.3142  0.2729
   51CHL1  H12A 3732   4.288   0.860   3.789 -1.7324  2.0354  2.4279
   51CHL1  H12B 3733   4.171   0.780   3.684  3.1743 -0.8362 -3.8112
   51CHL1   C11 3734   4.280   0.943   3.584  0.3632  0.1346 -0.7088
   51CHL1  H11A 3735   4.342   1.028   3.620 -0.9370  0.8812 -0.1484
   51CHL1  H11B 3736   4.353   0.867   3.551 -0.2386 -0.3280 -0.9901
   51CHL1    C9 3737   4.182   1.002   3.482  0.9050  0.0304  0.1516
   51CHL1    H9 3738   4.131   0.915   3.435 -2.2747  0.3692  2.5954
   51CHL1   C10 3739   4.247   1.075   3.361 -0.1172 -0.2728 -0.1253
   51CHL1   C19 3740   4.339   1.181   3.416  0.2534  0.7753 -0.2128
   51CHL1  H19A 3741   4.350   1.265   3.343  0.5864  2.0854  1.2894
   51CHL1  H19B 3742   4.293   1.227   3.506 -0.3698 -0.3444  0.0500
   51CHL1  H19C 3743   4.441   1.148   3.443 -0.5532  0.1842  2.3989
   51CHL1    C1 3744   4.335   0.971   3.275 -0.1564 -0.1531  0.1587
   51CHL1   H1A 3745   4.432   0.953   3.325 -1.4994 -3.1436  1.9255
   51CHL1   H1B 3746   4.272   0.881   3.258 -1.0402  0.1692  1.4875
   51CHL1    C2 3747   4.372   1.008   3.133 -0.5703 -0.4976  0.6586
   51CHL1   H2A 3748   4.405   0.915   3.081 -4.2102 -1.2445 -0.6463
   51CHL1   H2B 3749   4.453   1.083   3.133  1.3380 -2.3954 -1.7131
   51CHL1   C20 3750   4.040   0.905   4.025  0.7867 -0.0042 -0.5458
   51CHL1   H20 3751   4.070   1.010   4.046 -0.6920  0.9558 -2.8867
   51CHL1   C21 3752   4.159   0.818   4.053  0.5504  0.2631  0.5108
   51CHL1  H21A 3753   4.154   0.788   4.160 -0.2130  2.5448  1.1617
   51CHL1  H21B 3754   4.260   0.859   4.031  0.1561  1.4397  0.8037
   51CHL1  H21C 3755   4.144   0.730   3.987 -0.8805  1.7090 -1.1767
   51CHL1   C22 3756   3.928   0.856   4.125 -0.1420  0.7774  0.4169
   51CHL1  H22A 3757   3.969   0.859   4.228 -0.3242 -0.0979  0.5190
   51CHL1  H22B 3758   3.840   0.923   4.115  0.6259  1.4647 -2.8561
   51CHL1   C23 3759   3.867   0.722   4.089 -0.4049  0.1728 -0.1802
   51CHL1  H23A 3760   3.833   0.732   3.983 -0.6271 -2.7101 -0.4529
   51CHL1  H23B 3761   3.950   0.650   4.102  1.1120  2.2170  2.5692
   51CHL1   C24 3762   3.744   0.669   4.166  0.8786 -0.0722 -0.6589
   51CHL1  H24A 3763   3.669   0.750   4.168 -0.1659 -0.9223  3.2855
   51CHL1  H24B 3764   3.700   0.585   4.108  0.4533 -0.0000 -0.4422
   51CHL1   C25 3765   3.772   0.628   4.313  0.2642  0.1229 -0.1314
   51CHL1   H25 3766   3.817   0.719   4.358 -0.5863  1.7745 -2.4201
   51CHL1   C26 3767   3.641   0.591   4.390 -0.0270 -0.2348 -0.9193
   51CHL1  H26A 3768   3.573   0.676   4.414  1.3638  0.7079 -0.1955
   51CHL1  H26B 3769   3.584   0.511   4.338 -1.1714 -1.2612  1.7206
   51CHL1  H26C 3770   3.665   0.550   4.490 -0.9757 -1.8156 -1.3153
   51CHL1   C27 3771   3.867   0.507   4.313 -0.4445 -0.7364 -0.3001
   51CHL1  H27A 3772   3.848   0.452   4.408 -1.0559  3.0657  2.0181
   51CHL1  H27B 3773   3.852   0.433   4.231  0.1634  1.1684 -2.2236
   51CHL1  H27C 3774   3.974   0.535   4.302 -0.6169 -0.7917 -2.5494
   52CHL1    C3 3775   3.940   4.114   2.796 -0.2754  0.8574  0.4069
   52CHL1    H3 3776   3.979   4.039   2.868 -0.2995  0.6303  0.1810
   52CHL1    O3 3777   3.924   4.043   2.681 -0.6154  0.2630 -0.0960
   52CHL1   H3' 3778   3.933   4.104   2.608  1.6614 -0.3842 -0.4295
   52CHL1    C4 3779   3.817   4.192   2.847 -0.0395  0.0820  0.2914
   52CHL1   H4A 3780   3.786   4.270   2.774  2.2250  0.5184 -0.2596
   52CHL1   H4B 3781   3.730   4.122   2.853 -1.6527  1.9946  0.3465
   52CHL1    C5 3782   3.859   4.244   2.986 -0.5999  0.5946  0.1987
   52CHL1    C6 3783   3.791   4.203   3.096  0.4113  0.6557 -0.0945
   52CHL1    H6 3784   3.711   4.129   3.082 -0.8055  2.0078 -0.4317
   52CHL1    C7 3785   3.818   4.266   3.228 -0.2468 -0.0755 -0.6032
   52CHL1   H7A 3786   3.727   4.297   3.284  1.2374 -0.5425  2.2578
   52CHL1   H7B 3787   3.883   4.201   3.290  0.9733  1.8624  0.2693
   52CHL1    C8 3788   3.884   4.405   3.224 -0.1891  0.0490  0.2423
   52CHL1    H8 3789   3.816   4.485   3.189 -0.0760  0.0348 -0.0158
   52CHL1   C14 3790   3.929   4.453   3.367  0.5001  0.7402 -0.2599
   52CHL1   H14 3791   4.003   4.377   3.400  1.0112  0.3531 -2.1325
   52CHL1   C15 3792   3.828   4.451   3.484 -0.3255 -0.5821  0.2684
   52CHL1  H15A 3793   3.738   4.510   3.457  0.3543 -0.3871 -1.7485
   52CHL1  H15B 3794   3.805   4.344   3.501  1.6130 -1.0480  0.2035
   52CHL1   C16 3795   3.918   4.516   3.600  0.3343 -0.8342 -0.7853
   52CHL1  H16A 3796   3.843   4.586   3.641 -0.0233 -2.4020  1.4524
   52CHL1  H16B 3797   3.950   4.437   3.672 -0.2851 -1.1410 -0.8373
   52CHL1   C17 3798   4.041   4.574   3.528  0.1337 -0.4246  0.1641
   52CHL1   H17 3799   4.123   4.500   3.538  0.3623  0.0706  2.4617
   52CHL1   C13 3800   4.005   4.580   3.375 -0.1591  0.0400 -0.0520
   52CHL1   C18 3801   3.912   4.696   3.348 -0.4163 -0.7461  0.2619
   52CHL1  H18A 3802   3.976   4.787   3.344 -0.1587 -0.9607 -0.8645
   52CHL1  H18B 3803   3.859   4.685   3.251 -1.5688  1.6425  0.5686
   52CHL1  H18C 3804   3.835   4.718   3.424  0.0403  3.5592 -0.3135
   52CHL1   C12 3805   4.126   4.574   3.270  1.0915  0.2657 -1.0054
   52CHL1  H12A 3806   4.184   4.668   3.269  0.7359  0.5602  1.3610
   52CHL1  H12B 3807   4.183   4.489   3.313  0.9105  0.2653 -0.7646
   52CHL1   C11 3808   4.079   4.538   3.132 -0.7004 -0.2025 -0.4874
   52CHL1  H11A 3809   4.005   4.611   3.093  0.5891  0.6223 -1.4795
   52CHL1  H11B 3810   4.163   4.538   3.059  1.2208  2.4069  1.4834
   52CHL1    C9 3811   4.001   4.405   3.124  0.6487  0.8781 -0.1353
   52CHL1    H9 3812   4.068   4.323   3.158  0.2774  0.6258  0.0093
   52CHL1   C10 3813   3.959   4.356   2.984 -0.1047  0.0553 -0.3178
   52CHL1   C19 3814   3.912   4.480   2.903  0.9270  0.5333 -0.1479
   52CHL1  H19A 3815   3.986   4.563   2.902 -1.1426  2.5287  1.1411
   52CHL1  H19B 3816   3.898   4.452   2.796 -0.2572  1.2446 -0.2053
   52CHL1  H19C 3817   3.828   4.532   2.954  0.5546 -1.5859  1.5337
   52CHL1    C1 3818   4.087   4.297   2.910 -0.9344  0.2073 -0.6193
   52CHL1   H1A 3819   4.170   4.368   2.892 -0.9602  0.3178 -0.3155
   52CHL1   H1B 3820   4.121   4.217   2.980 -1.5810  0.2591 -0.2316
   52CHL1    C2 3821   4.056   4.216   2.781  0.5135  0.5541  0.2240
   52CHL1   H2A 3822   4.148   4.162   2.751 -1.9545 -3.1215 -1.5483
   52CHL1   H2B 3823   4.022   4.283   2.699 -1.0522 -2.4810 -1.8059
   52CHL1   C20 3824   4.086   4.711   3.587 -0.2768 -0.4192 -0.2183
   52CHL1   H20 3825   4.011   4.788   3.560 -1.7890 -1.5427  0.6699
   52CHL1   C21 3826   4.215   4.750   3.518 -0.6349 -0.4978  0.6617
   52CHL1  H21A 3827   4.252   4.836   3.576  0.8162 -2.1076  2.2612
   52CHL1  H21B 3828   4.186   4.784   3.416  0.6732 -1.2676 -0.0070
   52CHL1  H21C 3829   4.300   4.678   3.528  0.7731  0.8904 -0.6681
   52CHL1   C22 3830   4.105   4.699   3.741 -0.9979 -0.1803  0.3370
   52CHL1  H22A 3831   4.159   4.793   3.766 -1.0792  0.0352 -0.2931
   52CHL1  H22B 3832   4.012   4.700   3.802 -0.5725  2.1547  1.0507
   52CHL1   C23 3833   4.206   4.594   3.791  0.2096  0.0929 -0.8162
   52CHL1  H23A 3834   4.185   4.494   3.748 -1.2999  0.6076 -1.3427
   52CHL1  H23B 3835   4.310   4.618   3.762  1.2242 -2.8421  0.0566
   52CHL1   C24 3836   4.213   4.576   3.950 -0.1859  0.2978 -0.4765
   52CHL1  H24A 3837   4.124   4.513   3.973  1.5986 -3.3558 -2.6828
   52CHL1  H24B 3838   4.290   4.498   3.968 -0.9660 -1.0200 -2.3634
   52CHL1   C25 3839   4.221   4.708   4.025 -0.3010 -0.2438 -0.2626
   52CHL1   H25 3840   4.133   4.773   4.004 -0.6987 -0.6973 -0.0120
   52CHL1   C26 3841   4.233   4.672   4.174 -0.3743 -0.8033  0.5921
   52CHL1  H26A 3842   4.260   4.760   4.236  0.9313  0.4028 -1.5778
   52CHL1  H26B 3843   4.138   4.624   4.205 -1.3015 -1.2560 -2.5943
   52CHL1  H26C 3844   4.323   4.609   4.195  1.2916  1.3381  0.2408
   52CHL1   C27 3845   4.352   4.779   3.986  0.1909 -0.2826  0.0864
   52CHL1  H27A 3846   4.356   4.795   3.876 -0.0887 -1.6047 -0.1299
   52CHL1  H27B 3847   4.371   4.871   4.046  1.0425 -1.4688  1.7053
   52CHL1  H27C 3848   4.433   4.706   4.009 -0.6794 -2.2690 -2.6873
   53CHL1    C3 3849   4.980   0.441   2.874  0.0412  0.4229 -0.3550
   53CHL1    H3 3850   4.934   0.541   2.888  0.6349  0.5545  0.7432
   53CHL1    O3 3851   4.958   0.401   2.738  0.5488 -0.5243  0.0214
   53CHL1   H3' 3852   5.034   0.343   2.723  0.7685 -0.3791  0.5195
   53CHL1    C4 3853   5.132   0.442   2.898 -0.1069 -0.6994 -1.0730
   53CHL1   H4A 3854   5.180   0.348   2.863 -1.0081 -1.4887 -0.2674
   53CHL1   H4B 3855   5.168   0.530   2.841  3.4879 -2.2070 -1.4063
   53CHL1    C5 3856   5.159   0.471   3.046  0.1782 -0.5050 -0.3034
   53CHL1    C6 3857   5.258   0.554   3.088 -0.2755  0.4782  0.0597
   53CHL1    H6 3858   5.318   0.607   3.012 -0.2181  0.2535 -0.0539
   53CHL1    C7 3859   5.301   0.585   3.228  0.0799  0.0495 -0.0155
   53CHL1   H7A 3860   5.407   0.554   3.233  0.9077  2.0628 -2.7216
   53CHL1   H7B 3861   5.291   0.692   3.256 -0.3652 -0.1427  0.5851
   53CHL1    C8 3862   5.211   0.509   3.334  1.0323  0.2519  0.0119
   53CHL1    H8 3863   5.264   0.411   3.344  0.3499 -0.3553 -1.8896
   53CHL1   C14 3864   5.202   0.578   3.464 -0.4855  0.2249 -0.3087
   53CHL1   H14 3865   5.146   0.674   3.453  0.3584  0.6393 -1.1094
   53CHL1   C15 3866   5.342   0.625   3.521 -0.2171  0.1102 -0.4061
   53CHL1  H15A 3867   5.419   0.550   3.493  0.0581 -0.1545  0.9544
   53CHL1  H15B 3868   5.375   0.725   3.486  1.6742 -0.4816 -0.4677
   53CHL1   C16 3869   5.315   0.618   3.677  0.0936  0.0104  0.2681
   53CHL1  H16A 3870   5.379   0.546   3.733  1.0250  0.8328  0.2900
   53CHL1  H16B 3871   5.318   0.720   3.719 -3.2217 -0.1145  1.0893
   53CHL1   C17 3872   5.167   0.578   3.693  0.2646 -0.4944  0.0611
   53CHL1   H17 3873   5.110   0.669   3.664 -1.0301 -1.4307 -0.4239
   53CHL1   C13 3874   5.132   0.495   3.573  0.5444  0.0933  0.3251
   53CHL1   C18 3875   5.203   0.358   3.594  0.6194  0.2152 -0.8880
   53CHL1  H18A 3876   5.200   0.294   3.503 -1.3172 -1.2323  0.0992
   53CHL1  H18B 3877   5.306   0.374   3.630  0.5628  0.7791 -0.9675
   53CHL1  H18C 3878   5.144   0.310   3.675 -0.3814  1.2828 -0.9565
   53CHL1   C12 3879   4.985   0.471   3.528  0.0308 -0.1935 -0.5297
   53CHL1  H12A 3880   4.934   0.408   3.604  0.4164  0.2151  0.0781
   53CHL1  H12B 3881   4.926   0.565   3.525 -0.3949 -0.2001  3.0313
   53CHL1   C11 3882   4.982   0.402   3.390 -0.5663 -0.1209 -0.0816
   53CHL1  H11A 3883   4.997   0.292   3.385 -1.9452 -0.2892 -1.3339
   53CHL1  H11B 3884   4.879   0.424   3.355  0.1274 -0.3833 -2.4429
   53CHL1    C9 3885   5.069   0.468   3.286 -1.2885  0.1173 -1.2176
   53CHL1    H9 3886   5.018   0.566   3.273  1.2091  1.4858 -1.3546
   53CHL1   C10 3887   5.069   0.397   3.151  0.1664  0.4462  0.4401
   53CHL1   C19 3888   5.133   0.257   3.160 -0.2523  0.2738 -0.5027
   53CHL1  H19A 3889   5.058   0.192   3.210 -1.2198  1.6523 -0.1022
   53CHL1  H19B 3890   5.152   0.218   3.057  1.0926  1.1740 -0.6189
   53CHL1  H19C 3891   5.228   0.247   3.217  0.6234  0.2246 -1.9106
   53CHL1    C1 3892   4.919   0.378   3.106 -0.1548  0.2552 -0.1565
   53CHL1   H1A 3893   4.866   0.307   3.174  2.0473 -2.4072 -1.0264
   53CHL1   H1B 3894   4.864   0.474   3.112 -0.1873  0.1610  1.6914
   53CHL1    C2 3895   4.909   0.337   2.961  0.8236  0.0660  0.2167
   53CHL1   H2A 3896   4.801   0.330   2.936  0.5773  1.3473  0.8552
   53CHL1   H2B 3897   4.958   0.241   2.934  0.2526  0.2670 -1.6594
   53CHL1   C20 3898   5.114   0.542   3.832 -0.1103  0.7457 -0.4271
   53CHL1   H20 3899   5.107   0.432   3.850  3.2245  0.4176 -0.4375
   53CHL1   C21 3900   4.970   0.607   3.848 -0.5647  0.1521  0.0548
   53CHL1  H21A 3901   4.899   0.572   3.771 -1.4694 -2.4507  1.9225
   53CHL1  H21B 3902   4.973   0.717   3.839  0.2659  0.1908  0.6716
   53CHL1  H21C 3903   4.920   0.569   3.940 -2.1477  0.7816 -0.5138
   53CHL1   C22 3904   5.204   0.592   3.944  0.4037  0.1862 -0.6216
   53CHL1  H22A 3905   5.304   0.544   3.956  0.1442 -0.0161  0.9851
   53CHL1  H22B 3906   5.216   0.702   3.928 -0.3404  0.1533 -1.4582
   53CHL1   C23 3907   5.148   0.584   4.090  0.1280  0.3800 -0.2253
   53CHL1  H23A 3908   5.049   0.634   4.095  0.4586  0.9933  0.3295
   53CHL1  H23B 3909   5.134   0.474   4.100  1.7642  0.2010  0.3533
   53CHL1   C24 3910   5.235   0.642   4.200  0.1509 -0.1438 -0.4235
   53CHL1  H24A 3911   5.332   0.590   4.214  0.8160  1.0557 -0.4861
   53CHL1  H24B 3912   5.239   0.753   4.196 -0.6865  0.0182  1.8215
   53CHL1   C25 3913   5.170   0.626   4.346  0.5706  0.5427  0.0191
   53CHL1   H25 3914   5.077   0.685   4.332  0.9155  0.9978 -0.3734
   53CHL1   C26 3915   5.129   0.490   4.392  0.5332 -0.2479  0.4911
   53CHL1  H26A 3916   5.219   0.426   4.406 -0.0803 -1.6523 -1.4601
   53CHL1  H26B 3917   5.077   0.494   4.490 -0.2766 -1.0449  0.1193
   53CHL1  H26C 3918   5.068   0.437   4.315  0.6254  1.3101 -0.6918
   53CHL1   C27 3919   5.247   0.691   4.464  0.6674  0.4922  0.4709
   53CHL1  H27A 3920   5.271   0.795   4.432  0.3367  0.7329  0.9956
   53CHL1  H27B 3921   5.182   0.688   4.554  0.6760 -4.2212  0.5441
   53CHL1  H27C 3922   5.340   0.632   4.473 -1.3367 -2.9703  0.2973
   54CHL1    C3 3923   4.012   1.673   2.394 -1.0147  0.0954  0.1342
   54CHL1    H3 3924   3.958   1.587   2.438 -0.4344  0.4948  1.6980
   54CHL1    O3 3925   4.040   1.635   2.260  0.1430 -0.0539 -0.4179
   54CHL1   H3' 3926   4.134   1.616   2.251 -0.1399 -1.5383 -0.4858
   54CHL1    C4 3927   3.916   1.794   2.391  0.5480 -0.6701 -0.0162
   54CHL1   H4A 3928   3.970   1.874   2.335 -1.4021  0.4139 -0.4236
   54CHL1   H4B 3929   3.820   1.760   2.348  0.1223 -2.7295  2.3378
   54CHL1    C5 3930   3.876   1.834   2.532  0.5709 -0.2234  0.3036
   54CHL1    C6 3931   3.746   1.853   2.566  0.5639 -0.1312  0.1457
   54CHL1    H6 3932   3.669   1.836   2.490  0.4402  1.3368 -0.0846
   54CHL1    C7 3933   3.703   1.888   2.702 -0.0118  0.3487 -0.5529
   54CHL1   H7A 3934   3.619   1.960   2.696 -0.4189  0.2157  2.0541
   54CHL1   H7B 3935   3.665   1.798   2.754  0.8367  0.3987  0.1811
   54CHL1    C8 3936   3.816   1.955   2.790  0.1038  0.1326  0.0356
   54CHL1    H8 3937   3.824   2.059   2.754  0.3311 -0.1173 -0.6485
   54CHL1   C14 3938   3.774   1.956   2.933  0.0675 -0.4670 -0.1019
   54CHL1   H14 3939   3.778   1.850   2.964 -2.1912 -0.8312 -0.8980
   54CHL1   C15 3940   3.636   2.014   2.974 -0.2075 -0.0694 -0.5453
   54CHL1  H15A 3941   3.647   2.115   2.930 -0.5287  0.0795 -0.2837
   54CHL1  H15B 3942   3.551   1.956   2.931 -0.2045 -1.3264  1.0453
   54CHL1   C16 3943   3.643   2.013   3.131 -0.0832  0.1450 -0.0048
   54CHL1  H16A 3944   3.609   2.107   3.179 -0.4150 -0.0973  0.2355
   54CHL1  H16B 3945   3.580   1.932   3.174 -0.5935  1.6427  2.2489
   54CHL1   C17 3946   3.797   2.003   3.164 -0.9076 -0.6684  0.4824
   54CHL1   H17 3947   3.820   1.895   3.178  1.2816 -0.4550 -0.9548
   54CHL1   C13 3948   3.877   2.022   3.027 -0.2823  0.5731 -0.0557
   54CHL1   C18 3949   3.894   2.170   2.988 -0.5874 -0.1883 -0.0672
   54CHL1  H18A 3950   3.801   2.221   3.018  0.9959  2.5751  0.4889
   54CHL1  H18B 3951   3.988   2.198   3.041  1.1750 -1.0978 -2.4702
   54CHL1  H18C 3952   3.922   2.184   2.881  2.1262  0.7561  0.6809
   54CHL1   C12 3953   4.011   1.941   3.020 -0.1460  0.9608  0.1719
   54CHL1  H12A 3954   4.101   1.964   3.081  0.6608  1.5303 -1.1699
   54CHL1  H12B 3955   3.985   1.837   3.047  1.5775  0.5414  0.3651
   54CHL1   C11 3956   4.058   1.926   2.875 -0.5442  0.4906  0.1664
   54CHL1  H11A 3957   4.102   2.022   2.840  2.3767  0.0604  2.2770
   54CHL1  H11B 3958   4.129   1.841   2.880 -2.2683 -0.9395  2.5381
   54CHL1    C9 3959   3.947   1.873   2.778 -0.9955  0.0846 -0.3616
   54CHL1    H9 3960   3.923   1.771   2.814  1.5176 -1.0372 -1.6252
   54CHL1   C10 3961   3.997   1.855   2.634 -0.1009 -0.2117  0.3415
   54CHL1   C19 3962   4.069   1.985   2.585 -0.3191  0.1834 -0.2493
   54CHL1  H19A 3963   4.166   1.999   2.637  0.0854 -0.9349 -0.6723
   54CHL1  H19B 3964   4.096   1.991   2.478  0.2249 -0.2280 -0.1426
   54CHL1  H19C 3965   4.002   2.070   2.609 -3.6183 -2.1824 -0.4028
   54CHL1    C1 3966   4.101   1.732   2.618 -0.0279 -0.1491  0.8281
   54CHL1   H1A 3967   4.191   1.740   2.682 -0.1050 -0.6619  1.0068
   54CHL1   H1B 3968   4.042   1.647   2.659 -1.1930  0.4269  0.3964
   54CHL1    C2 3969   4.144   1.688   2.479  0.4366 -0.7064  0.2812
   54CHL1   H2A 3970   4.195   1.589   2.474  1.5470 -0.1251 -0.2325
   54CHL1   H2B 3971   4.213   1.756   2.424 -0.4572  0.7655  0.9277
   54CHL1   C20 3972   3.847   2.098   3.277 -0.8686 -0.2296 -1.0709
   54CHL1   H20 3973   3.824   2.204   3.252 -0.6770 -0.0277 -0.4210
   54CHL1   C21 3974   3.997   2.078   3.298 -0.2412 -0.3662  0.4333
   54CHL1  H21A 3975   4.015   1.970   3.319 -0.6549 -0.3278  1.0001
   54CHL1  H21B 3976   4.036   2.140   3.381 -2.0528  2.4250 -0.6566
   54CHL1  H21C 3977   4.068   2.113   3.220  1.6178 -0.8147  1.8577
   54CHL1   C22 3978   3.776   2.076   3.414  0.6532 -0.6544  0.7229
   54CHL1  H22A 3979   3.670   2.044   3.411  1.0209 -2.0366  1.2305
   54CHL1  H22B 3980   3.820   1.981   3.452  0.2822 -2.6454 -3.3112
   54CHL1   C23 3981   3.792   2.180   3.528  0.1666 -0.3744  0.1192
   54CHL1  H23A 3982   3.892   2.160   3.573  0.4973 -1.3326 -0.9746
   54CHL1  H23B 3983   3.810   2.284   3.493  0.8770 -0.6926 -0.5036
   54CHL1   C24 3984   3.688   2.153   3.642 -0.1114  0.5499 -0.3726
   54CHL1  H24A 3985   3.589   2.179   3.600  1.0516  1.5947 -2.6366
   54CHL1  H24B 3986   3.694   2.042   3.653  0.3937  0.4123 -1.7208
   54CHL1   C25 3987   3.709   2.242   3.769 -0.4142  0.0994  0.4708
   54CHL1   H25 3988   3.627   2.224   3.841 -0.7773  0.1621  0.0770
   54CHL1   C26 3989   3.849   2.224   3.830 -0.2937  0.8389  0.4493
   54CHL1  H26A 3990   3.871   2.118   3.857  0.0881  0.6828 -0.4361
   54CHL1  H26B 3991   3.929   2.262   3.763 -0.7393 -0.5091 -0.9002
   54CHL1  H26C 3992   3.861   2.283   3.923 -0.1427  0.5546  0.6128
   54CHL1   C27 3993   3.697   2.393   3.737  0.2562 -0.0814  0.0407
   54CHL1  H27A 3994   3.732   2.450   3.825  2.6786 -0.6711 -0.4606
   54CHL1  H27B 3995   3.758   2.423   3.649  0.9251  0.1256  0.5626
   54CHL1  H27C 3996   3.593   2.412   3.704  0.0817  0.7510  1.0262
   55CHL1    C3 3997   2.215   1.057   2.603  0.1608 -0.2611 -0.3791
   55CHL1    H3 3998   2.308   1.004   2.633 -0.1691 -1.0235 -0.6682
   55CHL1    O3 3999   2.197   1.035   2.465  0.3056  0.2858 -0.3958
   55CHL1   H3' 4000   2.117   1.083   2.443  0.0412 -0.7812 -1.8921
   55CHL1    C4 4001   2.100   0.987   2.679  0.0856 -0.3734  0.6234
   55CHL1   H4A 4002   2.000   1.018   2.641 -0.8087 -3.5845  0.0540
   55CHL1   H4B 4003   2.104   0.880   2.651 -1.7975 -0.5473  0.8594
   55CHL1    C5 4004   2.098   1.001   2.827  0.1025  0.3462  0.5254
   55CHL1    C6 4005   2.112   0.895   2.917 -0.0986  0.2745  0.1429
   55CHL1    H6 4006   2.112   0.791   2.879 -0.9886 -0.9404  3.1908
   55CHL1    C7 4007   2.123   0.912   3.067 -0.0292 -0.0990 -0.1954
   55CHL1   H7A 4008   2.079   0.820   3.112  0.0941 -1.0135 -1.8299
   55CHL1   H7B 4009   2.227   0.915   3.104  0.8659  2.5752 -2.5326
   55CHL1    C8 4010   2.065   1.050   3.106  0.1967  0.7054  0.3482
   55CHL1    H8 4011   1.957   1.039   3.080  0.1466 -1.1500  1.2108
   55CHL1   C14 4012   2.093   1.068   3.251 -0.0558 -0.6335 -0.0562
   55CHL1   H14 4013   2.203   1.071   3.262  0.2770 -3.9558 -1.3626
   55CHL1   C15 4014   2.052   0.961   3.349  0.2560 -0.0741 -0.0374
   55CHL1  H15A 4015   1.949   0.932   3.321  0.2180 -0.3157  0.3508
   55CHL1  H15B 4016   2.120   0.873   3.358  1.7366  1.1059  0.9509
   55CHL1   C16 4017   2.055   1.031   3.486  0.1935 -0.3961 -0.4508
   55CHL1  H16A 4018   1.951   1.027   3.524 -0.4037  0.5807 -1.8539
   55CHL1  H16B 4019   2.132   0.994   3.557 -1.1535 -2.3179  0.0748
   55CHL1   C17 4020   2.092   1.180   3.456  0.2005  0.4630 -0.2337
   55CHL1   H17 4021   2.203   1.187   3.458  0.4393 -1.1926 -2.8369
   55CHL1   C13 4022   2.045   1.203   3.316 -0.5237  0.3176 -0.3636
   55CHL1   C18 4023   1.891   1.217   3.302  0.0260  0.6096 -0.0579
   55CHL1  H18A 4024   1.858   1.321   3.323 -0.3574  0.2843  1.0505
   55CHL1  H18B 4025   1.853   1.183   3.204 -0.7997  0.6020  0.2593
   55CHL1  H18C 4026   1.842   1.150   3.375 -0.0005  1.4485  0.7158
   55CHL1   C12 4027   2.118   1.309   3.239 -0.0947  0.4620 -0.6563
   55CHL1  H12A 4028   2.068   1.401   3.275 -1.3289 -0.0039 -1.1068
   55CHL1  H12B 4029   2.227   1.300   3.257  0.2427  1.6437 -1.9600
   55CHL1   C11 4030   2.086   1.295   3.092  0.1086  0.2827  0.1357
   55CHL1  H11A 4031   1.977   1.312   3.075  0.1803  1.9880  1.1143
   55CHL1  H11B 4032   2.134   1.382   3.042 -2.3062  0.7660 -1.5332
   55CHL1    C9 4033   2.129   1.164   3.024 -0.4760  0.2579 -0.1884
   55CHL1    H9 4034   2.238   1.163   3.046 -0.6011 -0.6912  0.4364
   55CHL1   C10 4035   2.102   1.151   2.869  0.3006  0.4567  0.1581
   55CHL1   C19 4036   1.969   1.216   2.838 -0.7835  0.3796 -0.2949
   55CHL1  H19A 4037   1.935   1.210   2.733  1.1219  1.9135 -1.0679
   55CHL1  H19B 4038   1.884   1.173   2.895 -0.7271 -0.3802 -0.7857
   55CHL1  H19C 4039   1.973   1.326   2.857 -0.1585  0.2940  0.0955
   55CHL1    C1 4040   2.212   1.220   2.789 -0.2462 -0.7221  0.6811
   55CHL1   H1A 4041   2.200   1.328   2.811 -0.2523 -0.3015 -1.2187
   55CHL1   H1B 4042   2.313   1.193   2.826  1.1218  1.8494 -0.9424
   55CHL1    C2 4043   2.218   1.207   2.633  0.1000 -0.0938 -0.2955
   55CHL1   H2A 4044   2.315   1.249   2.596  0.1866 -0.3397 -0.3464
   55CHL1   H2B 4045   2.140   1.258   2.572  0.9313 -0.6930 -1.9262
   55CHL1   C20 4046   2.051   1.276   3.570  0.0410 -0.0549 -0.4376
   55CHL1   H20 4047   1.941   1.279   3.584  0.2527 -0.7132  1.7993
   55CHL1   C21 4048   2.097   1.430   3.548 -0.4869 -0.4668 -0.7129
   55CHL1  H21A 4049   2.061   1.490   3.635 -1.2341  0.5318 -1.6749
   55CHL1  H21B 4050   2.031   1.476   3.471 -2.8235 -1.0138  0.8582
   55CHL1  H21C 4051   2.205   1.445   3.527 -0.4354  0.5214  0.1558
   55CHL1   C22 4052   2.108   1.226   3.701  0.5898 -0.2687  0.3818
   55CHL1  H22A 4053   2.060   1.129   3.726  1.9026 -1.7798 -2.4289
   55CHL1  H22B 4054   2.214   1.196   3.688 -0.3767 -3.6852 -0.6557
   55CHL1   C23 4055   2.093   1.328   3.822  0.1273  0.0720 -0.7466
   55CHL1  H23A 4056   2.165   1.410   3.801 -1.2861  1.2647 -1.1936
   55CHL1  H23B 4057   1.992   1.375   3.814  1.3093  3.2834  1.1188
   55CHL1   C24 4058   2.099   1.272   3.961 -0.1970  0.7224 -0.6371
   55CHL1  H24A 4059   2.008   1.211   3.981  0.6167  0.1579  1.7209
   55CHL1  H24B 4060   2.188   1.206   3.967 -0.5522  0.2578 -0.3005
   55CHL1   C25 4061   2.130   1.377   4.073 -0.4072  0.7406 -0.4414
   55CHL1   H25 4062   2.232   1.414   4.047  0.4719 -1.1535  0.1168
   55CHL1   C26 4063   2.028   1.484   4.069  1.1324  0.4481 -0.0059
   55CHL1  H26A 4064   2.056   1.570   4.133 -0.9746 -1.1697  3.4588
   55CHL1  H26B 4065   2.018   1.536   3.972  0.6654  0.5563  0.0941
   55CHL1  H26C 4066   1.929   1.438   4.094  1.5094 -1.1241 -1.2193
   55CHL1   C27 4067   2.145   1.314   4.211  0.3404  0.7344 -0.1145
   55CHL1  H27A 4068   2.045   1.283   4.249  0.8795 -1.7290 -0.5928
   55CHL1  H27B 4069   2.215   1.229   4.201  1.3018  1.6439 -1.3874
   55CHL1  H27C 4070   2.188   1.377   4.292 -1.8254  0.2426  1.5304
   56CHL1    C3 4071   1.726   1.798   2.816 -0.0784  0.5065  0.2877
   56CHL1    H3 4072   1.817   1.830   2.872 -0.5138 -0.3241  1.5159
   56CHL1    O3 4073   1.767   1.776   2.682 -0.6482 -0.1256  0.0216
   56CHL1   H3' 4074   1.848   1.823   2.660 -0.9334  0.7856  0.8443
   56CHL1    C4 4075   1.685   1.656   2.874 -0.0446 -0.2609 -0.8374
   56CHL1   H4A 4076   1.599   1.611   2.820  0.9584 -1.9949 -1.0631
   56CHL1   H4B 4077   1.771   1.587   2.865 -0.4679 -1.0491  0.6562
   56CHL1    C5 4078   1.639   1.672   3.020  0.0461 -0.2852  0.2406
   56CHL1    C6 4079   1.688   1.600   3.123  0.3468  0.5722 -0.2760
   56CHL1    H6 4080   1.747   1.509   3.101  0.2150  0.4336 -0.0525
   56CHL1    C7 4081   1.645   1.596   3.266  0.1133  0.0384 -0.5049
   56CHL1   H7A 4082   1.620   1.491   3.291 -0.7099  0.2814 -0.2969
   56CHL1   H7B 4083   1.735   1.623   3.325 -1.4634  1.4119  1.3773
   56CHL1    C8 4084   1.528   1.699   3.289 -0.3380  0.2503  0.2520
   56CHL1    H8 4085   1.445   1.632   3.260  1.4273 -1.6132 -0.8436
   56CHL1   C14 4086   1.527   1.736   3.434 -0.6312 -0.0378 -0.2998
   56CHL1   H14 4087   1.621   1.789   3.459  0.6600 -2.7257  0.9244
   56CHL1   C15 4088   1.535   1.630   3.543 -0.8044 -0.3868  0.7247
   56CHL1  H15A 4089   1.476   1.544   3.507  1.2864 -1.3198 -0.6968
   56CHL1  H15B 4090   1.640   1.593   3.549 -0.0661  1.6478  1.2409
   56CHL1   C16 4091   1.475   1.691   3.669 -0.3515 -0.1454  0.3054
   56CHL1  H16A 4092   1.381   1.634   3.685  0.2898 -1.4485 -0.4195
   56CHL1  H16B 4093   1.544   1.686   3.757  1.1759 -1.7248 -0.9036
   56CHL1   C17 4094   1.435   1.836   3.631  0.4414 -0.3030 -0.7930
   56CHL1   H17 4095   1.529   1.892   3.653  0.4027 -0.5552  0.0777
   56CHL1   C13 4096   1.415   1.828   3.476  0.1991  0.5264  0.0903
   56CHL1   C18 4097   1.273   1.775   3.449  0.0280  0.2092  0.1679
   56CHL1  H18A 4098   1.187   1.846   3.458  0.8134  1.0211  1.6769
   56CHL1  H18B 4099   1.259   1.750   3.342 -0.3674  0.5774  0.1285
   56CHL1  H18C 4100   1.251   1.682   3.505 -1.2494  0.4761  0.1459
   56CHL1   C12 4101   1.432   1.958   3.394 -0.4693  1.2560  0.0774
   56CHL1  H12A 4102   1.341   2.014   3.423 -0.1975  1.9453 -0.3963
   56CHL1  H12B 4103   1.521   2.009   3.437 -0.5643  1.0392  0.5447
   56CHL1   C11 4104   1.441   1.928   3.243 -0.6265 -0.0999  0.6277
   56CHL1  H11A 4105   1.342   1.891   3.208  0.1995 -2.1314  0.3218
   56CHL1  H11B 4106   1.464   2.023   3.189 -2.0286 -0.1557 -0.1367
   56CHL1    C9 4107   1.541   1.820   3.197 -0.2325  0.3908  0.2858
   56CHL1    H9 4108   1.643   1.856   3.219  0.4359 -1.0114 -0.3574
   56CHL1   C10 4109   1.542   1.792   3.046  0.4020 -0.0432 -0.1604
   56CHL1   C19 4110   1.400   1.745   2.993  0.0409 -0.0944 -0.2844
   56CHL1  H19A 4111   1.349   1.680   3.067 -0.2924  0.2979 -0.1609
   56CHL1  H19B 4112   1.327   1.828   2.979 -0.4564 -0.8373 -2.5369
   56CHL1  H19C 4113   1.399   1.691   2.896 -0.0277 -0.9002  0.1624
   56CHL1    C1 4114   1.579   1.927   2.975  0.0654 -0.5924  0.4888
   56CHL1   H1A 4115   1.493   1.997   2.980  0.5426 -0.0208  0.6537
   56CHL1   H1B 4116   1.658   1.963   3.043  0.8266 -1.3062  0.0142
   56CHL1    C2 4117   1.621   1.909   2.831 -0.1672  0.5667 -0.0609
   56CHL1   H2A 4118   1.662   2.008   2.801 -0.2833  0.7639  0.4142
   56CHL1   H2B 4119   1.532   1.890   2.768  0.0434  2.6824 -1.0907
   56CHL1   C20 4120   1.333   1.905   3.718  0.1686  0.3081  0.1817
   56CHL1   H20 4121   1.237   1.850   3.711 -0.1446  0.7169  1.0803
   56CHL1   C21 4122   1.298   2.056   3.687  0.9079 -0.4215  0.3422
   56CHL1  H21A 4123   1.388   2.116   3.666 -0.5585  1.5238 -0.6546
   56CHL1  H21B 4124   1.240   2.101   3.771  1.2028  0.2798  0.1681
   56CHL1  H21C 4125   1.237   2.056   3.595  1.7179 -0.0299 -0.2007
   56CHL1   C22 4126   1.371   1.896   3.868 -0.3121 -0.3543  0.7198
   56CHL1  H22A 4127   1.482   1.901   3.870 -0.2405 -1.6788  0.9009
   56CHL1  H22B 4128   1.320   1.982   3.917 -1.6228 -1.5299  1.5258
   56CHL1   C23 4129   1.307   1.780   3.942  0.0866  0.0868 -0.4845
   56CHL1  H23A 4130   1.201   1.781   3.910  0.0853 -3.6962 -1.0207
   56CHL1  H23B 4131   1.351   1.685   3.904  2.0058  1.2297 -1.2699
   56CHL1   C24 4132   1.308   1.790   4.094  0.4590  0.3528 -0.1876
   56CHL1  H24A 4133   1.414   1.816   4.118  0.1819  1.5211 -0.1456
   56CHL1  H24B 4134   1.246   1.874   4.132  0.1782  1.2126 -2.3897
   56CHL1   C25 4135   1.269   1.662   4.175  0.9810  1.0354 -0.1495
   56CHL1   H25 4136   1.329   1.583   4.124 -1.6529 -0.4960 -1.0397
   56CHL1   C26 4137   1.315   1.683   4.320  0.4952 -0.2990  0.3451
   56CHL1  H26A 4138   1.253   1.760   4.371  1.4078 -0.2142  1.3753
   56CHL1  H26B 4139   1.297   1.585   4.369 -1.7604 -2.2471 -3.8421
   56CHL1  H26C 4140   1.424   1.705   4.328  0.9565 -1.6255 -1.6580
   56CHL1   C27 4141   1.119   1.630   4.163 -0.1695  0.0966 -0.5925
   56CHL1  H27A 4142   1.094   1.540   4.223  2.3280  0.4374  1.1031
   56CHL1  H27B 4143   1.064   1.712   4.213  0.5954 -0.7668  1.7728
   56CHL1  H27C 4144   1.081   1.619   4.059 -0.4442 -0.7037 -0.4151
   57SAPC     N 4145   2.970   6.359   6.732 -0.1809 -0.2849  0.2807
   57SAPC   C12 4146   2.930   6.274   6.618  0.0379 -0.6633  0.1717
   57SAPC  H12A 4147   2.823   6.268   6.609  0.0008 -1.7279  1.0824
   57SAPC  H12B 4148   2.969   6.174   6.632  2.7659  0.4673  1.3330
   57SAPC   C13 4149   2.893   6.308   6.850 -0.0054 -0.4683  0.2642
   57SAPC  H13A 4150   2.915   6.203   6.867 -0.5761 -0.4653  1.0760
   57SAPC  H13B 4151   2.922   6.359   6.940  3.4439  1.7187 -1.8850
   57SAPC  H13C 4152   2.787   6.316   6.833  0.2921  2.5859 -0.7223
   57SAPC   C14 4153   3.119   6.350   6.750  0.2974 -0.2364 -0.0078
   57SAPC  H14A 4154   3.149   6.252   6.785 -0.7556 -0.2566  0.8737
   57SAPC  H14B 4155   3.172   6.391   6.665  1.1714 -2.0978 -0.3992
   57SAPC  H14C 4156   3.155   6.422   6.822  0.3903  0.0942 -0.3777
   57SAPC   C15 4157   2.933   6.504   6.696 -0.5536 -0.4928  0.2484
   57SAPC  H15A 4158   2.826   6.520   6.699 -0.5189 -0.2145 -0.0213
   57SAPC  H15B 4159   2.996   6.567   6.757  1.0648 -1.1367 -0.6942
   57SAPC  H15C 4160   2.960   6.520   6.593 -0.6505 -0.1381  0.2764
   57SAPC   C11 4161   2.973   6.318   6.472  0.3216  0.1086  0.3596
   57SAPC  H11A 4162   2.961   6.240   6.394  3.3553 -0.2601  0.1486
   57SAPC  H11B 4163   3.084   6.327   6.469  0.4451 -1.1323  0.6068
   57SAPC     P 4164   2.759   6.427   6.379 -0.2457 -0.0079 -0.1018
   57SAPC   O13 4165   2.682   6.342   6.471  0.6118 -0.2807 -0.1412
   57SAPC   O14 4166   2.705   6.563   6.348  0.8850 -0.1727 -0.0698
   57SAPC   O12 4167   2.910   6.443   6.431 -0.1651  0.3323 -0.1173
   57SAPC   O11 4168   2.768   6.364   6.234  0.5916 -0.0485 -0.0131
   57SAPC    C1 4169   2.885   6.412   6.156  0.2635 -0.0132  0.0752
   57SAPC    HA 4170   2.879   6.523   6.149 -0.8950 -0.1012 -0.7020
   57SAPC    HB 4171   2.979   6.379   6.204 -0.2536 -0.6870  0.6499
   57SAPC    C2 4172   2.894   6.356   6.009 -0.2100  1.1342 -0.0363
   57SAPC    HS 4173   2.961   6.268   6.000  0.0536  1.3759 -0.4570
   57SAPC   O21 4174   2.918   6.458   5.907  0.4088 -0.1802  0.4679
   57SAPC   C21 4175   3.048   6.493   5.915  0.1781  0.4614 -0.3598
   57SAPC   O22 4176   3.134   6.448   5.990  0.3078 -0.0843 -0.2155
   57SAPC   C22 4177   3.076   6.593   5.807 -0.2915 -0.3677  0.1719
   57SAPC   H2R 4178   3.019   6.563   5.717  0.9134  0.3508 -0.8534
   57SAPC   H2S 4179   3.038   6.691   5.844  1.5520  0.4799 -0.0443
   57SAPC    C3 4180   2.753   6.284   5.968  0.0811 -0.1103  0.0085
   57SAPC    HX 4181   2.671   6.353   5.996  2.1509  2.4670  0.1793
   57SAPC    HY 4182   2.748   6.195   6.034 -2.8941  0.2335  0.3937
   57SAPC   O31 4183   2.746   6.229   5.836 -0.3263  0.3280  0.3630
   57SAPC   C31 4184   2.633   6.256   5.766 -0.6361 -0.3205 -0.5010
   57SAPC   O32 4185   2.553   6.341   5.793  0.5410 -0.1098  0.2091
   57SAPC   C32 4186   2.622   6.167   5.643  0.3177  0.0832 -0.6248
   57SAPC   H2X 4187   2.522   6.183   5.597  0.0696 -0.0133 -0.1314
   57SAPC   H2Y 4188   2.625   6.060   5.674  1.4762  0.0992 -0.6327
   57SAPC   C23 4189   3.227   6.598   5.764  0.0531 -0.3899 -0.0162
   57SAPC   H3R 4190   3.287   6.587   5.856 -2.5065 -0.3209  1.7602
   57SAPC   H3S 4191   3.242   6.702   5.727 -2.3117  0.0436  0.1151
   57SAPC   C24 4192   3.274   6.513   5.643 -0.2939 -0.3876 -0.8391
   57SAPC   H4R 4193   3.357   6.567   5.594 -0.4275 -0.6745 -1.3885
   57SAPC   H4S 4194   3.187   6.509   5.575  0.4125 -2.3913 -1.6989
   57SAPC   C25 4195   3.320   6.377   5.687 -0.3777  0.4956  0.1523
   57SAPC   H5R 4196   3.364   6.383   5.787 -0.8660 -0.6495  0.4582
   57SAPC   C26 4197   3.298   6.256   5.631  0.1583 -0.6033  0.5992
   57SAPC   H6R 4198   3.345   6.169   5.678  1.3069  0.4598  1.4868
   57SAPC   C27 4199   3.225   6.234   5.505  0.5185  0.5511  0.4929
   57SAPC   H7R 4200   3.198   6.323   5.444 -0.5235 -0.1841 -0.1590
   57SAPC   H7S 4201   3.120   6.207   5.530  0.2499  0.5962 -0.5520
   57SAPC   C28 4202   3.290   6.136   5.409 -0.3352  0.5562  0.2094
   57SAPC   H8R 4203   3.398   6.126   5.422 -0.5156  0.0004  1.4076
   57SAPC   C29 4204   3.241   6.080   5.295  0.1942  0.4162 -0.0860
   57SAPC   H9R 4205   3.310   6.024   5.230 -1.6260 -0.7554 -1.1077
   57SAPC  C210 4206   3.098   6.091   5.246 -0.4468 -0.3697 -0.2042
   57SAPC  H10R 4207   3.032   6.116   5.332 -0.4789  0.4896 -0.4610
   57SAPC  H10S 4208   3.065   5.987   5.228  0.7196 -0.5998 -1.1544
   57SAPC  C211 4209   3.070   6.174   5.127  0.1782 -0.8703 -0.0737
   57SAPC  H11R 4210   3.087   6.283   5.133 -2.3403 -0.4309  0.0935
   57SAPC  C212 4211   3.012   6.126   5.017  0.3803  0.8230 -1.1421
   57SAPC  H12R 4212   2.993   6.189   4.929 -1.9985 -2.3600 -3.1942
   57SAPC  C213 4213   2.978   5.982   4.986  0.2131  0.0717 -0.6106
   57SAPC  H13R 4214   2.922   5.966   4.892  2.6061  1.6099 -2.4122
   57SAPC  H13S 4215   2.924   5.929   5.067 -0.5354  0.9364 -0.5324
   57SAPC  C214 4216   3.107   5.906   4.950 -0.7023  0.1358  0.1506
   57SAPC  H14R 4217   3.119   5.817   5.013 -2.4871 -0.4330 -0.2355
   57SAPC  C215 4218   3.189   5.928   4.843 -0.3816  0.5441 -0.4168
   57SAPC  H15R 4219   3.281   5.870   4.825  0.4356  2.3197 -2.3869
   57SAPC  C216 4220   3.181   6.038   4.745 -0.1911 -0.4812  0.2773
   57SAPC  H16R 4221   3.260   6.115   4.762 -2.5608  2.1053  0.3502
   57SAPC  H16S 4222   3.083   6.089   4.758 -0.2477 -0.0352 -1.6952
   57SAPC  C217 4223   3.183   6.000   4.601  0.9292  0.2864  0.8069
   57SAPC  H17R 4224   3.090   5.942   4.580 -0.0291  1.6023  1.3109
   57SAPC  H17S 4225   3.269   5.941   4.561  0.2183 -0.9521  1.0468
   57SAPC  C218 4226   3.167   6.124   4.509 -0.3441 -0.4856 -0.5535
   57SAPC  H18R 4227   3.261   6.181   4.493 -0.6789 -0.5751 -3.3295
   57SAPC  H18S 4228   3.103   6.200   4.559 -0.5681 -1.2508  0.3593
   57SAPC  C219 4229   3.103   6.090   4.373  0.2307  0.3977 -0.6058
   57SAPC  H19R 4230   2.999   6.053   4.381  0.7331 -1.5506 -2.1546
   57SAPC  H19S 4231   3.164   6.007   4.331  0.2444  0.8951 -1.5756
   57SAPC  C220 4232   3.106   6.200   4.267 -0.4092 -0.9948  0.5533
   57SAPC  H20R 4233   3.056   6.169   4.173 -0.5717 -3.3952  1.3596
   57SAPC  H20S 4234   3.210   6.231   4.242 -0.5725 -0.3868  0.6174
   57SAPC  H20T 4235   3.048   6.282   4.313 -0.0573  0.3118 -1.2341
   57SAPC   C33 4236   2.743   6.184   5.549 -0.6347 -0.3388 -0.1774
   57SAPC   H3X 4237   2.746   6.111   5.465  0.9519 -2.5946  1.6969
   57SAPC   H3Y 4238   2.835   6.163   5.607 -0.9857  1.7287  1.2253
   57SAPC   C34 4239   2.747   6.328   5.499 -0.3223 -0.0037  0.0516
   57SAPC   H4X 4240   2.812   6.388   5.565  0.3208 -1.1979  0.5420
   57SAPC   H4Y 4241   2.646   6.366   5.475  0.3521  0.7828 -1.7754
   57SAPC   C35 4242   2.832   6.333   5.370 -0.3624  0.1754  0.4908
   57SAPC   H5X 4243   2.770   6.279   5.295 -0.5282 -0.3429  0.9966
   57SAPC   H5Y 4244   2.924   6.277   5.394  0.3625  1.9521  2.1314
   57SAPC   C36 4245   2.853   6.476   5.326  0.0695 -0.2298  0.1337
   57SAPC   H6X 4246   2.915   6.528   5.402 -1.5777  2.1216 -0.0305
   57SAPC   H6Y 4247   2.758   6.531   5.310 -0.7365 -0.9029  2.2887
   57SAPC   C37 4248   2.932   6.483   5.196 -0.2819  0.4740  0.4339
   57SAPC   H7X 4249   2.885   6.401   5.139  3.6813 -0.5487 -1.7738
   57SAPC   H7Y 4250   3.035   6.453   5.226  0.0612  0.7432 -0.4421
   57SAPC   C38 4251   2.913   6.610   5.107 -0.2027 -0.6840 -0.2981
   57SAPC   H8X 4252   2.946   6.707   5.152 -1.9316 -0.2600  0.1179
   57SAPC   H8Y 4253   2.804   6.622   5.090 -0.3920  1.2015  1.7650
   57SAPC   C39 4254   2.999   6.606   4.982 -0.1637 -0.1373 -0.3134
   57SAPC   H9X 4255   2.979   6.694   4.917 -3.3792 -0.7854 -0.3901
   57SAPC   H9Y 4256   2.974   6.514   4.926  0.0263 -0.7435  0.5821
   57SAPC  C310 4257   3.151   6.607   5.009  0.4117 -0.0703  0.1545
   57SAPC  H10X 4258   3.182   6.534   5.086  0.2788 -1.7892 -1.3698
   57SAPC  H10Y 4259   3.178   6.712   5.037  0.6624  0.0437 -0.4919
   57SAPC  C311 4260   3.243   6.571   4.883 -0.3475 -0.0700 -0.0242
   57SAPC  H11X 4261   3.348   6.567   4.920 -0.4980 -0.5313  0.3663
   57SAPC  H11Y 4262   3.226   6.642   4.800 -0.1443  0.8729  0.7185
   57SAPC  C312 4263   3.222   6.434   4.812 -0.1360 -0.2173  0.1984
   57SAPC  H12X 4264   3.116   6.417   4.782  0.2758 -1.1864 -0.7698
   57SAPC  H12Y 4265   3.260   6.355   4.880  0.0209 -0.5480 -0.2740
   57SAPC  C313 4266   3.298   6.439   4.675 -0.9370 -0.5280 -0.2736
   57SAPC  H13X 4267   3.334   6.338   4.646 -3.2712 -1.2684 -0.8607
   57SAPC  H13Y 4268   3.394   6.493   4.690 -1.2141 -0.3620  1.0199
   57SAPC  C314 4269   3.226   6.502   4.560  0.9238 -0.7330  1.0895
   57SAPC  H14X 4270   3.174   6.595   4.593  1.4701  0.6562 -1.7047
   57SAPC  H14Y 4271   3.143   6.434   4.529  1.1490 -0.2757 -0.6068
   57SAPC  C315 4272   3.314   6.533   4.439 -0.1597  0.0092  0.0745
   57SAPC  H15X 4273   3.340   6.426   4.423 -0.3334 -0.0654  0.2939
   57SAPC  H15Y 4274   3.406   6.584   4.476 -0.6569 -0.9969  2.9016
   57SAPC  C316 4275   3.261   6.603   4.313  0.6752  0.2621  0.6185
   57SAPC  H16X 4276   3.182   6.537   4.271  1.3714  0.3557 -0.9037
   57SAPC  H16Y 4277   3.339   6.593   4.234  0.0888  0.2544  0.0343
   57SAPC  C317 4278   3.210   6.749   4.325 -0.2770  0.1332  0.2339
   57SAPC  H17X 4279   3.284   6.816   4.375 -0.6375 -0.9083  2.3000
   57SAPC  H17Y 4280   3.128   6.745   4.400  1.1646 -0.8751  1.8149
   57SAPC  C318 4281   3.159   6.807   4.195  0.4184 -0.6196  0.0476
   57SAPC  H18X 4282   3.241   6.839   4.128 -1.2544  1.0182 -1.3451
   57SAPC  H18Y 4283   3.079   6.883   4.211 -1.6795 -2.9817  1.7683
   57SAPC  H18Z 4284   3.113   6.725   4.135  2.9213 -1.0144 -1.4814
   58SAPC     N 4285   6.621   0.327   6.805 -0.3161  0.3219 -0.0779
   58SAPC   C12 4286   6.575   0.463   6.843 -0.5961 -0.1319  0.0003
   58SAPC  H12A 4287   6.534   0.463   6.944 -1.7573  2.2594 -0.3844
   58SAPC  H12B 4288   6.487   0.488   6.785 -0.8691  0.7724  0.7648
   58SAPC   C13 4289   6.513   0.232   6.849  0.7747  1.0530  0.2319
   58SAPC  H13A 4290   6.419   0.251   6.798 -1.3872 -1.4830  2.9011
   58SAPC  H13B 4291   6.547   0.135   6.818 -1.2259  0.3574  0.0820
   58SAPC  H13C 4292   6.496   0.229   6.956  2.1490 -0.1782  0.4388
   58SAPC   C14 4293   6.639   0.323   6.650  0.0046 -0.2547 -0.7052
   58SAPC  H14A 4294   6.677   0.229   6.613 -0.0540 -0.4831 -0.1893
   58SAPC  H14B 4295   6.544   0.349   6.605  0.2630  0.1244 -1.0403
   58SAPC  H14C 4296   6.700   0.404   6.614 -1.1247  0.7175 -0.4775
   58SAPC   C15 4297   6.746   0.293   6.872 -0.5266  0.0297 -0.2544
   58SAPC  H15A 4298   6.825   0.354   6.829 -2.1894  1.1468 -1.8805
   58SAPC  H15B 4299   6.736   0.320   6.976  3.2209  2.5553 -0.3312
   58SAPC  H15C 4300   6.775   0.189   6.876 -1.3230 -0.1667  2.2271
   58SAPC   C11 4301   6.677   0.580   6.836 -0.3144 -0.0428 -0.0763
   58SAPC  H11A 4302   6.759   0.546   6.904 -0.5150 -3.4069 -1.3496
   58SAPC  H11B 4303   6.638   0.671   6.886 -0.9133 -0.0147 -0.5967
   58SAPC     P 4304   6.613   0.697   6.611  0.4974  0.0012  0.1009
   58SAPC   O13 4305   6.473   0.658   6.639  0.2245  0.3938 -0.4325
   58SAPC   O14 4306   6.648   0.838   6.621  0.0544  0.0942  0.0730
   58SAPC   O12 4307   6.716   0.614   6.700 -0.0677  0.2814 -0.3963
   58SAPC   O11 4308   6.644   0.650   6.466 -0.5897  0.3117  0.3999
   58SAPC    C1 4309   6.765   0.703   6.407  0.3877 -0.2116  0.2943
   58SAPC    HA 4310   6.774   0.814   6.416  1.3176 -0.2840  0.3972
   58SAPC    HB 4311   6.855   0.656   6.453  0.7875  1.0447  0.8477
   58SAPC    C2 4312   6.752   0.662   6.254 -0.3972  0.5026 -0.3349
   58SAPC    HS 4313   6.837   0.692   6.189 -1.2054  2.3098 -0.6284
   58SAPC   O21 4314   6.632   0.704   6.189  0.7706  0.4486 -0.1343
   58SAPC   C21 4315   6.612   0.833   6.182  0.0681  0.6700  0.4910
   58SAPC   O22 4316   6.696   0.917   6.213 -0.3232  0.9963  0.6929
   58SAPC   C22 4317   6.474   0.863   6.115  0.4103 -0.5744  0.2561
   58SAPC   H2R 4318   6.444   0.782   6.046 -1.0768  1.0878 -1.1445
   58SAPC   H2S 4319   6.394   0.866   6.192 -2.8510 -1.3491 -2.8868
   58SAPC    C3 4320   6.760   0.513   6.234  0.8465  0.6392 -0.3826
   58SAPC    HX 4321   6.668   0.479   6.286  0.6319  0.7320 -0.6985
   58SAPC    HY 4322   6.851   0.464   6.275  0.7144  0.9966  0.3363
   58SAPC   O31 4323   6.755   0.481   6.095  0.3229 -0.5205 -0.5553
   58SAPC   C31 4324   6.693   0.375   6.050 -0.2665  0.1368 -0.1086
   58SAPC   O32 4325   6.618   0.302   6.114 -0.1864  0.1965  0.3643
   58SAPC   C32 4326   6.741   0.336   5.912  0.1446 -0.2767 -0.1524
   58SAPC   H2X 4327   6.752   0.226   5.922  0.0023 -0.1934  1.0826
   58SAPC   H2Y 4328   6.836   0.392   5.899 -0.0772  0.9064  2.5186
   58SAPC   C23 4329   6.473   0.994   6.035  0.2387  0.1375  0.0706
   58SAPC   H3R 4330   6.557   0.992   5.963 -0.4088 -0.5876 -0.6937
   58SAPC   H3S 4331   6.491   1.081   6.102 -1.5713  0.4383  0.2379
   58SAPC   C24 4332   6.340   1.011   5.960  0.6707  0.5495  0.0103
   58SAPC   H4R 4333   6.256   0.995   6.030 -0.1850  1.6979 -0.7049
   58SAPC   H4S 4334   6.326   0.925   5.891 -1.2001  0.2789  0.6881
   58SAPC   C25 4335   6.321   1.147   5.894 -0.4732  0.1157  0.0217
   58SAPC   H5R 4336   6.317   1.225   5.971  0.8875 -0.6441  0.9111
   58SAPC   C26 4337   6.319   1.176   5.759  0.7053 -0.2656  0.3093
   58SAPC   H6R 4338   6.266   1.269   5.735  2.8971  0.6139 -1.4195
   58SAPC   C27 4339   6.347   1.086   5.639 -0.5332  0.3524  0.1879
   58SAPC   H7R 4340   6.268   1.012   5.615 -2.2220  2.2165 -0.2542
   58SAPC   H7S 4341   6.435   1.022   5.660 -2.0294 -2.3238 -1.1829
   58SAPC   C28 4342   6.372   1.167   5.519  0.8089 -0.0591 -0.1317
   58SAPC   H8R 4343   6.459   1.230   5.542  0.9646 -0.1693 -0.4040
   58SAPC   C29 4344   6.310   1.158   5.399 -0.4519  0.3034  1.3057
   58SAPC   H9R 4345   6.345   1.227   5.321  1.7417  0.6664  2.5406
   58SAPC  C210 4346   6.197   1.067   5.367  0.2432  0.8085  0.1548
   58SAPC  H10R 4347   6.139   1.106   5.280  0.1092 -0.7426 -0.4813
   58SAPC  H10S 4348   6.116   1.066   5.444 -0.5086 -0.3572 -0.6185
   58SAPC  C211 4349   6.234   0.919   5.335  0.1612  0.4570  0.5075
   58SAPC  H11R 4350   6.227   0.855   5.425 -0.1250  1.3482  1.1292
   58SAPC  C212 4351   6.296   0.863   5.226  0.0468 -0.3983 -0.2508
   58SAPC  H12R 4352   6.325   0.757   5.226 -3.2610 -1.4032 -0.8082
   58SAPC  C213 4353   6.317   0.929   5.094  0.0703 -0.3322  0.6289
   58SAPC  H13R 4354   6.394   0.887   5.026 -0.1181  2.4110 -1.4875
   58SAPC  H13S 4355   6.341   1.037   5.098  2.7531 -0.7830 -1.0641
   58SAPC  C214 4356   6.188   0.911   5.020  0.8016 -0.5217  0.1408
   58SAPC  H14R 4357   6.124   0.827   5.051 -1.3263  0.1779 -2.0845
   58SAPC  C215 4358   6.161   0.959   4.897 -0.6143 -0.4182 -0.3924
   58SAPC  H15R 4359   6.063   0.941   4.850 -0.4978 -1.3468 -0.2875
   58SAPC  C216 4360   6.245   1.060   4.823  0.7236 -0.2671  0.2460
   58SAPC  H16R 4361   6.339   1.073   4.881  0.0540  0.3970  1.2066
   58SAPC  H16S 4362   6.201   1.162   4.818  0.0990 -0.5800 -1.8234
   58SAPC  C217 4363   6.289   1.012   4.683 -0.4355  0.3762  0.3851
   58SAPC  H17R 4364   6.199   0.983   4.625  0.6446 -2.3390 -0.0727
   58SAPC  H17S 4365   6.347   0.917   4.683  0.6024  0.9968  0.5165
   58SAPC  C218 4366   6.366   1.113   4.604  0.5551 -0.1396  0.2441
   58SAPC  H18R 4367   6.450   1.153   4.665  1.8715 -2.1867 -0.1058
   58SAPC  H18S 4368   6.291   1.192   4.587  1.2205  0.8279  1.6170
   58SAPC  C219 4369   6.405   1.064   4.462  0.4088  0.3080 -0.3413
   58SAPC  H19R 4370   6.313   1.056   4.400  1.8028  0.1201 -2.4709
   58SAPC  H19S 4371   6.451   0.964   4.456  0.5338  0.2971  0.6519
   58SAPC  C220 4372   6.503   1.172   4.394  0.3798  0.0997  0.0682
   58SAPC  H20R 4373   6.543   1.127   4.301 -1.9440 -0.2351 -0.8289
   58SAPC  H20S 4374   6.579   1.204   4.468  0.6763 -1.3818  0.4301
   58SAPC  H20T 4375   6.447   1.263   4.363  1.3159  0.5120 -0.4581
   58SAPC   C33 4376   6.651   0.379   5.792 -0.0814  0.5429  0.5904
   58SAPC   H3X 4377   6.639   0.490   5.792  1.5160  0.7495 -0.1256
   58SAPC   H3Y 4378   6.549   0.339   5.810 -0.4670  0.7725 -1.0006
   58SAPC   C34 4379   6.702   0.348   5.647  0.3178  0.7897 -0.3359
   58SAPC   H4X 4380   6.732   0.241   5.643 -1.0023  0.4159 -1.6221
   58SAPC   H4Y 4381   6.793   0.405   5.619 -1.2958  4.6896  1.7273
   58SAPC   C35 4382   6.597   0.368   5.535  0.4686 -0.1393  0.2332
   58SAPC   H5X 4383   6.563   0.474   5.544  0.0083  0.0037 -2.4003
   58SAPC   H5Y 4384   6.499   0.317   5.550 -1.0359  2.1309 -1.2005
   58SAPC   C36 4385   6.653   0.341   5.395 -0.0129 -0.0470  0.2366
   58SAPC   H6X 4386   6.738   0.409   5.371  0.4941 -0.0528  1.8928
   58SAPC   H6Y 4387   6.567   0.363   5.329  0.5953  2.0013  0.0561
   58SAPC   C37 4388   6.706   0.200   5.376 -0.1006 -0.4879  0.5853
   58SAPC   H7X 4389   6.639   0.134   5.433  1.1937 -0.2700  2.4391
   58SAPC   H7Y 4390   6.810   0.189   5.415  0.5307 -0.3648 -0.9692
   58SAPC   C38 4391   6.721   0.154   5.225 -0.5050 -0.1099 -0.7562
   58SAPC   H8X 4392   6.638   0.186   5.159 -0.5025  0.1625 -0.6314
   58SAPC   H8Y 4393   6.736   0.044   5.229 -0.5992 -0.1264 -0.8636
   58SAPC   C39 4394   6.860   0.199   5.171  0.0281 -0.4751 -0.1413
   58SAPC   H9X 4395   6.937   0.152   5.237 -1.0913 -1.7302  0.3278
   58SAPC   H9Y 4396   6.867   0.309   5.182 -0.0884 -0.5148  0.3909
   58SAPC  C310 4397   6.891   0.174   5.031  0.0994 -0.7938  0.1839
   58SAPC  H10X 4398   6.931   0.264   4.980 -2.6133 -0.8173 -2.2218
   58SAPC  H10Y 4399   6.796   0.153   4.978  0.4085 -1.1866 -0.2241
   58SAPC  C311 4400   6.988   0.059   5.013  0.2444  0.7779  0.0752
   58SAPC  H11X 4401   6.958  -0.028   5.076  2.0307  0.6333  0.7861
   58SAPC  H11Y 4402   7.088   0.085   5.053 -0.1705 -1.0461  2.5164
   58SAPC  C312 4403   7.005   0.012   4.867 -0.0651  0.0339 -0.5385
   58SAPC  H12X 4404   6.912  -0.031   4.825 -0.5136 -1.2097  1.5515
   58SAPC  H12Y 4405   7.090  -0.058   4.853  0.0249  0.1552 -0.6008
   58SAPC  C313 4406   7.039   0.137   4.779  0.5860  0.0314 -0.2743
   58SAPC  H13X 4407   7.133   0.174   4.823 -0.7344  2.0134  1.0510
   58SAPC  H13Y 4408   6.955   0.210   4.787  1.4140  0.8725  0.9979
   58SAPC  C314 4409   7.078   0.104   4.627 -0.0440  0.0627 -0.6688
   58SAPC  H14X 4410   7.092   0.202   4.577 -1.8291  0.1358 -1.0846
   58SAPC  H14Y 4411   6.985   0.052   4.596 -1.4732  1.7402  0.5895
   58SAPC  C315 4412   7.201   0.020   4.600  0.0735  0.3264 -0.3193
   58SAPC  H15X 4413   7.211  -0.068   4.666  3.2197  0.8822  0.1156
   58SAPC  H15Y 4414   7.294   0.075   4.626  0.4746 -0.2367 -0.5606
   58SAPC  C316 4415   7.212  -0.037   4.456 -0.4922 -0.0506 -0.0913
   58SAPC  H16X 4416   7.124  -0.101   4.434 -1.6305  0.9609  1.2766
   58SAPC  H16Y 4417   7.309  -0.087   4.436 -0.7118  0.2074 -1.9506
   58SAPC  C317 4418   7.221   0.073   4.349 -0.0412 -0.2129  0.4793
   58SAPC  H17X 4419   7.312   0.136   4.363  0.3987 -0.7287 -0.0302
   58SAPC  H17Y 4420   7.136   0.141   4.369 -0.0690 -0.6360  1.9494
   58SAPC  C318 4421   7.202  -0.000   4.212 -0.1596 -0.0047  0.4881
   58SAPC  H18X 4422   7.282  -0.073   4.185 -0.7269  0.1290 -1.7353
   58SAPC  H18Y 4423   7.203   0.085   4.140  3.3737 -0.9021 -0.7293
   58SAPC  H18Z 4424   7.104  -0.050   4.199 -1.0071  1.7704 -0.2375
   59SAPC     N 4425   5.563   2.145   6.869  0.5533 -0.8249 -0.4022
   59SAPC   C12 4426   5.656   2.176   6.752  0.3694  0.4990 -0.0282
   59SAPC  H12A 4427   5.628   2.114   6.668  0.3729  2.1554 -1.2916
   59SAPC  H12B 4428   5.755   2.135   6.768  0.0688 -1.0460 -1.7683
   59SAPC   C13 4429   5.430   2.195   6.835  0.4386 -0.1454  0.6781
   59SAPC  H13A 4430   5.366   2.211   6.921 -0.5745  3.9179 -0.5678
   59SAPC  H13B 4431   5.438   2.292   6.788  4.2465 -0.3660  0.6025
   59SAPC  H13C 4432   5.385   2.128   6.763 -0.4539  0.2451  0.8556
   59SAPC   C14 4433   5.555   1.993   6.877  0.4824 -0.1488 -0.5082
   59SAPC  H14A 4434   5.533   1.950   6.780 -0.0729  0.4791 -0.6684
   59SAPC  H14B 4435   5.633   1.952   6.939  0.4280 -1.1693 -1.1006
   59SAPC  H14C 4436   5.474   1.972   6.946 -0.4371  1.4629 -1.0398
   59SAPC   C15 4437   5.619   2.202   7.000  0.3187 -0.4088  0.3208
   59SAPC  H15A 4438   5.648   2.303   6.976 -0.6898 -0.5851 -1.9567
   59SAPC  H15B 4439   5.536   2.200   7.069 -0.1668 -3.8861 -0.1782
   59SAPC  H15C 4440   5.700   2.144   7.042  1.2455  2.2489  2.5452
   59SAPC   C11 4441   5.677   2.317   6.698 -0.0259 -0.2834  0.3584
   59SAPC  H11A 4442   5.583   2.352   6.650 -1.1368 -0.2954  2.4132
   59SAPC  H11B 4443   5.742   2.310   6.608 -1.6080  1.8628 -1.0511
   59SAPC     P 4444   5.881   2.446   6.812 -0.2001  0.2159  0.1840
   59SAPC   O13 4445   5.894   2.545   6.918 -0.0174 -0.1721 -0.0038
   59SAPC   O14 4446   5.950   2.316   6.835 -0.4891 -0.0370  0.0272
   59SAPC   O12 4447   5.726   2.407   6.802 -0.2263 -0.1728  0.0811
   59SAPC   O11 4448   5.909   2.510   6.670 -0.3799 -0.5808 -0.6875
   59SAPC    C1 4449   5.810   2.611   6.633  0.1821  0.4017  0.2284
   59SAPC    HA 4450   5.724   2.623   6.703 -0.2396 -0.5316 -0.1233
   59SAPC    HB 4451   5.867   2.706   6.623 -0.5777  1.0416  1.6672
   59SAPC    C2 4452   5.752   2.594   6.493  0.2573  0.8368 -0.2267
   59SAPC    HS 4453   5.699   2.497   6.495  3.1943 -0.9365 -1.5278
   59SAPC   O21 4454   5.859   2.586   6.392 -0.3760 -0.3453  0.8877
   59SAPC   C21 4455   5.823   2.538   6.276  0.6112 -0.0352  0.2228
   59SAPC   O22 4456   5.723   2.472   6.262 -0.4126  0.2661  0.0715
   59SAPC   C22 4457   5.918   2.586   6.156 -0.5824  0.4646 -0.7584
   59SAPC   H2R 4458   5.949   2.684   6.198  0.3991 -1.4342  3.4775
   59SAPC   H2S 4459   5.998   2.509   6.154  0.7014  1.7738 -1.6165
   59SAPC    C3 4460   5.642   2.708   6.470 -0.1252  0.0485 -0.1634
   59SAPC    HX 4461   5.700   2.802   6.466  0.7343 -0.1814  3.5936
   59SAPC    HY 4462   5.566   2.713   6.551  1.0191  1.4215  0.8652
   59SAPC   O31 4463   5.577   2.690   6.342  0.7044 -0.4117  0.1035
   59SAPC   C31 4464   5.477   2.598   6.352 -0.2610  0.2839 -0.1642
   59SAPC   O32 4465   5.456   2.523   6.444  0.3744  0.4700  0.0379
   59SAPC   C32 4466   5.416   2.582   6.208  0.2879 -0.1611 -0.3329
   59SAPC   H2X 4467   5.489   2.527   6.146 -0.7091  0.3013 -1.9833
   59SAPC   H2Y 4468   5.389   2.681   6.166  1.6848 -0.7109 -2.6696
   59SAPC   C23 4469   5.847   2.607   6.026 -0.0621 -0.1993 -0.1670
   59SAPC   H3R 4470   5.910   2.685   5.977 -0.1190  0.0637  0.1791
   59SAPC   H3S 4471   5.742   2.636   6.047 -0.0971 -2.1303  3.0346
   59SAPC   C24 4472   5.844   2.480   5.946 -0.1537  0.2579 -0.7765
   59SAPC   H4R 4473   5.777   2.487   5.858  0.0192 -1.2742 -1.0491
   59SAPC   H4S 4474   5.794   2.402   6.007  1.3015 -1.1398 -1.3128
   59SAPC   C25 4475   5.979   2.438   5.897 -0.3817 -0.0398  0.5279
   59SAPC   H5R 4476   6.064   2.435   5.967  0.1668 -1.6617 -0.1447
   59SAPC   C26 4477   6.002   2.424   5.757 -0.2813 -0.0151  0.1597
   59SAPC   H6R 4478   6.103   2.402   5.719  0.6522  2.4017  1.0290
   59SAPC   C27 4479   5.906   2.422   5.639 -0.1252  0.1658  0.6947
   59SAPC   H7R 4480   5.820   2.489   5.663 -0.5511  0.3292 -1.1050
   59SAPC   H7S 4481   5.881   2.315   5.622 -1.7178  0.4964  0.7728
   59SAPC   C28 4482   5.976   2.465   5.513 -0.8091 -0.6064  0.1599
   59SAPC   H8R 4483   6.054   2.542   5.526 -0.6246  0.0390 -3.7510
   59SAPC   C29 4484   5.956   2.424   5.385  0.3499 -0.5687 -0.2732
   59SAPC   H9R 4485   6.022   2.461   5.305 -0.1865  1.8402  0.2943
   59SAPC  C210 4486   5.856   2.319   5.339  0.0553 -0.4836  0.2135
   59SAPC  H10R 4487   5.783   2.278   5.412 -2.2756 -0.4288 -1.9326
   59SAPC  H10S 4488   5.908   2.226   5.306  0.6332  0.0738 -0.5025
   59SAPC  C211 4489   5.767   2.383   5.232  0.0789  0.7458 -0.4324
   59SAPC  H11R 4490   5.707   2.465   5.273  0.6470  1.1726 -0.4515
   59SAPC  C212 4491   5.787   2.366   5.103 -0.0713  0.2404 -0.1785
   59SAPC  H12R 4492   5.735   2.429   5.030 -1.4180 -0.5642  0.0594
   59SAPC  C213 4493   5.883   2.265   5.033  0.3485 -0.4339  0.3723
   59SAPC  H13R 4494   5.941   2.204   5.105  0.4684 -1.1916 -0.3568
   59SAPC  H13S 4495   5.962   2.330   4.990  0.9406 -2.2382 -1.3714
   59SAPC  C214 4496   5.826   2.163   4.937  0.5111  0.6139 -0.6285
   59SAPC  H14R 4497   5.763   2.087   4.986  1.0970  1.5250  1.6601
   59SAPC  C215 4498   5.861   2.137   4.810  0.2075 -0.2591  0.9754
   59SAPC  H15R 4499   5.813   2.059   4.748  1.5039  1.0960 -1.9351
   59SAPC  C216 4500   5.953   2.223   4.731  0.0350  0.1878 -0.2609
   59SAPC  H16R 4501   5.947   2.328   4.767  1.0622  0.1055  0.1944
   59SAPC  H16S 4502   5.908   2.219   4.630 -2.0657  2.8718  0.4445
   59SAPC  C217 4503   6.099   2.174   4.731 -0.6047 -0.0134 -1.0543
   59SAPC  H17R 4504   6.124   2.144   4.835 -1.1138 -1.4218 -1.3133
   59SAPC  H17S 4505   6.167   2.254   4.694  1.1110 -1.2441 -0.6555
   59SAPC  C218 4506   6.121   2.043   4.657 -0.1873 -0.4752  0.2567
   59SAPC  H18R 4507   6.136   2.072   4.551  0.4007  0.9672  0.7078
   59SAPC  H18S 4508   6.038   1.969   4.658 -0.7391  0.1299 -0.2005
   59SAPC  C219 4509   6.252   1.977   4.713 -0.2547  0.6519  0.6320
   59SAPC  H19R 4510   6.249   1.960   4.823  1.5428 -1.7132  0.4189
   59SAPC  H19S 4511   6.338   2.044   4.690  0.3234 -0.6758 -1.3740
   59SAPC  C220 4512   6.300   1.844   4.652  0.1664  0.9411  0.2161
   59SAPC  H20R 4513   6.385   1.796   4.706 -0.5878  1.5167  1.9715
   59SAPC  H20S 4514   6.335   1.845   4.546  2.1803  0.3665  0.8313
   59SAPC  H20T 4515   6.217   1.771   4.656  0.1628  0.9766  0.9012
   59SAPC   C33 4516   5.280   2.495   6.209 -0.5974 -0.9082 -0.8493
   59SAPC   H3X 4517   5.201   2.559   6.254 -1.3240 -0.8175 -2.1913
   59SAPC   H3Y 4518   5.287   2.405   6.274 -0.2696 -0.7366 -0.6480
   59SAPC   C34 4519   5.235   2.462   6.075  0.0925  0.6838 -0.5639
   59SAPC   H4X 4520   5.307   2.390   6.030 -0.6794 -0.8825  0.6179
   59SAPC   H4Y 4521   5.234   2.549   6.005 -0.6165  0.2247 -1.1446
   59SAPC   C35 4522   5.099   2.398   6.065 -0.7678  0.2041  0.1932
   59SAPC   H5X 4523   5.029   2.469   6.113 -0.7147  0.3379  0.0711
   59SAPC   H5Y 4524   5.086   2.301   6.118  0.6278  0.4846  1.1084
   59SAPC   C36 4525   5.062   2.383   5.919 -0.2756  0.5994 -0.3672
   59SAPC   H6X 4526   5.135   2.314   5.871 -1.3401 -0.7651 -0.1145
   59SAPC   H6Y 4527   5.073   2.472   5.854 -0.0504 -0.0381 -1.2239
   59SAPC   C37 4528   4.916   2.338   5.901  0.6513  0.3850  0.2986
   59SAPC   H7X 4529   4.848   2.423   5.922  0.4509  0.4783 -0.7090
   59SAPC   H7Y 4530   4.892   2.261   5.978  0.7779 -2.4340 -2.3199
   59SAPC   C38 4531   4.877   2.285   5.761  0.2545  0.4377  0.2450
   59SAPC   H8X 4532   4.769   2.260   5.770  0.3797  0.6166  2.9542
   59SAPC   H8Y 4533   4.943   2.202   5.726 -1.1182 -0.3762 -0.5162
   59SAPC   C39 4534   4.894   2.391   5.655  0.0248 -0.4048  0.3568
   59SAPC   H9X 4535   4.998   2.432   5.657 -0.5128  1.0567  2.7537
   59SAPC   H9Y 4536   4.834   2.480   5.681  0.0435  0.6583 -2.8097
   59SAPC  C310 4537   4.860   2.359   5.507 -0.8874 -0.0777  0.2271
   59SAPC  H10X 4538   4.900   2.447   5.454  0.0959  0.5765  1.9504
   59SAPC  H10Y 4539   4.749   2.356   5.502 -0.9896 -2.5803  1.8354
   59SAPC  C311 4540   4.909   2.229   5.443  0.1553  0.7889 -0.5602
   59SAPC  H11X 4541   4.888   2.154   5.522  2.6247 -0.5391 -1.0723
   59SAPC  H11Y 4542   5.018   2.223   5.424  0.2182  2.1171 -0.7090
   59SAPC  C312 4543   4.851   2.209   5.303 -0.2756 -1.1805 -0.5046
   59SAPC  H12X 4544   4.883   2.292   5.237 -3.8053  1.3323  0.6117
   59SAPC  H12Y 4545   4.741   2.220   5.321 -0.0162 -1.9065  1.7877
   59SAPC  C313 4546   4.891   2.077   5.237  0.0544  1.0472  0.2188
   59SAPC  H13X 4547   4.849   2.002   5.307 -0.1574  0.8787 -0.0888
   59SAPC  H13Y 4548   5.002   2.078   5.222 -0.0978  2.0585 -1.0414
   59SAPC  C314 4549   4.823   2.058   5.097 -0.4644  0.5169 -0.8457
   59SAPC  H14X 4550   4.853   2.137   5.024 -0.7461  2.8871  1.4265
   59SAPC  H14Y 4551   4.713   2.062   5.112 -0.2837  0.8382  0.5142
   59SAPC  C315 4552   4.850   1.920   5.036  0.3081 -0.4826  0.6562
   59SAPC  H15X 4553   4.812   1.842   5.106 -3.5552  3.0145  2.9271
   59SAPC  H15Y 4554   4.954   1.891   5.012  0.6717 -0.2368  1.8463
   59SAPC  C316 4555   4.766   1.897   4.905  0.4026  0.2808 -0.2441
   59SAPC  H16X 4556   4.658   1.915   4.924 -0.0452 -2.3133  0.0342
   59SAPC  H16Y 4557   4.786   1.791   4.877  1.9408 -0.0621  1.9583
   59SAPC  C317 4558   4.809   1.984   4.783 -0.2747  0.2675 -0.3896
   59SAPC  H17X 4559   4.919   1.977   4.800 -0.3896 -0.8370  0.0085
   59SAPC  H17Y 4560   4.796   2.092   4.804  1.6551  0.5468 -0.4612
   59SAPC  C318 4561   4.760   1.941   4.645 -0.0696 -0.2573  0.0242
   59SAPC  H18X 4562   4.799   1.838   4.631 -0.8532 -0.9364  2.4478
   59SAPC  H18Y 4563   4.790   2.015   4.567  0.9994 -0.2825  0.3992
   59SAPC  H18Z 4564   4.650   1.936   4.633 -0.3420  0.4350  1.9087
   60SAPC     N 4565   5.397   3.730   7.167  0.8613  0.1056 -1.0201
   60SAPC   C12 4566   5.323   3.605   7.130  0.1935  0.3525 -0.1366
   60SAPC  H12A 4567   5.218   3.619   7.154  0.8270  0.9005  2.6983
   60SAPC  H12B 4568   5.358   3.532   7.202 -1.2063  0.1233  0.3434
   60SAPC   C13 4569   5.361   3.771   7.310  1.0953 -0.1875 -0.3859
   60SAPC  H13A 4570   5.381   3.693   7.381 -0.2095  1.1687  1.5812
   60SAPC  H13B 4571   5.421   3.854   7.344 -0.1687  0.4110  0.4537
   60SAPC  H13C 4572   5.256   3.796   7.323  1.1348  0.1893 -0.7234
   60SAPC   C14 4573   5.539   3.694   7.176 -0.3020  0.3567  0.1384
   60SAPC  H14A 4574   5.578   3.647   7.087  0.7047  0.0952  0.6989
   60SAPC  H14B 4575   5.610   3.773   7.194  0.0809 -0.0998  0.6671
   60SAPC  H14C 4576   5.559   3.617   7.250 -0.0722  0.4018  0.1254
   60SAPC   C15 4577   5.371   3.846   7.072 -0.4020 -0.2695 -0.3816
   60SAPC  H15A 4578   5.339   3.928   7.134  1.2335  0.3115 -0.2405
   60SAPC  H15B 4579   5.463   3.878   7.025  0.3143  0.4768  1.4165
   60SAPC  H15C 4580   5.295   3.820   7.000 -1.6241  1.7340  0.1063
   60SAPC   C11 4581   5.331   3.556   6.984 -0.1028  0.3374  0.2513
   60SAPC  H11A 4582   5.282   3.457   6.985  0.4041  0.0478 -0.9267
   60SAPC  H11B 4583   5.438   3.538   6.957  0.5055  1.7996  1.5110
   60SAPC     P 4584   5.106   3.659   6.908  0.0391 -0.3459  0.2235
   60SAPC   O13 4585   5.057   3.584   7.025 -0.0524 -0.1890 -0.2501
   60SAPC   O14 4586   5.086   3.805   6.915 -0.1207  0.6597  0.7385
   60SAPC   O12 4587   5.262   3.644   6.891 -0.7345 -0.1308 -0.2365
   60SAPC   O11 4588   5.046   3.597   6.787 -0.2291 -0.1083  0.4906
   60SAPC    C1 4589   5.026   3.662   6.665  0.1721 -0.0445  0.4568
   60SAPC    HA 4590   4.938   3.729   6.664  0.0479 -0.2125 -0.2908
   60SAPC    HB 4591   5.118   3.722   6.647  0.9703 -1.7283 -1.5059
   60SAPC    C2 4592   5.002   3.569   6.550  0.5636  0.1398  0.7378
   60SAPC    HS 4593   5.081   3.493   6.565  0.5023  0.0420  0.5603
   60SAPC   O21 4594   5.008   3.637   6.419  0.3899 -0.3872 -0.3003
   60SAPC   C21 4595   5.106   3.705   6.385 -0.4973  0.0781 -0.0804
   60SAPC   O22 4596   5.219   3.700   6.433  0.3621 -0.1345  0.2440
   60SAPC   C22 4597   5.066   3.786   6.269 -0.6325  0.0491  0.2854
   60SAPC   H2R 4598   5.036   3.709   6.195  0.1611 -2.1992  2.1847
   60SAPC   H2S 4599   4.980   3.850   6.298 -1.1207 -0.1190 -0.7337
   60SAPC    C3 4600   4.875   3.486   6.552 -0.0379 -0.0450  0.2622
   60SAPC    HX 4601   4.787   3.553   6.549 -0.1344 -0.1949 -1.7878
   60SAPC    HY 4602   4.868   3.433   6.649  0.3561 -0.2636  0.1775
   60SAPC   O31 4603   4.887   3.376   6.452  0.3946 -0.0763  0.4871
   60SAPC   C31 4604   4.791   3.363   6.368 -0.0189 -0.1715 -0.0210
   60SAPC   O32 4605   4.686   3.426   6.362  0.1565 -0.1488  0.9367
   60SAPC   C32 4606   4.811   3.239   6.279 -0.8915  0.1877  0.2930
   60SAPC   H2X 4607   4.766   3.152   6.332  1.3449 -0.3981  1.3540
   60SAPC   H2Y 4608   4.919   3.215   6.270 -1.1888 -1.1577 -0.0252
   60SAPC   C23 4609   5.180   3.871   6.207 -0.3718 -0.0315  0.4459
   60SAPC   H3R 4610   5.261   3.798   6.190 -2.7944 -2.9815  0.6345
   60SAPC   H3S 4611   5.199   3.958   6.274 -2.2471  0.1875  0.7540
   60SAPC   C24 4612   5.146   3.934   6.068 -0.0366 -0.5058  0.6384
   60SAPC   H4R 4613   5.054   3.993   6.092  1.2749  1.7864  0.3512
   60SAPC   H4S 4614   5.115   3.848   6.004 -0.5300 -1.2684  1.8812
   60SAPC   C25 4615   5.254   4.011   5.995 -0.5697 -0.0468  0.2991
   60SAPC   H5R 4616   5.282   4.114   6.019 -1.0422  0.5406 -1.5086
   60SAPC   C26 4617   5.327   3.970   5.885  0.1136  0.5981 -0.7613
   60SAPC   H6R 4618   5.406   4.035   5.844  1.1001  0.2382  0.5061
   60SAPC   C27 4619   5.317   3.827   5.837 -0.3792  0.1358 -0.4230
   60SAPC   H7R 4620   5.288   3.755   5.917  2.1054 -1.4214 -0.8030
   60SAPC   H7S 4621   5.415   3.798   5.794 -0.3721  0.3624 -0.5626
   60SAPC   C28 4622   5.224   3.821   5.716  0.0331  0.3411  0.3870
   60SAPC   H8R 4623   5.118   3.826   5.745 -0.6545 -0.4006 -1.7638
   60SAPC   C29 4624   5.268   3.835   5.592 -0.5760  0.3929 -0.2924
   60SAPC   H9R 4625   5.201   3.828   5.504 -0.1692 -0.1051 -0.5639
   60SAPC  C210 4626   5.410   3.838   5.547  0.1872 -0.0677 -0.4084
   60SAPC  H10R 4627   5.457   3.748   5.593 -0.2927  0.1616  0.5553
   60SAPC  H10S 4628   5.460   3.917   5.607  0.7973  0.1202 -1.1429
   60SAPC  C211 4629   5.432   3.843   5.396  0.0889  0.5143  0.2975
   60SAPC  H11R 4630   5.366   3.773   5.342 -0.3571  1.6811 -0.7130
   60SAPC  C212 4631   5.497   3.929   5.314  0.5565  0.1985  1.0812
   60SAPC  H12R 4632   5.507   3.900   5.208  0.6551  0.1687  1.0990
   60SAPC  C213 4633   5.584   4.040   5.355 -0.7928 -0.0970 -0.4327
   60SAPC  H13R 4634   5.623   4.041   5.459 -0.3617  0.8413 -0.5938
   60SAPC  H13S 4635   5.519   4.130   5.360 -1.2233 -0.4296  0.0020
   60SAPC  C214 4636   5.697   4.050   5.257 -0.2609 -0.2407 -0.1708
   60SAPC  H14R 4637   5.791   4.020   5.306 -0.1863  1.9442  1.1903
   60SAPC  C215 4638   5.693   4.083   5.125  0.1470 -0.7563  0.0233
   60SAPC  H15R 4639   5.789   4.076   5.072  0.5942 -4.2783  1.0300
   60SAPC  C216 4640   5.573   4.130   5.044 -0.2311 -0.0963 -0.0030
   60SAPC  H16R 4641   5.542   4.233   5.072  0.4644  0.7394 -2.0873
   60SAPC  H16S 4642   5.485   4.070   5.073  0.8272 -0.7272  2.1466
   60SAPC  C217 4643   5.581   4.139   4.890 -0.1876  0.1203 -0.3649
   60SAPC  H17R 4644   5.627   4.045   4.853 -1.4683 -0.0711 -1.5691
   60SAPC  H17S 4645   5.656   4.216   4.861  3.2918 -3.4838 -1.7787
   60SAPC  C218 4646   5.447   4.162   4.821 -0.5451 -0.6525 -0.4322
   60SAPC  H18R 4647   5.396   4.254   4.857 -0.3173 -0.5961 -0.2541
   60SAPC  H18S 4648   5.383   4.074   4.841 -0.7526 -0.5909 -0.8097
   60SAPC  C219 4649   5.468   4.173   4.663  0.1314 -0.3061 -0.4245
   60SAPC  H19R 4650   5.367   4.191   4.622  0.3069  0.0197 -0.7208
   60SAPC  H19S 4651   5.517   4.080   4.627  0.5371  0.2209 -1.2685
   60SAPC  C220 4652   5.557   4.297   4.625  0.3994 -0.1512 -0.4026
   60SAPC  H20R 4653   5.653   4.275   4.676  0.0855 -1.0089 -0.1629
   60SAPC  H20S 4654   5.522   4.396   4.659  2.7290 -0.3300  2.9791
   60SAPC  H20T 4655   5.579   4.298   4.516  1.1926  0.1936 -0.2388
   60SAPC   C33 4656   4.756   3.255   6.138  0.6478  0.0123  0.4788
   60SAPC   H3X 4657   4.798   3.173   6.076 -1.3243 -2.1737  1.8993
   60SAPC   H3Y 4658   4.794   3.348   6.089  0.6816  1.0623  2.3791
   60SAPC   C34 4659   4.604   3.236   6.128 -0.9946  0.3800  0.4076
   60SAPC   H4X 4660   4.560   3.313   6.196  0.0371  1.8503 -0.5347
   60SAPC   H4Y 4661   4.588   3.133   6.166  1.1181  1.2020  4.0546
   60SAPC   C35 4662   4.534   3.236   5.989 -0.5742  0.2573 -0.0126
   60SAPC   H5X 4663   4.549   3.335   5.941 -0.6302  0.2310 -0.0851
   60SAPC   H5Y 4664   4.424   3.234   6.008 -0.2790  1.2527  2.0815
   60SAPC   C36 4665   4.577   3.129   5.891  0.0419  0.1086  0.7825
   60SAPC   H6X 4666   4.544   3.030   5.928  1.3651 -0.4178  0.6012
   60SAPC   H6Y 4667   4.688   3.127   5.900  0.0794 -0.9936  0.2152
   60SAPC   C37 4668   4.531   3.133   5.743  0.4638 -0.4060 -0.3561
   60SAPC   H7X 4669   4.426   3.167   5.727 -0.2969 -1.9966  0.8745
   60SAPC   H7Y 4670   4.539   3.027   5.710  2.0734 -0.6073  0.5597
   60SAPC   C38 4671   4.626   3.206   5.641  0.4437 -0.3689  0.3150
   60SAPC   H8X 4672   4.729   3.170   5.662  0.0725 -1.4640  0.2916
   60SAPC   H8Y 4673   4.619   3.314   5.666  0.8159 -0.8096  2.5297
   60SAPC   C39 4674   4.586   3.187   5.496  0.9302  0.0207 -0.7565
   60SAPC   H9X 4675   4.481   3.224   5.489 -0.9403 -4.7089 -1.4790
   60SAPC   H9Y 4676   4.588   3.079   5.469  1.7155 -0.3886  0.8024
   60SAPC  C310 4677   4.679   3.266   5.401 -0.3921 -0.6007  0.1360
   60SAPC  H10X 4678   4.786   3.239   5.421  0.2282  1.3984 -0.3164
   60SAPC  H10Y 4679   4.671   3.371   5.434 -0.8907 -0.2975 -0.9168
   60SAPC  C311 4680   4.648   3.254   5.250  0.2491 -0.5513 -0.1072
   60SAPC  H11X 4681   4.682   3.350   5.206 -1.5274 -0.2075 -0.8413
   60SAPC  H11Y 4682   4.537   3.255   5.254  0.2516  1.5768  0.4665
   60SAPC  C312 4683   4.707   3.145   5.172 -0.1911  0.0166  0.4345
   60SAPC  H12X 4684   4.676   3.044   5.206  0.8263  0.2839  2.3036
   60SAPC  H12Y 4685   4.813   3.143   5.203 -0.5224 -0.8987  1.5771
   60SAPC  C313 4686   4.705   3.159   5.021  0.0884  0.0941 -0.0812
   60SAPC  H13X 4687   4.726   3.264   4.993  2.3083 -0.0705  0.7301
   60SAPC  H13Y 4688   4.606   3.125   4.984  0.5146  0.0294 -1.2107
   60SAPC  C314 4689   4.803   3.068   4.946  0.3054  0.4402  0.5817
   60SAPC  H14X 4690   4.771   3.082   4.841 -1.6134  2.1261  1.3305
   60SAPC  H14Y 4691   4.786   2.959   4.958 -0.5173  0.4877 -0.0717
   60SAPC  C315 4692   4.945   3.104   4.972  0.1110 -0.3727 -0.2839
   60SAPC  H15X 4693   5.012   3.020   4.949  1.6671  0.9431 -0.7430
   60SAPC  H15Y 4694   4.960   3.134   5.078  0.3045  0.4995 -0.5451
   60SAPC  C316 4695   4.988   3.228   4.881 -0.1350 -0.5829  0.3876
   60SAPC  H16X 4696   4.930   3.321   4.897  0.0534 -0.0760 -1.5868
   60SAPC  H16Y 4697   4.977   3.189   4.777  2.5843 -0.2316 -0.1126
   60SAPC  C317 4698   5.138   3.275   4.881 -0.2995 -0.2078  0.0103
   60SAPC  H17X 4699   5.185   3.174   4.879  1.2540  0.5061 -1.2080
   60SAPC  H17Y 4700   5.169   3.324   4.975 -2.4326  1.8097 -0.2403
   60SAPC  C318 4701   5.184   3.356   4.755 -0.2142  0.2019  0.4095
   60SAPC  H18X 4702   5.179   3.294   4.663 -0.9036 -1.0786  1.2848
   60SAPC  H18Y 4703   5.286   3.388   4.786  0.4785 -1.3901 -0.1023
   60SAPC  H18Z 4704   5.118   3.445   4.754  0.2081  0.5409  1.2537
   61SAPC     N 4705   5.275   1.320   6.861 -0.3779 -0.0787 -1.3980
   61SAPC   C12 4706   5.142   1.294   6.926  0.2839 -0.5557 -0.1608
   61SAPC  H12A 4707   5.151   1.244   7.022 -0.6745  0.6167  0.5690
   61SAPC  H12B 4708   5.093   1.223   6.861  0.2754  0.8050 -1.7110
   61SAPC   C13 4709   5.337   1.191   6.844 -0.4881  0.4460 -0.0728
   61SAPC  H13A 4710   5.280   1.122   6.785  1.5153  0.5293 -2.2657
   61SAPC  H13B 4711   5.431   1.199   6.791  0.5932 -0.0154  1.6949
   61SAPC  H13C 4712   5.359   1.144   6.939  0.1474  1.2103  0.1681
   61SAPC   C14 4713   5.269   1.386   6.730  0.8531 -0.1101  0.3729
   61SAPC  H14A 4714   5.228   1.485   6.740 -3.3044 -1.7881  2.1007
   61SAPC  H14B 4715   5.365   1.394   6.681  0.5495  0.1264 -0.1931
   61SAPC  H14C 4716   5.204   1.330   6.664  0.2582  0.3559  0.5564
   61SAPC   C15 4717   5.364   1.404   6.955 -0.7998  0.2575 -0.6258
   61SAPC  H15A 4718   5.315   1.497   6.983  1.3125  1.7846 -1.7414
   61SAPC  H15B 4719   5.406   1.351   7.039 -0.1866  1.5703 -0.0703
   61SAPC  H15C 4720   5.448   1.432   6.894 -2.3434  3.1195 -1.6150
   61SAPC   C11 4721   5.035   1.404   6.948 -0.2798 -0.4130 -0.5412
   61SAPC  H11A 4722   5.099   1.475   7.005  0.8627 -1.2347 -0.7695
   61SAPC  H11B 4723   4.952   1.363   7.009  1.1637  0.3528  2.1374
   61SAPC     P 4724   4.897   1.574   6.823 -0.7079  0.2537 -0.0902
   61SAPC   O13 4725   4.776   1.513   6.775  0.6919 -0.2710 -0.5035
   61SAPC   O14 4726   4.903   1.644   6.954 -0.0910  0.2866  0.1471
   61SAPC   O12 4727   4.997   1.462   6.824 -0.5709 -0.2005 -0.1032
   61SAPC   O11 4728   4.969   1.664   6.717  0.3845 -0.3711 -0.1618
   61SAPC    C1 4729   5.046   1.629   6.597 -0.1073 -0.5324 -0.0332
   61SAPC    HA 4730   5.144   1.682   6.597 -0.6708  0.5667  1.5225
   61SAPC    HB 4731   5.054   1.518   6.598 -0.5004 -0.5687  1.7840
   61SAPC    C2 4732   4.971   1.674   6.472 -0.5998 -0.1472 -0.5983
   61SAPC    HS 4733   4.955   1.783   6.484  2.4272  0.1690  1.6879
   61SAPC   O21 4734   4.841   1.603   6.460 -0.3617 -0.1602 -0.3025
   61SAPC   C21 4735   4.753   1.663   6.375 -0.6424  0.0203  0.2384
   61SAPC   O22 4736   4.757   1.778   6.340 -0.2162  0.1311  0.1050
   61SAPC   C22 4737   4.648   1.562   6.334 -0.2314 -0.5954  0.2160
   61SAPC   H2R 4738   4.674   1.462   6.374 -4.2623 -1.5258  1.0080
   61SAPC   H2S 4739   4.552   1.599   6.377 -0.7593 -0.9097 -0.6575
   61SAPC    C3 4740   5.063   1.656   6.339 -0.3168  0.3736  0.8960
   61SAPC    HX 4741   5.067   1.545   6.345 -1.9099  0.2243 -0.2703
   61SAPC    HY 4742   5.165   1.701   6.343  0.7160 -1.8623  1.9202
   61SAPC   O31 4743   4.996   1.690   6.217  0.2981 -0.3347 -0.2792
   61SAPC   C31 4744   5.005   1.824   6.190 -0.1085  0.4360  0.4257
   61SAPC   O32 4745   5.075   1.897   6.258 -0.0232 -0.4682 -0.3876
   61SAPC   C32 4746   4.920   1.863   6.067  0.2145  0.3337 -1.0363
   61SAPC   H2X 4747   4.829   1.915   6.103 -1.4038 -3.2950  0.7054
   61SAPC   H2Y 4748   4.886   1.765   6.028 -0.0084  0.0747 -0.2218
   61SAPC   C23 4749   4.623   1.565   6.181 -0.5066 -0.3027 -0.5195
   61SAPC   H3R 4750   4.661   1.660   6.137 -0.9048  0.6834  1.1836
   61SAPC   H3S 4751   4.517   1.558   6.149 -1.0426 -2.8763  1.4648
   61SAPC   C24 4752   4.675   1.429   6.122  0.0620  0.4709  0.2915
   61SAPC   H4R 4753   4.640   1.416   6.017 -1.5068 -2.2759  1.0539
   61SAPC   H4S 4754   4.631   1.343   6.177  0.1017  0.2349 -0.0413
   61SAPC   C25 4755   4.826   1.409   6.124 -0.4709 -0.2149 -0.5379
   61SAPC   H5R 4756   4.862   1.449   6.219 -1.1329 -0.0712 -0.3403
   61SAPC   C26 4757   4.918   1.380   6.031  0.2080  0.5414  0.0182
   61SAPC   H6R 4758   5.025   1.377   6.054 -0.0035 -2.1873  1.0047
   61SAPC   C27 4759   4.883   1.332   5.890 -0.4282 -0.2625  0.1640
   61SAPC   H7R 4760   4.778   1.357   5.866 -0.7691 -0.9736  0.8375
   61SAPC   H7S 4761   4.896   1.222   5.874  2.0212  0.3241 -2.6674
   61SAPC   C28 4762   4.983   1.386   5.798 -0.1879  0.3514  0.2165
   61SAPC   H8R 4763   5.086   1.357   5.823 -0.1515  0.9781  0.8217
   61SAPC   C29 4764   4.961   1.451   5.678 -0.4384 -0.0171  0.2278
   61SAPC   H9R 4765   5.055   1.474   5.625 -0.0137 -1.8017  0.1354
   61SAPC  C210 4766   4.832   1.485   5.607  0.0585  0.5200 -0.2653
   61SAPC  H10R 4767   4.742   1.473   5.672  0.3144  0.2830  0.0484
   61SAPC  H10S 4768   4.808   1.416   5.523 -1.3877  0.5046  0.1293
   61SAPC  C211 4769   4.826   1.631   5.561 -0.2029 -0.0770 -0.5428
   61SAPC  H11R 4770   4.830   1.700   5.646  0.2556 -1.7911  0.8755
   61SAPC  C212 4771   4.835   1.678   5.431 -0.2374 -0.8358 -0.7084
   61SAPC  H12R 4772   4.832   1.788   5.422  0.7220 -0.8111 -0.8038
   61SAPC  C213 4773   4.850   1.603   5.301 -0.1737  0.6948 -0.2864
   61SAPC  H13R 4774   4.815   1.673   5.222  3.0052  0.7575 -1.7825
   61SAPC  H13S 4775   4.777   1.520   5.306  0.0872  0.5108  2.4221
   61SAPC  C214 4776   4.982   1.549   5.251  0.0628 -0.6486  0.5162
   61SAPC  H14R 4777   5.063   1.535   5.324 -2.0108  0.2277  3.1482
   61SAPC  C215 4778   5.014   1.517   5.126 -0.1417  0.1781 -0.0563
   61SAPC  H15R 4779   5.111   1.474   5.096 -0.5266 -0.3307 -0.6069
   61SAPC  C216 4780   4.908   1.520   5.014  0.9685  0.8793 -0.2221
   61SAPC  H16R 4781   4.830   1.599   5.025 -3.1141 -2.6984 -0.9126
   61SAPC  H16S 4782   4.846   1.429   5.007 -0.4901  1.9292 -1.6777
   61SAPC  C217 4783   4.969   1.533   4.874  0.1826  0.1712 -0.2117
   61SAPC  H17R 4784   4.886   1.547   4.801 -0.8700  1.9622  1.2466
   61SAPC  H17S 4785   5.024   1.439   4.852 -0.8971 -0.7271  0.7767
   61SAPC  C218 4786   5.053   1.658   4.844 -0.0666 -0.2942  1.0355
   61SAPC  H18R 4787   5.142   1.657   4.910 -0.0592 -2.0277  1.0277
   61SAPC  H18S 4788   5.001   1.753   4.869  1.1225  0.2447  1.5259
   61SAPC  C219 4789   5.098   1.674   4.695  0.4934 -0.3986  0.1830
   61SAPC  H19R 4790   5.017   1.711   4.629 -0.8611 -0.1037  1.9520
   61SAPC  H19S 4791   5.142   1.580   4.655  1.9671  0.0452  0.6781
   61SAPC  C220 4792   5.217   1.769   4.693 -0.3906 -0.4813  0.0420
   61SAPC  H20R 4793   5.198   1.860   4.753  1.9509  1.4553 -1.9177
   61SAPC  H20S 4794   5.251   1.797   4.591 -1.3566  0.2041 -0.1040
   61SAPC  H20T 4795   5.297   1.719   4.752 -1.7199 -0.8995  1.5519
   61SAPC   C33 4796   4.995   1.940   5.955 -0.0443 -0.5650  0.1181
   61SAPC   H3X 4797   5.057   2.020   6.000 -0.6823 -0.2030  0.3581
   61SAPC   H3Y 4798   4.920   1.967   5.877 -0.5165  0.5967  0.9434
   61SAPC   C34 4799   5.099   1.856   5.882  0.8249  0.0651 -0.0463
   61SAPC   H4X 4800   5.059   1.765   5.833  1.4905  0.2466 -0.9353
   61SAPC   H4Y 4801   5.170   1.827   5.962 -0.1682 -0.0608  0.8229
   61SAPC   C35 4802   5.169   1.942   5.773 -0.0788  0.1036  0.4568
   61SAPC   H5X 4803   5.279   1.935   5.768 -0.1438 -0.4343 -0.2355
   61SAPC   H5Y 4804   5.151   2.048   5.802  1.3026 -0.2609  2.9197
   61SAPC   C36 4805   5.118   1.909   5.627  0.0664 -0.3491 -0.6577
   61SAPC   H6X 4806   5.011   1.940   5.627  0.0896 -0.1394  1.0312
   61SAPC   H6Y 4807   5.111   1.799   5.613  0.6706 -0.1979 -2.3549
   61SAPC   C37 4808   5.203   1.964   5.511 -0.1134 -0.5076 -0.0566
   61SAPC   H7X 4809   5.308   1.942   5.537 -0.0405  1.9823  2.1726
   61SAPC   H7Y 4810   5.195   2.074   5.499  1.0112 -0.4691 -0.5909
   61SAPC   C38 4811   5.172   1.896   5.376 -0.0396 -0.7453 -0.1852
   61SAPC   H8X 4812   5.068   1.928   5.355  0.4747  0.0356 -1.6487
   61SAPC   H8Y 4813   5.174   1.785   5.382  0.3829 -0.6865  1.1617
   61SAPC   C39 4814   5.265   1.947   5.266 -0.0031  0.7088 -0.0946
   61SAPC   H9X 4815   5.368   1.933   5.306  0.4908 -3.2599 -2.2817
   61SAPC   H9Y 4816   5.250   2.051   5.229  1.4832  1.1710  0.5338
   61SAPC  C310 4817   5.263   1.847   5.148  0.0023  0.7143  0.2318
   61SAPC  H10X 4818   5.156   1.842   5.120  0.1281 -1.7384  0.0271
   61SAPC  H10Y 4819   5.296   1.747   5.183 -2.6594 -0.3802 -0.1496
   61SAPC  C311 4820   5.341   1.883   5.022 -0.0875 -0.7088 -0.0330
   61SAPC  H11X 4821   5.339   1.806   4.942  1.5533 -1.6858  0.8142
   61SAPC  H11Y 4822   5.451   1.885   5.040  0.3168 -0.3078 -2.2293
   61SAPC  C312 4823   5.313   2.023   4.957  0.1977  0.0117  1.0215
   61SAPC  H12X 4824   5.342   2.107   5.023  4.2612  0.5364 -1.0759
   61SAPC  H12Y 4825   5.205   2.041   4.938 -0.2492 -0.9249  2.5920
   61SAPC  C313 4826   5.393   2.052   4.829 -0.6287  0.4287 -0.3639
   61SAPC  H13X 4827   5.331   2.027   4.740 -0.4091 -1.4005 -0.0502
   61SAPC  H13Y 4828   5.474   1.976   4.821 -1.4210 -0.7140  1.6734
   61SAPC  C314 4829   5.450   2.198   4.810 -0.0962 -0.2654 -0.2637
   61SAPC  H14X 4830   5.524   2.216   4.891  1.9967 -1.3363 -1.8530
   61SAPC  H14Y 4831   5.368   2.274   4.815  0.3119  0.1071  1.1615
   61SAPC  C315 4832   5.517   2.224   4.672 -0.1044 -0.0370 -0.1903
   61SAPC  H15X 4833   5.448   2.204   4.587  0.1015 -0.0368 -0.3588
   61SAPC  H15Y 4834   5.592   2.142   4.665 -0.7858 -0.5737 -1.5361
   61SAPC  C316 4835   5.576   2.365   4.658  0.5399  0.1844 -0.1137
   61SAPC  H16X 4836   5.650   2.357   4.575 -0.7927  0.1420 -1.3326
   61SAPC  H16Y 4837   5.619   2.397   4.755 -0.1684 -0.6394  0.4812
   61SAPC  C317 4838   5.480   2.472   4.607  0.2690  1.0178 -0.6503
   61SAPC  H17X 4839   5.384   2.456   4.662  1.0981  1.3329  0.9634
   61SAPC  H17Y 4840   5.463   2.456   4.499  0.0239 -1.1409 -0.3431
   61SAPC  C318 4841   5.528   2.611   4.634  0.1158  0.0781 -0.9214
   61SAPC  H18X 4842   5.572   2.619   4.736  3.1665  0.0364 -2.1386
   61SAPC  H18Y 4843   5.442   2.681   4.629  0.2839  0.4860  0.8991
   61SAPC  H18Z 4844   5.613   2.635   4.566  0.7140  0.5135 -0.0440
   62SAPC     N 4845   6.376   1.624   6.625  0.0446  1.1991  0.4937
   62SAPC   C12 4846   6.452   1.500   6.689  1.2524  0.0002  0.2287
   62SAPC  H12A 4847   6.505   1.444   6.613 -0.0457 -1.7835  0.5699
   62SAPC  H12B 4848   6.376   1.432   6.726 -2.8289  1.3597 -4.4739
   62SAPC   C13 4849   6.302   1.698   6.736 -0.1125  0.0937 -0.0735
   62SAPC  H13A 4850   6.217   1.639   6.768  0.1060 -0.4935 -0.5577
   62SAPC  H13B 4851   6.368   1.721   6.818  1.0070  1.0328 -1.1947
   62SAPC  H13C 4852   6.265   1.794   6.703 -0.7322 -0.8325 -2.3067
   62SAPC   C14 4853   6.469   1.712   6.550 -0.0563  0.8781 -0.8327
   62SAPC  H14A 4854   6.423   1.803   6.515 -0.0766  0.8845 -0.7888
   62SAPC  H14B 4855   6.547   1.747   6.616  1.2457  0.8133 -2.2852
   62SAPC  H14C 4856   6.517   1.653   6.473  0.8746 -2.4191  2.0136
   62SAPC   C15 4857   6.273   1.572   6.536 -0.1189 -0.7432  0.1842
   62SAPC  H15A 4858   6.218   1.659   6.505  0.2218 -0.9083 -0.9544
   62SAPC  H15B 4859   6.304   1.518   6.447 -1.4041 -0.2077 -0.6118
   62SAPC  H15C 4860   6.199   1.505   6.577 -0.2445 -0.4841  0.3769
   62SAPC   C11 4861   6.565   1.537   6.786 -0.1942  1.1421 -0.3715
   62SAPC  H11A 4862   6.607   1.438   6.816 -2.6122  0.6529  1.7770
   62SAPC  H11B 4863   6.523   1.588   6.876  1.3562  0.8631  0.5404
   62SAPC     P 4864   6.788   1.681   6.793 -0.2767 -0.0570  0.1060
   62SAPC   O13 4865   6.744   1.755   6.914  0.3886 -0.1986  0.1616
   62SAPC   O14 4866   6.901   1.582   6.813  0.3615 -0.5054  0.5239
   62SAPC   O12 4867   6.668   1.608   6.724 -0.1191  0.3498 -0.1648
   62SAPC   O11 4868   6.825   1.797   6.689 -0.1863 -0.7327  0.0845
   62SAPC    C1 4869   6.927   1.785   6.598 -0.7959 -0.4375 -0.7370
   62SAPC    HA 4870   6.987   1.877   6.588 -1.1446 -0.0854  0.2749
   62SAPC    HB 4871   7.003   1.711   6.630  1.0266  1.8723  0.5862
   62SAPC    C2 4872   6.882   1.739   6.456  1.0557  0.2130  0.3277
   62SAPC    HS 4873   6.787   1.794   6.438  1.3842  0.6647 -0.0504
   62SAPC   O21 4874   6.857   1.598   6.466 -0.8510 -0.5667  0.3694
   62SAPC   C21 4875   6.752   1.557   6.392 -0.3690 -0.3670  0.1870
   62SAPC   O22 4876   6.669   1.631   6.341  0.8578 -0.4386  0.0268
   62SAPC   C22 4877   6.753   1.406   6.404  0.3108 -0.7828  0.2583
   62SAPC   H2R 4878   6.855   1.365   6.390  0.3942 -0.1590 -1.0914
   62SAPC   H2S 4879   6.728   1.392   6.511 -1.9329  1.5893  0.1403
   62SAPC    C3 4880   6.989   1.768   6.349 -0.0660 -0.2274 -0.6035
   62SAPC    HX 4881   7.090   1.748   6.392  0.0114  1.0421 -0.1593
   62SAPC    HY 4882   6.984   1.877   6.325 -1.4760 -0.2207 -0.3301
   62SAPC   O31 4883   6.984   1.685   6.237 -0.4005  0.4476 -0.3437
   62SAPC   C31 4884   6.944   1.732   6.122 -0.1112  0.6210  0.0895
   62SAPC   O32 4885   6.904   1.847   6.100 -0.3309  0.1937 -0.4607
   62SAPC   C32 4886   6.957   1.623   6.014 -0.1664  0.4148 -0.3475
   62SAPC   H2X 4887   6.852   1.602   5.985  0.0957  0.6489 -1.4988
   62SAPC   H2Y 4888   7.007   1.532   6.053  0.0285  0.4407 -0.5343
   62SAPC   C23 4889   6.646   1.348   6.310  0.0501  0.2010  0.5405
   62SAPC   H3R 4890   6.548   1.397   6.325  0.3546  1.9584 -2.4490
   62SAPC   H3S 4891   6.626   1.241   6.335  0.3086  0.1471  0.5224
   62SAPC   C24 4892   6.685   1.343   6.162 -0.0367  0.2586 -0.7996
   62SAPC   H4R 4893   6.682   1.450   6.133 -2.4633  0.9877  1.7551
   62SAPC   H4S 4894   6.611   1.290   6.098  0.1122  0.7872 -1.4187
   62SAPC   C25 4895   6.820   1.278   6.134 -0.0216 -0.0236  0.5096
   62SAPC   H5R 4896   6.874   1.245   6.224 -0.3779  0.2778  0.8376
   62SAPC   C26 4897   6.880   1.266   6.014  0.1425 -0.1524 -0.5493
   62SAPC   H6R 4898   6.976   1.213   6.004  0.4822  0.4225 -0.3740
   62SAPC   C27 4899   6.806   1.316   5.889 -0.2974  0.2936 -0.0555
   62SAPC   H7R 4900   6.883   1.352   5.817  0.1561 -1.4488 -0.4871
   62SAPC   H7S 4901   6.744   1.404   5.915 -1.5312  0.2976 -2.6257
   62SAPC   C28 4902   6.724   1.205   5.819 -0.3379  0.1873 -0.2180
   62SAPC   H8R 4903   6.697   1.121   5.884  0.7087  0.3569  0.4620
   62SAPC   C29 4904   6.692   1.200   5.690  1.1483  0.2383 -0.5194
   62SAPC   H9R 4905   6.639   1.115   5.644 -1.0612  0.1650  1.9477
   62SAPC  C210 4906   6.723   1.312   5.594 -0.0254  0.3906  0.1295
   62SAPC  H10R 4907   6.736   1.409   5.646  0.1887  0.3638  0.1286
   62SAPC  H10S 4908   6.643   1.341   5.523  0.6942 -0.2099 -0.9534
   62SAPC  C211 4909   6.854   1.290   5.533  0.2805  0.4926 -0.3048
   62SAPC  H11R 4910   6.936   1.273   5.604 -0.1283  2.2800  0.6533
   62SAPC  C212 4911   6.881   1.249   5.405 -0.8444 -1.5155  0.3598
   62SAPC  H12R 4912   6.978   1.222   5.361 -1.2588  0.6992 -2.2180
   62SAPC  C213 4913   6.774   1.209   5.312  0.3492 -0.1834 -0.2125
   62SAPC  H13R 4914   6.680   1.237   5.363  0.7457  2.5666 -0.7976
   62SAPC  H13S 4915   6.777   1.100   5.291 -0.9082 -0.3293  0.2888
   62SAPC  C214 4916   6.769   1.287   5.179 -0.5090  0.2709  0.1050
   62SAPC  H14R 4917   6.797   1.393   5.187 -0.6307  0.4520 -1.5967
   62SAPC  C215 4918   6.692   1.256   5.076  0.0496 -0.3266  0.8690
   62SAPC  H15R 4919   6.697   1.321   4.987  0.6778  2.7154  2.9538
   62SAPC  C216 4920   6.612   1.135   5.068 -0.1611  0.2436 -0.5233
   62SAPC  H16R 4921   6.510   1.146   5.024 -1.2489 -0.2484  1.7118
   62SAPC  H16S 4922   6.587   1.092   5.168 -1.6882  2.4999  0.1493
   62SAPC  C217 4923   6.687   1.027   4.982 -0.6188 -0.0860  0.3413
   62SAPC  H17R 4924   6.636   0.932   5.010 -1.9368 -0.4531 -2.8990
   62SAPC  H17S 4925   6.790   1.022   5.024  0.6646  1.4249 -2.3946
   62SAPC  C218 4926   6.678   1.046   4.830 -0.2233 -0.5609 -0.2225
   62SAPC  H18R 4927   6.753   1.124   4.807  1.7384 -1.2223  3.1836
   62SAPC  H18S 4928   6.583   1.098   4.806 -0.6265  0.2399  2.6985
   62SAPC  C219 4929   6.688   0.924   4.739 -0.1427 -0.0546  0.5496
   62SAPC  H19R 4930   6.700   0.970   4.639  0.7212 -0.4981  0.4414
   62SAPC  H19S 4931   6.595   0.864   4.741 -0.9314  1.1014 -0.1018
   62SAPC  C220 4932   6.806   0.818   4.768  0.3964  0.4414 -0.5210
   62SAPC  H20R 4933   6.906   0.859   4.741  0.7789  0.3289  0.6673
   62SAPC  H20S 4934   6.797   0.731   4.699  2.4759  0.7499 -1.2530
   62SAPC  H20T 4935   6.807   0.775   4.871 -0.8244  0.2131 -0.5835
   62SAPC   C33 4936   7.029   1.681   5.887  0.1500 -0.5575  0.1216
   62SAPC   H3X 4937   7.095   1.598   5.854  1.0121  0.3141 -0.4181
   62SAPC   H3Y 4938   7.090   1.772   5.906 -2.4218  1.1815  0.5490
   62SAPC   C34 4939   6.943   1.710   5.765  0.3191  0.1069  0.8069
   62SAPC   H4X 4940   6.879   1.800   5.775  0.4300  0.2260  0.4588
   62SAPC   H4Y 4941   6.878   1.620   5.758 -0.2300  0.3748  2.2108
   62SAPC   C35 4942   7.027   1.710   5.635  0.8748  0.6531 -0.0919
   62SAPC   H5X 4943   7.115   1.643   5.638  0.4872  0.0585 -1.4843
   62SAPC   H5Y 4944   7.056   1.816   5.619  0.0789  0.9440  0.3038
   62SAPC   C36 4945   6.947   1.663   5.512  0.0462  0.6533  0.2718
   62SAPC   H6X 4946   6.865   1.738   5.512 -0.2484  0.3306  0.3946
   62SAPC   H6Y 4947   6.914   1.559   5.530 -1.5657  1.4288  2.1902
   62SAPC   C37 4948   7.022   1.663   5.380 -0.3461 -0.1244 -0.0311
   62SAPC   H7X 4949   7.125   1.622   5.386 -0.1438  0.5839  3.2684
   62SAPC   H7Y 4950   7.057   1.765   5.355  2.4362 -0.7114  1.1500
   62SAPC   C38 4951   6.952   1.604   5.266  0.6546 -0.3695  0.4089
   62SAPC   H8X 4952   6.851   1.649   5.256 -0.3858 -2.6696  0.0057
   62SAPC   H8Y 4953   6.938   1.498   5.295 -1.1339 -0.3403 -0.2244
   62SAPC   C39 4954   7.020   1.621   5.129 -0.4057 -0.4039 -0.2219
   62SAPC   H9X 4955   7.102   1.545   5.124  0.7504  0.8886 -2.0333
   62SAPC   H9Y 4956   7.054   1.725   5.111  0.8671 -0.6250  0.7163
   62SAPC  C310 4957   6.930   1.579   5.013  0.5640  0.7312 -0.5566
   62SAPC  H10X 4958   6.840   1.642   5.029 -0.3590 -0.4092 -1.1705
   62SAPC  H10Y 4959   6.906   1.472   5.026  1.3447  0.6753  0.5607
   62SAPC  C311 4960   6.994   1.607   4.878 -0.3804  0.2487  0.4057
   62SAPC  H11X 4961   7.100   1.574   4.884  0.5921  2.6785 -1.6638
   62SAPC  H11Y 4962   6.989   1.717   4.860 -0.4055 -0.1451 -2.4119
   62SAPC  C312 4963   6.908   1.548   4.760 -0.0115  0.9046 -0.3936
   62SAPC  H12X 4964   6.815   1.609   4.758  0.7477  2.1486  0.6215
   62SAPC  H12Y 4965   6.877   1.442   4.772  0.8493  0.5287 -1.3403
   62SAPC  C313 4966   6.984   1.562   4.623 -0.1887 -0.1352  0.3514
   62SAPC  H13X 4967   7.085   1.518   4.628  0.4855  0.9468 -2.0980
   62SAPC  H13Y 4968   6.995   1.671   4.601 -1.2588  0.0125  0.4983
   62SAPC  C314 4969   6.905   1.495   4.500  0.0003 -0.2527  0.6486
   62SAPC  H14X 4970   6.799   1.529   4.507  0.0936  0.1371  0.2621
   62SAPC  H14Y 4971   6.899   1.384   4.498 -1.1728 -0.3400 -3.9139
   62SAPC  C315 4972   6.962   1.532   4.360  0.2454 -0.2921  0.8572
   62SAPC  H15X 4973   7.070   1.506   4.365  0.0502 -0.9352  2.4555
   62SAPC  H15Y 4974   6.970   1.643   4.354  3.0041 -0.3443  1.9302
   62SAPC  C316 4975   6.894   1.458   4.247  0.2140 -0.4609  0.2769
   62SAPC  H16X 4976   6.786   1.481   4.265 -0.2406 -2.1524 -0.0870
   62SAPC  H16Y 4977   6.911   1.348   4.244  0.4751 -0.4047 -0.6884
   62SAPC  C317 4978   6.934   1.501   4.106 -0.5709  0.1489 -0.0039
   62SAPC  H17X 4979   6.885   1.600   4.095 -1.1303 -0.2489 -1.3974
   62SAPC  H17Y 4980   6.882   1.434   4.034 -0.5069  2.9803 -2.9056
   62SAPC  C318 4981   7.089   1.492   4.066 -0.2634 -0.2325  0.3910
   62SAPC  H18X 4982   7.117   1.384   4.072  2.8089  0.4528 -0.0931
   62SAPC  H18Y 4983   7.149   1.549   4.140 -1.2937  0.4989  0.6895
   62SAPC  H18Z 4984   7.104   1.535   3.965 -3.2716  0.5173  0.1647
   63SAPC     N 4985   6.309   4.179   6.659 -0.3184 -0.1346  0.2968
   63SAPC   C12 4986   6.232   4.306   6.632 -0.6378  0.1774  0.0666
   63SAPC  H12A 4987   6.195   4.333   6.729  1.3223  0.2209  0.8471
   63SAPC  H12B 4988   6.150   4.279   6.567  0.3617 -0.9879 -0.7578
   63SAPC   C13 4989   6.214   4.067   6.677  0.1216  0.3530 -0.3267
   63SAPC  H13A 4990   6.123   4.070   6.619 -1.8501  1.2675  2.5925
   63SAPC  H13B 4991   6.269   3.977   6.653 -0.7202  0.1744 -1.6736
   63SAPC  H13C 4992   6.182   4.059   6.780 -2.4840  0.0649 -1.0825
   63SAPC   C14 4993   6.397   4.136   6.547 -0.5665 -0.3946  0.7317
   63SAPC  H14A 4994   6.447   4.042   6.559  0.8398  0.4072  1.4337
   63SAPC  H14B 4995   6.331   4.121   6.463  0.6502  1.5614 -0.6766
   63SAPC  H14C 4996   6.473   4.208   6.521  2.2035 -3.7495 -1.3280
   63SAPC   C15 4997   6.389   4.187   6.777  0.0951 -0.4111  0.0462
   63SAPC  H15A 4998   6.456   4.272   6.778 -2.2113  1.5342  0.0321
   63SAPC  H15B 4999   6.325   4.221   6.858  2.3520  2.0338  0.9591
   63SAPC  H15C 5000   6.434   4.092   6.804  0.4574 -0.7158 -1.5505
   63SAPC   C11 5001   6.321   4.435   6.583  0.2562  0.5745 -0.0922
   63SAPC  H11A 5002   6.240   4.507   6.557 -1.0762 -1.3921 -1.6057
   63SAPC  H11B 5003   6.373   4.413   6.488 -1.8859 -1.6002 -0.8455
   63SAPC     P 5004   6.490   4.614   6.662 -0.4698  0.0812 -0.3563
   63SAPC   O13 5005   6.427   4.722   6.743  0.1934  0.2571 -1.0321
   63SAPC   O14 5006   6.629   4.569   6.697  0.1942 -0.0515  0.3509
   63SAPC   O12 5007   6.408   4.487   6.683  0.2698 -0.5876 -0.4709
   63SAPC   O11 5008   6.484   4.652   6.512 -0.0145 -0.2924  0.1308
   63SAPC    C1 5009   6.555   4.772   6.462  0.1437 -0.8913  0.7188
   63SAPC    HA 5010   6.516   4.859   6.518 -1.1728 -1.5684  0.9106
   63SAPC    HB 5011   6.661   4.756   6.492  0.8272  0.6597 -0.7193
   63SAPC    C2 5012   6.533   4.793   6.308  0.7866  0.2667  0.0060
   63SAPC    HS 5013   6.616   4.854   6.266 -1.0675  1.6009 -1.9336
   63SAPC   O21 5014   6.403   4.855   6.283  0.0879 -0.0005  0.6321
   63SAPC   C21 5015   6.412   4.959   6.195  0.3426 -0.3899 -0.4204
   63SAPC   O22 5016   6.509   4.994   6.136 -0.4899 -0.2223  0.4593
   63SAPC   C22 5017   6.275   5.022   6.184  0.2000  0.1909 -0.2708
   63SAPC   H2R 5018   6.196   4.955   6.224  0.8467 -2.1655 -2.6610
   63SAPC   H2S 5019   6.264   5.121   6.234  0.5973  0.1365 -0.0756
   63SAPC    C3 5020   6.548   4.661   6.232  0.8864  0.7730 -0.0365
   63SAPC    HX 5021   6.460   4.595   6.245  0.7231  1.1664  0.9243
   63SAPC    HY 5022   6.636   4.612   6.278  0.4005  0.0390  0.1258
   63SAPC   O31 5023   6.563   4.692   6.089  0.1418  0.2158 -0.0011
   63SAPC   C31 5024   6.684   4.729   6.054  0.0643 -0.0835  0.2651
   63SAPC   O32 5025   6.783   4.731   6.120  0.3590  0.2598 -0.2976
   63SAPC   C32 5026   6.687   4.775   5.907  0.3945 -0.4262 -0.3220
   63SAPC   H2X 5027   6.622   4.704   5.853 -1.4732 -0.0892  1.3450
   63SAPC   H2Y 5028   6.791   4.768   5.870  0.3039  0.7711 -0.8479
   63SAPC   C23 5029   6.224   5.038   6.037  0.4599 -0.0019  0.5707
   63SAPC   H3R 5030   6.119   5.006   6.052  1.2570 -2.0119  2.3629
   63SAPC   H3S 5031   6.279   4.963   5.977  1.7615 -1.3901  3.3256
   63SAPC   C24 5032   6.216   5.180   5.986  0.1216  0.0437 -0.4919
   63SAPC   H4R 5033   6.151   5.238   6.055 -2.2948 -0.5780 -2.1276
   63SAPC   H4S 5034   6.150   5.183   5.897  0.6831 -2.0179 -1.0372
   63SAPC   C25 5035   6.344   5.245   5.949 -0.8322 -0.4749  0.8255
   63SAPC   H5R 5036   6.410   5.282   6.030  1.0199  1.9012 -1.5983
   63SAPC   C26 5037   6.396   5.267   5.821 -0.0787 -0.8661 -0.9052
   63SAPC   H6R 5038   6.491   5.321   5.816  1.8151 -3.8806  0.1810
   63SAPC   C27 5039   6.333   5.230   5.691 -0.4189 -0.6000 -0.0925
   63SAPC   H7R 5040   6.233   5.277   5.696 -1.1491 -2.0594 -0.4553
   63SAPC   H7S 5041   6.328   5.121   5.670  1.7772 -0.4384 -1.8482
   63SAPC   C28 5042   6.412   5.295   5.579 -0.2434  0.3440  0.2221
   63SAPC   H8R 5043   6.522   5.297   5.585 -0.1029 -1.6547 -0.8847
   63SAPC   C29 5044   6.364   5.356   5.469 -0.2357  0.4737 -0.3155
   63SAPC   H9R 5045   6.442   5.393   5.399  0.5606  0.8171  0.7310
   63SAPC  C210 5046   6.217   5.369   5.425  0.4468 -0.4736  0.0652
   63SAPC  H10R 5047   6.212   5.432   5.334  1.7646 -0.6889 -0.1728
   63SAPC  H10S 5048   6.160   5.435   5.494  0.9975  0.5761 -0.4625
   63SAPC  C211 5049   6.142   5.247   5.386 -0.3600  0.3879  0.0788
   63SAPC  H11R 5050   6.154   5.157   5.449  1.7948  0.2147 -0.4862
   63SAPC  C212 5051   6.051   5.230   5.292 -0.3298 -0.4287  0.0402
   63SAPC  H12R 5052   5.997   5.138   5.266  0.6025 -0.0909 -3.6767
   63SAPC  C213 5053   6.016   5.331   5.183  0.2426 -0.6108 -0.5300
   63SAPC  H13R 5054   5.993   5.281   5.087 -0.3902 -0.9002 -0.2414
   63SAPC  H13S 5055   6.103   5.398   5.164 -0.8007  0.0740 -3.3084
   63SAPC  C214 5056   5.900   5.418   5.237 -0.2843  0.0985  0.8619
   63SAPC  H14R 5057   5.947   5.497   5.298  1.2813  0.9920 -1.3413
   63SAPC  C215 5058   5.768   5.408   5.211 -0.6375 -0.5698  0.3514
   63SAPC  H15R 5059   5.699   5.488   5.240 -2.7922 -1.9129 -0.8285
   63SAPC  C216 5060   5.702   5.303   5.126 -0.2136  0.4936  0.0712
   63SAPC  H16R 5061   5.607   5.276   5.177  1.4354 -0.8200  2.6599
   63SAPC  H16S 5062   5.755   5.206   5.112 -1.4585 -0.2039 -0.0001
   63SAPC  C217 5063   5.676   5.368   4.988  0.4140  0.3086  0.9670
   63SAPC  H17R 5064   5.769   5.396   4.934 -1.8931  2.9609 -2.0903
   63SAPC  H17S 5065   5.613   5.459   5.002  2.2365  2.1800 -1.8422
   63SAPC  C218 5066   5.612   5.266   4.887  0.1077  0.1865 -1.1862
   63SAPC  H18R 5067   5.531   5.216   4.944 -0.5022  2.3429 -0.0535
   63SAPC  H18S 5068   5.689   5.191   4.860 -0.1472 -1.0639  1.2862
   63SAPC  C219 5069   5.548   5.333   4.763  0.2431  0.6743 -0.3861
   63SAPC  H19R 5070   5.625   5.370   4.691  1.4352 -0.2133  0.3867
   63SAPC  H19S 5071   5.492   5.423   4.796 -0.9231  0.8083 -2.5494
   63SAPC  C220 5072   5.447   5.244   4.683 -0.0179  0.1720 -0.3857
   63SAPC  H20R 5073   5.368   5.217   4.756 -0.2286  0.8241 -0.3685
   63SAPC  H20S 5074   5.492   5.148   4.648 -2.6119 -1.1231 -0.3995
   63SAPC  H20T 5075   5.392   5.297   4.603 -0.4210 -0.9809 -0.9017
   63SAPC   C33 5076   6.643   4.926   5.881 -0.1776  0.0150 -0.2421
   63SAPC   H3X 5077   6.696   4.989   5.956 -3.7838  0.4308  2.1779
   63SAPC   H3Y 5078   6.537   4.929   5.913  0.2352 -1.9388  1.5223
   63SAPC   C34 5079   6.680   4.982   5.746  0.7820  0.1060 -1.1939
   63SAPC   H4X 5080   6.791   4.976   5.736  1.0345  2.0751 -0.1291
   63SAPC   H4Y 5081   6.644   5.087   5.754 -2.0007 -0.8815  0.7386
   63SAPC   C35 5082   6.610   4.912   5.631  0.1064  0.3420  0.6002
   63SAPC   H5X 5083   6.501   4.918   5.649 -0.0834  0.9028 -0.6035
   63SAPC   H5Y 5084   6.635   4.804   5.627 -1.2148  0.0457 -2.3878
   63SAPC   C36 5085   6.629   4.981   5.492 -0.1540 -0.4556  0.1390
   63SAPC   H6X 5086   6.738   4.987   5.469 -0.4772 -0.6364 -1.5788
   63SAPC   H6Y 5087   6.598   5.086   5.507  0.2614 -0.4990  1.4506
   63SAPC   C37 5088   6.548   4.922   5.370 -0.5047 -0.0068 -0.6741
   63SAPC   H7X 5089   6.449   4.898   5.415 -0.1699 -0.1243  0.0092
   63SAPC   H7Y 5090   6.589   4.825   5.336  2.0200  1.1184 -1.0499
   63SAPC   C38 5091   6.547   5.012   5.249 -0.5978 -0.0091  0.3319
   63SAPC   H8X 5092   6.643   5.023   5.193 -1.7029 -1.3652 -1.9832
   63SAPC   H8Y 5093   6.512   5.111   5.286 -0.4198  0.1196  0.1618
   63SAPC   C39 5094   6.446   4.964   5.146  1.0737 -0.3375  0.2014
   63SAPC   H9X 5095   6.350   4.937   5.194  0.2064 -0.8363 -1.7060
   63SAPC   H9Y 5096   6.473   4.870   5.093 -0.1833  0.5178 -2.0870
   63SAPC  C310 5097   6.396   5.073   5.052  0.1145 -0.0263 -0.3150
   63SAPC  H10X 5098   6.470   5.093   4.972  1.0432  0.8819  0.7396
   63SAPC  H10Y 5099   6.371   5.166   5.107  1.3240 -0.2188  0.5926
   63SAPC  C311 5100   6.268   5.025   4.981  0.5486  0.2480 -0.1916
   63SAPC  H11X 5101   6.230   5.113   4.925  2.1298  1.6568  0.8856
   63SAPC  H11Y 5102   6.190   4.982   5.048  2.9067 -2.3478  1.1017
   63SAPC  C312 5103   6.307   4.910   4.887 -0.7830  0.6111 -0.2141
   63SAPC  H12X 5104   6.348   4.829   4.951 -1.1445 -0.4133 -1.2665
   63SAPC  H12Y 5105   6.393   4.932   4.821 -1.4444  2.0672 -0.6409
   63SAPC  C313 5106   6.189   4.865   4.798 -0.7080 -0.0017  0.5556
   63SAPC  H13X 5107   6.143   4.953   4.748 -1.7370  0.5441  2.3507
   63SAPC  H13Y 5108   6.118   4.798   4.852 -1.6340 -0.0007 -0.6263
   63SAPC  C314 5109   6.243   4.771   4.684  0.1394 -0.8211 -0.4373
   63SAPC  H14X 5110   6.276   4.678   4.735  1.4346 -0.3931 -0.4569
   63SAPC  H14Y 5111   6.335   4.813   4.639  0.0813 -0.7073 -0.4505
   63SAPC  C315 5112   6.135   4.744   4.571 -0.1192 -0.1269 -0.0461
   63SAPC  H15X 5113   6.169   4.657   4.511 -1.1824  0.4045 -1.4933
   63SAPC  H15Y 5114   6.133   4.838   4.513  1.4465  1.2382  1.9734
   63SAPC  C316 5115   5.998   4.705   4.633  0.1332  0.5162  0.6609
   63SAPC  H16X 5116   5.943   4.792   4.675 -0.8541 -0.4455  1.3817
   63SAPC  H16Y 5117   6.016   4.633   4.715  3.4300  1.9389  1.3518
   63SAPC  C317 5118   5.901   4.645   4.525 -0.0771 -0.0562  0.2351
   63SAPC  H17X 5119   5.949   4.568   4.461  0.7400  0.9264 -0.3535
   63SAPC  H17Y 5120   5.855   4.730   4.471  1.2001  1.2659  1.1593
   63SAPC  C318 5121   5.780   4.579   4.600 -0.4087 -0.3502  0.1397
   63SAPC  H18X 5122   5.721   4.660   4.648 -1.1852  0.2350 -1.7026
   63SAPC  H18Y 5123   5.832   4.511   4.670  1.5793 -1.8621 -2.6196
   63SAPC  H18Z 5124   5.715   4.514   4.538 -1.4400 -1.7162  2.5168
   64SAPC     N 5125   6.292   5.314   6.945 -0.8024  0.4533 -0.4575
   64SAPC   C12 5126   6.368   5.284   6.821  0.2210 -0.1366  0.5480
   64SAPC  H12A 5127   6.345   5.189   6.774  0.9014 -0.4254  0.7828
   64SAPC  H12B 5128   6.474   5.286   6.839  0.1678  0.0939  0.8428
   64SAPC   C13 5129   6.143   5.338   6.924  0.5700  0.3016  0.7762
   64SAPC  H13A 5130   6.100   5.381   7.014  1.3594 -0.2824  1.4539
   64SAPC  H13B 5131   6.132   5.404   6.840  0.7752  1.2414  1.4708
   64SAPC  H13C 5132   6.093   5.245   6.900  1.6496 -0.0475 -0.2336
   64SAPC   C14 5133   6.309   5.197   7.037 -0.2708 -0.2646 -0.4103
   64SAPC  H14A 5134   6.252   5.209   7.128 -0.1996  0.1456 -0.4167
   64SAPC  H14B 5135   6.264   5.106   7.000  0.1232 -0.0993 -1.3323
   64SAPC  H14C 5136   6.415   5.181   7.050  0.3926  2.9944 -1.0838
   64SAPC   C15 5137   6.339   5.440   7.010 -0.2168  0.1401  0.6679
   64SAPC  H15A 5138   6.282   5.459   7.099 -0.3093  0.3979  0.5544
   64SAPC  H15B 5139   6.442   5.433   7.041  0.2156 -0.1708 -0.7473
   64SAPC  H15C 5140   6.326   5.525   6.945  0.7585  0.6357  1.1001
   64SAPC   C11 5141   6.363   5.393   6.705 -0.2027 -0.6830 -0.2391
   64SAPC  H11A 5142   6.407   5.484   6.750  0.7703 -0.2965 -1.8768
   64SAPC  H11B 5143   6.260   5.416   6.672  0.1260  0.2912 -0.6225
   64SAPC     P 5144   6.402   5.224   6.512  0.1237  0.1355 -0.3291
   64SAPC   O13 5145   6.489   5.214   6.394 -0.0170 -0.2594  0.4737
   64SAPC   O14 5146   6.393   5.105   6.597 -0.3940  0.5492  0.0679
   64SAPC   O12 5147   6.442   5.347   6.598  0.2904 -0.1752 -0.2782
   64SAPC   O11 5148   6.258   5.266   6.459 -0.7187  0.5154  0.6115
   64SAPC    C1 5149   6.258   5.391   6.390 -0.4012  0.0302  0.8082
   64SAPC    HA 5150   6.306   5.474   6.446 -0.2261  0.3491  0.1935
   64SAPC    HB 5151   6.313   5.372   6.296 -2.8729  1.6013 -1.0931
   64SAPC    C2 5152   6.114   5.443   6.352 -0.1933  0.0091 -0.3905
   64SAPC    HS 5153   6.057   5.464   6.445 -0.0686 -1.6898  0.0954
   64SAPC   O21 5154   6.048   5.340   6.291  0.2910  0.1319  0.3504
   64SAPC   C21 5155   5.912   5.348   6.263 -0.5119 -0.5726 -0.1174
   64SAPC   O22 5156   5.844   5.444   6.295 -0.0648 -0.2611  0.0968
   64SAPC   C22 5157   5.863   5.223   6.195 -0.2478 -0.8413 -0.3520
   64SAPC   H2R 5158   5.926   5.203   6.106 -2.2499 -2.0321 -1.5843
   64SAPC   H2S 5159   5.882   5.143   6.270  0.8221  1.0884  1.5521
   64SAPC    C3 5160   6.113   5.577   6.279 -0.3686  0.3437 -0.6458
   64SAPC    HX 5161   6.148   5.655   6.351  0.7823  0.3229 -1.1609
   64SAPC    HY 5162   6.009   5.612   6.261 -0.6770  0.3677  0.9754
   64SAPC   O31 5163   6.208   5.575   6.169 -0.3578 -0.0377 -0.1125
   64SAPC   C31 5164   6.159   5.627   6.057 -0.4095  0.5243  0.4620
   64SAPC   O32 5165   6.048   5.684   6.050 -0.4340 -0.2831 -0.7136
   64SAPC   C32 5166   6.249   5.622   5.939 -0.9546 -0.5094  0.0419
   64SAPC   H2X 5167   6.204   5.576   5.848  0.2275 -1.8473  0.1033
   64SAPC   H2Y 5168   6.333   5.556   5.969  0.7815  1.6586  0.1834
   64SAPC   C23 5169   5.717   5.229   6.156  0.6644 -0.0346  0.7422
   64SAPC   H3R 5170   5.675   5.262   6.253  0.6687  1.7184  0.1832
   64SAPC   H3S 5171   5.676   5.130   6.128  0.4801  0.0956  0.5516
   64SAPC   C24 5172   5.683   5.327   6.043 -0.3305 -0.3872  0.1082
   64SAPC   H4R 5173   5.731   5.424   6.066  0.7643 -0.5817 -1.2456
   64SAPC   H4S 5174   5.575   5.351   6.053 -0.4644 -0.5584 -0.7892
   64SAPC   C25 5175   5.713   5.286   5.902 -0.9188  0.5032  0.3673
   64SAPC   H5R 5176   5.660   5.198   5.862  0.0671  0.5307 -1.1054
   64SAPC   C26 5177   5.819   5.326   5.828 -0.5130 -0.1851 -0.5292
   64SAPC   H6R 5178   5.834   5.294   5.724  0.8699  0.3017 -0.5070
   64SAPC   C27 5179   5.911   5.440   5.870  0.7133  0.0863  0.2069
   64SAPC   H7R 5180   6.005   5.433   5.811 -0.7487 -2.4921 -2.0240
   64SAPC   H7S 5181   5.937   5.428   5.978 -0.7346 -0.7885  0.4885
   64SAPC   C28 5182   5.843   5.575   5.868  0.3056  1.3764 -0.8359
   64SAPC   H8R 5183   5.829   5.618   5.968 -0.1367  0.6579 -0.5814
   64SAPC   C29 5184   5.808   5.646   5.758  0.8501  1.2883 -0.4050
   64SAPC   H9R 5185   5.752   5.739   5.776 -1.3777 -0.1218  0.3916
   64SAPC  C210 5186   5.839   5.624   5.617 -0.8176 -0.4564 -0.4593
   64SAPC  H10R 5187   5.752   5.639   5.549 -1.9231  1.6873  1.2968
   64SAPC  H10S 5188   5.861   5.519   5.591  0.1290  0.4487 -3.7827
   64SAPC  C211 5189   5.964   5.709   5.587  0.5399 -0.2043 -0.0091
   64SAPC  H11R 5190   6.044   5.669   5.651 -1.1890 -1.0517  1.7520
   64SAPC  C212 5191   5.977   5.815   5.505 -0.5327  0.5551 -0.5248
   64SAPC  H12R 5192   6.080   5.851   5.492 -0.5046  0.9106  0.5520
   64SAPC  C213 5193   5.869   5.885   5.421 -0.3572 -0.3112 -0.2899
   64SAPC  H13R 5194   5.771   5.897   5.472  0.8848  0.6619  2.0111
   64SAPC  H13S 5195   5.851   5.813   5.338 -2.6931 -0.9264  0.6729
   64SAPC  C214 5196   5.917   6.019   5.369  0.5126 -0.0555 -0.3910
   64SAPC  H14R 5197   5.941   6.102   5.437 -1.4165  0.7988 -0.6820
   64SAPC  C215 5198   5.932   6.040   5.241 -0.2144 -0.2193  0.1789
   64SAPC  H15R 5199   5.974   6.139   5.220  1.3652 -0.5823  1.4452
   64SAPC  C216 5200   5.903   5.954   5.120 -0.0644  0.6786 -0.5939
   64SAPC  H16R 5201   5.842   6.017   5.052 -2.4271  0.8457  1.5269
   64SAPC  H16S 5202   5.847   5.859   5.132 -1.5859  1.7348  1.0521
   64SAPC  C217 5203   6.041   5.903   5.058  0.1355 -0.9078 -0.5813
   64SAPC  H17R 5204   6.084   5.841   5.139  0.0133 -1.2725 -0.7912
   64SAPC  H17S 5205   6.118   5.977   5.028 -0.5256 -0.5271 -1.3971
   64SAPC  C218 5206   6.024   5.813   4.937  0.7366 -0.4855 -0.2152
   64SAPC  H18R 5207   6.125   5.797   4.893  0.5262 -0.6918 -0.6223
   64SAPC  H18S 5208   5.950   5.866   4.874 -1.7519 -2.5346  0.8129
   64SAPC  C219 5209   5.972   5.669   4.957  0.3130 -1.0007 -0.2183
   64SAPC  H19R 5210   5.886   5.668   5.027 -0.9651 -0.5700 -1.7477
   64SAPC  H19S 5211   6.059   5.619   5.006  1.4023  0.9102 -0.0858
   64SAPC  C220 5212   5.930   5.615   4.823  0.0696  0.2867  0.8397
   64SAPC  H20R 5213   5.918   5.505   4.823 -2.8914  0.3879 -2.8891
   64SAPC  H20S 5214   6.011   5.632   4.749 -0.4679 -0.1308  0.1352
   64SAPC  H20T 5215   5.830   5.651   4.789  0.3301 -0.5350 -0.9200
   64SAPC   C33 5216   6.315   5.758   5.906 -0.1847  0.5506  0.3045
   64SAPC   H3X 5217   6.343   5.814   5.998  0.0302  1.6633 -0.4218
   64SAPC   H3Y 5218   6.233   5.810   5.853 -0.9375 -1.1066 -0.2057
   64SAPC   C34 5219   6.442   5.731   5.822 -0.0233 -0.1797  0.6073
   64SAPC   H4X 5220   6.507   5.656   5.871 -0.2933  0.7455  2.4556
   64SAPC   H4Y 5221   6.497   5.827   5.815  1.7144 -1.1753  0.0585
   64SAPC   C35 5222   6.410   5.674   5.679 -1.1028 -0.1781 -0.3505
   64SAPC   H5X 5223   6.328   5.599   5.684 -1.9587  0.7621 -0.0472
   64SAPC   H5Y 5224   6.503   5.618   5.654  1.8691  4.4512 -0.8568
   64SAPC   C36 5225   6.393   5.781   5.572  0.4064 -0.0070 -0.0693
   64SAPC   H6X 5226   6.476   5.855   5.579  0.8235 -0.3812 -0.9599
   64SAPC   H6Y 5227   6.295   5.831   5.591  0.1766 -0.2593 -0.5905
   64SAPC   C37 5228   6.386   5.731   5.427 -0.4470  0.5590  0.3608
   64SAPC   H7X 5229   6.296   5.666   5.414  0.6872 -0.9920 -0.0477
   64SAPC   H7Y 5230   6.472   5.664   5.408 -0.2805  0.5948  0.9776
   64SAPC   C38 5231   6.384   5.839   5.321 -0.1656  0.5875 -0.1267
   64SAPC   H8X 5232   6.458   5.918   5.347  1.3142 -0.1960 -1.7317
   64SAPC   H8Y 5233   6.283   5.887   5.315  0.2619  1.6058  0.5949
   64SAPC   C39 5234   6.431   5.808   5.171  0.2449 -0.2064  0.0238
   64SAPC   H9X 5235   6.542   5.803   5.160  0.2190  0.6275 -0.7216
   64SAPC   H9Y 5236   6.403   5.889   5.100  0.0458  0.4300  0.8137
   64SAPC  C310 5237   6.359   5.680   5.121  0.0339 -0.2932 -0.1515
   64SAPC  H10X 5238   6.250   5.698   5.132  0.4935  2.6755  0.5697
   64SAPC  H10Y 5239   6.384   5.605   5.199 -0.2730 -0.4052 -0.1591
   64SAPC  C311 5240   6.398   5.643   4.981  0.0398  0.0719  0.1286
   64SAPC  H11X 5241   6.507   5.624   4.989 -0.2823 -1.9393  0.1249
   64SAPC  H11Y 5242   6.380   5.724   4.907 -1.0061  0.7324  1.0700
   64SAPC  C312 5243   6.344   5.514   4.923  0.3705 -0.3547 -0.5118
   64SAPC  H12X 5244   6.235   5.519   4.904 -0.0022  1.8634  1.6799
   64SAPC  H12Y 5245   6.360   5.437   5.001 -0.3359 -1.2556 -1.2432
   64SAPC  C313 5246   6.413   5.465   4.795  0.1943  0.1676 -0.3072
   64SAPC  H13X 5247   6.522   5.484   4.799  0.1944  0.0057  0.6040
   64SAPC  H13Y 5248   6.367   5.517   4.708 -1.4943 -1.2804 -0.3320
   64SAPC  C314 5249   6.399   5.311   4.758 -0.3992 -0.0588 -0.1544
   64SAPC  H14X 5250   6.296   5.275   4.777 -0.1783 -0.6339 -0.0233
   64SAPC  H14Y 5251   6.460   5.258   4.834 -0.2517  1.9963  1.2563
   64SAPC  C315 5252   6.442   5.281   4.613  0.1419  0.0543 -0.3323
   64SAPC  H15X 5253   6.546   5.313   4.589 -0.3240  1.2669 -0.8194
   64SAPC  H15Y 5254   6.371   5.345   4.556 -2.7438 -2.4307  0.2188
   64SAPC  C316 5255   6.418   5.137   4.566 -0.3584 -0.4442 -0.2937
   64SAPC  H16X 5256   6.315   5.111   4.598  0.5443 -1.1666  2.2440
   64SAPC  H16Y 5257   6.498   5.075   4.612  1.4431  0.4558 -2.0568
   64SAPC  C317 5258   6.450   5.117   4.412  0.4477  0.4167 -0.3782
   64SAPC  H17X 5259   6.560   5.103   4.407  0.3989 -0.1020 -0.0956
   64SAPC  H17Y 5260   6.428   5.211   4.356  0.5468 -0.2774 -1.6019
   64SAPC  C318 5261   6.378   4.998   4.349 -0.0010 -0.1475 -0.2810
   64SAPC  H18X 5262   6.419   4.902   4.387 -2.2525 -1.7502 -1.6761
   64SAPC  H18Y 5263   6.386   5.002   4.238  1.1873  1.4431 -0.1724
   64SAPC  H18Z 5264   6.271   4.992   4.377 -0.3264 -1.0490 -1.6353
   65SAPC     N 5265   5.771   2.019   1.862  0.4766  0.4139  0.1401
   65SAPC   C12 5266   5.727   1.920   1.978  0.3515 -0.6791 -0.0645
   65SAPC  H12A 5267   5.817   1.865   2.000  0.8316 -0.5267 -1.4971
   65SAPC  H12B 5268   5.667   1.835   1.947 -0.3369 -0.2579  0.0800
   65SAPC   C13 5269   5.841   1.941   1.752 -0.7265 -0.4071  0.3458
   65SAPC  H13A 5270   5.781   1.878   1.688  1.9180 -0.0500 -2.7261
   65SAPC  H13B 5271   5.882   2.004   1.675 -1.2319 -2.0996 -1.3826
   65SAPC  H13C 5272   5.922   1.881   1.790 -0.2222 -0.9748 -1.5183
   65SAPC   C14 5273   5.659   2.084   1.787  0.1034 -0.4171 -0.0571
   65SAPC  H14A 5274   5.697   2.150   1.711 -0.9413 -0.0820 -0.2990
   65SAPC  H14B 5275   5.593   2.010   1.744 -0.0602 -0.8719  0.9371
   65SAPC  H14C 5276   5.593   2.136   1.855  1.0290 -0.3783  0.8396
   65SAPC   C15 5277   5.857   2.123   1.926 -0.1827 -0.7506  0.3190
   65SAPC  H15A 5278   5.902   2.183   1.849 -1.9056 -0.6321 -0.6374
   65SAPC  H15B 5279   5.793   2.187   1.984  1.1014  0.3236  0.5845
   65SAPC  H15C 5280   5.942   2.082   1.978  0.2087 -0.5451 -0.1572
   65SAPC   C11 5281   5.683   1.994   2.111 -0.6046 -0.3620  0.3188
   65SAPC  H11A 5282   5.765   2.060   2.146 -1.0314  0.9665 -1.0754
   65SAPC  H11B 5283   5.663   1.915   2.186  0.1943 -0.7014  0.1899
   65SAPC     P 5284   5.418   2.005   2.103 -0.1709 -0.0617 -0.2480
   65SAPC   O13 5285   5.315   2.100   2.057  0.0662 -0.0430 -0.0248
   65SAPC   O14 5286   5.409   1.870   2.048  0.1736 -0.3572  0.6867
   65SAPC   O12 5287   5.560   2.067   2.088  0.5446 -0.3534  0.3871
   65SAPC   O11 5288   5.411   1.987   2.264 -0.2618 -0.0417 -0.3404
   65SAPC    C1 5289   5.380   2.105   2.340 -0.0161  1.2156 -0.7283
   65SAPC    HA 5290   5.276   2.139   2.321 -0.4973 -0.6366 -1.6554
   65SAPC    HB 5291   5.375   2.087   2.449  0.0182 -0.0716 -0.9245
   65SAPC    C2 5292   5.487   2.210   2.349 -0.0424 -0.6156  0.0910
   65SAPC    HS 5293   5.516   2.229   2.243  0.3334  2.2298  0.6399
   65SAPC   O21 5294   5.603   2.155   2.416 -0.1009 -0.7312 -0.6410
   65SAPC   C21 5295   5.718   2.222   2.394 -0.5256  0.6517  0.0253
   65SAPC   O22 5296   5.727   2.311   2.310 -0.2167 -0.4210  0.1495
   65SAPC   C22 5297   5.815   2.172   2.491 -0.1064 -0.5407  0.1414
   65SAPC   H2R 5298   5.762   2.140   2.583 -0.9363 -0.1788 -0.2025
   65SAPC   H2S 5299   5.855   2.073   2.460  1.1756 -0.2550  0.8220
   65SAPC    C3 5300   5.430   2.344   2.394 -0.4366  0.0973 -0.0675
   65SAPC    HX 5301   5.363   2.366   2.309 -2.6383 -0.5041  1.4304
   65SAPC    HY 5302   5.524   2.404   2.397  0.2577 -0.9853  0.6852
   65SAPC   O31 5303   5.352   2.334   2.518  0.2065  0.2109 -0.0381
   65SAPC   C31 5304   5.421   2.363   2.626  0.1341 -0.7690  0.5055
   65SAPC   O32 5305   5.540   2.393   2.637  0.4121 -0.4650  0.1391
   65SAPC   C32 5306   5.331   2.326   2.738  1.2333  0.1079 -0.4632
   65SAPC   H2X 5307   5.321   2.218   2.761 -1.6221  0.4039  0.0027
   65SAPC   H2Y 5308   5.232   2.370   2.714  1.0473 -0.5807 -1.0130
   65SAPC   C23 5309   5.936   2.258   2.533 -0.1662 -0.0233  0.0271
   65SAPC   H3R 5310   5.990   2.276   2.438 -0.5693 -0.6081 -0.3183
   65SAPC   H3S 5311   6.003   2.201   2.601 -0.4967 -2.7470 -1.7526
   65SAPC   C24 5312   5.898   2.386   2.598 -0.3848 -0.1701 -0.1912
   65SAPC   H4R 5313   5.846   2.361   2.692 -0.2284  0.5426  0.0925
   65SAPC   H4S 5314   5.819   2.442   2.544  0.1472  0.1084 -0.6972
   65SAPC   C25 5315   6.017   2.476   2.638 -0.6150  0.7682  0.3908
   65SAPC   H5R 5316   6.063   2.527   2.552 -3.6791  1.2607 -1.1060
   65SAPC   C26 5317   6.061   2.482   2.770 -0.1968 -0.1844  0.3489
   65SAPC   H6R 5318   6.154   2.534   2.797  0.3215 -1.3123  0.8171
   65SAPC   C27 5319   6.004   2.412   2.891  0.3957 -0.4544  0.1924
   65SAPC   H7R 5320   5.898   2.443   2.893  0.8621  1.1838  1.2577
   65SAPC   H7S 5321   6.039   2.465   2.982 -1.4905  1.6568 -0.2266
   65SAPC   C28 5322   6.009   2.263   2.907 -0.7516 -0.4373  0.6884
   65SAPC   H8R 5323   5.989   2.207   2.814 -1.2492  1.2684 -0.2823
   65SAPC   C29 5324   6.017   2.192   3.014 -0.4581  0.0381 -0.1887
   65SAPC   H9R 5325   6.033   2.084   3.000  0.3033  0.0180  0.7358
   65SAPC  C210 5326   6.041   2.238   3.153  0.1286 -0.2482  0.2661
   65SAPC  H10R 5327   5.992   2.334   3.178 -0.6304  0.8595 -4.4917
   65SAPC  H10S 5328   6.148   2.258   3.174 -0.0608  2.7316 -1.1814
   65SAPC  C211 5329   5.988   2.129   3.245  1.3285  0.1160  0.2716
   65SAPC  H11R 5330   5.945   2.040   3.198  2.1997 -0.8760  1.2861
   65SAPC  C212 5331   5.978   2.127   3.377  1.2185  0.0277 -0.2829
   65SAPC  H12R 5332   5.947   2.037   3.432  1.4982  0.8588  1.2988
   65SAPC  C213 5333   6.033   2.244   3.454 -0.4306 -0.4686 -0.7833
   65SAPC  H13R 5334   6.124   2.289   3.409 -0.7462  2.8185  1.4442
   65SAPC  H13S 5335   6.064   2.197   3.550 -0.0979 -2.4150 -1.7979
   65SAPC  C214 5336   5.931   2.350   3.486  0.4120 -0.0206 -0.1851
   65SAPC  H14R 5337   5.885   2.399   3.399 -1.7702 -1.0356  0.3221
   65SAPC  C215 5338   5.894   2.381   3.611 -0.7471  0.0717 -0.1255
   65SAPC  H15R 5339   5.831   2.468   3.634  0.5084  1.0872 -0.3752
   65SAPC  C216 5340   5.951   2.322   3.738 -0.2461  0.0436  0.3406
   65SAPC  H16R 5341   6.038   2.383   3.769  0.5858 -0.9072 -0.0734
   65SAPC  H16S 5342   5.989   2.218   3.734  1.7416  0.7510 -0.3344
   65SAPC  C217 5343   5.835   2.321   3.842  0.3284 -0.0365 -0.3181
   65SAPC  H17R 5344   5.754   2.250   3.815  0.5613  0.2273 -1.8136
   65SAPC  H17S 5345   5.804   2.428   3.852 -1.4307 -0.6904  2.4207
   65SAPC  C218 5346   5.905   2.277   3.965  0.6878  0.3482 -0.8490
   65SAPC  H18R 5347   5.979   2.354   3.995 -0.3559  1.9859 -2.3115
   65SAPC  H18S 5348   5.952   2.176   3.956  1.9458  0.7502  0.6163
   65SAPC  C219 5349   5.801   2.279   4.082 -0.1185 -0.0593  0.3570
   65SAPC  H19R 5350   5.716   2.217   4.047  0.3135 -0.5402  0.1479
   65SAPC  H19S 5351   5.776   2.387   4.091  1.8709  0.6206 -1.2911
   65SAPC  C220 5352   5.851   2.223   4.208  0.3916  0.2947 -0.6690
   65SAPC  H20R 5353   5.938   2.282   4.245 -0.5836  1.4008 -0.0617
   65SAPC  H20S 5354   5.882   2.119   4.184 -0.3778 -0.2547  0.5678
   65SAPC  H20T 5355   5.787   2.220   4.299 -0.2171 -0.3313 -1.1014
   65SAPC   C33 5356   5.376   2.388   2.871  0.0810 -0.4071 -0.2827
   65SAPC   H3X 5357   5.416   2.489   2.849 -0.4206 -0.1108  0.1137
   65SAPC   H3Y 5358   5.461   2.329   2.910  1.3013  2.2248  1.3555
   65SAPC   C34 5359   5.271   2.388   2.984  0.4351  0.2095  0.1426
   65SAPC   H4X 5360   5.245   2.280   2.986 -1.5434  0.6620  1.0231
   65SAPC   H4Y 5361   5.178   2.443   2.955 -1.4133 -2.7595  0.0230
   65SAPC   C35 5362   5.327   2.441   3.116  0.0762  0.2912 -0.5527
   65SAPC   H5X 5363   5.355   2.547   3.102 -0.2924  0.1800 -2.3461
   65SAPC   H5Y 5364   5.418   2.379   3.134 -0.0309 -0.8470 -3.3217
   65SAPC   C36 5365   5.232   2.429   3.234  0.6900  0.3158 -0.7969
   65SAPC   H6X 5366   5.198   2.323   3.242 -1.1476  1.0262  1.8141
   65SAPC   H6Y 5367   5.141   2.488   3.211 -0.2270 -1.0186 -0.7348
   65SAPC   C37 5368   5.284   2.479   3.365 -0.3229  0.4358 -0.3621
   65SAPC   H7X 5369   5.298   2.589   3.360  2.8293  0.1577  0.1651
   65SAPC   H7Y 5370   5.381   2.427   3.379 -0.9778 -0.7833 -0.1528
   65SAPC   C38 5371   5.174   2.459   3.475  0.4746  0.4010  0.2271
   65SAPC   H8X 5372   5.159   2.353   3.506  0.3131  0.3622  0.0181
   65SAPC   H8Y 5373   5.082   2.514   3.444 -0.3953 -1.1834 -0.1022
   65SAPC   C39 5374   5.226   2.543   3.593 -0.2006 -0.0845  0.5500
   65SAPC   H9X 5375   5.260   2.646   3.569  1.2518 -0.7511 -0.4111
   65SAPC   H9Y 5376   5.307   2.484   3.641 -2.0343 -1.4711  2.1580
   65SAPC  C310 5377   5.126   2.557   3.704 -0.4101  0.5252 -0.0776
   65SAPC  H10X 5378   5.090   2.456   3.731 -2.6739  0.5114 -2.7307
   65SAPC  H10Y 5379   5.033   2.612   3.676  0.8664  2.5910 -0.5329
   65SAPC  C311 5380   5.173   2.621   3.824  0.2736 -0.0826 -0.9062
   65SAPC  H11X 5381   5.233   2.710   3.798  1.4310 -0.0297  1.5984
   65SAPC  H11Y 5382   5.239   2.555   3.885  2.0730  2.3842 -0.0403
   65SAPC  C312 5383   5.064   2.674   3.927  0.7533  0.0109  0.4064
   65SAPC  H12X 5384   5.008   2.592   3.978 -3.2605  1.8679 -0.6489
   65SAPC  H12Y 5385   4.988   2.728   3.867  0.6577 -0.0008  0.5172
   65SAPC  C313 5386   5.132   2.775   4.022  0.2976  0.2194  0.5547
   65SAPC  H13X 5387   5.172   2.854   3.955  1.4433 -1.0239 -0.2671
   65SAPC  H13Y 5388   5.220   2.730   4.074  0.6509  1.1351  0.7685
   65SAPC  C314 5389   5.030   2.842   4.129 -1.1650 -0.0753  0.3161
   65SAPC  H14X 5390   5.021   2.763   4.207  2.2844  1.2063  2.2620
   65SAPC  H14Y 5391   4.935   2.867   4.078 -0.4825  1.2988 -0.3397
   65SAPC  C315 5392   5.084   2.968   4.182 -0.3456  0.3752 -0.1733
   65SAPC  H15X 5393   5.133   3.030   4.105  1.5858 -1.7754 -0.8211
   65SAPC  H15Y 5394   5.160   2.940   4.258 -0.0404 -1.4767 -1.1055
   65SAPC  C316 5395   4.974   3.038   4.264  0.4972 -0.2514 -0.2476
   65SAPC  H16X 5396   4.958   2.981   4.358 -0.5645  1.3386  0.5776
   65SAPC  H16Y 5397   4.876   3.050   4.214  0.0600 -1.2564  0.3487
   65SAPC  C317 5398   5.014   3.182   4.304  0.2861 -0.1409  0.5784
   65SAPC  H17X 5399   5.036   3.242   4.213 -2.5124  0.5279  0.2670
   65SAPC  H17Y 5400   5.105   3.191   4.367  0.3174 -1.1033  0.6859
   65SAPC  C318 5401   4.897   3.255   4.378 -0.4537  0.8878  0.5630
   65SAPC  H18X 5402   4.886   3.223   4.484  2.4704  0.3854  0.7978
   65SAPC  H18Y 5403   4.802   3.245   4.321 -0.4478 -0.4666  0.7541
   65SAPC  H18Z 5404   4.924   3.362   4.379  2.2446  0.3557 -2.1056
   66SAPC     N 5405   1.918   3.461   1.948  0.0089  0.1389 -0.2393
   66SAPC   C12 5406   1.992   3.436   2.080  0.2188 -0.7471  0.0373
   66SAPC  H12A 5407   1.984   3.334   2.113 -0.9571 -0.9719 -0.8696
   66SAPC  H12B 5408   1.946   3.501   2.153  0.9818  1.1934 -1.1101
   66SAPC   C13 5409   1.777   3.405   1.963 -0.2589 -0.5255 -0.7506
   66SAPC  H13A 5410   1.788   3.298   1.957  0.7240 -0.4888  0.1761
   66SAPC  H13B 5411   1.732   3.450   2.050  0.5106 -1.5070  0.1879
   66SAPC  H13C 5412   1.721   3.437   1.877 -4.4457  3.3357  2.9261
   66SAPC   C14 5413   1.902   3.606   1.922  0.1081 -0.5123 -0.0055
   66SAPC  H14A 5414   1.848   3.652   2.003 -0.4915 -0.5358 -0.3838
   66SAPC  H14B 5415   1.999   3.655   1.919  0.0797 -0.2077 -5.0237
   66SAPC  H14C 5416   1.854   3.632   1.829 -0.1969  2.4331  0.8647
   66SAPC   C15 5417   1.983   3.399   1.827 -0.2027 -0.1536 -0.1880
   66SAPC  H15A 5418   2.088   3.420   1.813  0.0250  0.4746  2.0466
   66SAPC  H15B 5419   1.955   3.295   1.831 -0.1630 -0.1918 -0.8150
   66SAPC  H15C 5420   1.936   3.423   1.733 -0.8804 -1.8573 -0.3220
   66SAPC   C11 5421   2.138   3.485   2.081  0.0489  0.1677 -0.8156
   66SAPC  H11A 5422   2.191   3.433   1.999  1.1677  1.7647 -1.1411
   66SAPC  H11B 5423   2.188   3.461   2.178 -1.1306  0.1411 -0.1970
   66SAPC     P 5424   2.130   3.721   2.189 -0.0640  0.4260 -0.1186
   66SAPC   O13 5425   2.267   3.749   2.239 -0.1378 -0.5075  0.3108
   66SAPC   O14 5426   2.036   3.834   2.159 -0.6379  0.0527 -0.0079
   66SAPC   O12 5427   2.142   3.632   2.056 -0.5838 -0.0686  0.5964
   66SAPC   O11 5428   2.064   3.619   2.295  0.0552 -0.1132  0.2216
   66SAPC    C1 5429   2.134   3.592   2.418  0.2402  0.3164  0.0393
   66SAPC    HA 5430   2.101   3.495   2.460  1.2881  0.2140  0.6628
   66SAPC    HB 5431   2.244   3.591   2.402  0.8841 -1.3167  3.6074
   66SAPC    C2 5432   2.111   3.701   2.525  0.2700 -1.0061  0.4269
   66SAPC    HS 5433   2.154   3.797   2.488 -1.6477 -0.4457 -0.4987
   66SAPC   O21 5434   2.164   3.669   2.659 -0.4368 -0.6571 -0.1710
   66SAPC   C21 5435   2.198   3.768   2.734 -0.1015 -0.4906  0.6170
   66SAPC   O22 5436   2.201   3.887   2.701 -0.0099 -0.3683 -0.1870
   66SAPC   C22 5437   2.267   3.700   2.857  0.6100 -0.5461  0.0549
   66SAPC   H2R 5438   2.239   3.593   2.869 -0.1585 -0.3763 -0.1707
   66SAPC   H2S 5439   2.377   3.713   2.857  0.5437  0.8220  3.1741
   66SAPC    C3 5440   1.957   3.738   2.530 -0.5982 -0.1053  0.0593
   66SAPC    HX 5441   1.915   3.641   2.564 -1.6106  0.2040 -0.2605
   66SAPC    HY 5442   1.922   3.757   2.426 -0.1762  0.0841 -0.0506
   66SAPC   O31 5443   1.927   3.838   2.627  0.1174 -0.2779 -0.3347
   66SAPC   C31 5444   1.920   3.967   2.573 -0.0900  0.3979  0.5102
   66SAPC   O32 5445   1.918   3.988   2.451  0.0562 -0.9556  0.1582
   66SAPC   C32 5446   1.896   4.063   2.695 -0.8732 -0.3182  0.1099
   66SAPC   H2X 5447   1.857   4.159   2.655  0.0291  0.8051  1.7730
   66SAPC   H2Y 5448   1.990   4.078   2.753 -0.7986 -1.3812  0.2847
   66SAPC   C23 5449   2.232   3.776   2.987  0.4560  0.3458 -0.7990
   66SAPC   H3R 5450   2.122   3.776   3.001  0.6404  4.3732  2.3326
   66SAPC   H3S 5451   2.258   3.882   2.969  2.2726  0.3137  1.1883
   66SAPC   C24 5452   2.301   3.713   3.114 -0.5832 -0.1658 -0.4947
   66SAPC   H4R 5453   2.256   3.612   3.124  0.3217 -0.3522  3.1099
   66SAPC   H4S 5454   2.268   3.766   3.206 -0.0317 -1.0560  0.2365
   66SAPC   C25 5455   2.454   3.699   3.115  0.1983 -0.0017 -0.4187
   66SAPC   H5R 5456   2.497   3.667   3.019 -1.0585 -0.5466 -0.8106
   66SAPC   C26 5457   2.530   3.694   3.224 -0.3036 -0.0177  0.0109
   66SAPC   H6R 5458   2.639   3.692   3.209  0.2372 -1.3031  3.2580
   66SAPC   C27 5459   2.494   3.703   3.370 -0.1827 -0.4395  0.3255
   66SAPC   H7R 5460   2.411   3.775   3.379  1.3519  1.5746 -0.9103
   66SAPC   H7S 5461   2.579   3.748   3.426  0.6661 -1.1343 -0.3712
   66SAPC   C28 5462   2.447   3.577   3.427 -0.3016  0.5686  0.0450
   66SAPC   H8R 5463   2.392   3.517   3.353  1.1499  0.8785 -1.3403
   66SAPC   C29 5464   2.438   3.545   3.559  0.3517  0.0143 -0.3147
   66SAPC   H9R 5465   2.402   3.446   3.589  2.3253 -1.0604 -1.3434
   66SAPC  C210 5466   2.485   3.628   3.679  0.3617  0.6390  0.3188
   66SAPC  H10R 5467   2.400   3.630   3.749 -0.0490 -0.5323 -0.1289
   66SAPC  H10S 5468   2.504   3.734   3.652 -1.1191  1.3613  1.9954
   66SAPC  C211 5469   2.604   3.563   3.749 -0.2665 -0.4196  0.7205
   66SAPC  H11R 5470   2.701   3.583   3.701 -0.1708  0.0652  1.1087
   66SAPC  C212 5471   2.612   3.479   3.855  0.1786  0.8237  0.3860
   66SAPC  H12R 5472   2.709   3.435   3.882 -1.8148 -3.4591  1.5609
   66SAPC  C213 5473   2.498   3.443   3.944 -0.9119 -0.2940 -0.3872
   66SAPC  H13R 5474   2.478   3.337   3.916  0.8875 -0.5938 -0.6393
   66SAPC  H13S 5475   2.405   3.503   3.936 -0.1597  1.5769  2.9642
   66SAPC  C214 5476   2.534   3.456   4.090 -0.6366 -0.1845  0.6525
   66SAPC  H14R 5477   2.605   3.532   4.125 -0.7531  0.1352  0.1999
   66SAPC  C215 5478   2.459   3.390   4.183 -0.5664 -0.1455 -0.2782
   66SAPC  H15R 5479   2.478   3.413   4.289  1.8207 -0.7026 -0.5434
   66SAPC  C216 5480   2.345   3.286   4.168  0.0598 -0.4730  0.0072
   66SAPC  H16R 5481   2.364   3.234   4.072 -0.0567  0.8413 -0.7545
   66SAPC  H16S 5482   2.247   3.339   4.166 -0.7507 -1.8724  0.5519
   66SAPC  C217 5483   2.332   3.186   4.284 -0.2765  0.0766 -0.0490
   66SAPC  H17R 5484   2.321   3.244   4.378  2.4358 -1.6228  1.4129
   66SAPC  H17S 5485   2.425   3.129   4.302 -1.4002 -1.2123  2.0187
   66SAPC  C218 5486   2.217   3.099   4.263  1.1007  0.1377 -0.4256
   66SAPC  H18R 5487   2.240   3.010   4.202  0.2731 -0.1553 -0.3267
   66SAPC  H18S 5488   2.125   3.140   4.216  1.4101 -1.6703 -2.7456
   66SAPC  C219 5489   2.169   3.046   4.400 -0.0847  0.6703 -0.3541
   66SAPC  H19R 5490   2.150   3.125   4.475  1.8799  1.6466 -0.8325
   66SAPC  H19S 5491   2.248   2.981   4.443 -0.1405  0.8878  0.0797
   66SAPC  C220 5492   2.036   2.964   4.389 -0.2445  0.2890  0.0811
   66SAPC  H20R 5493   2.019   2.912   4.486  2.4249 -0.1444  0.3918
   66SAPC  H20S 5494   2.043   2.888   4.309  0.7322  0.8823 -0.4174
   66SAPC  H20T 5495   1.956   3.036   4.363 -0.4977  0.4337  1.2329
   66SAPC   C33 5496   1.784   4.008   2.782 -0.0460 -0.7684  0.2188
   66SAPC   H3X 5497   1.826   4.005   2.884 -2.0784 -1.2372  1.0800
   66SAPC   H3Y 5498   1.736   3.919   2.736 -2.4748  0.7033 -0.2307
   66SAPC   C34 5499   1.665   4.112   2.798 -0.8044 -0.1293  0.4133
   66SAPC   H4X 5500   1.619   4.107   2.697  0.7856  1.0410 -0.4068
   66SAPC   H4Y 5501   1.693   4.216   2.825 -2.1580  0.1921  0.6475
   66SAPC   C35 5502   1.544   4.063   2.881 -0.2073  0.1046 -0.2467
   66SAPC   H5X 5503   1.512   3.975   2.820 -1.8730  1.5522 -1.5741
   66SAPC   H5Y 5504   1.456   4.131   2.876  0.4505  1.2394  2.2537
   66SAPC   C36 5505   1.575   4.043   3.030  0.2283  0.5910  0.8878
   66SAPC   H6X 5506   1.654   3.964   3.036  0.0684  0.2495 -1.0255
   66SAPC   H6Y 5507   1.485   3.996   3.074  1.8863 -2.6879  1.0884
   66SAPC   C37 5508   1.606   4.177   3.102  0.2785  0.3059  0.1697
   66SAPC   H7X 5509   1.521   4.248   3.094  0.9364  0.9639 -1.4485
   66SAPC   H7Y 5510   1.687   4.230   3.048 -1.0843  1.7304 -0.5700
   66SAPC   C38 5511   1.643   4.149   3.250  0.2913  0.1385 -0.0852
   66SAPC   H8X 5512   1.655   4.246   3.302 -1.5415  1.4701 -1.9721
   66SAPC   H8Y 5513   1.738   4.094   3.266  0.5095  0.9485  1.5790
   66SAPC   C39 5514   1.528   4.080   3.330  0.1423  0.5399 -0.1935
   66SAPC   H9X 5515   1.525   3.973   3.299  0.5121  0.1914  0.9335
   66SAPC   H9Y 5516   1.429   4.128   3.314  0.2179  0.8406  0.2147
   66SAPC  C310 5517   1.546   4.080   3.484 -0.1423  0.1859  1.2603
   66SAPC  H10X 5518   1.467   4.019   3.533  0.5890 -2.6012 -0.8190
   66SAPC  H10Y 5519   1.556   4.185   3.520 -0.3994  1.2413 -1.5120
   66SAPC  C311 5520   1.673   4.002   3.522 -0.6131 -0.9615  0.1534
   66SAPC  H11X 5521   1.756   4.052   3.468 -1.6586 -0.2472 -0.8107
   66SAPC  H11Y 5522   1.668   3.899   3.479  1.7965 -1.7352  1.5052
   66SAPC  C312 5523   1.709   3.998   3.672 -0.4815  0.6414 -0.1449
   66SAPC  H12X 5524   1.803   3.939   3.670 -0.4366  0.6962  0.4541
   66SAPC  H12Y 5525   1.628   3.949   3.730  0.5624 -1.5661 -0.4247
   66SAPC  C313 5526   1.716   4.138   3.735  0.1875 -0.2073  0.5233
   66SAPC  H13X 5527   1.611   4.176   3.743  0.3122 -0.0776  1.6712
   66SAPC  H13Y 5528   1.766   4.198   3.656 -2.8192  1.1882 -0.5164
   66SAPC  C314 5529   1.771   4.139   3.877 -0.1257  0.4057 -0.5823
   66SAPC  H14X 5530   1.870   4.090   3.884  0.1934  0.8213 -1.8624
   66SAPC  H14Y 5531   1.704   4.082   3.945 -2.2937  1.5861 -1.6012
   66SAPC  C315 5532   1.791   4.279   3.933 -0.4159 -0.0832  1.2749
   66SAPC  H15X 5533   1.693   4.329   3.923 -1.1711 -1.3423  2.0058
   66SAPC  H15Y 5534   1.873   4.325   3.873 -1.2041  0.0211  0.2569
   66SAPC  C316 5535   1.831   4.283   4.080 -0.8306  0.1678  0.0268
   66SAPC  H16X 5536   1.915   4.211   4.092 -0.4389  0.4444 -0.9733
   66SAPC  H16Y 5537   1.747   4.255   4.147  0.1259  0.0769  1.2287
   66SAPC  C317 5538   1.886   4.424   4.116  0.9536  0.0923 -0.2129
   66SAPC  H17X 5539   1.821   4.500   4.069  0.1993  0.8060  1.8654
   66SAPC  H17Y 5540   1.990   4.441   4.080  0.2149  0.2786 -2.4018
   66SAPC  C318 5541   1.883   4.442   4.269  0.9877 -0.3235 -0.1370
   66SAPC  H18X 5542   1.780   4.423   4.305 -0.3168  1.4586 -2.6140
   66SAPC  H18Y 5543   1.901   4.552   4.273 -1.7436  0.3056 -2.1665
   66SAPC  H18Z 5544   1.949   4.371   4.324  1.9093  0.4215 -0.2503
   67SAPC     N 5545   6.755   4.624   2.089 -0.5469 -0.0074  0.2442
   67SAPC   C12 5546   6.708   4.562   2.218 -0.0724  0.5338 -0.0536
   67SAPC  H12A 5547   6.611   4.517   2.209 -0.1227  0.6807 -0.2473
   67SAPC  H12B 5548   6.700   4.643   2.290  0.7933  1.0290 -0.4970
   67SAPC   C13 5549   6.649   4.718   2.047 -0.2140 -0.1727 -0.6063
   67SAPC  H13A 5550   6.675   4.770   1.956 -0.7659 -2.0592 -1.9220
   67SAPC  H13B 5551   6.555   4.667   2.029 -1.4403  2.1039 -1.0053
   67SAPC  H13C 5552   6.642   4.783   2.133  2.7987 -1.6973  0.9583
   67SAPC   C14 5553   6.880   4.705   2.109 -0.2017 -0.1940 -0.3937
   67SAPC  H14A 5554   6.848   4.782   2.177 -0.6676 -0.4375 -0.3341
   67SAPC  H14B 5555   6.955   4.643   2.156 -1.0436 -0.8427  0.1197
   67SAPC  H14C 5556   6.930   4.738   2.020  0.0172  0.1884 -0.1325
   67SAPC   C15 5557   6.784   4.528   1.979 -0.1684 -0.0096  0.1199
   67SAPC  H15A 5558   6.867   4.467   2.011 -0.8449 -1.0667 -0.0779
   67SAPC  H15B 5559   6.698   4.474   1.942 -0.3563 -0.5848  1.3616
   67SAPC  H15C 5560   6.822   4.581   1.893 -0.8049  0.6248  0.2211
   67SAPC   C11 5561   6.791   4.440   2.272 -0.0578 -0.3968 -0.6188
   67SAPC  H11A 5562   6.760   4.421   2.377  0.1795  0.3959 -0.3993
   67SAPC  H11B 5563   6.899   4.463   2.272  0.0767 -1.0191 -1.0713
   67SAPC     P 5564   6.640   4.245   2.193 -0.1822  0.0997  0.3449
   67SAPC   O13 5565   6.523   4.326   2.156  0.2288 -0.3344  0.3343
   67SAPC   O14 5566   6.661   4.117   2.124 -0.4733 -0.4365  0.5869
   67SAPC   O12 5567   6.771   4.328   2.186  0.0475  0.5520  0.0769
   67SAPC   O11 5568   6.625   4.215   2.343 -0.0576 -0.5071 -0.3627
   67SAPC    C1 5569   6.708   4.150   2.438  0.3922  0.1463  0.0884
   67SAPC    HA 5570   6.708   4.043   2.409 -1.1663  0.5338 -1.5990
   67SAPC    HB 5571   6.813   4.185   2.443  0.8427 -1.3635  2.8682
   67SAPC    C2 5572   6.660   4.160   2.584 -0.5119 -0.2279 -0.0407
   67SAPC    HS 5573   6.549   4.160   2.592 -0.5949  0.5154 -1.0040
   67SAPC   O21 5574   6.716   4.279   2.643 -0.6588  0.1288 -0.2930
   67SAPC   C21 5575   6.638   4.386   2.654 -0.5485 -0.3046 -0.0008
   67SAPC   O22 5576   6.518   4.388   2.620 -0.1978 -0.3315 -0.2326
   67SAPC   C22 5577   6.718   4.507   2.707  0.0054 -0.4374 -0.2409
   67SAPC   H2R 5578   6.736   4.479   2.813 -0.2154 -0.7486 -0.2844
   67SAPC   H2S 5579   6.816   4.509   2.654  0.5228 -0.5462  0.6820
   67SAPC    C3 5580   6.702   4.036   2.667 -0.6535 -0.4596  0.2574
   67SAPC    HX 5581   6.812   4.043   2.656 -0.8473  0.5604 -1.2961
   67SAPC    HY 5582   6.671   3.937   2.628  0.4191 -1.2901  1.4410
   67SAPC   O31 5583   6.667   4.037   2.809 -0.7328 -0.1705 -0.2845
   67SAPC   C31 5584   6.537   4.014   2.834  0.2556 -0.0191  0.6890
   67SAPC   O32 5585   6.451   3.990   2.749 -0.1669 -0.0904 -0.2522
   67SAPC   C32 5586   6.504   4.040   2.983 -0.5798  0.0011  1.0928
   67SAPC   H2X 5587   6.489   4.150   2.988  1.2412  0.2580  1.8195
   67SAPC   H2Y 5588   6.589   4.016   3.051  0.6171  0.2220 -0.2707
   67SAPC   C23 5589   6.645   4.644   2.698  0.1403 -0.0286  0.7258
   67SAPC   H3R 5590   6.606   4.667   2.596 -1.3627  1.2416  1.5401
   67SAPC   H3S 5591   6.707   4.731   2.727  1.0874  0.6856 -2.8802
   67SAPC   C24 5592   6.518   4.646   2.798 -0.2306  0.0433 -0.2060
   67SAPC   H4R 5593   6.453   4.560   2.772  1.4359 -1.2199 -0.3791
   67SAPC   H4S 5594   6.455   4.732   2.768 -1.9425 -1.7550 -2.0542
   67SAPC   C25 5595   6.553   4.632   2.943  0.1095  0.5341  0.4704
   67SAPC   H5R 5596   6.641   4.569   2.964 -0.8970 -1.1528 -0.1477
   67SAPC   C26 5597   6.482   4.683   3.047  0.4426  0.8618 -0.0265
   67SAPC   H6R 5598   6.528   4.682   3.146  0.9422 -0.0870 -0.2578
   67SAPC   C27 5599   6.367   4.778   3.034 -0.5619  0.8294  0.8300
   67SAPC   H7R 5600   6.295   4.754   3.115  1.2675 -0.0953  2.2573
   67SAPC   H7S 5601   6.314   4.763   2.938  0.3323 -0.3658  0.5054
   67SAPC   C28 5602   6.418   4.920   3.032 -0.0425  0.9358  0.1306
   67SAPC   H8R 5603   6.501   4.936   2.962  2.1081  0.6620  2.4712
   67SAPC   C29 5604   6.375   5.015   3.111 -1.1772 -0.4637  0.0608
   67SAPC   H9R 5605   6.423   5.113   3.096 -2.2853 -0.1463 -1.7114
   67SAPC  C210 5606   6.266   5.022   3.217  0.4889  0.6175 -0.2795
   67SAPC  H10R 5607   6.298   4.965   3.307  1.5775  0.8630 -0.4984
   67SAPC  H10S 5608   6.178   4.965   3.180 -0.9003  3.0580 -0.9420
   67SAPC  C211 5609   6.223   5.158   3.263  0.5877 -0.5451 -0.3278
   67SAPC  H11R 5610   6.144   5.204   3.202  0.8873 -1.1725 -1.2157
   67SAPC  C212 5611   6.265   5.227   3.374  0.3285  0.3304 -0.5028
   67SAPC  H12R 5612   6.226   5.326   3.401  1.1263 -0.1233  2.6941
   67SAPC  C213 5613   6.366   5.174   3.475 -1.2422 -0.4242 -0.3738
   67SAPC  H13R 5614   6.461   5.226   3.452 -1.8822  1.1250  0.3347
   67SAPC  H13S 5615   6.391   5.068   3.457 -1.2222 -0.7028  1.1735
   67SAPC  C214 5616   6.328   5.203   3.616 -0.2713 -0.3315 -0.1622
   67SAPC  H14R 5617   6.232   5.154   3.639 -0.3866  0.1191  0.3078
   67SAPC  C215 5618   6.411   5.242   3.718 -0.0573  0.5053 -0.1747
   67SAPC  H15R 5619   6.363   5.235   3.816  0.3715 -0.4976 -0.0246
   67SAPC  C216 5620   6.562   5.284   3.723  0.0119 -0.0309 -0.4950
   67SAPC  H16R 5621   6.573   5.386   3.766  0.0966  0.0716 -0.7607
   67SAPC  H16S 5622   6.607   5.286   3.621  0.2353 -0.6798 -0.4090
   67SAPC  C217 5623   6.653   5.188   3.804 -0.0782  0.0420  0.3577
   67SAPC  H17R 5624   6.756   5.229   3.819 -1.1204  2.0580  2.6417
   67SAPC  H17S 5625   6.675   5.117   3.722  1.6227  1.8364 -0.8596
   67SAPC  C218 5626   6.607   5.115   3.933 -0.7181  0.0358 -0.2493
   67SAPC  H18R 5627   6.504   5.073   3.926 -0.2065 -1.5931  1.2191
   67SAPC  H18S 5628   6.602   5.193   4.012  0.1638  0.5426 -0.6784
   67SAPC  C219 5629   6.705   5.007   3.956 -0.6348  0.4506 -0.1630
   67SAPC  H19R 5630   6.812   5.037   3.951 -0.3620 -0.6626 -1.5596
   67SAPC  H19S 5631   6.681   4.933   3.877  1.7254  1.4079 -1.8987
   67SAPC  C220 5632   6.683   4.930   4.088 -0.0377  0.1103 -0.3089
   67SAPC  H20R 5633   6.687   5.006   4.170 -0.1377  0.9944 -1.1041
   67SAPC  H20S 5634   6.755   4.847   4.106 -1.2248 -1.3173 -1.8797
   67SAPC  H20T 5635   6.587   4.875   4.079  0.9014 -1.4565 -1.0880
   67SAPC   C33 5636   6.383   3.951   3.023 -0.5916  0.4461  0.0545
   67SAPC   H3X 5637   6.408   3.846   2.996  0.9456  0.7774  0.0992
   67SAPC   H3Y 5638   6.284   3.967   2.976 -0.7192 -0.5754 -0.0437
   67SAPC   C34 5639   6.352   3.960   3.170 -0.8448  0.5031  0.2573
   67SAPC   H4X 5640   6.317   4.064   3.188  0.7349  1.0516  0.2991
   67SAPC   H4Y 5641   6.444   3.932   3.225 -2.1390 -1.9928  1.3148
   67SAPC   C35 5642   6.246   3.864   3.213  0.3078  0.1498 -0.7773
   67SAPC   H5X 5643   6.217   3.797   3.129  1.3444 -1.7544  0.3194
   67SAPC   H5Y 5644   6.154   3.920   3.243  0.6734  0.6095 -0.5097
   67SAPC   C36 5645   6.285   3.772   3.332  0.4123 -0.6992  0.4428
   67SAPC   H6X 5646   6.383   3.728   3.302 -0.0962 -1.1543 -0.6057
   67SAPC   H6Y 5647   6.216   3.685   3.344  0.7567 -1.1393 -0.6540
   67SAPC   C37 5648   6.283   3.837   3.471 -0.4749  0.1512 -0.8533
   67SAPC   H7X 5649   6.175   3.848   3.494 -0.3303 -1.1905  0.7073
   67SAPC   H7Y 5650   6.340   3.932   3.472 -0.9289  0.4312 -1.2504
   67SAPC   C38 5651   6.337   3.757   3.586  0.0612  0.3424  0.3995
   67SAPC   H8X 5652   6.439   3.732   3.552  0.3301  0.4299  1.1077
   67SAPC   H8Y 5653   6.286   3.662   3.612 -1.7670  0.5181 -2.2128
   67SAPC   C39 5654   6.350   3.834   3.713  0.1564  0.1176 -0.7756
   67SAPC   H9X 5655   6.253   3.879   3.745 -0.3776 -1.8202  0.5154
   67SAPC   H9Y 5656   6.425   3.916   3.704 -0.3979  0.6577 -0.5653
   67SAPC  C310 5657   6.389   3.746   3.827  0.0074 -0.6091  0.0004
   67SAPC  H10X 5658   6.323   3.657   3.822 -2.8672  1.4186 -0.7146
   67SAPC  H10Y 5659   6.374   3.794   3.927 -1.2730 -0.4920 -0.2348
   67SAPC  C311 5660   6.533   3.688   3.818  0.0863  0.2106 -0.0031
   67SAPC  H11X 5661   6.546   3.654   3.713 -3.9880  0.6641 -0.7890
   67SAPC  H11Y 5662   6.540   3.605   3.892  1.5270  0.3586  0.0652
   67SAPC  C312 5663   6.646   3.788   3.861 -0.2251  0.2353  0.3810
   67SAPC  H12X 5664   6.613   3.813   3.964 -5.3425 -1.1372 -0.6426
   67SAPC  H12Y 5665   6.629   3.876   3.796  1.9545  0.3581 -0.0767
   67SAPC  C313 5666   6.787   3.729   3.863 -0.0131 -0.3860  0.3579
   67SAPC  H13X 5667   6.796   3.661   3.951 -0.4872  0.6169  1.2038
   67SAPC  H13Y 5668   6.859   3.812   3.883 -1.9318  1.2431  0.9058
   67SAPC  C314 5669   6.825   3.661   3.733 -0.1189  0.4387 -0.3201
   67SAPC  H14X 5670   6.859   3.735   3.657  2.4186  0.0225  0.3021
   67SAPC  H14Y 5671   6.738   3.595   3.713 -0.6176  1.1940 -0.6830
   67SAPC  C315 5672   6.943   3.557   3.764 -0.2096  0.2975  0.0780
   67SAPC  H15X 5673   6.896   3.488   3.837 -0.6525 -2.4250 -2.5459
   67SAPC  H15Y 5674   7.024   3.611   3.817  0.5081 -1.5438  0.9042
   67SAPC  C316 5675   6.987   3.480   3.636 -0.8323 -0.4983 -0.4986
   67SAPC  H16X 5676   6.898   3.436   3.586 -1.0915 -0.2228 -0.2848
   67SAPC  H16Y 5677   7.066   3.407   3.662  0.7317  1.8703  1.9093
   67SAPC  C317 5678   7.055   3.565   3.522 -0.2346 -0.1695  0.1787
   67SAPC  H17X 5679   7.138   3.622   3.570 -0.8870  0.2860  0.7790
   67SAPC  H17Y 5680   6.966   3.621   3.487 -0.3767 -1.5533 -1.8265
   67SAPC  C318 5681   7.105   3.483   3.404  0.5432 -1.0421 -0.9717
   67SAPC  H18X 5682   7.142   3.388   3.449 -2.2081 -1.3993  0.7716
   67SAPC  H18Y 5683   7.188   3.534   3.351  0.9814 -0.7685 -0.0456
   67SAPC  H18Z 5684   7.021   3.464   3.333 -1.4433 -1.5337  1.3679
   68SAPC     N 5685   0.835   2.896   1.868 -0.1956 -0.1417 -0.0931
   68SAPC   C12 5686   0.872   2.987   1.990 -0.0565  0.2128  0.2186
   68SAPC  H12A 5687   0.950   3.049   1.951  1.4258 -0.9101  1.2752
   68SAPC  H12B 5688   0.915   2.924   2.067 -1.9901  0.0878  1.2567
   68SAPC   C13 5689   0.965   2.855   1.803 -0.1934 -0.0412 -0.7749
   68SAPC  H13A 5690   1.036   2.936   1.806 -0.8923  0.5489  1.4032
   68SAPC  H13B 5691   1.004   2.771   1.858  0.3262  1.4572  1.2443
   68SAPC  H13C 5692   0.945   2.843   1.697 -1.7209 -0.2711 -0.4912
   68SAPC   C14 5693   0.764   2.773   1.911 -0.0470 -0.4090  0.1929
   68SAPC  H14A 5694   0.663   2.802   1.935  0.4644  1.4600  0.2177
   68SAPC  H14B 5695   0.755   2.709   1.825  2.6742  0.4511 -0.8460
   68SAPC  H14C 5696   0.824   2.725   1.987 -0.1665 -0.3531  0.3236
   68SAPC   C15 5697   0.752   2.970   1.766  0.0009 -0.4186  0.3190
   68SAPC  H15A 5698   0.802   3.061   1.732  1.6243 -1.8809 -1.4833
   68SAPC  H15B 5699   0.738   2.900   1.685  2.7157 -2.8577  1.7494
   68SAPC  H15C 5700   0.658   2.996   1.811 -0.3263  0.9129 -1.0381
   68SAPC   C11 5701   0.768   3.074   2.053 -0.0739 -0.0891 -0.0219
   68SAPC  H11A 5702   0.819   3.106   2.147  1.3619  1.4887 -1.2678
   68SAPC  H11B 5703   0.686   3.005   2.081  0.2303 -0.5415 -0.2168
   68SAPC     P 5704   0.600   3.266   2.015  0.2422  0.7678 -0.4107
   68SAPC   O13 5705   0.591   3.387   1.929 -0.0469  0.1600  0.2865
   68SAPC   O14 5706   0.485   3.171   2.014 -0.1482  0.4696  0.2237
   68SAPC   O12 5707   0.732   3.189   1.971  0.3857  0.4540 -0.0871
   68SAPC   O11 5708   0.631   3.300   2.161  0.2039 -0.2938  0.5338
   68SAPC    C1 5709   0.733   3.396   2.185  0.1521  0.3107  0.2316
   68SAPC    HA 5710   0.834   3.349   2.187  0.1220  0.2555  0.5300
   68SAPC    HB 5711   0.738   3.478   2.110  1.8820  0.1624  0.1455
   68SAPC    C2 5712   0.703   3.475   2.326  0.3153  0.1151 -0.6968
   68SAPC    HS 5713   0.763   3.568   2.336 -1.3244  1.2558 -1.1237
   68SAPC   O21 5714   0.708   3.383   2.438 -0.6155  0.1310 -0.5018
   68SAPC   C21 5715   0.841   3.363   2.474 -0.5368  0.2216 -0.0643
   68SAPC   O22 5716   0.938   3.413   2.415  0.2036  0.0564 -0.0276
   68SAPC   C22 5717   0.861   3.263   2.580  0.4136  0.5503 -0.1411
   68SAPC   H2R 5718   0.811   3.168   2.551 -1.1593  1.4184 -0.4237
   68SAPC   H2S 5719   0.968   3.238   2.599  0.2017 -0.4846 -0.2483
   68SAPC    C3 5720   0.550   3.524   2.323 -0.0060  0.2981  0.0596
   68SAPC    HX 5721   0.498   3.448   2.260 -0.6732  1.6932 -1.1352
   68SAPC    HY 5722   0.554   3.616   2.261  1.1497  0.8514  0.9153
   68SAPC   O31 5723   0.490   3.558   2.451  0.6151  0.3038 -0.1120
   68SAPC   C31 5724   0.426   3.457   2.508  0.2376 -0.3710  0.2591
   68SAPC   O32 5725   0.428   3.341   2.474  0.3719 -0.0642  0.1791
   68SAPC   C32 5726   0.368   3.516   2.638  0.2489  0.0091  0.4827
   68SAPC   H2X 5727   0.319   3.611   2.607 -0.7984  0.2808  2.7562
   68SAPC   H2Y 5728   0.459   3.554   2.688  2.5255  0.2816 -3.4714
   68SAPC   C23 5729   0.794   3.315   2.711  0.5520  0.4470  1.1534
   68SAPC   H3R 5730   0.770   3.236   2.785  0.7274 -1.4362 -0.7061
   68SAPC   H3S 5731   0.687   3.343   2.705  0.2045 -1.0936 -1.8975
   68SAPC   C24 5732   0.869   3.434   2.778 -0.0929 -0.0861  0.1396
   68SAPC   H4R 5733   0.812   3.474   2.863  2.2566 -1.2975  2.4266
   68SAPC   H4S 5734   0.887   3.514   2.703 -0.5041 -0.0071  0.1259
   68SAPC   C25 5735   1.003   3.386   2.826 -0.2173 -0.0933 -0.9035
   68SAPC   H5R 5736   1.082   3.367   2.753 -0.1049  1.6051 -1.2625
   68SAPC   C26 5737   1.044   3.373   2.958  0.0213 -0.5422  0.9761
   68SAPC   H6R 5738   1.149   3.347   2.978 -0.1401 -1.3579  0.7788
   68SAPC   C27 5739   0.959   3.416   3.075  0.0388 -0.1090  0.3086
   68SAPC   H7R 5740   0.867   3.354   3.071 -0.2396  0.3540 -0.6963
   68SAPC   H7S 5741   0.915   3.516   3.061 -0.4506 -0.3861 -0.1352
   68SAPC   C28 5742   1.025   3.384   3.209  0.3704 -0.2265  0.0512
   68SAPC   H8R 5743   1.028   3.276   3.229  1.5424 -0.3979 -0.9613
   68SAPC   C29 5744   1.088   3.467   3.296  0.3906 -0.1206 -0.9765
   68SAPC   H9R 5745   1.137   3.425   3.385 -0.2591 -1.2467 -1.1268
   68SAPC  C210 5746   1.088   3.614   3.274 -0.0579  0.8219 -0.2328
   68SAPC  H10R 5747   1.041   3.653   3.367  1.7962  0.5501  0.8583
   68SAPC  H10S 5748   1.010   3.637   3.198 -0.4192 -2.0030 -0.8539
   68SAPC  C211 5749   1.220   3.673   3.229 -1.1738  0.2629 -0.1714
   68SAPC  H11R 5750   1.210   3.731   3.136  2.6165  0.9855 -0.2903
   68SAPC  C212 5751   1.344   3.660   3.282  0.7717  0.4358 -0.7098
   68SAPC  H12R 5752   1.426   3.717   3.236  2.6852 -0.2201  1.6727
   68SAPC  C213 5753   1.378   3.591   3.410  0.2637  0.8944  0.1406
   68SAPC  H13R 5754   1.468   3.532   3.383 -0.3915  0.3027 -0.8015
   68SAPC  H13S 5755   1.306   3.514   3.445 -1.8785  2.5662 -0.4361
   68SAPC  C214 5756   1.417   3.683   3.520  0.0272 -0.6790  0.2850
   68SAPC  H14R 5757   1.371   3.782   3.510 -1.0153 -1.1943 -0.1759
   68SAPC  C215 5758   1.504   3.660   3.627 -0.5445 -0.5425 -0.2335
   68SAPC  H15R 5759   1.524   3.746   3.693 -0.4133  1.1700 -2.3783
   68SAPC  C216 5760   1.563   3.526   3.662  0.4398 -0.6779  0.1277
   68SAPC  H16R 5761   1.669   3.527   3.631  0.4301 -4.8935 -0.6249
   68SAPC  H16S 5762   1.506   3.441   3.618  2.2050 -0.4011 -2.9765
   68SAPC  C217 5763   1.577   3.521   3.822 -0.0637 -0.3631 -0.5342
   68SAPC  H17R 5764   1.651   3.598   3.850 -1.6304  0.4812  1.5878
   68SAPC  H17S 5765   1.630   3.428   3.852  0.0298 -0.7810 -1.9133
   68SAPC  C218 5766   1.434   3.546   3.897 -0.1466  0.3333 -0.3110
   68SAPC  H18R 5767   1.359   3.493   3.834  0.4682 -2.1569  0.9123
   68SAPC  H18S 5768   1.416   3.655   3.908  0.6680  0.5490 -1.0055
   68SAPC  C219 5769   1.434   3.489   4.043 -0.0724 -0.2471 -0.0349
   68SAPC  H19R 5770   1.468   3.384   4.033  1.1600  0.2433 -1.1929
   68SAPC  H19S 5771   1.329   3.482   4.081 -0.3688 -1.2025 -0.9689
   68SAPC  C220 5772   1.530   3.568   4.137 -0.8532  0.3370 -0.6235
   68SAPC  H20R 5773   1.512   3.675   4.115  2.5079  1.6049  1.9620
   68SAPC  H20S 5774   1.633   3.544   4.103 -1.8677 -1.8963 -2.4384
   68SAPC  H20T 5775   1.527   3.544   4.245 -1.6578  0.4511 -0.6114
   68SAPC   C33 5776   0.275   3.419   2.725  0.8166 -0.3353  0.7283
   68SAPC   H3X 5777   0.229   3.349   2.652 -0.0493 -0.4043  1.3290
   68SAPC   H3Y 5778   0.192   3.478   2.768 -0.1379  0.2995 -1.7858
   68SAPC   C34 5779   0.360   3.335   2.820  0.2771  0.2185 -0.1988
   68SAPC   H4X 5780   0.433   3.278   2.758  0.7623  1.0592 -0.4267
   68SAPC   H4Y 5781   0.295   3.261   2.871 -1.1634  0.6890 -1.2917
   68SAPC   C35 5782   0.434   3.415   2.929 -0.8724  0.4559  0.0372
   68SAPC   H5X 5783   0.362   3.479   2.985 -1.1628 -0.3609  0.6148
   68SAPC   H5Y 5784   0.508   3.479   2.877  0.1933 -0.5539  0.2670
   68SAPC   C36 5785   0.498   3.330   3.039  0.1443 -0.6122 -0.0218
   68SAPC   H6X 5786   0.568   3.260   2.989 -2.1566 -1.7683 -1.7899
   68SAPC   H6Y 5787   0.417   3.278   3.094  0.0899  1.5393  2.0907
   68SAPC   C37 5788   0.572   3.419   3.140 -0.2352  0.2825  0.9177
   68SAPC   H7X 5789   0.504   3.504   3.165  2.3047  2.6766  0.1636
   68SAPC   H7Y 5790   0.660   3.467   3.092  0.4916  0.5651  2.4826
   68SAPC   C38 5791   0.608   3.353   3.269  0.0011 -0.3107  0.3875
   68SAPC   H8X 5792   0.683   3.274   3.248  2.7079  2.1507  0.3021
   68SAPC   H8Y 5793   0.521   3.300   3.315 -0.5177 -0.6653 -0.9209
   68SAPC   C39 5794   0.673   3.446   3.374 -0.5061  0.3400  0.4369
   68SAPC   H9X 5795   0.596   3.510   3.421 -0.6020  0.4366  0.1535
   68SAPC   H9Y 5796   0.746   3.507   3.317 -0.9226  1.2838  0.8938
   68SAPC  C310 5797   0.756   3.367   3.473  0.4276 -1.1447 -0.2011
   68SAPC  H10X 5798   0.850   3.336   3.423  0.1554 -1.5274 -0.4830
   68SAPC  H10Y 5799   0.705   3.278   3.516  1.4858 -0.9588  1.5793
   68SAPC  C311 5800   0.794   3.456   3.592  0.1395 -0.7497  0.2556
   68SAPC  H11X 5801   0.701   3.458   3.652 -3.1131 -0.9063 -4.3336
   68SAPC  H11Y 5802   0.820   3.560   3.564  0.1006 -0.9154 -0.4019
   68SAPC  C312 5803   0.918   3.400   3.659 -0.2010  0.8071 -1.1489
   68SAPC  H12X 5804   1.011   3.416   3.600  0.0751 -1.6602 -1.5050
   68SAPC  H12Y 5805   0.903   3.290   3.673  0.2222  1.0174  1.3875
   68SAPC  C313 5806   0.934   3.460   3.807  0.1255 -0.9794  0.3890
   68SAPC  H13X 5807   1.003   3.398   3.868  1.5609 -1.1322 -1.2896
   68SAPC  H13Y 5808   0.831   3.467   3.845  1.2992 -0.4407  3.7779
   68SAPC  C314 5809   0.995   3.600   3.812 -0.1195  0.0152 -0.0762
   68SAPC  H14X 5810   0.957   3.650   3.720  0.3317  0.2230 -0.1577
   68SAPC  H14Y 5811   1.103   3.593   3.784 -0.3010  1.0142 -1.1176
   68SAPC  C315 5812   0.975   3.680   3.942  0.1900  0.1884  0.4312
   68SAPC  H15X 5813   0.868   3.666   3.968  0.1683 -0.5402 -0.0157
   68SAPC  H15Y 5814   1.001   3.784   3.915  0.4099 -0.6481 -3.1141
   68SAPC  C316 5815   1.071   3.634   4.048 -0.2262 -0.3221  0.9694
   68SAPC  H16X 5816   1.171   3.642   3.999 -0.9260  0.6621 -0.3775
   68SAPC  H16Y 5817   1.054   3.525   4.055 -1.4575 -0.3270 -1.2312
   68SAPC  C317 5818   1.054   3.709   4.182 -0.8678  0.8728 -0.2099
   68SAPC  H17X 5819   0.956   3.687   4.230 -0.6053  0.2371  0.0440
   68SAPC  H17Y 5820   1.031   3.817   4.169  1.8894  1.5772  0.2391
   68SAPC  C318 5821   1.173   3.684   4.284  0.3133 -0.1942  0.0197
   68SAPC  H18X 5822   1.270   3.710   4.237  0.8963  0.9856  1.7896
   68SAPC  H18Y 5823   1.173   3.577   4.315 -2.6285  0.0661  1.1828
   68SAPC  H18Z 5824   1.150   3.749   4.370  1.0673 -0.3856  0.3729
   69SAPC     N 5825   6.455   0.485   1.737 -0.1437  0.0773  0.3707
   69SAPC   C12 5826   6.563   0.391   1.800 -0.7515 -0.2724  0.9021
   69SAPC  H12A 5827   6.622   0.351   1.720 -1.3174 -2.7578  1.6491
   69SAPC  H12B 5828   6.511   0.309   1.847  0.2779 -2.0701 -0.9716
   69SAPC   C13 5829   6.357   0.431   1.640  0.1694  0.3913 -0.2032
   69SAPC  H13A 5830   6.297   0.506   1.590 -0.8036 -1.3979 -1.8411
   69SAPC  H13B 5831   6.411   0.390   1.557 -1.6492  1.1554 -1.8380
   69SAPC  H13C 5832   6.294   0.357   1.688  0.8616 -0.1617 -0.1320
   69SAPC   C14 5833   6.367   0.547   1.842 -1.0214 -0.3365  0.6879
   69SAPC  H14A 5834   6.418   0.633   1.883 -2.4954  1.1812 -0.4985
   69SAPC  H14B 5835   6.284   0.595   1.793 -0.0908 -0.9338 -1.6331
   69SAPC  H14C 5836   6.337   0.477   1.918 -1.7826 -0.5512  0.2001
   69SAPC   C15 5837   6.520   0.593   1.670 -0.5025 -0.4995  0.4309
   69SAPC  H15A 5838   6.444   0.666   1.647 -0.2459  0.0151  1.1714
   69SAPC  H15B 5839   6.596   0.635   1.733  0.6285 -2.4641  0.4601
   69SAPC  H15C 5840   6.570   0.560   1.580 -0.9696  0.3726 -0.1575
   69SAPC   C11 5841   6.658   0.448   1.897  0.1663  0.6866 -0.3604
   69SAPC  H11A 5842   6.718   0.368   1.946  0.4215  0.8832 -0.3509
   69SAPC  H11B 5843   6.608   0.501   1.981 -1.6199  0.4816 -1.2442
   69SAPC     P 5844   6.843   0.634   1.888 -0.0012 -0.2897 -0.8523
   69SAPC   O13 5845   6.987   0.605   1.878 -0.1907 -0.2266  0.2753
   69SAPC   O14 5846   6.797   0.766   1.833  0.4118 -0.2555 -0.3240
   69SAPC   O12 5847   6.755   0.520   1.821  0.1157  0.6471 -0.2432
   69SAPC   O11 5848   6.815   0.625   2.045  0.1595  0.1691  0.1492
   69SAPC    C1 5849   6.898   0.537   2.120 -0.3135 -0.0006 -0.5027
   69SAPC    HA 5850   6.904   0.440   2.066  1.4378 -1.9795  2.8718
   69SAPC    HB 5851   7.003   0.574   2.125 -0.6995  1.1910 -0.9949
   69SAPC    C2 5852   6.840   0.525   2.261  0.3796 -0.7639  0.3414
   69SAPC    HS 5853   6.736   0.492   2.244  0.1866  0.2671 -0.6040
   69SAPC   O21 5854   6.859   0.663   2.308 -0.3257  0.0174 -0.0480
   69SAPC   C21 5855   6.752   0.736   2.333 -0.7716  0.1166  0.7882
   69SAPC   O22 5856   6.641   0.709   2.293  0.3937 -0.1233  0.3268
   69SAPC   C22 5857   6.786   0.860   2.403 -0.4766  0.6929 -1.2620
   69SAPC   H2R 5858   6.688   0.900   2.438 -0.3302 -0.2926  0.3950
   69SAPC   H2S 5859   6.831   0.827   2.499 -2.2298  0.5632 -0.4344
   69SAPC    C3 5860   6.911   0.435   2.359 -0.1321  0.3612 -0.2128
   69SAPC    HX 5861   7.013   0.473   2.381 -0.1753  0.4864 -0.2242
   69SAPC    HY 5862   6.922   0.340   2.302 -0.8395 -0.0335  0.2945
   69SAPC   O31 5863   6.832   0.416   2.474 -0.1357  0.2779  0.0455
   69SAPC   C31 5864   6.875   0.331   2.567 -0.0233 -0.4448  1.0512
   69SAPC   O32 5865   6.951   0.241   2.542 -0.8446 -0.3041 -0.3449
   69SAPC   C32 5866   6.833   0.366   2.711 -0.1894  0.7477  1.3083
   69SAPC   H2X 5867   6.724   0.355   2.726 -0.6101 -2.8056 -2.5041
   69SAPC   H2Y 5868   6.854   0.474   2.726  0.7830  0.9389 -0.9486
   69SAPC   C23 5869   6.869   0.960   2.321 -0.4059 -0.0489  0.3773
   69SAPC   H3R 5870   6.810   0.974   2.228  0.3889 -0.0702 -0.1313
   69SAPC   H3S 5871   6.964   0.918   2.283 -0.1012  2.4423 -1.8749
   69SAPC   C24 5872   6.894   1.098   2.382  0.0178 -0.3086  0.0797
   69SAPC   H4R 5873   6.794   1.143   2.399  0.8346  0.7294  2.7143
   69SAPC   H4S 5874   6.949   1.153   2.303  1.5287 -1.0687  0.5542
   69SAPC   C25 5875   6.981   1.088   2.507  0.9353  0.5391  0.5889
   69SAPC   H5R 5876   7.088   1.095   2.482  0.6897 -0.0054 -0.7095
   69SAPC   C26 5877   6.942   1.076   2.636 -0.2909 -0.4869 -0.4810
   69SAPC   H6R 5878   7.017   1.053   2.712 -0.3523 -0.5871 -0.4508
   69SAPC   C27 5879   6.804   1.079   2.704 -0.3158  0.1899 -0.7042
   69SAPC   H7R 5880   6.787   0.989   2.766 -4.2341  1.6246  0.6530
   69SAPC   H7S 5881   6.724   1.087   2.627  0.1053 -0.1977 -1.1788
   69SAPC   C28 5882   6.802   1.209   2.787 -0.0462  0.0789 -0.6636
   69SAPC   H8R 5883   6.783   1.295   2.722  2.3839 -0.2149 -1.8599
   69SAPC   C29 5884   6.809   1.216   2.920  0.4218  0.5808  1.0482
   69SAPC   H9R 5885   6.812   1.310   2.976  0.1676  2.0340 -1.2776
   69SAPC  C210 5886   6.835   1.102   3.010 -0.3334 -0.3605 -0.3381
   69SAPC  H10R 5887   6.919   1.044   2.966  0.9005  1.6394 -0.6974
   69SAPC  H10S 5888   6.753   1.027   3.019  0.6028 -1.2036  1.6595
   69SAPC  C211 5889   6.886   1.141   3.145  0.1757 -0.4248  0.7031
   69SAPC  H11R 5890   6.994   1.163   3.150  0.1561  0.6213 -2.0121
   69SAPC  C212 5891   6.824   1.147   3.258 -0.3923  0.2001  0.3159
   69SAPC  H12R 5892   6.887   1.167   3.346  1.1159  4.1759 -1.4416
   69SAPC  C213 5893   6.680   1.109   3.289 -0.0173  0.0440 -0.0595
   69SAPC  H13R 5894   6.678   1.008   3.336  0.2716  1.7076  3.9720
   69SAPC  H13S 5895   6.626   1.087   3.195  0.9019 -2.1047 -0.1310
   69SAPC  C214 5896   6.602   1.207   3.374  0.2919  0.2022  0.1287
   69SAPC  H14R 5897   6.547   1.293   3.333 -1.0728  0.1727  1.7500
   69SAPC  C215 5898   6.569   1.192   3.503 -0.3269  0.0074  0.7244
   69SAPC  H15R 5899   6.522   1.272   3.562 -0.1752 -0.1239  1.0240
   69SAPC  C216 5900   6.635   1.083   3.590  0.6983  0.2721 -0.0112
   69SAPC  H16R 5901   6.712   1.028   3.531  0.0762 -2.5569  1.6489
   69SAPC  H16S 5902   6.563   1.005   3.623  2.3756 -0.7821  1.3075
   69SAPC  C217 5903   6.692   1.140   3.720 -0.0437  0.0911  0.2864
   69SAPC  H17R 5904   6.608   1.198   3.762 -1.3908 -1.2101 -0.5106
   69SAPC  H17S 5905   6.784   1.200   3.704 -0.5267  0.9436  0.6357
   69SAPC  C218 5906   6.723   1.043   3.833  0.0508  0.1989  0.6801
   69SAPC  H18R 5907   6.772   1.106   3.910  2.0282  2.3315 -2.1460
   69SAPC  H18S 5908   6.802   0.971   3.803  1.8544  1.9257  1.0692
   69SAPC  C219 5909   6.604   0.967   3.893 -1.0232 -0.5055  0.6096
   69SAPC  H19R 5910   6.563   0.908   3.807  0.8953  0.3710 -0.9697
   69SAPC  H19S 5911   6.529   1.043   3.924 -0.4494 -0.2265  1.3351
   69SAPC  C220 5912   6.635   0.876   4.011  0.2610 -0.0751 -0.2263
   69SAPC  H20R 5913   6.703   0.921   4.087 -0.0312  0.5834 -0.3542
   69SAPC  H20S 5914   6.690   0.787   3.971  0.3008  0.0951 -0.5505
   69SAPC  H20T 5915   6.546   0.836   4.065  2.5366 -3.0866  1.6513
   69SAPC   C33 5916   6.909   0.273   2.806 -0.5623 -0.3495  0.2899
   69SAPC   H3X 5917   7.015   0.291   2.778 -1.1131  1.2141 -0.9279
   69SAPC   H3Y 5918   6.899   0.163   2.789  2.0639 -0.4832 -0.9941
   69SAPC   C34 5919   6.891   0.310   2.956 -0.3418  0.4808  0.8081
   69SAPC   H4X 5920   6.782   0.309   2.976 -0.3319 -0.5936  0.8676
   69SAPC   H4Y 5921   6.922   0.417   2.961 -2.7992  1.3685 -1.3206
   69SAPC   C35 5922   6.984   0.233   3.043  0.0815 -0.5494 -0.2935
   69SAPC   H5X 5923   7.091   0.230   3.012  0.6822  1.1558  1.4513
   69SAPC   H5Y 5924   6.944   0.130   3.039  1.0907 -0.9470 -0.6689
   69SAPC   C36 5925   6.990   0.277   3.188  0.0817  0.1721 -0.2601
   69SAPC   H6X 5926   6.884   0.278   3.222  0.2459 -0.8136  0.3196
   69SAPC   H6Y 5927   7.025   0.382   3.195  0.8308  0.1383 -2.6755
   69SAPC   C37 5928   7.068   0.179   3.273  0.3800  0.4151  0.3337
   69SAPC   H7X 5929   7.164   0.153   3.223 -0.2501 -0.4571 -0.4618
   69SAPC   H7Y 5930   7.012   0.084   3.286 -1.0187  1.4560  2.2677
   69SAPC   C38 5931   7.088   0.226   3.418  0.3532 -0.6336  0.1343
   69SAPC   H8X 5932   7.153   0.315   3.427  0.0381 -0.3029 -0.7773
   69SAPC   H8Y 5933   7.136   0.141   3.472 -1.2093 -2.8446 -1.7767
   69SAPC   C39 5934   6.950   0.277   3.489 -0.6082 -0.8163 -0.2710
   69SAPC   H9X 5935   6.862   0.212   3.473 -2.2802  1.8561 -3.2189
   69SAPC   H9Y 5936   6.926   0.368   3.430  1.6219 -1.1686 -1.8524
   69SAPC  C310 5937   6.972   0.305   3.643 -0.4434 -0.3538  0.1227
   69SAPC  H10X 5938   7.057   0.375   3.660 -1.1307  0.8471 -1.2469
   69SAPC  H10Y 5939   7.018   0.213   3.687 -0.9796 -0.6122  0.1524
   69SAPC  C311 5940   6.855   0.345   3.730  0.6625 -0.1600  0.6928
   69SAPC  H11X 5941   6.773   0.271   3.719  0.5897  0.1607 -1.5492
   69SAPC  H11Y 5942   6.817   0.441   3.689 -0.0499 -0.1916  1.2775
   69SAPC  C312 5943   6.890   0.373   3.875  0.8372 -0.3247 -0.5170
   69SAPC  H12X 5944   6.975   0.444   3.881  0.1917  0.3732  0.7582
   69SAPC  H12Y 5945   6.914   0.274   3.920 -1.0315  0.5763  2.6824
   69SAPC  C313 5946   6.774   0.414   3.966 -0.0221  0.2254  0.6927
   69SAPC  H13X 5947   6.681   0.352   3.955  0.2472  0.1149 -1.3003
   69SAPC  H13Y 5948   6.756   0.517   3.929 -0.2018  0.3231  1.0509
   69SAPC  C314 5949   6.799   0.414   4.115  0.3684  0.3509  1.2348
   69SAPC  H14X 5950   6.903   0.451   4.130  0.8923 -0.2526 -0.7213
   69SAPC  H14Y 5951   6.794   0.306   4.140  1.5758 -0.5243 -1.9302
   69SAPC  C315 5952   6.694   0.495   4.187 -0.2869 -0.3605 -0.2342
   69SAPC  H15X 5953   6.594   0.465   4.149  1.1186 -1.7705 -3.0982
   69SAPC  H15Y 5954   6.697   0.599   4.148  1.1462  0.1167  1.0474
   69SAPC  C316 5955   6.715   0.486   4.337 -0.0075 -0.4057  0.2675
   69SAPC  H16X 5956   6.825   0.484   4.352 -0.0597  0.2758  0.7777
   69SAPC  H16Y 5957   6.673   0.390   4.374 -0.4681 -1.2547 -2.2434
   69SAPC  C317 5958   6.658   0.602   4.409 -0.0491  0.3277 -0.0060
   69SAPC  H17X 5959   6.649   0.578   4.517  0.2024  2.0584  0.4338
   69SAPC  H17Y 5960   6.555   0.625   4.371 -0.1958 -2.1440 -1.3052
   69SAPC  C318 5961   6.739   0.727   4.395 -0.4436  0.3995 -0.1439
   69SAPC  H18X 5962   6.846   0.713   4.422  0.1100  2.5686 -1.0764
   69SAPC  H18Y 5963   6.701   0.810   4.458  1.0981 -0.0336  1.4556
   69SAPC  H18Z 5964   6.741   0.767   4.292 -0.0224 -2.3686 -1.2962
   70SAPC     N 5965   2.253   4.809   1.615 -0.0740 -0.1407 -0.4239
   70SAPC   C12 5966   2.325   4.686   1.676 -0.2444  0.0404 -0.1741
   70SAPC  H12A 5967   2.412   4.681   1.611 -0.9883  1.5407 -1.3571
   70SAPC  H12B 5968   2.251   4.611   1.654 -0.0563  0.5909 -3.1710
   70SAPC   C13 5969   2.344   4.924   1.604 -0.0894  0.1220  0.4610
   70SAPC  H13A 5970   2.291   5.018   1.618 -0.1051  0.0655  0.7750
   70SAPC  H13B 5971   2.416   4.910   1.683 -2.2406 -2.8649  2.1037
   70SAPC  H13C 5972   2.399   4.934   1.512 -0.1557  2.3760  0.6122
   70SAPC   C14 5973   2.191   4.779   1.478 -0.2173 -0.5264  0.0605
   70SAPC  H14A 5974   2.259   4.749   1.400 -2.2068 -0.8128 -1.6499
   70SAPC  H14B 5975   2.110   4.710   1.490 -0.3982 -0.4023 -0.4475
   70SAPC  H14C 5976   2.149   4.872   1.443  0.1930 -0.9177 -1.5493
   70SAPC   C15 5977   2.136   4.841   1.704 -0.2388  0.1719 -0.3865
   70SAPC  H15A 5978   2.062   4.762   1.699  1.0226 -1.0946  0.2492
   70SAPC  H15B 5979   2.163   4.859   1.807 -0.2554 -0.7465 -0.2069
   70SAPC  H15C 5980   2.082   4.926   1.665  1.1289 -0.0566 -3.0284
   70SAPC   C11 5981   2.368   4.679   1.821  0.1744 -0.0615 -0.4939
   70SAPC  H11A 5982   2.409   4.580   1.850  0.0697  0.5506  2.0092
   70SAPC  H11B 5983   2.273   4.690   1.878 -0.9476 -1.2550 -2.0270
   70SAPC     P 5984   2.417   4.898   1.964  0.1593  0.5604  0.1266
   70SAPC   O13 5985   2.482   5.026   1.921  0.4202  0.3430  0.1596
   70SAPC   O14 5986   2.270   4.908   1.996  0.6237  0.5778  0.3732
   70SAPC   O12 5987   2.455   4.788   1.864  0.0883 -0.2731  0.0487
   70SAPC   O11 5988   2.486   4.842   2.095 -0.6312 -0.1445 -0.6623
   70SAPC    C1 5989   2.430   4.752   2.189  0.3591 -0.4654  0.1440
   70SAPC    HA 5990   2.327   4.728   2.155  0.7608 -0.6272 -1.0144
   70SAPC    HB 5991   2.497   4.663   2.180  0.2240 -0.5540 -0.0025
   70SAPC    C2 5992   2.432   4.793   2.338 -1.0271 -0.4062  0.2447
   70SAPC    HS 5993   2.360   4.876   2.354  0.5573  1.7333 -2.7183
   70SAPC   O21 5994   2.565   4.838   2.372 -0.2042  0.8414  0.3170
   70SAPC   C21 5995   2.575   4.928   2.465  0.0340 -0.5544  0.2907
   70SAPC   O22 5996   2.485   4.983   2.529 -1.0012  0.2711 -0.4488
   70SAPC   C22 5997   2.730   4.959   2.490  0.4593 -0.0926  0.2302
   70SAPC   H2R 5998   2.778   4.868   2.533 -1.5525 -1.1849  0.2690
   70SAPC   H2S 5999   2.770   4.995   2.393 -0.3034 -0.1673 -0.1215
   70SAPC    C3 6000   2.402   4.676   2.441 -0.1039 -0.7340  0.1097
   70SAPC    HX 6001   2.480   4.600   2.418 -0.2312 -0.9476  0.3781
   70SAPC    HY 6002   2.304   4.630   2.419  0.3801 -0.6876 -2.3705
   70SAPC   O31 6003   2.416   4.719   2.577  0.0820 -0.6055  0.2591
   70SAPC   C31 6004   2.307   4.742   2.650  0.1093 -0.5464  0.0253
   70SAPC   O32 6005   2.194   4.763   2.604  0.2165  0.3006 -0.2120
   70SAPC   C32 6006   2.343   4.769   2.804 -0.5654 -0.2050  0.7050
   70SAPC   H2X 6007   2.283   4.860   2.828 -0.7507 -0.2479  0.4104
   70SAPC   H2Y 6008   2.450   4.796   2.794 -1.2074  2.9236  1.2683
   70SAPC   C23 6009   2.759   5.074   2.589 -0.2207 -0.3940 -0.7600
   70SAPC   H3R 6010   2.711   5.037   2.682 -1.9175  1.1257 -0.9728
   70SAPC   H3S 6011   2.707   5.167   2.559 -1.8392 -1.1958 -0.5342
   70SAPC   C24 6012   2.911   5.125   2.612 -0.3729  0.4544 -1.4999
   70SAPC   H4R 6013   2.908   5.218   2.672 -1.1900 -0.7341  0.3825
   70SAPC   H4S 6014   2.958   5.145   2.514  2.7015 -1.8248 -0.6235
   70SAPC   C25 6015   2.997   5.027   2.685 -0.5980 -0.0638 -0.7299
   70SAPC   H5R 6016   3.031   4.941   2.625  0.9156  1.3855 -2.0279
   70SAPC   C26 6017   3.028   5.031   2.813 -0.4350  1.0187 -0.7641
   70SAPC   H6R 6018   3.096   4.952   2.847  1.1496  2.0726 -1.3815
   70SAPC   C27 6019   2.980   5.135   2.911  0.4484  0.0349 -0.0201
   70SAPC   H7R 6020   2.877   5.104   2.940  1.0114 -1.1138  0.8330
   70SAPC   H7S 6021   2.983   5.240   2.874 -0.6770 -0.0009 -0.2513
   70SAPC   C28 6022   3.071   5.123   3.037  0.3704 -0.2141  0.0666
   70SAPC   H8R 6023   3.150   5.047   3.039  1.9716  1.3561  3.1633
   70SAPC   C29 6024   3.065   5.196   3.153 -0.0850  0.7977  0.5577
   70SAPC   H9R 6025   3.122   5.163   3.241 -1.2195 -1.0222  0.6681
   70SAPC  C210 6026   2.968   5.303   3.188  0.3133 -0.1955 -0.0518
   70SAPC  H10R 6027   2.921   5.269   3.283 -3.6139  0.6742 -1.5208
   70SAPC  H10S 6028   2.888   5.322   3.114  0.6188  1.2680 -0.0453
   70SAPC  C211 6029   3.051   5.427   3.217  0.0811  0.0446  0.1061
   70SAPC  H11R 6030   3.089   5.482   3.129 -2.1443 -1.7412 -2.1124
   70SAPC  C212 6031   3.082   5.477   3.336 -0.5512  0.1891 -0.6511
   70SAPC  H12R 6032   3.137   5.572   3.339 -0.4390  0.2331 -2.5881
   70SAPC  C213 6033   3.045   5.437   3.476 -0.3872  0.6344 -0.5598
   70SAPC  H13R 6034   2.939   5.402   3.476 -0.8167  1.9001 -0.0178
   70SAPC  H13S 6035   3.044   5.524   3.544 -0.5241 -0.5315  1.0013
   70SAPC  C214 6036   3.138   5.325   3.522  0.3260 -0.0763 -0.2305
   70SAPC  H14R 6037   3.222   5.287   3.462  0.3458 -0.7068  0.1934
   70SAPC  C215 6038   3.118   5.258   3.638 -0.0107 -0.4536 -0.8755
   70SAPC  H15R 6039   3.186   5.185   3.683  0.6857  1.9449  2.3674
   70SAPC  C216 6040   3.004   5.287   3.724  0.3056 -0.4336 -0.0493
   70SAPC  H16R 6041   2.916   5.226   3.691  1.0731 -3.7280  3.3243
   70SAPC  H16S 6042   2.977   5.394   3.714  0.6982 -0.1327  1.7364
   70SAPC  C217 6043   3.019   5.263   3.873  0.4882 -0.0400 -0.7784
   70SAPC  H17R 6044   2.946   5.330   3.923  0.0599  0.5070 -2.0919
   70SAPC  H17S 6045   3.121   5.296   3.901  1.4016 -3.1312  0.0366
   70SAPC  C218 6046   3.007   5.112   3.916  0.0704 -0.5891  0.2551
   70SAPC  H18R 6047   3.090   5.050   3.876  0.7603 -0.0380  0.8210
   70SAPC  H18S 6048   2.908   5.088   3.870 -1.2166  1.6528  1.7077
   70SAPC  C219 6049   2.994   5.080   4.066  0.2895 -0.4737  0.1118
   70SAPC  H19R 6050   3.098   5.065   4.104  0.2046  1.8307  1.4993
   70SAPC  H19S 6051   2.932   4.988   4.067 -0.3325 -0.0786  1.8667
   70SAPC  C220 6052   2.923   5.184   4.148  0.1198 -0.1266  0.2400
   70SAPC  H20R 6053   2.916   5.151   4.254  1.2829 -1.6820 -0.1193
   70SAPC  H20S 6054   2.821   5.204   4.109  1.1771  0.8601 -2.2339
   70SAPC  H20T 6055   2.977   5.280   4.141  5.1013 -2.5423  1.1549
   70SAPC   C33 6056   2.328   4.665   2.908  1.0223  0.3616  0.0586
   70SAPC   H3X 6057   2.367   4.562   2.893 -1.2700 -0.3050 -1.9968
   70SAPC   H3Y 6058   2.222   4.634   2.917  1.4499 -1.0597  0.4984
   70SAPC   C34 6059   2.367   4.709   3.046  0.1704 -0.7836 -0.2997
   70SAPC   H4X 6060   2.292   4.789   3.065  2.7781  1.8766 -0.4021
   70SAPC   H4Y 6061   2.468   4.756   3.036  0.1372 -0.3462  1.0895
   70SAPC   C35 6062   2.371   4.608   3.158 -0.2946 -0.7272 -0.0894
   70SAPC   H5X 6063   2.450   4.541   3.117 -0.1154 -0.2118 -0.5978
   70SAPC   H5Y 6064   2.278   4.550   3.174 -0.4228 -0.5451 -0.1800
   70SAPC   C36 6065   2.435   4.654   3.289 -0.4280 -0.1314  0.0968
   70SAPC   H6X 6066   2.371   4.724   3.347 -1.0854 -0.5126 -0.1526
   70SAPC   H6Y 6067   2.531   4.710   3.280  0.1561 -0.6190  2.4576
   70SAPC   C37 6068   2.462   4.534   3.383  0.0252 -0.2708 -0.0130
   70SAPC   H7X 6069   2.371   4.487   3.427 -1.7401  2.5676 -0.4162
   70SAPC   H7Y 6070   2.532   4.466   3.329 -1.0026  0.7860 -2.8580
   70SAPC   C38 6071   2.542   4.586   3.507  0.0943 -0.0919  0.0896
   70SAPC   H8X 6072   2.471   4.644   3.570  0.5980 -0.8783  1.4241
   70SAPC   H8Y 6073   2.624   4.654   3.474  0.1693 -1.2609 -2.3262
   70SAPC   C39 6074   2.603   4.463   3.581 -0.9330 -0.2210 -0.6170
   70SAPC   H9X 6075   2.540   4.381   3.541 -0.5123 -0.7165 -0.2706
   70SAPC   H9Y 6076   2.579   4.477   3.688 -0.0638  1.2800 -0.5935
   70SAPC  C310 6077   2.754   4.446   3.546 -0.0119 -0.2402  0.4038
   70SAPC  H10X 6078   2.789   4.344   3.576  0.9563 -0.3463 -0.9977
   70SAPC  H10Y 6079   2.817   4.511   3.611  1.1658 -1.3716  0.4620
   70SAPC  C311 6080   2.787   4.442   3.397  0.1038  0.5505  0.3132
   70SAPC  H11X 6081   2.765   4.540   3.348  2.9090  0.3392 -1.6014
   70SAPC  H11Y 6082   2.711   4.377   3.347  1.3428  0.2063 -1.2135
   70SAPC  C312 6083   2.930   4.393   3.375  0.1986 -0.3820 -0.2315
   70SAPC  H12X 6084   2.937   4.291   3.417 -0.7307 -0.9631 -1.3987
   70SAPC  H12Y 6085   3.002   4.464   3.421  1.1057 -1.4382 -0.0045
   70SAPC  C313 6086   2.986   4.385   3.234  0.6337  0.7588 -0.0781
   70SAPC  H13X 6087   3.090   4.347   3.247  0.0181 -0.6748  0.8106
   70SAPC  H13Y 6088   2.992   4.483   3.181  1.1776  0.2773 -0.9392
   70SAPC  C314 6089   2.927   4.284   3.134  0.4984  0.5656  0.1534
   70SAPC  H14X 6090   2.817   4.289   3.118  0.5281 -0.1868 -0.3670
   70SAPC  H14Y 6091   2.958   4.182   3.166 -0.0332 -0.1658 -1.5376
   70SAPC  C315 6092   2.988   4.305   2.994 -0.9789 -0.1254  0.2394
   70SAPC  H15X 6093   3.098   4.295   2.996 -0.8008  1.3436 -0.8179
   70SAPC  H15Y 6094   2.962   4.409   2.967  0.8098  0.2982  0.0249
   70SAPC  C316 6095   2.935   4.217   2.883  0.4816 -0.6190 -0.3923
   70SAPC  H16X 6096   2.837   4.262   2.856  0.1096 -1.9665 -1.3771
   70SAPC  H16Y 6097   2.918   4.114   2.921 -0.1437 -0.4654 -0.2494
   70SAPC  C317 6098   3.012   4.231   2.752  0.6547 -0.6628  0.2494
   70SAPC  H17X 6099   3.118   4.205   2.769  0.3117 -0.8740  2.2862
   70SAPC  H17Y 6100   3.023   4.340   2.733  1.5323 -1.2005 -2.9485
   70SAPC  C318 6101   2.952   4.159   2.638  0.2930  0.1897  0.1267
   70SAPC  H18X 6102   3.021   4.166   2.551 -1.1559 -1.2307 -1.2182
   70SAPC  H18Y 6103   2.850   4.197   2.614 -0.6492 -1.5820  1.0664
   70SAPC  H18Z 6104   2.947   4.048   2.651  0.8535 -0.1133 -1.8785
   71SAPC     N 6105   1.191   2.109   1.826 -0.9456  0.0334  0.1668
   71SAPC   C12 6106   1.182   2.204   1.938  0.5272 -0.1967  0.3425
   71SAPC  H12A 6107   1.230   2.155   2.022 -1.8786 -0.8487  1.4062
   71SAPC  H12B 6108   1.080   2.228   1.963  0.8181 -1.1101  2.6636
   71SAPC   C13 6109   1.330   2.077   1.782  0.3722 -0.4096  0.4179
   71SAPC  H13A 6110   1.385   2.167   1.758  1.8274 -0.4817  3.1386
   71SAPC  H13B 6111   1.393   2.024   1.851 -0.1497 -2.7030 -0.7534
   71SAPC  H13C 6112   1.334   2.014   1.694 -1.0605  1.3588 -1.0275
   71SAPC   C14 6113   1.134   1.975   1.866  0.4339  0.3209  0.0563
   71SAPC  H14A 6114   1.205   1.928   1.932  2.0745 -0.2603 -2.0219
   71SAPC  H14B 6115   1.038   1.989   1.914  1.7356  0.0152  3.0093
   71SAPC  H14C 6116   1.114   1.917   1.778  0.4394  2.4101 -1.4002
   71SAPC   C15 6117   1.111   2.165   1.716 -0.2130 -0.6643  0.3042
   71SAPC  H15A 6118   1.129   2.114   1.622 -1.2577 -1.3847  0.4761
   71SAPC  H15B 6119   1.006   2.158   1.738 -0.4567 -0.3321 -0.6945
   71SAPC  H15C 6120   1.144   2.267   1.705  0.0573 -0.9594 -2.3363
   71SAPC   C11 6121   1.250   2.338   1.932 -0.3413  0.7550 -0.2324
   71SAPC  H11A 6122   1.352   2.333   1.977 -0.8741  1.8259  1.1687
   71SAPC  H11B 6123   1.198   2.393   2.013 -0.6481 -1.3660  1.1039
   71SAPC     P 6124   1.364   2.480   1.753 -0.0084  0.1727  0.2429
   71SAPC   O13 6125   1.463   2.388   1.705  0.0177  0.3198  0.0159
   71SAPC   O14 6126   1.313   2.584   1.654  0.3969  0.6246  0.0900
   71SAPC   O12 6127   1.242   2.406   1.811  0.3494 -0.0741 -0.1448
   71SAPC   O11 6128   1.414   2.558   1.883  0.2280  0.1135  0.4150
   71SAPC    C1 6129   1.342   2.673   1.925  0.3763  0.5935 -0.1070
   71SAPC    HA 6130   1.358   2.755   1.852  1.1605  0.7895  0.2722
   71SAPC    HB 6131   1.235   2.646   1.936  0.6922 -1.2509 -1.1959
   71SAPC    C2 6132   1.386   2.718   2.071  0.4584  0.1224  0.9014
   71SAPC    HS 6133   1.318   2.802   2.098 -0.0374  0.0431 -0.0474
   71SAPC   O21 6134   1.518   2.760   2.082 -0.9432 -0.9791 -0.3092
   71SAPC   C21 6135   1.536   2.883   2.029 -0.4507  0.3596 -0.2983
   71SAPC   O22 6136   1.445   2.948   1.978  0.0221 -0.5434  0.1742
   71SAPC   C22 6137   1.674   2.932   2.058  0.0885  0.4789  0.3384
   71SAPC   H2R 6138   1.735   2.851   2.103 -0.0839  0.7419  1.0578
   71SAPC   H2S 6139   1.711   2.963   1.958 -0.4421 -1.4975 -0.5020
   71SAPC    C3 6140   1.361   2.611   2.181  0.1248  0.3303 -0.0913
   71SAPC    HX 6141   1.432   2.527   2.161 -0.9665 -0.5181 -0.5298
   71SAPC    HY 6142   1.257   2.573   2.172  0.4458 -0.2444 -2.0426
   71SAPC   O31 6143   1.386   2.664   2.315  0.2617  0.3789 -0.6449
   71SAPC   C31 6144   1.507   2.640   2.363  0.2182 -0.2093 -0.1080
   71SAPC   O32 6145   1.602   2.595   2.302 -0.3673  0.2528 -0.5131
   71SAPC   C32 6146   1.521   2.696   2.506  0.1381  0.4723 -0.4854
   71SAPC   H2X 6147   1.479   2.612   2.565  1.2861 -0.2238 -0.6302
   71SAPC   H2Y 6148   1.454   2.784   2.510 -0.0743  0.2838  0.1573
   71SAPC   C23 6149   1.684   3.054   2.153 -0.1723  0.0942  0.6442
   71SAPC   H3R 6150   1.598   3.116   2.121  0.4863 -0.0215 -1.5287
   71SAPC   H3S 6151   1.782   3.100   2.128 -0.9738  2.1071  0.9716
   71SAPC   C24 6152   1.675   3.022   2.304 -0.1550  0.4922 -0.1375
   71SAPC   H4R 6153   1.744   2.942   2.339 -0.0149  1.2472  1.3945
   71SAPC   H4S 6154   1.569   2.995   2.325  0.4985 -1.8493  0.4700
   71SAPC   C25 6155   1.688   3.153   2.372  1.0262  0.5136  0.9725
   71SAPC   H5R 6156   1.613   3.224   2.334  0.4065 -0.3311  0.5812
   71SAPC   C26 6157   1.770   3.206   2.464  0.2553  0.1684  0.2502
   71SAPC   H6R 6158   1.739   3.303   2.504 -0.8684  0.4507 -1.2240
   71SAPC   C27 6159   1.888   3.144   2.540  0.6184  0.4175 -0.0337
   71SAPC   H7R 6160   1.904   3.036   2.520 -1.8327 -0.2306  1.1689
   71SAPC   H7S 6161   1.854   3.140   2.646  0.4901  0.0534 -0.0899
   71SAPC   C28 6162   2.019   3.211   2.519 -0.5107  0.2286 -0.1720
   71SAPC   H8R 6163   2.052   3.224   2.415 -0.8146  0.5824 -0.2232
   71SAPC   C29 6164   2.098   3.262   2.616  1.0902  0.3257  0.0040
   71SAPC   H9R 6165   2.183   3.324   2.585  2.0309 -1.5016 -1.2550
   71SAPC  C210 6166   2.058   3.252   2.759 -0.2139  0.4831 -0.1389
   71SAPC  H10R 6167   2.042   3.143   2.771 -2.0910  0.7323 -0.1694
   71SAPC  H10S 6168   1.961   3.305   2.768 -0.3400  0.6685 -2.1851
   71SAPC  C211 6169   2.161   3.297   2.862 -0.4956 -0.2695  0.1203
   71SAPC  H11R 6170   2.258   3.311   2.812 -1.0146 -2.0363 -1.5424
   71SAPC  C212 6171   2.141   3.299   2.993  0.6600 -0.3906 -0.1093
   71SAPC  H12R 6172   2.230   3.329   3.051  1.0635  0.9446 -1.3627
   71SAPC  C213 6173   2.016   3.260   3.072  0.8999 -0.4501  0.4765
   71SAPC  H13R 6174   1.921   3.302   3.032  1.0235 -0.3145  0.3218
   71SAPC  H13S 6175   2.036   3.319   3.164  1.2548 -0.0242  0.1292
   71SAPC  C214 6176   1.991   3.117   3.104 -0.5579 -0.6332  0.7265
   71SAPC  H14R 6177   1.905   3.073   3.050  0.5906 -1.2719 -0.6596
   71SAPC  C215 6178   2.053   3.039   3.195  0.4712 -0.0915  0.5691
   71SAPC  H15R 6179   2.011   2.938   3.191 -2.2380  0.9587 -1.5214
   71SAPC  C216 6180   2.159   3.082   3.288 -1.1738  0.5114  0.1446
   71SAPC  H16R 6181   2.199   3.177   3.248 -1.5208 -0.0774 -1.6814
   71SAPC  H16S 6182   2.233   2.999   3.294 -3.0038 -1.2310 -0.1321
   71SAPC  C217 6183   2.085   3.085   3.423 -0.1877  0.5855  0.3604
   71SAPC  H17R 6184   2.070   2.981   3.461 -3.2367  0.4860 -0.8478
   71SAPC  H17S 6185   1.990   3.142   3.425  0.3656  1.5310  0.5381
   71SAPC  C218 6186   2.172   3.163   3.528  0.0618 -0.2963  0.4340
   71SAPC  H18R 6187   2.184   3.272   3.507  0.1769 -0.6321 -1.4052
   71SAPC  H18S 6188   2.277   3.130   3.512  1.4378  2.9755  1.7351
   71SAPC  C219 6189   2.127   3.149   3.670 -0.3730  0.9537  0.3190
   71SAPC  H19R 6190   2.113   3.040   3.687 -1.4438  0.6224 -2.3089
   71SAPC  H19S 6191   2.021   3.181   3.678 -0.7988 -0.6320  1.7479
   71SAPC  C220 6192   2.220   3.209   3.774  0.0371 -0.0565  0.5378
   71SAPC  H20R 6193   2.194   3.179   3.878 -0.0770  3.4287  1.6791
   71SAPC  H20S 6194   2.217   3.320   3.762  3.6682  0.3387  1.8364
   71SAPC  H20T 6195   2.323   3.175   3.749 -0.4974 -0.7723 -0.7704
   71SAPC   C33 6196   1.660   2.718   2.558  0.0781  0.6394  0.9071
   71SAPC   H3X 6197   1.698   2.803   2.498 -2.1928  1.0007 -0.1294
   71SAPC   H3Y 6198   1.714   2.621   2.548  0.7244  0.8304  2.2195
   71SAPC   C34 6199   1.661   2.760   2.705 -0.1082 -0.6252 -0.1426
   71SAPC   H4X 6200   1.588   2.844   2.708 -0.9993 -1.4034  0.6185
   71SAPC   H4Y 6201   1.758   2.806   2.732 -1.3705  0.9808  1.9595
   71SAPC   C35 6202   1.619   2.666   2.815  0.0615  0.7259  0.5538
   71SAPC   H5X 6203   1.688   2.581   2.833  0.4847  1.5441  3.1896
   71SAPC   H5Y 6204   1.518   2.626   2.792 -1.4111  3.4078  1.8348
   71SAPC   C36 6205   1.612   2.737   2.947 -0.2588 -0.1305 -0.3452
   71SAPC   H6X 6206   1.548   2.826   2.926 -1.7413 -1.2428 -0.7741
   71SAPC   H6Y 6207   1.704   2.786   2.982 -2.3319  1.5955  3.2055
   71SAPC   C37 6208   1.551   2.655   3.060  0.1664  0.2870  0.1462
   71SAPC   H7X 6209   1.624   2.572   3.078  2.4616  1.8387 -1.5133
   71SAPC   H7Y 6210   1.456   2.613   3.022  0.4437  0.0753 -0.3272
   71SAPC   C38 6211   1.534   2.728   3.190 -0.3905  0.3266 -0.3888
   71SAPC   H8X 6212   1.482   2.665   3.265  0.3548  2.1324  1.7814
   71SAPC   H8Y 6213   1.478   2.823   3.176  1.3953  1.6080  0.7418
   71SAPC   C39 6214   1.663   2.764   3.253 -0.4565  0.6157 -0.2065
   71SAPC   H9X 6215   1.717   2.837   3.189  1.2573 -0.6319 -0.2478
   71SAPC   H9Y 6216   1.726   2.676   3.278  0.7634  2.3244  3.5313
   71SAPC  C310 6217   1.636   2.837   3.381  0.9481 -0.4137  0.0320
   71SAPC  H10X 6218   1.552   2.789   3.436  0.1560 -0.9737 -1.6147
   71SAPC  H10Y 6219   1.614   2.944   3.363  0.0036 -0.9155 -2.2091
   71SAPC  C311 6220   1.756   2.817   3.470 -0.0995  0.5985 -0.4011
   71SAPC  H11X 6221   1.845   2.857   3.416  0.6560 -1.6818 -0.9456
   71SAPC  H11Y 6222   1.767   2.708   3.487  1.6924  0.9285  0.8156
   71SAPC  C312 6223   1.727   2.884   3.607 -0.2456 -0.2601  0.2619
   71SAPC  H12X 6224   1.638   2.828   3.643  0.2095 -1.6586 -0.6778
   71SAPC  H12Y 6225   1.693   2.989   3.598 -0.0362 -0.1365  0.8566
   71SAPC  C313 6226   1.842   2.862   3.709 -0.2424  0.1348 -0.4355
   71SAPC  H13X 6227   1.940   2.905   3.680 -0.0385  2.1655  2.7437
   71SAPC  H13Y 6228   1.858   2.753   3.708  5.4598  0.6958 -1.6809
   71SAPC  C314 6229   1.811   2.904   3.850  0.4960 -0.2427 -0.2496
   71SAPC  H14X 6230   1.895   2.870   3.913 -0.2754 -1.0548  0.3488
   71SAPC  H14Y 6231   1.714   2.869   3.890  0.4136 -0.8343 -0.9369
   71SAPC  C315 6232   1.809   3.059   3.871 -0.3236 -0.0179  0.5584
   71SAPC  H15X 6233   1.721   3.093   3.812  0.2588  3.4968  1.4377
   71SAPC  H15Y 6234   1.900   3.096   3.819 -1.5440  0.0045 -1.7001
   71SAPC  C316 6235   1.803   3.103   4.019  0.0124 -0.0791  0.0129
   71SAPC  H16X 6236   1.903   3.075   4.058  0.6608  0.4104 -1.2337
   71SAPC  H16Y 6237   1.724   3.044   4.070 -0.6992  0.0052 -0.9534
   71SAPC  C317 6238   1.788   3.257   4.042  0.2917  0.1179  0.1028
   71SAPC  H17X 6239   1.791   3.269   4.152 -2.7364 -0.7647  0.3980
   71SAPC  H17Y 6240   1.690   3.292   4.002  1.1818  2.0542 -0.4803
   71SAPC  C318 6241   1.889   3.346   3.977  0.5044 -0.5060  0.0745
   71SAPC  H18X 6242   1.994   3.324   4.002  0.8209 -0.3772 -1.0565
   71SAPC  H18Y 6243   1.870   3.455   3.988 -0.1872 -0.5131 -0.8632
   71SAPC  H18Z 6244   1.885   3.330   3.867  0.5576  0.0182 -0.0091
   72SAPC     N 6245   2.059   1.055   2.008  0.1848 -0.0246 -0.6701
   72SAPC   C12 6246   1.961   1.162   1.944 -0.2240 -0.0438 -0.0466
   72SAPC  H12A 6247   2.008   1.250   1.902 -1.0075  2.3567  3.7022
   72SAPC  H12B 6248   1.912   1.211   2.026  2.1401  0.3456  1.2462
   72SAPC   C13 6249   1.984   0.945   2.078 -0.5982 -0.4280  0.9108
   72SAPC  H13A 6250   2.043   0.864   2.118  1.3905  0.5148  0.0210
   72SAPC  H13B 6251   1.924   0.989   2.156 -2.1386 -0.8974  0.0200
   72SAPC  H13C 6252   1.915   0.903   2.008  0.4481  1.2407 -1.2500
   72SAPC   C14 6253   2.149   1.000   1.899  0.0605 -0.2416 -0.1830
   72SAPC  H14A 6254   2.175   1.080   1.831  0.5870 -0.3272 -0.0863
   72SAPC  H14B 6255   2.238   0.961   1.947  0.7494  1.1391 -0.2893
   72SAPC  H14C 6256   2.103   0.925   1.837  1.1011 -0.3068 -0.9200
   72SAPC   C15 6257   2.147   1.128   2.111  0.1898  0.6534 -0.2911
   72SAPC  H15A 6258   2.215   1.052   2.146 -0.9703 -1.3778 -2.1922
   72SAPC  H15B 6259   2.204   1.209   2.068  1.1734  0.4601  0.6063
   72SAPC  H15C 6260   2.085   1.158   2.195 -2.7023 -2.1959 -1.2098
   72SAPC   C11 6261   1.840   1.108   1.855  0.0614  0.3930  0.1990
   72SAPC  H11A 6262   1.888   1.050   1.774  0.2054  1.1472 -0.2618
   72SAPC  H11B 6263   1.795   1.196   1.804  0.5901 -0.9528 -2.7730
   72SAPC     P 6264   1.603   1.012   1.876 -0.0524  0.0802 -0.1283
   72SAPC   O13 6265   1.544   1.150   1.857  0.1833 -0.0544  0.3107
   72SAPC   O14 6266   1.606   0.927   1.759  0.4712 -0.0797  0.1995
   72SAPC   O12 6267   1.753   1.023   1.930  0.5912 -0.1298 -0.5410
   72SAPC   O11 6268   1.544   0.935   1.999 -0.0212 -0.6250  0.3798
   72SAPC    C1 6269   1.604   0.815   2.042  0.9373  0.1933 -0.5397
   72SAPC    HA 6270   1.576   0.730   1.976  0.2964  0.0549 -0.0904
   72SAPC    HB 6271   1.714   0.829   2.050  0.8996  1.2264 -1.5005
   72SAPC    C2 6272   1.567   0.775   2.183 -0.0812 -0.0794  0.1753
   72SAPC    HS 6273   1.457   0.780   2.197  0.1473  1.9123  1.7047
   72SAPC   O21 6274   1.637   0.855   2.282  0.1058 -0.1520 -0.1105
   72SAPC   C21 6275   1.575   0.954   2.339  0.4207 -0.5949 -0.2165
   72SAPC   O22 6276   1.471   1.009   2.312  0.5402 -0.1469  0.3109
   72SAPC   C22 6277   1.657   0.996   2.462  0.2084 -0.5136  0.2758
   72SAPC   H2R 6278   1.751   0.936   2.461 -0.0911 -1.1175  2.7984
   72SAPC   H2S 6279   1.676   1.106   2.463 -1.3978 -0.1758 -0.9870
   72SAPC    C3 6280   1.615   0.622   2.209  0.2756  0.0128  0.9622
   72SAPC    HX 6281   1.722   0.611   2.180 -0.0864  0.8948 -0.8176
   72SAPC    HY 6282   1.565   0.558   2.133  4.8335 -0.4902 -2.0433
   72SAPC   O31 6283   1.611   0.583   2.348 -0.0637  0.3904 -0.3926
   72SAPC   C31 6284   1.514   0.497   2.379 -0.5322  0.6559 -0.0779
   72SAPC   O32 6285   1.428   0.455   2.304 -0.0990 -0.6630 -0.6565
   72SAPC   C32 6286   1.521   0.459   2.531 -0.6667 -0.4307  0.3360
   72SAPC   H2X 6287   1.497   0.552   2.586  1.4974  0.9261 -0.8911
   72SAPC   H2Y 6288   1.629   0.452   2.556 -1.1128 -1.2743  2.2424
   72SAPC   C23 6289   1.582   0.974   2.595 -0.0514 -0.1007  0.2593
   72SAPC   H3R 6290   1.668   0.970   2.665  0.9397 -1.0793 -0.9880
   72SAPC   H3S 6291   1.523   0.879   2.596 -0.3948  0.1114  0.8045
   72SAPC   C24 6292   1.493   1.094   2.639  0.1208  0.1505  0.4226
   72SAPC   H4R 6293   1.423   1.060   2.718  0.1465 -1.2713 -0.1483
   72SAPC   H4S 6294   1.429   1.124   2.553  3.1576  0.4089 -1.8781
   72SAPC   C25 6295   1.581   1.211   2.684 -1.0714  0.2189 -0.0329
   72SAPC   H5R 6296   1.644   1.258   2.607  0.8012 -1.7354  0.2071
   72SAPC   C26 6297   1.588   1.264   2.808 -0.4359  0.2550 -0.0711
   72SAPC   H6R 6298   1.655   1.349   2.824 -1.6027  1.2697 -0.3842
   72SAPC   C27 6299   1.510   1.228   2.932  0.8943 -0.5097 -0.1907
   72SAPC   H7R 6300   1.585   1.232   3.013  0.6411 -0.8194  0.0587
   72SAPC   H7S 6301   1.463   1.128   2.919  0.2407 -0.0863 -1.3184
   72SAPC   C28 6302   1.402   1.335   2.955  0.3865  0.6786 -0.2233
   72SAPC   H8R 6303   1.387   1.401   2.869  0.4085  0.0401 -0.7295
   72SAPC   C29 6304   1.332   1.364   3.059 -0.1491  0.1548 -0.3204
   72SAPC   H9R 6305   1.255   1.441   3.047  0.4081  0.5849 -1.2096
   72SAPC  C210 6306   1.337   1.286   3.188 -0.2380  0.4774 -0.0796
   72SAPC  H10R 6307   1.403   1.334   3.263  0.0613 -0.3200  0.1656
   72SAPC  H10S 6308   1.382   1.188   3.164 -0.4555  0.7972 -1.9482
   72SAPC  C211 6309   1.207   1.263   3.263 -0.4034 -0.0168  0.5984
   72SAPC  H11R 6310   1.132   1.225   3.192 -0.6344 -2.9107  2.2206
   72SAPC  C212 6311   1.191   1.258   3.397  0.0587 -0.0659 -0.2830
   72SAPC  H12R 6312   1.089   1.244   3.438 -0.2092  0.0118 -0.9188
   72SAPC  C213 6313   1.294   1.292   3.500 -0.3211  0.0999  1.1070
   72SAPC  H13R 6314   1.246   1.296   3.600 -0.1530  3.9397  1.1959
   72SAPC  H13S 6315   1.328   1.395   3.475 -2.0750  0.6469  0.8347
   72SAPC  C214 6316   1.409   1.193   3.494 -0.5202  0.2792  0.4771
   72SAPC  H14R 6317   1.448   1.168   3.394 -1.7993 -1.4079  0.3507
   72SAPC  C215 6318   1.468   1.121   3.591 -0.1966  0.1505 -0.2758
   72SAPC  H15R 6319   1.561   1.066   3.571  0.0922  0.2921  0.6623
   72SAPC  C216 6320   1.427   1.132   3.738 -0.8031  0.9702  0.4820
   72SAPC  H16R 6321   1.421   1.029   3.778  0.6959  1.6679  2.6930
   72SAPC  H16S 6322   1.332   1.188   3.746 -2.2575 -1.1633 -0.8336
   72SAPC  C217 6323   1.553   1.195   3.823  0.5645 -0.2754 -0.5871
   72SAPC  H17R 6324   1.650   1.144   3.808  0.9557  0.3309 -0.1782
   72SAPC  H17S 6325   1.523   1.187   3.930  3.0564 -0.2353  0.1678
   72SAPC  C218 6326   1.578   1.337   3.800  0.2421 -0.0868 -0.6381
   72SAPC  H18R 6327   1.479   1.382   3.822 -0.1792 -1.1637 -0.2586
   72SAPC  H18S 6328   1.608   1.365   3.697  1.3444  1.3094  0.0391
   72SAPC  C219 6329   1.672   1.404   3.899  0.3195  0.4048 -0.4035
   72SAPC  H19R 6330   1.678   1.507   3.859 -1.0597 -0.5964 -3.5167
   72SAPC  H19S 6331   1.768   1.348   3.887  1.2629  2.0731 -0.9489
   72SAPC  C220 6332   1.635   1.417   4.041  0.1804  0.0225 -0.4214
   72SAPC  H20R 6333   1.656   1.320   4.089 -1.6403 -0.1204  0.1628
   72SAPC  H20S 6334   1.529   1.450   4.046  0.7508  1.8089  1.2818
   72SAPC  H20T 6335   1.696   1.495   4.093 -1.6929  2.1957 -1.2941
   72SAPC   C33 6336   1.437   0.335   2.564 -0.0098  0.0779 -0.0145
   72SAPC   H3X 6337   1.466   0.251   2.497  1.2600  1.2251 -0.9574
   72SAPC   H3Y 6338   1.329   0.352   2.542 -0.0184  1.0637  0.7517
   72SAPC   C34 6339   1.455   0.287   2.712 -0.3246  0.5967  0.1741
   72SAPC   H4X 6340   1.376   0.212   2.733  0.4708 -1.2934 -2.8640
   72SAPC   H4Y 6341   1.439   0.374   2.779 -0.9632  0.6789 -0.0767
   72SAPC   C35 6342   1.594   0.227   2.737  0.1563 -0.4370 -0.1794
   72SAPC   H5X 6343   1.664   0.309   2.708  1.2861 -1.1044  0.5847
   72SAPC   H5Y 6344   1.607   0.151   2.657  0.4028 -0.3989 -0.1756
   72SAPC   C36 6345   1.620   0.171   2.872  0.4272 -0.3480  0.6976
   72SAPC   H6X 6346   1.717   0.117   2.876  1.6788  1.6600 -0.6812
   72SAPC   H6Y 6347   1.548   0.087   2.888  2.9687 -2.9488 -0.6537
   72SAPC   C37 6348   1.623   0.273   2.983 -0.0404 -0.2220 -0.2269
   72SAPC   H7X 6349   1.529   0.329   3.002  0.3749  0.5174 -0.3005
   72SAPC   H7Y 6350   1.702   0.345   2.953  0.5895 -1.1457 -0.8229
   72SAPC   C38 6351   1.661   0.224   3.125  0.2854 -0.1777 -0.3045
   72SAPC   H8X 6352   1.763   0.187   3.102  0.0469  0.6380 -3.1707
   72SAPC   H8Y 6353   1.596   0.139   3.153 -0.4501  0.8616  1.2917
   72SAPC   C39 6354   1.671   0.336   3.239  0.4818  0.0751  0.0413
   72SAPC   H9X 6355   1.587   0.408   3.230  1.4510  0.9634 -3.2367
   72SAPC   H9Y 6356   1.768   0.389   3.229  1.5350 -1.4413  1.6139
   72SAPC  C310 6357   1.648   0.275   3.382 -0.0566  0.8292 -0.3417
   72SAPC  H10X 6358   1.686   0.171   3.383  2.4785  1.6701 -0.4014
   72SAPC  H10Y 6359   1.537   0.275   3.389 -0.1926 -1.0456 -1.7547
   72SAPC  C311 6360   1.718   0.345   3.503 -0.6786 -0.1726  0.7617
   72SAPC  H11X 6361   1.691   0.453   3.498  0.4686  0.0747 -2.9958
   72SAPC  H11Y 6362   1.828   0.342   3.495 -0.7329 -1.6669  0.1650
   72SAPC  C312 6363   1.671   0.286   3.637  0.0299  0.4660 -0.0306
   72SAPC  H12X 6364   1.687   0.176   3.642 -2.1944  0.1084 -0.1744
   72SAPC  H12Y 6365   1.565   0.313   3.652  0.1349  0.8035  0.1193
   72SAPC  C313 6366   1.753   0.352   3.750 -0.0950 -0.4151 -0.3741
   72SAPC  H13X 6367   1.732   0.461   3.746  2.2330  0.1563  1.3713
   72SAPC  H13Y 6368   1.858   0.347   3.714  0.4092 -0.0794  1.0166
   72SAPC  C314 6369   1.711   0.315   3.890 -0.4225  0.0364  0.0640
   72SAPC  H14X 6370   1.732   0.206   3.904  0.1765  0.1509  0.0767
   72SAPC  H14Y 6371   1.603   0.325   3.915 -0.1319 -0.1435  1.4747
   72SAPC  C315 6372   1.785   0.388   4.001  0.4559 -0.2065 -0.9377
   72SAPC  H15X 6373   1.762   0.496   3.988 -0.7102 -0.0398  1.7865
   72SAPC  H15Y 6374   1.896   0.378   3.995  0.6598 -0.8272  2.1429
   72SAPC  C316 6375   1.732   0.362   4.142 -0.2289 -0.5446 -0.7017
   72SAPC  H16X 6376   1.800   0.310   4.213 -1.1972 -0.4902  0.2916
   72SAPC  H16Y 6377   1.664   0.276   4.123  0.5349 -1.3087 -0.0814
   72SAPC  C317 6378   1.667   0.490   4.212  0.2172  0.4509  0.1655
   72SAPC  H17X 6379   1.606   0.536   4.130 -0.8313  0.4580  0.9338
   72SAPC  H17Y 6380   1.753   0.552   4.243  0.0506 -0.2007  1.9989
   72SAPC  C318 6381   1.578   0.471   4.333 -0.1029 -0.4089  0.6376
   72SAPC  H18X 6382   1.484   0.416   4.312 -0.0093  0.0613 -1.1520
   72SAPC  H18Y 6383   1.552   0.566   4.385  2.3405  0.3764  0.5892
   72SAPC  H18Z 6384   1.636   0.405   4.402  3.3680  2.2765  0.5763
   73SLPC     N 6385   2.283   1.917   6.351  0.5677 -0.4732 -0.1770
   73SLPC   C13 6386   2.226   2.060   6.383 -0.2254  0.9019  0.1760
   73SLPC  H13A 6387   2.251   2.125   6.300  0.2779  1.0049  0.4082
   73SLPC  H13B 6388   2.119   2.065   6.396 -0.4345  0.5823 -1.2166
   73SLPC  H13C 6389   2.269   2.087   6.478 -0.4422  0.5882  0.3647
   73SLPC   C14 6390   2.428   1.923   6.360  0.3425 -0.0262  0.5967
   73SLPC  H14A 6391   2.470   1.825   6.379 -0.3710 -0.3501  0.5384
   73SLPC  H14B 6392   2.477   1.971   6.276 -1.9163  2.0750  0.3740
   73SLPC  H14C 6393   2.455   1.992   6.438 -0.0047  0.6706  0.1192
   73SLPC   C15 6394   2.229   1.885   6.216 -0.8550  0.3713 -0.8154
   73SLPC  H15A 6395   2.290   1.920   6.135 -0.2704 -0.9733 -0.9748
   73SLPC  H15B 6396   2.212   1.780   6.200  0.2414  0.1187 -0.3975
   73SLPC  H15C 6397   2.130   1.929   6.204 -0.9499  0.8040  1.1470
   73SLPC   C12 6398   2.225   1.814   6.450  0.9643  0.1592 -0.4158
   73SLPC  H12A 6399   2.269   1.719   6.422  2.1458  0.6649 -0.3522
   73SLPC  H12B 6400   2.118   1.814   6.442  1.0396 -1.5835 -2.0231
   73SLPC   C11 6401   2.258   1.854   6.598 -0.5886  0.4435  0.0908
   73SLPC  H11A 6402   2.362   1.889   6.617 -1.9841  4.8349  0.8375
   73SLPC  H11B 6403   2.256   1.758   6.653 -2.1717  2.5652  4.1870
   73SLPC     P 6404   2.011   1.913   6.672 -0.0401 -0.4927  0.0036
   73SLPC   O13 6405   2.014   1.791   6.749  0.0469  0.3873  0.0408
   73SLPC   O14 6406   1.947   2.031   6.737 -0.4276 -0.4453  0.7524
   73SLPC   O12 6407   2.161   1.947   6.649 -0.6485 -0.0701 -1.0427
   73SLPC   O11 6408   1.949   1.881   6.530  0.3946 -0.4223 -0.4699
   73SLPC    C1 6409   1.854   1.776   6.525  0.9084  0.5016  0.3618
   73SLPC    HA 6410   1.897   1.674   6.530 -1.5513 -0.5157  4.0133
   73SLPC    HB 6411   1.786   1.798   6.609 -0.4008 -0.1180 -0.5095
   73SLPC    C2 6412   1.761   1.787   6.396 -0.0620 -0.5714 -0.8584
   73SLPC    HS 6413   1.801   1.721   6.316 -0.7296 -0.7844 -1.0243
   73SLPC   O21 6414   1.745   1.929   6.358 -0.3248  0.1614 -0.0587
   73SLPC   C21 6415   1.849   1.960   6.278 -0.1320 -0.3178 -0.4789
   73SLPC   O22 6416   1.915   1.885   6.211  0.7063 -0.1336  0.1987
   73SLPC   C22 6417   1.871   2.117   6.284  0.0770  0.2563  0.0976
   73SLPC   H2R 6418   1.772   2.163   6.308 -0.0644  0.0631 -0.1143
   73SLPC   H2S 6419   1.946   2.132   6.364  1.2192  2.0371 -1.2543
   73SLPC    C3 6420   1.619   1.720   6.418 -0.5214  0.6907  0.2719
   73SLPC    HX 6421   1.582   1.778   6.505 -0.7698  0.6010  0.2281
   73SLPC    HY 6422   1.618   1.615   6.455 -0.0154 -0.7813 -3.4581
   73SLPC   O31 6423   1.539   1.736   6.301 -0.1192  0.6240 -0.2937
   73SLPC   C31 6424   1.402   1.739   6.329 -0.3617  0.0412  0.2423
   73SLPC   O32 6425   1.351   1.703   6.430 -0.0509  0.2974 -0.3233
   73SLPC   C32 6426   1.319   1.763   6.204  0.3946 -0.0910  0.3791
   73SLPC   H2X 6427   1.256   1.853   6.216 -1.6298 -1.5230  1.0835
   73SLPC   H2Y 6428   1.253   1.674   6.219  2.4877 -1.5400  1.4786
   73SLPC   C23 6429   1.931   2.174   6.153  0.0010  0.4616 -0.1436
   73SLPC   H3R 6430   2.015   2.108   6.121  0.4471  0.7593  0.3955
   73SLPC   H3S 6431   1.967   2.276   6.177 -1.8807  0.9551  0.7334
   73SLPC   C24 6432   1.829   2.189   6.044  0.2380  0.3589 -1.0761
   73SLPC   H4R 6433   1.765   2.276   6.067 -0.0082  0.6338 -2.6929
   73SLPC   H4S 6434   1.773   2.093   6.055  0.3549  0.5112  1.8463
   73SLPC   C25 6435   1.899   2.203   5.909 -0.8979  0.3154  0.4565
   73SLPC   H5R 6436   1.945   2.105   5.883  0.6001  0.7677  1.3001
   73SLPC   H5S 6437   1.986   2.270   5.924 -0.6216 -0.6403  3.8790
   73SLPC   C26 6438   1.803   2.263   5.807  0.2310  0.8007  0.3001
   73SLPC   H6R 6439   1.770   2.365   5.833  0.3713  1.0771 -0.5642
   73SLPC   H6S 6440   1.702   2.217   5.801  1.6075 -2.4161 -0.6770
   73SLPC   C27 6441   1.838   2.242   5.662  0.4709  0.6626  0.4426
   73SLPC   H7R 6442   1.750   2.264   5.598  1.3550 -1.8204 -1.8338
   73SLPC   H7S 6443   1.863   2.134   5.664 -0.2498  0.5028  1.2637
   73SLPC   C28 6444   1.955   2.332   5.609  0.6166  0.0140  0.7325
   73SLPC   H8R 6445   1.967   2.294   5.505 -3.6406 -0.6654  0.3023
   73SLPC   H8S 6446   2.034   2.286   5.672  0.1949 -2.0757 -0.1830
   73SLPC   C29 6447   1.937   2.479   5.614 -0.6790  0.3296  0.3885
   73SLPC   H9R 6448   1.949   2.522   5.714 -0.0452 -0.1114  0.5035
   73SLPC  C210 6449   1.886   2.555   5.512 -0.7053 -0.1952 -0.4848
   73SLPC  H10R 6450   1.867   2.662   5.527 -0.4756 -0.4879  2.2775
   73SLPC  C211 6451   1.835   2.508   5.375 -0.4649 -0.7451  0.0189
   73SLPC  H11R 6452   1.744   2.563   5.341 -0.2064 -0.8740 -0.9094
   73SLPC  H11S 6453   1.802   2.402   5.375 -0.3049 -0.8174 -1.4795
   73SLPC  C212 6454   1.935   2.518   5.258  0.3817 -0.3507  0.2500
   73SLPC  H12R 6455   1.981   2.618   5.257 -1.8251  0.7290 -0.1597
   73SLPC  C213 6456   1.969   2.427   5.164 -0.2557 -0.1151 -0.6266
   73SLPC  H13R 6457   2.053   2.457   5.099  0.8507 -1.4381  0.1705
   73SLPC  C214 6458   1.904   2.292   5.139  0.5748 -0.3455  0.6585
   73SLPC  H14R 6459   1.806   2.281   5.190  0.6303  0.7533  1.0218
   73SLPC  H14S 6460   1.962   2.207   5.182 -1.5608 -0.9251  2.6095
   73SLPC  C215 6461   1.879   2.251   4.993  0.2026 -0.0785  0.1251
   73SLPC  H15R 6462   1.964   2.205   4.937 -0.0543 -0.8598  0.3552
   73SLPC  H15S 6463   1.862   2.345   4.936  3.0479  0.3202 -0.2292
   73SLPC  C216 6464   1.756   2.160   4.968 -0.0786  1.0323 -0.3830
   73SLPC  H16R 6465   1.678   2.202   5.036  3.2850  1.4323  3.6786
   73SLPC  H16S 6466   1.767   2.058   5.011 -0.3797  0.5823 -1.3600
   73SLPC  C217 6467   1.705   2.154   4.824 -0.4658  0.1628 -0.4595
   73SLPC  H17R 6468   1.696   2.260   4.793 -1.2781  0.4562  0.6929
   73SLPC  H17S 6469   1.603   2.109   4.827  0.0134 -0.9410 -0.3046
   73SLPC  C218 6470   1.788   2.070   4.722 -0.4220  0.4645 -0.0640
   73SLPC  H18R 6471   1.716   2.016   4.657 -0.4880 -1.5444  1.5961
   73SLPC  H18S 6472   1.839   1.991   4.780  1.1924  0.2257 -1.7071
   73SLPC  H18T 6473   1.856   2.135   4.663  0.3369  0.1848  0.4809
   73SLPC   C33 6474   1.390   1.777   6.068 -0.5200  0.6240 -0.0695
   73SLPC   H3X 6475   1.429   1.676   6.042 -0.8563  0.6487 -0.6814
   73SLPC   H3Y 6476   1.480   1.841   6.079  0.8173 -1.3815  1.3019
   73SLPC   C34 6477   1.320   1.830   5.944  0.9503 -0.1659 -0.3280
   73SLPC   H4X 6478   1.388   1.825   5.857  0.1672  1.1829 -1.0440
   73SLPC   H4Y 6479   1.285   1.934   5.962 -1.8404 -0.7584 -1.8231
   73SLPC   C35 6480   1.197   1.748   5.906 -0.6792 -0.0107  0.6818
   73SLPC   H5X 6481   1.123   1.742   5.989  1.1676  0.8656  2.5039
   73SLPC   H5Y 6482   1.235   1.644   5.898 -1.9890 -0.4383 -0.3708
   73SLPC   C36 6483   1.129   1.802   5.771 -0.1280  0.6144 -0.4964
   73SLPC   H6X 6484   1.203   1.807   5.689  2.0454  1.1768  1.3919
   73SLPC   H6Y 6485   1.090   1.904   5.793 -0.1247  0.4560  0.2971
   73SLPC   C37 6486   1.016   1.709   5.735  0.4448 -0.3055 -0.4160
   73SLPC   H7X 6487   0.925   1.706   5.799  1.8792 -0.4340  1.7123
   73SLPC   H7Y 6488   1.057   1.606   5.744  1.8068  0.2266 -0.3463
   73SLPC   C38 6489   0.960   1.737   5.600 -0.3580  0.1948  0.2980
   73SLPC   H8X 6490   0.907   1.834   5.603  1.6676  1.4040 -1.1933
   73SLPC   H8Y 6491   0.882   1.664   5.567  1.0790 -1.1733 -0.2049
   73SLPC   C39 6492   1.065   1.734   5.484  0.2146  0.3171 -0.1993
   73SLPC   H9X 6493   1.129   1.651   5.519 -0.3563 -0.1273 -0.1835
   73SLPC   H9Y 6494   1.132   1.822   5.483  2.8802 -1.6114 -0.1364
   73SLPC  C310 6495   1.009   1.702   5.346 -0.4305 -0.6208  0.2560
   73SLPC  H10X 6496   0.917   1.760   5.329  0.4465  0.8438  0.3833
   73SLPC  H10Y 6497   0.971   1.597   5.338 -0.3351 -0.5825 -0.8903
   73SLPC  C311 6498   1.098   1.726   5.220  0.0385  0.3529  0.1945
   73SLPC  H11X 6499   1.184   1.656   5.221 -1.5348 -1.7051 -1.1493
   73SLPC  H11Y 6500   1.146   1.826   5.233  0.5936  0.2445 -0.8852
   73SLPC  C312 6501   1.004   1.711   5.092 -0.0525  0.9438  0.1692
   73SLPC  H12X 6502   0.925   1.788   5.107 -0.2589  0.8192 -0.2645
   73SLPC  H12Y 6503   0.955   1.612   5.088  2.4825 -0.3630 -0.3719
   73SLPC  C313 6504   1.078   1.737   4.962 -0.5020 -0.0455  0.3913
   73SLPC  H13X 6505   1.156   1.657   4.965 -1.6138 -1.1581  0.3211
   73SLPC  H13Y 6506   1.138   1.830   4.962  1.5030 -1.2721  0.1089
   73SLPC  C314 6507   0.984   1.741   4.840  0.2034  0.4556  0.5226
   73SLPC  H14X 6508   0.922   1.831   4.860  1.8772  1.4010  1.7966
   73SLPC  H14Y 6509   0.921   1.650   4.833  0.0376  0.7194 -2.7596
   73SLPC  C315 6510   1.052   1.774   4.708 -0.3506 -0.3305 -0.7670
   73SLPC  H15X 6511   1.121   1.688   4.694 -1.5250 -1.7985  1.7852
   73SLPC  H15Y 6512   1.112   1.868   4.716 -0.7631  0.0142 -1.6388
   73SLPC  C316 6513   0.940   1.791   4.603  0.1322  0.1080 -0.0426
   73SLPC  H16X 6514   0.857   1.853   4.645 -1.8201 -0.6081 -2.5728
   73SLPC  H16Y 6515   0.911   1.685   4.589  1.2600 -0.3873  1.2359
   73SLPC  C317 6516   0.983   1.841   4.465 -0.8535  0.5506 -0.1608
   73SLPC  H17X 6517   1.055   1.765   4.427 -2.1169 -0.0159 -1.5475
   73SLPC  H17Y 6518   1.038   1.936   4.475  0.4728 -0.2503  0.3635
   73SLPC  C318 6519   0.864   1.859   4.361  0.1544 -0.1980 -0.2301
   73SLPC  H18X 6520   0.818   1.760   4.344 -1.4597  0.7222 -1.6077
   73SLPC  H18Y 6521   0.907   1.888   4.263  0.6091 -0.4346 -0.1012
   73SLPC  H18Z 6522   0.785   1.931   4.392 -2.7643 -3.1566 -0.1940
   74SLPC     N 6523   0.836   1.297   6.788 -0.6402 -0.7726 -0.3821
   74SLPC   C13 6524   0.817   1.228   6.655  0.1917  0.3324  0.0792
   74SLPC  H13A 6525   0.913   1.200   6.614  1.6393  2.3798  1.8091
   74SLPC  H13B 6526   0.756   1.139   6.659 -0.1210  0.5435  0.0942
   74SLPC  H13C 6527   0.773   1.294   6.582  0.8218  1.8985  1.0682
   74SLPC   C14 6528   0.944   1.398   6.761  0.0262 -0.3002  0.0667
   74SLPC  H14A 6529   1.008   1.353   6.687  0.4830  2.1902 -1.1427
   74SLPC  H14B 6530   0.912   1.492   6.718  0.2535 -1.4583 -2.8354
   74SLPC  H14C 6531   1.010   1.421   6.843 -0.7242  0.6477  0.4293
   74SLPC   C15 6532   0.875   1.206   6.899  0.1587 -0.6423  0.7448
   74SLPC  H15A 6533   0.893   1.262   6.990 -0.3316  0.0970  0.4034
   74SLPC  H15B 6534   0.791   1.139   6.904  1.1898 -1.9972  0.4825
   74SLPC  H15C 6535   0.970   1.158   6.879  1.3965  2.1853 -0.8415
   74SLPC   C12 6536   0.713   1.371   6.821  0.4333  0.5712 -0.5409
   74SLPC  H12A 6537   0.729   1.436   6.906  0.3625 -0.2571  0.1276
   74SLPC  H12B 6538   0.640   1.294   6.841 -0.9862  1.2279 -2.8348
   74SLPC   C11 6539   0.647   1.458   6.705  0.2203 -0.5827 -0.5379
   74SLPC  H11A 6540   0.543   1.494   6.718  0.3376  0.0602 -1.3137
   74SLPC  H11B 6541   0.639   1.390   6.617  0.1870 -0.1182 -0.8952
   74SLPC     P 6542   0.728   1.694   6.756  0.2436  0.2035  0.4115
   74SLPC   O13 6543   0.668   1.664   6.883  0.1765  0.2710 -0.8659
   74SLPC   O14 6544   0.866   1.745   6.756 -0.0598 -0.0266 -0.2844
   74SLPC   O12 6545   0.729   1.568   6.660 -0.1397 -0.3304  0.4837
   74SLPC   O11 6546   0.626   1.791   6.682 -0.0570  0.0852  0.3016
   74SLPC    C1 6547   0.551   1.757   6.558 -0.2995  0.0316  0.1916
   74SLPC    HA 6548   0.506   1.656   6.567 -1.4188  0.5378  0.5025
   74SLPC    HB 6549   0.466   1.824   6.535  1.6652  1.4107 -4.0970
   74SLPC    C2 6550   0.645   1.767   6.440 -0.0109 -0.3125  0.1417
   74SLPC    HS 6551   0.717   1.684   6.452 -0.7730 -0.6106  3.6079
   74SLPC   O21 6552   0.710   1.893   6.454  0.0962 -0.3353 -0.1021
   74SLPC   C21 6553   0.837   1.893   6.424 -0.5255 -0.9316  0.4063
   74SLPC   O22 6554   0.904   1.798   6.386 -0.0270  0.4483 -0.3572
   74SLPC   C22 6555   0.894   2.031   6.444 -1.1118  0.0144 -0.2092
   74SLPC   H2R 6556   0.825   2.113   6.412 -1.2966  0.1583  0.5565
   74SLPC   H2S 6557   0.891   2.045   6.554 -0.7611  0.1369 -0.2149
   74SLPC    C3 6558   0.573   1.748   6.305 -0.4534  0.4869 -0.6779
   74SLPC    HX 6559   0.500   1.831   6.293  1.1172  2.4404  2.0692
   74SLPC    HY 6560   0.499   1.666   6.312 -1.2775  1.3196  0.8495
   74SLPC   O31 6561   0.673   1.744   6.200  0.1154 -0.3883  0.3665
   74SLPC   C31 6562   0.728   1.624   6.194  0.5843  0.7929 -0.0638
   74SLPC   O32 6563   0.706   1.530   6.266 -0.2134  0.3367 -0.7181
   74SLPC   C32 6564   0.813   1.611   6.069 -0.3049  0.7347  0.0728
   74SLPC   H2X 6565   0.921   1.621   6.091  0.1928 -2.3176 -0.5873
   74SLPC   H2Y 6566   0.769   1.687   6.001  0.8463  0.3159 -1.1809
   74SLPC   C23 6567   1.041   2.056   6.389  0.4483 -0.3384  0.5512
   74SLPC   H3R 6568   1.103   1.980   6.441  2.7785  1.2207  0.2445
   74SLPC   H3S 6569   1.087   2.155   6.413  2.2353 -1.1773  0.7830
   74SLPC   C24 6570   1.052   2.039   6.236  0.1715  0.7137  0.4666
   74SLPC   H4R 6571   1.030   1.935   6.205  2.4425  0.0968  0.7794
   74SLPC   H4S 6572   1.157   2.050   6.203 -0.4900  1.3532 -1.5644
   74SLPC   C25 6573   0.950   2.118   6.158 -0.2584  0.1236 -0.7140
   74SLPC   H5R 6574   0.960   2.225   6.187  4.1821 -0.6403  1.5317
   74SLPC   H5S 6575   0.851   2.074   6.184 -0.1964  0.3904 -0.0008
   74SLPC   C26 6576   0.972   2.108   6.007 -0.1382 -0.1354  0.0884
   74SLPC   H6R 6577   0.983   2.002   5.976 -0.1873  0.3627 -1.7184
   74SLPC   H6S 6578   1.062   2.161   5.970 -0.2625 -1.5428 -2.4435
   74SLPC   C27 6579   0.848   2.166   5.951  0.3406 -0.8380  0.4569
   74SLPC   H7R 6580   0.824   2.263   5.999 -1.3954 -0.4228 -1.1347
   74SLPC   H7S 6581   0.758   2.103   5.965 -0.4310  0.1974  0.2476
   74SLPC   C28 6582   0.853   2.188   5.798 -0.3752  0.5880 -0.1363
   74SLPC   H8R 6583   0.752   2.215   5.761 -0.7750  0.9494  1.1503
   74SLPC   H8S 6584   0.854   2.090   5.745 -0.9845  1.8659 -2.6526
   74SLPC   C29 6585   0.960   2.288   5.753 -0.1268  0.0884  0.4226
   74SLPC   H9R 6586   0.996   2.359   5.829  1.2929  1.4172 -1.4135
   74SLPC  C210 6587   1.016   2.293   5.630 -0.3775  0.0699  0.2145
   74SLPC  H10R 6588   1.086   2.370   5.594 -0.2180 -0.5433 -0.8566
   74SLPC  C211 6589   0.977   2.193   5.522 -0.1664 -0.7677 -0.3224
   74SLPC  H11R 6590   0.923   2.251   5.444  1.4372  0.9102 -0.2669
   74SLPC  H11S 6591   0.895   2.127   5.556 -0.8983 -0.0169 -0.6006
   74SLPC  C212 6592   1.083   2.118   5.445 -0.6166  0.3047 -0.9906
   74SLPC  H12R 6593   1.128   2.037   5.503  0.3827 -0.3817 -2.6526
   74SLPC  C213 6594   1.128   2.137   5.317 -0.2678 -0.3299  0.0938
   74SLPC  H13R 6595   1.214   2.076   5.286  1.2923  1.8677 -0.1595
   74SLPC  C214 6596   1.082   2.240   5.217 -0.4229 -0.4665  0.8885
   74SLPC  H14R 6597   1.165   2.304   5.181 -1.4225 -0.3116 -1.3284
   74SLPC  H14S 6598   0.995   2.298   5.254  1.1981  2.6830  0.1574
   74SLPC  C215 6599   1.045   2.164   5.085  0.2560 -0.1034 -0.4662
   74SLPC  H15R 6600   0.950   2.107   5.086 -0.9022  1.7385  1.5931
   74SLPC  H15S 6601   1.119   2.087   5.054 -0.4022 -0.9979  0.1361
   74SLPC  C216 6602   1.042   2.253   4.960  1.2215  0.5880  1.1670
   74SLPC  H16R 6603   1.145   2.286   4.937  1.0935  0.2292  0.0150
   74SLPC  H16S 6604   0.978   2.344   4.967  2.9800  1.9739 -0.0303
   74SLPC  C217 6605   0.997   2.170   4.837  0.5653 -0.3556 -0.1855
   74SLPC  H17R 6606   0.893   2.130   4.845  0.8961 -1.1910  0.0356
   74SLPC  H17S 6607   1.063   2.081   4.832 -0.4306 -1.4309  3.1876
   74SLPC  C218 6608   1.016   2.248   4.708 -0.3580 -0.3873  0.0723
   74SLPC  H18R 6609   0.976   2.190   4.622  2.5736 -1.7721 -0.4744
   74SLPC  H18S 6610   1.123   2.265   4.684 -0.7544  2.4893 -0.0568
   74SLPC  H18T 6611   0.957   2.342   4.719 -0.4233 -0.2440 -1.2856
   74SLPC   C33 6612   0.784   1.473   6.001  0.4449  0.3707 -0.3262
   74SLPC   H3X 6613   0.821   1.386   6.059  0.6425 -0.1831 -1.2698
   74SLPC   H3Y 6614   0.837   1.470   5.903  1.4086  0.7777  0.1682
   74SLPC   C34 6615   0.632   1.450   5.960 -0.4738 -0.5148 -0.3614
   74SLPC   H4X 6616   0.588   1.551   5.947 -2.0370 -1.2092 -0.8066
   74SLPC   H4Y 6617   0.574   1.404   6.043  0.3166  1.7564  1.5751
   74SLPC   C35 6618   0.612   1.379   5.824 -0.4494  0.1542 -0.3202
   74SLPC   H5X 6619   0.509   1.338   5.823 -0.0873 -0.8658  1.4651
   74SLPC   H5Y 6620   0.672   1.286   5.825 -1.1845 -0.3271  0.8995
   74SLPC   C36 6621   0.618   1.476   5.708  0.0771 -0.8688  1.1559
   74SLPC   H6X 6622   0.724   1.502   5.692 -0.0900 -0.4194  0.7462
   74SLPC   H6Y 6623   0.566   1.573   5.723  2.0818  0.4843 -0.2161
   74SLPC   C37 6624   0.566   1.414   5.573  0.2655 -0.0712 -0.0301
   74SLPC   H7X 6625   0.459   1.392   5.593  0.4651 -1.4222 -0.3312
   74SLPC   H7Y 6626   0.608   1.312   5.555 -1.2437 -0.4423 -1.7235
   74SLPC   C38 6627   0.581   1.500   5.446 -0.4978  0.4165  0.6016
   74SLPC   H8X 6628   0.684   1.537   5.429  0.6587 -2.0270  1.6727
   74SLPC   H8Y 6629   0.508   1.580   5.469  0.5050  1.0013  1.8601
   74SLPC   C39 6630   0.531   1.430   5.318  0.5160  0.7274 -0.4659
   74SLPC   H9X 6631   0.424   1.402   5.309  0.1169  1.2058  1.9950
   74SLPC   H9Y 6632   0.580   1.331   5.326 -2.1425 -0.7882 -1.8454
   74SLPC  C310 6633   0.576   1.499   5.191 -0.0431 -0.3480 -0.1892
   74SLPC  H10X 6634   0.686   1.512   5.196  0.0721 -1.7443  3.5742
   74SLPC  H10Y 6635   0.532   1.600   5.178 -0.5640 -0.8006 -2.5922
   74SLPC  C311 6636   0.531   1.424   5.066  0.6667 -0.1423 -0.2507
   74SLPC  H11X 6637   0.424   1.431   5.035  0.8756  1.7965 -0.6866
   74SLPC  H11Y 6638   0.563   1.324   5.100  1.9557  0.7326  1.2279
   74SLPC  C312 6639   0.619   1.467   4.952 -0.2667  0.2933 -0.1958
   74SLPC  H12X 6640   0.722   1.447   4.989 -0.3451  0.1146 -0.0710
   74SLPC  H12Y 6641   0.608   1.568   4.908  1.3022  0.6770  0.2517
   74SLPC  C313 6642   0.589   1.366   4.833 -0.4261  0.3659  0.9991
   74SLPC  H13X 6643   0.490   1.393   4.792 -1.1443 -2.0100  1.0748
   74SLPC  H13Y 6644   0.578   1.263   4.871 -0.5244 -0.1402 -0.3621
   74SLPC  C314 6645   0.702   1.376   4.729  1.1729  0.6506  0.4431
   74SLPC  H14X 6646   0.778   1.297   4.746 -0.0733 -0.6003  0.4184
   74SLPC  H14Y 6647   0.760   1.471   4.732 -1.2239  2.3196 -1.7362
   74SLPC  C315 6648   0.648   1.379   4.589  0.2144  0.0279  0.0435
   74SLPC  H15X 6649   0.568   1.455   4.577  2.5497  2.4614 -1.4893
   74SLPC  H15Y 6650   0.613   1.277   4.562  2.4944 -0.2594 -2.2788
   74SLPC  C316 6651   0.755   1.398   4.478 -0.6355 -0.6655  0.1028
   74SLPC  H16X 6652   0.836   1.324   4.495 -0.3596  0.2890  3.8809
   74SLPC  H16Y 6653   0.801   1.499   4.477  2.7314 -2.0275  0.8731
   74SLPC  C317 6654   0.703   1.376   4.335  0.1297  0.3083 -0.8387
   74SLPC  H17X 6655   0.615   1.435   4.301  1.6048  2.5326 -1.0379
   74SLPC  H17Y 6656   0.668   1.270   4.333  0.9645  0.0097 -0.1469
   74SLPC  C318 6657   0.812   1.397   4.227  0.0442  0.7290  0.3760
   74SLPC  H18X 6658   0.853   1.500   4.224 -0.7104  1.1169  2.0229
   74SLPC  H18Y 6659   0.781   1.365   4.126  1.4974 -0.4817  0.2601
   74SLPC  H18Z 6660   0.897   1.328   4.248 -1.6439 -1.7013 -0.3398
   75SLPC     N 6661   3.313   2.334   6.535 -0.2583 -0.7739  0.3346
   75SLPC   C13 6662   3.338   2.465   6.465  0.4974 -0.2330 -0.6659
   75SLPC  H13A 6663   3.237   2.503   6.468 -0.3880 -2.4174 -0.4296
   75SLPC  H13B 6664   3.410   2.522   6.522  0.0334  0.6105 -0.9092
   75SLPC  H13C 6665   3.367   2.447   6.362  1.4208  0.6330 -0.5721
   75SLPC   C14 6666   3.273   2.367   6.680  0.0351  0.1568 -0.9664
   75SLPC  H14A 6667   3.355   2.416   6.729 -0.6597 -0.1830  0.5996
   75SLPC  H14B 6668   3.190   2.436   6.686  2.6955  3.3989  1.6250
   75SLPC  H14C 6669   3.251   2.274   6.731  1.6445 -0.4759 -1.3545
   75SLPC   C15 6670   3.450   2.259   6.524 -0.1738 -0.4657  0.5113
   75SLPC  H15A 6671   3.455   2.188   6.606  1.4716  0.9066  1.6609
   75SLPC  H15B 6672   3.472   2.219   6.426  1.7071 -1.8757  1.4373
   75SLPC  H15C 6673   3.527   2.327   6.556 -1.1684  0.2262  1.5347
   75SLPC   C12 6674   3.201   2.252   6.472  0.2155 -0.1824 -0.2485
   75SLPC  H12A 6675   3.116   2.317   6.485  1.1836  1.0217  0.1971
   75SLPC  H12B 6676   3.191   2.155   6.521  0.7034 -0.1656 -0.1102
   75SLPC   C11 6677   3.219   2.207   6.320 -0.7161  0.2838 -0.3234
   75SLPC  H11A 6678   3.235   2.299   6.260 -2.1202  0.7492 -0.0368
   75SLPC  H11B 6679   3.126   2.154   6.292 -1.1794  0.4746  0.7740
   75SLPC     P 6680   3.346   1.970   6.316  0.3247  0.1797  0.3546
   75SLPC   O13 6681   3.483   1.929   6.287  0.2636 -0.2264  0.2554
   75SLPC   O14 6682   3.288   1.927   6.449 -0.0163  0.0585  0.5412
   75SLPC   O12 6683   3.339   2.127   6.307 -0.2134  0.2656  0.2973
   75SLPC   O11 6684   3.246   1.929   6.203  0.5542 -0.2260  0.6498
   75SLPC    C1 6685   3.265   1.969   6.069 -0.0374 -0.0193  0.1844
   75SLPC    HA 6686   3.171   1.957   6.011  0.6151 -0.0829 -0.8781
   75SLPC    HB 6687   3.304   2.073   6.066  3.1475 -1.0410  1.5523
   75SLPC    C2 6688   3.372   1.876   5.998 -0.5806 -0.0153 -0.3795
   75SLPC    HS 6689   3.470   1.899   6.045 -0.0757 -2.6764  0.0170
   75SLPC   O21 6690   3.376   1.918   5.863 -0.6146  0.3356  0.0595
   75SLPC   C21 6691   3.454   1.843   5.784 -0.0591 -0.2403  0.1929
   75SLPC   O22 6692   3.535   1.758   5.812  0.4381 -1.3020 -0.3287
   75SLPC   C22 6693   3.428   1.894   5.643  1.1048  0.7317 -0.3814
   75SLPC   H2R 6694   3.335   1.843   5.609  1.2553  1.2745 -1.6600
   75SLPC   H2S 6695   3.416   2.004   5.658  1.4381  0.6386  0.6757
   75SLPC    C3 6696   3.341   1.729   6.020 -0.0839  0.6927 -0.2166
   75SLPC    HX 6697   3.316   1.719   6.127 -1.2620 -2.2771 -0.6747
   75SLPC    HY 6698   3.432   1.670   5.994 -0.4803  0.9637 -2.4459
   75SLPC   O31 6699   3.237   1.670   5.951 -0.0342 -0.1102  0.4796
   75SLPC   C31 6700   3.205   1.543   5.978  0.1427 -0.3367  0.1018
   75SLPC   O32 6701   3.255   1.476   6.067 -0.1315 -0.6139 -0.2947
   75SLPC   C32 6702   3.106   1.488   5.880 -0.3891  0.2380  0.5653
   75SLPC   H2X 6703   3.005   1.530   5.901 -0.1300  0.0138  2.3775
   75SLPC   H2Y 6704   3.090   1.381   5.904  1.6292 -0.4168 -0.7760
   75SLPC   C23 6705   3.542   1.879   5.540 -0.0449 -0.6926 -0.0296
   75SLPC   H3R 6706   3.635   1.862   5.599 -0.5557 -0.6069  0.8271
   75SLPC   H3S 6707   3.561   1.953   5.460 -0.9409 -1.5028 -1.0190
   75SLPC   C24 6708   3.524   1.739   5.471 -0.8444 -0.5769 -0.0288
   75SLPC   H4R 6709   3.506   1.654   5.540 -1.3863  0.2135  0.8222
   75SLPC   H4S 6710   3.616   1.726   5.409 -0.6352 -0.2123  0.2010
   75SLPC   C25 6711   3.416   1.727   5.364  0.0310  0.1067 -0.0073
   75SLPC   H5R 6712   3.440   1.780   5.269  1.7763 -0.5507  0.0396
   75SLPC   H5S 6713   3.317   1.767   5.394  0.3156 -0.0013  1.1119
   75SLPC   C26 6714   3.373   1.589   5.318 -0.1100 -0.6539 -0.5386
   75SLPC   H6R 6715   3.323   1.605   5.220  1.5098 -0.0123 -1.2922
   75SLPC   H6S 6716   3.300   1.548   5.392 -0.9955  2.4889  0.4855
   75SLPC   C27 6717   3.496   1.498   5.306 -0.5078  0.3528  0.5816
   75SLPC   H7R 6718   3.561   1.493   5.396  1.5710 -2.1965 -0.9253
   75SLPC   H7S 6719   3.569   1.525   5.226 -1.4208  0.3508 -0.2654
   75SLPC   C28 6720   3.460   1.346   5.299 -0.0167 -0.9488  0.3835
   75SLPC   H8R 6721   3.386   1.341   5.216  0.6103  0.5383 -0.3006
   75SLPC   H8S 6722   3.394   1.322   5.385  0.4246  0.0380  1.0062
   75SLPC   C29 6723   3.573   1.249   5.275  0.0591  0.1900 -0.6709
   75SLPC   H9R 6724   3.610   1.206   5.369 -0.0837 -1.4226 -1.3178
   75SLPC  C210 6725   3.628   1.209   5.164 -0.5346 -0.3596 -0.4695
   75SLPC  H10R 6726   3.695   1.121   5.165  0.6401  0.5148 -0.4016
   75SLPC  C211 6727   3.586   1.265   5.028 -0.0958 -0.7570 -0.1993
   75SLPC  H11R 6728   3.674   1.295   4.967  1.8168 -1.5344  2.0045
   75SLPC  H11S 6729   3.539   1.361   5.056 -1.8484 -2.6049  4.0750
   75SLPC  C212 6730   3.485   1.196   4.942 -0.5542 -0.3958  0.7130
   75SLPC  H12R 6731   3.409   1.137   4.995  0.4778 -0.8155  1.7699
   75SLPC  C213 6732   3.477   1.214   4.808 -0.6992 -0.7407  0.7744
   75SLPC  H13R 6733   3.401   1.154   4.756  1.0353 -0.1389 -2.7937
   75SLPC  C214 6734   3.549   1.307   4.712  0.3020  0.1501  0.1336
   75SLPC  H14R 6735   3.633   1.355   4.766 -0.3172  0.0098  1.2526
   75SLPC  H14S 6736   3.481   1.392   4.687 -1.5125 -0.3615  2.8820
   75SLPC  C215 6737   3.607   1.249   4.582  0.1875  0.3216 -0.1068
   75SLPC  H15R 6738   3.670   1.324   4.530  1.1492 -0.9805 -0.9054
   75SLPC  H15S 6739   3.528   1.232   4.505 -0.1998  2.3764 -0.2160
   75SLPC  C216 6740   3.684   1.116   4.605 -0.1743 -0.5539 -0.1782
   75SLPC  H16R 6741   3.624   1.028   4.637  2.8032 -3.0182 -0.9192
   75SLPC  H16S 6742   3.750   1.139   4.690 -1.4133  0.0667  0.6541
   75SLPC  C217 6743   3.780   1.083   4.492 -0.4205 -0.5807  0.1366
   75SLPC  H17R 6744   3.837   1.175   4.468 -3.5372  1.2049 -0.8702
   75SLPC  H17S 6745   3.733   1.056   4.395  0.1416 -1.6123  0.1350
   75SLPC  C218 6746   3.889   0.982   4.535 -0.4161  0.5076  0.2011
   75SLPC  H18R 6747   3.843   0.900   4.595  1.1723 -0.6232 -0.0464
   75SLPC  H18S 6748   3.960   1.030   4.604 -0.0646 -0.0946  0.2693
   75SLPC  H18T 6749   3.949   0.944   4.449 -2.2072 -0.5752 -0.6542
   75SLPC   C33 6750   3.144   1.508   5.733  0.4224 -0.1873 -0.3645
   75SLPC   H3X 6751   3.251   1.478   5.721  0.0213 -0.9497 -2.3808
   75SLPC   H3Y 6752   3.138   1.616   5.708 -1.2208 -0.2702 -0.4271
   75SLPC   C34 6753   3.046   1.427   5.644 -0.5080 -0.2331 -0.4622
   75SLPC   H4X 6754   2.940   1.460   5.652 -0.4447 -0.4751  3.9921
   75SLPC   H4Y 6755   3.063   1.326   5.686 -2.0354  1.2626  4.4801
   75SLPC   C35 6756   3.063   1.439   5.491 -0.0041 -0.1432  0.5282
   75SLPC   H5X 6757   3.168   1.412   5.470  0.7152  0.4586  3.0169
   75SLPC   H5Y 6758   3.046   1.544   5.460 -1.3539 -0.1927  1.0302
   75SLPC   C36 6759   2.963   1.344   5.418 -0.4465 -0.0689  0.8374
   75SLPC   H6X 6760   2.862   1.370   5.455 -1.5601 -2.0881 -0.5742
   75SLPC   H6Y 6761   2.976   1.234   5.432 -0.5767 -0.1546  0.2866
   75SLPC   C37 6762   2.951   1.359   5.258  0.5860  0.3465 -0.4712
   75SLPC   H7X 6763   2.909   1.462   5.247 -1.8731 -0.6161 -0.7045
   75SLPC   H7Y 6764   2.874   1.293   5.214  0.9369 -0.2107 -0.2535
   75SLPC   C38 6765   3.078   1.343   5.180  0.0324 -0.5071  0.2211
   75SLPC   H8X 6766   3.099   1.235   5.170 -3.4046 -1.3473  0.9276
   75SLPC   H8Y 6767   3.159   1.395   5.237 -1.7481  2.8981 -0.0647
   75SLPC   C39 6768   3.075   1.411   5.042 -0.0638 -0.2182  0.2668
   75SLPC   H9X 6769   3.174   1.427   4.994 -0.4089  0.0233 -0.3648
   75SLPC   H9Y 6770   3.035   1.515   5.051 -0.4072 -0.3960  0.8712
   75SLPC  C310 6771   2.985   1.329   4.938  0.6058 -0.0005  0.1456
   75SLPC  H10X 6772   2.951   1.399   4.859  0.9566  0.6235  0.5379
   75SLPC  H10Y 6773   2.891   1.287   4.980  1.8362 -2.7588  0.3509
   75SLPC  C311 6774   3.066   1.219   4.875  0.0513  0.1430  0.6532
   75SLPC  H11X 6775   3.037   1.121   4.920  0.5419 -1.3123 -1.9939
   75SLPC  H11Y 6776   3.176   1.229   4.871 -0.0805  1.2741 -2.2848
   75SLPC  C312 6777   3.011   1.198   4.730 -0.3840 -0.2630 -0.2365
   75SLPC  H12X 6778   3.067   1.116   4.681 -0.3735  0.4845 -1.5055
   75SLPC  H12Y 6779   3.019   1.288   4.665 -0.7472 -0.8878 -1.1695
   75SLPC  C313 6780   2.863   1.146   4.740  0.5650  0.4229  0.1786
   75SLPC  H13X 6781   2.789   1.219   4.780 -0.5845 -1.6149  2.0756
   75SLPC  H13Y 6782   2.866   1.067   4.819  1.1447  2.1921  1.9942
   75SLPC  C314 6783   2.816   1.094   4.603 -0.3122  0.3109  0.1946
   75SLPC  H14X 6784   2.885   1.014   4.570 -0.4003  0.6726 -0.9207
   75SLPC  H14Y 6785   2.833   1.164   4.518  0.7352  0.2801  0.3625
   75SLPC  C315 6786   2.678   1.031   4.600  0.3115  0.6257  0.2341
   75SLPC  H15X 6787   2.588   1.091   4.627 -1.2680 -0.4608 -2.2257
   75SLPC  H15Y 6788   2.692   0.948   4.673  4.2891  0.1061 -0.9029
   75SLPC  C316 6789   2.650   0.976   4.462 -0.7509  0.0417  0.5096
   75SLPC  H16X 6790   2.728   0.901   4.436 -0.1477  0.0483  2.1961
   75SLPC  H16Y 6791   2.670   1.070   4.406 -0.8868  0.5671  1.3332
   75SLPC  C317 6792   2.511   0.920   4.451 -0.8628 -0.0800 -0.0506
   75SLPC  H17X 6793   2.439   1.004   4.445  0.8540  1.3579 -3.8045
   75SLPC  H17Y 6794   2.486   0.849   4.532  0.1731 -2.2670 -1.5342
   75SLPC  C318 6795   2.504   0.838   4.318 -0.5998  0.0569 -0.0204
   75SLPC  H18X 6796   2.403   0.794   4.304 -0.6443  0.7181 -2.2555
   75SLPC  H18Y 6797   2.581   0.760   4.304 -1.6718 -0.9078 -0.7488
   75SLPC  H18Z 6798   2.529   0.903   4.231  2.2913  0.5696  1.0770
   76SLPC     N 6799   3.897   1.234   6.778  0.3264 -0.1267 -0.1896
   76SLPC   C13 6800   3.877   1.102   6.708  0.6847  0.2403 -0.2254
   76SLPC  H13A 6801   3.819   1.108   6.617  0.4511 -1.7873 -0.2546
   76SLPC  H13B 6802   3.973   1.061   6.679  1.4134  1.0636  0.9404
   76SLPC  H13C 6803   3.821   1.031   6.768 -1.7315  1.7678 -0.5603
   76SLPC   C14 6804   4.008   1.227   6.879  0.0140 -0.0197  0.0774
   76SLPC  H14A 6805   4.097   1.193   6.829  1.2383  0.7303  1.6512
   76SLPC  H14B 6806   4.031   1.322   6.924 -3.4413 -0.0939  2.4214
   76SLPC  H14C 6807   3.985   1.154   6.956  0.1057  0.5371  0.6342
   76SLPC   C15 6808   3.762   1.271   6.842  0.3957  0.2303  0.1120
   76SLPC  H15A 6809   3.772   1.368   6.888  2.2860  0.9946 -1.7761
   76SLPC  H15B 6810   3.678   1.277   6.775 -1.1213 -0.6371  1.8317
   76SLPC  H15C 6811   3.741   1.194   6.915 -1.4831  1.1331  0.5850
   76SLPC   C12 6812   3.932   1.339   6.675  0.1423 -0.5034  0.4169
   76SLPC  H12A 6813   3.948   1.440   6.712 -2.1075  0.8514 -1.9414
   76SLPC  H12B 6814   3.855   1.362   6.603  0.4048 -1.2237 -0.0953
   76SLPC   C11 6815   4.054   1.326   6.583 -1.4309 -0.3723  0.4846
   76SLPC  H11A 6816   4.046   1.418   6.522  0.6175 -0.8725 -0.6275
   76SLPC  H11B 6817   4.056   1.234   6.521  1.0208 -0.2762  0.3226
   76SLPC     P 6818   4.297   1.400   6.592 -0.4695  0.1009 -0.3329
   76SLPC   O13 6819   4.258   1.533   6.545  0.1917  0.0016  0.2796
   76SLPC   O14 6820   4.408   1.397   6.686 -0.2254  0.0858 -0.3677
   76SLPC   O12 6821   4.173   1.326   6.656 -0.7360 -0.2309 -0.0262
   76SLPC   O11 6822   4.319   1.298   6.475 -0.2745 -0.4481 -0.4376
   76SLPC    C1 6823   4.276   1.343   6.342 -0.3417 -0.3831 -0.6239
   76SLPC    HA 6824   4.170   1.375   6.335 -0.8152 -1.8667 -0.4972
   76SLPC    HB 6825   4.351   1.415   6.303 -0.1138  1.6743  3.2074
   76SLPC    C2 6826   4.267   1.225   6.244 -0.5637  0.5323  0.1201
   76SLPC    HS 6827   4.230   1.132   6.293 -0.5513  0.0707 -0.7247
   76SLPC   O21 6828   4.399   1.200   6.187 -0.1643  0.1123  0.5306
   76SLPC   C21 6829   4.426   1.070   6.149  0.5784  0.0865  0.5202
   76SLPC   O22 6830   4.341   0.987   6.150  0.1563  0.3810 -0.1333
   76SLPC   C22 6831   4.560   1.046   6.095 -0.5759  0.8228  0.1972
   76SLPC   H2R 6832   4.627   1.133   6.117 -1.2791  0.9465  2.0969
   76SLPC   H2S 6833   4.610   0.957   6.138 -0.1646  1.0796  0.2636
   76SLPC    C3 6834   4.171   1.250   6.127  0.5726 -0.4993  0.1971
   76SLPC    HX 6835   4.069   1.264   6.168  0.5560  0.4069 -0.1252
   76SLPC    HY 6836   4.172   1.162   6.059  2.6748 -0.6426  0.3683
   76SLPC   O31 6837   4.201   1.371   6.044  0.3300  0.3416 -1.2524
   76SLPC   C31 6838   4.120   1.478   6.045  0.8054  0.4766 -0.3288
   76SLPC   O32 6839   4.026   1.482   6.121  0.2813 -0.1750  0.3445
   76SLPC   C32 6840   4.165   1.590   5.946  0.5928  0.0816  0.0569
   76SLPC   H2X 6841   4.210   1.671   6.006  1.5783 -0.5138  0.1476
   76SLPC   H2Y 6842   4.082   1.636   5.887  2.0080  2.5461 -0.1444
   76SLPC   C23 6843   4.546   1.027   5.946 -0.2415 -0.1671  0.2436
   76SLPC   H3R 6844   4.474   0.944   5.928  2.2792 -2.5038  0.2564
   76SLPC   H3S 6845   4.644   0.996   5.904 -0.3527  0.9498 -0.8874
   76SLPC   C24 6846   4.497   1.147   5.866  0.0214 -1.1763 -0.9510
   76SLPC   H4R 6847   4.558   1.239   5.879 -0.0204 -1.2020 -0.5858
   76SLPC   H4S 6848   4.401   1.176   5.913  0.8021 -0.7225  0.4268
   76SLPC   C25 6849   4.478   1.111   5.722  0.0582  0.2730  0.6143
   76SLPC   H5R 6850   4.418   1.018   5.720 -1.0928  1.0064 -0.2256
   76SLPC   H5S 6851   4.575   1.084   5.676 -0.0847 -0.0497  0.5008
   76SLPC   C26 6852   4.409   1.227   5.647  0.5544  0.7892  0.0034
   76SLPC   H6R 6853   4.486   1.307   5.641 -1.0069  2.4547  1.0907
   76SLPC   H6S 6854   4.323   1.266   5.705  0.0966  0.7068 -0.6041
   76SLPC   C27 6855   4.350   1.196   5.506 -0.2432 -0.1014  0.1581
   76SLPC   H7R 6856   4.331   1.299   5.469 -0.4884 -0.7686 -1.6579
   76SLPC   H7S 6857   4.255   1.139   5.515 -0.3268  0.1087  0.6881
   76SLPC   C28 6858   4.442   1.123   5.397  0.8235 -0.5606  0.0459
   76SLPC   H8R 6859   4.386   1.113   5.301 -0.4089  0.6949  0.6008
   76SLPC   H8S 6860   4.456   1.019   5.434 -0.6427 -0.3517  1.2698
   76SLPC   C29 6861   4.573   1.200   5.392  0.1317  0.2423 -0.0129
   76SLPC   H9R 6862   4.625   1.213   5.488  0.4844  0.6295 -0.2497
   76SLPC  C210 6863   4.626   1.252   5.282 -0.4763  0.4485  0.8781
   76SLPC  H10R 6864   4.731   1.283   5.283 -0.0421 -0.9196 -0.1350
   76SLPC  C211 6865   4.565   1.255   5.139 -0.2214 -0.4759 -0.5567
   76SLPC  H11R 6866   4.595   1.354   5.098  0.7961  0.1949  1.6531
   76SLPC  H11S 6867   4.455   1.270   5.140 -0.1241  0.3460 -0.7807
   76SLPC  C212 6868   4.601   1.138   5.050  0.7355  0.3509 -0.1703
   76SLPC  H12R 6869   4.656   1.060   5.104  0.3339  0.3683  0.2731
   76SLPC  C213 6870   4.591   1.130   4.921  0.6573  0.4867  0.5048
   76SLPC  H13R 6871   4.616   1.031   4.880 -1.7448  0.5244 -1.2800
   76SLPC  C214 6872   4.536   1.229   4.825 -0.1212  0.3616  0.1267
   76SLPC  H14R 6873   4.486   1.309   4.884 -0.5901  0.5941 -0.5820
   76SLPC  H14S 6874   4.454   1.199   4.757  0.3077  0.8176 -0.6066
   76SLPC  C215 6875   4.640   1.305   4.743  0.0249  0.4211  0.0556
   76SLPC  H15R 6876   4.730   1.320   4.806  0.7460  1.1360 -1.0965
   76SLPC  H15S 6877   4.602   1.409   4.726 -0.8023  0.1195  0.0037
   76SLPC  C216 6878   4.669   1.237   4.614  0.3161  0.5659 -0.0953
   76SLPC  H16R 6879   4.571   1.215   4.567 -0.2532  2.5022  0.0635
   76SLPC  H16S 6880   4.724   1.143   4.632 -0.6258  0.2316  1.1178
   76SLPC  C217 6881   4.758   1.314   4.513 -0.2038  0.8578  0.1950
   76SLPC  H17R 6882   4.864   1.319   4.548 -0.3457  3.2609  0.4214
   76SLPC  H17S 6883   4.721   1.418   4.507 -0.5347  0.6424 -2.7031
   76SLPC  C218 6884   4.753   1.250   4.378 -0.1827  0.3142  0.2048
   76SLPC  H18R 6885   4.646   1.231   4.354 -0.1389 -0.3841  0.5299
   76SLPC  H18S 6886   4.805   1.153   4.361 -0.3668  0.5585 -2.0169
   76SLPC  H18T 6887   4.795   1.310   4.295  0.1994 -0.2215  0.0034
   76SLPC   C33 6888   4.262   1.541   5.833  0.4303 -0.3343 -0.5248
   76SLPC   H3X 6889   4.215   1.448   5.795  1.0059 -0.4255 -1.0270
   76SLPC   H3Y 6890   4.352   1.503   5.886 -1.7476 -6.2952 -0.3556
   76SLPC   C34 6891   4.279   1.647   5.714 -0.7876 -0.1667 -0.2088
   76SLPC   H4X 6892   4.297   1.742   5.769 -1.4070  1.3796 -2.5228
   76SLPC   H4Y 6893   4.182   1.662   5.662 -0.5190  0.5376 -0.5202
   76SLPC   C35 6894   4.396   1.625   5.625  1.0757 -0.5770  0.6686
   76SLPC   H5X 6895   4.395   1.516   5.607  1.2425 -0.9704  2.8472
   76SLPC   H5Y 6896   4.487   1.665   5.673 -0.1647  2.2895  0.8936
   76SLPC   C36 6897   4.359   1.679   5.481 -0.8802  0.8480  0.2318
   76SLPC   H6X 6898   4.360   1.789   5.492 -0.4478  0.7714  1.0634
   76SLPC   H6Y 6899   4.262   1.639   5.445  0.2624 -1.6743 -0.2755
   76SLPC   C37 6900   4.464   1.625   5.379  0.5139 -0.0974  0.0468
   76SLPC   H7X 6901   4.461   1.514   5.392  4.4020 -0.3656 -0.2791
   76SLPC   H7Y 6902   4.568   1.654   5.404  1.4899 -0.0862 -3.5241
   76SLPC   C38 6903   4.445   1.642   5.233  0.4399  0.4927  0.2498
   76SLPC   H8X 6904   4.525   1.577   5.191 -0.1992 -1.1311  1.4574
   76SLPC   H8Y 6905   4.468   1.746   5.201  2.0600  0.3253  0.7943
   76SLPC   C39 6906   4.310   1.589   5.177  0.6661  0.4610 -0.2804
   76SLPC   H9X 6907   4.226   1.655   5.208 -0.6033 -1.9581  1.9162
   76SLPC   H9Y 6908   4.278   1.491   5.220 -0.0225 -0.1557 -2.1143
   76SLPC  C310 6909   4.301   1.584   5.023 -0.5071  0.1752 -0.0112
   76SLPC  H10X 6910   4.201   1.549   4.990 -0.8878 -1.5205  2.5892
   76SLPC  H10Y 6911   4.371   1.504   4.992 -0.4844  0.6883 -1.3571
   76SLPC  C311 6912   4.330   1.720   4.965 -0.0442  0.0726  0.6051
   76SLPC  H11X 6913   4.433   1.749   4.995  0.3952 -2.2020  1.4521
   76SLPC  H11Y 6914   4.249   1.788   4.999 -1.0543  0.5154 -2.3532
   76SLPC  C312 6915   4.315   1.725   4.812  0.3351  0.0363  0.0208
   76SLPC  H12X 6916   4.325   1.829   4.775 -4.3969  0.6885 -0.0924
   76SLPC  H12Y 6917   4.216   1.691   4.774  0.7913 -1.1164 -0.2042
   76SLPC  C313 6918   4.425   1.649   4.736 -0.6542 -0.1642  0.1291
   76SLPC  H13X 6919   4.395   1.546   4.765 -2.2449  0.3664  0.4542
   76SLPC  H13Y 6920   4.529   1.664   4.773 -0.5652 -2.6959  1.0779
   76SLPC  C314 6921   4.418   1.665   4.587  0.3393  0.3995  0.4328
   76SLPC  H14X 6922   4.457   1.768   4.577 -0.4777  0.6414 -0.4691
   76SLPC  H14Y 6923   4.310   1.658   4.562 -0.1501 -1.2792  2.6825
   76SLPC  C315 6924   4.504   1.588   4.504 -0.8941  0.5505  0.4446
   76SLPC  H15X 6925   4.482   1.479   4.512  2.3793 -0.4090 -1.6236
   76SLPC  H15Y 6926   4.610   1.599   4.534 -0.7807 -1.3352  0.8737
   76SLPC  C316 6927   4.498   1.618   4.359  0.5522  0.1080 -0.4517
   76SLPC  H16X 6928   4.581   1.576   4.299  0.0256  0.1274 -1.2017
   76SLPC  H16Y 6929   4.512   1.728   4.354  0.2418  0.2783  1.5129
   76SLPC  C317 6930   4.371   1.577   4.290  0.7112 -0.5397  1.0385
   76SLPC  H17X 6931   4.281   1.621   4.339  1.5628  0.6196  1.6078
   76SLPC  H17Y 6932   4.366   1.466   4.292  2.4378 -0.6368  1.6490
   76SLPC  C318 6933   4.365   1.614   4.141 -0.8889  0.7401  0.2173
   76SLPC  H18X 6934   4.354   1.724   4.137  1.0923  1.0602  1.7528
   76SLPC  H18Y 6935   4.285   1.560   4.087 -0.6306 -0.5189  1.0318
   76SLPC  H18Z 6936   4.461   1.577   4.098 -0.1869  1.4149  1.1543
   77SLPC     N 6937   4.809   0.994   7.042 -0.4228 -0.1459  0.0900
   77SLPC   C13 6938   4.898   1.029   7.157  0.2628  0.7085  0.1344
   77SLPC  H13A 6939   4.989   1.071   7.117  0.2939  0.2018 -0.3383
   77SLPC  H13B 6940   4.848   1.094   7.228 -2.6213 -1.9532  0.7359
   77SLPC  H13C 6941   4.935   0.942   7.208  0.6999  0.6320 -0.3120
   77SLPC   C14 6942   4.786   1.125   6.976  0.2995 -0.3484  0.9576
   77SLPC  H14A 6943   4.866   1.152   6.908 -0.2871 -1.2054 -0.1072
   77SLPC  H14B 6944   4.704   1.104   6.909  0.8539 -3.4631  1.0954
   77SLPC  H14C 6945   4.756   1.208   7.036  2.0815  0.8244  0.3309
   77SLPC   C15 6946   4.678   0.950   7.098  0.6854  0.5477 -0.2717
   77SLPC  H15A 6947   4.685   0.856   7.150 -0.7713  0.3544 -0.3765
   77SLPC  H15B 6948   4.644   1.021   7.172  0.4934  0.9350 -0.7216
   77SLPC  H15C 6949   4.598   0.945   7.026  1.4472 -0.0893 -1.0960
   77SLPC   C12 6950   4.860   0.878   6.958  0.2369  0.3417  0.3392
   77SLPC  H12A 6951   4.805   0.870   6.866  1.0325 -0.9551 -0.0583
   77SLPC  H12B 6952   4.846   0.788   7.015  1.7211 -0.7574 -0.9431
   77SLPC   C11 6953   5.011   0.883   6.923  0.0055 -0.2835  0.3060
   77SLPC  H11A 6954   5.052   0.793   6.873  0.8753  0.1756  0.1700
   77SLPC  H11B 6955   5.078   0.896   7.011 -0.6430  1.1627  0.6085
   77SLPC     P 6956   4.986   0.994   6.685  0.2119  0.2407 -0.3942
   77SLPC   O13 6957   4.898   1.115   6.677  0.3583 -0.4597  0.2827
   77SLPC   O14 6958   5.104   0.979   6.601  0.0178  0.1275 -0.4330
   77SLPC   O12 6959   5.030   0.995   6.840 -0.7246 -0.6566 -0.1845
   77SLPC   O11 6960   4.897   0.857   6.667 -0.1614 -0.3573  0.5542
   77SLPC    C1 6961   4.950   0.738   6.594  0.4089 -0.0906 -0.0162
   77SLPC    HA 6962   5.061   0.732   6.596  0.4443  0.6672  0.7462
   77SLPC    HB 6963   4.924   0.646   6.651  0.4997 -0.0687  0.0625
   77SLPC    C2 6964   4.914   0.732   6.448 -0.4600  0.1376  0.2730
   77SLPC    HS 6965   4.956   0.635   6.413 -0.7751 -0.0232  0.3336
   77SLPC   O21 6966   4.956   0.850   6.381 -1.0880  0.4976 -0.6381
   77SLPC   C21 6967   5.078   0.843   6.333 -0.9660  0.4402  0.9260
   77SLPC   O22 6968   5.157   0.753   6.344  0.2760  0.5607 -0.0069
   77SLPC   C22 6969   5.112   0.974   6.257 -0.3338 -0.0920  0.2001
   77SLPC   H2R 6970   5.019   1.034   6.260 -1.2265 -1.4511  0.4926
   77SLPC   H2S 6971   5.200   1.024   6.302  4.0021 -2.6244 -4.4256
   77SLPC    C3 6972   4.760   0.723   6.427 -0.1654  0.3820  0.7424
   77SLPC    HX 6973   4.718   0.817   6.469  1.4470  1.9157 -0.8892
   77SLPC    HY 6974   4.720   0.643   6.492  0.1064  0.2572  0.7568
   77SLPC   O31 6975   4.730   0.699   6.285 -0.6947 -0.3315  0.4014
   77SLPC   C31 6976   4.602   0.671   6.271 -0.3860  0.5647 -0.6903
   77SLPC   O32 6977   4.519   0.700   6.358  0.1006 -0.0644  0.5773
   77SLPC   C32 6978   4.589   0.589   6.145 -0.0347  1.0950 -0.3039
   77SLPC   H2X 6979   4.622   0.485   6.166  0.7097  1.7763  2.4269
   77SLPC   H2Y 6980   4.642   0.643   6.063 -1.6346  0.4653 -1.8040
   77SLPC   C23 6981   5.150   0.941   6.112  0.1722  0.1332  0.4135
   77SLPC   H3R 6982   5.244   0.882   6.106 -0.6893 -1.2717  0.2699
   77SLPC   H3S 6983   5.168   1.035   6.054  0.5790 -0.3756 -0.3087
   77SLPC   C24 6984   5.036   0.876   6.028  0.3373  0.6385  0.1605
   77SLPC   H4R 6985   4.947   0.942   6.037 -2.3153 -2.0720 -3.2418
   77SLPC   H4S 6986   5.011   0.777   6.072  0.4575  0.9870  1.0358
   77SLPC   C25 6987   5.066   0.861   5.879 -0.3296 -0.4984 -0.1127
   77SLPC   H5R 6988   5.023   0.765   5.842  2.1769 -2.1114  0.8568
   77SLPC   H5S 6989   5.175   0.855   5.858 -0.8431  0.4975 -3.7110
   77SLPC   C26 6990   4.997   0.976   5.790 -0.1296  0.5897 -0.9554
   77SLPC   H6R 6991   5.054   1.070   5.806 -1.8408  1.2284  2.1181
   77SLPC   H6S 6992   4.896   0.999   5.829  0.3226 -0.8836  1.3306
   77SLPC   C27 6993   4.981   0.929   5.651 -0.2462  0.0469 -0.5844
   77SLPC   H7R 6994   4.919   0.838   5.644 -0.1238  0.0512 -1.9452
   77SLPC   H7S 6995   5.078   0.911   5.600 -0.3168  0.3913 -0.8444
   77SLPC   C28 6996   4.903   1.038   5.566  0.6462 -0.3541 -0.4401
   77SLPC   H8R 6997   4.959   1.133   5.575 -0.4329  0.2602 -0.0293
   77SLPC   H8S 6998   4.800   1.048   5.607 -0.1318 -3.4366 -1.3988
   77SLPC   C29 6999   4.882   1.004   5.425 -0.3614  0.1318 -0.6818
   77SLPC   H9R 7000   4.810   0.923   5.406 -0.7902  0.0552  1.0981
   77SLPC  C210 7001   4.954   1.051   5.322 -0.4980  0.9087  0.3648
   77SLPC  H10R 7002   4.929   1.026   5.218  0.2704 -0.0439  0.3945
   77SLPC  C211 7003   5.084   1.138   5.324  0.3090 -0.0387  0.2081
   77SLPC  H11R 7004   5.092   1.182   5.426  1.6603  0.6136 -0.1473
   77SLPC  H11S 7005   5.101   1.227   5.258  0.2608  0.9455  1.4771
   77SLPC  C212 7006   5.195   1.035   5.318 -0.3038 -0.4467 -0.5651
   77SLPC  H12R 7007   5.214   0.990   5.417  1.2267  1.2984  0.0043
   77SLPC  C213 7008   5.262   0.996   5.207  0.7767  0.5830 -0.4903
   77SLPC  H13R 7009   5.336   0.915   5.219  0.6104  0.4314 -0.4907
   77SLPC  C214 7010   5.251   1.070   5.075 -0.2499  0.1504  0.2150
   77SLPC  H14R 7011   5.353   1.072   5.031 -0.5103  0.5166 -0.3840
   77SLPC  H14S 7012   5.225   1.174   5.102  0.2133 -0.0182  1.4136
   77SLPC  C215 7013   5.163   0.996   4.977  0.0156 -0.4614 -0.3572
   77SLPC  H15R 7014   5.056   1.008   5.004  0.6219  0.1793  1.9810
   77SLPC  H15S 7015   5.178   0.886   4.981 -1.0997 -0.6261 -0.2030
   77SLPC  C216 7016   5.176   1.043   4.832 -0.5412  0.3508  0.4027
   77SLPC  H16R 7017   5.284   1.033   4.807 -0.3074 -0.8533  1.7428
   77SLPC  H16S 7018   5.159   1.152   4.822 -0.6663  0.4255  1.3586
   77SLPC  C217 7019   5.086   0.963   4.741 -0.1696 -0.0067  0.3214
   77SLPC  H17R 7020   5.097   0.853   4.746  0.4301  0.0444  0.2704
   77SLPC  H17S 7021   5.121   0.996   4.640  0.4018 -2.3492 -0.2901
   77SLPC  C218 7022   4.932   0.983   4.755  0.0730 -0.4893 -0.3803
   77SLPC  H18R 7023   4.873   0.965   4.662 -0.0646 -4.1401  0.2625
   77SLPC  H18S 7024   4.914   1.090   4.780 -1.9102 -0.9898  0.5226
   77SLPC  H18T 7025   4.899   0.925   4.844 -0.2550 -0.7480 -0.6669
   77SLPC   C33 7026   4.445   0.596   6.091  0.4407 -0.2253  0.0868
   77SLPC   H3X 7027   4.393   0.693   6.107  1.3645  0.0263  1.7607
   77SLPC   H3Y 7028   4.383   0.529   6.153 -0.1594  0.0227 -0.2319
   77SLPC   C34 7029   4.437   0.565   5.931 -0.2679 -0.4528  0.1950
   77SLPC   H4X 7030   4.340   0.513   5.914  0.1636 -0.2993 -3.3743
   77SLPC   H4Y 7031   4.507   0.482   5.906 -0.1143  0.1202 -1.3959
   77SLPC   C35 7032   4.455   0.689   5.850  0.3210 -0.3122  0.3029
   77SLPC   H5X 7033   4.544   0.743   5.887  0.3373 -1.3119  1.8363
   77SLPC   H5Y 7034   4.374   0.765   5.847  1.7196  1.2279 -3.1902
   77SLPC   C36 7035   4.477   0.642   5.701  0.6568  0.0607 -0.3295
   77SLPC   H6X 7036   4.387   0.600   5.652  0.0328 -0.3871  1.1689
   77SLPC   H6Y 7037   4.554   0.563   5.699 -0.1238 -0.7428 -2.9390
   77SLPC   C37 7038   4.539   0.748   5.609  0.1441  0.4296  0.3965
   77SLPC   H7X 7039   4.638   0.773   5.655  0.0934  2.7521 -0.6117
   77SLPC   H7Y 7040   4.477   0.840   5.609 -1.9730 -0.9380  0.4941
   77SLPC   C38 7041   4.551   0.714   5.461 -0.0360 -0.6736 -1.2502
   77SLPC   H8X 7042   4.628   0.638   5.434  0.3275 -1.0107  0.6374
   77SLPC   H8Y 7043   4.588   0.804   5.407  0.8511 -0.5962 -0.5239
   77SLPC   C39 7044   4.418   0.671   5.402 -0.6034  0.4125  0.0546
   77SLPC   H9X 7045   4.335   0.728   5.449 -0.9569 -1.4472  1.8820
   77SLPC   H9Y 7046   4.412   0.560   5.402  1.9805  0.1989  0.3753
   77SLPC  C310 7047   4.415   0.712   5.253 -0.3899  0.1738  0.8192
   77SLPC  H10X 7048   4.509   0.679   5.205 -1.0063  0.0544 -0.3565
   77SLPC  H10Y 7049   4.415   0.823   5.238  3.1742  0.1234 -0.4910
   77SLPC  C311 7050   4.298   0.641   5.189  0.5695 -0.5756  0.3365
   77SLPC  H11X 7051   4.214   0.647   5.262 -0.2691 -0.6618 -0.5988
   77SLPC  H11Y 7052   4.312   0.532   5.173 -0.7929 -0.9520  1.4824
   77SLPC  C312 7053   4.239   0.717   5.068  0.7835 -0.6097  0.2960
   77SLPC  H12X 7054   4.248   0.827   5.082  0.9025 -0.2828 -1.9794
   77SLPC  H12Y 7055   4.132   0.688   5.068  0.3041  1.0249  0.2209
   77SLPC  C313 7056   4.307   0.694   4.919 -0.3245 -0.0791 -0.1899
   77SLPC  H13X 7057   4.273   0.593   4.888 -0.1562 -0.9797  2.3419
   77SLPC  H13Y 7058   4.417   0.703   4.928  0.2618 -2.2690 -3.6468
   77SLPC  C314 7059   4.262   0.795   4.811 -0.5282  0.2880  0.4128
   77SLPC  H14X 7060   4.280   0.896   4.855 -1.4685 -0.3114  2.2552
   77SLPC  H14Y 7061   4.153   0.779   4.801 -0.1590 -1.3608 -1.5855
   77SLPC  C315 7062   4.337   0.793   4.677 -0.2898 -0.7719 -0.3669
   77SLPC  H15X 7063   4.337   0.693   4.629  0.0073 -0.7678 -0.3786
   77SLPC  H15Y 7064   4.442   0.824   4.691 -0.3466 -0.4170 -0.7141
   77SLPC  C316 7065   4.266   0.888   4.585  0.0895 -0.0570 -0.4075
   77SLPC  H16X 7066   4.237   0.979   4.641 -1.3089  0.4752 -1.9154
   77SLPC  H16Y 7067   4.174   0.835   4.553  0.1687  0.2895 -1.2520
   77SLPC  C317 7068   4.360   0.937   4.475  0.1242 -0.5487  0.2061
   77SLPC  H17X 7069   4.412   0.852   4.426 -0.0692 -0.5900  0.0703
   77SLPC  H17Y 7070   4.448   0.993   4.514 -0.9955  0.0531  2.0116
   77SLPC  C318 7071   4.296   1.025   4.365  0.6373 -0.0471 -0.1213
   77SLPC  H18X 7072   4.374   1.065   4.295  2.1769 -0.4347  1.3110
   77SLPC  H18Y 7073   4.250   1.113   4.415  0.9884  0.6076 -0.9119
   77SLPC  H18Z 7074   4.226   0.963   4.306  0.6561 -1.3616  1.2045
   78SLPC     N 7075   1.777   5.889   6.271  0.5108 -0.1082  0.3170
   78SLPC   C13 7076   1.863   5.864   6.152  0.5435  0.0401 -0.0107
   78SLPC  H13A 7077   1.891   5.955   6.102  1.5442 -0.3458 -0.1701
   78SLPC  H13B 7078   1.941   5.795   6.178  0.8558  0.2401 -0.4109
   78SLPC  H13C 7079   1.807   5.821   6.071  0.6288  1.5883 -0.9314
   78SLPC   C14 7080   1.863   5.923   6.381  0.0805 -0.2112 -0.8643
   78SLPC  H14A 7081   1.809   5.941   6.473 -0.6745 -0.0374 -1.3358
   78SLPC  H14B 7082   1.926   5.840   6.409 -1.1602 -1.3561 -1.3582
   78SLPC  H14C 7083   1.920   6.012   6.362  0.2545 -0.6807 -2.6810
   78SLPC   C15 7084   1.700   5.758   6.309  0.4239  0.5881  0.5684
   78SLPC  H15A 7085   1.669   5.707   6.219 -0.8368 -2.1491  2.4100
   78SLPC  H15B 7086   1.773   5.691   6.351  0.7151 -0.1426 -1.0357
   78SLPC  H15C 7087   1.605   5.775   6.357 -0.0464 -0.9938  0.2511
   78SLPC   C12 7088   1.676   5.999   6.241 -0.4275  0.1487  0.2676
   78SLPC  H12A 7089   1.615   5.975   6.155 -1.5007  0.2009  0.9965
   78SLPC  H12B 7090   1.736   6.084   6.212 -0.7235  0.5089  0.6956
   78SLPC   C11 7091   1.567   6.027   6.339 -0.2351  0.0360 -0.8186
   78SLPC  H11A 7092   1.517   6.124   6.317  1.9818  1.9662  2.0085
   78SLPC  H11B 7093   1.605   6.044   6.442  0.2175  2.6690 -1.3441
   78SLPC     P 7094   1.335   5.940   6.425  0.2277 -0.0915 -0.0233
   78SLPC   O13 7095   1.270   5.806   6.445 -0.6163  0.7164  0.5521
   78SLPC   O14 7096   1.366   6.032   6.540  1.0106 -0.2583 -0.0613
   78SLPC   O12 7097   1.472   5.918   6.335 -0.1613  0.3819  0.1198
   78SLPC   O11 7098   1.253   6.016   6.321 -0.0362 -0.5008 -0.0644
   78SLPC    C1 7099   1.110   6.036   6.323  0.4182 -0.2624 -0.5940
   78SLPC    HA 7100   1.068   6.049   6.425  0.6595 -1.7134 -0.2853
   78SLPC    HB 7101   1.078   6.131   6.275  1.6996  1.3799  1.5949
   78SLPC    C2 7102   1.036   5.925   6.243  0.0393 -0.6780  0.1358
   78SLPC    HS 7103   1.056   5.825   6.288 -2.2408 -0.5706  1.5625
   78SLPC   O21 7104   1.067   5.925   6.100  0.1264  0.1763 -0.2817
   78SLPC   C21 7105   1.094   5.803   6.044  0.3047 -0.0147  0.6642
   78SLPC   O22 7106   1.098   5.699   6.108 -0.3380 -0.2409 -0.1195
   78SLPC   C22 7107   1.107   5.812   5.897 -0.1644  0.9082 -0.2016
   78SLPC   H2R 7108   1.023   5.871   5.853 -0.8069  0.0174 -0.2247
   78SLPC   H2S 7109   1.204   5.858   5.872  1.0082 -0.4960  1.5441
   78SLPC    C3 7110   0.881   5.944   6.265 -1.1743  0.2697 -0.5685
   78SLPC    HX 7111   0.856   6.052   6.268  0.1609  0.6869  5.0061
   78SLPC    HY 7112   0.856   5.912   6.368  2.3723 -1.1324  0.0030
   78SLPC   O31 7113   0.819   5.859   6.165  0.4158 -0.7549  0.3657
   78SLPC   C31 7114   0.714   5.905   6.111 -0.1156 -0.1943  0.6877
   78SLPC   O32 7115   0.658   6.010   6.132 -0.2128  0.1042  0.2444
   78SLPC   C32 7116   0.658   5.798   6.007 -0.6345  0.3745 -0.6976
   78SLPC   H2X 7117   0.584   5.735   6.061  0.7409 -0.0885  0.7213
   78SLPC   H2Y 7118   0.747   5.741   5.972  1.2731  2.3415  0.6843
   78SLPC   C23 7119   1.113   5.668   5.841 -0.4681 -0.3647 -0.3359
   78SLPC   H3R 7120   1.025   5.606   5.873  0.1926 -1.3737 -0.4145
   78SLPC   H3S 7121   1.207   5.620   5.875  0.2615  1.0468 -0.3032
   78SLPC   C24 7122   1.116   5.664   5.691  0.8730 -0.8170 -0.4748
   78SLPC   H4R 7123   1.189   5.728   5.637 -1.9553  2.7261 -0.4892
   78SLPC   H4S 7124   1.015   5.702   5.661  1.0235 -0.8759 -1.0714
   78SLPC   C25 7125   1.139   5.518   5.645 -0.0077 -1.3382 -0.2084
   78SLPC   H5R 7126   1.065   5.451   5.695 -0.6801 -1.0291 -0.7697
   78SLPC   H5S 7127   1.238   5.482   5.680 -0.0030 -1.6226 -0.5079
   78SLPC   C26 7128   1.120   5.493   5.495  0.4017 -0.4162 -0.0651
   78SLPC   H6R 7129   1.017   5.528   5.469 -0.0126 -0.9633  0.8034
   78SLPC   H6S 7130   1.132   5.386   5.468 -1.3939 -0.2689 -1.6445
   78SLPC   C27 7131   1.236   5.551   5.412  0.4556 -0.7564  0.3816
   78SLPC   H7R 7132   1.332   5.505   5.443  0.3806 -1.7381 -0.7695
   78SLPC   H7S 7133   1.238   5.661   5.428 -1.5709 -0.4263 -1.2456
   78SLPC   C28 7134   1.206   5.533   5.264  0.4894  0.5610  0.0389
   78SLPC   H8R 7135   1.176   5.427   5.243 -0.8183  0.5553  1.7331
   78SLPC   H8S 7136   1.300   5.545   5.206 -0.1874 -0.7816 -1.4432
   78SLPC   C29 7137   1.104   5.640   5.212  0.4910  0.1528 -0.1037
   78SLPC   H9R 7138   1.105   5.735   5.266 -3.5939  0.2382  0.1695
   78SLPC  C210 7139   1.006   5.624   5.118 -0.3351 -0.0009 -0.3979
   78SLPC  H10R 7140   0.934   5.706   5.099  0.7980  1.2129  0.3582
   78SLPC  C211 7141   0.986   5.495   5.032  0.3617  0.2959 -0.4929
   78SLPC  H11R 7142   1.049   5.411   5.069 -0.4737  0.3792  1.2109
   78SLPC  H11S 7143   1.039   5.523   4.939  0.7357  1.2118 -0.0262
   78SLPC  C212 7144   0.836   5.456   4.998 -0.6261 -0.2203 -0.6374
   78SLPC  H12R 7145   0.775   5.401   5.072 -1.3524 -0.8717 -1.6846
   78SLPC  C213 7146   0.783   5.482   4.877 -0.0084 -0.4352 -0.4948
   78SLPC  H13R 7147   0.678   5.453   4.860 -0.4105  1.7437 -2.2694
   78SLPC  C214 7148   0.843   5.549   4.753 -0.3216 -0.4940 -0.3153
   78SLPC  H14R 7149   0.867   5.471   4.678  1.0246 -1.8970  1.4944
   78SLPC  H14S 7150   0.943   5.597   4.764  0.7648 -2.0256 -2.7194
   78SLPC  C215 7151   0.746   5.653   4.687 -0.1696 -0.6108  0.0792
   78SLPC  H15R 7152   0.706   5.723   4.764  0.2495 -0.9913  0.6493
   78SLPC  H15S 7153   0.659   5.597   4.645 -1.0373 -0.5449  1.7053
   78SLPC  C216 7154   0.826   5.747   4.592  0.5571  0.5810  0.5565
   78SLPC  H16R 7155   0.917   5.778   4.647 -0.1654 -0.2974  2.3196
   78SLPC  H16S 7156   0.766   5.835   4.563  0.1380 -0.4506 -1.9989
   78SLPC  C217 7157   0.853   5.681   4.457 -0.5182 -0.0916 -0.4081
   78SLPC  H17R 7158   0.756   5.640   4.420 -1.0659  1.1065 -0.3542
   78SLPC  H17S 7159   0.933   5.606   4.476 -1.0777 -0.6041 -0.0127
   78SLPC  C218 7160   0.919   5.772   4.355 -0.2392 -0.1810  0.8590
   78SLPC  H18R 7161   1.014   5.815   4.394  0.0547  0.6452 -0.6760
   78SLPC  H18S 7162   0.855   5.861   4.335 -1.4042 -1.1286  0.2748
   78SLPC  H18T 7163   0.929   5.728   4.253  0.7033 -0.4109  1.0403
   78SLPC   C33 7164   0.597   5.868   5.884 -0.5960 -0.1437 -0.5237
   78SLPC   H3X 7165   0.664   5.953   5.861 -1.5524  0.8317  0.2400
   78SLPC   H3Y 7166   0.505   5.926   5.907 -1.4992 -1.2708 -1.1558
   78SLPC   C34 7167   0.587   5.795   5.756 -0.0563  0.3124  0.2812
   78SLPC   H4X 7168   0.535   5.698   5.767 -0.2435  0.4771  0.9630
   78SLPC   H4Y 7169   0.693   5.779   5.729 -0.8656  1.8037 -4.8216
   78SLPC   C35 7170   0.517   5.885   5.655 -0.1109  0.0999 -0.3775
   78SLPC   H5X 7171   0.568   5.982   5.671  2.4801 -1.6166  3.2604
   78SLPC   H5Y 7172   0.412   5.900   5.687  0.2509 -1.8459  2.0312
   78SLPC   C36 7173   0.530   5.835   5.514  0.3900 -0.0206 -0.1248
   78SLPC   H6X 7174   0.484   5.734   5.512  1.5834 -0.5703 -1.2318
   78SLPC   H6Y 7175   0.638   5.826   5.490  0.7024  0.5121  1.0154
   78SLPC   C37 7176   0.469   5.929   5.415 -0.4513  0.5184  0.7625
   78SLPC   H7X 7177   0.500   6.030   5.450 -0.8142  0.9497 -0.1378
   78SLPC   H7Y 7178   0.359   5.933   5.410 -0.3865  1.8962  0.1336
   78SLPC   C38 7179   0.537   5.905   5.279 -0.5395  0.8306  0.4181
   78SLPC   H8X 7180   0.642   5.939   5.285 -1.0282  2.7515 -0.9811
   78SLPC   H8Y 7181   0.483   5.973   5.210 -1.6776  0.2670  0.7285
   78SLPC   C39 7182   0.537   5.761   5.216  0.8807  0.5652  0.3253
   78SLPC   H9X 7183   0.437   5.714   5.233  0.5284  0.5360 -1.5817
   78SLPC   H9Y 7184   0.621   5.708   5.265  1.1755 -1.9056 -2.5450
   78SLPC  C310 7185   0.572   5.763   5.061  0.0707 -0.0414 -0.8295
   78SLPC  H10X 7186   0.597   5.662   5.023  1.3000  0.6934 -2.0563
   78SLPC  H10Y 7187   0.658   5.830   5.042 -2.5091  3.4891 -1.2726
   78SLPC  C311 7188   0.450   5.810   4.985  0.3262 -0.0245  0.0598
   78SLPC  H11X 7189   0.408   5.910   5.009 -1.2597  0.2596 -3.3091
   78SLPC  H11Y 7190   0.363   5.745   5.011  0.5769 -0.4737 -0.2205
   78SLPC  C312 7191   0.461   5.810   4.830  0.2313 -0.0898  0.0638
   78SLPC  H12X 7192   0.494   5.709   4.796  0.1454 -0.3487  0.7511
   78SLPC  H12Y 7193   0.543   5.880   4.802  0.5517 -0.7012 -0.5701
   78SLPC  C313 7194   0.332   5.856   4.758 -0.2328  0.6744 -0.0602
   78SLPC  H13X 7195   0.360   5.827   4.655 -0.9080  0.4320 -0.1846
   78SLPC  H13Y 7196   0.313   5.965   4.765 -1.8474  0.5524 -1.7895
   78SLPC  C314 7197   0.200   5.790   4.783 -0.1100  0.0206 -0.3137
   78SLPC  H14X 7198   0.161   5.827   4.881 -3.1725 -1.6252 -0.7994
   78SLPC  H14Y 7199   0.215   5.680   4.791 -0.3313  0.1095  2.1405
   78SLPC  C315 7200   0.104   5.826   4.669 -0.0880  0.5379 -0.1802
   78SLPC  H15X 7201   0.161   5.794   4.579  1.5139  1.0643  0.6182
   78SLPC  H15Y 7202   0.095   5.936   4.675  1.0869  0.6145  0.3783
   78SLPC  C316 7203  -0.020   5.739   4.677  0.1788 -0.0026 -0.1190
   78SLPC  H16X 7204  -0.050   5.757   4.782  1.2442  3.1195 -0.2422
   78SLPC  H16Y 7205  -0.009   5.629   4.668 -1.0437 -0.0518 -1.4983
   78SLPC  C317 7206  -0.130   5.780   4.572  0.0302  0.0819 -0.1655
   78SLPC  H17X 7207  -0.122   5.890   4.559  0.7727  0.0666  0.1288
   78SLPC  H17Y 7208  -0.235   5.758   4.602  0.5991 -3.2336 -0.2415
   78SLPC  C318 7209  -0.116   5.722   4.436 -0.1291  0.6491  0.4505
   78SLPC  H18X 7210  -0.010   5.723   4.403 -0.1524  0.1256  0.3459
   78SLPC  H18Y 7211  -0.182   5.781   4.370 -1.2469  1.3523  2.1212
   78SLPC  H18Z 7212  -0.152   5.616   4.436  0.1395  0.5567  0.3007
   79SLPC     N 7213   6.144   0.849   6.812 -0.5264  0.8567 -0.0242
   79SLPC   C13 7214   6.211   0.763   6.916  0.0620 -0.3433 -0.5734
   79SLPC  H13A 7215   6.138   0.747   6.995  0.2370  3.3309  0.5039
   79SLPC  H13B 7216   6.242   0.666   6.879 -1.6240 -1.4881  0.8262
   79SLPC  H13C 7217   6.296   0.812   6.959 -0.9581 -1.0443  2.4837
   79SLPC   C14 7218   6.094   0.972   6.874  0.1926 -0.8100 -0.0598
   79SLPC  H14A 7219   6.058   1.041   6.800 -0.1126 -2.9897 -2.0480
   79SLPC  H14B 7220   6.023   0.957   6.954  1.8158 -0.3508  1.5530
   79SLPC  H14C 7221   6.171   1.027   6.926 -0.9272  1.7452 -0.9798
   79SLPC   C15 7222   6.033   0.782   6.738  0.7774 -0.2606 -0.2646
   79SLPC  H15A 7223   5.993   0.830   6.650  0.9202 -0.4690 -0.4443
   79SLPC  H15B 7224   6.057   0.681   6.707  2.9888  0.0368  0.2965
   79SLPC  H15C 7225   5.955   0.788   6.812  0.0799  0.5210 -1.0399
   79SLPC   C12 7226   6.255   0.866   6.706  0.0529 -0.3704 -0.5176
   79SLPC  H12A 7227   6.295   0.772   6.672  0.4666 -1.1111  1.8740
   79SLPC  H12B 7228   6.342   0.902   6.759 -0.0863 -1.2872  0.3487
   79SLPC   C11 7229   6.221   0.950   6.583  0.3283 -0.3856 -0.0401
   79SLPC  H11A 7230   6.148   0.895   6.520  0.0014  0.0295 -0.0308
   79SLPC  H11B 7231   6.304   0.952   6.509  0.7838 -2.1792  0.3750
   79SLPC     P 7232   6.262   1.210   6.615  0.2663 -0.2404  0.3082
   79SLPC   O13 7233   6.231   1.302   6.731  0.8080  0.5502  0.2674
   79SLPC   O14 7234   6.409   1.177   6.604 -0.1250 -0.0952  0.3616
   79SLPC   O12 7235   6.170   1.075   6.614  0.2850  0.0168  0.0799
   79SLPC   O11 7236   6.219   1.288   6.484  0.7783  0.0025  0.0397
   79SLPC    C1 7237   6.255   1.241   6.357  0.3000  0.7338  0.5853
   79SLPC    HA 7238   6.365   1.243   6.343  0.3748 -0.1807  0.9779
   79SLPC    HB 7239   6.223   1.134   6.348 -0.6335  1.1379 -1.6741
   79SLPC    C2 7240   6.186   1.316   6.237  0.5424 -0.5349 -0.6024
   79SLPC    HS 7241   6.210   1.258   6.146 -1.6710  0.4886 -1.9241
   79SLPC   O21 7242   6.239   1.449   6.235  0.1390 -0.0873  0.5698
   79SLPC   C21 7243   6.231   1.500   6.114 -0.5168  0.3020  0.0730
   79SLPC   O22 7244   6.204   1.438   6.012 -0.4772  0.3602 -0.2335
   79SLPC   C22 7245   6.287   1.641   6.114 -0.2994  0.1120  0.0126
   79SLPC   H2R 7246   6.207   1.716   6.131 -0.9668 -0.9766  2.0189
   79SLPC   H2S 7247   6.363   1.655   6.195  1.5479  0.1504 -1.6416
   79SLPC    C3 7248   6.029   1.317   6.256 -0.3955  0.5286 -0.3662
   79SLPC    HX 7249   6.000   1.408   6.312 -0.5641 -0.8305  1.8883
   79SLPC    HY 7250   6.010   1.237   6.331  1.1326  0.6086  0.1564
   79SLPC   O31 7251   5.959   1.297   6.126 -0.0792  0.1647 -0.0937
   79SLPC   C31 7252   5.966   1.177   6.068 -0.1325 -0.2488  0.5752
   79SLPC   O32 7253   6.015   1.077   6.114 -0.4387 -0.5035 -0.3993
   79SLPC   C32 7254   5.887   1.194   5.934 -0.2594  0.3803  0.3504
   79SLPC   H2X 7255   5.899   1.302   5.912 -0.7475  0.1235 -1.3385
   79SLPC   H2Y 7256   5.782   1.171   5.963  0.4174 -4.1771  0.0345
   79SLPC   C23 7257   6.352   1.683   5.982 -0.0349 -0.2707 -0.1495
   79SLPC   H3R 7258   6.373   1.792   5.994 -0.6146 -0.1522 -0.1875
   79SLPC   H3S 7259   6.278   1.669   5.901  0.7405 -0.4475 -0.8488
   79SLPC   C24 7260   6.492   1.612   5.962  0.2003 -0.3036  0.3328
   79SLPC   H4R 7261   6.500   1.502   5.974 -0.2483 -0.3835 -0.0869
   79SLPC   H4S 7262   6.559   1.646   6.044 -0.2616 -0.1735  0.6609
   79SLPC   C25 7263   6.563   1.653   5.835 -0.1310  0.0592 -0.1454
   79SLPC   H5R 7264   6.665   1.610   5.839 -0.3757 -0.5691 -0.4216
   79SLPC   H5S 7265   6.568   1.764   5.830  1.0190 -0.0280 -1.6468
   79SLPC   C26 7266   6.492   1.583   5.715  0.6908 -0.1265 -0.6729
   79SLPC   H6R 7267   6.382   1.597   5.717  0.0458 -3.6702 -3.4475
   79SLPC   H6S 7268   6.492   1.473   5.729 -1.9489 -0.0055  1.1106
   79SLPC   C27 7269   6.541   1.641   5.583  0.1847  0.8505 -0.0704
   79SLPC   H7R 7270   6.645   1.603   5.570  0.0972  0.6071 -0.0622
   79SLPC   H7S 7271   6.531   1.751   5.592  0.7314  0.8797  0.2123
   79SLPC   C28 7272   6.465   1.585   5.465 -0.1442  0.3030 -0.3080
   79SLPC   H8R 7273   6.374   1.648   5.473 -0.3724  0.0786 -1.0692
   79SLPC   H8S 7274   6.432   1.480   5.479  0.7312 -0.0123 -0.5591
   79SLPC   C29 7275   6.539   1.603   5.336  0.5444  0.4422 -0.7211
   79SLPC   H9R 7276   6.645   1.632   5.339  0.8818 -0.7240  2.2580
   79SLPC  C210 7277   6.492   1.557   5.219  0.0358  0.0908 -0.8120
   79SLPC  H10R 7278   6.566   1.561   5.138 -0.0409 -0.2274 -0.8990
   79SLPC  C211 7279   6.350   1.515   5.188  0.2222  0.3451 -1.0958
   79SLPC  H11R 7280   6.284   1.540   5.273  3.0639 -0.0755  1.4119
   79SLPC  H11S 7281   6.346   1.404   5.196 -0.4250  0.4880  3.8751
   79SLPC  C212 7282   6.294   1.574   5.060  0.1010 -0.1342 -0.0568
   79SLPC  H12R 7283   6.212   1.646   5.065 -0.6000 -0.8150 -1.3259
   79SLPC  C213 7284   6.327   1.541   4.939 -0.2861  0.4038  0.1866
   79SLPC  H13R 7285   6.292   1.602   4.854  2.6570  0.0245 -1.3940
   79SLPC  C214 7286   6.431   1.432   4.902  0.2469 -0.0934  0.7859
   79SLPC  H14R 7287   6.386   1.337   4.864  0.8081 -0.2458  0.4954
   79SLPC  H14S 7288   6.498   1.408   4.987  0.4660 -0.4511  0.5179
   79SLPC  C215 7289   6.518   1.490   4.787 -1.1413  0.3993 -0.2744
   79SLPC  H15R 7290   6.607   1.425   4.769  0.1552  1.1753  2.7720
   79SLPC  H15S 7291   6.564   1.585   4.822  1.2151 -0.5224 -0.6877
   79SLPC  C216 7292   6.440   1.493   4.659  0.2143  0.0868  0.2472
   79SLPC  H16R 7293   6.355   1.565   4.663 -0.3174 -0.4288 -1.1981
   79SLPC  H16S 7294   6.387   1.398   4.640  0.1546  0.3209 -0.7982
   79SLPC  C217 7295   6.535   1.526   4.546  0.2040 -0.1895 -0.4477
   79SLPC  H17R 7296   6.606   1.441   4.537 -1.9213 -2.2424  1.0478
   79SLPC  H17S 7297   6.580   1.628   4.552 -3.3567  1.5465 -0.8087
   79SLPC  C218 7298   6.463   1.524   4.409 -0.0763  0.2872 -0.4751
   79SLPC  H18R 7299   6.378   1.453   4.418 -1.2221  1.8931  3.0321
   79SLPC  H18S 7300   6.535   1.497   4.329  1.3554 -0.8884  1.1424
   79SLPC  H18T 7301   6.415   1.617   4.372  0.3427 -0.0669 -1.9551
   79SLPC   C33 7302   5.931   1.095   5.821  0.0705  0.1637 -0.1562
   79SLPC   H3X 7303   5.934   0.990   5.857  0.7946  0.2481  0.0613
   79SLPC   H3Y 7304   6.040   1.102   5.801  0.4174 -1.1489  1.0999
   79SLPC   C34 7305   5.837   1.096   5.702 -0.4049  0.3861  0.1776
   79SLPC   H4X 7306   5.835   1.196   5.652 -0.8411  0.3814  0.1784
   79SLPC   H4Y 7307   5.737   1.069   5.742 -0.5315  1.2281  0.4647
   79SLPC   C35 7308   5.861   0.995   5.592 -0.4105  0.0623  0.1185
   79SLPC   H5X 7309   5.848   0.890   5.627  0.0293  0.6986  2.3079
   79SLPC   H5Y 7310   5.969   0.992   5.564 -0.2860 -1.1030  0.6535
   79SLPC   C36 7311   5.774   1.021   5.465 -0.6239  0.5306 -0.7317
   79SLPC   H6X 7312   5.792   1.128   5.441 -1.1687  1.1442  1.3204
   79SLPC   H6Y 7313   5.670   1.022   5.505  0.1310 -1.8965  1.6077
   79SLPC   C37 7314   5.798   0.922   5.351  0.1911 -0.3143  0.5515
   79SLPC   H7X 7315   5.770   0.820   5.385 -1.7794 -0.1060 -0.3228
   79SLPC   H7Y 7316   5.910   0.918   5.348  0.4442  3.1631  1.5909
   79SLPC   C38 7317   5.723   0.977   5.216  0.4523 -0.0507 -0.1935
   79SLPC   H8X 7318   5.736   1.087   5.212  0.9330 -0.0290  1.3871
   79SLPC   H8Y 7319   5.616   0.969   5.242  0.4642  3.3412  1.4530
   79SLPC   C39 7320   5.740   0.908   5.081  0.4269 -0.4816 -0.4791
   79SLPC   H9X 7321   5.706   0.803   5.087 -0.1113 -0.2460  0.8740
   79SLPC   H9Y 7322   5.850   0.915   5.063  1.1579  2.7495  3.6181
   79SLPC  C310 7323   5.660   0.965   4.963 -0.2819  0.3518  0.0712
   79SLPC  H10X 7324   5.706   1.064   4.945 -0.6618  0.8541  1.6813
   79SLPC  H10Y 7325   5.554   0.982   4.990  0.1137 -0.1565  2.1329
   79SLPC  C311 7326   5.657   0.892   4.833 -0.4097  0.7341  0.5566
   79SLPC  H11X 7327   5.600   0.953   4.759 -2.3472  1.5782  2.6356
   79SLPC  H11Y 7328   5.612   0.791   4.835 -0.8421  0.8408 -1.3858
   79SLPC  C312 7329   5.799   0.885   4.772  0.8473  0.1766 -0.4461
   79SLPC  H12X 7330   5.843   0.794   4.818  0.1572 -0.8436 -1.7431
   79SLPC  H12Y 7331   5.846   0.985   4.785 -2.3663  2.3253 -3.5209
   79SLPC  C313 7332   5.813   0.856   4.625  0.8885  0.3766  0.2722
   79SLPC  H13X 7333   5.753   0.930   4.568 -2.6562 -2.7178 -0.3931
   79SLPC  H13Y 7334   5.775   0.753   4.604  2.1633  0.0203 -0.4133
   79SLPC  C314 7335   5.958   0.860   4.580  0.6136  0.4894 -0.0160
   79SLPC  H14X 7336   6.026   0.790   4.633  1.4824  0.3384 -1.2774
   79SLPC  H14Y 7337   5.991   0.965   4.589 -0.1227  0.6916  0.4058
   79SLPC  C315 7338   5.973   0.821   4.435  0.7287 -0.2287  0.0159
   79SLPC  H15X 7339   5.931   0.906   4.378 -0.5247  0.1420  1.4401
   79SLPC  H15Y 7340   5.901   0.738   4.418 -1.8515  1.5733  1.5821
   79SLPC  C316 7341   6.103   0.776   4.383  0.6013 -0.4284  0.1844
   79SLPC  H16X 7342   6.128   0.699   4.460  3.3380  1.8067  1.7356
   79SLPC  H16Y 7343   6.182   0.854   4.395 -2.3404  2.4497  2.7297
   79SLPC  C317 7344   6.094   0.718   4.239  0.0349 -0.2520 -0.4602
   79SLPC  H17X 7345   6.013   0.643   4.232 -0.9209  0.7855 -0.9738
   79SLPC  H17Y 7346   6.188   0.662   4.222  0.7048  0.4977  0.6328
   79SLPC  C318 7347   6.074   0.827   4.121 -0.2169  0.6407 -0.0129
   79SLPC  H18X 7348   5.969   0.861   4.109 -0.4495 -0.4958 -1.5089
   79SLPC  H18Y 7349   6.113   0.790   4.023  2.2919  0.8851  0.8115
   79SLPC  H18Z 7350   6.133   0.916   4.153  1.5461 -0.2198 -0.7129
   80SLPC     N 7351   2.839   4.894   6.642  0.7152 -0.3258  0.7752
   80SLPC   C13 7352   2.810   4.787   6.744  0.1471 -0.1436  0.0680
   80SLPC  H13A 7353   2.712   4.792   6.790 -0.0120 -2.3992  0.1130
   80SLPC  H13B 7354   2.803   4.687   6.702  2.4524 -0.0719 -0.6055
   80SLPC  H13C 7355   2.889   4.780   6.817 -0.4019  0.1104  0.6932
   80SLPC   C14 7356   2.978   4.862   6.586 -0.4294 -0.6669 -0.3500
   80SLPC  H14A 7357   3.055   4.879   6.660 -0.5355 -1.1842 -0.1209
   80SLPC  H14B 7358   2.971   4.760   6.551 -1.7961 -0.6227 -0.2679
   80SLPC  H14C 7359   3.010   4.920   6.500  1.0596  1.6749  1.6620
   80SLPC   C15 7360   2.838   5.031   6.708 -0.3526  0.2341  0.3956
   80SLPC  H15A 7361   2.858   5.105   6.632  0.7894 -2.2434 -1.8434
   80SLPC  H15B 7362   2.742   5.049   6.755 -0.1625  1.6028  0.3049
   80SLPC  H15C 7363   2.923   5.040   6.773  0.6485 -0.3519 -0.8004
   80SLPC   C12 7364   2.745   4.890   6.523  0.9951 -0.4609  0.6240
   80SLPC  H12A 7365   2.776   4.967   6.455  1.6335 -0.5719  0.7869
   80SLPC  H12B 7366   2.641   4.908   6.548  1.1137 -1.2442  1.7916
   80SLPC   C11 7367   2.730   4.753   6.454 -0.5924 -0.8343  0.1279
   80SLPC  H11A 7368   2.823   4.694   6.460 -1.1997 -1.8881 -0.5158
   80SLPC  H11B 7369   2.710   4.771   6.346 -1.8987 -1.2226  0.2882
   80SLPC     P 7370   2.645   4.512   6.541 -0.0790  0.2871 -0.2531
   80SLPC   O13 7371   2.690   4.504   6.681 -0.3306 -0.0089  0.8604
   80SLPC   O14 7372   2.520   4.433   6.527  0.4337  0.0180 -0.0693
   80SLPC   O12 7373   2.628   4.666   6.498  0.4609 -0.2884  0.3667
   80SLPC   O11 7374   2.757   4.450   6.445 -0.6248 -0.4252  0.6191
   80SLPC    C1 7375   2.702   4.348   6.357 -0.1276  0.6115  0.6148
   80SLPC    HA 7376   2.700   4.247   6.403  0.4554  0.7351  0.9269
   80SLPC    HB 7377   2.596   4.364   6.330 -0.4020 -1.8696 -0.0282
   80SLPC    C2 7378   2.783   4.346   6.221 -0.1984  0.4007 -0.3771
   80SLPC    HS 7379   2.720   4.293   6.147 -0.1936  1.3737 -1.1111
   80SLPC   O21 7380   2.912   4.289   6.245  0.5173 -0.4351  0.1186
   80SLPC   C21 7381   2.958   4.213   6.143  0.6868  0.1415  0.0837
   80SLPC   O22 7382   2.893   4.173   6.048 -0.3574 -0.1200 -0.0413
   80SLPC   C22 7383   3.107   4.200   6.164 -0.0018  0.4950 -0.1741
   80SLPC   H2R 7384   3.167   4.291   6.181  1.1669 -0.0649 -1.1128
   80SLPC   H2S 7385   3.112   4.135   6.254  0.3541 -0.9627 -1.2173
   80SLPC    C3 7386   2.806   4.493   6.166  0.4806 -0.4402 -0.1496
   80SLPC    HX 7387   2.874   4.540   6.239  1.6887 -0.6421 -1.1204
   80SLPC    HY 7388   2.717   4.559   6.168  0.5206 -0.3475 -0.9810
   80SLPC   O31 7389   2.876   4.492   6.042  0.2355  0.1285 -0.1133
   80SLPC   C31 7390   2.804   4.476   5.933  0.2780 -0.3731 -0.2720
   80SLPC   O32 7391   2.683   4.490   5.936 -0.1136  0.0801 -0.1045
   80SLPC   C32 7392   2.896   4.467   5.808 -0.6677  0.3225 -0.7581
   80SLPC   H2X 7393   2.904   4.361   5.774 -4.0614  0.4355 -2.3591
   80SLPC   H2Y 7394   2.994   4.501   5.847 -1.4499 -0.0034  1.6410
   80SLPC   C23 7395   3.163   4.127   6.032 -0.6674  0.2824 -0.3474
   80SLPC   H3R 7396   3.089   4.051   5.997 -0.6553  0.3430 -0.5032
   80SLPC   H3S 7397   3.260   4.076   6.051  0.0464  1.1999 -1.4184
   80SLPC   C24 7398   3.177   4.231   5.917  0.2128 -0.0016 -0.3434
   80SLPC   H4R 7399   3.253   4.311   5.925 -1.3790  1.6547 -0.9524
   80SLPC   H4S 7400   3.073   4.271   5.908  1.1014  2.6305  0.3310
   80SLPC   C25 7401   3.190   4.151   5.786 -0.1501  0.1451 -0.5131
   80SLPC   H5R 7402   3.114   4.071   5.797  1.6310 -1.4570  0.8862
   80SLPC   H5S 7403   3.286   4.095   5.783  0.6942  1.5046  0.3214
   80SLPC   C26 7404   3.197   4.241   5.668  0.3131  0.7939 -0.3124
   80SLPC   H6R 7405   3.291   4.299   5.676  2.3228 -2.2271 -0.1339
   80SLPC   H6S 7406   3.109   4.308   5.680 -1.6534 -1.5197 -1.0796
   80SLPC   C27 7407   3.200   4.157   5.536 -0.3969  0.1602  0.7696
   80SLPC   H7R 7408   3.117   4.083   5.549  0.3548 -1.1853 -1.5075
   80SLPC   H7S 7409   3.293   4.097   5.528  0.5891  1.8255 -1.2016
   80SLPC   C28 7410   3.192   4.238   5.406 -0.4814  0.1224 -0.4316
   80SLPC   H8R 7411   3.251   4.331   5.424  1.0408 -0.8170 -0.3078
   80SLPC   H8S 7412   3.088   4.274   5.393 -0.0303  1.0885 -1.5458
   80SLPC   C29 7413   3.241   4.164   5.285  0.6996  0.5759  0.0715
   80SLPC   H9R 7414   3.318   4.090   5.311 -0.6982 -1.0451 -0.2454
   80SLPC  C210 7415   3.180   4.170   5.166  0.4607 -0.0972  0.3795
   80SLPC  H10R 7416   3.221   4.104   5.089  1.6363  0.5148  0.4580
   80SLPC  C211 7417   3.077   4.264   5.116 -0.3535 -0.2090 -0.1963
   80SLPC  H11R 7418   3.100   4.317   5.021 -0.5763 -0.4700 -0.4006
   80SLPC  H11S 7419   3.083   4.347   5.189 -1.1138 -1.0096  0.8050
   80SLPC  C212 7420   2.941   4.201   5.105 -0.6060  0.3498 -0.2557
   80SLPC  H12R 7421   2.880   4.191   5.196 -1.6224  1.5945 -0.7595
   80SLPC  C213 7422   2.885   4.158   4.989  0.5513 -1.0791  0.7042
   80SLPC  H13R 7423   2.789   4.108   5.007 -0.2345  0.3822  0.6830
   80SLPC  C214 7424   2.940   4.146   4.845 -0.2890  0.1631 -0.1767
   80SLPC  H14R 7425   2.965   4.038   4.837  1.2779  0.5911 -1.6750
   80SLPC  H14S 7426   3.034   4.206   4.850  0.2131 -0.6084 -0.1274
   80SLPC  C215 7427   2.854   4.193   4.729 -0.4160  0.1606 -0.2418
   80SLPC  H15R 7428   2.922   4.158   4.647  1.3964  1.6416  0.5570
   80SLPC  H15S 7429   2.846   4.303   4.725  0.2934  0.2401  0.3360
   80SLPC  C216 7430   2.722   4.119   4.707 -0.3471  0.0223  0.3188
   80SLPC  H16R 7431   2.639   4.165   4.766  1.3193 -1.6094  4.2269
   80SLPC  H16S 7432   2.735   4.015   4.742 -0.0017 -0.2150 -0.4798
   80SLPC  C217 7433   2.673   4.108   4.557 -0.0743 -0.3722 -0.9421
   80SLPC  H17R 7434   2.562   4.095   4.553 -0.0075 -0.9327 -0.9465
   80SLPC  H17S 7435   2.715   4.019   4.506  0.9683  0.0870 -0.8994
   80SLPC  C218 7436   2.705   4.231   4.470 -0.0322 -0.7790 -1.0782
   80SLPC  H18R 7437   2.815   4.241   4.457 -0.0269 -0.7359 -1.0017
   80SLPC  H18S 7438   2.662   4.326   4.509 -1.8234 -1.4083 -1.4418
   80SLPC  H18T 7439   2.655   4.218   4.372  2.8760 -1.6538 -2.5803
   80SLPC   C33 7440   2.840   4.546   5.694 -0.3540  0.3064  0.5987
   80SLPC   H3X 7441   2.856   4.651   5.726  2.3116  0.6249 -1.4110
   80SLPC   H3Y 7442   2.736   4.513   5.673  0.3048 -0.7471 -1.1418
   80SLPC   C34 7443   2.930   4.543   5.569 -0.3318 -0.2406  0.4494
   80SLPC   H4X 7444   2.950   4.438   5.537  0.6293 -1.4588  4.4410
   80SLPC   H4Y 7445   3.025   4.598   5.585 -1.0878  0.7555  1.7097
   80SLPC   C35 7446   2.857   4.607   5.453  0.1966 -0.5288  0.4435
   80SLPC   H5X 7447   2.823   4.707   5.486  0.0269  0.4601 -2.4282
   80SLPC   H5Y 7448   2.765   4.548   5.431 -1.1216  1.6349 -0.1239
   80SLPC   C36 7449   2.935   4.633   5.324 -0.3689  0.4762 -0.0296
   80SLPC   H6X 7450   2.973   4.530   5.312 -1.9856 -0.2937  1.1909
   80SLPC   H6Y 7451   3.022   4.700   5.341  0.9276 -1.0770 -0.3453
   80SLPC   C37 7452   2.858   4.676   5.198 -0.1172 -0.1744  0.4734
   80SLPC   H7X 7453   2.829   4.783   5.192  0.9921  0.1433  0.4165
   80SLPC   H7Y 7454   2.766   4.615   5.191  0.8257 -1.4457 -1.4971
   80SLPC   C38 7455   2.940   4.645   5.077 -0.3839  0.5792  0.0658
   80SLPC   H8X 7456   2.967   4.537   5.073 -2.3849  0.0097  0.9786
   80SLPC   H8Y 7457   3.029   4.712   5.079  0.8576 -1.0053  1.5131
   80SLPC   C39 7458   2.870   4.669   4.940  0.1539 -0.4727 -0.2074
   80SLPC   H9X 7459   2.826   4.771   4.939  0.9878 -0.0710  0.8465
   80SLPC   H9Y 7460   2.783   4.601   4.931 -1.7172  1.8113 -0.3094
   80SLPC  C310 7461   2.958   4.645   4.815 -0.2802 -0.0051  0.2808
   80SLPC  H10X 7462   3.007   4.545   4.816  2.4381  1.1951 -1.3376
   80SLPC  H10Y 7463   3.045   4.711   4.797  0.8143 -1.9388 -2.1778
   80SLPC  C311 7464   2.878   4.646   4.689  0.8779 -0.2763 -0.0109
   80SLPC  H11X 7465   2.833   4.747   4.678  0.1473 -0.6925 -0.9604
   80SLPC  H11Y 7466   2.798   4.569   4.691  0.3402  0.2784  2.3330
   80SLPC  C312 7467   2.968   4.633   4.572 -0.4175  0.0914  0.3117
   80SLPC  H12X 7468   3.029   4.543   4.592 -1.4405 -0.8427 -0.6331
   80SLPC  H12Y 7469   3.045   4.711   4.555  1.6351 -2.1660 -1.5892
   80SLPC  C313 7470   2.902   4.603   4.439  0.4669 -0.1226  0.9632
   80SLPC  H13X 7471   2.822   4.680   4.434  0.2244 -0.3351  1.5037
   80SLPC  H13Y 7472   2.839   4.511   4.437 -1.8249  1.3601  1.0332
   80SLPC  C314 7473   3.000   4.591   4.320  0.1105  0.0607 -0.7285
   80SLPC  H14X 7474   3.081   4.521   4.349 -0.0935 -0.3539 -1.1390
   80SLPC  H14Y 7475   3.048   4.690   4.303  1.0828 -0.2679  0.0094
   80SLPC  C315 7476   2.942   4.534   4.184  0.6198 -0.0568 -0.1825
   80SLPC  H15X 7477   2.990   4.598   4.107  0.9796 -0.0722  0.0261
   80SLPC  H15Y 7478   2.834   4.559   4.192  0.2552 -1.8236  1.1329
   80SLPC  C316 7479   2.948   4.384   4.165 -0.5264  0.3710 -0.4549
   80SLPC  H16X 7480   2.923   4.339   4.264  1.4232 -0.0991 -0.1313
   80SLPC  H16Y 7481   3.055   4.355   4.156  0.1281  1.8186  1.7856
   80SLPC  C317 7482   2.854   4.339   4.052  0.2695 -0.6961  0.2772
   80SLPC  H17X 7483   2.753   4.380   4.074 -0.2227 -2.0953  0.7392
   80SLPC  H17Y 7484   2.855   4.228   4.062  2.5555 -0.7768 -0.3518
   80SLPC  C318 7485   2.911   4.373   3.916  0.3169 -0.1123  0.4658
   80SLPC  H18X 7486   2.959   4.473   3.919  0.8528 -0.3656  3.8295
   80SLPC  H18Y 7487   2.834   4.366   3.836 -0.0263 -2.6159  0.9414
   80SLPC  H18Z 7488   2.994   4.301   3.900 -0.7562 -1.2178 -0.3048
   81SLPC     N 7489   1.301   6.394   2.098 -0.1877 -0.0337  0.4778
   81SLPC   C13 7490   1.271   6.349   1.958 -0.2263  0.1397  0.4433
   81SLPC  H13A 7491   1.360   6.356   1.897 -1.2080 -0.6199 -1.1350
   81SLPC  H13B 7492   1.241   6.246   1.965 -1.7344  0.5833  0.7970
   81SLPC  H13C 7493   1.194   6.400   1.902  0.6684 -0.9316 -1.8953
   81SLPC   C14 7494   1.344   6.536   2.087 -0.1516  0.2116 -0.2817
   81SLPC  H14A 7495   1.424   6.550   2.016 -0.8613 -0.0773 -1.1426
   81SLPC  H14B 7496   1.262   6.597   2.054 -1.4048 -1.9868 -1.4419
   81SLPC  H14C 7497   1.374   6.575   2.183 -1.6841 -0.1758  0.3869
   81SLPC   C15 7498   1.409   6.304   2.146 -0.9574 -0.1560  0.0785
   81SLPC  H15A 7499   1.376   6.202   2.162 -1.2472 -0.0404  0.2327
   81SLPC  H15B 7500   1.501   6.309   2.090  1.4686 -1.2156  3.5567
   81SLPC  H15C 7501   1.448   6.338   2.241  0.9021 -0.6715 -0.4546
   81SLPC   C12 7502   1.183   6.388   2.193  0.6486  0.2687 -0.6014
   81SLPC  H12A 7503   1.099   6.443   2.153 -0.7381 -1.1950  0.1958
   81SLPC  H12B 7504   1.203   6.438   2.287  1.5742 -0.8237 -0.1989
   81SLPC   C11 7505   1.137   6.241   2.229 -0.4157 -0.5248 -0.6289
   81SLPC  H11A 7506   1.034   6.244   2.270  0.2357  2.2571  1.0474
   81SLPC  H11B 7507   1.196   6.213   2.319  0.4092  0.6454 -0.7846
   81SLPC     P 7508   1.164   5.989   2.160  0.0141 -0.5137 -0.4285
   81SLPC   O13 7509   1.072   5.896   2.098  0.5072  0.1291  0.0516
   81SLPC   O14 7510   1.304   5.950   2.155 -0.0666 -0.5626 -0.2294
   81SLPC   O12 7511   1.143   6.146   2.118  0.5916  0.3914  0.1138
   81SLPC   O11 7512   1.126   5.989   2.314  0.0804 -0.4375 -0.0197
   81SLPC    C1 7513   1.226   5.971   2.421 -0.0942 -0.4892  0.0418
   81SLPC    HA 7514   1.277   5.873   2.413  1.5208  0.2883  0.4036
   81SLPC    HB 7515   1.296   6.056   2.408 -1.9193  1.4381  2.0498
   81SLPC    C2 7516   1.161   5.967   2.564 -0.2474 -0.4705  0.3141
   81SLPC    HS 7517   1.078   5.894   2.551  0.2634 -1.0446  0.2490
   81SLPC   O21 7518   1.113   6.099   2.604  0.6124 -0.5726  0.3490
   81SLPC   C21 7519   0.989   6.101   2.639  0.5509 -0.2043 -0.3921
   81SLPC   O22 7520   0.908   6.011   2.644 -0.2674 -0.2017  0.4618
   81SLPC   C22 7521   0.965   6.235   2.708  1.1083  0.0212 -0.4007
   81SLPC   H2R 7522   1.014   6.312   2.644  1.6605 -0.9891 -1.2182
   81SLPC   H2S 7523   0.857   6.256   2.690  1.0138 -0.9889 -1.1083
   81SLPC    C3 7524   1.257   5.918   2.670 -0.4445 -0.4116 -1.0143
   81SLPC    HX 7525   1.345   5.986   2.672  0.5448 -1.6492  1.2294
   81SLPC    HY 7526   1.294   5.817   2.642  1.8031 -0.1264  0.6308
   81SLPC   O31 7527   1.192   5.908   2.798 -0.5753 -0.3055 -0.8098
   81SLPC   C31 7528   1.100   5.822   2.831 -0.8843  0.3788  0.7309
   81SLPC   O32 7529   1.063   5.739   2.748  0.1104 -0.3385  0.7853
   81SLPC   C32 7530   1.050   5.825   2.977  0.2725 -0.3541  0.0148
   81SLPC   H2X 7531   1.061   5.721   3.015 -1.6132 -0.1410  1.2589
   81SLPC   H2Y 7532   0.948   5.868   2.977 -0.4471 -2.0048  0.4578
   81SLPC   C23 7533   1.011   6.233   2.855 -0.0427  0.4280  0.5751
   81SLPC   H3R 7534   1.120   6.218   2.868  0.1487  1.6666  0.5351
   81SLPC   H3S 7535   0.970   6.143   2.907  1.1306  0.4383  1.5599
   81SLPC   C24 7536   0.981   6.357   2.938 -0.0581  0.2104 -0.6870
   81SLPC   H4R 7537   0.871   6.362   2.947  0.1231  1.8590  1.4348
   81SLPC   H4S 7538   1.015   6.447   2.883  0.9043  0.8026  0.7931
   81SLPC   C25 7539   1.038   6.355   3.077 -0.2385 -0.3906  0.4185
   81SLPC   H5R 7540   1.148   6.355   3.061 -0.2027 -1.6008  0.5842
   81SLPC   H5S 7541   1.013   6.252   3.111 -1.6351 -0.4707 -0.7600
   81SLPC   C26 7542   0.994   6.472   3.168 -0.1590  0.1467  0.0254
   81SLPC   H6R 7543   0.883   6.472   3.167 -0.1619  1.1628 -0.4803
   81SLPC   H6S 7544   1.033   6.565   3.120 -3.1632  1.7096  0.3909
   81SLPC   C27 7545   1.058   6.450   3.310  0.1518 -0.5879 -0.1783
   81SLPC   H7R 7546   1.052   6.547   3.366  1.4047 -0.2777 -0.5635
   81SLPC   H7S 7547   1.167   6.430   3.308  0.2260 -0.2942  0.5306
   81SLPC   C28 7548   1.003   6.336   3.397  0.1467 -0.1176  0.3342
   81SLPC   H8R 7549   1.032   6.234   3.363  0.5404 -0.6980  2.2507
   81SLPC   H8S 7550   0.893   6.348   3.384  0.1979  0.8199  0.6926
   81SLPC   C29 7551   1.035   6.345   3.541 -1.3254  0.4542  0.2136
   81SLPC   H9R 7552   1.141   6.334   3.567 -1.5736  0.4385  1.2635
   81SLPC  C210 7553   0.949   6.368   3.640 -0.6099  0.1617 -0.1523
   81SLPC  H10R 7554   0.993   6.385   3.740 -0.5014  0.9160 -0.3220
   81SLPC  C211 7555   0.797   6.394   3.635  0.1428 -0.6308  0.3903
   81SLPC  H11R 7556   0.745   6.296   3.632 -1.6796  0.2814  0.3116
   81SLPC  H11S 7557   0.763   6.452   3.547 -1.0550  1.2562  1.9821
   81SLPC  C212 7558   0.748   6.471   3.760  0.1581 -0.7762 -0.4331
   81SLPC  H12R 7559   0.752   6.581   3.753 -0.3351 -0.8124 -1.4689
   81SLPC  C213 7560   0.693   6.408   3.870 -0.7297  0.9766 -0.0148
   81SLPC  H13R 7561   0.664   6.471   3.956  2.0868  1.5280  0.6229
   81SLPC  C214 7562   0.671   6.264   3.878  0.0538 -0.2801 -0.1994
   81SLPC  H14R 7563   0.678   6.224   3.982 -4.2498 -0.7774  0.1092
   81SLPC  H14S 7564   0.741   6.214   3.809 -1.1430 -1.5681 -0.5239
   81SLPC  C215 7565   0.528   6.240   3.826 -0.0807  0.9606  0.0819
   81SLPC  H15R 7566   0.513   6.138   3.786 -1.0882  0.0730  2.5346
   81SLPC  H15S 7567   0.495   6.305   3.742 -2.1448 -0.9037 -0.6385
   81SLPC  C216 7568   0.419   6.251   3.929  0.0414  0.1696  0.0666
   81SLPC  H16R 7569   0.372   6.351   3.928  2.1340  1.2051 -0.1452
   81SLPC  H16S 7570   0.451   6.215   4.030  1.5662 -0.2528 -0.5316
   81SLPC  C217 7571   0.296   6.170   3.888  0.0232  0.0241  0.1859
   81SLPC  H17R 7572   0.326   6.063   3.891 -1.2992 -0.4270 -1.4292
   81SLPC  H17S 7573   0.268   6.202   3.786 -0.2453  1.6794  0.7554
   81SLPC  C218 7574   0.181   6.188   3.972 -0.1441 -0.1997 -0.2935
   81SLPC  H18R 7575   0.145   6.293   3.974  0.3779 -0.0064 -0.8248
   81SLPC  H18S 7576   0.210   6.162   4.076  0.7645 -0.3819 -0.5874
   81SLPC  H18T 7577   0.099   6.121   3.938  0.4347 -1.6808  1.0894
   81SLPC   C33 7578   1.143   5.915   3.066  0.1158  0.1954  0.1824
   81SLPC   H3X 7579   1.125   6.022   3.040 -1.9583  0.0633  0.8819
   81SLPC   H3Y 7580   1.247   5.892   3.038 -0.5309 -1.8222 -0.7349
   81SLPC   C34 7581   1.122   5.880   3.212  0.1559 -0.1224  0.7264
   81SLPC   H4X 7582   1.135   5.770   3.220  1.7304 -0.0557 -0.3664
   81SLPC   H4Y 7583   1.016   5.903   3.235 -0.3438 -2.1111  0.5297
   81SLPC   C35 7584   1.202   5.955   3.321  0.4437  0.4872 -0.3380
   81SLPC   H5X 7585   1.190   6.064   3.303  3.2306  0.6428 -1.7071
   81SLPC   H5Y 7586   1.312   5.940   3.319  0.7735  2.5529  0.6705
   81SLPC   C36 7587   1.164   5.932   3.467  0.2337 -0.2703 -0.3043
   81SLPC   H6X 7588   1.167   5.823   3.488 -5.0101 -0.4145  1.1628
   81SLPC   H6Y 7589   1.058   5.964   3.482  0.4909  0.6191 -0.3338
   81SLPC   C37 7590   1.263   6.020   3.551 -0.5936  0.6221 -0.9692
   81SLPC   H7X 7591   1.249   6.123   3.511 -1.8627  2.0727  2.7161
   81SLPC   H7Y 7592   1.366   5.981   3.541 -1.3313 -1.7031 -0.1836
   81SLPC   C38 7593   1.216   6.022   3.702  0.0345 -0.1308  0.4248
   81SLPC   H8X 7594   1.196   5.916   3.729 -0.3011 -0.4012 -0.8085
   81SLPC   H8Y 7595   1.118   6.074   3.711  1.1441  2.0170  0.8641
   81SLPC   C39 7596   1.322   6.082   3.797  0.4500 -1.0946 -0.3866
   81SLPC   H9X 7597   1.414   6.021   3.790 -0.3996 -2.2256 -2.2620
   81SLPC   H9Y 7598   1.286   6.063   3.901  2.5411 -1.8693  0.2605
   81SLPC  C310 7599   1.346   6.235   3.773  0.6209  0.3825 -0.0504
   81SLPC  H10X 7600   1.256   6.296   3.749 -0.2080 -1.0888 -0.9085
   81SLPC  H10Y 7601   1.414   6.248   3.687 -1.5954 -0.0734 -1.9941
   81SLPC  C311 7602   1.419   6.300   3.892  0.4964  0.4652 -0.2401
   81SLPC  H11X 7603   1.487   6.384   3.865  1.5193  0.3953  1.8786
   81SLPC  H11Y 7604   1.482   6.227   3.946 -0.4493  0.6563  1.1680
   81SLPC  C312 7605   1.330   6.352   4.000  0.3739  0.2700  0.8841
   81SLPC  H12X 7606   1.402   6.376   4.081  1.8801 -1.3003  0.0622
   81SLPC  H12Y 7607   1.268   6.265   4.031  0.2114 -0.4036 -1.1614
   81SLPC  C313 7608   1.238   6.472   3.971  0.6429  0.3540 -0.1367
   81SLPC  H13X 7609   1.209   6.469   3.864  0.8244 -1.8602 -0.1665
   81SLPC  H13Y 7610   1.297   6.565   3.987  0.2543  0.2252  2.6464
   81SLPC  C314 7611   1.118   6.480   4.067 -0.4350 -0.1662 -0.1669
   81SLPC  H14X 7612   1.156   6.486   4.172 -1.9544 -1.5743  0.5052
   81SLPC  H14Y 7613   1.054   6.390   4.055  0.4716 -1.0068  0.9678
   81SLPC  C315 7614   1.028   6.604   4.054 -0.6142 -0.1482 -0.2921
   81SLPC  H15X 7615   0.988   6.626   3.953  0.5995  0.6496 -0.6202
   81SLPC  H15Y 7616   1.100   6.688   4.067 -1.5428  0.5591  0.5257
   81SLPC  C316 7617   0.917   6.599   4.159  0.0343  0.9024  0.2690
   81SLPC  H16X 7618   0.944   6.553   4.257  0.1905  0.8426  0.1967
   81SLPC  H16Y 7619   0.830   6.537   4.128 -0.2862  1.9565 -0.9953
   81SLPC  C317 7620   0.844   6.733   4.193  0.1055 -0.4526 -0.2198
   81SLPC  H17X 7621   0.780   6.756   4.106  0.3748  0.9019 -0.0915
   81SLPC  H17Y 7622   0.922   6.812   4.195 -0.4279  0.1000 -0.7981
   81SLPC  C318 7623   0.760   6.742   4.326  0.1682 -0.2384  0.9100
   81SLPC  H18X 7624   0.709   6.643   4.330  0.5597 -0.4105  2.0106
   81SLPC  H18Y 7625   0.688   6.825   4.334  0.4606 -0.0485  1.6922
   81SLPC  H18Z 7626   0.828   6.745   4.414 -0.4472 -0.4738  1.3964
   82SLPC     N 7627   6.237   3.479   2.100  0.0479 -0.0735 -0.1005
   82SLPC   C13 7628   6.094   3.453   2.109  0.5644  1.0082  0.2784
   82SLPC  H13A 7629   6.071   3.400   2.200  0.8216  1.3645  0.5577
   82SLPC  H13B 7630   6.037   3.545   2.100 -0.5154  0.4308  1.1057
   82SLPC  H13C 7631   6.070   3.383   2.030  2.9348  0.3398  0.0753
   82SLPC   C14 7632   6.306   3.356   2.078  0.6514 -0.4489 -0.3309
   82SLPC  H14A 7633   6.300   3.300   2.170  2.7443  0.1038  0.1900
   82SLPC  H14B 7634   6.264   3.301   1.996 -2.3736  1.6712 -0.3767
   82SLPC  H14C 7635   6.411   3.379   2.071  0.4039  0.9750  0.2549
   82SLPC   C15 7636   6.284   3.539   2.227  0.0427 -0.7135 -0.3626
   82SLPC  H15A 7637   6.254   3.643   2.231 -1.2480 -0.8918 -3.1501
   82SLPC  H15B 7638   6.271   3.490   2.323 -0.6698  0.1384 -0.0073
   82SLPC  H15C 7639   6.392   3.541   2.223  0.1262 -1.8844  0.8066
   82SLPC   C12 7640   6.263   3.584   1.990 -0.1102  0.1275 -0.0995
   82SLPC  H12A 7641   6.224   3.542   1.899 -0.6357  2.0623 -0.8150
   82SLPC  H12B 7642   6.370   3.595   1.990 -0.0963  0.1371  0.9534
   82SLPC   C11 7643   6.199   3.720   1.997  0.6849 -0.4054 -0.0395
   82SLPC  H11A 7644   6.088   3.712   1.994  0.5997  0.6347 -0.2972
   82SLPC  H11B 7645   6.216   3.773   1.901 -1.6759 -1.2484 -0.9952
   82SLPC     P 7646   6.149   3.933   2.141 -0.0085 -0.1700 -0.1905
   82SLPC   O13 7647   6.183   4.045   2.050  0.8035 -0.2214 -0.0464
   82SLPC   O14 7648   6.007   3.900   2.154  0.2673 -0.2162  0.1387
   82SLPC   O12 7649   6.236   3.801   2.114  0.0864  0.2864 -0.5494
   82SLPC   O11 7650   6.205   3.986   2.285  0.0235 -0.6061 -0.4918
   82SLPC    C1 7651   6.167   3.904   2.402  0.9273 -0.0039  0.1065
   82SLPC    HA 7652   6.117   3.809   2.374  1.7473 -0.4351  0.0765
   82SLPC    HB 7653   6.261   3.870   2.451  1.3052  0.4498 -0.2937
   82SLPC    C2 7654   6.081   3.990   2.505 -0.5324  0.5553 -0.3426
   82SLPC    HS 7655   6.005   4.038   2.439  0.3765  2.5173 -0.0378
   82SLPC   O21 7656   6.167   4.086   2.556 -0.6541  0.2586 -0.0034
   82SLPC   C21 7657   6.112   4.193   2.614  0.0651 -0.2614  0.0528
   82SLPC   O22 7658   5.997   4.228   2.607 -0.1806 -0.0744  0.9256
   82SLPC   C22 7659   6.222   4.261   2.690  0.4401 -0.4253  0.6529
   82SLPC   H2R 7660   6.323   4.219   2.670  0.6560 -0.0872  1.0184
   82SLPC   H2S 7661   6.212   4.369   2.664  1.6511 -0.0014  1.8634
   82SLPC    C3 7662   6.030   3.908   2.630  0.0151  0.0728 -0.1389
   82SLPC    HX 7663   6.123   3.860   2.666  0.6191  1.1748 -0.1802
   82SLPC    HY 7664   5.976   3.819   2.590  0.7721 -0.4368 -0.0424
   82SLPC   O31 7665   5.963   3.991   2.733  0.9183 -0.5635  0.4799
   82SLPC   C31 7666   5.836   4.016   2.709  0.4883 -0.1586 -0.7558
   82SLPC   O32 7667   5.769   3.970   2.623  1.0036  0.0740  0.9485
   82SLPC   C32 7668   5.781   4.107   2.824 -0.4612  0.4705  0.2277
   82SLPC   H2X 7669   5.671   4.098   2.807 -0.5283  0.5449  0.6380
   82SLPC   H2Y 7670   5.817   4.211   2.809  2.1632 -0.2505  1.0733
   82SLPC   C23 7671   6.182   4.257   2.844  0.3482 -0.6821  1.1350
   82SLPC   H3R 7672   6.204   4.152   2.871 -0.7603 -0.4603  3.0472
   82SLPC   H3S 7673   6.074   4.284   2.848  0.4500 -0.3749  1.8609
   82SLPC   C24 7674   6.271   4.364   2.907  0.1327 -0.1395 -0.1893
   82SLPC   H4R 7675   6.241   4.463   2.866 -3.0328 -0.9501 -0.1121
   82SLPC   H4S 7676   6.377   4.343   2.881  0.1357  0.7276 -0.9461
   82SLPC   C25 7677   6.268   4.381   3.062  0.1665 -0.4225  0.5639
   82SLPC   H5R 7678   6.359   4.436   3.094 -0.3292  0.6102  0.2496
   82SLPC   H5S 7679   6.266   4.278   3.103  0.1988 -0.1310  1.2950
   82SLPC   C26 7680   6.152   4.469   3.102 -0.7428  0.6853 -0.3243
   82SLPC   H6R 7681   6.061   4.431   3.052 -1.9896  0.5810  1.9121
   82SLPC   H6S 7682   6.162   4.569   3.055  0.8266  0.8807  0.3424
   82SLPC   C27 7683   6.135   4.491   3.254 -0.2310  0.0355 -0.1606
   82SLPC   H7R 7684   6.233   4.515   3.299 -0.9127  1.4498  0.6339
   82SLPC   H7S 7685   6.095   4.399   3.303  1.7567 -1.0902 -0.5676
   82SLPC   C28 7686   6.047   4.617   3.277  0.6452  1.1356 -0.2854
   82SLPC   H8R 7687   5.959   4.609   3.208 -1.3916  0.8720  2.1791
   82SLPC   H8S 7688   6.096   4.713   3.251  2.6340  0.2626  0.0710
   82SLPC   C29 7689   6.011   4.625   3.419 -0.0962  0.3025  0.5033
   82SLPC   H9R 7690   5.916   4.580   3.451  0.2469  1.0357  2.7485
   82SLPC  C210 7691   6.103   4.662   3.512  0.2913  0.3523  0.3973
   82SLPC  H10R 7692   6.083   4.642   3.618  0.5770  0.3529  0.4521
   82SLPC  C211 7693   6.241   4.714   3.489 -0.1259 -0.2146  0.8287
   82SLPC  H11R 7694   6.253   4.767   3.392  1.3317 -1.4821  0.2649
   82SLPC  H11S 7695   6.312   4.629   3.478  0.9927  0.7513  0.3678
   82SLPC  C212 7696   6.283   4.806   3.600 -0.0105  0.3278 -0.0498
   82SLPC  H12R 7697   6.238   4.906   3.603  1.5302  1.0975 -1.2304
   82SLPC  C213 7698   6.355   4.766   3.707 -0.5721 -0.8894  0.6723
   82SLPC  H13R 7699   6.363   4.842   3.785 -0.1479  1.4603 -1.5286
   82SLPC  C214 7700   6.435   4.641   3.724 -0.4418 -0.1478 -0.2720
   82SLPC  H14R 7701   6.526   4.636   3.661  0.2122  2.4488  0.3627
   82SLPC  H14S 7702   6.359   4.561   3.704 -0.6209  0.3750 -1.8219
   82SLPC  C215 7703   6.469   4.633   3.876 -0.8959 -0.0355 -1.2261
   82SLPC  H15R 7704   6.516   4.731   3.898  0.0240 -0.3783 -1.5731
   82SLPC  H15S 7705   6.543   4.555   3.903 -2.3399 -0.6931  1.0714
   82SLPC  C216 7706   6.349   4.596   3.977  1.2068 -0.3790 -0.4496
   82SLPC  H16R 7707   6.307   4.502   3.935 -1.9227  0.2808  0.9543
   82SLPC  H16S 7708   6.257   4.658   3.976 -1.2462 -3.6026  2.4967
   82SLPC  C217 7709   6.403   4.579   4.122 -0.0500 -0.2740 -0.1720
   82SLPC  H17R 7710   6.458   4.670   4.152  0.9102 -0.3978 -1.4512
   82SLPC  H17S 7711   6.479   4.498   4.126 -0.9497 -1.1418 -0.2371
   82SLPC  C218 7712   6.294   4.557   4.218 -0.0050 -0.3632  0.3594
   82SLPC  H18R 7713   6.345   4.520   4.310  1.4067 -0.6660 -0.5187
   82SLPC  H18S 7714   6.221   4.479   4.189 -0.6807  0.0944  0.7959
   82SLPC  H18T 7715   6.233   4.649   4.233 -0.1474  0.0104 -2.1809
   82SLPC   C33 7716   5.815   4.064   2.977 -0.0400  0.3400 -0.0087
   82SLPC   H3X 7717   5.922   4.032   2.970  0.4887  2.2359 -5.5288
   82SLPC   H3Y 7718   5.744   3.985   3.008 -0.6144  0.3097 -1.3421
   82SLPC   C34 7719   5.804   4.185   3.068  0.9107  0.2402  0.0140
   82SLPC   H4X 7720   5.704   4.230   3.047  0.6578  0.6804  1.9812
   82SLPC   H4Y 7721   5.881   4.259   3.041  2.5297 -1.1178  0.7449
   82SLPC   C35 7722   5.803   4.151   3.221 -0.5071  0.2826 -0.1769
   82SLPC   H5X 7723   5.708   4.099   3.241 -0.2311 -0.7473 -1.4342
   82SLPC   H5Y 7724   5.798   4.241   3.286  0.3627 -0.8057  1.4592
   82SLPC   C36 7725   5.922   4.066   3.265  0.2094  0.2317 -0.3180
   82SLPC   H6X 7726   6.019   4.110   3.235  2.0343 -3.5132 -0.5322
   82SLPC   H6Y 7727   5.904   3.964   3.224  1.1495 -0.6340  1.3139
   82SLPC   C37 7728   5.921   4.063   3.417 -0.4617  0.9449  0.2545
   82SLPC   H7X 7729   6.007   3.993   3.432  0.4057  1.6089 -1.3822
   82SLPC   H7Y 7730   5.830   4.010   3.451 -1.1448  1.5904 -0.5570
   82SLPC   C38 7731   5.961   4.188   3.490  0.6157 -0.1824 -0.3613
   82SLPC   H8X 7732   5.909   4.279   3.453  2.6056  1.4597  0.7141
   82SLPC   H8Y 7733   6.066   4.209   3.460  0.7306  1.1732  0.9009
   82SLPC   C39 7734   5.945   4.189   3.646  0.0052  0.3065  0.0980
   82SLPC   H9X 7735   6.025   4.119   3.678  0.1340 -0.4474 -1.7272
   82SLPC   H9Y 7736   5.851   4.139   3.676 -0.9108  1.7076 -0.3329
   82SLPC  C310 7737   5.973   4.319   3.724  0.2665 -0.1804 -0.4314
   82SLPC  H10X 7738   5.893   4.396   3.717  1.0463  0.6661 -0.3193
   82SLPC  H10Y 7739   6.062   4.375   3.688  1.2866 -1.3622  0.1398
   82SLPC  C311 7740   5.983   4.301   3.876 -0.1406 -0.0608 -0.0519
   82SLPC  H11X 7741   6.046   4.386   3.909  0.1037  0.2983 -1.3687
   82SLPC  H11Y 7742   6.045   4.211   3.896 -0.2066 -0.0618  0.1538
   82SLPC  C312 7743   5.866   4.303   3.966 -0.1059  0.6956  0.4514
   82SLPC  H12X 7744   5.777   4.264   3.912  0.6646  0.4735 -0.6807
   82SLPC  H12Y 7745   5.824   4.404   3.986 -3.4523 -0.0015 -2.0463
   82SLPC  C313 7746   5.887   4.229   4.101 -0.2248  0.2328  0.1358
   82SLPC  H13X 7747   5.970   4.157   4.082  0.3464  0.9131  0.0346
   82SLPC  H13Y 7748   5.797   4.171   4.132  0.1818  1.3009  3.8351
   82SLPC  C314 7749   5.937   4.326   4.205  0.2186  0.5297 -0.3293
   82SLPC  H14X 7750   5.895   4.425   4.177 -1.6613  0.6300  2.3858
   82SLPC  H14Y 7751   6.047   4.331   4.194  0.1883 -1.5390 -2.3556
   82SLPC  C315 7752   5.883   4.291   4.344  0.2319 -0.4701  0.0524
   82SLPC  H15X 7753   5.777   4.323   4.353  0.6560  0.5700  1.8751
   82SLPC  H15Y 7754   5.946   4.352   4.413  2.0191 -0.3828 -1.5674
   82SLPC  C316 7755   5.911   4.145   4.389 -0.1031  0.3167 -0.0716
   82SLPC  H16X 7756   6.002   4.107   4.337  0.0187  0.7151 -0.1548
   82SLPC  H16Y 7757   5.828   4.085   4.345  1.2953 -1.7553  0.0211
   82SLPC  C317 7758   5.910   4.116   4.540  0.2308  0.0046 -0.5567
   82SLPC  H17X 7759   5.879   4.012   4.563 -1.4595  0.6053  0.0694
   82SLPC  H17Y 7760   5.832   4.185   4.579 -1.3218 -1.8728 -0.2079
   82SLPC  C318 7761   6.041   4.136   4.616 -0.7306  0.3134 -0.1243
   82SLPC  H18X 7762   6.018   4.142   4.724 -1.9534  1.6343 -0.4268
   82SLPC  H18Y 7763   6.071   4.240   4.589 -0.2772  0.9097  2.4477
   82SLPC  H18Z 7764   6.123   4.072   4.576 -0.8325 -0.5495  1.0109
   83SLPC     N 7765   0.745   5.793   2.349  0.3959 -0.4374 -0.2897
   83SLPC   C13 7766   0.715   5.767   2.497 -0.6799  0.2679  0.8604
   83SLPC  H13A 7767   0.743   5.853   2.556 -2.4567  0.6091  1.2772
   83SLPC  H13B 7768   0.608   5.755   2.506 -0.8473  0.1363 -0.8702
   83SLPC  H13C 7769   0.765   5.676   2.525 -1.4748 -0.3146  0.4168
   83SLPC   C14 7770   0.886   5.828   2.328 -0.0783 -1.0538  0.3432
   83SLPC  H14A 7771   0.957   5.752   2.354 -0.8937 -1.1736  2.4210
   83SLPC  H14B 7772   0.903   5.857   2.225  0.9156 -2.0737  0.2051
   83SLPC  H14C 7773   0.919   5.908   2.393 -1.1059 -1.2270  1.1043
   83SLPC   C15 7774   0.671   5.915   2.305  0.5078  0.3098  0.4015
   83SLPC  H15A 7775   0.718   6.001   2.350  1.4099 -0.0140  0.0858
   83SLPC  H15B 7776   0.684   5.937   2.200  0.0474  1.3379  0.5423
   83SLPC  H15C 7777   0.565   5.896   2.314  0.8426 -0.7629  3.2323
   83SLPC   C12 7778   0.702   5.675   2.268 -0.4704 -0.4553 -0.2317
   83SLPC  H12A 7779   0.739   5.581   2.307 -1.9642 -0.0114  2.4653
   83SLPC  H12B 7780   0.736   5.692   2.167  0.3381 -1.9238 -0.2358
   83SLPC   C11 7781   0.559   5.643   2.263 -0.2227 -0.0562 -0.4306
   83SLPC  H11A 7782   0.529   5.622   2.368  1.3670 -2.3452 -0.3577
   83SLPC  H11B 7783   0.545   5.546   2.211  0.0224  0.6200 -1.8042
   83SLPC     P 7784   0.347   5.702   2.117 -0.1381  0.2807 -0.2600
   83SLPC   O13 7785   0.355   5.762   1.981  0.1876 -0.3190  0.3876
   83SLPC   O14 7786   0.322   5.553   2.124 -0.0039 -0.2425  0.2222
   83SLPC   O12 7787   0.476   5.739   2.203 -0.0563  0.1625 -0.2201
   83SLPC   O11 7788   0.231   5.777   2.197 -0.3684 -0.6689  0.9363
   83SLPC    C1 7789   0.212   5.739   2.333  1.0785 -0.1805  0.1309
   83SLPC    HA 7790   0.102   5.738   2.347  0.9700  0.4603 -0.5900
   83SLPC    HB 7791   0.231   5.631   2.349 -1.8310 -0.7882  0.0543
   83SLPC    C2 7792   0.279   5.839   2.439  0.6366  0.5863  1.2383
   83SLPC    HS 7793   0.388   5.831   2.418  0.5461 -1.0828  1.2817
   83SLPC   O21 7794   0.234   5.800   2.574 -0.2105 -0.2239 -0.6846
   83SLPC   C21 7795   0.342   5.806   2.660 -0.4386 -0.3123  0.1690
   83SLPC   O22 7796   0.452   5.842   2.629 -0.3184 -0.3453  0.4243
   83SLPC   C22 7797   0.296   5.748   2.790 -0.5402 -0.2247 -0.2912
   83SLPC   H2R 7798   0.190   5.717   2.786  0.0281 -2.6742  1.2053
   83SLPC   H2S 7799   0.356   5.656   2.809  1.3325  1.1209  0.7199
   83SLPC    C3 7800   0.237   5.985   2.399  0.2810 -0.1558 -0.3509
   83SLPC    HX 7801   0.126   5.986   2.396  0.2368  1.7939  0.2933
   83SLPC    HY 7802   0.270   6.030   2.303  2.6697  2.0872  1.3963
   83SLPC   O31 7803   0.265   6.077   2.500  0.0586  0.5486 -0.4219
   83SLPC   C31 7804   0.383   6.130   2.487  0.4257 -0.2220 -0.0297
   83SLPC   O32 7805   0.461   6.112   2.394 -0.3492  0.4050  0.4417
   83SLPC   C32 7806   0.397   6.242   2.594 -0.5626  0.4174  0.6732
   83SLPC   H2X 7807   0.292   6.279   2.597 -0.8441 -0.2843 -0.3504
   83SLPC   H2Y 7808   0.459   6.315   2.539  0.0717 -0.7997 -0.2716
   83SLPC   C23 7809   0.319   5.830   2.914  0.0557  0.8415  0.3406
   83SLPC   H3R 7810   0.276   5.932   2.903 -2.0427  0.3461  2.8199
   83SLPC   H3S 7811   0.428   5.840   2.937 -0.3422  4.3463  1.2551
   83SLPC   C24 7812   0.246   5.773   3.045 -0.2126  0.1827  0.1548
   83SLPC   H4R 7813   0.270   5.665   3.057  1.2698  0.4302 -0.3525
   83SLPC   H4S 7814   0.136   5.776   3.028 -0.4771 -0.4243  1.6759
   83SLPC   C25 7815   0.282   5.863   3.165 -0.4763 -0.0921 -0.4360
   83SLPC   H5R 7816   0.257   5.964   3.127  0.7252  0.5193  0.3275
   83SLPC   H5S 7817   0.392   5.876   3.174 -0.4477 -0.9731  0.8450
   83SLPC   C26 7818   0.215   5.847   3.307 -0.3358  0.0703  0.1880
   83SLPC   H6R 7819   0.255   5.766   3.371 -0.3792  0.0299  0.1637
   83SLPC   H6S 7820   0.110   5.811   3.301  0.9135 -3.8618 -1.6967
   83SLPC   C27 7821   0.231   5.984   3.385  0.2370 -0.9813  0.4501
   83SLPC   H7R 7822   0.186   6.053   3.310  0.5837 -2.0767 -0.8054
   83SLPC   H7S 7823   0.333   6.017   3.412  0.3384  0.3011 -1.3551
   83SLPC   C28 7824   0.165   5.978   3.528 -0.0619  0.3093  0.3012
   83SLPC   H8R 7825   0.056   5.953   3.525  0.0958 -0.5659  1.1791
   83SLPC   H8S 7826   0.172   6.083   3.562 -2.8991  1.1837 -1.4124
   83SLPC   C29 7827   0.234   5.882   3.629 -0.0808  0.2991  0.2775
   83SLPC   H9R 7828   0.337   5.851   3.604 -0.7024 -1.5331 -0.2052
   83SLPC  C210 7829   0.177   5.836   3.740  0.0682 -0.0178  0.2884
   83SLPC  H10R 7830   0.241   5.785   3.814  0.0082  0.7978  0.9262
   83SLPC  C211 7831   0.037   5.854   3.788  0.1925 -0.4975  0.5380
   83SLPC  H11R 7832   0.005   5.953   3.749  0.0497 -1.5034 -2.1400
   83SLPC  H11S 7833   0.042   5.869   3.898  0.1602  1.2794  0.3286
   83SLPC  C212 7834  -0.056   5.737   3.742 -0.5357 -0.4646  0.0557
   83SLPC  H12R 7835  -0.036   5.713   3.636  1.1594 -3.5324  0.9650
   83SLPC  C213 7836  -0.154   5.667   3.802 -0.3570  0.0200  0.3024
   83SLPC  H13R 7837  -0.194   5.580   3.747 -2.1964 -0.0311  1.6307
   83SLPC  C214 7838  -0.217   5.678   3.939  0.1029 -0.2195 -0.1715
   83SLPC  H14R 7839  -0.143   5.708   4.017 -1.0322  1.9445  0.1557
   83SLPC  H14S 7840  -0.248   5.577   3.971  2.8390 -1.0706  0.0790
   83SLPC  C215 7841  -0.339   5.769   3.936  0.4087 -0.2483 -0.3291
   83SLPC  H15R 7842  -0.421   5.721   3.878 -0.7103  2.1244 -0.8032
   83SLPC  H15S 7843  -0.320   5.862   3.880  1.3493 -1.5617 -2.3203
   83SLPC  C216 7844  -0.409   5.799   4.067  0.1536 -0.3736  0.0323
   83SLPC  H16R 7845  -0.506   5.840   4.032 -0.8535 -1.3670  1.5542
   83SLPC  H16S 7846  -0.365   5.869   4.141 -1.2391  0.2385  0.3067
   83SLPC  C217 7847  -0.442   5.665   4.139 -0.2621  0.0300  0.1341
   83SLPC  H17R 7848  -0.347   5.613   4.164 -0.3986 -0.6000 -0.6032
   83SLPC  H17S 7849  -0.490   5.597   4.065 -0.9935  0.2674  0.3803
   83SLPC  C218 7850  -0.527   5.683   4.267  0.7646 -0.4801  0.3202
   83SLPC  H18R 7851  -0.489   5.774   4.318  2.1671 -0.2765 -1.0159
   83SLPC  H18S 7852  -0.507   5.592   4.328  1.4336  0.2090  1.1499
   83SLPC  H18T 7853  -0.636   5.690   4.248  0.5100  1.8905  2.2586
   83SLPC   C33 7854   0.448   6.201   2.730 -0.1401 -0.0948  0.1232
   83SLPC   H3X 7855   0.392   6.106   2.742 -0.8712  0.0843 -1.6333
   83SLPC   H3Y 7856   0.400   6.256   2.815 -1.4459 -0.8527 -0.0980
   83SLPC   C34 7857   0.601   6.173   2.744 -0.2476  0.1457  0.6303
   83SLPC   H4X 7858   0.650   6.273   2.746 -1.2724  0.7090 -0.6546
   83SLPC   H4Y 7859   0.629   6.126   2.647 -1.7713  1.9538 -0.7856
   83SLPC   C35 7860   0.639   6.073   2.848  0.0709 -0.9483 -0.6498
   83SLPC   H5X 7861   0.748   6.058   2.837  0.2635  0.9303 -1.6139
   83SLPC   H5Y 7862   0.572   5.985   2.839 -1.4976  0.1901 -0.5369
   83SLPC   C36 7863   0.632   6.131   2.994 -0.2816  0.5289 -0.4973
   83SLPC   H6X 7864   0.530   6.165   3.019 -0.9245 -0.0395 -2.1727
   83SLPC   H6Y 7865   0.692   6.224   3.005 -0.2400  0.5016 -0.4950
   83SLPC   C37 7866   0.687   6.040   3.097  0.3177  0.4805  0.1926
   83SLPC   H7X 7867   0.786   5.998   3.070  0.7247  0.9779  0.8691
   83SLPC   H7Y 7868   0.619   5.953   3.111  3.7202 -2.5732 -0.5077
   83SLPC   C38 7869   0.679   6.106   3.242 -0.1825  0.3163 -0.5181
   83SLPC   H8X 7870   0.574   6.123   3.274 -0.4141 -0.5569 -0.7672
   83SLPC   H8Y 7871   0.724   6.207   3.236  0.3218  0.1846  0.7955
   83SLPC   C39 7872   0.735   6.018   3.352  0.0912  0.1008  0.1554
   83SLPC   H9X 7873   0.750   6.062   3.453  0.2389 -2.0656  1.1220
   83SLPC   H9Y 7874   0.836   5.994   3.313  0.3735 -0.3924  1.1661
   83SLPC  C310 7875   0.660   5.893   3.380  0.1822 -0.5806 -0.3697
   83SLPC  H10X 7876   0.691   5.824   3.299  1.7322 -0.9745  0.5276
   83SLPC  H10Y 7877   0.553   5.923   3.373  0.3248 -0.3295 -1.6642
   83SLPC  C311 7878   0.692   5.827   3.517  0.1916 -0.5669 -0.1731
   83SLPC  H11X 7879   0.802   5.809   3.525  0.2785  0.7123  2.3724
   83SLPC  H11Y 7880   0.634   5.732   3.521  0.9737 -1.0261  0.6995
   83SLPC  C312 7881   0.651   5.908   3.641 -1.0336  0.0828  0.3269
   83SLPC  H12X 7882   0.555   5.954   3.610 -1.8484 -1.8343 -0.1608
   83SLPC  H12Y 7883   0.735   5.977   3.662 -0.8859  0.7413 -2.2025
   83SLPC  C313 7884   0.614   5.837   3.772 -0.3201  0.2291 -0.5067
   83SLPC  H13X 7885   0.532   5.768   3.742 -0.3319  0.3681 -0.7919
   83SLPC  H13Y 7886   0.566   5.907   3.844  1.9039  0.9689  0.3435
   83SLPC  C314 7887   0.722   5.754   3.845 -0.7503  0.6794  0.5140
   83SLPC  H14X 7888   0.769   5.691   3.767 -0.3538  2.6228 -0.9017
   83SLPC  H14Y 7889   0.682   5.685   3.922 -1.7551  0.2801 -0.3258
   83SLPC  C315 7890   0.857   5.822   3.896  0.4240 -0.3212  0.2962
   83SLPC  H15X 7891   0.906   5.867   3.806 -0.4953  1.8961  0.8424
   83SLPC  H15Y 7892   0.929   5.755   3.947 -1.0794 -0.9416  1.6724
   83SLPC  C316 7893   0.829   5.939   3.996  0.0058  0.2593  0.3750
   83SLPC  H16X 7894   0.785   5.890   4.085  0.3069  0.4588  0.6324
   83SLPC  H16Y 7895   0.748   6.002   3.955 -1.1482 -0.9664  0.7040
   83SLPC  C317 7896   0.955   6.013   4.019  0.0455 -0.7625 -0.4347
   83SLPC  H17X 7897   1.004   6.052   3.927  0.0020 -1.9687 -0.9764
   83SLPC  H17Y 7898   1.032   5.947   4.064 -0.8211 -0.7786  1.1129
   83SLPC  C318 7899   0.940   6.140   4.116 -0.2191  0.0608 -0.3155
   83SLPC  H18X 7900   0.877   6.225   4.082  0.0954  0.1033 -0.8010
   83SLPC  H18Y 7901   1.041   6.187   4.116  1.3434 -2.9919  2.0699
   83SLPC  H18Z 7902   0.901   6.096   4.210  0.8189  2.7024  1.4603
   84SLPC     N 7903   6.505   2.785   1.462  0.2789  0.1843 -0.4016
   84SLPC   C13 7904   6.413   2.864   1.377  0.7333 -0.0594  0.3679
   84SLPC  H13A 7905   6.453   2.885   1.278 -1.5034 -0.8629 -0.7776
   84SLPC  H13B 7906   6.322   2.811   1.352  0.4884  1.2154 -1.7689
   84SLPC  H13C 7907   6.381   2.950   1.435 -0.6168  1.0359 -1.8197
   84SLPC   C14 7908   6.634   2.862   1.479 -0.3482 -0.3219 -0.0585
   84SLPC  H14A 7909   6.684   2.827   1.567 -1.4031  1.4373  1.3181
   84SLPC  H14B 7910   6.699   2.844   1.394 -0.1424  1.0749 -0.2256
   84SLPC  H14C 7911   6.619   2.969   1.490  0.4666 -0.3163  1.1770
   84SLPC   C15 7912   6.535   2.660   1.383 -0.1719  0.0195 -0.4840
   84SLPC  H15A 7913   6.595   2.588   1.437  1.4516  1.5559 -0.1587
   84SLPC  H15B 7914   6.445   2.613   1.345 -0.9700  0.3782  0.8918
   84SLPC  H15C 7915   6.592   2.685   1.295  0.0067 -2.2291 -1.0924
   84SLPC   C12 7916   6.444   2.748   1.596 -0.4449  0.6037 -0.2613
   84SLPC  H12A 7917   6.524   2.700   1.651 -1.6069 -1.2719 -0.1159
   84SLPC  H12B 7918   6.363   2.679   1.579  1.2848 -1.3008 -1.1212
   84SLPC   C11 7919   6.385   2.858   1.692 -0.2528  0.0937 -0.2928
   84SLPC  H11A 7920   6.361   2.943   1.626 -0.8326  0.9559  0.9743
   84SLPC  H11B 7921   6.461   2.884   1.769 -0.4209 -2.4057  0.8290
   84SLPC     P 7922   6.217   2.827   1.895  0.1123 -0.7590  0.0007
   84SLPC   O13 7923   6.184   2.971   1.908  0.3299  0.1294  0.7813
   84SLPC   O14 7924   6.104   2.736   1.932 -0.4816 -0.1811 -0.5110
   84SLPC   O12 7925   6.265   2.801   1.748  0.3739 -0.1282 -0.4471
   84SLPC   O11 7926   6.342   2.802   1.971 -0.0660  0.0023 -0.1949
   84SLPC    C1 7927   6.401   2.671   1.992 -0.0315 -0.2112  0.4783
   84SLPC    HA 7928   6.393   2.609   1.901  2.0423  0.9089 -0.5294
   84SLPC    HB 7929   6.509   2.684   2.013  0.4822 -1.8336 -0.9942
   84SLPC    C2 7930   6.340   2.607   2.118 -0.3047 -0.0169 -0.0246
   84SLPC    HS 7931   6.229   2.594   2.116 -0.1394 -1.5939 -0.2436
   84SLPC   O21 7932   6.392   2.680   2.233  0.1722  0.5648  0.3564
   84SLPC   C21 7933   6.297   2.694   2.327 -0.1590 -0.2882 -0.6103
   84SLPC   O22 7934   6.174   2.686   2.320 -0.0884 -0.0141  0.6689
   84SLPC   C22 7935   6.371   2.712   2.462 -0.0100 -0.0663  0.2596
   84SLPC   H2R 7936   6.448   2.632   2.462 -0.4684 -0.5100 -0.1017
   84SLPC   H2S 7937   6.416   2.814   2.459 -1.4987  0.5940 -1.3237
   84SLPC    C3 7938   6.386   2.461   2.135 -0.7248  0.8850  0.0958
   84SLPC    HX 7939   6.496   2.462   2.143 -0.4156 -1.6408 -2.0696
   84SLPC    HY 7940   6.355   2.405   2.044 -2.3661 -0.8997  1.6671
   84SLPC   O31 7941   6.321   2.405   2.254 -0.8333 -0.7201 -0.5969
   84SLPC   C31 7942   6.379   2.307   2.311  0.2700  0.6259 -0.0305
   84SLPC   O32 7943   6.458   2.238   2.250  0.7056  0.0193  0.5093
   84SLPC   C32 7944   6.332   2.290   2.461  1.0050 -0.0859 -0.4264
   84SLPC   H2X 7945   6.262   2.205   2.466  0.8181  0.0562 -0.6199
   84SLPC   H2Y 7946   6.276   2.377   2.501  3.3790  1.1126  0.5235
   84SLPC   C23 7947   6.293   2.715   2.592  0.3787  0.6913  0.4930
   84SLPC   H3R 7948   6.292   2.613   2.636  0.7141  1.3417  2.0920
   84SLPC   H3S 7949   6.188   2.744   2.571 -0.5254  0.3678  3.8712
   84SLPC   C24 7950   6.363   2.801   2.689  0.3076 -0.1039  0.2261
   84SLPC   H4R 7951   6.341   2.902   2.647 -0.4898 -1.5374 -3.0975
   84SLPC   H4S 7952   6.473   2.787   2.689  0.2833 -0.3060  0.0133
   84SLPC   C25 7953   6.310   2.791   2.833 -0.0323  0.3816 -0.9012
   84SLPC   H5R 7954   6.201   2.773   2.826 -0.1229  0.3465  0.4463
   84SLPC   H5S 7955   6.327   2.882   2.893  3.3497 -0.6734 -0.0412
   84SLPC   C26 7956   6.379   2.680   2.920 -0.0200 -0.3104 -0.3390
   84SLPC   H6R 7957   6.480   2.703   2.960 -0.7488  0.0082  1.4057
   84SLPC   H6S 7958   6.387   2.584   2.866  2.3470  0.4816 -1.5384
   84SLPC   C27 7959   6.292   2.660   3.042  0.1839  0.3506 -0.4780
   84SLPC   H7R 7960   6.197   2.621   2.999  0.2637 -1.3922  0.8178
   84SLPC   H7S 7961   6.274   2.758   3.092 -1.1222  0.7334 -1.6303
   84SLPC   C28 7962   6.348   2.555   3.142  0.9138  0.0587 -0.1287
   84SLPC   H8R 7963   6.448   2.595   3.169  1.1727 -1.0887  0.7078
   84SLPC   H8S 7964   6.359   2.455   3.095 -1.8666 -0.1065 -0.5997
   84SLPC   C29 7965   6.249   2.545   3.253  1.0920  0.5469 -0.1136
   84SLPC   H9R 7966   6.144   2.522   3.229  0.5918  2.2992  0.2803
   84SLPC  C210 7967   6.289   2.553   3.382 -0.1578 -0.2511  0.4194
   84SLPC  H10R 7968   6.207   2.545   3.456 -0.4057 -1.5640  0.0223
   84SLPC  C211 7969   6.421   2.588   3.443 -0.1455 -0.2112  0.0500
   84SLPC  H11R 7970   6.411   2.680   3.504  0.6681  0.4102 -0.7352
   84SLPC  H11S 7971   6.500   2.604   3.367 -1.6244  3.5687 -0.9317
   84SLPC  C212 7972   6.461   2.470   3.530 -0.1349  0.0093  0.2105
   84SLPC  H12R 7973   6.455   2.373   3.479  4.3036 -0.1792 -0.2964
   84SLPC  C213 7974   6.511   2.477   3.655  0.2974  0.6294  0.5141
   84SLPC  H13R 7975   6.541   2.382   3.701 -1.3943  0.7212  1.9243
   84SLPC  C214 7976   6.533   2.594   3.746 -0.4172  0.1073  0.4185
   84SLPC  H14R 7977   6.512   2.696   3.707 -1.4130 -0.1901  0.1711
   84SLPC  H14S 7978   6.641   2.592   3.776  0.4930 -0.7957 -2.6411
   84SLPC  C215 7979   6.461   2.558   3.876 -0.7284 -0.5781 -0.6559
   84SLPC  H15R 7980   6.354   2.542   3.852 -1.2975  1.9205 -0.0607
   84SLPC  H15S 7981   6.459   2.647   3.942 -0.7137 -1.8929  1.1721
   84SLPC  C216 7982   6.502   2.434   3.950  0.3648  0.1011  0.3625
   84SLPC  H16R 7983   6.505   2.341   3.888 -1.3239 -1.0815  1.9301
   84SLPC  H16S 7984   6.422   2.409   4.023  1.8675  0.8438  2.3434
   84SLPC  C217 7985   6.631   2.435   4.026 -0.1635 -0.5561 -0.3354
   84SLPC  H17R 7986   6.726   2.467   3.978  0.8817 -2.2206  0.5228
   84SLPC  H17S 7987   6.652   2.330   4.057  2.4617  0.1983  0.6860
   84SLPC  C218 7988   6.624   2.518   4.157 -0.7233  0.4371 -0.1783
   84SLPC  H18R 7989   6.555   2.467   4.228 -0.0022 -1.4940 -0.7990
   84SLPC  H18S 7990   6.587   2.621   4.139  0.7662  0.8363 -1.1211
   84SLPC  H18T 7991   6.722   2.526   4.208 -1.6215  1.0823  1.5157
   84SLPC   C33 7992   6.456   2.250   2.545  0.4198  0.2237 -0.7672
   84SLPC   H3X 7993   6.533   2.329   2.562  1.5579 -0.7383 -1.3422
   84SLPC   H3Y 7994   6.499   2.155   2.508 -1.6866  0.0108 -2.9386
   84SLPC   C34 7995   6.408   2.213   2.683  0.2192 -0.9763 -0.0676
   84SLPC   H4X 7996   6.345   2.122   2.678  0.5050 -1.2067  0.4394
   84SLPC   H4Y 7997   6.339   2.292   2.720  0.8285 -0.0052 -0.9336
   84SLPC   C35 7998   6.519   2.188   2.784 -0.8794 -0.1667 -0.5155
   84SLPC   H5X 7999   6.569   2.287   2.788  0.6065 -0.7516 -2.6754
   84SLPC   H5Y 8000   6.595   2.115   2.750 -0.8239 -0.3755  0.0510
   84SLPC   C36 8001   6.466   2.159   2.928  0.0672  0.1351  0.6304
   84SLPC   H6X 8002   6.420   2.059   2.938  1.2221 -0.3971  0.7581
   84SLPC   H6Y 8003   6.382   2.227   2.952 -1.3778 -1.4918  0.3370
   84SLPC   C37 8004   6.560   2.169   3.049 -0.6490  0.4427  0.0522
   84SLPC   H7X 8005   6.626   2.258   3.038 -1.2583  1.0156  0.9235
   84SLPC   H7Y 8006   6.622   2.077   3.058 -1.8508 -0.4361 -0.4591
   84SLPC   C38 8007   6.487   2.196   3.181  0.3008 -0.4074  0.5217
   84SLPC   H8X 8008   6.417   2.283   3.172  1.1989  0.4412  1.5115
   84SLPC   H8Y 8009   6.566   2.229   3.251  2.1874  0.0719 -1.7291
   84SLPC   C39 8010   6.428   2.070   3.235  0.1101 -0.3623 -0.1611
   84SLPC   H9X 8011   6.504   1.989   3.235  0.9797  0.3201  3.0022
   84SLPC   H9Y 8012   6.343   2.027   3.178  0.6688  0.1906 -1.4570
   84SLPC  C310 8013   6.387   2.081   3.385  0.4293 -0.2657  0.6844
   84SLPC  H10X 8014   6.308   2.159   3.395 -1.6720 -2.2118  0.2805
   84SLPC  H10Y 8015   6.477   2.111   3.443 -0.2479  1.4722  0.9028
   84SLPC  C311 8016   6.329   1.959   3.455 -0.3253  0.3233  0.0182
   84SLPC  H11X 8017   6.388   1.872   3.420  1.7698  1.4730  0.5657
   84SLPC  H11Y 8018   6.221   1.944   3.431 -0.4526 -1.3107  1.4292
   84SLPC  C312 8019   6.352   1.952   3.609 -0.3360 -0.0727  0.6051
   84SLPC  H12X 8020   6.456   1.923   3.636 -1.2950 -2.2437  2.2610
   84SLPC  H12Y 8021   6.286   1.865   3.633 -0.7463  0.0733  0.0354
   84SLPC  C313 8022   6.302   2.073   3.687  0.1260 -0.1630 -0.7271
   84SLPC  H13X 8023   6.191   2.078   3.684  0.1676  0.7228 -1.0433
   84SLPC  H13Y 8024   6.351   2.166   3.651  3.0178 -0.7373  1.4193
   84SLPC  C314 8025   6.339   2.060   3.831 -0.0573 -0.2798 -0.2775
   84SLPC  H14X 8026   6.450   2.052   3.839 -0.1257 -0.2266  1.0736
   84SLPC  H14Y 8027   6.302   1.961   3.866 -0.0347 -0.8465 -1.8039
   84SLPC  C315 8028   6.281   2.172   3.921  0.5310  1.0762  0.9448
   84SLPC  H15X 8029   6.170   2.167   3.911  0.6588  0.5949 -0.4305
   84SLPC  H15Y 8030   6.301   2.276   3.887 -0.6883  0.3205 -2.4952
   84SLPC  C316 8031   6.321   2.147   4.068 -0.3803 -0.5268 -0.1235
   84SLPC  H16X 8032   6.430   2.163   4.082 -0.6764  1.7769 -0.1025
   84SLPC  H16Y 8033   6.295   2.041   4.087  0.4022 -0.4991  1.2626
   84SLPC  C317 8034   6.234   2.235   4.166 -0.2866  0.1441  1.0683
   84SLPC  H17X 8035   6.125   2.214   4.163 -0.1597 -0.5676  1.2116
   84SLPC  H17Y 8036   6.243   2.341   4.133 -0.7175 -0.7141 -2.1729
   84SLPC  C318 8037   6.289   2.232   4.310  0.2105  0.3856  0.2528
   84SLPC  H18X 8038   6.257   2.316   4.377 -1.6431 -1.2118  1.4741
   84SLPC  H18Y 8039   6.400   2.235   4.300  0.2213 -1.5111 -0.5061
   84SLPC  H18Z 8040   6.266   2.132   4.352 -0.3991 -0.3116 -1.6455
   85SLPC     N 8041   3.112   5.475   1.900  0.3686 -0.2704 -0.5936
   85SLPC   C13 8042   3.050   5.591   1.830  0.5500 -0.0644  0.4328
   85SLPC  H13A 8043   3.001   5.661   1.897  2.3343 -0.1047  1.8664
   85SLPC  H13B 8044   3.116   5.654   1.773 -1.3724  1.1798 -0.5510
   85SLPC  H13C 8045   2.979   5.559   1.755 -2.4454  2.9764  1.6756
   85SLPC   C14 8046   3.230   5.432   1.813  0.4754  0.4025 -0.3627
   85SLPC  H14A 8047   3.201   5.390   1.718 -0.1881 -0.6091  0.2663
   85SLPC  H14B 8048   3.304   5.510   1.801 -0.0474  0.9126 -0.3000
   85SLPC  H14C 8049   3.275   5.361   1.881  0.7775  1.2726  0.3715
   85SLPC   C15 8050   3.019   5.361   1.908 -0.0695 -0.3214  0.7130
   85SLPC  H15A 8051   3.058   5.274   1.958 -1.5381  0.4273  3.3373
   85SLPC  H15B 8052   2.926   5.388   1.956 -0.6904  1.6871 -1.3899
   85SLPC  H15C 8053   2.995   5.335   1.806 -1.4876  1.6129  0.4968
   85SLPC   C12 8054   3.166   5.528   2.041 -0.9110 -0.2850  0.1187
   85SLPC  H12A 8055   3.080   5.568   2.093  0.0248 -1.2863  2.5637
   85SLPC  H12B 8056   3.233   5.612   2.029  1.1838 -1.9044 -0.1661
   85SLPC   C11 8057   3.243   5.425   2.131 -0.1662 -0.6191  0.0124
   85SLPC  H11A 8058   3.196   5.325   2.141  2.0543 -1.6342  0.8800
   85SLPC  H11B 8059   3.254   5.469   2.233  1.8898 -0.5428 -0.2180
   85SLPC     P 8060   3.492   5.501   2.085  0.0763 -0.1558 -0.2748
   85SLPC   O13 8061   3.597   5.453   1.995  0.7312 -0.1784 -0.4229
   85SLPC   O14 8062   3.440   5.642   2.058 -0.0331  0.5649  0.4808
   85SLPC   O12 8063   3.377   5.395   2.083  1.0466 -0.0796  0.6282
   85SLPC   O11 8064   3.531   5.503   2.242 -0.1851  0.3637  0.1599
   85SLPC    C1 8065   3.576   5.385   2.299 -0.1102  0.3816  0.1516
   85SLPC    HA 8066   3.512   5.301   2.262  0.0819  0.8187 -1.2501
   85SLPC    HB 8067   3.677   5.368   2.258 -0.0351 -1.1128  0.8887
   85SLPC    C2 8068   3.600   5.382   2.447  0.2262  0.2572 -0.0727
   85SLPC    HS 8069   3.639   5.281   2.471  1.2421  0.9000  1.0691
   85SLPC   O21 8070   3.476   5.408   2.515  0.5875 -0.1833  0.2715
   85SLPC   C21 8071   3.387   5.303   2.521 -0.2109  0.0459 -0.0517
   85SLPC   O22 8072   3.406   5.190   2.485 -0.4068  0.3442  0.5746
   85SLPC   C22 8073   3.259   5.355   2.584 -0.3927  0.5404 -0.5356
   85SLPC   H2R 8074   3.198   5.396   2.501  1.2964 -1.1868 -2.7136
   85SLPC   H2S 8075   3.208   5.267   2.628  1.9452 -0.5567  0.1214
   85SLPC    C3 8076   3.710   5.488   2.486 -0.2665 -0.6331 -0.6520
   85SLPC    HX 8077   3.679   5.585   2.442  0.9898 -0.3160 -0.8501
   85SLPC    HY 8078   3.801   5.462   2.428 -0.7201  0.7185 -2.0514
   85SLPC   O31 8079   3.740   5.498   2.624  0.4601  0.2012  0.7132
   85SLPC   C31 8080   3.688   5.572   2.714  0.2696  0.4032  0.2345
   85SLPC   O32 8081   3.598   5.655   2.690  0.3911  0.6042 -0.1818
   85SLPC   C32 8082   3.735   5.538   2.852 -0.3840  0.4337 -0.2627
   85SLPC   H2X 8083   3.806   5.613   2.892 -1.8624  0.9871  1.4296
   85SLPC   H2Y 8084   3.783   5.438   2.839  1.0082  0.9748  0.4876
   85SLPC   C23 8085   3.281   5.467   2.686  0.6379 -0.2219 -0.1329
   85SLPC   H3R 8086   3.328   5.557   2.642 -0.1284  1.1196  1.6342
   85SLPC   H3S 8087   3.345   5.440   2.773 -2.0706  0.7578  2.3725
   85SLPC   C24 8088   3.147   5.499   2.751 -0.5745 -0.1811 -0.3375
   85SLPC   H4R 8089   3.116   5.399   2.787  1.4786 -0.9381 -0.5353
   85SLPC   H4S 8090   3.088   5.547   2.670 -1.2073  0.1180  0.2881
   85SLPC   C25 8091   3.151   5.593   2.862 -0.3617  0.1195 -0.0741
   85SLPC   H5R 8092   3.199   5.543   2.949 -0.4367 -2.2467 -1.3121
   85SLPC   H5S 8093   3.205   5.690   2.849 -2.8580  1.6225  0.0537
   85SLPC   C26 8094   3.010   5.627   2.904  0.0087  0.1418  0.3000
   85SLPC   H6R 8095   2.970   5.532   2.947  0.8844 -1.1608 -1.5916
   85SLPC   H6S 8096   2.954   5.656   2.813  0.4443 -0.2247 -0.0950
   85SLPC   C27 8097   2.990   5.738   3.006  0.3150  0.2480 -0.2981
   85SLPC   H7R 8098   2.983   5.829   2.942 -0.3024  1.8130  1.8870
   85SLPC   H7S 8099   3.073   5.740   3.080  1.1410 -1.9221 -1.0872
   85SLPC   C28 8100   2.853   5.725   3.087  0.8255 -0.0669  0.2232
   85SLPC   H8R 8101   2.876   5.632   3.143  4.5219  0.0324 -0.8195
   85SLPC   H8S 8102   2.775   5.694   3.014  1.8899 -2.3756  0.0022
   85SLPC   C29 8103   2.781   5.838   3.161  0.6302 -0.4393 -0.1344
   85SLPC   H9R 8104   2.767   5.933   3.107 -2.1688 -0.5658  0.2219
   85SLPC  C210 8105   2.734   5.823   3.285 -0.0095 -0.4267  0.8654
   85SLPC  H10R 8106   2.682   5.916   3.312  2.7900  0.8263  2.4796
   85SLPC  C211 8107   2.766   5.713   3.387 -0.7959  0.4602 -0.0191
   85SLPC  H11R 8108   2.819   5.629   3.336  1.0073  1.0394  0.8059
   85SLPC  H11S 8109   2.669   5.673   3.424 -0.9251 -1.9439 -2.5920
   85SLPC  C212 8110   2.831   5.774   3.510  0.6105  0.2752 -0.2851
   85SLPC  H12R 8111   2.896   5.858   3.481  0.7827  0.2365 -0.0112
   85SLPC  C213 8112   2.788   5.764   3.637  0.2076  0.3021  0.0870
   85SLPC  H13R 8113   2.842   5.826   3.711 -1.5249  1.4888  0.4032
   85SLPC  C214 8114   2.671   5.678   3.697 -0.0268 -0.8087  0.0124
   85SLPC  H14R 8115   2.606   5.629   3.621  0.1598  0.2836 -0.8687
   85SLPC  H14S 8116   2.609   5.750   3.754  1.0246  1.4563 -1.5537
   85SLPC  C215 8117   2.722   5.582   3.809 -0.1292  0.2255  0.5451
   85SLPC  H15R 8118   2.803   5.514   3.776  0.9145  1.1431  1.1422
   85SLPC  H15S 8119   2.623   5.534   3.830 -0.8980  0.9395 -1.2539
   85SLPC  C216 8120   2.770   5.661   3.934 -0.9404  0.1889  0.2562
   85SLPC  H16R 8121   2.717   5.756   3.954 -1.5614 -0.3291  1.1314
   85SLPC  H16S 8122   2.879   5.676   3.920 -0.1612 -3.1099  1.7883
   85SLPC  C217 8123   2.757   5.577   4.054 -0.1604 -0.4092  0.0259
   85SLPC  H17R 8124   2.826   5.495   4.026  0.8364  0.5855 -0.4884
   85SLPC  H17S 8125   2.656   5.530   4.055 -0.8902  1.1231  0.4170
   85SLPC  C218 8126   2.809   5.633   4.191  0.3740 -0.1211 -0.1106
   85SLPC  H18R 8127   2.803   5.564   4.278  0.6536  0.5940  0.4792
   85SLPC  H18S 8128   2.747   5.724   4.203  0.9178  0.5455 -1.9569
   85SLPC  H18T 8129   2.915   5.662   4.171  1.1494 -2.3935  0.3151
   85SLPC   C33 8130   3.630   5.524   2.956  0.8465 -0.0040  0.0056
   85SLPC   H3X 8131   3.690   5.487   3.041  1.4526 -1.6931 -1.1147
   85SLPC   H3Y 8132   3.554   5.446   2.934 -0.0191  0.4167  1.3608
   85SLPC   C34 8133   3.553   5.654   3.002 -0.0907 -0.4480 -0.0011
   85SLPC   H4X 8134   3.496   5.690   2.914  0.6254  1.1833  0.1768
   85SLPC   H4Y 8135   3.633   5.729   3.019  1.8508 -2.1852 -1.0736
   85SLPC   C35 8136   3.476   5.629   3.137 -0.0586 -0.3366 -0.3402
   85SLPC   H5X 8137   3.423   5.532   3.147  0.3828 -0.3460  2.8050
   85SLPC   H5Y 8138   3.394   5.704   3.144 -0.3997 -0.8087  0.9511
   85SLPC   C36 8139   3.578   5.641   3.253 -0.5103 -0.0778  0.7566
   85SLPC   H6X 8140   3.617   5.745   3.263 -2.5736  0.8082  0.1065
   85SLPC   H6Y 8141   3.663   5.572   3.236 -1.6857 -1.1959 -0.8537
   85SLPC   C37 8142   3.512   5.594   3.387  0.3100 -0.4410 -0.2444
   85SLPC   H7X 8143   3.591   5.590   3.465 -0.7197 -4.4610  0.8176
   85SLPC   H7Y 8144   3.473   5.490   3.382 -2.2810  0.2694  2.4398
   85SLPC   C38 8145   3.410   5.693   3.450 -0.1403  0.6050 -0.1028
   85SLPC   H8X 8146   3.333   5.716   3.373 -0.8060 -1.1164  0.0020
   85SLPC   H8Y 8147   3.464   5.788   3.472  1.1414 -0.2864  0.7417
   85SLPC   C39 8148   3.333   5.644   3.575 -0.0072 -0.6838 -0.2087
   85SLPC   H9X 8149   3.405   5.614   3.654 -0.2772  0.5172  0.5147
   85SLPC   H9Y 8150   3.286   5.547   3.549 -0.0172 -0.4338 -1.1945
   85SLPC  C310 8151   3.230   5.743   3.627 -0.5624  0.3114  0.4996
   85SLPC  H10X 8152   3.168   5.692   3.705 -1.6928 -0.2812 -0.7540
   85SLPC  H10Y 8153   3.159   5.768   3.545  0.5675 -0.5336 -0.7669
   85SLPC  C311 8154   3.293   5.876   3.670 -0.5632 -0.3686 -0.0046
   85SLPC  H11X 8155   3.214   5.937   3.720  0.2186  1.1928 -0.6228
   85SLPC  H11Y 8156   3.328   5.931   3.580  2.2360 -0.7419  0.7857
   85SLPC  C312 8157   3.416   5.871   3.762  0.6945  1.1027  0.3098
   85SLPC  H12X 8158   3.452   5.971   3.792 -0.4429  0.9565  2.4010
   85SLPC  H12Y 8159   3.495   5.815   3.708  2.0172  1.0582  2.1769
   85SLPC  C313 8160   3.382   5.780   3.881  0.5431  0.1327  0.5065
   85SLPC  H13X 8161   3.478   5.744   3.927 -0.5697 -1.1351  1.9576
   85SLPC  H13Y 8162   3.320   5.690   3.861 -1.4241  1.5777 -0.1434
   85SLPC  C314 8163   3.327   5.858   3.998 -0.1308 -0.3676  0.0809
   85SLPC  H14X 8164   3.228   5.898   3.968 -0.2183 -0.7969 -0.2068
   85SLPC  H14Y 8165   3.395   5.944   4.014  0.0821 -0.1010 -2.0277
   85SLPC  C315 8166   3.311   5.785   4.131  0.1128  0.3891 -0.0512
   85SLPC  H15X 8167   3.299   5.862   4.211 -0.6423  1.1685 -0.8865
   85SLPC  H15Y 8168   3.395   5.720   4.163 -0.4641  0.5251  1.8746
   85SLPC  C316 8169   3.184   5.700   4.137  0.5851  0.1996 -0.5522
   85SLPC  H16X 8170   3.175   5.635   4.048 -0.6295 -1.8222  0.9544
   85SLPC  H16Y 8171   3.095   5.766   4.137  1.2407  1.1075 -0.9265
   85SLPC  C317 8172   3.173   5.606   4.263 -0.0090 -0.1964 -0.3408
   85SLPC  H17X 8173   3.270   5.556   4.282 -1.1070 -1.7871  1.5143
   85SLPC  H17Y 8174   3.095   5.530   4.237 -1.0609  0.7900 -0.1512
   85SLPC  C318 8175   3.124   5.681   4.390 -0.1052  0.1924 -0.3021
   85SLPC  H18X 8176   3.144   5.623   4.482 -1.1890 -0.9230 -0.7527
   85SLPC  H18Y 8177   3.015   5.700   4.391  0.1640  1.9607  1.0743
   85SLPC  H18Z 8178   3.174   5.780   4.407  1.3951 -0.3022 -1.5525
   86SLPC     N 8179   5.491   2.997   1.704  0.6746  0.7632  0.2059
   86SLPC   C13 8180   5.340   2.963   1.734 -0.9328 -0.0530 -0.5544
   86SLPC  H13A 8181   5.313   2.863   1.704 -0.7049 -0.9757  2.0271
   86SLPC  H13B 8182   5.309   2.982   1.835  1.7254 -0.3042  0.4047
   86SLPC  H13C 8183   5.276   3.022   1.670  0.2014  1.8217 -0.0292
   86SLPC   C14 8184   5.497   3.138   1.677  0.7554  0.6240 -0.4621
   86SLPC  H14A 8185   5.595   3.151   1.633  0.7830  0.5675 -0.4192
   86SLPC  H14B 8186   5.425   3.166   1.603 -0.5330  0.7870  0.8104
   86SLPC  H14C 8187   5.501   3.202   1.764  0.9297 -0.8461  0.6728
   86SLPC   C15 8188   5.534   2.904   1.592  0.6467 -0.6309  0.4575
   86SLPC  H15A 8189   5.500   2.803   1.609  0.7291 -0.8583 -0.6756
   86SLPC  H15B 8190   5.500   2.937   1.495  0.3609  1.5425  1.2381
   86SLPC  H15C 8191   5.641   2.899   1.581  0.7095  0.1455  0.6613
   86SLPC   C12 8192   5.578   2.964   1.831 -0.4993 -0.4781  0.5020
   86SLPC  H12A 8193   5.676   3.007   1.814 -1.1372  0.1135 -2.0972
   86SLPC  H12B 8194   5.581   2.856   1.843 -1.5527 -0.3560  2.1215
   86SLPC   C11 8195   5.525   3.013   1.962  0.0515  0.0523  0.1544
   86SLPC  H11A 8196   5.595   2.957   2.028  0.5301  0.5809  0.1053
   86SLPC  H11B 8197   5.421   2.989   1.991  0.5266  0.5786  2.5473
   86SLPC     P 8198   5.678   3.207   2.019  0.2203 -0.5673 -0.0702
   86SLPC   O13 8199   5.762   3.189   1.900  0.3444 -0.6729 -0.1195
   86SLPC   O14 8200   5.675   3.348   2.060 -0.5005  0.0471 -0.4189
   86SLPC   O12 8201   5.537   3.155   1.984  1.0277  0.2141  0.0954
   86SLPC   O11 8202   5.724   3.112   2.141 -0.0041  0.4067 -0.5821
   86SLPC    C1 8203   5.682   3.130   2.280 -0.1313  0.0325  0.4245
   86SLPC    HA 8204   5.581   3.176   2.280  0.5213  1.5603 -0.8071
   86SLPC    HB 8205   5.666   3.030   2.325 -0.4328 -0.0943  0.0351
   86SLPC    C2 8206   5.781   3.217   2.357 -0.3463  0.8083  0.2355
   86SLPC    HS 8207   5.804   3.308   2.297  0.1251  0.7046  0.2547
   86SLPC   O21 8208   5.890   3.130   2.376 -0.7740  0.0854 -0.0791
   86SLPC   C21 8209   6.015   3.185   2.396 -0.4729  0.2781 -0.3556
   86SLPC   O22 8210   6.035   3.307   2.379  0.4278 -0.5063 -0.1682
   86SLPC   C22 8211   6.106   3.089   2.485  0.4347 -0.7745 -0.5490
   86SLPC   H2R 8212   6.126   2.990   2.439  2.0564 -3.0921  4.5036
   86SLPC   H2S 8213   6.196   3.153   2.489 -1.2457  1.6682  0.4867
   86SLPC    C3 8214   5.724   3.264   2.490  0.6970  0.0563 -0.0934
   86SLPC    HX 8215   5.708   3.170   2.547  2.1185  0.7903  1.6210
   86SLPC    HY 8216   5.626   3.313   2.472  0.0911  1.0034  4.5273
   86SLPC   O31 8217   5.812   3.353   2.559 -0.0792 -0.5410 -0.4410
   86SLPC   C31 8218   5.758   3.430   2.647  0.4273 -0.2444 -0.5670
   86SLPC   O32 8219   5.641   3.430   2.680  0.6373  0.5327  0.3260
   86SLPC   C32 8220   5.848   3.529   2.715 -0.0979  0.1770  1.1256
   86SLPC   H2X 8221   5.865   3.614   2.646  0.6685 -0.7505  0.1598
   86SLPC   H2Y 8222   5.948   3.484   2.734 -0.0110 -2.2672 -3.6758
   86SLPC   C23 8223   6.036   3.076   2.622  1.0511  0.0461 -1.0077
   86SLPC   H3R 8224   6.084   2.987   2.668 -1.3867 -1.4412 -1.1939
   86SLPC   H3S 8225   5.928   3.050   2.616  0.9853 -0.2909  0.9919
   86SLPC   C24 8226   6.058   3.202   2.705 -0.6338 -0.2980 -0.5982
   86SLPC   H4R 8227   6.030   3.291   2.645 -1.1470  0.2321  0.3970
   86SLPC   H4S 8228   6.164   3.197   2.736 -1.0156 -0.2830  0.7576
   86SLPC   C25 8229   5.973   3.200   2.827  0.0706 -0.1424  0.4255
   86SLPC   H5R 8230   5.864   3.194   2.811  0.1967 -0.0361 -0.6035
   86SLPC   H5S 8231   5.986   3.290   2.891  1.4528 -0.2233  0.3089
   86SLPC   C26 8232   5.991   3.089   2.932  0.6846 -0.0428  0.0780
   86SLPC   H6R 8233   6.093   3.088   2.977  0.0688 -3.3505  1.7760
   86SLPC   H6S 8234   5.983   2.990   2.882  0.4157  0.4026 -0.7707
   86SLPC   C27 8235   5.884   3.094   3.047  0.2568  0.0955  0.6377
   86SLPC   H7R 8236   5.788   3.068   2.997  0.0461  0.3086  0.9267
   86SLPC   H7S 8237   5.871   3.201   3.075  1.9755  0.9600 -1.5654
   86SLPC   C28 8238   5.914   3.005   3.166 -0.2484 -0.1368 -0.3915
   86SLPC   H8R 8239   5.950   2.907   3.129 -0.4946 -0.3441 -0.0930
   86SLPC   H8S 8240   5.826   2.982   3.230  0.1908 -1.3965 -0.2088
   86SLPC   C29 8241   6.014   3.065   3.259 -0.5296  0.6447  0.0005
   86SLPC   H9R 8242   6.026   3.172   3.238 -0.0586  0.1286 -2.7464
   86SLPC  C210 8243   6.097   2.996   3.340  0.3147  0.3750 -0.4972
   86SLPC  H10R 8244   6.163   3.054   3.407 -0.6910  1.1194 -0.1152
   86SLPC  C211 8245   6.078   2.849   3.378 -0.9448  0.0680 -0.1293
   86SLPC  H11R 8246   6.172   2.802   3.411  0.1604  2.0927 -0.2306
   86SLPC  H11S 8247   6.058   2.803   3.278 -1.8930  1.6951 -0.7392
   86SLPC  C212 8248   5.976   2.832   3.485  0.2556  0.4431 -0.4240
   86SLPC  H12R 8249   5.878   2.790   3.457 -0.3246  1.1971  0.4581
   86SLPC  C213 8250   5.996   2.843   3.616  0.5179  0.1191  0.4538
   86SLPC  H13R 8251   5.917   2.810   3.685 -1.4426 -1.4715 -2.3804
   86SLPC  C214 8252   6.132   2.882   3.667 -1.0008 -0.3026 -1.3215
   86SLPC  H14R 8253   6.134   2.991   3.688  1.0500 -0.7269  1.0892
   86SLPC  H14S 8254   6.212   2.850   3.598 -0.1977  1.4626 -1.2644
   86SLPC  C215 8255   6.155   2.814   3.804 -0.2228 -0.6628 -0.6875
   86SLPC  H15R 8256   6.264   2.814   3.826 -0.8313 -1.0838  2.9894
   86SLPC  H15S 8257   6.120   2.709   3.803 -0.8315 -0.4808  0.1175
   86SLPC  C216 8258   6.087   2.872   3.933  0.7545  0.6432  0.4295
   86SLPC  H16R 8259   5.983   2.886   3.895  1.4364 -0.7341 -2.1534
   86SLPC  H16S 8260   6.115   2.978   3.954 -0.4253  1.2177 -0.7770
   86SLPC  C217 8261   6.111   2.802   4.068 -0.2792  0.6381 -0.4040
   86SLPC  H17R 8262   6.065   2.871   4.141  1.7184  1.3593  0.2466
   86SLPC  H17S 8263   6.220   2.792   4.089  0.2238  1.3214 -2.4619
   86SLPC  C218 8264   6.053   2.658   4.078 -0.1845 -0.6191  0.2265
   86SLPC  H18R 8265   6.070   2.608   4.176  1.3099 -0.1132  0.2593
   86SLPC  H18S 8266   6.116   2.602   4.005  0.6521  3.1174 -2.1688
   86SLPC  H18T 8267   5.943   2.655   4.065 -0.3903  1.7969  1.0062
   86SLPC   C33 8268   5.791   3.573   2.858  0.4015 -0.2557  0.6042
   86SLPC   H3X 8269   5.782   3.475   2.911 -1.9260 -1.1877 -1.2953
   86SLPC   H3Y 8270   5.688   3.612   2.843  0.8787  1.2276  1.0956
   86SLPC   C34 8271   5.880   3.671   2.935 -0.5200 -0.1880 -0.4161
   86SLPC   H4X 8272   5.892   3.755   2.864  1.0069 -0.1550 -0.1504
   86SLPC   H4Y 8273   5.978   3.623   2.956  0.3193  1.2298 -0.9784
   86SLPC   C35 8274   5.821   3.722   3.067  0.7930  1.0708 -0.4314
   86SLPC   H5X 8275   5.724   3.767   3.038  0.6494 -0.5971 -2.8139
   86SLPC   H5Y 8276   5.888   3.802   3.104  1.4408  0.8064 -1.0076
   86SLPC   C36 8277   5.801   3.617   3.182 -0.6498 -0.4574 -0.3611
   86SLPC   H6X 8278   5.872   3.533   3.169 -0.3141 -0.4903  1.4225
   86SLPC   H6Y 8279   5.698   3.575   3.184 -0.5928 -0.6017 -0.4469
   86SLPC   C37 8280   5.823   3.679   3.322  0.5391  0.1505 -0.4343
   86SLPC   H7X 8281   5.763   3.772   3.330  1.1661  0.5945 -0.8242
   86SLPC   H7Y 8282   5.931   3.705   3.331  0.3041  0.7003  1.1366
   86SLPC   C38 8283   5.780   3.590   3.439  0.0006  0.6156 -0.7351
   86SLPC   H8X 8284   5.834   3.493   3.443  2.3633  1.8647 -0.6057
   86SLPC   H8Y 8285   5.674   3.568   3.415  0.2097 -0.0819 -1.0319
   86SLPC   C39 8286   5.799   3.660   3.574 -0.2447  0.3296  0.0795
   86SLPC   H9X 8287   5.762   3.606   3.663  1.8571  1.3034  1.6354
   86SLPC   H9Y 8288   5.750   3.760   3.565 -0.9631 -0.1025 -1.0605
   86SLPC  C310 8289   5.946   3.688   3.625 -0.6740  0.6988  0.6831
   86SLPC  H10X 8290   6.016   3.699   3.540  0.1211 -1.1512  1.0441
   86SLPC  H10Y 8291   5.981   3.594   3.673 -0.8685  0.4292  0.3063
   86SLPC  C311 8292   5.975   3.794   3.728  0.1763  0.5075 -0.0974
   86SLPC  H11X 8293   5.961   3.894   3.682  2.2081  0.1156 -1.6673
   86SLPC  H11Y 8294   6.084   3.794   3.748  0.1915  0.5731 -0.1820
   86SLPC  C312 8295   5.909   3.785   3.872  0.1266  0.2967 -0.0354
   86SLPC  H12X 8296   5.898   3.678   3.897  0.2974  0.8315  2.5474
   86SLPC  H12Y 8297   5.808   3.832   3.876  0.5157  1.0785  1.1426
   86SLPC  C313 8298   5.993   3.843   3.988 -0.0193 -0.6311 -0.0485
   86SLPC  H13X 8299   5.998   3.952   3.968 -2.0435 -0.3706  0.6905
   86SLPC  H13Y 8300   6.094   3.797   3.978 -0.3238 -1.5762  0.9801
   86SLPC  C314 8301   5.940   3.826   4.131  0.8016 -0.0520 -0.2735
   86SLPC  H14X 8302   5.829   3.822   4.137  0.9297 -1.3103  2.6342
   86SLPC  H14Y 8303   5.982   3.913   4.186 -0.5676  0.3323  0.2141
   86SLPC  C315 8304   5.983   3.686   4.187  0.7993  0.0240  0.2816
   86SLPC  H15X 8305   6.079   3.705   4.239 -0.0766  1.9963  1.2706
   86SLPC  H15Y 8306   5.998   3.608   4.110  2.4885  0.0425  0.5635
   86SLPC  C316 8307   5.887   3.630   4.289 -0.2370  0.1812 -0.4236
   86SLPC  H16X 8308   5.926   3.528   4.311 -1.5393 -0.8804 -2.6276
   86SLPC  H16Y 8309   5.794   3.619   4.229  0.5835  0.1150 -1.7438
   86SLPC  C317 8310   5.880   3.717   4.414 -0.2528 -0.1107  0.2962
   86SLPC  H17X 8311   5.775   3.750   4.427 -0.1313  0.4163 -0.0087
   86SLPC  H17Y 8312   5.942   3.809   4.404 -0.1951 -0.3952 -2.9877
   86SLPC  C318 8313   5.921   3.643   4.548  0.3740  0.2730 -0.0281
   86SLPC  H18X 8314   6.027   3.610   4.545  0.8468  1.4658  1.9170
   86SLPC  H18Y 8315   5.849   3.563   4.577  1.7435  0.5337  5.0156
   86SLPC  H18Z 8316   5.912   3.708   4.638  2.0961  1.0805 -0.4170
   87SLPC     N 8317   2.819   4.358   2.116  0.4783  0.6371  0.3733
   87SLPC   C13 8318   2.921   4.414   2.026  0.0384 -0.3728  0.6600
   87SLPC  H13A 8319   3.009   4.352   2.016 -0.1772 -0.4962 -0.5564
   87SLPC  H13B 8320   2.891   4.422   1.923 -2.4428  0.8605  1.4022
   87SLPC  H13C 8321   2.942   4.519   2.039 -2.6723  0.2920  0.2824
   87SLPC   C14 8322   2.696   4.438   2.094 -0.3142  0.3045  1.0596
   87SLPC  H14A 8323   2.730   4.539   2.078  3.3596 -0.6596  1.7365
   87SLPC  H14B 8324   2.650   4.401   2.003  1.2089  0.8348  0.0295
   87SLPC  H14C 8325   2.616   4.419   2.164 -1.7674  1.7607 -0.1262
   87SLPC   C15 8326   2.855   4.374   2.260 -0.1662 -0.4275  0.2262
   87SLPC  H15A 8327   2.950   4.329   2.285 -0.1688 -2.2695 -2.6194
   87SLPC  H15B 8328   2.859   4.481   2.271 -2.5203 -0.3906  1.1595
   87SLPC  H15C 8329   2.772   4.339   2.319 -0.3860  0.8041  0.6644
   87SLPC   C12 8330   2.793   4.212   2.079  0.2538 -0.5317  0.1180
   87SLPC  H12A 8331   2.723   4.172   2.151 -1.7498  0.4626 -1.1913
   87SLPC  H12B 8332   2.881   4.157   2.109  0.0578 -1.8576 -1.6024
   87SLPC   C11 8333   2.744   4.166   1.940  0.0817 -0.3405  0.2262
   87SLPC  H11A 8334   2.754   4.056   1.924 -0.6854 -0.5701  1.2297
   87SLPC  H11B 8335   2.819   4.197   1.863  0.6938 -1.0901  0.5025
   87SLPC     P 8336   2.489   4.136   1.905 -0.1814 -0.1939 -0.3198
   87SLPC   O13 8337   2.366   4.214   1.925 -0.4849 -0.2397 -0.4624
   87SLPC   O14 8338   2.499   4.072   1.772 -0.7535  0.2397 -0.1235
   87SLPC   O12 8339   2.618   4.225   1.911 -0.4578  0.0493 -0.3999
   87SLPC   O11 8340   2.501   4.031   2.020 -0.8498 -0.8332 -0.3153
   87SLPC    C1 8341   2.437   4.036   2.147  0.7435  0.1936  0.2081
   87SLPC    HA 8342   2.378   4.128   2.167  1.6776  0.5907  1.1878
   87SLPC    HB 8343   2.368   3.951   2.131  1.7332 -0.5976  0.0279
   87SLPC    C2 8344   2.535   4.002   2.269  0.5786 -0.4007 -0.2092
   87SLPC    HS 8345   2.609   4.083   2.285  1.2727 -1.5088  2.9388
   87SLPC   O21 8346   2.605   3.881   2.236 -0.2304 -0.7214  0.0346
   87SLPC   C21 8347   2.738   3.880   2.247 -0.1446 -0.3608  0.0309
   87SLPC   O22 8348   2.813   3.971   2.275  0.2627  0.3586 -0.5081
   87SLPC   C22 8349   2.803   3.743   2.208  0.1454 -0.5319 -0.4304
   87SLPC   H2R 8350   2.732   3.659   2.190  1.6626 -2.2361  1.1199
   87SLPC   H2S 8351   2.839   3.768   2.106 -0.9025  0.6353 -0.5313
   87SLPC    C3 8352   2.451   3.987   2.397 -0.1872 -0.0655  0.3434
   87SLPC    HX 8353   2.393   3.893   2.385  1.2251 -0.8039 -1.0658
   87SLPC    HY 8354   2.385   4.076   2.399  2.3329  1.9636 -1.0844
   87SLPC   O31 8355   2.530   3.991   2.519 -0.1012 -0.0060  0.1082
   87SLPC   C31 8356   2.567   3.879   2.576 -0.1093  0.3247 -0.3698
   87SLPC   O32 8357   2.540   3.765   2.540 -0.1912 -0.1111  0.0833
   87SLPC   C32 8358   2.661   3.909   2.692 -0.2886 -0.3414 -0.2191
   87SLPC   H2X 8359   2.622   3.992   2.754  1.8381  0.5972 -0.0551
   87SLPC   H2Y 8360   2.749   3.950   2.638  0.3823 -2.2070 -0.6295
   87SLPC   C23 8361   2.909   3.696   2.303 -0.5802 -0.1047 -0.1631
   87SLPC   H3R 8362   2.958   3.783   2.352  0.2092 -1.2174  1.0993
   87SLPC   H3S 8363   2.983   3.626   2.258 -0.1824  0.5443 -0.5366
   87SLPC   C24 8364   2.859   3.619   2.431  0.5903  0.4357 -0.1333
   87SLPC   H4R 8365   2.822   3.517   2.406  4.7211 -1.4808  0.7108
   87SLPC   H4S 8366   2.767   3.665   2.471  1.4010  0.1643  2.2136
   87SLPC   C25 8367   2.961   3.604   2.542  0.0917  0.0973  0.0585
   87SLPC   H5R 8368   2.959   3.694   2.607  3.4867 -1.2713  2.3487
   87SLPC   H5S 8369   3.062   3.615   2.496 -0.4882  4.0101 -0.6706
   87SLPC   C26 8370   2.944   3.473   2.620  0.2358 -0.6418  0.0663
   87SLPC   H6R 8371   2.919   3.391   2.549  0.0039 -0.4792 -0.0436
   87SLPC   H6S 8372   2.852   3.487   2.681 -0.0935 -2.3578  0.0135
   87SLPC   C27 8373   3.069   3.436   2.705  0.0729  0.0386  0.5736
   87SLPC   H7R 8374   3.101   3.516   2.776 -0.1142 -1.2534  2.1663
   87SLPC   H7S 8375   3.146   3.427   2.625 -0.6920 -0.0787 -0.1659
   87SLPC   C28 8376   3.054   3.306   2.786  0.2262  0.0677 -0.1145
   87SLPC   H8R 8377   3.055   3.225   2.710 -0.5290  0.8610 -0.9889
   87SLPC   H8S 8378   2.958   3.311   2.842  0.6517  0.8920  0.5683
   87SLPC   C29 8379   3.166   3.306   2.885 -0.4295  0.5493 -0.2347
   87SLPC   H9R 8380   3.266   3.279   2.848 -0.4514  0.5909 -0.3252
   87SLPC  C210 8381   3.149   3.318   3.018  0.3451  0.2551 -0.0493
   87SLPC  H10R 8382   3.239   3.323   3.080 -0.3710 -1.9691  1.3086
   87SLPC  C211 8383   3.032   3.340   3.100 -0.0685 -0.4918  0.0135
   87SLPC  H11R 8384   2.934   3.355   3.051 -0.5007  0.3758  1.0918
   87SLPC  H11S 8385   3.044   3.438   3.151  2.4410 -0.8257  0.2041
   87SLPC  C212 8386   3.011   3.231   3.206 -0.2145 -0.0966 -0.4198
   87SLPC  H12R 8387   2.939   3.154   3.176 -4.8944  3.4284  0.6551
   87SLPC  C213 8388   3.065   3.226   3.332 -0.2737 -0.2274 -0.9096
   87SLPC  H13R 8389   3.048   3.131   3.385 -0.2648 -0.4457 -1.2993
   87SLPC  C214 8390   3.163   3.325   3.393  0.2645  0.5358 -0.3196
   87SLPC  H14R 8391   3.187   3.396   3.310 -0.3916  0.0060 -0.9783
   87SLPC  H14S 8392   3.254   3.278   3.435  0.9403  2.2069  0.1554
   87SLPC  C215 8393   3.083   3.397   3.501  0.5421 -0.0070 -0.3004
   87SLPC  H15R 8394   3.008   3.467   3.457 -0.4239 -1.3452 -0.8424
   87SLPC  H15S 8395   3.150   3.467   3.555 -3.2423  2.4605  1.6595
   87SLPC  C216 8396   3.008   3.315   3.604 -0.2056  0.1776  0.0049
   87SLPC  H16R 8397   3.019   3.205   3.601  2.9499  0.3900 -1.5196
   87SLPC  H16S 8398   2.903   3.335   3.576  0.1606  0.9473 -0.9133
   87SLPC  C217 8399   3.041   3.356   3.748 -1.1294  0.1807  0.0597
   87SLPC  H17R 8400   2.997   3.456   3.767  0.4040  0.8924  0.0576
   87SLPC  H17S 8401   3.151   3.361   3.766 -1.2512 -2.6578  2.2445
   87SLPC  C218 8402   2.973   3.256   3.856  0.1965  0.2867  0.4451
   87SLPC  H18R 8403   3.010   3.152   3.840  0.0363  0.3385 -0.3191
   87SLPC  H18S 8404   2.864   3.255   3.833  0.2692  1.0362  0.0321
   87SLPC  H18T 8405   3.004   3.273   3.961  1.1475 -0.6049  0.3273
   87SLPC   C33 8406   2.701   3.784   2.776 -0.2151  0.2926  0.3314
   87SLPC   H3X 8407   2.746   3.709   2.707 -0.4504 -2.0493  2.5816
   87SLPC   H3Y 8408   2.613   3.730   2.817 -0.2270 -0.2841 -0.4252
   87SLPC   C34 8409   2.806   3.809   2.884  0.4218  0.3767  0.0242
   87SLPC   H4X 8410   2.755   3.877   2.956  0.9097 -0.1216  0.8576
   87SLPC   H4Y 8411   2.887   3.855   2.824 -0.4506  0.6345 -0.9947
   87SLPC   C35 8412   2.850   3.682   2.958 -0.3812 -0.3078  0.8627
   87SLPC   H5X 8413   2.897   3.616   2.881 -0.7329  1.1411 -0.6589
   87SLPC   H5Y 8414   2.764   3.621   2.991 -1.1703 -0.8168 -1.8973
   87SLPC   C36 8415   2.950   3.715   3.078  0.2652  1.1778 -0.0319
   87SLPC   H6X 8416   3.043   3.738   3.021  0.0679  1.6453 -0.1672
   87SLPC   H6Y 8417   2.957   3.618   3.133 -0.0927  2.6786  2.8886
   87SLPC   C37 8418   2.917   3.824   3.179  0.4805 -0.0073 -0.3926
   87SLPC   H7X 8419   2.809   3.819   3.206  0.0686  0.7132 -1.7947
   87SLPC   H7Y 8420   2.932   3.920   3.125  3.3488 -0.2975 -0.2887
   87SLPC   C38 8421   3.018   3.814   3.295  0.1452  0.1290  0.2742
   87SLPC   H8X 8422   3.119   3.839   3.256  0.8382  0.5790  2.2496
   87SLPC   H8Y 8423   3.024   3.712   3.340  0.6811  0.9145  2.0868
   87SLPC   C39 8424   2.981   3.911   3.406 -0.2309 -0.1916  0.0926
   87SLPC   H9X 8425   2.878   3.884   3.438 -0.9929 -0.7792 -2.5248
   87SLPC   H9Y 8426   2.977   4.017   3.374 -0.5627  0.0578  0.9552
   87SLPC  C310 8427   3.072   3.900   3.527 -0.5264 -0.6626  0.2303
   87SLPC  H10X 8428   3.175   3.926   3.495 -0.7135  1.6774  1.2896
   87SLPC  H10Y 8429   3.078   3.793   3.556 -0.1799 -0.9007 -0.6985
   87SLPC  C311 8430   3.035   3.988   3.646 -0.1671 -0.4061 -0.6140
   87SLPC  H11X 8431   2.926   3.993   3.667  0.1268 -0.9123  1.2281
   87SLPC  H11Y 8432   3.064   4.092   3.620 -3.3391  1.1281  1.3033
   87SLPC  C312 8433   3.099   3.944   3.781 -0.0396 -0.8336 -0.0016
   87SLPC  H12X 8434   3.073   4.022   3.855 -0.4551 -1.4380  0.5107
   87SLPC  H12Y 8435   3.209   3.941   3.773  0.0487 -3.3421  1.1648
   87SLPC  C313 8436   3.038   3.820   3.833  0.5602  0.5728 -0.2198
   87SLPC  H13X 8437   3.078   3.731   3.779  0.0268 -0.5401  1.1350
   87SLPC  H13Y 8438   2.928   3.829   3.834  0.4527 -0.1890  2.2215
   87SLPC  C314 8439   3.067   3.784   3.979 -0.1649 -0.9277  0.3104
   87SLPC  H14X 8440   3.043   3.877   4.035 -1.3112 -0.3106 -1.1538
   87SLPC  H14Y 8441   3.173   3.760   4.000 -0.6391 -2.9361  0.6156
   87SLPC  C315 8442   2.983   3.670   4.033  0.8158 -0.1336  0.6198
   87SLPC  H15X 8443   3.000   3.580   3.969 -1.3630 -2.2912  2.8297
   87SLPC  H15Y 8444   2.876   3.697   4.016  1.5656  2.5908 -0.2088
   87SLPC  C316 8445   2.999   3.620   4.179  0.4824 -0.0568  1.2700
   87SLPC  H16X 8446   2.942   3.525   4.193 -0.5866  0.8808  4.1318
   87SLPC  H16Y 8447   2.960   3.703   4.242  0.0191  0.4981  0.2653
   87SLPC  C317 8448   3.148   3.608   4.227 -0.3265  0.3923 -0.3380
   87SLPC  H17X 8449   3.197   3.708   4.223  0.2838  0.1016 -0.2417
   87SLPC  H17Y 8450   3.195   3.552   4.144 -0.8505  3.2892 -2.7662
   87SLPC  C318 8451   3.173   3.549   4.371 -0.1271 -0.3764  0.2069
   87SLPC  H18X 8452   3.132   3.610   4.455 -0.4733  0.1273 -0.3224
   87SLPC  H18Y 8453   3.282   3.565   4.383 -0.5432  2.2202  1.2379
   87SLPC  H18Z 8454   3.135   3.445   4.366  1.4068 -0.8893 -2.9603
   88SLPC     N 8455   4.377   2.452   1.663 -0.2541  0.1346  0.1604
   88SLPC   C13 8456   4.372   2.377   1.794 -0.4171  0.1880  0.5662
   88SLPC  H13A 8457   4.331   2.434   1.876 -1.9295 -1.6088  1.1316
   88SLPC  H13B 8458   4.311   2.289   1.782 -1.0867  0.8419 -1.1052
   88SLPC  H13C 8459   4.472   2.339   1.813 -0.4773 -0.6277 -0.6323
   88SLPC   C14 8460   4.245   2.508   1.637  0.8177  0.1345  0.7716
   88SLPC  H14A 8461   4.233   2.591   1.705 -6.3128  2.1562 -2.0305
   88SLPC  H14B 8462   4.240   2.560   1.543  2.2568  0.3980  0.8100
   88SLPC  H14C 8463   4.166   2.438   1.660  1.5380 -1.0678 -0.2274
   88SLPC   C15 8464   4.419   2.350   1.558  0.0539  0.5062  0.3030
   88SLPC  H15A 8465   4.338   2.279   1.549  0.0585  0.2153  2.1742
   88SLPC  H15B 8466   4.442   2.399   1.465  0.3098  1.3568  0.7974
   88SLPC  H15C 8467   4.509   2.297   1.588 -1.1314  0.1128  3.5773
   88SLPC   C12 8468   4.489   2.558   1.676  0.4277  0.3528 -0.2377
   88SLPC  H12A 8469   4.482   2.622   1.589  0.5588 -0.8754 -1.1682
   88SLPC  H12B 8470   4.587   2.513   1.670  1.6629  2.9610 -1.1967
   88SLPC   C11 8471   4.492   2.654   1.800  0.2688  0.3227  0.3015
   88SLPC  H11A 8472   4.583   2.717   1.798  0.4579  0.3221  3.6558
   88SLPC  H11B 8473   4.502   2.585   1.886  0.1766 -1.5772 -1.1392
   88SLPC     P 8474   4.356   2.867   1.728  0.1520 -0.2585  0.1525
   88SLPC   O13 8475   4.422   2.860   1.597 -0.1730 -0.0464  0.1871
   88SLPC   O14 8476   4.211   2.891   1.726  0.2969 -0.2694 -0.2400
   88SLPC   O12 8477   4.369   2.737   1.807  0.1380  0.0752  0.3982
   88SLPC   O11 8478   4.432   2.974   1.823 -0.5509 -0.1113 -0.0344
   88SLPC    C1 8479   4.474   2.945   1.957  0.4521  0.9915  0.3254
   88SLPC    HA 8480   4.513   2.843   1.971 -1.6548  0.3896  2.2954
   88SLPC    HB 8481   4.556   3.013   1.992  0.9623  0.4062  0.2825
   88SLPC    C2 8482   4.355   2.955   2.051 -0.0269  0.1917 -0.5647
   88SLPC    HS 8483   4.277   2.886   2.011 -1.0235  0.0047  1.5399
   88SLPC   O21 8484   4.307   3.089   2.047  0.0063 -0.0761 -0.1955
   88SLPC   C21 8485   4.177   3.108   2.054 -1.0945  0.5449 -0.0285
   88SLPC   O22 8486   4.098   3.019   2.046  0.0876  0.0157 -0.5259
   88SLPC   C22 8487   4.147   3.255   2.060  0.6791 -0.7213 -0.0234
   88SLPC   H2R 8488   4.225   3.308   2.000  0.6992 -1.2359 -0.4604
   88SLPC   H2S 8489   4.046   3.265   2.015 -0.2515 -0.0626  2.0895
   88SLPC    C3 8490   4.386   2.920   2.204  0.2824 -0.3320  0.4115
   88SLPC    HX 8491   4.441   3.002   2.254  0.0764  0.2094 -0.2233
   88SLPC    HY 8492   4.451   2.830   2.202  3.5659  1.8778 -0.8107
   88SLPC   O31 8493   4.267   2.912   2.285 -0.1325 -0.2246  0.8070
   88SLPC   C31 8494   4.203   2.798   2.309  0.3320  0.2280  1.2094
   88SLPC   O32 8495   4.226   2.698   2.246 -0.0646  0.4869  0.2393
   88SLPC   C32 8496   4.089   2.810   2.417 -0.1578 -0.0494  0.4563
   88SLPC   H2X 8497   4.049   2.710   2.448  2.7710 -1.2975  0.5367
   88SLPC   H2Y 8498   4.020   2.878   2.364  0.5163 -0.3553 -0.8433
   88SLPC   C23 8499   4.123   3.291   2.205  0.4293 -0.5352 -0.3129
   88SLPC   H3R 8500   4.048   3.235   2.265 -0.1514  0.6269  0.0920
   88SLPC   H3S 8501   4.070   3.389   2.205  0.9535 -0.2173  1.5879
   88SLPC   C24 8502   4.251   3.311   2.288  0.1095  0.6512 -0.7329
   88SLPC   H4R 8503   4.320   3.382   2.237 -0.3171  1.7149  0.1353
   88SLPC   H4S 8504   4.297   3.212   2.305 -1.2000  0.0678 -0.4233
   88SLPC   C25 8505   4.216   3.372   2.424  0.4517  0.1021  0.3847
   88SLPC   H5R 8506   4.147   3.308   2.482  1.1079  0.2046  1.2996
   88SLPC   H5S 8507   4.173   3.474   2.411 -1.3090 -0.5734  0.6378
   88SLPC   C26 8508   4.341   3.400   2.508  0.4536 -0.4093  0.1053
   88SLPC   H6R 8509   4.411   3.462   2.447 -0.0435  0.9700  0.8962
   88SLPC   H6S 8510   4.389   3.306   2.542  1.7068  0.1517 -0.0560
   88SLPC   C27 8511   4.310   3.475   2.641  0.1143 -0.1586  0.1063
   88SLPC   H7R 8512   4.247   3.410   2.705 -0.6995  0.9210  0.4127
   88SLPC   H7S 8513   4.227   3.546   2.621  1.0852  1.0166  0.1407
   88SLPC   C28 8514   4.423   3.528   2.719 -0.4620  0.4533  0.2431
   88SLPC   H8R 8515   4.383   3.586   2.805 -0.0799 -0.3464  0.9815
   88SLPC   H8S 8516   4.472   3.609   2.660 -1.8374  1.0266 -0.1480
   88SLPC   C29 8517   4.524   3.429   2.772  0.3419  0.1500  0.4682
   88SLPC   H9R 8518   4.625   3.447   2.732  0.0226  0.6362 -0.1385
   88SLPC  C210 8519   4.504   3.355   2.883  0.7234  0.0607 -0.2871
   88SLPC  H10R 8520   4.576   3.290   2.935 -2.7645 -1.8794  2.6801
   88SLPC  C211 8521   4.375   3.356   2.967  0.0136  0.1511 -0.0701
   88SLPC  H11R 8522   4.369   3.256   3.016  1.0853  1.6908  3.5361
   88SLPC  H11S 8523   4.289   3.372   2.898  0.4775 -1.5173 -1.0990
   88SLPC  C212 8524   4.369   3.469   3.072  0.7109  0.2775 -0.6997
   88SLPC  H12R 8525   4.356   3.571   3.035 -0.6945  0.5936  0.5910
   88SLPC  C213 8526   4.336   3.443   3.203 -0.1912  0.2550 -0.4311
   88SLPC  H13R 8527   4.331   3.531   3.269  0.5469  2.2988 -2.9437
   88SLPC  C214 8528   4.335   3.308   3.275  0.1659 -0.5640  0.3969
   88SLPC  H14R 8529   4.414   3.313   3.352 -0.1926 -0.7412  0.7809
   88SLPC  H14S 8530   4.358   3.226   3.203  1.0866 -1.0940  1.2759
   88SLPC  C215 8531   4.202   3.279   3.341 -0.3257 -0.2657 -0.8482
   88SLPC  H15R 8532   4.212   3.173   3.373 -1.0868 -0.6807 -1.9067
   88SLPC  H15S 8533   4.125   3.285   3.261  2.0444  0.1714 -3.2278
   88SLPC  C216 8534   4.164   3.363   3.462 -0.0402  0.1638 -0.4778
   88SLPC  H16R 8535   4.197   3.469   3.453  0.3467 -0.0007 -0.9898
   88SLPC  H16S 8536   4.229   3.336   3.548 -0.9452  0.8395  0.4401
   88SLPC  C217 8537   4.026   3.357   3.515  0.3374 -0.1769 -0.2472
   88SLPC  H17R 8538   4.006   3.249   3.533  0.2508 -0.3742 -1.4559
   88SLPC  H17S 8539   3.951   3.401   3.445 -0.9849  3.0530  2.8660
   88SLPC  C218 8540   4.014   3.439   3.650 -0.2369 -0.2719  0.8123
   88SLPC  H18R 8541   4.023   3.548   3.630 -0.7505  0.0138  2.0324
   88SLPC  H18S 8542   4.100   3.415   3.716  0.1806  0.7725  0.6857
   88SLPC  H18T 8543   3.914   3.424   3.696  0.1380 -0.3185  1.6334
   88SLPC   C33 8544   4.143   2.878   2.549  0.4608  0.1096  0.0069
   88SLPC   H3X 8545   4.221   2.955   2.527  1.2286 -0.3880  0.9300
   88SLPC   H3Y 8546   4.198   2.798   2.602 -0.9014 -1.7216 -1.2380
   88SLPC   C34 8547   4.022   2.930   2.624 -0.3859 -0.0148 -0.3377
   88SLPC   H4X 8548   3.981   2.846   2.684 -1.5207  1.0929  0.4684
   88SLPC   H4Y 8549   3.935   2.963   2.562 -0.0713  1.3919 -0.0461
   88SLPC   C35 8550   4.057   3.049   2.716 -0.6202 -0.1355  0.5949
   88SLPC   H5X 8551   4.063   3.140   2.653 -1.4536 -0.4172  0.0913
   88SLPC   H5Y 8552   4.149   3.031   2.776 -1.7697 -1.8781  1.9241
   88SLPC   C36 8553   3.956   3.052   2.830 -0.0307  0.3597 -0.6428
   88SLPC   H6X 8554   3.963   2.953   2.882  0.9739  0.3750 -0.7408
   88SLPC   H6Y 8555   3.853   3.077   2.796 -0.0057  2.1699  0.4844
   88SLPC   C37 8556   3.993   3.168   2.922 -0.2206 -1.1493  0.2678
   88SLPC   H7X 8557   4.015   3.257   2.858  0.0528 -0.8893  0.7201
   88SLPC   H7Y 8558   4.092   3.141   2.966  0.5884 -0.5595 -1.1018
   88SLPC   C38 8559   3.890   3.195   3.035  0.3045  0.5870 -0.4487
   88SLPC   H8X 8560   3.795   3.233   2.990  1.2368  1.1148 -2.0828
   88SLPC   H8Y 8561   3.920   3.280   3.100 -0.1812 -0.1900  0.8302
   88SLPC   C39 8562   3.850   3.081   3.126  0.6426  0.5468  0.3472
   88SLPC   H9X 8563   3.928   3.053   3.200  1.6807 -0.9139 -1.2042
   88SLPC   H9Y 8564   3.835   2.995   3.056  0.9029  0.9803 -0.2479
   88SLPC  C310 8565   3.726   3.104   3.206  0.1937  0.4965 -0.3122
   88SLPC  H10X 8566   3.712   3.030   3.287  0.0070  1.3093  0.4114
   88SLPC  H10Y 8567   3.640   3.100   3.135  1.3266 -2.5412 -1.6704
   88SLPC  C311 8568   3.716   3.239   3.274 -0.5522  0.7697  0.4522
   88SLPC  H11X 8569   3.712   3.324   3.203  1.3659 -0.0463 -0.7390
   88SLPC  H11Y 8570   3.814   3.255   3.325  0.2651  2.9815 -1.6337
   88SLPC  C312 8571   3.601   3.259   3.375 -0.3002 -0.9830  0.6718
   88SLPC  H12X 8572   3.510   3.231   3.318  0.2971  0.0654 -0.8632
   88SLPC  H12Y 8573   3.590   3.368   3.393  0.9713 -0.9653  1.4873
   88SLPC  C313 8574   3.615   3.203   3.512 -0.3722 -0.0698  0.1472
   88SLPC  H13X 8575   3.708   3.231   3.567 -0.9793  1.7357  0.3079
   88SLPC  H13Y 8576   3.613   3.092   3.505  2.1684 -0.1135 -1.4385
   88SLPC  C314 8577   3.494   3.246   3.597 -0.0725  0.4009 -0.3383
   88SLPC  H14X 8578   3.408   3.180   3.569  1.4005 -1.6709 -0.2246
   88SLPC  H14Y 8579   3.453   3.348   3.587 -2.3516 -0.4984 -0.9296
   88SLPC  C315 8580   3.519   3.228   3.749  0.3229 -0.2642  0.1345
   88SLPC  H15X 8581   3.604   3.296   3.770  0.7518 -0.3171 -1.3176
   88SLPC  H15Y 8582   3.558   3.125   3.763  1.5241  0.1912  0.2251
   88SLPC  C316 8583   3.397   3.238   3.831 -0.3778 -0.5022 -0.1963
   88SLPC  H16X 8584   3.315   3.169   3.800  0.0048 -0.6260 -0.9534
   88SLPC  H16Y 8585   3.361   3.343   3.828 -1.8944 -1.0142 -0.8123
   88SLPC  C317 8586   3.416   3.205   3.975  0.6230 -0.7495 -0.2267
   88SLPC  H17X 8587   3.521   3.237   3.988  0.1262  0.4922  0.9841
   88SLPC  H17Y 8588   3.416   3.097   4.003 -0.9865 -0.1317  2.4511
   88SLPC  C318 8589   3.319   3.285   4.063  0.6728  0.1905 -0.7266
   88SLPC  H18X 8590   3.217   3.242   4.058  0.3473  0.9798 -1.3109
   88SLPC  H18Y 8591   3.310   3.392   4.033 -2.9793  0.4431  0.7364
   88SLPC  H18Z 8592   3.346   3.280   4.170 -2.1975 -0.2359  0.0603
   89SAPE     N 8593   1.208   0.216   6.548 -0.1782 -0.2472 -0.0095
   89SAPE   HN1 8594   1.192   0.124   6.595 -0.4284  1.2227  3.0565
   89SAPE   HN2 8595   1.124   0.222   6.487 -1.8395 -0.7128  2.0949
   89SAPE   HN3 8596   1.301   0.218   6.500  0.7587 -1.1801  1.6577
   89SAPE   C12 8597   1.196   0.324   6.652  0.6173  0.9480  0.1473
   89SAPE  H12A 8598   1.256   0.295   6.740  2.0748  0.2650 -1.0326
   89SAPE  H12B 8599   1.088   0.335   6.678  0.1965 -1.0522 -0.6014
   89SAPE   C11 8600   1.243   0.462   6.596  0.2837  0.2399  0.6272
   89SAPE  H11A 8601   1.354   0.456   6.592  0.3289  1.3298 -0.2732
   89SAPE  H11B 8602   1.233   0.546   6.668 -2.7079  0.6441 -0.1433
   89SAPE     P 8603   1.049   0.584   6.468  0.0010  0.3423  0.5271
   89SAPE   O13 8604   0.936   0.487   6.494  0.2965 -0.5809 -0.0223
   89SAPE   O14 8605   1.065   0.695   6.566  0.1878 -0.0750  0.2422
   89SAPE   O12 8606   1.189   0.497   6.462  0.2109 -0.1207 -0.0965
   89SAPE   O11 8607   1.032   0.641   6.325 -0.3160 -0.3879  0.2763
   89SAPE    C1 8608   1.117   0.745   6.268  0.6031  0.6156  0.3591
   89SAPE    HA 8609   1.104   0.837   6.328  0.4883  1.0756 -0.3620
   89SAPE    HB 8610   1.220   0.704   6.272 -0.8330 -3.3208  2.1278
   89SAPE    C2 8611   1.070   0.762   6.124  0.0401 -0.3267  0.1594
   89SAPE    HS 8612   1.129   0.843   6.075 -0.4968  0.1212  0.2502
   89SAPE   O21 8613   0.935   0.811   6.122  0.6892  0.0426 -0.5104
   89SAPE   C21 8614   0.922   0.945   6.144  0.2273  0.9595  0.7365
   89SAPE   O22 8615   1.002   1.026   6.186  0.1474  0.1551 -0.6000
   89SAPE   C22 8616   0.777   0.981   6.129  0.0938  0.2263 -0.1896
   89SAPE   H2R 8617   0.716   0.889   6.140  0.6291 -0.3579 -1.7715
   89SAPE   H2S 8618   0.761   1.047   6.217 -1.3679  0.9883 -0.9981
   89SAPE    C3 8619   1.089   0.633   6.039 -0.8214 -0.5504  0.4580
   89SAPE    HX 8620   1.053   0.547   6.100  1.6214 -0.4063  2.2751
   89SAPE    HY 8621   1.200   0.630   6.052 -0.8514 -0.6053  0.7150
   89SAPE   O31 8622   1.037   0.637   5.913 -0.0910  0.2267  0.3033
   89SAPE   C31 8623   1.092   0.572   5.810 -0.1093  0.2780 -0.3048
   89SAPE   O32 8624   1.199   0.517   5.817 -0.1276  0.3321 -0.5161
   89SAPE   C32 8625   1.006   0.596   5.689 -0.1484 -0.5369 -0.1010
   89SAPE   H2X 8626   0.995   0.707   5.683  1.8505 -0.3249 -0.2569
   89SAPE   H2Y 8627   0.906   0.546   5.692  0.1307 -1.0913  0.1116
   89SAPE   C23 8628   0.749   1.073   6.011 -0.6906  0.3648  0.1136
   89SAPE   H3R 8629   0.790   1.176   6.020 -1.0746  0.5888 -0.6168
   89SAPE   H3S 8630   0.639   1.086   6.006 -0.9251 -1.5448 -0.4544
   89SAPE   C24 8631   0.797   1.005   5.885 -0.1814  0.0933  0.2121
   89SAPE   H4R 8632   0.907   0.993   5.869 -0.0953 -0.2194  0.9607
   89SAPE   H4S 8633   0.767   1.069   5.800 -0.0974  0.7971  0.7023
   89SAPE   C25 8634   0.732   0.869   5.868  0.3629 -0.5584 -0.0134
   89SAPE   H5R 8635   0.756   0.792   5.943  0.9393  1.1148  1.5980
   89SAPE   C26 8636   0.642   0.828   5.774  0.1767 -0.0385 -0.5926
   89SAPE   H6R 8637   0.596   0.729   5.784  0.7171 -0.3387 -1.0552
   89SAPE   C27 8638   0.589   0.904   5.651 -0.0816 -0.1183 -0.3409
   89SAPE   H7R 8639   0.645   0.999   5.642 -0.8986  0.5289  0.9963
   89SAPE   H7S 8640   0.479   0.916   5.663 -0.1011 -0.5624 -0.0281
   89SAPE   C28 8641   0.613   0.838   5.518 -0.1752  0.6435 -0.0522
   89SAPE   H8R 8642   0.678   0.750   5.529 -3.7112 -2.2999 -0.7802
   89SAPE   C29 8643   0.565   0.883   5.402 -0.4182  0.8673  0.1923
   89SAPE   H9R 8644   0.584   0.831   5.307 -0.2735  0.3477  0.5077
   89SAPE  C210 8645   0.463   0.989   5.374 -0.8733 -0.3302 -0.1087
   89SAPE  H10R 8646   0.494   1.034   5.277 -1.8584  3.1603  1.0560
   89SAPE  H10S 8647   0.466   1.075   5.444  3.4756 -0.6052  0.3168
   89SAPE  C211 8648   0.321   0.945   5.383 -0.1320  0.2921 -0.0869
   89SAPE  H11R 8649   0.290   0.926   5.487  1.5538  1.3072  0.6488
   89SAPE  C212 8650   0.236   0.944   5.275 -0.3964  0.1977  0.5204
   89SAPE  H12R 8651   0.132   0.910   5.285 -0.9506  1.4859 -0.6080
   89SAPE  C213 8652   0.279   0.975   5.138  0.0428  0.7162  0.4792
   89SAPE  H13R 8653   0.215   0.903   5.083  1.3292 -3.1249  3.5481
   89SAPE  H13S 8654   0.383   0.942   5.117  0.0696  1.2784 -0.3351
   89SAPE  C214 8655   0.252   1.112   5.083  0.6623  0.0856  0.2276
   89SAPE  H14R 8656   0.210   1.185   5.153 -1.1172 -0.7697  0.1044
   89SAPE  C215 8657   0.282   1.156   4.959 -0.2624  0.0185  0.2420
   89SAPE  H15R 8658   0.254   1.260   4.938 -1.2698 -0.9061 -3.7036
   89SAPE  C216 8659   0.346   1.079   4.848  0.7251  0.0137  0.9419
   89SAPE  H16R 8660   0.307   0.975   4.843 -2.4428  1.1442 -0.6285
   89SAPE  H16S 8661   0.455   1.071   4.865  0.5182  0.3012  2.5511
   89SAPE  C217 8662   0.305   1.141   4.709  0.0381  0.8621  0.3752
   89SAPE  H17R 8663   0.341   1.245   4.693 -0.2674  1.2923  2.2488
   89SAPE  H17S 8664   0.195   1.136   4.698  0.0175 -0.4605  1.0318
   89SAPE  C218 8665   0.349   1.052   4.593 -0.4577  0.9574  0.3641
   89SAPE  H18R 8666   0.336   0.945   4.620 -1.0650  1.0127  0.3098
   89SAPE  H18S 8667   0.457   1.057   4.569 -0.7902 -0.0543 -1.5299
   89SAPE  C219 8668   0.277   1.082   4.460 -0.5229  0.9618 -0.8824
   89SAPE  H19R 8669   0.168   1.076   4.483 -0.2951  1.7763  0.5346
   89SAPE  H19S 8670   0.308   1.008   4.384 -2.4319  0.3488 -1.1243
   89SAPE  C220 8671   0.317   1.213   4.410  0.0505 -0.6222 -0.4577
   89SAPE  H20R 8672   0.280   1.241   4.309 -0.5962 -2.1996 -0.6822
   89SAPE  H20S 8673   0.427   1.219   4.393  0.0267 -0.1768 -0.4583
   89SAPE  H20T 8674   0.291   1.296   4.480  0.8307 -0.2703 -0.5711
   89SAPE   C33 8675   1.075   0.554   5.564 -0.4778 -0.5848  0.4737
   89SAPE   H3X 8676   1.102   0.447   5.551 -1.0494 -0.6434 -0.3133
   89SAPE   H3Y 8677   1.174   0.602   5.550 -1.0723  0.9299  1.3216
   89SAPE   C34 8678   0.996   0.613   5.440  0.5384  0.3755  0.1641
   89SAPE   H4X 8679   1.063   0.601   5.352  0.9097 -2.2577  0.7174
   89SAPE   H4Y 8680   0.976   0.721   5.452 -1.5696 -0.2015  2.7390
   89SAPE   C35 8681   0.858   0.556   5.407 -0.1550 -0.5165 -0.1015
   89SAPE   H5X 8682   0.795   0.575   5.497 -2.7007 -2.2381 -1.3822
   89SAPE   H5Y 8683   0.877   0.447   5.397 -0.6977 -0.8249  1.8362
   89SAPE   C36 8684   0.803   0.603   5.276  0.6320 -0.0477 -0.1153
   89SAPE   H6X 8685   0.804   0.713   5.262  0.7619 -0.2831 -2.1704
   89SAPE   H6Y 8686   0.697   0.568   5.279  0.8557 -0.8605 -1.0599
   89SAPE   C37 8687   0.874   0.533   5.158  0.9286  0.2233  0.4225
   89SAPE   H7X 8688   0.881   0.425   5.183 -0.0926  0.1890  0.5835
   89SAPE   H7Y 8689   0.976   0.571   5.134  1.8577 -1.1051  2.0799
   89SAPE   C38 8690   0.794   0.545   5.022 -0.4060 -0.3674 -0.6792
   89SAPE   H8X 8691   0.777   0.654   5.006 -1.3448  0.1226  2.9283
   89SAPE   H8Y 8692   0.692   0.501   5.017 -1.1423  1.3392 -1.4163
   89SAPE   C39 8693   0.880   0.483   4.918 -0.4609 -0.1181 -0.1219
   89SAPE   H9X 8694   0.916   0.382   4.945  1.1495 -0.1702 -2.1779
   89SAPE   H9Y 8695   0.969   0.549   4.911 -0.0760 -0.4221  1.5291
   89SAPE  C310 8696   0.819   0.473   4.782  0.7585 -0.3550  0.7408
   89SAPE  H10X 8697   0.762   0.566   4.765 -1.1606 -1.3114  1.6278
   89SAPE  H10Y 8698   0.739   0.397   4.801 -0.8926  1.7237  2.5884
   89SAPE  C311 8699   0.899   0.425   4.661  0.3259 -0.0969 -0.2062
   89SAPE  H11X 8700   0.962   0.344   4.704 -0.1657 -0.0699  0.6053
   89SAPE  H11Y 8701   0.976   0.494   4.621  0.5061 -0.2695 -0.1582
   89SAPE  C312 8702   0.821   0.371   4.544 -0.1190  0.4865 -0.5302
   89SAPE  H12X 8703   0.759   0.447   4.494  0.2590  0.0838 -1.6471
   89SAPE  H12Y 8704   0.745   0.304   4.589  0.0235 -0.6339 -1.8906
   89SAPE  C313 8705   0.892   0.276   4.446 -0.0542  0.4736  0.2405
   89SAPE  H13X 8706   0.827   0.240   4.363  1.5387  0.7634 -1.1939
   89SAPE  H13Y 8707   0.934   0.193   4.506  0.7716  0.5127 -0.2595
   89SAPE  C314 8708   1.016   0.343   4.381  0.1226  0.1959  0.4009
   89SAPE  H14X 8709   1.053   0.269   4.307 -1.1005 -3.5129  3.2229
   89SAPE  H14Y 8710   1.097   0.369   4.452  1.1565 -1.4366 -0.1340
   89SAPE  C315 8711   0.976   0.472   4.304  0.2306 -0.0044 -0.4650
   89SAPE  H15X 8712   0.923   0.537   4.377 -0.6792 -2.0214  0.7847
   89SAPE  H15Y 8713   0.902   0.442   4.228  1.0912  1.1263 -1.7906
   89SAPE  C316 8714   1.086   0.528   4.219 -0.5695  0.5945 -0.1612
   89SAPE  H16X 8715   1.074   0.482   4.119 -1.1991  1.4485 -0.4884
   89SAPE  H16Y 8716   1.182   0.497   4.266  0.4436  0.3389 -2.2781
   89SAPE  C317 8717   1.092   0.685   4.199 -0.5924  0.0389  0.0401
   89SAPE  H17X 8718   1.082   0.723   4.303  1.9620 -3.3290  1.7469
   89SAPE  H17Y 8719   1.008   0.729   4.140 -3.1184 -1.5444  2.1964
   89SAPE  C318 8720   1.232   0.723   4.138  0.0487  0.2490  0.3623
   89SAPE  H18X 8721   1.237   0.833   4.146 -1.6091  0.3058  1.0901
   89SAPE  H18Y 8722   1.240   0.679   4.036 -1.4347 -1.6317  0.9875
   89SAPE  H18Z 8723   1.310   0.676   4.201  0.4942  0.4014 -0.0693
   90SAPE     N 8724   3.269   6.603   6.413  0.2072 -0.3098  0.5804
   90SAPE   HN1 8725   3.205   6.649   6.480 -0.3015 -1.7543  1.1198
   90SAPE   HN2 8726   3.315   6.518   6.452 -0.0855 -0.7008  0.0854
   90SAPE   HN3 8727   3.337   6.677   6.386  1.1789 -1.2938  0.2398
   90SAPE   C12 8728   3.206   6.565   6.282  0.3531  0.0969  0.7864
   90SAPE  H12A 8729   3.098   6.553   6.305  0.5057 -1.4512  0.7774
   90SAPE  H12B 8730   3.250   6.467   6.255  3.2089  2.0018 -2.4183
   90SAPE   C11 8731   3.225   6.676   6.184  0.2987  0.2449 -0.0782
   90SAPE  H11A 8732   3.213   6.635   6.081  1.3652  1.6241 -0.7944
   90SAPE  H11B 8733   3.333   6.702   6.172 -0.0854  2.1263  0.1596
   90SAPE     P 8734   3.076   6.877   6.103  0.3156  0.3858 -0.2485
   90SAPE   O13 8735   2.951   6.799   6.085  0.6911  0.0109  0.5237
   90SAPE   O14 8736   3.064   7.019   6.140  0.1322  0.2933 -0.6735
   90SAPE   O12 8737   3.163   6.801   6.211 -0.3951 -0.5798  0.7822
   90SAPE   O11 8738   3.168   6.877   5.970 -0.1267  0.1760  0.3399
   90SAPE    C1 8739   3.219   7.006   5.923 -0.4060 -0.6916  0.3376
   90SAPE    HA 8740   3.140   7.083   5.913 -0.7561 -1.2238 -1.2696
   90SAPE    HB 8741   3.293   7.051   5.992 -0.8594  2.8391 -1.2602
   90SAPE    C2 8742   3.269   6.988   5.780  0.3473 -0.2775  0.3231
   90SAPE    HS 8743   3.284   7.090   5.738 -0.2468 -0.4520 -0.3289
   90SAPE   O21 8744   3.174   6.923   5.690 -0.2010 -0.0717 -0.7406
   90SAPE   C21 8745   3.063   6.988   5.665  0.0158  0.3609  0.7871
   90SAPE   O22 8746   3.030   7.097   5.691  0.6411 -0.4904  0.5760
   90SAPE   C22 8747   2.979   6.892   5.582 -0.0660 -0.3808  0.3531
   90SAPE   H2R 8748   3.015   6.865   5.480  1.3199 -0.5242  0.8593
   90SAPE   H2S 8749   2.985   6.797   5.640  1.6788 -1.3541 -1.2835
   90SAPE    C3 8750   3.407   6.907   5.774  0.3263 -0.6135  0.1941
   90SAPE    HX 8751   3.387   6.801   5.800 -0.0975  0.2436  3.7540
   90SAPE    HY 8752   3.472   6.959   5.847  0.5859  0.9857 -1.1121
   90SAPE   O31 8753   3.470   6.923   5.643 -0.0337 -0.2548  0.5434
   90SAPE   C31 8754   3.545   6.820   5.594 -0.7982  0.1713 -0.1034
   90SAPE   O32 8755   3.564   6.717   5.653  0.6024  0.3737 -0.1504
   90SAPE   C32 8756   3.595   6.852   5.453  0.0146 -0.0959 -0.4074
   90SAPE   H2X 8757   3.695   6.900   5.459 -0.6189  1.1455  1.5286
   90SAPE   H2Y 8758   3.522   6.916   5.399  1.5192  1.3216 -0.8256
   90SAPE   C23 8759   2.827   6.927   5.575  0.5172  0.1625 -0.0899
   90SAPE   H3R 8760   2.816   7.023   5.520  4.7857  0.4319 -0.7890
   90SAPE   H3S 8761   2.795   6.941   5.680 -0.7050 -1.9699 -0.1268
   90SAPE   C24 8762   2.742   6.811   5.520 -0.4803 -0.0961  0.6574
   90SAPE   H4R 8763   2.768   6.712   5.562  1.1443  0.0904  0.1633
   90SAPE   H4S 8764   2.772   6.792   5.414  0.1616  1.1512  0.5951
   90SAPE   C25 8765   2.591   6.819   5.523 -0.2253 -0.7984  0.0102
   90SAPE   H5R 8766   2.547   6.797   5.621  0.4593 -1.9815  0.0725
   90SAPE   C26 8767   2.511   6.866   5.424 -0.5411  0.6280  0.0795
   90SAPE   H6R 8768   2.405   6.876   5.453 -0.7731 -0.3250 -0.3733
   90SAPE   C27 8769   2.555   6.916   5.293  0.4283 -0.1327 -0.1993
   90SAPE   H7R 8770   2.661   6.948   5.298  1.4431 -3.2622  2.8522
   90SAPE   H7S 8771   2.491   6.995   5.250 -0.4691 -2.1558 -2.8627
   90SAPE   C28 8772   2.556   6.794   5.197  0.2268 -0.4016 -0.5693
   90SAPE   H8R 8773   2.519   6.695   5.228 -3.4279  0.8425 -0.5743
   90SAPE   C29 8774   2.581   6.813   5.068 -0.9438 -0.4123 -0.5485
   90SAPE   H9R 8775   2.585   6.724   5.004  1.0638 -1.4226  0.8866
   90SAPE  C210 8776   2.616   6.940   5.000 -0.2799 -0.0154 -0.1034
   90SAPE  H10R 8777   2.538   7.013   5.032 -2.5117 -2.4936  0.4527
   90SAPE  H10S 8778   2.585   6.920   4.895 -0.0941  0.4586 -0.2522
   90SAPE  C211 8779   2.762   6.977   5.007  0.3821 -0.2007  0.4083
   90SAPE  H11R 8780   2.801   7.000   5.107  0.6779 -0.9286  0.4605
   90SAPE  C212 8781   2.858   6.965   4.912 -0.4384 -0.6297  0.6591
   90SAPE  H12R 8782   2.963   6.997   4.926 -0.4184  0.3509 -1.2986
   90SAPE  C213 8783   2.823   6.921   4.774 -0.7728 -0.7112 -0.0052
   90SAPE  H13R 8784   2.759   7.003   4.733  1.6407  1.8334  0.9413
   90SAPE  H13S 8785   2.763   6.828   4.782  0.8751 -1.8138 -0.1283
   90SAPE  C214 8786   2.935   6.898   4.677 -0.3444  0.0117 -0.0878
   90SAPE  H14R 8787   2.991   6.803   4.685  1.3677  0.9738 -0.0956
   90SAPE  C215 8788   2.974   6.983   4.581  0.2088 -0.2761  0.0811
   90SAPE  H15R 8789   3.069   6.970   4.529  0.1346  0.5819 -0.2984
   90SAPE  C216 8790   2.905   7.113   4.555  0.2912  0.3598  0.0060
   90SAPE  H16R 8791   2.931   7.179   4.640  0.7955  0.7253 -0.4198
   90SAPE  H16S 8792   2.796   7.109   4.538 -0.0955  2.1155  1.7902
   90SAPE  C217 8793   2.964   7.183   4.435 -0.1233 -0.3460  0.6253
   90SAPE  H17R 8794   2.956   7.125   4.341  0.4190  0.5892 -0.0134
   90SAPE  H17S 8795   3.071   7.197   4.459 -0.4050  0.4388  1.4779
   90SAPE  C218 8796   2.916   7.326   4.409 -0.5811 -0.3553 -0.7875
   90SAPE  H18R 8797   2.907   7.377   4.508  3.1926 -0.4823 -0.2332
   90SAPE  H18S 8798   2.817   7.325   4.359  0.6765 -1.4792 -3.4038
   90SAPE  C219 8799   3.010   7.414   4.324  0.6821  0.3604 -0.1859
   90SAPE  H19R 8800   3.017   7.363   4.225  3.5192  1.2832 -0.5501
   90SAPE  H19S 8801   3.108   7.416   4.376  0.8050  3.7059 -0.3316
   90SAPE  C220 8802   2.973   7.565   4.300 -0.1482  0.1105  0.7024
   90SAPE  H20R 8803   2.874   7.579   4.253  0.2224  1.3388  0.2303
   90SAPE  H20S 8804   3.046   7.602   4.225 -2.6980  0.1807 -1.9291
   90SAPE  H20T 8805   2.980   7.627   4.393 -1.4091 -1.6513  2.0262
   90SAPE   C33 8806   3.598   6.714   5.371  0.0464  0.7200 -0.1104
   90SAPE   H3X 8807   3.632   6.621   5.422  0.2413 -0.5895 -2.4930
   90SAPE   H3Y 8808   3.671   6.721   5.287 -0.1148  1.2825 -0.2078
   90SAPE   C34 8809   3.457   6.677   5.309  0.3508 -0.3143 -0.1714
   90SAPE   H4X 8810   3.426   6.777   5.271 -0.0228 -0.4552 -0.2421
   90SAPE   H4Y 8811   3.395   6.629   5.387 -0.8106  0.1696 -0.7628
   90SAPE   C35 8812   3.479   6.594   5.180 -0.6861 -0.2585 -0.2836
   90SAPE   H5X 8813   3.565   6.628   5.118 -0.2642 -1.9617 -0.6797
   90SAPE   H5Y 8814   3.391   6.620   5.117  0.5722  0.0106 -1.9970
   90SAPE   C36 8815   3.482   6.445   5.214  0.0045  0.3708  0.3505
   90SAPE   H6X 8816   3.378   6.426   5.249 -0.3029  0.5113 -0.4621
   90SAPE   H6Y 8817   3.549   6.429   5.301  0.5825 -2.9622 -0.5496
   90SAPE   C37 8818   3.513   6.366   5.097 -0.6077  0.9696  0.7037
   90SAPE   H7X 8819   3.589   6.418   5.035  0.3066  1.2063  1.9824
   90SAPE   H7Y 8820   3.425   6.353   5.031  0.5564 -1.3608 -0.5060
   90SAPE   C38 8821   3.571   6.227   5.132 -0.2241  0.5576  0.5474
   90SAPE   H8X 8822   3.493   6.161   5.175  1.6454 -1.7770  0.5658
   90SAPE   H8Y 8823   3.648   6.246   5.209 -1.2820 -0.2261  1.8371
   90SAPE   C39 8824   3.651   6.159   5.014 -0.0210 -0.8230  0.2526
   90SAPE   H9X 8825   3.689   6.057   5.036  0.3204 -0.9832 -1.0351
   90SAPE   H9Y 8826   3.736   6.226   4.990  1.0833 -1.5219  1.9619
   90SAPE  C310 8827   3.558   6.145   4.884  0.4130 -0.3213 -0.4392
   90SAPE  H10X 8828   3.522   6.246   4.857  1.7155  0.0059 -1.0428
   90SAPE  H10Y 8829   3.471   6.077   4.901 -0.5008  1.0323  0.5222
   90SAPE  C311 8830   3.625   6.090   4.753  0.5218 -0.5906 -0.1543
   90SAPE  H11X 8831   3.645   5.982   4.771  0.0400 -0.4267  1.4738
   90SAPE  H11Y 8832   3.724   6.138   4.736 -0.0999  1.3312  1.3578
   90SAPE  C312 8833   3.542   6.107   4.624  0.9210 -0.0013  0.0110
   90SAPE  H12X 8834   3.542   6.216   4.602 -1.8378 -0.3880 -2.6191
   90SAPE  H12Y 8835   3.435   6.080   4.640  0.9970 -0.5772 -0.3988
   90SAPE  C313 8836   3.592   6.041   4.493 -0.1673  0.1444  0.2213
   90SAPE  H13X 8837   3.524   6.069   4.410  1.0890 -0.2013 -0.9617
   90SAPE  H13Y 8838   3.592   5.931   4.511  0.7537 -0.2246 -1.7623
   90SAPE  C314 8839   3.732   6.090   4.454 -0.7375 -0.3114  0.2612
   90SAPE  H14X 8840   3.799   6.096   4.542  2.3842 -0.9755 -1.9149
   90SAPE  H14Y 8841   3.716   6.194   4.418  0.2634  0.2758  1.4510
   90SAPE  C315 8842   3.803   6.009   4.337  0.6048 -0.1549 -0.0012
   90SAPE  H15X 8843   3.823   5.905   4.372  1.6344  0.3796  1.0522
   90SAPE  H15Y 8844   3.902   6.052   4.310  0.9097 -1.4157 -0.9940
   90SAPE  C316 8845   3.722   5.992   4.203 -0.1210  0.5617  0.4512
   90SAPE  H16X 8846   3.695   6.093   4.167  2.2325  0.9921 -0.2619
   90SAPE  H16Y 8847   3.631   5.927   4.209 -0.7045  1.4299  1.2898
   90SAPE  C317 8848   3.807   5.928   4.095 -0.2770 -0.1500 -0.1419
   90SAPE  H17X 8849   3.818   5.824   4.134 -1.1494 -0.4720 -0.7225
   90SAPE  H17Y 8850   3.908   5.972   4.101 -0.0394 -0.5215 -1.1778
   90SAPE  C318 8851   3.736   5.932   3.959 -0.9705  0.2366 -0.0889
   90SAPE  H18X 8852   3.709   6.039   3.942 -0.3707  0.1760 -1.5198
   90SAPE  H18Y 8853   3.646   5.868   3.955  0.7593 -2.3472  0.0735
   90SAPE  H18Z 8854   3.809   5.898   3.884 -0.9377 -1.8784  0.8271
   91SAPE     N 8855   3.994   4.623   6.892 -0.1517 -0.0926 -0.2234
   91SAPE   HN1 8856   3.932   4.680   6.830  0.4096  2.3977  1.3392
   91SAPE   HN2 8857   3.941   4.642   6.980  0.2856 -2.7442  0.6932
   91SAPE   HN3 8858   4.084   4.676   6.892 -0.3551  0.2727  0.4786
   91SAPE   C12 8859   4.013   4.473   6.866  0.5688  0.0646 -0.3580
   91SAPE  H12A 8860   3.909   4.434   6.869  0.3626  0.5705 -0.7543
   91SAPE  H12B 8861   4.077   4.446   6.953 -1.2359 -1.5172  0.5566
   91SAPE   C11 8862   4.087   4.429   6.743 -0.4040 -0.1194 -0.2543
   91SAPE  H11A 8863   4.015   4.433   6.658  0.0543  1.2533 -0.6003
   91SAPE  H11B 8864   4.107   4.320   6.752 -0.6655 -0.3632 -2.2026
   91SAPE     P 8865   4.351   4.464   6.772  0.2262 -0.7110  0.3992
   91SAPE   O13 8866   4.445   4.575   6.732  0.1498  0.2489 -0.0737
   91SAPE   O14 8867   4.349   4.419   6.912 -0.0180  0.6191  0.2249
   91SAPE   O12 8868   4.207   4.510   6.736 -0.1962  0.3736 -0.2670
   91SAPE   O11 8869   4.382   4.340   6.679 -0.0336 -0.1327  0.4702
   91SAPE    C1 8870   4.343   4.335   6.539  0.4739 -0.9357  0.5027
   91SAPE    HA 8871   4.246   4.385   6.518  0.6844 -0.8120 -0.2039
   91SAPE    HB 8872   4.427   4.373   6.477  0.1849 -0.2096  0.5555
   91SAPE    C2 8873   4.324   4.189   6.483 -0.4558 -0.3875 -0.2806
   91SAPE    HS 8874   4.277   4.129   6.563 -2.0266 -3.1128 -3.0175
   91SAPE   O21 8875   4.445   4.123   6.444 -0.1782  0.0753 -0.0714
   91SAPE   C21 8876   4.447   3.986   6.441  0.3685 -0.5096  0.5486
   91SAPE   O22 8877   4.363   3.919   6.495  0.3007 -0.2632  0.1095
   91SAPE   C22 8878   4.570   3.942   6.362  0.3374  0.0775 -0.6350
   91SAPE   H2R 8879   4.601   4.027   6.298 -0.4674 -0.7964 -2.2302
   91SAPE   H2S 8880   4.654   3.926   6.434 -0.6358 -1.8480  0.1421
   91SAPE    C3 8881   4.220   4.191   6.367 -0.0349 -0.4827  0.3711
   91SAPE    HX 8882   4.124   4.244   6.383 -0.5266 -0.8834 -1.1614
   91SAPE    HY 8883   4.197   4.085   6.342 -2.8773  0.2872 -0.6001
   91SAPE   O31 8884   4.286   4.262   6.254  0.0667  0.2539  0.0831
   91SAPE   C31 8885   4.332   4.190   6.149  0.7786 -0.0714  0.0674
   91SAPE   O32 8886   4.348   4.071   6.156  0.2941 -0.0501 -0.3524
   91SAPE   C32 8887   4.375   4.284   6.043 -0.0256 -0.7924  0.3673
   91SAPE   H2X 8888   4.470   4.337   6.068 -0.4267  1.2748 -2.0441
   91SAPE   H2Y 8889   4.288   4.353   6.043 -1.0136 -2.0069  0.6211
   91SAPE   C23 8890   4.548   3.808   6.291  0.3995 -0.2603 -0.2648
   91SAPE   H3R 8891   4.485   3.826   6.202  0.2560 -0.0213 -0.1166
   91SAPE   H3S 8892   4.497   3.736   6.359 -0.0606 -0.9302 -1.3017
   91SAPE   C24 8893   4.672   3.743   6.235  0.0380  0.3171  0.3387
   91SAPE   H4R 8894   4.637   3.642   6.205 -1.3218  0.6072  0.8655
   91SAPE   H4S 8895   4.746   3.727   6.316  0.3309  0.5812  0.1257
   91SAPE   C25 8896   4.731   3.829   6.128 -0.0126 -0.1854 -0.1448
   91SAPE   H5R 8897   4.735   3.934   6.162  0.2671 -0.4209  0.5711
   91SAPE   C26 8898   4.770   3.789   6.001 -0.2364 -0.4129  0.0631
   91SAPE   H6R 8899   4.806   3.866   5.932 -0.0272  0.2321  0.8725
   91SAPE   C27 8900   4.766   3.648   5.956 -0.0222  0.0583  0.4235
   91SAPE   H7R 8901   4.729   3.633   5.852 -0.5770 -0.9947  0.7560
   91SAPE   H7S 8902   4.695   3.586   6.015 -0.1414 -1.2820 -1.0514
   91SAPE   C28 8903   4.901   3.592   5.956 -0.2837 -0.2937 -0.7472
   91SAPE   H8R 8904   4.948   3.597   6.055 -0.1047  2.5390 -0.9123
   91SAPE   C29 8905   4.966   3.538   5.852  0.2571 -0.1421 -0.5234
   91SAPE   H9R 8906   5.067   3.502   5.875  0.3499  1.9858  3.1562
   91SAPE  C210 8907   4.917   3.526   5.707 -0.5469  0.4665  0.5901
   91SAPE  H10R 8908   4.814   3.561   5.688 -0.4279 -0.7427 -2.8413
   91SAPE  H10S 8909   4.907   3.416   5.692 -1.8729  0.9388 -2.6059
   91SAPE  C211 8910   5.014   3.586   5.611 -0.4169 -0.0279  1.0717
   91SAPE  H11R 8911   5.026   3.695   5.619 -0.8654  0.1972 -0.7879
   91SAPE  C212 8912   5.094   3.523   5.524 -0.0053  0.6352  0.7346
   91SAPE  H12R 8913   5.151   3.583   5.452 -1.1611  0.5656 -0.2601
   91SAPE  C213 8914   5.106   3.371   5.506  0.3947  0.0016 -0.0154
   91SAPE  H13R 8915   5.100   3.342   5.399  1.6326  0.5293 -0.2432
   91SAPE  H13S 8916   5.008   3.332   5.543  0.2580  2.0133  1.9208
   91SAPE  C214 8917   5.208   3.291   5.578  0.0250 -0.3788 -0.0859
   91SAPE  H14R 8918   5.178   3.186   5.596 -0.3073 -0.0928  1.1084
   91SAPE  C215 8919   5.342   3.315   5.596  1.3186  0.2565  0.4476
   91SAPE  H15R 8920   5.402   3.233   5.637  0.9055  0.1067  0.7471
   91SAPE  C216 8921   5.419   3.436   5.551  0.1639 -0.2989 -0.2573
   91SAPE  H16R 8922   5.415   3.502   5.641  1.7697  2.0271 -1.7594
   91SAPE  H16S 8923   5.359   3.498   5.480  0.9837 -0.2117 -0.8854
   91SAPE  C217 8924   5.567   3.448   5.516  0.4440 -0.0843 -0.0106
   91SAPE  H17R 8925   5.646   3.445   5.595  0.6814  2.2471 -0.0911
   91SAPE  H17S 8926   5.578   3.552   5.480 -0.2252  0.3229  0.9374
   91SAPE  C218 8927   5.603   3.361   5.392 -0.3136  0.1376  0.2102
   91SAPE  H18R 8928   5.617   3.255   5.422  0.3330  0.0611 -0.3355
   91SAPE  H18S 8929   5.699   3.397   5.349 -0.4258 -0.8204 -0.8877
   91SAPE  C219 8930   5.489   3.358   5.280 -0.2246 -0.8149 -0.9326
   91SAPE  H19R 8931   5.471   3.464   5.253  1.2173 -1.3941 -4.8555
   91SAPE  H19S 8932   5.399   3.316   5.330  0.3544 -0.6629  0.2821
   91SAPE  C220 8933   5.528   3.273   5.160  0.4208  0.0237  0.2159
   91SAPE  H20R 8934   5.531   3.164   5.181 -0.4518 -0.1494 -0.5209
   91SAPE  H20S 8935   5.627   3.299   5.115 -0.1516  1.2173 -0.3921
   91SAPE  H20T 8936   5.452   3.281   5.080  2.3044 -1.9539 -1.9281
   91SAPE   C33 8937   4.402   4.220   5.907  0.4830 -0.8878 -0.4273
   91SAPE   H3X 8938   4.407   4.300   5.830  1.3462 -1.0735 -0.5762
   91SAPE   H3Y 8939   4.316   4.159   5.872  0.1005 -0.0778 -0.9312
   91SAPE   C34 8940   4.537   4.141   5.883  0.9266 -0.5492  0.6416
   91SAPE   H4X 8941   4.558   4.086   5.977  1.4153 -1.2953  0.1005
   91SAPE   H4Y 8942   4.620   4.214   5.873  2.2625 -2.1421 -0.4692
   91SAPE   C35 8943   4.528   4.054   5.760  0.1841 -0.1970  0.3291
   91SAPE   H5X 8944   4.453   3.978   5.792  0.7613 -0.4454  1.1083
   91SAPE   H5Y 8945   4.633   4.023   5.745  0.2662  0.9621 -1.9068
   91SAPE   C36 8946   4.475   4.118   5.636 -0.3024  0.7841  0.6730
   91SAPE   H6X 8947   4.546   4.201   5.612 -0.8127  1.1339  0.3474
   91SAPE   H6Y 8948   4.370   4.141   5.663 -0.5576  0.5332 -0.0737
   91SAPE   C37 8949   4.456   4.026   5.505  0.0788  0.0587  0.0250
   91SAPE   H7X 8950   4.371   3.957   5.523  0.0744 -0.7957 -2.7226
   91SAPE   H7Y 8951   4.548   3.967   5.487  0.0684  0.1020 -0.1767
   91SAPE   C38 8952   4.417   4.100   5.376  0.5721  0.0284  0.7513
   91SAPE   H8X 8953   4.495   4.178   5.363 -0.7057  1.3680  0.9462
   91SAPE   H8Y 8954   4.315   4.140   5.395 -0.1919 -1.0289 -0.9055
   91SAPE   C39 8955   4.421   4.004   5.249  0.6512 -0.2592 -0.0569
   91SAPE   H9X 8956   4.353   3.919   5.267  2.1337 -1.4430  0.1635
   91SAPE   H9Y 8957   4.526   3.967   5.254  0.3794 -1.1122 -0.5213
   91SAPE  C310 8958   4.393   4.085   5.117  0.3921  0.1381 -0.5631
   91SAPE  H10X 8959   4.481   4.147   5.089 -2.2278  3.6557 -1.6947
   91SAPE  H10Y 8960   4.297   4.137   5.137  0.0283 -0.6573 -0.1890
   91SAPE  C311 8961   4.374   3.995   4.988 -0.3517  0.6261 -0.3278
   91SAPE  H11X 8962   4.330   4.054   4.905 -3.3758  0.1120  0.7729
   91SAPE  H11Y 8963   4.298   3.921   5.020  0.7844 -0.9846 -1.2304
   91SAPE  C312 8964   4.511   3.938   4.957 -0.3923 -0.2119  0.0182
   91SAPE  H12X 8965   4.562   3.894   5.046  0.4958  2.1691  0.7630
   91SAPE  H12Y 8966   4.585   4.014   4.924  1.3824 -2.4802 -1.6129
   91SAPE  C313 8967   4.492   3.835   4.846 -0.1737  0.7251  0.1022
   91SAPE  H13X 8968   4.495   3.887   4.748 -1.5121  2.8540  1.1105
   91SAPE  H13Y 8969   4.401   3.772   4.860 -0.5356  0.8912 -1.3106
   91SAPE  C314 8970   4.606   3.739   4.850 -0.7722  0.2895  0.3436
   91SAPE  H14X 8971   4.601   3.666   4.933  1.6917 -2.4184 -1.6705
   91SAPE  H14Y 8972   4.704   3.792   4.854 -0.4177 -0.4122  2.6785
   91SAPE  C315 8973   4.609   3.645   4.726  0.1768 -1.0127  0.1500
   91SAPE  H15X 8974   4.612   3.722   4.646 -0.6328 -0.0663  1.0120
   91SAPE  H15Y 8975   4.507   3.600   4.724 -0.3457  0.1626 -0.8191
   91SAPE  C316 8976   4.720   3.541   4.729  0.5166  0.6949  0.1478
   91SAPE  H16X 8977   4.702   3.469   4.811  1.6856 -0.5828 -0.6719
   91SAPE  H16Y 8978   4.811   3.600   4.755  1.7975 -1.3993  0.6162
   91SAPE  C317 8979   4.751   3.470   4.599 -0.5537  0.3967  1.0180
   91SAPE  H17X 8980   4.845   3.415   4.621 -1.2069  0.4203  4.4915
   91SAPE  H17Y 8981   4.784   3.534   4.515  1.8978  0.2901  1.8220
   91SAPE  C318 8982   4.636   3.380   4.552 -0.3403 -0.2119  0.2945
   91SAPE  H18X 8983   4.654   3.315   4.464  0.0168  1.1513 -0.6729
   91SAPE  H18Y 8984   4.545   3.439   4.526 -0.3501 -0.7496 -0.9266
   91SAPE  H18Z 8985   4.606   3.311   4.633 -1.0757 -0.2016  0.0467
   92SAPE     N 8986   5.427   3.660   6.608 -0.2931  0.4922  0.2529
   92SAPE   HN1 8987   5.500   3.628   6.541 -0.8477  3.9424 -2.2247
   92SAPE   HN2 8988   5.375   3.587   6.661  1.2149 -1.7309 -1.1621
   92SAPE   HN3 8989   5.350   3.689   6.545 -0.5590  0.2158  0.4462
   92SAPE   C12 8990   5.478   3.781   6.681 -0.4873 -0.1824 -0.3345
   92SAPE  H12A 8991   5.557   3.755   6.754  2.5689 -0.6403 -3.5363
   92SAPE  H12B 8992   5.386   3.822   6.727 -0.4497  1.5225 -1.6439
   92SAPE   C11 8993   5.536   3.882   6.573  0.2778  0.6029  0.5163
   92SAPE  H11A 8994   5.574   3.970   6.630 -0.5581 -0.0342  2.1257
   92SAPE  H11B 8995   5.448   3.905   6.509 -2.5591 -2.2710  3.0209
   92SAPE     P 8996   5.749   3.899   6.440  0.0270  0.2444  0.0287
   92SAPE   O13 8997   5.788   4.005   6.535  0.2878 -0.0671 -0.2558
   92SAPE   O14 8998   5.861   3.804   6.401 -0.6521 -0.1053  0.1778
   92SAPE   O12 8999   5.634   3.813   6.494 -0.0384  0.4748 -0.4264
   92SAPE   O11 9000   5.685   3.956   6.311  0.1231 -0.5112  0.0320
   92SAPE    C1 9001   5.753   3.949   6.187  0.3075  0.3342  0.1327
   92SAPE    HA 9002   5.738   4.033   6.116  2.0723  0.4740 -0.1330
   92SAPE    HB 9003   5.863   3.940   6.203  0.2476  1.1673  1.0405
   92SAPE    C2 9004   5.703   3.817   6.112 -0.0242  0.0339  0.8887
   92SAPE    HS 9005   5.753   3.727   6.153  0.6173  0.7572  1.7237
   92SAPE   O21 9006   5.730   3.840   5.973 -0.3242  0.0720 -0.4351
   92SAPE   C21 9007   5.852   3.817   5.925 -0.2768 -0.2376 -0.3899
   92SAPE   O22 9008   5.945   3.776   5.993  0.2941 -0.0946 -0.5926
   92SAPE   C22 9009   5.856   3.848   5.778 -1.0151  0.3226  0.0729
   92SAPE   H2R 9010   5.814   3.947   5.753 -2.1882 -0.0891  0.3571
   92SAPE   H2S 9011   5.964   3.854   5.752 -1.2647  0.1443 -1.0568
   92SAPE    C3 9012   5.552   3.782   6.137  0.3255 -0.0326 -0.3443
   92SAPE    HX 9013   5.486   3.870   6.121  0.0016 -0.3599 -0.8199
   92SAPE    HY 9014   5.542   3.751   6.243  1.7351  1.5143  0.2970
   92SAPE   O31 9015   5.511   3.680   6.044  0.3274  0.2336 -0.1845
   92SAPE   C31 9016   5.534   3.559   6.088 -0.5237  0.1165  0.2471
   92SAPE   O32 9017   5.569   3.524   6.202 -0.2646  1.1641  0.3304
   92SAPE   C32 9018   5.531   3.456   5.983  0.2891 -0.3712  1.4203
   92SAPE   H2X 9019   5.436   3.470   5.928  2.3108  1.9919 -1.8406
   92SAPE   H2Y 9020   5.536   3.357   6.034  0.9109 -0.0379  2.0246
   92SAPE   C23 9021   5.801   3.742   5.685  0.4043  0.7918  0.0663
   92SAPE   H3R 9022   5.691   3.733   5.701  0.4175 -0.4058 -0.3708
   92SAPE   H3S 9023   5.838   3.638   5.696  0.9258  1.1714  2.1874
   92SAPE   C24 9024   5.831   3.775   5.537  0.1652  0.1840 -0.8802
   92SAPE   H4R 9025   5.825   3.886   5.541  0.5326  0.1897 -0.1728
   92SAPE   H4S 9026   5.751   3.735   5.472  1.1021 -1.5532 -1.0155
   92SAPE   C25 9027   5.966   3.740   5.477  0.3876 -0.3326  0.1945
   92SAPE   H5R 9028   6.042   3.738   5.557  1.2339  0.5963 -0.5655
   92SAPE   C26 9029   5.991   3.708   5.349  0.4693  0.5558  0.9677
   92SAPE   H6R 9030   6.097   3.701   5.321  0.5648 -1.5963  1.6868
   92SAPE   C27 9031   5.887   3.723   5.236  0.8432  0.5261 -0.0068
   92SAPE   H7R 9032   5.921   3.813   5.180  1.6533 -0.8837 -1.8967
   92SAPE   H7S 9033   5.790   3.742   5.287  1.3263 -1.4400  1.7269
   92SAPE   C28 9034   5.877   3.594   5.163 -0.0627 -0.2771  0.8559
   92SAPE   H8R 9035   5.910   3.502   5.213 -1.8217 -1.9650 -0.9672
   92SAPE   C29 9036   5.807   3.585   5.047  0.6492  0.2047  0.2888
   92SAPE   H9R 9037   5.809   3.487   4.996  1.7545  0.5062 -0.2906
   92SAPE  C210 9038   5.741   3.701   4.972  0.7149 -0.3061  0.4058
   92SAPE  H10R 9039   5.830   3.759   4.942  0.4987  1.1185  2.3202
   92SAPE  H10S 9040   5.682   3.763   5.042 -0.4154 -0.7399 -0.1321
   92SAPE  C211 9041   5.666   3.655   4.847 -0.0031 -0.0023  0.4007
   92SAPE  H11R 9042   5.717   3.662   4.750 -0.6418  0.6254  0.1019
   92SAPE  C212 9043   5.534   3.615   4.842  0.0276  0.2396  0.3921
   92SAPE  H12R 9044   5.496   3.578   4.746  0.3064 -1.8001  1.0058
   92SAPE  C213 9045   5.441   3.588   4.958  1.0531 -0.2628 -0.1731
   92SAPE  H13R 9046   5.499   3.543   5.041 -1.2453 -0.1067  1.6493
   92SAPE  H13S 9047   5.361   3.517   4.928  0.0417  0.2788  1.0971
   92SAPE  C214 9048   5.384   3.721   5.010 -0.4669 -0.0997  0.0146
   92SAPE  H14R 9049   5.440   3.810   4.979  0.6845  0.3358  3.0848
   92SAPE  C215 9050   5.282   3.743   5.092  1.0570 -0.2772 -0.3458
   92SAPE  H15R 9051   5.243   3.841   5.124 -1.5074 -1.4713  0.5256
   92SAPE  C216 9052   5.189   3.621   5.129 -0.3196  0.4825 -0.0807
   92SAPE  H16R 9053   5.225   3.575   5.224 -1.4106  0.9865  0.6060
   92SAPE  H16S 9054   5.198   3.540   5.054 -1.3605 -0.9488  1.2778
   92SAPE  C217 9055   5.045   3.667   5.139 -0.3607  0.0240  0.5095
   92SAPE  H17R 9056   5.029   3.730   5.048  0.5869 -0.7061 -0.1835
   92SAPE  H17S 9057   5.038   3.739   5.223 -1.8679  2.3889 -1.4756
   92SAPE  C218 9058   4.940   3.558   5.148 -0.1631 -0.7477  0.1944
   92SAPE  H18R 9059   4.951   3.503   5.244  1.0479 -0.5018  0.1992
   92SAPE  H18S 9060   4.951   3.480   5.069  1.1053 -1.3794  0.9539
   92SAPE  C219 9061   4.797   3.612   5.139 -0.2724  0.4196  0.8204
   92SAPE  H19R 9062   4.733   3.525   5.116  0.6997 -0.9811  3.0420
   92SAPE  H19S 9063   4.795   3.684   5.054  0.6447 -0.2023  0.2459
   92SAPE  C220 9064   4.748   3.680   5.266  0.2070 -0.6495  0.1535
   92SAPE  H20R 9065   4.721   3.604   5.343 -0.0675  0.6517  1.3702
   92SAPE  H20S 9066   4.652   3.728   5.240  0.1465 -1.1084 -0.5298
   92SAPE  H20T 9067   4.822   3.756   5.298 -0.3902  0.3996 -0.8845
   92SAPE   C33 9068   5.663   3.470   5.903  0.0207  0.5025  0.0094
   92SAPE   H3X 9069   5.692   3.570   5.864  0.6823  0.7933  1.2165
   92SAPE   H3Y 9070   5.631   3.421   5.808 -2.4505 -2.8701  2.3363
   92SAPE   C34 9071   5.783   3.385   5.954  0.4278  0.0268 -0.3490
   92SAPE   H4X 9072   5.751   3.280   5.970 -0.7348  0.5094  0.6602
   92SAPE   H4Y 9073   5.814   3.429   6.051  1.1289  1.0637 -1.0150
   92SAPE   C35 9074   5.905   3.383   5.865  0.5460 -0.7186  0.1947
   92SAPE   H5X 9075   5.985   3.317   5.903  0.8583 -1.0532 -1.0127
   92SAPE   H5Y 9076   5.953   3.482   5.849  0.7714 -0.8683 -0.0545
   92SAPE   C36 9077   5.871   3.331   5.725 -0.2980  0.1507 -0.0517
   92SAPE   H6X 9078   5.824   3.418   5.674  0.9730  1.1171  0.3627
   92SAPE   H6Y 9079   5.804   3.243   5.738  1.4900 -1.2360  0.2538
   92SAPE   C37 9080   5.985   3.286   5.635  0.2512 -0.0335  0.0264
   92SAPE   H7X 9081   6.023   3.186   5.666  0.3181 -0.3875 -1.1152
   92SAPE   H7Y 9082   6.071   3.357   5.641  0.0092  0.5536 -2.3349
   92SAPE   C38 9083   5.937   3.256   5.497 -0.3502 -0.3166  0.5333
   92SAPE   H8X 9084   5.914   3.354   5.450 -0.7882 -0.7609 -0.2097
   92SAPE   H8Y 9085   5.842   3.201   5.511 -0.4065 -0.2759  0.3210
   92SAPE   C39 9086   6.041   3.174   5.411  0.3174 -0.0898  0.0529
   92SAPE   H9X 9087   6.066   3.077   5.459  2.1727 -0.9141 -2.3537
   92SAPE   H9Y 9088   6.132   3.237   5.415 -0.3809  0.8872  0.7363
   92SAPE  C310 9089   5.983   3.137   5.263 -0.0785 -0.0610 -0.5105
   92SAPE  H10X 9090   5.962   3.230   5.206 -0.4624  1.6213  2.2036
   92SAPE  H10Y 9091   5.883   3.088   5.268  0.2311 -1.1039 -2.9040
   92SAPE  C311 9092   6.066   3.040   5.177  0.1166 -0.2519 -0.1375
   92SAPE  H11X 9093   6.083   2.947   5.236  1.2080 -0.2056 -0.3643
   92SAPE  H11Y 9094   6.170   3.075   5.160  0.4352 -1.1402 -0.0412
   92SAPE  C312 9095   5.995   2.997   5.053  0.3788 -0.7886 -0.6555
   92SAPE  H12X 9096   5.989   3.078   4.978 -0.8526  0.1056  0.3604
   92SAPE  H12Y 9097   5.894   2.969   5.091 -0.0664 -0.6266 -1.6960
   92SAPE  C313 9098   6.058   2.875   4.980  0.1415  0.5403 -0.6488
   92SAPE  H13X 9099   6.067   2.787   5.047 -0.9509  0.9610  0.0923
   92SAPE  H13Y 9100   6.167   2.891   4.970  0.4599  1.9867  3.1770
   92SAPE  C314 9101   5.978   2.824   4.855  0.1984 -0.4705  0.0487
   92SAPE  H14X 9102   5.956   2.917   4.797 -2.8324 -0.8639  0.4099
   92SAPE  H14Y 9103   5.882   2.783   4.894  0.0674  0.3187  0.5912
   92SAPE  C315 9104   6.059   2.724   4.763  0.0117  0.0635 -0.0130
   92SAPE  H15X 9105   5.998   2.636   4.734 -0.4217  0.2914  0.1875
   92SAPE  H15Y 9106   6.147   2.671   4.804  1.3644  0.7336 -1.9328
   92SAPE  C316 9107   6.099   2.798   4.635  0.1463 -0.2512  0.2498
   92SAPE  H16X 9108   6.160   2.888   4.657  0.3391 -0.3749  0.2199
   92SAPE  H16Y 9109   6.006   2.834   4.586  0.4855 -2.0218 -1.8100
   92SAPE  C317 9110   6.157   2.717   4.514 -0.1416  0.3294  0.1193
   92SAPE  H17X 9111   6.259   2.683   4.541 -0.7302 -2.0881 -0.3957
   92SAPE  H17Y 9112   6.179   2.785   4.429  0.4054 -0.6021 -0.5119
   92SAPE  C318 9113   6.074   2.588   4.474  1.0972 -0.7290 -0.0853
   92SAPE  H18X 9114   5.985   2.625   4.419  0.8217 -2.6920 -1.0397
   92SAPE  H18Y 9115   6.049   2.522   4.559  0.0181  1.3234  1.2952
   92SAPE  H18Z 9116   6.130   2.533   4.396  0.3564  0.1150 -1.2492
   93SAPE     N 9117   3.864   0.552   6.397 -0.8476 -0.1697  0.4940
   93SAPE   HN1 9118   3.950   0.522   6.448 -0.0127  0.0604 -0.7202
   93SAPE   HN2 9119   3.806   0.589   6.475 -1.1246 -0.1250  0.2671
   93SAPE   HN3 9120   3.817   0.465   6.367 -0.0994 -1.5724  3.0731
   93SAPE   C12 9121   3.879   0.652   6.282  0.0928 -0.1035 -0.1084
   93SAPE  H12A 9122   3.970   0.626   6.224 -0.9632  0.7383 -2.2550
   93SAPE  H12B 9123   3.894   0.748   6.335  0.3667 -0.8809  1.2767
   93SAPE   C11 9124   3.754   0.631   6.195  0.8424 -0.5162  0.1330
   93SAPE  H11A 9125   3.770   0.535   6.142  0.4841 -1.1109  1.0649
   93SAPE  H11B 9126   3.756   0.706   6.113  0.8204 -0.8640 -0.1834
   93SAPE     P 9127   3.541   0.749   6.297 -0.3067 -0.0089 -0.1630
   93SAPE   O13 9128   3.410   0.707   6.357 -0.2924 -0.2973 -0.7770
   93SAPE   O14 9129   3.621   0.838   6.383  0.2657  0.1951 -0.7960
   93SAPE   O12 9130   3.632   0.620   6.263  0.1868 -0.2297 -0.3487
   93SAPE   O11 9131   3.528   0.823   6.160 -0.2953  0.0850 -0.0794
   93SAPE    C1 9132   3.403   0.793   6.084 -0.4481  0.0702 -0.0749
   93SAPE    HA 9133   3.311   0.813   6.143 -0.1249  0.0768  0.4292
   93SAPE    HB 9134   3.385   0.871   6.007  0.2139  0.8561  0.5462
   93SAPE    C2 9135   3.394   0.661   6.006  0.4304 -0.3097  0.4799
   93SAPE    HS 9136   3.367   0.584   6.082  1.1619 -0.6140  0.4386
   93SAPE   O21 9137   3.526   0.631   5.957 -0.4188 -0.6672 -0.1410
   93SAPE   C21 9138   3.546   0.503   5.929  0.0622 -0.9897 -0.0653
   93SAPE   O22 9139   3.466   0.412   5.933  0.0248  0.7834 -0.2567
   93SAPE   C22 9140   3.685   0.492   5.863  0.9281 -0.0907 -0.8577
   93SAPE   H2R 9141   3.695   0.571   5.785  3.9922  1.4435  0.9412
   93SAPE   H2S 9142   3.765   0.529   5.930 -0.5988 -0.6236  1.3593
   93SAPE    C3 9143   3.286   0.669   5.895 -0.0509  0.7946  0.5777
   93SAPE    HX 9144   3.184   0.682   5.938 -0.2867  1.7226 -0.2216
   93SAPE    HY 9145   3.268   0.571   5.846 -2.1564  0.1580  2.4406
   93SAPE   O31 9146   3.297   0.776   5.791 -0.4975 -0.6365 -0.0055
   93SAPE   C31 9147   3.390   0.762   5.701  0.0825  0.4321  0.8095
   93SAPE   O32 9148   3.457   0.661   5.677 -0.2504  0.3662  0.0379
   93SAPE   C32 9149   3.404   0.898   5.627 -0.2486  0.3901  0.7724
   93SAPE   H2X 9150   3.441   0.977   5.695 -3.2114  2.1559  0.5163
   93SAPE   H2Y 9151   3.310   0.934   5.578  0.4256  3.6029  1.6331
   93SAPE   C23 9152   3.721   0.352   5.812 -0.4327  0.3335  0.5123
   93SAPE   H3R 9153   3.645   0.322   5.737 -0.3909  1.2032  0.1090
   93SAPE   H3S 9154   3.716   0.265   5.881 -3.8480  0.5722  0.7170
   93SAPE   C24 9155   3.861   0.366   5.750 -0.3178 -0.0784  0.2397
   93SAPE   H4R 9156   3.859   0.456   5.685  0.9823 -0.6002 -0.5559
   93SAPE   H4S 9157   3.879   0.284   5.677  1.3218  0.9672 -0.6042
   93SAPE   C25 9158   3.964   0.360   5.855 -0.1500 -0.3427 -0.7600
   93SAPE   H5R 9159   3.968   0.258   5.895 -1.1514  0.0689  0.4708
   93SAPE   C26 9160   4.047   0.458   5.889  0.7355  0.2713  0.2679
   93SAPE   H6R 9161   4.110   0.438   5.977  0.4430 -0.9941  0.2125
   93SAPE   C27 9162   4.049   0.593   5.828  0.0265  1.2312 -0.4206
   93SAPE   H7R 9163   3.947   0.621   5.794 -0.4944 -0.5876 -0.4680
   93SAPE   H7S 9164   4.100   0.590   5.729 -0.4676  0.8050 -0.6636
   93SAPE   C28 9165   4.107   0.699   5.914 -0.5322  0.2704  0.1734
   93SAPE   H8R 9166   4.150   0.663   6.009 -1.9667 -1.2827  0.2863
   93SAPE   C29 9167   4.113   0.835   5.900  0.5543  0.1069  0.2176
   93SAPE   H9R 9168   4.164   0.896   5.977  0.3259 -0.1988  0.6154
   93SAPE  C210 9169   4.056   0.912   5.780  0.1586 -0.3183 -0.3651
   93SAPE  H10R 9170   3.946   0.912   5.773  0.1490 -3.3261 -2.0222
   93SAPE  H10S 9171   4.084   0.870   5.681  0.1336  0.3377 -0.6566
   93SAPE  C211 9172   4.108   1.054   5.772 -0.2002 -0.3383 -0.3183
   93SAPE  H11R 9173   4.214   1.063   5.743  0.0307 -0.1683  0.5527
   93SAPE  C212 9174   4.044   1.169   5.787  0.5400 -0.1715  0.7732
   93SAPE  H12R 9175   4.089   1.265   5.755 -2.0864  1.8382  2.5919
   93SAPE  C213 9176   3.904   1.196   5.841 -0.5764  0.0609  0.6612
   93SAPE  H13R 9177   3.910   1.293   5.895 -1.4448  1.6592 -1.9604
   93SAPE  H13S 9178   3.872   1.113   5.908  0.9731  0.2377  1.6708
   93SAPE  C214 9179   3.800   1.211   5.742 -0.7289  0.3745 -0.5557
   93SAPE  H14R 9180   3.749   1.117   5.719  0.6687  0.1517 -3.1317
   93SAPE  C215 9181   3.757   1.323   5.686 -0.7162  0.0658  0.0967
   93SAPE  H15R 9182   3.685   1.320   5.603  1.0081  3.5704 -1.7501
   93SAPE  C216 9183   3.816   1.461   5.696  0.0468  0.4894  0.1784
   93SAPE  H16R 9184   3.867   1.484   5.793  1.4147  1.3706 -0.7112
   93SAPE  H16S 9185   3.743   1.543   5.684 -0.1904  0.0946 -1.1879
   93SAPE  C217 9186   3.924   1.477   5.587 -0.0964 -0.0843 -0.3952
   93SAPE  H17R 9187   3.998   1.394   5.581  1.0396  0.9438 -0.8380
   93SAPE  H17S 9188   3.980   1.568   5.616 -0.2271 -0.5762  1.5357
   93SAPE  C218 9189   3.869   1.491   5.439 -0.3714 -0.2914  0.2619
   93SAPE  H18R 9190   3.807   1.582   5.423 -0.4547 -0.4493 -0.3646
   93SAPE  H18S 9191   3.804   1.402   5.423 -0.0961 -0.7000  1.3801
   93SAPE  C219 9192   3.982   1.487   5.330  0.2259 -0.4275  0.1631
   93SAPE  H19R 9193   4.017   1.382   5.337  0.8665 -0.4285 -2.2324
   93SAPE  H19S 9194   4.065   1.557   5.354 -0.6118 -0.1008  2.3727
   93SAPE  C220 9195   3.942   1.508   5.186 -0.0330  0.0819  0.3121
   93SAPE  H20R 9196   4.025   1.494   5.114  1.0339 -2.6283  1.9237
   93SAPE  H20S 9197   3.895   1.608   5.175  0.6909  0.3682 -0.2351
   93SAPE  H20T 9198   3.865   1.433   5.158 -1.2139  0.3103  2.6999
   93SAPE   C33 9199   3.507   0.890   5.514  0.2663 -0.0964  0.5297
   93SAPE   H3X 9200   3.509   0.993   5.471  0.6595 -0.2805  0.0881
   93SAPE   H3Y 9201   3.468   0.816   5.441 -1.9331  0.6937  0.8287
   93SAPE   C34 9202   3.653   0.866   5.563 -0.5167 -0.8012 -0.2423
   93SAPE   H4X 9203   3.667   0.762   5.599  1.8658  0.0541  1.6027
   93SAPE   H4Y 9204   3.665   0.927   5.655 -1.9000 -2.4737  1.1072
   93SAPE   C35 9205   3.754   0.900   5.455 -0.3199  0.1394  0.1287
   93SAPE   H5X 9206   3.734   1.003   5.417  0.1846 -0.7008 -2.6874
   93SAPE   H5Y 9207   3.727   0.826   5.376  0.4260 -1.5242  1.3705
   93SAPE   C36 9208   3.901   0.878   5.491 -0.1624 -0.3262  0.2609
   93SAPE   H6X 9209   3.922   0.779   5.536 -1.3140 -1.9157 -2.4596
   93SAPE   H6Y 9210   3.927   0.960   5.561 -0.1102  0.1418 -0.2975
   93SAPE   C37 9211   3.994   0.896   5.361 -0.3050  0.8655 -0.0263
   93SAPE   H7X 9212   3.961   0.819   5.288  1.7863 -1.1277  1.0057
   93SAPE   H7Y 9213   4.099   0.865   5.380 -0.3609  0.7259  0.0569
   93SAPE   C38 9214   3.995   1.035   5.307 -0.3531  1.1580  0.6338
   93SAPE   H8X 9215   4.027   1.108   5.383  1.1520  1.3969 -0.1799
   93SAPE   H8Y 9216   3.889   1.050   5.279 -1.0393 -3.8376 -0.4515
   93SAPE   C39 9217   4.089   1.055   5.181  0.6318 -0.0660  0.2433
   93SAPE   H9X 9218   4.067   0.961   5.125  0.4205  0.2177 -0.1535
   93SAPE   H9Y 9219   4.199   1.040   5.186  0.7974  0.0507 -1.9253
   93SAPE  C310 9220   4.064   1.169   5.079 -0.2878  0.0401  0.1127
   93SAPE  H10X 9221   4.118   1.257   5.121  1.1403 -0.8651  0.2391
   93SAPE  H10Y 9222   3.957   1.199   5.088 -0.5697 -1.1332  0.9157
   93SAPE  C311 9223   4.102   1.131   4.929 -0.5460 -0.6192 -0.4602
   93SAPE  H11X 9224   4.061   1.030   4.909 -0.7138 -0.8327  0.8490
   93SAPE  H11Y 9225   4.213   1.140   4.936 -0.7556  3.1664  0.5169
   93SAPE  C312 9226   4.044   1.226   4.819  0.1727  0.7255 -1.2467
   93SAPE  H12X 9227   3.943   1.248   4.860  1.1901  2.8656  0.2563
   93SAPE  H12Y 9228   4.043   1.168   4.724  1.0523 -0.4851 -0.5429
   93SAPE  C313 9229   4.119   1.358   4.787  0.2666 -0.2697  0.0446
   93SAPE  H13X 9230   4.225   1.344   4.757 -0.5132 -1.2582 -2.4297
   93SAPE  H13Y 9231   4.113   1.402   4.890 -0.8240 -2.2225  0.8708
   93SAPE  C314 9232   4.039   1.437   4.685 -0.3145 -0.2495  0.2956
   93SAPE  H14X 9233   4.066   1.544   4.673  2.7079 -0.6545  2.3228
   93SAPE  H14Y 9234   3.933   1.417   4.708 -0.3909 -2.5363 -1.7008
   93SAPE  C315 9235   4.068   1.395   4.542 -0.2305  0.1178 -0.9091
   93SAPE  H15X 9236   4.075   1.285   4.532 -0.7637  0.0505 -0.5760
   93SAPE  H15Y 9237   4.171   1.431   4.520 -0.1791  1.9680  1.8321
   93SAPE  C316 9238   3.966   1.453   4.440  0.4749 -0.8384 -0.3741
   93SAPE  H16X 9239   3.941   1.558   4.467  2.1418 -0.4930 -0.0693
   93SAPE  H16Y 9240   3.878   1.387   4.455  0.0167 -0.1182  0.1281
   93SAPE  C317 9241   4.010   1.450   4.295 -0.4664 -0.0396  0.3253
   93SAPE  H17X 9242   4.078   1.538   4.290 -0.4498  0.0575  1.9352
   93SAPE  H17Y 9243   3.914   1.461   4.242 -0.5039  0.3468  0.4722
   93SAPE  C318 9244   4.068   1.324   4.240  0.1287 -0.4397 -0.3364
   93SAPE  H18X 9245   4.002   1.237   4.262 -0.4154  0.1434  0.3661
   93SAPE  H18Y 9246   4.168   1.308   4.285  0.2794 -0.8436 -0.8000
   93SAPE  H18Z 9247   4.086   1.338   4.131  1.0280  0.8903 -0.0392
   94SAPE     N 9248   1.089   3.077   6.740 -0.4503 -0.0401 -0.1497
   94SAPE   HN1 9249   1.024   3.011   6.788 -0.0982  0.0060  0.4081
   94SAPE   HN2 9250   1.187   3.046   6.758  0.0295  1.5315  0.0493
   94SAPE   HN3 9251   1.083   3.158   6.805  0.0133 -0.5337  0.5312
   94SAPE   C12 9252   1.068   3.101   6.589 -0.3715  0.1163  0.8951
   94SAPE  H12A 9253   0.960   3.102   6.563  0.4759  0.3019 -3.4184
   94SAPE  H12B 9254   1.103   3.014   6.530 -2.9599 -1.0832  1.0070
   94SAPE   C11 9255   1.130   3.231   6.541 -0.1892  0.2683  0.0573
   94SAPE  H11A 9256   1.079   3.321   6.583 -0.0490  0.1218  0.5544
   94SAPE  H11B 9257   1.116   3.236   6.431 -1.0289  0.2030  0.1530
   94SAPE     P 9258   1.378   3.337   6.538 -0.3340 -0.1093  0.3656
   94SAPE   O13 9259   1.407   3.424   6.654 -0.1109 -0.1904 -0.2567
   94SAPE   O14 9260   1.491   3.254   6.479  0.2119  0.1715 -0.8271
   94SAPE   O12 9261   1.268   3.234   6.584 -0.0138  0.8436  0.5301
   94SAPE   O11 9262   1.311   3.417   6.417  0.2732 -0.4213  0.2509
   94SAPE    C1 9263   1.354   3.551   6.400  0.1122 -0.9334  0.0138
   94SAPE    HA 9264   1.273   3.621   6.432 -0.2491 -1.6745  0.7418
   94SAPE    HB 9265   1.449   3.572   6.453 -0.7231 -1.0827  1.6231
   94SAPE    C2 9266   1.374   3.568   6.249 -0.1901 -0.8026 -0.2080
   94SAPE    HS 9267   1.382   3.676   6.225  1.2527 -0.9198 -0.3333
   94SAPE   O21 9268   1.265   3.513   6.163 -0.4283 -0.0981  0.7991
   94SAPE   C21 9269   1.145   3.564   6.170 -0.0769 -0.0799  0.1395
   94SAPE   O22 9270   1.109   3.656   6.238 -0.1648 -0.5884 -0.5234
   94SAPE   C22 9271   1.052   3.488   6.077  0.2131 -0.0974  0.1245
   94SAPE   H2R 9272   1.035   3.386   6.120  1.4804 -1.6457 -2.7637
   94SAPE   H2S 9273   0.959   3.549   6.070  1.8599  2.5843  0.5620
   94SAPE    C3 9274   1.510   3.497   6.210 -0.1868 -0.2160 -0.5604
   94SAPE    HX 9275   1.511   3.389   6.234 -1.0740 -0.1628 -0.2474
   94SAPE    HY 9276   1.591   3.545   6.269  1.1585 -1.7447 -1.0892
   94SAPE   O31 9277   1.544   3.516   6.076  0.0872 -0.1989 -0.3397
   94SAPE   C31 9278   1.623   3.424   6.016  0.6254 -0.7357  0.0466
   94SAPE   O32 9279   1.676   3.332   6.074 -0.0810 -0.1027 -0.0191
   94SAPE   C32 9280   1.632   3.468   5.871 -0.1391  0.4182  0.6906
   94SAPE   H2X 9281   1.730   3.438   5.828 -1.0556  1.4093 -2.3379
   94SAPE   H2Y 9282   1.633   3.579   5.875  0.8438  0.3791  1.9550
   94SAPE   C23 9283   1.115   3.471   5.938  0.4667 -0.3430 -0.2649
   94SAPE   H3R 9284   1.043   3.424   5.867  0.0645 -0.0019 -0.0893
   94SAPE   H3S 9285   1.201   3.401   5.944 -0.7621 -1.8652  0.6036
   94SAPE   C24 9286   1.151   3.602   5.872  0.5004  0.2427 -0.1745
   94SAPE   H4R 9287   1.213   3.587   5.781 -1.2367  0.6123 -1.4592
   94SAPE   H4S 9288   1.218   3.660   5.940 -0.0730 -0.8597  1.4063
   94SAPE   C25 9289   1.033   3.684   5.832 -0.6007 -0.3524 -0.5745
   94SAPE   H5R 9290   0.985   3.754   5.903  1.6073 -0.7904  1.4899
   94SAPE   C26 9291   0.969   3.679   5.713 -0.0194 -0.0152 -0.0005
   94SAPE   H6R 9292   0.884   3.747   5.703  0.6973  0.8548 -0.2664
   94SAPE   C27 9293   1.004   3.581   5.599  0.2378  0.2907  0.2565
   94SAPE   H7R 9294   0.913   3.558   5.539 -1.8086  1.1590  2.8618
   94SAPE   H7S 9295   1.028   3.479   5.637 -0.4018  0.9233  2.4928
   94SAPE   C28 9296   1.115   3.636   5.515 -0.9682 -0.2674 -0.7000
   94SAPE   H8R 9297   1.185   3.703   5.569  0.0752 -0.8385 -1.3104
   94SAPE   C29 9298   1.136   3.623   5.385  1.0211  0.0883  0.4142
   94SAPE   H9R 9299   1.225   3.664   5.336 -0.0220 -0.2286 -1.8860
   94SAPE  C210 9300   1.047   3.524   5.300  0.4132  0.0919  0.1848
   94SAPE  H10R 9301   0.959   3.574   5.252  1.5675  0.2873 -1.8351
   94SAPE  H10S 9302   1.014   3.442   5.366 -0.3703  0.5319  0.3590
   94SAPE  C211 9303   1.116   3.464   5.190 -1.0838  0.4074 -0.0245
   94SAPE  H11R 9304   1.152   3.362   5.210 -1.2781  0.2911 -0.2618
   94SAPE  C212 9305   1.125   3.510   5.062  0.4103  0.1746  0.0213
   94SAPE  H12R 9306   1.188   3.462   4.986 -0.7170 -2.0930  0.4015
   94SAPE  C213 9307   1.066   3.643   5.015  0.2797 -0.4947  0.2843
   94SAPE  H13R 9308   1.079   3.717   5.097  0.2329 -0.4631  0.2634
   94SAPE  H13S 9309   0.955   3.640   5.009  0.2135  0.3846  0.8422
   94SAPE  C214 9310   1.114   3.703   4.887 -0.1493 -0.2074  0.4403
   94SAPE  H14R 9311   1.180   3.792   4.891  1.9069 -1.7023  2.7677
   94SAPE  C215 9312   1.092   3.650   4.764 -0.7620  0.0832 -0.2557
   94SAPE  H15R 9313   1.145   3.711   4.689  0.9171 -0.4130  0.4959
   94SAPE  C216 9314   0.989   3.548   4.711  0.1583  0.7237 -0.2987
   94SAPE  H16R 9315   0.958   3.469   4.783 -2.2858  1.5414 -0.3546
   94SAPE  H16S 9316   1.020   3.489   4.623 -0.0089  1.4481 -0.8502
   94SAPE  C217 9317   0.852   3.625   4.683 -0.0929  0.4674 -0.4403
   94SAPE  H17R 9318   0.817   3.681   4.773 -0.9755 -1.0372  0.1841
   94SAPE  H17S 9319   0.778   3.542   4.675  0.4135 -0.1866  1.2195
   94SAPE  C218 9320   0.851   3.694   4.549  0.2068  0.0808 -0.2413
   94SAPE  H18R 9321   0.934   3.640   4.499 -0.6751 -2.5212  0.9264
   94SAPE  H18S 9322   0.878   3.802   4.553 -0.0757  0.1924 -1.2128
   94SAPE  C219 9323   0.726   3.669   4.470  0.3830  0.3059  0.6917
   94SAPE  H19R 9324   0.707   3.560   4.462  1.2173  0.2462 -0.7065
   94SAPE  H19S 9325   0.747   3.695   4.364 -0.9169  0.4916  0.4689
   94SAPE  C220 9326   0.593   3.743   4.507 -0.5840  0.3169 -0.1308
   94SAPE  H20R 9327   0.566   3.706   4.608  0.5726 -2.3318 -0.7178
   94SAPE  H20S 9328   0.516   3.730   4.429  0.3612 -2.7113 -0.6892
   94SAPE  H20T 9329   0.622   3.850   4.521  0.0497 -0.0574  1.6594
   94SAPE   C33 9330   1.517   3.424   5.777  0.0563  1.0074  0.3227
   94SAPE   H3X 9331   1.498   3.500   5.697  2.0348  1.6139  0.3876
   94SAPE   H3Y 9332   1.422   3.408   5.832  0.0462  1.3008  0.3895
   94SAPE   C34 9333   1.546   3.305   5.700  0.8238  0.6848  0.4730
   94SAPE   H4X 9334   1.588   3.236   5.776 -0.2083 -0.3087  0.1718
   94SAPE   H4Y 9335   1.620   3.329   5.622 -1.6080  2.9750 -1.3356
   94SAPE   C35 9336   1.416   3.245   5.636 -0.9082 -0.7228  0.7108
   94SAPE   H5X 9337   1.348   3.326   5.603  0.7971  0.5783  0.2794
   94SAPE   H5Y 9338   1.372   3.188   5.721  1.0744 -1.4424  1.3036
   94SAPE   C36 9339   1.456   3.143   5.533  0.3157  0.3379  1.2229
   94SAPE   H6X 9340   1.496   3.047   5.572  0.5081 -0.1725 -0.1662
   94SAPE   H6Y 9341   1.535   3.189   5.470 -2.7048  1.0076 -2.4751
   94SAPE   C37 9342   1.340   3.092   5.441 -0.8146  0.1508  0.5274
   94SAPE   H7X 9343   1.297   3.176   5.381 -1.8296 -0.2721  0.6401
   94SAPE   H7Y 9344   1.256   3.048   5.498 -0.5069  0.5151  1.2738
   94SAPE   C38 9345   1.391   2.985   5.346  0.8817  0.5816 -0.0706
   94SAPE   H8X 9346   1.413   2.899   5.413  2.6930  0.9610 -0.1271
   94SAPE   H8Y 9347   1.483   3.021   5.296  0.9753  0.8555  0.3013
   94SAPE   C39 9348   1.282   2.928   5.251 -0.0044  0.4688 -0.0486
   94SAPE   H9X 9349   1.183   2.893   5.286  0.5777 -1.1350  0.0620
   94SAPE   H9Y 9350   1.331   2.839   5.206 -2.2846 -1.0143  0.2586
   94SAPE  C310 9351   1.256   3.026   5.132  0.0171 -0.0219  0.8184
   94SAPE  H10X 9352   1.355   3.069   5.106  0.1560 -0.5286  0.4988
   94SAPE  H10Y 9353   1.184   3.106   5.162  0.4753  0.5757  0.3385
   94SAPE  C311 9354   1.209   2.954   5.003  0.3109  0.7374 -0.1304
   94SAPE  H11X 9355   1.103   2.920   5.006  0.6239 -0.3206 -0.6349
   94SAPE  H11Y 9356   1.276   2.868   4.981  1.2672  1.6022 -0.6718
   94SAPE  C312 9357   1.214   3.055   4.889 -0.3934  0.0784  0.1906
   94SAPE  H12X 9358   1.319   3.087   4.873 -1.0762  1.1813 -2.7421
   94SAPE  H12Y 9359   1.149   3.142   4.912 -0.2757  0.7756 -1.9128
   94SAPE  C313 9360   1.165   3.009   4.751  0.5073 -0.6540  0.4853
   94SAPE  H13X 9361   1.154   3.102   4.690 -2.1460 -1.0419  0.2356
   94SAPE  H13Y 9362   1.060   2.974   4.760 -0.1478  1.1267  0.3079
   94SAPE  C314 9363   1.240   2.897   4.682 -0.3263  0.0452  0.2660
   94SAPE  H14X 9364   1.223   2.793   4.717 -0.3168 -0.6080 -1.5751
   94SAPE  H14Y 9365   1.348   2.919   4.694  0.5352  0.5207 -5.4667
   94SAPE  C315 9366   1.204   2.894   4.529 -0.3645  0.1229 -1.3474
   94SAPE  H15X 9367   1.300   2.866   4.480  0.1635 -1.9589  0.6836
   94SAPE  H15Y 9368   1.187   2.998   4.495  3.4140  1.9593  1.5811
   94SAPE  C316 9369   1.090   2.793   4.494  0.4023 -0.3683  0.8482
   94SAPE  H16X 9370   0.997   2.797   4.555 -2.1836 -1.2211 -2.7085
   94SAPE  H16Y 9371   1.131   2.690   4.495  0.1499 -0.5335 -1.2337
   94SAPE  C317 9372   1.026   2.802   4.351 -0.0652 -0.5511  0.2184
   94SAPE  H17X 9373   0.972   2.899   4.343  3.3887  1.6939  1.4442
   94SAPE  H17Y 9374   0.949   2.724   4.338  2.0164 -2.5297 -0.9359
   94SAPE  C318 9375   1.126   2.787   4.239  0.3940  0.3293  0.3970
   94SAPE  H18X 9376   1.069   2.784   4.143  0.5430 -0.7555  0.3268
   94SAPE  H18Y 9377   1.180   2.690   4.250  2.7224  1.6752  1.3180
   94SAPE  H18Z 9378   1.194   2.873   4.226 -1.1532  1.3959 -1.2318
   95SAPE     N 9379   6.452   2.435   6.854  0.2948 -0.7997 -0.1633
   95SAPE   HN1 9380   6.539   2.470   6.808 -0.4981  1.6796  0.0907
   95SAPE   HN2 9381   6.436   2.483   6.944  0.6365 -1.1947  0.1163
   95SAPE   HN3 9382   6.471   2.334   6.874  4.2258 -0.0226  0.8734
   95SAPE   C12 9383   6.340   2.462   6.767 -0.5384  0.0393  0.1068
   95SAPE  H12A 9384   6.380   2.509   6.674  2.4516 -2.4613 -0.0447
   95SAPE  H12B 9385   6.276   2.533   6.824 -0.8462 -0.3947  0.3035
   95SAPE   C11 9386   6.273   2.341   6.718  0.7101  0.1735 -0.1544
   95SAPE  H11A 9387   6.174   2.367   6.672  0.2242 -0.1619  0.6826
   95SAPE  H11B 9388   6.241   2.295   6.814 -1.8439 -1.1546 -1.5100
   95SAPE     P 9389   6.326   2.095   6.642 -0.0617  0.1082 -0.7019
   95SAPE   O13 9390   6.411   2.031   6.538 -0.1877 -0.5412 -0.2689
   95SAPE   O14 9391   6.337   2.042   6.781  0.5354 -0.4848  0.2527
   95SAPE   O12 9392   6.357   2.253   6.640 -0.1420  0.0998 -0.4714
   95SAPE   O11 9393   6.176   2.068   6.591  0.2400 -0.3077 -0.6243
   95SAPE    C1 9394   6.133   2.142   6.477  0.6364  0.1650 -0.6460
   95SAPE    HA 9395   6.153   2.250   6.489 -1.0467  0.3676  0.7751
   95SAPE    HB 9396   6.191   2.113   6.387 -1.0676 -0.9735 -1.4306
   95SAPE    C2 9397   5.979   2.126   6.459 -0.1705  0.3083  0.0793
   95SAPE    HS 9398   5.933   2.184   6.542 -0.0492 -0.6360  0.8191
   95SAPE   O21 9399   5.951   1.987   6.472  0.0078  0.4635  0.3272
   95SAPE   C21 9400   5.818   1.961   6.488  0.3073 -0.2246 -0.0328
   95SAPE   O22 9401   5.734   2.047   6.493 -0.0612 -0.5848 -0.5702
   95SAPE   C22 9402   5.784   1.812   6.493  0.4797  0.4878 -0.2417
   95SAPE   H2R 9403   5.874   1.749   6.505  0.0295  0.0224  0.7919
   95SAPE   H2S 9404   5.725   1.791   6.585  0.8815 -1.5429 -0.4220
   95SAPE    C3 9405   5.943   2.198   6.325  0.8588 -0.2657 -1.2486
   95SAPE    HX 9406   5.992   2.297   6.332 -1.7223  1.2458 -2.7947
   95SAPE    HY 9407   5.832   2.200   6.324  0.8128  0.3718  0.9028
   95SAPE   O31 9408   5.998   2.126   6.213  0.3912 -0.0527 -0.6209
   95SAPE   C31 9409   6.089   2.190   6.139  1.1632 -0.5565 -0.1833
   95SAPE   O32 9410   6.135   2.297   6.169  0.6996 -0.3174  0.3489
   95SAPE   C32 9411   6.116   2.107   6.017 -0.1479  0.3280  0.1631
   95SAPE   H2X 9412   6.020   2.112   5.963 -0.1185 -0.2332  0.0573
   95SAPE   H2Y 9413   6.138   2.006   6.058 -0.1921  0.8408  1.4855
   95SAPE   C23 9414   5.688   1.775   6.373  0.3659 -0.2969 -0.3325
   95SAPE   H3R 9415   5.619   1.862   6.362 -0.1062 -0.3951  1.4936
   95SAPE   H3S 9416   5.622   1.696   6.416  0.1724  1.5561  3.1526
   95SAPE   C24 9417   5.755   1.726   6.248  0.0588 -0.4453 -0.1629
   95SAPE   H4R 9418   5.685   1.672   6.180  1.3562 -1.4246 -0.7660
   95SAPE   H4S 9419   5.828   1.646   6.272 -0.5338 -0.7029  0.8371
   95SAPE   C25 9420   5.815   1.838   6.171  0.3526 -0.0597  0.9164
   95SAPE   H5R 9421   5.813   1.934   6.225 -1.3746  0.1183  0.5945
   95SAPE   C26 9422   5.880   1.830   6.051  0.4304 -0.0067 -0.1862
   95SAPE   H6R 9423   5.922   1.920   6.002  0.7903 -0.0727  0.0056
   95SAPE   C27 9424   5.914   1.714   5.965  0.1103 -0.0786  0.0059
   95SAPE   H7R 9425   5.884   1.616   6.009 -2.2901 -0.1239 -1.5545
   95SAPE   H7S 9426   6.024   1.719   5.952  0.1265 -0.2400  0.0733
   95SAPE   C28 9427   5.857   1.726   5.828 -0.6942 -1.1165  0.6201
   95SAPE   H8R 9428   5.786   1.808   5.811  0.5354 -0.0537  0.5262
   95SAPE   C29 9429   5.878   1.641   5.722  0.4598 -0.2924 -0.0052
   95SAPE   H9R 9430   5.820   1.664   5.632  2.0746  0.1220 -0.9734
   95SAPE  C210 9431   5.959   1.517   5.718  0.5043 -0.4109 -0.3835
   95SAPE  H10R 9432   5.889   1.438   5.683  0.7753 -0.6657 -0.3607
   95SAPE  H10S 9433   5.990   1.495   5.823  0.4755  4.1632  0.7799
   95SAPE  C211 9434   6.087   1.525   5.641  0.9855  0.0175 -0.3020
   95SAPE  H11R 9435   6.171   1.574   5.693  1.9411 -2.8854  1.1429
   95SAPE  C212 9436   6.112   1.480   5.514  0.1781 -0.3793 -0.6637
   95SAPE  H12R 9437   6.216   1.473   5.481 -0.3591 -0.1149 -2.4911
   95SAPE  C213 9438   6.017   1.417   5.413  0.5851  0.2715  0.1766
   95SAPE  H13R 9439   5.966   1.339   5.473  1.0971 -0.7569 -0.6966
   95SAPE  H13S 9440   6.072   1.370   5.329  2.6949  2.2683  0.3497
   95SAPE  C214 9441   5.913   1.500   5.339  0.1290 -0.1368 -0.3610
   95SAPE  H14R 9442   5.878   1.582   5.403 -1.1825 -2.1262  1.6340
   95SAPE  C215 9443   5.868   1.490   5.214 -0.4555 -0.5504 -0.0524
   95SAPE  H15R 9444   5.792   1.564   5.184  1.1256  1.2625  0.3165
   95SAPE  C216 9445   5.903   1.380   5.118  0.2591 -0.1900 -0.1521
   95SAPE  H16R 9446   5.852   1.285   5.146 -1.7195  1.2563  1.4011
   95SAPE  H16S 9447   6.008   1.343   5.121  0.1990 -0.2949  1.0131
   95SAPE  C217 9448   5.893   1.416   4.970 -0.5857  0.3847  0.1621
   95SAPE  H17R 9449   5.950   1.508   4.942  1.3594 -0.4565  1.1269
   95SAPE  H17S 9450   5.785   1.429   4.951 -0.9684 -1.7840  0.6262
   95SAPE  C218 9451   5.935   1.307   4.884 -0.7992  0.5641 -0.2832
   95SAPE  H18R 9452   5.894   1.214   4.928 -1.9607  1.9847  1.7726
   95SAPE  H18S 9453   6.046   1.296   4.879 -0.9617 -1.0955 -1.0177
   95SAPE  C219 9454   5.899   1.315   4.732  0.1395  0.4447  0.4298
   95SAPE  H19R 9455   5.792   1.345   4.728 -0.0245 -0.1476  0.3055
   95SAPE  H19S 9456   5.897   1.214   4.687 -0.8819  0.7567 -0.2514
   95SAPE  C220 9457   5.987   1.411   4.639  1.2354  0.4264 -0.0408
   95SAPE  H20R 9458   6.035   1.488   4.702  1.1011  0.6612 -0.2233
   95SAPE  H20S 9459   5.922   1.457   4.562  0.1691  2.2601  1.8556
   95SAPE  H20T 9460   6.073   1.348   4.606  1.6627  1.2341 -0.4753
   95SAPE   C33 9461   6.240   2.147   5.934  1.0446  0.8472  0.0575
   95SAPE   H3X 9462   6.317   2.081   5.980 -2.6407 -3.9756  0.0854
   95SAPE   H3Y 9463   6.265   2.255   5.935  0.2660  1.0478 -0.9500
   95SAPE   C34 9464   6.215   2.116   5.785  0.4238  1.1945 -0.0580
   95SAPE   H4X 9465   6.308   2.151   5.736 -0.4100  0.9625 -1.8814
   95SAPE   H4Y 9466   6.144   2.188   5.740  0.8828  0.9435 -1.2075
   95SAPE   C35 9467   6.179   1.971   5.752  0.1548 -0.5528  0.6997
   95SAPE   H5X 9468   6.079   1.936   5.784 -1.3928  0.6671 -2.3885
   95SAPE   H5Y 9469   6.246   1.903   5.809 -1.1983  0.2202  3.3651
   95SAPE   C36 9470   6.204   1.950   5.604  0.6035  0.1633 -0.2816
   95SAPE   H6X 9471   6.208   1.839   5.600 -3.3454 -0.1717  0.9082
   95SAPE   H6Y 9472   6.306   1.988   5.582  0.8912  1.2827  2.5059
   95SAPE   C37 9473   6.088   1.999   5.519  0.5182  0.0653  1.0746
   95SAPE   H7X 9474   6.056   2.100   5.553  0.9984  0.5535  0.1311
   95SAPE   H7Y 9475   6.004   1.927   5.514  1.0717 -0.8317  3.4169
   95SAPE   C38 9476   6.126   2.017   5.364 -0.3974  1.7243 -0.2230
   95SAPE   H8X 9477   6.038   2.056   5.309 -0.5328 -0.0429 -1.3357
   95SAPE   H8Y 9478   6.152   1.920   5.316  0.0715  1.0777  1.2606
   95SAPE   C39 9479   6.239   2.115   5.342  0.2099  0.5915  0.2741
   95SAPE   H9X 9480   6.336   2.096   5.393  0.0461 -1.0291  0.0319
   95SAPE   H9Y 9481   6.207   2.215   5.377 -0.9294  1.5582 -3.0740
   95SAPE  C310 9482   6.263   2.137   5.195  0.7940  1.0838 -0.3627
   95SAPE  H10X 9483   6.160   2.153   5.159  0.8611  1.7143 -0.3000
   95SAPE  H10Y 9484   6.290   2.041   5.147 -0.4326  0.2704  0.5374
   95SAPE  C311 9485   6.362   2.243   5.161  0.5035 -0.8923 -0.2894
   95SAPE  H11X 9486   6.456   2.231   5.218  0.1246 -1.7598  0.1763
   95SAPE  H11Y 9487   6.320   2.345   5.172 -1.6664 -1.8249  0.6871
   95SAPE  C312 9488   6.388   2.231   5.013  0.4066 -0.4183  0.4498
   95SAPE  H12X 9489   6.294   2.204   4.960  0.6210 -0.0274 -0.1452
   95SAPE  H12Y 9490   6.458   2.149   4.987 -2.1212 -2.2381 -1.0159
   95SAPE  C313 9491   6.441   2.360   4.950 -0.6714  0.1414  0.5100
   95SAPE  H13X 9492   6.535   2.401   4.992  0.3487 -1.3993 -0.1732
   95SAPE  H13Y 9493   6.372   2.446   4.959  0.9603  1.6271 -0.5291
   95SAPE  C314 9494   6.468   2.334   4.805  0.1569  0.3389 -0.6025
   95SAPE  H14X 9495   6.382   2.277   4.763 -0.5870 -0.2345  1.6009
   95SAPE  H14Y 9496   6.560   2.273   4.799 -0.1953 -1.0392  4.1244
   95SAPE  C315 9497   6.490   2.462   4.712 -0.3879 -0.3422 -0.4004
   95SAPE  H15X 9498   6.557   2.525   4.774 -1.0361  0.5774 -0.6051
   95SAPE  H15Y 9499   6.402   2.524   4.685  0.2101 -0.1765 -2.0705
   95SAPE  C316 9500   6.559   2.410   4.583 -0.0834  0.1453  0.0938
   95SAPE  H16X 9501   6.481   2.375   4.513  0.9373 -1.4008 -0.3195
   95SAPE  H16Y 9502   6.623   2.324   4.613 -2.0963 -1.8651 -1.0791
   95SAPE  C317 9503   6.649   2.512   4.517  0.5083 -0.8221  0.2705
   95SAPE  H17X 9504   6.692   2.476   4.421  0.0643 -0.3767 -0.0990
   95SAPE  H17Y 9505   6.723   2.544   4.593 -0.3939  3.2389 -0.3572
   95SAPE  C318 9506   6.575   2.640   4.478  0.5064 -0.1850 -0.4215
   95SAPE  H18X 9507   6.501   2.632   4.395  0.0032  0.6032 -0.0630
   95SAPE  H18Y 9508   6.642   2.722   4.444 -0.6217  1.0462  0.2155
   95SAPE  H18Z 9509   6.521   2.686   4.563  3.1236 -0.6825  1.6454
   96SAPE     N 9510   1.918   4.037   7.046  0.2981 -0.0041  0.7074
   96SAPE   HN1 9511   2.007   4.091   7.057  0.7661  0.1055 -2.6452
   96SAPE   HN2 9512   1.869   4.034   7.137  2.3804 -1.0671  1.8706
   96SAPE   HN3 9513   1.959   3.942   7.037 -0.8059 -0.7791  3.0054
   96SAPE   C12 9514   1.831   4.073   6.923  0.9756  0.0896 -0.4014
   96SAPE  H12A 9515   1.814   4.183   6.919  0.2890 -0.0012 -0.2227
   96SAPE  H12B 9516   1.737   4.024   6.957  0.9440 -1.2333 -2.2603
   96SAPE   C11 9517   1.879   3.990   6.802  0.5268 -0.0394 -0.2032
   96SAPE  H11A 9518   1.786   3.987   6.741 -0.8050  0.3063  1.7114
   96SAPE  H11B 9519   1.898   3.887   6.838  0.4023  0.4455  1.3396
   96SAPE     P 9520   2.082   3.979   6.648 -0.2072 -0.2272  0.1600
   96SAPE   O13 9521   2.207   4.053   6.635  0.2690  0.1694 -0.5916
   96SAPE   O14 9522   2.089   3.840   6.692  0.4348 -0.4184 -1.0342
   96SAPE   O12 9523   1.993   4.054   6.755  0.2143 -0.0334  0.7935
   96SAPE   O11 9524   2.001   3.970   6.511 -0.0364 -0.0240 -0.1676
   96SAPE    C1 9525   1.938   4.095   6.462  0.5514  0.8456  0.8422
   96SAPE    HA 9526   1.828   4.098   6.478  0.3676  2.9560 -0.4627
   96SAPE    HB 9527   1.964   4.184   6.523  1.1339  1.9338 -0.9246
   96SAPE    C2 9528   1.986   4.121   6.318 -0.2007  0.0012  0.3871
   96SAPE    HS 9529   1.974   4.028   6.258  1.8043  1.1982 -2.0845
   96SAPE   O21 9530   2.130   4.139   6.319 -0.0917  0.2099  0.2898
   96SAPE   C21 9531   2.179   4.249   6.359 -1.0113  0.1601  0.0400
   96SAPE   O22 9532   2.122   4.344   6.413 -0.3215  0.3994 -0.0774
   96SAPE   C22 9533   2.332   4.241   6.333  0.6098 -0.4856 -0.3757
   96SAPE   H2R 9534   2.358   4.312   6.251  0.5390 -1.5900 -1.3886
   96SAPE   H2S 9535   2.358   4.281   6.433 -2.2059 -2.9325  1.4975
   96SAPE    C3 9536   1.900   4.237   6.256  1.2575 -0.1662  0.1929
   96SAPE    HX 9537   1.906   4.318   6.332 -0.9664 -0.1803  0.4427
   96SAPE    HY 9538   1.793   4.209   6.259  1.4802 -0.9694  1.2209
   96SAPE   O31 9539   1.939   4.287   6.126  0.2190 -0.4650  0.2156
   96SAPE   C31 9540   1.939   4.210   6.020  0.0264 -0.0615 -0.3356
   96SAPE   O32 9541   1.893   4.099   6.016  0.6341  0.6450  0.0384
   96SAPE   C32 9542   1.983   4.293   5.905  0.3436 -0.1968 -0.1428
   96SAPE   H2X 9543   2.087   4.328   5.924 -0.2910  1.6882  0.1228
   96SAPE   H2Y 9544   1.920   4.386   5.905  0.9603  0.2298 -0.8913
   96SAPE   C23 9545   2.388   4.104   6.319  0.0414  0.5453 -0.6505
   96SAPE   H3R 9546   2.333   4.024   6.374  2.0528 -0.6419 -0.2611
   96SAPE   H3S 9547   2.487   4.107   6.368 -0.1093  2.9908 -0.3711
   96SAPE   C24 9548   2.420   4.064   6.172 -0.5505 -0.0198  0.2684
   96SAPE   H4R 9549   2.483   3.973   6.180  0.8128  0.8299 -0.5067
   96SAPE   H4S 9550   2.486   4.148   6.140  1.2808 -1.4442  0.1861
   96SAPE   C25 9551   2.310   4.036   6.074 -0.4492  0.0141  0.2392
   96SAPE   H5R 9552   2.228   3.971   6.109 -0.9600 -0.2156 -1.2976
   96SAPE   C26 9553   2.297   4.094   5.952  0.0365 -0.1670 -0.2631
   96SAPE   H6R 9554   2.214   4.055   5.891 -0.0593 -0.8059  0.2653
   96SAPE   C27 9555   2.403   4.166   5.877  0.6169  0.2465  0.1083
   96SAPE   H7R 9556   2.413   4.127   5.773 -3.0263  0.5111 -0.4783
   96SAPE   H7S 9557   2.505   4.169   5.920  0.2468 -0.6426  1.0988
   96SAPE   C28 9558   2.376   4.312   5.880 -0.2331  0.3902 -0.2196
   96SAPE   H8R 9559   2.374   4.350   5.983  0.1220 -0.1444 -0.0083
   96SAPE   C29 9560   2.340   4.392   5.782  0.4105  1.1316  0.7076
   96SAPE   H9R 9561   2.335   4.500   5.805 -0.3163  1.0495  0.9602
   96SAPE  C210 9562   2.320   4.364   5.639  0.0928 -0.6440 -0.1519
   96SAPE  H10R 9563   2.211   4.385   5.629  0.3006  1.2712  1.0029
   96SAPE  H10S 9564   2.335   4.255   5.622  0.8253 -1.1041  2.8616
   96SAPE  C211 9565   2.401   4.458   5.553  0.1583  0.2623 -0.3808
   96SAPE  H11R 9566   2.370   4.562   5.569  0.8693  0.5488 -0.8046
   96SAPE  C212 9567   2.487   4.426   5.456 -0.3014  0.2603  0.5914
   96SAPE  H12R 9568   2.536   4.510   5.405  0.6844 -0.1875  0.7861
   96SAPE  C213 9569   2.539   4.291   5.430 -0.4361 -0.1806 -0.6213
   96SAPE  H13R 9570   2.565   4.230   5.519  1.9291  0.8872 -0.5205
   96SAPE  H13S 9571   2.635   4.296   5.374  0.2319 -0.4309  0.4689
   96SAPE  C214 9572   2.435   4.209   5.357 -0.5409 -0.4384  1.3546
   96SAPE  H14R 9573   2.356   4.181   5.428 -1.8672 -0.8061 -0.2048
   96SAPE  C215 9574   2.408   4.208   5.229 -0.9599  0.3876  0.2250
   96SAPE  H15R 9575   2.332   4.134   5.200  0.1950 -0.1598 -1.5081
   96SAPE  C216 9576   2.490   4.265   5.113 -0.4926  0.1880  0.0148
   96SAPE  H16R 9577   2.495   4.199   5.024  0.1247 -0.2093  0.3396
   96SAPE  H16S 9578   2.597   4.274   5.141 -0.2679  0.9886 -1.0221
   96SAPE  C217 9579   2.439   4.411   5.074 -0.3546  0.6280  0.2498
   96SAPE  H17R 9580   2.423   4.476   5.163  1.5061  0.7608  0.5302
   96SAPE  H17S 9581   2.341   4.406   5.022 -0.2805 -1.0859  0.2160
   96SAPE  C218 9582   2.536   4.468   4.967  0.2784 -0.1059 -0.3368
   96SAPE  H18R 9583   2.538   4.407   4.874 -0.7230  2.2834 -2.0502
   96SAPE  H18S 9584   2.634   4.453   5.015 -0.5148 -2.6570  0.6665
   96SAPE  C219 9585   2.502   4.608   4.931 -0.3448  0.1594  0.7886
   96SAPE  H19R 9586   2.583   4.680   4.953 -0.9562  1.3065 -0.5336
   96SAPE  H19S 9587   2.408   4.623   4.989 -1.3016  0.9727 -0.9120
   96SAPE  C220 9588   2.476   4.619   4.781 -0.3690 -0.6132  0.5375
   96SAPE  H20R 9589   2.568   4.588   4.727 -0.3996 -0.5630  0.4566
   96SAPE  H20S 9590   2.450   4.722   4.748  0.7321  0.2004  2.0563
   96SAPE  H20T 9591   2.410   4.540   4.739 -0.8745 -0.1938  0.5291
   96SAPE   C33 9592   1.976   4.212   5.773  0.6766  0.5451  0.7981
   96SAPE   H3X 9593   2.044   4.126   5.791 -1.9861 -1.4089  2.1653
   96SAPE   H3Y 9594   2.028   4.278   5.701  1.0863  0.2436  0.8131
   96SAPE   C34 9595   1.837   4.178   5.714 -0.3463  0.2527  0.8177
   96SAPE   H4X 9596   1.781   4.269   5.685 -0.2456 -0.0788 -0.5123
   96SAPE   H4Y 9597   1.780   4.128   5.795 -2.3792 -0.4257 -0.9584
   96SAPE   C35 9598   1.842   4.084   5.586 -0.2244  0.0105  0.3282
   96SAPE   H5X 9599   1.740   4.049   5.560  0.4266 -2.0192  0.3538
   96SAPE   H5Y 9600   1.895   3.993   5.623 -0.9252 -0.6436 -0.2337
   96SAPE   C36 9601   1.902   4.149   5.468  0.1306  1.0462  0.5538
   96SAPE   H6X 9602   2.000   4.195   5.491  0.0673  0.5201  2.0115
   96SAPE   H6Y 9603   1.830   4.215   5.416 -1.3048 -0.6976  0.1967
   96SAPE   C37 9604   1.905   4.042   5.355 -0.6867 -0.3071  0.6347
   96SAPE   H7X 9605   1.801   4.005   5.343 -0.5063 -0.4642 -0.5305
   96SAPE   H7Y 9606   1.973   3.959   5.382  0.5542  0.8802  1.3111
   96SAPE   C38 9607   1.957   4.095   5.223  0.5431 -0.4816  0.3229
   96SAPE   H8X 9608   2.052   4.149   5.245  0.8527 -1.5233  1.6380
   96SAPE   H8Y 9609   1.894   4.179   5.185  0.4238 -0.7369 -0.0512
   96SAPE   C39 9610   1.967   3.993   5.118  0.3230  0.1832 -0.5724
   96SAPE   H9X 9611   1.875   3.931   5.122  0.3219  0.2107 -0.1379
   96SAPE   H9Y 9612   2.041   3.916   5.149  0.3071  0.6042  0.5316
   96SAPE  C310 9613   1.996   4.037   4.980  0.3137  0.4763 -0.5163
   96SAPE  H10X 9614   1.911   4.108   4.968  0.5777  0.5971 -1.8140
   96SAPE  H10Y 9615   1.974   3.964   4.899  0.4089  1.8985 -1.8744
   96SAPE  C311 9616   2.126   4.105   4.944  0.0704  0.1965 -0.9216
   96SAPE  H11X 9617   2.198   4.023   4.965 -1.8293 -1.0218  1.3213
   96SAPE  H11Y 9618   2.142   4.192   5.010  0.8619 -1.0667  0.6189
   96SAPE  C312 9619   2.131   4.147   4.800  0.3790 -1.2737 -0.4753
   96SAPE  H12X 9620   2.028   4.183   4.775  0.2090  0.2894  2.1366
   96SAPE  H12Y 9621   2.151   4.059   4.735  0.0962  0.0228 -2.4282
   96SAPE  C313 9622   2.241   4.245   4.761 -0.0413 -0.5417 -0.7750
   96SAPE  H13X 9623   2.337   4.193   4.785 -0.3553 -0.7742  0.0070
   96SAPE  H13Y 9624   2.227   4.341   4.815 -0.1222 -1.7063  1.4023
   96SAPE  C314 9625   2.244   4.292   4.611 -0.7325  1.0844  0.1404
   96SAPE  H14X 9626   2.342   4.345   4.601  0.4803 -0.6129  2.2907
   96SAPE  H14Y 9627   2.156   4.356   4.588 -0.6071  0.4739 -2.4213
   96SAPE  C315 9628   2.257   4.179   4.502 -0.5535 -0.4924  0.4812
   96SAPE  H15X 9629   2.177   4.106   4.526 -0.5343  0.0068  2.2302
   96SAPE  H15Y 9630   2.355   4.126   4.511 -0.0430 -0.0640 -1.8055
   96SAPE  C316 9631   2.246   4.246   4.363  0.1045 -0.2315  0.0977
   96SAPE  H16X 9632   2.323   4.326   4.358  0.1124 -0.2561 -0.2082
   96SAPE  H16Y 9633   2.146   4.294   4.351  1.3929  2.0793 -2.4474
   96SAPE  C317 9634   2.259   4.143   4.249 -0.3789 -0.5188 -0.1154
   96SAPE  H17X 9635   2.184   4.060   4.247 -0.5324 -0.5787  3.0549
   96SAPE  H17Y 9636   2.351   4.083   4.265 -0.8543 -1.3663 -0.4685
   96SAPE  C318 9637   2.273   4.201   4.111  0.2302 -0.0763 -0.4326
   96SAPE  H18X 9638   2.362   4.267   4.113  1.6074 -1.8795 -0.0834
   96SAPE  H18Y 9639   2.187   4.258   4.071  0.5596  1.1743  0.5752
   96SAPE  H18Z 9640   2.296   4.117   4.041 -1.5681 -2.0108  1.1391
   97SAPE     N 9641   2.926   4.411   6.803  0.0013  0.0291  0.0372
   97SAPE   HN1 9642   2.827   4.427   6.773 -0.5517 -1.1429  1.1432
   97SAPE   HN2 9643   2.986   4.472   6.744  0.3866  1.4376  1.7838
   97SAPE   HN3 9644   2.946   4.313   6.776 -1.0876  0.0106 -0.7983
   97SAPE   C12 9645   2.961   4.419   6.952  0.2079  0.1146  0.1666
   97SAPE  H12A 9646   3.069   4.396   6.953  0.2041 -0.0716 -1.3971
   97SAPE  H12B 9647   2.913   4.339   7.012  0.3524 -0.1739 -0.0963
   97SAPE   C11 9648   2.953   4.568   7.006  0.4683 -0.3735  0.2210
   97SAPE  H11A 9649   3.005   4.581   7.103  0.4256 -1.7472  0.4455
   97SAPE  H11B 9650   2.846   4.595   7.015 -0.1109 -2.6115  0.7807
   97SAPE     P 9651   3.146   4.691   6.868 -0.1254 -0.3312 -0.2821
   97SAPE   O13 9652   3.158   4.837   6.840 -0.2963 -0.1755  0.1309
   97SAPE   O14 9653   3.237   4.639   6.972 -0.2344  0.9073  0.0644
   97SAPE   O12 9654   3.003   4.663   6.913 -0.4040  0.2650 -0.2128
   97SAPE   O11 9655   3.157   4.604   6.736  0.0902  0.0180 -0.3225
   97SAPE    C1 9656   3.284   4.565   6.681  0.1022 -0.1093  0.4108
   97SAPE    HA 9657   3.367   4.608   6.741 -1.4598  2.4565  0.8847
   97SAPE    HB 9658   3.291   4.454   6.678  0.3958 -0.0797 -0.2639
   97SAPE    C2 9659   3.310   4.612   6.534  0.1730  0.4685 -0.9121
   97SAPE    HS 9660   3.412   4.574   6.512  1.3584  1.8963  1.6772
   97SAPE   O21 9661   3.308   4.757   6.537  0.7416  0.0840  0.0935
   97SAPE   C21 9662   3.423   4.805   6.580  0.8671 -0.9883  0.4088
   97SAPE   O22 9663   3.525   4.739   6.601  0.0677  0.4892  0.3593
   97SAPE   C22 9664   3.408   4.954   6.597  0.5365  0.8123 -1.0066
   97SAPE   H2R 9665   3.334   4.984   6.675 -1.1388 -0.6905 -1.9531
   97SAPE   H2S 9666   3.509   4.984   6.634  0.5519 -0.9980  0.5420
   97SAPE    C3 9667   3.203   4.557   6.452  0.3961  0.1116  0.7009
   97SAPE    HX 9668   3.115   4.620   6.476 -0.6683 -1.1962  0.4093
   97SAPE    HY 9669   3.169   4.452   6.472  0.8102 -0.3505 -0.8992
   97SAPE   O31 9670   3.234   4.565   6.310  0.2773 -0.2013  0.0552
   97SAPE   C31 9671   3.159   4.646   6.239  0.0820 -0.8653 -0.1625
   97SAPE   O32 9672   3.066   4.720   6.280 -0.2885 -0.1007  0.6018
   97SAPE   C32 9673   3.208   4.655   6.095  0.5173 -0.0381 -0.1430
   97SAPE   H2X 9674   3.142   4.581   6.044  0.1388  0.5252 -0.4795
   97SAPE   H2Y 9675   3.315   4.625   6.092  1.4710  2.9813 -0.0140
   97SAPE   C23 9676   3.369   5.031   6.464  0.6307  0.1905 -0.1021
   97SAPE   H3R 9677   3.374   5.136   6.497 -1.1310  1.0034 -2.1893
   97SAPE   H3S 9678   3.264   5.006   6.439  0.9383  0.1830 -1.4776
   97SAPE   C24 9679   3.452   5.002   6.335 -0.3380  0.1351 -0.0258
   97SAPE   H4R 9680   3.409   5.023   6.234  1.6061 -1.1496 -1.1917
   97SAPE   H4S 9681   3.479   4.894   6.332 -0.1293  0.1841  0.1358
   97SAPE   C25 9682   3.595   5.061   6.343 -0.3353 -0.1410 -0.0012
   97SAPE   H5R 9683   3.633   5.072   6.446 -0.5272 -1.5200  0.2391
   97SAPE   C26 9684   3.683   5.087   6.244 -0.0857  0.1703  0.6007
   97SAPE   H6R 9685   3.777   5.135   6.274 -0.8183  1.7138  0.5205
   97SAPE   C27 9686   3.665   5.067   6.096 -0.4867 -0.1141  0.2792
   97SAPE   H7R 9687   3.648   5.163   6.043 -4.0303 -1.2166 -0.8998
   97SAPE   H7S 9688   3.570   5.017   6.066  0.5370 -0.7898 -1.9651
   97SAPE   C28 9689   3.784   4.998   6.035  0.5024 -0.0896  0.6143
   97SAPE   H8R 9690   3.873   4.989   6.099  1.1010  1.2095  0.0156
   97SAPE   C29 9691   3.795   4.952   5.912  0.5047  0.4177 -0.2317
   97SAPE   H9R 9692   3.894   4.916   5.882 -0.6894  0.2069 -4.5621
   97SAPE  C210 9693   3.680   4.944   5.806 -0.5965 -0.5247  0.0276
   97SAPE  H10R 9694   3.700   5.019   5.727 -3.8470  2.2345  1.5562
   97SAPE  H10S 9695   3.591   4.989   5.856  2.4511  2.0444  3.7575
   97SAPE  C211 9696   3.659   4.811   5.752 -0.1680 -0.2333  0.6181
   97SAPE  H11R 9697   3.617   4.742   5.827  1.3911 -2.1633 -0.2167
   97SAPE  C212 9698   3.702   4.767   5.636 -0.6333 -0.0986  0.4218
   97SAPE  H12R 9699   3.680   4.664   5.605  0.5535 -0.2673  0.1099
   97SAPE  C213 9700   3.763   4.845   5.528 -0.4863 -0.0552 -0.2674
   97SAPE  H13R 9701   3.870   4.819   5.512  0.1954  1.2829  1.6823
   97SAPE  H13S 9702   3.771   4.954   5.552 -0.5927  0.0470 -0.6917
   97SAPE  C214 9703   3.694   4.832   5.399 -0.4146  0.0071 -0.3747
   97SAPE  H14R 9704   3.604   4.895   5.395  0.1224  0.8576  0.4321
   97SAPE  C215 9705   3.724   4.762   5.284  0.1364 -0.2633 -0.8834
   97SAPE  H15R 9706   3.662   4.779   5.195 -0.9582  0.8438  0.0473
   97SAPE  C216 9707   3.848   4.684   5.252 -0.2145  0.0107  0.9656
   97SAPE  H16R 9708   3.825   4.577   5.231  0.0901 -0.2627  1.9631
   97SAPE  H16S 9709   3.928   4.677   5.329  0.5176 -3.6520  0.0538
   97SAPE  C217 9710   3.908   4.717   5.111  0.2000  0.2607 -0.4263
   97SAPE  H17R 9711   4.012   4.677   5.108  0.2200 -0.1040  2.4298
   97SAPE  H17S 9712   3.913   4.828   5.112  0.9225  0.2333  0.9204
   97SAPE  C218 9713   3.838   4.672   4.977  0.0042 -0.2087 -0.1215
   97SAPE  H18R 9714   3.729   4.684   4.995 -0.0462 -2.6467  1.7340
   97SAPE  H18S 9715   3.856   4.564   4.956  0.1443 -0.1588 -0.2559
   97SAPE  C219 9716   3.899   4.748   4.862 -0.2371  0.2347 -0.0017
   97SAPE  H19R 9717   4.009   4.755   4.881  0.4001 -1.6047 -2.5285
   97SAPE  H19S 9718   3.866   4.853   4.847  0.0600  0.4053  0.4943
   97SAPE  C220 9719   3.883   4.669   4.725 -0.6299 -0.1341 -0.9196
   97SAPE  H20R 9720   3.781   4.681   4.684 -1.7132  0.7137  1.7545
   97SAPE  H20S 9721   3.905   4.561   4.740  0.2514  0.0413 -0.8467
   97SAPE  H20T 9722   3.958   4.714   4.656  0.2694  2.1215  1.3292
   97SAPE   C33 9723   3.184   4.797   6.036 -1.0110  0.3511  0.0047
   97SAPE   H3X 9724   3.228   4.874   6.104 -0.2937  0.2758 -0.3655
   97SAPE   H3Y 9725   3.076   4.818   6.022 -0.5502  1.6165 -2.0436
   97SAPE   C34 9726   3.271   4.825   5.914  0.0093 -0.0979  0.6040
   97SAPE   H4X 9727   3.376   4.798   5.936 -0.0246 -0.7617 -0.0318
   97SAPE   H4Y 9728   3.262   4.932   5.885 -0.7249 -0.6034 -1.1431
   97SAPE   C35 9729   3.228   4.742   5.796 -1.1632 -0.0299 -0.2316
   97SAPE   H5X 9730   3.123   4.762   5.767 -1.0910  0.0617 -0.4374
   97SAPE   H5Y 9731   3.235   4.632   5.810  0.2151 -0.2341 -2.0596
   97SAPE   C36 9732   3.316   4.782   5.679 -0.4666  0.2521  0.4192
   97SAPE   H6X 9733   3.419   4.747   5.700 -0.3393 -0.2893 -0.9739
   97SAPE   H6Y 9734   3.320   4.892   5.666 -2.0459  0.0348 -3.0717
   97SAPE   C37 9735   3.252   4.731   5.544  0.1240 -0.1893 -0.7162
   97SAPE   H7X 9736   3.153   4.775   5.517 -0.6203 -0.9059  0.6975
   97SAPE   H7Y 9737   3.234   4.623   5.563 -0.8336  0.2332  1.0454
   97SAPE   C38 9738   3.352   4.733   5.428 -0.0959 -0.1737 -0.5161
   97SAPE   H8X 9739   3.452   4.702   5.465  0.0630  1.8088  0.8599
   97SAPE   H8Y 9740   3.354   4.841   5.403 -0.4016  0.0183  0.2486
   97SAPE   C39 9741   3.300   4.647   5.315 -0.0792  0.4715  0.2934
   97SAPE   H9X 9742   3.204   4.686   5.275 -0.1037  0.6623  0.5426
   97SAPE   H9Y 9743   3.259   4.548   5.346  2.9854 -1.0494 -0.1383
   97SAPE  C310 9744   3.412   4.621   5.210  0.2027 -0.4215  0.2108
   97SAPE  H10X 9745   3.501   4.586   5.266  1.2271  0.8735 -0.5416
   97SAPE  H10Y 9746   3.448   4.718   5.168 -0.0680 -0.4691 -0.1383
   97SAPE  C311 9747   3.381   4.522   5.087 -0.6261  0.2652  0.4952
   97SAPE  H11X 9748   3.274   4.521   5.057 -0.3448 -0.1626 -0.5231
   97SAPE  H11Y 9749   3.415   4.418   5.106 -0.9936  0.5888  3.3366
   97SAPE  C312 9750   3.452   4.567   4.959  0.2844 -0.3547 -0.1911
   97SAPE  H12X 9751   3.561   4.559   4.978  0.6494 -0.5735 -2.1387
   97SAPE  H12Y 9752   3.432   4.676   4.946  4.2307  0.3796 -1.5736
   97SAPE  C313 9753   3.405   4.490   4.839 -0.5528 -0.7485  0.5115
   97SAPE  H13X 9754   3.312   4.545   4.815  0.0237 -0.7533 -2.0477
   97SAPE  H13Y 9755   3.373   4.387   4.867 -0.8100 -0.6847  0.4559
   97SAPE  C314 9756   3.498   4.503   4.720  0.4225  0.5582 -0.6559
   97SAPE  H14X 9757   3.598   4.458   4.733  0.3266  0.9804  1.9714
   97SAPE  H14Y 9758   3.516   4.612   4.718  1.3461  0.4712  1.2836
   97SAPE  C315 9759   3.434   4.461   4.591 -0.0135 -0.0779  0.4414
   97SAPE  H15X 9760   3.339   4.517   4.578 -0.4550 -0.4054  1.9779
   97SAPE  H15Y 9761   3.409   4.353   4.596 -0.5080  0.0662  1.7068
   97SAPE  C316 9762   3.524   4.495   4.470  0.0016  0.3173 -0.5843
   97SAPE  H16X 9763   3.602   4.416   4.478  0.1288  0.4419 -0.5736
   97SAPE  H16Y 9764   3.573   4.591   4.498 -0.7391  0.2751  0.9036
   97SAPE  C317 9765   3.465   4.519   4.336  0.3892 -0.1674  0.2674
   97SAPE  H17X 9766   3.391   4.439   4.315  1.3411 -0.9085 -0.3200
   97SAPE  H17Y 9767   3.541   4.510   4.255  1.2732 -1.3062  1.1971
   97SAPE  C318 9768   3.397   4.654   4.295  0.5464 -0.5976 -0.0716
   97SAPE  H18X 9769   3.354   4.656   4.193 -0.0488  1.6863  0.1592
   97SAPE  H18Y 9770   3.468   4.738   4.313  1.3451 -1.4851  1.1429
   97SAPE  H18Z 9771   3.308   4.667   4.360 -0.3064 -0.7686 -1.1906
   98SAPE     N 9772   0.313   5.794   6.367  0.2326 -0.1759 -0.9569
   98SAPE   HN1 9773   0.211   5.774   6.367 -0.6369  3.4334  0.7804
   98SAPE   HN2 9774   0.374   5.710   6.379 -1.3159 -1.5397 -2.3083
   98SAPE   HN3 9775   0.325   5.852   6.453  0.3630  0.2159 -1.2386
   98SAPE   C12 9776   0.364   5.871   6.248  0.3252  0.3575 -0.0065
   98SAPE  H12A 9777   0.359   5.812   6.153  0.1226  0.8788 -0.3239
   98SAPE  H12B 9778   0.468   5.897   6.277  0.3908 -0.6026  0.6445
   98SAPE   C11 9779   0.282   5.998   6.211  0.0070  0.9035 -0.1253
   98SAPE  H11A 9780   0.174   5.973   6.206  0.2185  0.0718 -0.6734
   98SAPE  H11B 9781   0.327   6.031   6.115 -1.9284  0.2335 -1.3307
   98SAPE     P 9782   0.203   6.218   6.305  0.1274  0.1892  0.2786
   98SAPE   O13 9783   0.095   6.193   6.403  0.2774  0.0396 -0.5683
   98SAPE   O14 9784   0.283   6.339   6.331 -0.4259  0.3906  0.0651
   98SAPE   O12 9785   0.303   6.095   6.315  0.8217 -0.2226  0.1908
   98SAPE   O11 9786   0.148   6.218   6.159 -0.4340 -0.1642 -0.1798
   98SAPE    C1 9787   0.107   6.344   6.101 -0.3004 -0.2675 -0.2172
   98SAPE    HA 9788   0.025   6.390   6.160 -1.8065 -0.3011 -2.1742
   98SAPE    HB 9789   0.200   6.405   6.106 -0.4526 -0.1572  2.4161
   98SAPE    C2 9790   0.036   6.344   5.957 -0.4731  0.1748  0.2508
   98SAPE    HS 9791  -0.058   6.289   5.978  0.1408 -0.5523  1.1724
   98SAPE   O21 9792   0.129   6.285   5.858  0.4800 -0.3985  0.0143
   98SAPE   C21 9793   0.108   6.158   5.827  0.1299  0.2119 -0.7222
   98SAPE   O22 9794   0.013   6.089   5.860 -0.2005  0.5295 -0.0851
   98SAPE   C22 9795   0.216   6.131   5.722  0.4087  0.2625  0.5793
   98SAPE   H2R 9796   0.319   6.160   5.752 -0.0161  1.8854  0.5518
   98SAPE   H2S 9797   0.207   6.023   5.700 -1.5748  0.7594 -1.3566
   98SAPE    C3 9798   0.018   6.484   5.917 -0.3600  0.5866 -0.4791
   98SAPE    HX 9799  -0.070   6.518   5.976 -0.0122 -0.9670  1.0257
   98SAPE    HY 9800  -0.004   6.478   5.808  0.3904  0.2926 -0.6210
   98SAPE   O31 9801   0.132   6.559   5.951  0.5824 -0.1110  0.4609
   98SAPE   C31 9802   0.159   6.659   5.872 -0.4313 -0.2565  0.1963
   98SAPE   O32 9803   0.096   6.687   5.772 -0.0900 -0.3063  0.2458
   98SAPE   C32 9804   0.298   6.717   5.912  0.0162  0.4916 -0.3330
   98SAPE   H2X 9805   0.300   6.786   6.000 -1.2649 -0.1094  0.1842
   98SAPE   H2Y 9806   0.336   6.775   5.825  2.7459 -0.3663  0.1851
   98SAPE   C23 9807   0.194   6.203   5.586 -0.6191 -0.5921 -0.1881
   98SAPE   H3R 9808   0.276   6.169   5.518 -0.3425 -1.7226  0.6750
   98SAPE   H3S 9809   0.212   6.311   5.602 -0.2738 -0.7802  0.7620
   98SAPE   C24 9810   0.056   6.180   5.522  0.3519 -0.3151  0.3807
   98SAPE   H4R 9811   0.053   6.256   5.441  0.8411  0.5062  1.1159
   98SAPE   H4S 9812  -0.019   6.217   5.595 -1.5822  0.0975 -1.7239
   98SAPE   C25 9813   0.024   6.044   5.471  0.2481 -0.4064 -0.1719
   98SAPE   H5R 9814   0.033   5.964   5.546 -1.2860 -1.8561 -1.4409
   98SAPE   C26 9815  -0.029   6.016   5.352  0.5813  0.5530 -0.0864
   98SAPE   H6R 9816  -0.074   5.916   5.347 -0.4805  0.9365  1.3393
   98SAPE   C27 9817  -0.072   6.102   5.238  0.2041  0.2963 -0.9247
   98SAPE   H7R 9818  -0.039   6.208   5.244  0.8766  0.0785 -0.6602
   98SAPE   H7S 9819  -0.182   6.091   5.246  0.4267 -1.2152  0.5058
   98SAPE   C28 9820  -0.012   6.033   5.121  0.0572 -0.2779 -0.5241
   98SAPE   H8R 9821   0.084   5.981   5.137 -1.1799 -2.3225  0.7305
   98SAPE   C29 9822  -0.073   6.007   5.005  0.1095 -0.5597 -0.1355
   98SAPE   H9R 9823  -0.009   5.967   4.926  1.7086  3.1908 -0.9044
   98SAPE  C210 9824  -0.202   6.074   4.968 -0.1024  0.6531  0.1572
   98SAPE  H10R 9825  -0.202   6.179   5.005  0.6009  0.8261 -0.3214
   98SAPE  H10S 9826  -0.293   6.032   5.016  0.4129  0.4906  1.0150
   98SAPE  C211 9827  -0.213   6.083   4.820  1.2931 -0.3289 -0.1808
   98SAPE  H11R 9828  -0.121   6.102   4.762  0.2885  2.8550 -0.9254
   98SAPE  C212 9829  -0.321   6.069   4.742 -0.4138  0.0526  0.3021
   98SAPE  H12R 9830  -0.305   6.088   4.635  2.0745  0.2033  0.6362
   98SAPE  C213 9831  -0.464   6.054   4.787 -0.4047  0.8355 -0.1601
   98SAPE  H13R 9832  -0.469   6.077   4.896 -1.6126  4.1365 -0.7764
   98SAPE  H13S 9833  -0.501   5.951   4.767 -1.1388  1.5663 -3.1596
   98SAPE  C214 9834  -0.554   6.151   4.717  0.0016 -0.3221  0.5578
   98SAPE  H14R 9835  -0.582   6.244   4.768 -2.2627 -0.3806 -0.4669
   98SAPE  C215 9836  -0.624   6.112   4.609  0.1975  0.0017 -0.4734
   98SAPE  H15R 9837  -0.690   6.191   4.572 -0.4404  0.3914  1.3805
   98SAPE  C216 9838  -0.627   5.978   4.538 -0.3004  0.2154 -0.1025
   98SAPE  H16R 9839  -0.552   5.903   4.571 -0.8843 -1.4851 -2.3600
   98SAPE  H16S 9840  -0.619   5.983   4.428  2.7895 -0.0713  0.0207
   98SAPE  C217 9841  -0.754   5.911   4.585  0.0104  0.4641  0.2632
   98SAPE  H17R 9842  -0.765   5.907   4.695  0.4113 -0.2854  0.2824
   98SAPE  H17S 9843  -0.745   5.805   4.552  0.3583  0.3878  0.5948
   98SAPE  C218 9844  -0.890   5.965   4.522 -0.0203  0.5558  0.2937
   98SAPE  H18R 9845  -0.873   5.982   4.413  1.2683 -1.1694  0.1913
   98SAPE  H18S 9846  -0.922   6.050   4.586 -3.0614  0.4519 -0.9111
   98SAPE  C219 9847  -1.004   5.868   4.545  0.3480 -0.1248 -0.7129
   98SAPE  H19R 9848  -1.015   5.839   4.652  0.9544 -0.8254 -0.8331
   98SAPE  H19S 9849  -0.988   5.772   4.491 -4.9556 -1.2263 -0.8156
   98SAPE  C220 9850  -1.136   5.928   4.500  0.2458 -0.4028  0.5330
   98SAPE  H20R 9851  -1.207   5.849   4.468 -0.6069  0.7221 -0.4418
   98SAPE  H20S 9852  -1.122   5.991   4.409  1.4331  1.9262  2.2409
   98SAPE  H20T 9853  -1.184   5.989   4.579  0.8463 -1.2045  1.5345
   98SAPE   C33 9854   0.407   6.609   5.950  0.4900 -0.2035  0.0118
   98SAPE   H3X 9855   0.368   6.553   6.038  0.5093  0.1720  0.2575
   98SAPE   H3Y 9856   0.505   6.651   5.978  0.5415  0.4014 -1.0342
   98SAPE   C34 9857   0.431   6.517   5.831 -1.0566  0.2326 -0.2493
   98SAPE   H4X 9858   0.471   6.585   5.753  1.7538 -1.5860 -0.5632
   98SAPE   H4Y 9859   0.339   6.476   5.784  0.0539 -0.2072 -2.1934
   98SAPE   C35 9860   0.538   6.403   5.838  0.0506 -0.3407  0.0450
   98SAPE   H5X 9861   0.508   6.320   5.906  2.1987 -0.4139  0.9921
   98SAPE   H5Y 9862   0.629   6.444   5.886  0.5957 -1.1520 -0.2813
   98SAPE   C36 9863   0.585   6.331   5.710 -0.7553  0.1273  0.5607
   98SAPE   H6X 9864   0.500   6.312   5.641 -0.3481  0.0159  0.0891
   98SAPE   H6Y 9865   0.618   6.226   5.724 -2.9765 -0.8434 -0.8921
   98SAPE   C37 9866   0.683   6.416   5.627  0.2605  0.0284 -0.5198
   98SAPE   H7X 9867   0.776   6.423   5.687 -0.9432  0.8148  1.3455
   98SAPE   H7Y 9868   0.637   6.515   5.606 -2.3715 -0.7070  1.3742
   98SAPE   C38 9869   0.702   6.340   5.495 -0.0106 -0.0776  0.5938
   98SAPE   H8X 9870   0.607   6.351   5.438  0.8387  0.3613 -0.8084
   98SAPE   H8Y 9871   0.729   6.233   5.507  0.5587 -0.1107 -0.7974
   98SAPE   C39 9872   0.804   6.411   5.406  0.0856  0.1671  0.3522
   98SAPE   H9X 9873   0.904   6.421   5.454  0.8515 -1.6800 -0.7371
   98SAPE   H9Y 9874   0.774   6.516   5.385 -0.5883 -0.2026 -0.5998
   98SAPE  C310 9875   0.834   6.333   5.281  0.7531 -0.0121  0.6092
   98SAPE  H10X 9876   0.849   6.227   5.312  0.9815  0.2462  1.4011
   98SAPE  H10Y 9877   0.927   6.379   5.241 -0.1295  2.8598  1.6480
   98SAPE  C311 9878   0.720   6.335   5.169 -0.1366  0.6126  0.0863
   98SAPE  H11X 9879   0.676   6.437   5.171 -0.6430  0.3911  0.3337
   98SAPE  H11Y 9880   0.642   6.270   5.213  1.3887  0.8360  3.3901
   98SAPE  C312 9881   0.766   6.281   5.040  0.3650  0.0907  0.5365
   98SAPE  H12X 9882   0.844   6.344   4.993  1.6393 -2.2203 -0.6427
   98SAPE  H12Y 9883   0.683   6.265   4.968  0.5232 -1.2814  0.6284
   98SAPE  C313 9884   0.836   6.146   5.066 -1.6339  0.6888  0.0469
   98SAPE  H13X 9885   0.753   6.080   5.100 -1.3025 -1.3942 -2.7875
   98SAPE  H13Y 9886   0.920   6.149   5.139 -1.1850 -2.2128 -0.2303
   98SAPE  C314 9887   0.887   6.085   4.933 -0.2540 -0.7710 -0.5092
   98SAPE  H14X 9888   0.924   6.163   4.863  2.0646 -0.6891  0.7189
   98SAPE  H14Y 9889   0.807   6.021   4.890 -0.8946 -0.7826  0.6502
   98SAPE  C315 9890   1.010   5.997   4.955  0.2921 -0.0990 -0.1103
   98SAPE  H15X 9891   0.985   5.916   5.026  3.2500 -0.5257  0.5853
   98SAPE  H15Y 9892   1.093   6.052   5.004  0.3741 -1.3109  1.1744
   98SAPE  C316 9893   1.077   5.950   4.828 -0.0996 -0.3009 -0.0348
   98SAPE  H16X 9894   1.134   6.034   4.782 -0.7152  0.3527  0.3914
   98SAPE  H16Y 9895   1.000   5.917   4.756  0.7198 -0.3251 -0.9207
   98SAPE  C317 9896   1.163   5.829   4.850 -0.0625 -0.0480 -0.0538
   98SAPE  H17X 9897   1.100   5.763   4.915 -0.3084  0.5653  0.3401
   98SAPE  H17Y 9898   1.246   5.852   4.920 -0.3875 -1.0473  0.6975
   98SAPE  C318 9899   1.205   5.754   4.725  0.2471  0.3098 -0.5901
   98SAPE  H18X 9900   1.130   5.758   4.644 -1.3740  0.5746  0.8785
   98SAPE  H18Y 9901   1.247   5.652   4.738  0.4504  0.3358 -1.0151
   98SAPE  H18Z 9902   1.298   5.803   4.689  0.8679  1.0371  1.8127
   99SAPE     N 9903   2.276   6.143   6.274 -0.2946 -0.6177 -0.0065
   99SAPE   HN1 9904   2.189   6.181   6.231 -1.8360 -1.4092  2.2113
   99SAPE   HN2 9905   2.245   6.138   6.373  0.9377  0.0119  0.4354
   99SAPE   HN3 9906   2.351   6.214   6.262  0.1480 -0.7730  1.5855
   99SAPE   C12 9907   2.333   6.005   6.237  0.5403 -0.4639 -0.0878
   99SAPE  H12A 9908   2.428   6.000   6.294 -0.4734  0.4496  1.7726
   99SAPE  H12B 9909   2.338   6.008   6.126 -1.3534 -0.0113 -0.2018
   99SAPE   C11 9910   2.241   5.889   6.267 -0.5298 -0.2282 -0.8236
   99SAPE  H11A 9911   2.253   5.789   6.220 -0.3594  0.1460 -1.6054
   99SAPE  H11B 9912   2.145   5.918   6.219 -0.3613  1.7187 -0.0904
   99SAPE     P 9913   2.191   5.749   6.494  0.1290  0.1025  0.1323
   99SAPE   O13 9914   2.194   5.787   6.632  0.7685 -0.0611 -0.2538
   99SAPE   O14 9915   2.060   5.700   6.443  0.2015  0.5730  0.0142
   99SAPE   O12 9916   2.221   5.883   6.407  0.3782  0.3167  0.5543
   99SAPE   O11 9917   2.302   5.646   6.456 -0.5467  0.1098  1.0614
   99SAPE    C1 9918   2.436   5.642   6.488 -0.6438 -0.3706  0.3595
   99SAPE    HA 9919   2.485   5.742   6.497  0.4719 -0.5599 -2.4425
   99SAPE    HB 9920   2.458   5.578   6.576  0.4727 -1.6345 -0.7875
   99SAPE    C2 9921   2.520   5.582   6.372 -0.2071 -0.0251 -0.4819
   99SAPE    HS 9922   2.520   5.662   6.294  0.9133 -0.1750 -0.6496
   99SAPE   O21 9923   2.461   5.457   6.329 -0.8812  0.6896  0.3824
   99SAPE   C21 9924   2.403   5.460   6.208  0.2751 -0.0392 -0.2845
   99SAPE   O22 9925   2.406   5.552   6.130 -0.1443 -0.0800  0.3618
   99SAPE   C22 9926   2.330   5.328   6.193  0.5334 -0.0956  0.3061
   99SAPE   H2R 9927   2.404   5.246   6.205  1.3366  0.7919  1.8297
   99SAPE   H2S 9928   2.255   5.329   6.275  0.8186  2.3161  0.6015
   99SAPE    C3 9929   2.675   5.569   6.388 -0.0211 -0.3406 -0.1915
   99SAPE    HX 9930   2.709   5.501   6.469 -1.1540 -1.4482 -0.6155
   99SAPE    HY 9931   2.712   5.666   6.429 -1.4482  1.2433 -2.4189
   99SAPE   O31 9932   2.738   5.537   6.264  0.2610  0.0224  0.2438
   99SAPE   C31 9933   2.739   5.640   6.181 -0.6651 -0.3208  0.5584
   99SAPE   O32 9934   2.693   5.753   6.190 -0.1074 -0.5612  0.3516
   99SAPE   C32 9935   2.838   5.603   6.060 -0.0148  0.1590  0.2139
   99SAPE   H2X 9936   2.928   5.559   6.108  0.2816 -0.5892 -0.9846
   99SAPE   H2Y 9937   2.861   5.698   6.007 -1.2048  0.6253  0.4847
   99SAPE   C23 9938   2.269   5.290   6.050  0.0528 -0.2255  1.2010
   99SAPE   H3R 9939   2.217   5.383   6.020 -0.2001 -1.1271 -1.3960
   99SAPE   H3S 9940   2.181   5.223   6.053 -0.5231  0.0149 -3.2529
   99SAPE   C24 9941   2.369   5.248   5.949 -0.3328  0.9186 -0.1392
   99SAPE   H4R 9942   2.411   5.154   5.989 -1.9786  1.0167  2.0318
   99SAPE   H4S 9943   2.456   5.315   5.962 -1.8279  2.7391  1.2004
   99SAPE   C25 9944   2.318   5.229   5.811  0.6641 -0.4903  0.0051
   99SAPE   H5R 9945   2.333   5.316   5.745 -2.3007  2.0903  2.3882
   99SAPE   C26 9946   2.250   5.127   5.757  0.5200 -0.0842 -0.6613
   99SAPE   H6R 9947   2.221   5.138   5.651  1.6555  0.3860 -0.9412
   99SAPE   C27 9948   2.200   5.001   5.834  0.1112  0.0303  0.7154
   99SAPE   H7R 9949   2.197   5.020   5.944 -1.3344 -1.1812  0.9196
   99SAPE   H7S 9950   2.266   4.916   5.808 -0.4678  0.0107 -0.7913
   99SAPE   C28 9951   2.053   4.978   5.804  0.1391 -0.3342 -0.1348
   99SAPE   H8R 9952   1.989   5.066   5.815  0.3589 -0.2515  0.5098
   99SAPE   C29 9953   1.990   4.862   5.779  0.2393 -0.9223  0.0202
   99SAPE   H9R 9954   1.881   4.857   5.780  0.1978 -0.0815  1.3433
   99SAPE  C210 9955   2.058   4.731   5.754  0.2506 -0.9997 -0.3781
   99SAPE  H10R 9956   2.100   4.706   5.854 -1.1100 -0.7864  0.2761
   99SAPE  H10S 9957   2.137   4.749   5.679 -0.7910  1.3043 -0.9941
   99SAPE  C211 9958   1.994   4.605   5.717 -0.2549  0.1206 -0.0772
   99SAPE  H11R 9959   1.941   4.543   5.790  0.3216  1.2906  1.4054
   99SAPE  C212 9960   1.989   4.556   5.593 -0.1003  0.4442 -0.2083
   99SAPE  H12R 9961   1.943   4.456   5.590  0.1451  0.2968  0.6652
   99SAPE  C213 9962   2.043   4.605   5.459 -0.4053  0.0756 -0.2612
   99SAPE  H13R 9963   2.120   4.685   5.468 -0.6717  0.3602 -0.4600
   99SAPE  H13S 9964   1.953   4.655   5.417  0.0062  0.3305 -0.8454
   99SAPE  C214 9965   2.095   4.494   5.372 -0.6515  0.1137 -0.2826
   99SAPE  H14R 9966   2.157   4.419   5.424 -0.3848 -1.2935 -2.4900
   99SAPE  C215 9967   2.071   4.472   5.239 -0.0026  0.2887 -0.0863
   99SAPE  H15R 9968   2.111   4.378   5.199  1.2935  0.8807 -0.2226
   99SAPE  C216 9969   1.993   4.567   5.154  0.1643 -0.1564  0.5195
   99SAPE  H16R 9970   2.061   4.598   5.072 -1.1948  1.9325  0.0984
   99SAPE  H16S 9971   1.968   4.666   5.199 -0.5927 -0.3531  0.5411
   99SAPE  C217 9972   1.862   4.515   5.088 -0.1444  0.5683  0.1760
   99SAPE  H17R 9973   1.875   4.409   5.056 -1.3244  0.4977 -0.1072
   99SAPE  H17S 9974   1.839   4.577   5.000  0.6474  2.5295  1.2892
   99SAPE  C218 9975   1.739   4.505   5.184  0.3455  0.1916  1.0023
   99SAPE  H18R 9976   1.726   4.608   5.224  2.4581  1.4774 -1.3396
   99SAPE  H18S 9977   1.764   4.439   5.269  0.9139 -1.0435 -0.0802
   99SAPE  C219 9978   1.611   4.448   5.122 -0.0143  0.5651 -0.3253
   99SAPE  H19R 9979   1.609   4.503   5.025  1.5638 -0.6819 -1.1083
   99SAPE  H19S 9980   1.518   4.467   5.181  0.4435  2.2100 -0.0869
   99SAPE  C220 9981   1.622   4.301   5.084  0.2318 -0.3409  0.0174
   99SAPE  H20R 9982   1.543   4.276   5.011  1.1767 -0.2459 -1.0758
   99SAPE  H20S 9983   1.606   4.233   5.171  1.3358  2.3616  2.5044
   99SAPE  H20T 9984   1.721   4.276   5.040 -0.1977 -0.9631 -0.6106
   99SAPE   C33 9985   2.788   5.491   5.956  0.9519 -0.3659 -0.4130
   99SAPE   H3X 9986   2.730   5.414   6.011  0.8467  0.0010 -0.0082
   99SAPE   H3Y 9987   2.875   5.435   5.915  0.6667 -0.2336 -1.2167
   99SAPE   C34 9988   2.712   5.544   5.831 -0.3221 -0.4161 -0.2506
   99SAPE   H4X 9989   2.770   5.621   5.776  0.9186  0.0147  1.5580
   99SAPE   H4Y 9990   2.620   5.599   5.857 -0.3689 -0.7623  0.3343
   99SAPE   C35 9991   2.661   5.430   5.737  0.1836  0.6827 -0.3630
   99SAPE   H5X 9992   2.598   5.360   5.795  0.2307  1.5005  0.6989
   99SAPE   H5Y 9993   2.737   5.356   5.704 -2.0482 -1.0932 -1.8525
   99SAPE   C36 9994   2.584   5.490   5.613 -0.2574  0.4533  0.1991
   99SAPE   H6X 9995   2.647   5.573   5.576  0.5014 -1.1608 -2.4356
   99SAPE   H6Y 9996   2.499   5.536   5.668 -0.6569  0.9862 -0.8418
   99SAPE   C37 9997   2.541   5.397   5.503 -0.5114  0.1356  0.1531
   99SAPE   H7X 9998   2.470   5.320   5.538 -1.0746  1.3900  1.8821
   99SAPE   H7Y 9999   2.631   5.339   5.475 -0.7511  0.9276 -2.5820
   99SAPE   C3810000   2.472   5.472   5.389 -0.3039  0.7456 -0.4488
   99SAPE   H8X10001   2.540   5.553   5.356 -1.7812  2.3158  0.2379
   99SAPE   H8Y10002   2.377   5.523   5.412 -1.0033 -0.2519 -1.0241
   99SAPE   C3910003   2.455   5.393   5.258  0.6929 -0.6419 -0.0263
   99SAPE   H9X10004   2.383   5.311   5.282  0.5665  0.0012  1.9476
   99SAPE   H9Y10005   2.553   5.347   5.235  1.9142  1.7017  0.2543
   99SAPE  C31010006   2.417   5.489   5.151 -0.7112  0.3288  0.2073
   99SAPE  H10X10007   2.492   5.571   5.145 -0.3844  0.0838  0.9264
   99SAPE  H10Y10008   2.323   5.544   5.175 -0.7145  1.0861 -1.3600
   99SAPE  C31110009   2.406   5.426   5.012  0.2182  0.6511 -0.3662
   99SAPE  H11X10010   2.328   5.347   5.020  0.4321  0.4567 -0.1901
   99SAPE  H11Y10011   2.498   5.373   4.981 -1.3741 -2.1442 -0.5955
   99SAPE  C31210012   2.376   5.527   4.909  0.6006  0.2009  0.6167
   99SAPE  H12X10013   2.449   5.610   4.898  2.5438 -1.6735 -1.9132
   99SAPE  H12Y10014   2.273   5.566   4.924 -0.9148 -2.8461 -0.8387
   99SAPE  C31310015   2.358   5.461   4.771 -0.3103  0.6310 -0.2070
   99SAPE  H13X10016   2.306   5.364   4.787 -0.4240  0.9621  1.6049
   99SAPE  H13Y10017   2.455   5.423   4.730 -0.7212 -0.6046 -0.0766
   99SAPE  C31410018   2.276   5.552   4.676  0.0974 -0.3742  0.3678
   99SAPE  H14X10019   2.346   5.634   4.649  0.5315 -1.0411 -0.5621
   99SAPE  H14Y10020   2.184   5.594   4.721 -0.5033 -0.7566 -0.4779
   99SAPE  C31510021   2.239   5.481   4.550  0.9625  0.3866 -0.0932
   99SAPE  H15X10022   2.329   5.434   4.504 -1.3263 -1.0841 -3.4213
   99SAPE  H15Y10023   2.204   5.547   4.468 -0.7921 -0.8274 -0.3631
   99SAPE  C31610024   2.138   5.362   4.572 -0.1792 -0.5353  0.2545
   99SAPE  H16X10025   2.072   5.399   4.653 -1.6661 -1.8988 -0.2842
   99SAPE  H16Y10026   2.198   5.277   4.612  1.7999 -0.2073 -1.7747
   99SAPE  C31710027   2.048   5.327   4.457  0.5384  0.4309 -0.0907
   99SAPE  H17X10028   2.009   5.427   4.428  0.5267  0.3952 -0.1994
   99SAPE  H17Y10029   1.961   5.265   4.487 -0.0602  1.1164 -0.3771
   99SAPE  C31810030   2.115   5.265   4.336  0.1859 -0.0534  0.3418
   99SAPE  H18X10031   2.056   5.195   4.273 -0.6659 -0.2214  1.2977
   99SAPE  H18Y10032   2.195   5.199   4.379  0.2034  1.0760  2.1730
   99SAPE  H18Z10033   2.156   5.346   4.272 -0.4702  0.8719  1.0675
  100SAPE     N10034   4.080   3.357   6.908 -0.0846 -0.3224 -0.1444
  100SAPE   HN110035   4.165   3.338   6.851 -0.9286  0.2735 -1.6496
  100SAPE   HN210036   4.073   3.460   6.922 -0.2539 -0.3251 -0.2087
  100SAPE   HN310037   4.081   3.309   7.001 -0.1804  1.7258  0.9692
  100SAPE   C1210038   3.959   3.306   6.837 -0.3252 -0.2062  0.0078
  100SAPE  H12A10039   3.953   3.366   6.744  0.1085  0.6451  0.5143
  100SAPE  H12B10040   3.876   3.331   6.907 -0.2542  2.3434 -0.7140
  100SAPE   C1110041   3.973   3.153   6.806 -0.5060  0.4761 -0.0721
  100SAPE  H11A10042   3.898   3.127   6.728 -1.0077  2.2252 -0.2213
  100SAPE  H11B10043   3.956   3.095   6.899 -1.2066  1.3612  0.3632
  100SAPE     P10044   4.158   2.990   6.720  0.1371 -0.4689 -0.5460
  100SAPE   O1310045   4.300   2.990   6.760 -0.5519 -0.8114  0.1595
  100SAPE   O1410046   4.061   2.884   6.777 -0.5287 -0.1029  0.1314
  100SAPE   O1210047   4.105   3.134   6.749  0.2365  0.0222 -0.4750
  100SAPE   O1110048   4.139   2.969   6.564 -0.4048 -0.0675  0.5290
  100SAPE    C110049   4.140   3.091   6.481  0.2278  0.2841  0.1911
  100SAPE    HA10050   4.039   3.138   6.487  0.5673  1.3073 -1.5071
  100SAPE    HB10051   4.204   3.173   6.521  0.0567 -0.7816  2.8819
  100SAPE    C210052   4.159   3.050   6.333  0.2029  0.0837 -0.1001
  100SAPE    HS10053   4.080   2.977   6.302  0.0215 -0.1695  0.9300
  100SAPE   O2110054   4.291   2.999   6.321  0.0631 -0.3273 -0.2680
  100SAPE   C2110055   4.300   2.873   6.286 -0.0774  0.2260  0.6002
  100SAPE   O2210056   4.209   2.788   6.283  0.2842  0.0484 -0.2937
  100SAPE   C2210057   4.443   2.851   6.237  0.4133  0.3744 -0.4476
  100SAPE   H2R10058   4.469   2.940   6.175  0.4674  1.5886  1.2634
  100SAPE   H2S10059   4.504   2.849   6.329 -1.9871  1.1249  1.2783
  100SAPE    C310060   4.138   3.173   6.243  0.4987 -0.7148 -0.6080
  100SAPE    HX10061   4.199   3.259   6.280 -0.9773  1.5001 -2.9537
  100SAPE    HY10062   4.031   3.202   6.252  1.2371  2.3436 -0.4350
  100SAPE   O3110063   4.170   3.149   6.105  0.5430  0.1348  0.6795
  100SAPE   C3110064   4.085   3.077   6.034  0.0004 -0.0597  0.1921
  100SAPE   O3210065   3.974   3.043   6.068  0.5672 -0.0014  0.3152
  100SAPE   C3210066   4.148   3.048   5.902 -0.2688 -0.0561  0.0968
  100SAPE   H2X10067   4.245   3.000   5.931  0.6160  1.1501 -0.7810
  100SAPE   H2Y10068   4.161   3.143   5.847  1.0698 -0.8304 -0.9844
  100SAPE   C2310069   4.472   2.709   6.168 -0.1518 -0.9193 -0.4013
  100SAPE   H3R10070   4.434   2.626   6.232  0.1745  0.8807  2.3195
  100SAPE   H3S10071   4.578   2.692   6.138  0.4094  1.5588 -0.0275
  100SAPE   C2410072   4.399   2.704   6.030  0.2454 -0.4537 -0.5503
  100SAPE   H4R10073   4.437   2.782   5.961  1.8602  0.4818  1.2984
  100SAPE   H4S10074   4.293   2.733   6.046  0.2358  0.5393 -2.2361
  100SAPE   C2510075   4.408   2.569   5.962 -0.9105  0.2430  0.2113
  100SAPE   H5R10076   4.397   2.484   6.030 -0.7723 -0.5183 -0.7018
  100SAPE   C2610077   4.463   2.532   5.851  0.3572  0.1640  0.6069
  100SAPE   H6R10078   4.443   2.428   5.822 -4.2208  1.1721 -0.6201
  100SAPE   C2710079   4.513   2.623   5.738  0.1923  0.3732  0.1266
  100SAPE   H7R10080   4.596   2.573   5.684 -2.1327 -2.6213 -0.9819
  100SAPE   H7S10081   4.544   2.719   5.785 -0.0637  0.7953 -0.5470
  100SAPE   C2810082   4.404   2.649   5.641  0.0986 -0.5321  0.0865
  100SAPE   H8R10083   4.305   2.611   5.670 -1.6046  3.4734  0.0948
  100SAPE   C2910084   4.415   2.706   5.518 -0.2151  0.3313 -0.5196
  100SAPE   H9R10085   4.323   2.735   5.464 -1.2252 -2.7302 -0.6875
  100SAPE  C21010086   4.529   2.758   5.449 -0.8419  0.2307  0.2899
  100SAPE  H10R10087   4.585   2.813   5.527 -2.1990  0.7727  0.9180
  100SAPE  H10S10088   4.500   2.832   5.370 -0.2596 -0.9526 -1.0754
  100SAPE  C21110089   4.628   2.661   5.391  0.5754  0.3416  0.4195
  100SAPE  H11R10090   4.657   2.582   5.462 -1.4592 -1.3199 -0.4887
  100SAPE  C21210091   4.664   2.649   5.262  0.3268  0.0174 -0.0637
  100SAPE  H12R10092   4.744   2.582   5.226  1.5381  0.9291  0.8400
  100SAPE  C21310093   4.620   2.743   5.149  0.2968 -0.4130  0.3729
  100SAPE  H13R10094   4.708   2.777   5.090  0.4348 -1.6403 -0.1758
  100SAPE  H13S10095   4.565   2.833   5.184 -2.6626 -2.0662  0.2817
  100SAPE  C21410096   4.508   2.710   5.054 -0.1331  0.1153  0.5779
  100SAPE  H14R10097   4.410   2.749   5.083  0.7326  0.6462  2.9855
  100SAPE  C21510098   4.520   2.653   4.931  0.7390 -0.0399  0.1171
  100SAPE  H15R10099   4.425   2.645   4.876  1.0057  2.3338 -0.7960
  100SAPE  C21610100   4.643   2.602   4.863  0.2211 -0.0359 -0.8450
  100SAPE  H16R10101   4.603   2.523   4.796  1.7067 -0.6596 -1.0317
  100SAPE  H16S10102   4.717   2.556   4.932  0.0378  2.8319  1.4219
  100SAPE  C21710103   4.699   2.698   4.753 -0.3001 -0.0252 -0.3281
  100SAPE  H17R10104   4.779   2.762   4.796 -1.7362  0.9454  1.0128
  100SAPE  H17S10105   4.615   2.759   4.714 -2.1591 -1.1677  1.6854
  100SAPE  C21810106   4.761   2.632   4.621 -0.2626  0.6122 -0.1277
  100SAPE  H18R10107   4.685   2.558   4.589 -2.2036  0.8864  3.3955
  100SAPE  H18S10108   4.858   2.583   4.643 -0.7786  0.0454  0.9567
  100SAPE  C21910109   4.771   2.749   4.521 -0.2165 -0.1881 -0.2641
  100SAPE  H19R10110   4.836   2.831   4.556 -0.7675  0.2483 -0.2434
  100SAPE  H19S10111   4.670   2.793   4.507 -0.4952 -0.5716  0.4765
  100SAPE  C22010112   4.809   2.692   4.377 -0.2075 -0.5966 -0.3218
  100SAPE  H20R10113   4.729   2.622   4.344 -1.3005 -0.8711  2.5323
  100SAPE  H20S10114   4.901   2.630   4.385  0.1667  0.1668  2.2541
  100SAPE  H20T10115   4.818   2.778   4.308 -0.1635 -0.6208 -0.3451
  100SAPE   C3310116   4.059   2.960   5.818 -0.8384 -0.1321  0.1867
  100SAPE   H3X10117   3.960   3.008   5.811 -0.7223  0.2053  0.7508
  100SAPE   H3Y10118   4.049   2.858   5.863  0.6720 -1.7541 -2.8435
  100SAPE   C3410119   4.115   2.937   5.678 -0.0174 -0.0385 -0.0152
  100SAPE   H4X10120   4.045   2.867   5.628  1.9887 -2.3711  0.2416
  100SAPE   H4Y10121   4.213   2.884   5.684 -0.6725 -1.3169 -0.3053
  100SAPE   C3510122   4.131   3.065   5.598  0.3097  0.0147 -0.1589
  100SAPE   H5X10123   4.186   3.141   5.657 -1.1484  2.3301 -1.6273
  100SAPE   H5Y10124   4.034   3.112   5.575  0.9052 -0.1473 -3.5463
  100SAPE   C3610125   4.214   3.048   5.466 -0.3060  0.3105 -0.3425
  100SAPE   H6X10126   4.305   2.986   5.480  0.9911  1.6910 -2.1551
  100SAPE   H6Y10127   4.241   3.152   5.437  1.2677  0.3664  1.2166
  100SAPE   C3710128   4.127   2.984   5.354 -0.2773  0.3189 -0.3687
  100SAPE   H7X10129   4.054   3.062   5.324  0.5875  1.5876  0.7245
  100SAPE   H7Y10130   4.085   2.885   5.382  3.1929 -1.3270 -0.3996
  100SAPE   C3810131   4.201   2.967   5.211  0.0918 -0.4535 -0.3519
  100SAPE   H8X10132   4.160   2.894   5.138  0.2562 -2.3456  1.3638
  100SAPE   H8Y10133   4.302   2.929   5.239 -0.2254 -1.9096 -1.0655
  100SAPE   C3910134   4.223   3.097   5.132 -0.7714 -0.0112  0.1458
  100SAPE   H9X10135   4.256   3.176   5.203 -0.0015 -1.2123  1.1747
  100SAPE   H9Y10136   4.123   3.124   5.091  0.0524  1.1134 -1.1989
  100SAPE  C31010137   4.315   3.081   5.003 -0.5316 -0.1421  0.0055
  100SAPE  H10X10138   4.404   3.023   5.036 -0.9493 -1.6962 -1.4991
  100SAPE  H10Y10139   4.341   3.185   4.971  0.5682 -0.4489 -0.1351
  100SAPE  C31110140   4.238   3.004   4.898  0.2574  0.1336 -0.1259
  100SAPE  H11X10141   4.137   3.044   4.876  0.8334  1.5373 -0.2683
  100SAPE  H11Y10142   4.227   2.899   4.934  0.1452 -0.2225 -1.1662
  100SAPE  C31210143   4.325   2.999   4.772  0.2757 -0.0176  0.0146
  100SAPE  H12X10144   4.298   2.914   4.706 -2.5201 -0.4061  1.4732
  100SAPE  H12Y10145   4.432   2.993   4.802  0.3111 -0.6074 -0.2261
  100SAPE  C31310146   4.312   3.129   4.684 -0.2282 -0.5672  0.5815
  100SAPE  H13X10147   4.363   3.216   4.729  0.4489 -0.3900 -0.5076
  100SAPE  H13Y10148   4.202   3.146   4.681  0.0771  1.6564 -1.8056
  100SAPE  C31410149   4.357   3.094   4.538  0.5197 -0.2104 -0.3536
  100SAPE  H14X10150   4.346   3.186   4.476  2.3182  1.4582  1.6423
  100SAPE  H14Y10151   4.289   3.015   4.500 -0.0708 -0.5102  1.2687
  100SAPE  C31510152   4.506   3.056   4.517 -0.1525  0.2392  0.5208
  100SAPE  H15X10153   4.533   2.958   4.561  1.9110  0.3205 -0.4295
  100SAPE  H15Y10154   4.573   3.129   4.567  0.8730 -0.6387  0.4635
  100SAPE  C31610155   4.551   3.045   4.368  0.0226 -1.1400 -0.0687
  100SAPE  H16X10156   4.657   3.012   4.366  0.8138  1.1652  0.2463
  100SAPE  H16Y10157   4.569   3.152   4.343 -1.3196 -0.3951  1.9027
  100SAPE  C31710158   4.446   2.988   4.272 -0.1007 -0.3472  0.2577
  100SAPE  H17X10159   4.495   3.021   4.177  1.5384 -0.1532  1.1250
  100SAPE  H17Y10160   4.350   3.043   4.271  1.1446  1.9440 -0.8989
  100SAPE  C31810161   4.426   2.837   4.270 -0.2840  0.1136  0.3440
  100SAPE  H18X10162   4.388   2.794   4.175  1.6978  1.0115 -0.9070
  100SAPE  H18Y10163   4.351   2.811   4.349 -0.4909 -0.8172 -0.1411
  100SAPE  H18Z10164   4.532   2.806   4.278  0.1937  1.6841  0.2777
  101SAPE     N10165   4.326   0.395   7.135  0.0328  0.1966 -0.1895
  101SAPE   HN110166   4.298   0.390   7.235 -0.1340  0.2713 -0.2320
  101SAPE   HN210167   4.378   0.306   7.122  0.3386  0.3293  0.1184
  101SAPE   HN310168   4.390   0.476   7.119  0.8225 -0.6082 -1.2536
  101SAPE   C1210169   4.199   0.400   7.047  0.9657 -0.0117  0.0064
  101SAPE  H12A10170   4.126   0.480   7.073  0.9382 -0.2828  0.7830
  101SAPE  H12B10171   4.138   0.310   7.070  0.3462 -0.4865 -3.0705
  101SAPE   C1110172   4.219   0.391   6.899 -0.0860  1.1151 -0.3018
  101SAPE  H11A10173   4.286   0.476   6.874  0.9358  0.5653  0.4855
  101SAPE  H11B10174   4.124   0.421   6.849 -1.7191 -2.9058  0.0268
  101SAPE     P10175   4.203   0.160   6.777  0.1369  0.1393  0.2084
  101SAPE   O1310176   4.133   0.068   6.871  0.4624 -0.3914 -0.1500
  101SAPE   O1410177   4.120   0.231   6.684 -0.2543 -0.0099 -0.3460
  101SAPE   O1210178   4.283   0.264   6.858  0.0957  0.3689 -0.3740
  101SAPE   O1110179   4.330   0.095   6.701  0.4293 -0.4490 -0.1550
  101SAPE    C110180   4.400  -0.025   6.740 -0.0903 -0.5018  0.1181
  101SAPE    HA10181   4.503  -0.002   6.774  0.2082 -1.4004 -0.1348
  101SAPE    HB10182   4.345  -0.083   6.818 -0.5642  2.1561  1.8695
  101SAPE    C210183   4.420  -0.104   6.611  0.4842  0.2412 -0.3567
  101SAPE    HS10184   4.475  -0.197   6.635 -0.3358 -0.4005 -0.9035
  101SAPE   O2110185   4.486  -0.020   6.514  0.3181  0.7373  0.1066
  101SAPE   C2110186   4.612  -0.007   6.516  0.1087  0.5238 -1.2762
  101SAPE   O2210187   4.689  -0.038   6.608  0.0041 -0.1313  0.2195
  101SAPE   C2210188   4.663   0.043   6.385  0.2054  0.8886  0.0264
  101SAPE   H2R10189   4.626  -0.019   6.300  1.1039  0.3712  0.0046
  101SAPE   H2S10190   4.620   0.145   6.378 -0.1797  0.9935  2.9900
  101SAPE    C310191   4.286  -0.153   6.556  0.6267  0.2804  0.3276
  101SAPE    HX10192   4.228  -0.060   6.535 -0.5370 -0.0461  1.8616
  101SAPE    HY10193   4.240  -0.205   6.643 -0.9123 -0.3865 -0.8323
  101SAPE   O3110194   4.309  -0.242   6.446 -0.4108  0.3841  0.2547
  101SAPE   C3110195   4.206  -0.271   6.364  0.3259 -0.1085 -0.5426
  101SAPE   O3210196   4.087  -0.235   6.378 -0.3420  0.1003 -0.4259
  101SAPE   C3210197   4.255  -0.351   6.248  0.7644 -0.5906  0.1471
  101SAPE   H2X10198   4.310  -0.438   6.292  0.5432 -0.9346 -0.2509
  101SAPE   H2Y10199   4.337  -0.294   6.200  2.0577 -1.6601  1.0297
  101SAPE   C2310200   4.813   0.032   6.368 -0.6688 -0.5669 -0.0587
  101SAPE   H3R10201   4.854  -0.071   6.378  1.0978 -0.1385 -2.1941
  101SAPE   H3S10202   4.863   0.086   6.451 -2.4427  1.7618 -0.4046
  101SAPE   C2410203   4.858   0.080   6.226  0.1525  0.2854 -0.0052
  101SAPE   H4R10204   4.804   0.174   6.202 -0.0298 -0.7434 -4.4725
  101SAPE   H4S10205   4.817   0.002   6.159 -1.8093  1.5026 -0.2961
  101SAPE   C2510206   5.006   0.083   6.226  0.3984  0.6275 -0.6096
  101SAPE   H5R10207   5.058  -0.014   6.226  0.3497  0.4856  2.6551
  101SAPE   C2610208   5.076   0.194   6.196  0.0593  0.3445 -0.6688
  101SAPE   H6R10209   5.185   0.188   6.190  0.0882 -1.3277  0.7869
  101SAPE   C2710210   5.020   0.334   6.181  0.7437 -0.1491  0.4864
  101SAPE   H7R10211   4.990   0.374   6.280 -3.4751 -0.3165 -0.5379
  101SAPE   H7S10212   4.923   0.328   6.126  0.0800 -0.8817  1.6978
  101SAPE   C2810213   5.109   0.444   6.141 -0.2843 -0.8647  0.4545
  101SAPE   H8R10214   5.167   0.496   6.218 -0.2491  0.9353 -0.7191
  101SAPE   C2910215   5.124   0.492   6.020 -0.7185 -0.3998  0.3486
  101SAPE   H9R10216   5.200   0.571   6.006 -0.8032 -0.4574 -0.4798
  101SAPE  C21010217   5.058   0.427   5.901 -0.4040  0.0509  0.1996
  101SAPE  H10R10218   5.056   0.316   5.909  2.4714 -0.0972  0.2428
  101SAPE  H10S10219   5.139   0.436   5.825 -0.5431 -0.2339  0.0144
  101SAPE  C21110220   4.927   0.492   5.854 -0.0309  0.5059  0.9306
  101SAPE  H11R10221   4.856   0.515   5.935 -1.5089 -0.8355  0.0536
  101SAPE  C21210222   4.895   0.528   5.727  0.3694  0.0506 -0.1132
  101SAPE  H12R10223   4.793   0.554   5.698  0.3831 -0.7210 -0.8893
  101SAPE  C21310224   4.974   0.505   5.604 -0.2410  0.0922 -1.2831
  101SAPE  H13R10225   5.059   0.437   5.628 -0.9805  0.1089  1.7412
  101SAPE  H13S10226   5.007   0.606   5.571 -0.5101 -0.2287 -2.6112
  101SAPE  C21410227   4.894   0.449   5.486 -0.2854 -0.1273  0.2594
  101SAPE  H14R10228   4.824   0.368   5.511 -0.0578 -0.2585  0.4714
  101SAPE  C21510229   4.901   0.476   5.353  0.5891 -0.6062  0.1538
  101SAPE  H15R10230   4.836   0.420   5.285  0.9776  0.5562 -1.2157
  101SAPE  C21610231   4.995   0.575   5.296 -0.5044 -0.1190  0.4605
  101SAPE  H16R10232   5.073   0.525   5.234 -0.4211 -0.8316  1.1305
  101SAPE  H16S10233   5.060   0.620   5.373  2.0962 -0.0849 -1.5998
  101SAPE  C21710234   4.927   0.685   5.208 -0.2852 -0.3804  0.0216
  101SAPE  H17R10235   4.987   0.777   5.191 -0.5960  0.0929  1.3723
  101SAPE  H17S10236   4.833   0.710   5.263 -0.9948  0.9000 -1.6840
  101SAPE  C21810237   4.886   0.635   5.068 -0.1501 -0.0029  0.5363
  101SAPE  H18R10238   4.848   0.531   5.065 -0.4870  0.1265  0.2836
  101SAPE  H18S10239   4.967   0.644   4.992 -2.0033 -1.1322 -1.6764
  101SAPE  C21910240   4.767   0.716   4.999  0.3172 -0.2239 -0.4121
  101SAPE  H19R10241   4.799   0.823   4.996 -1.5140  0.3603 -0.0837
  101SAPE  H19S10242   4.678   0.711   5.065  0.4362 -1.2095 -0.3159
  101SAPE  C22010243   4.732   0.658   4.863  0.7800  0.6618 -0.0796
  101SAPE  H20R10244   4.644   0.712   4.824 -0.5658 -0.0496  1.8147
  101SAPE  H20S10245   4.701   0.554   4.889 -0.1450  0.5933 -1.3930
  101SAPE  H20T10246   4.819   0.649   4.794 -0.1931 -2.0390 -1.0895
  101SAPE   C3310247   4.141  -0.390   6.154  0.8368 -0.0017  0.1426
  101SAPE   H3X10248   4.085  -0.296   6.135  1.4388  0.7382  1.8240
  101SAPE   H3Y10249   4.066  -0.456   6.202 -0.8273  1.2691 -0.6017
  101SAPE   C3410250   4.202  -0.452   6.030  0.8748  0.3394 -0.4907
  101SAPE   H4X10251   4.252  -0.547   6.058 -0.1440 -0.3772 -1.0631
  101SAPE   H4Y10252   4.271  -0.380   5.980 -0.2200  1.4952 -0.3887
  101SAPE   C3510253   4.104  -0.504   5.925 -0.3099 -0.5755 -0.4116
  101SAPE   H5X10254   4.027  -0.426   5.905  0.0084  0.2431  1.3755
  101SAPE   H5Y10255   4.039  -0.585   5.966  0.3918 -1.6835 -1.4230
  101SAPE   C3610256   4.160  -0.541   5.791 -0.3049 -0.2048  0.1690
  101SAPE   H6X10257   4.187  -0.453   5.729  0.0118  0.2427  0.9388
  101SAPE   H6Y10258   4.086  -0.599   5.732  0.5569 -0.8537 -0.3042
  101SAPE   C3710259   4.282  -0.631   5.817 -0.1599  0.3764  0.4490
  101SAPE   H7X10260   4.255  -0.718   5.881 -0.9220  0.5701  0.4057
  101SAPE   H7Y10261   4.356  -0.577   5.879  0.4889 -0.9466  0.8638
  101SAPE   C3810262   4.352  -0.684   5.683  0.2633  0.8404 -0.4511
  101SAPE   H8X10263   4.290  -0.761   5.632 -1.2831  2.1792 -0.6794
  101SAPE   H8Y10264   4.449  -0.726   5.715 -0.7414 -0.0361  1.6825
  101SAPE   C3910265   4.372  -0.574   5.578  0.0652  0.4691  0.2123
  101SAPE   H9X10266   4.440  -0.492   5.610 -1.4334  2.7689 -2.0367
  101SAPE   H9Y10267   4.281  -0.520   5.545  0.3416  2.4539  2.4832
  101SAPE  C31010268   4.427  -0.651   5.453  0.0128 -0.4273 -0.4200
  101SAPE  H10X10269   4.341  -0.713   5.419 -1.2851  0.1477  1.6769
  101SAPE  H10Y10270   4.521  -0.708   5.471  1.4426  1.9877  0.2790
  101SAPE  C31110271   4.471  -0.555   5.344 -1.0077  0.3128  0.5883
  101SAPE  H11X10272   4.551  -0.498   5.396 -0.4072  0.3912 -0.4058
  101SAPE  H11Y10273   4.384  -0.494   5.310 -0.2652  0.4377 -1.1714
  101SAPE  C31210274   4.520  -0.629   5.219  0.1798 -0.3288  0.1623
  101SAPE  H12X10275   4.425  -0.670   5.178  0.4973 -2.3531  1.3421
  101SAPE  H12Y10276   4.600  -0.705   5.223  1.7371  1.0102 -2.5968
  101SAPE  C31310277   4.562  -0.518   5.121  0.3736  0.6927 -1.1413
  101SAPE  H13X10278   4.618  -0.574   5.042  1.7893  1.9120 -1.0536
  101SAPE  H13Y10279   4.638  -0.460   5.178  0.7416 -0.2810 -0.6072
  101SAPE  C31410280   4.457  -0.425   5.056 -0.5448  0.0468 -0.4822
  101SAPE  H14X10281   4.505  -0.370   4.972 -0.3549 -2.7516 -2.3197
  101SAPE  H14Y10282   4.412  -0.357   5.132 -1.2620 -1.2951  0.3256
  101SAPE  C31510283   4.335  -0.490   4.989  0.1436  0.1208 -0.0766
  101SAPE  H15X10284   4.267  -0.532   5.066  1.1032  0.7139  1.1189
  101SAPE  H15Y10285   4.368  -0.577   4.928 -0.7468 -1.6086  1.7974
  101SAPE  C31610286   4.260  -0.395   4.897  0.0069  0.3819 -0.5139
  101SAPE  H16X10287   4.325  -0.384   4.808 -0.2698 -1.2143 -0.9483
  101SAPE  H16Y10288   4.252  -0.296   4.947  0.9303  0.5346 -0.6609
  101SAPE  C31710289   4.115  -0.440   4.865 -0.6138  0.9767  0.5815
  101SAPE  H17X10290   4.059  -0.346   4.848 -0.3541  0.7653 -1.7037
  101SAPE  H17Y10291   4.063  -0.483   4.954 -2.1255 -2.5638 -1.7835
  101SAPE  C31810292   4.104  -0.544   4.746 -0.1411 -0.2247  0.1677
  101SAPE  H18X10293   4.111  -0.481   4.654 -0.4047 -0.8352 -0.2727
  101SAPE  H18Y10294   3.996  -0.571   4.738  0.5743 -2.8592 -1.5471
  101SAPE  H18Z10295   4.178  -0.626   4.750  0.4310  0.3312  2.0106
  102SAPE     N10296   5.208   5.545   6.709 -0.3025  0.2607 -0.3417
  102SAPE   HN110297   5.116   5.498   6.701  0.2244 -1.1590  1.2808
  102SAPE   HN210298   5.274   5.527   6.631 -2.2554  0.2541 -2.0638
  102SAPE   HN310299   5.254   5.517   6.798 -2.4251 -1.5853  0.2420
  102SAPE   C1210300   5.185   5.694   6.720  0.1465  0.6896 -0.8256
  102SAPE  H12A10301   5.280   5.749   6.704 -0.2405  0.8098 -3.0491
  102SAPE  H12B10302   5.147   5.711   6.823 -1.7414 -1.0226 -1.1762
  102SAPE   C1110303   5.084   5.744   6.616 -0.3272 -0.3760  0.6038
  102SAPE  H11A10304   5.128   5.726   6.516  0.3994  0.1632  0.8246
  102SAPE  H11B10305   5.080   5.854   6.630  0.5416 -0.2864  0.2047
  102SAPE     P10306   4.887   5.563   6.588 -0.0972  0.1333 -0.3248
  102SAPE   O1310307   4.970   5.448   6.639 -0.1142 -0.2117  0.1505
  102SAPE   O1410308   4.738   5.567   6.610 -0.1764  0.2151  0.2949
  102SAPE   O1210309   4.954   5.690   6.652  0.8545 -0.1669  1.1131
  102SAPE   O1110310   4.916   5.577   6.433  0.1721  0.0914 -0.2973
  102SAPE    C110311   4.892   5.700   6.354  0.3980 -0.6342  0.0636
  102SAPE    HA10312   4.893   5.790   6.420 -1.5903 -1.4090  1.2220
  102SAPE    HB10313   4.957   5.712   6.265 -0.4644 -2.9063 -0.9394
  102SAPE    C210314   4.742   5.703   6.296  0.6885  0.6444 -0.9694
  102SAPE    HS10315   4.677   5.662   6.376  0.8046  3.2964  0.6088
  102SAPE   O2110316   4.724   5.618   6.179  0.3891  0.3369  0.1415
  102SAPE   C2110317   4.600   5.593   6.141 -0.4745 -0.7137 -0.0525
  102SAPE   O2210318   4.498   5.630   6.199 -0.6312  0.0540  0.0304
  102SAPE   C2210319   4.593   5.504   6.017 -0.0449 -0.1952 -0.1386
  102SAPE   H2R10320   4.681   5.436   6.024  1.2486  1.5602  3.0060
  102SAPE   H2S10321   4.499   5.444   6.020 -0.3062  0.2452  1.0860
  102SAPE    C310322   4.688   5.846   6.270  0.5336 -0.0951 -0.6502
  102SAPE    HX10323   4.681   5.904   6.365 -1.4629  1.7496 -1.8200
  102SAPE    HY10324   4.583   5.840   6.233  0.2938 -3.1436  0.3060
  102SAPE   O3110325   4.781   5.903   6.180 -0.0185  0.1341 -0.1500
  102SAPE   C3110326   4.726   5.969   6.076  0.3795  1.6518  0.7045
  102SAPE   O3210327   4.610   6.008   6.071 -0.7395 -0.2923 -0.0604
  102SAPE   C3210328   4.838   5.971   5.964  0.4422 -0.0845 -0.2499
  102SAPE   H2X10329   4.842   5.866   5.928  2.3921 -0.1673  0.1108
  102SAPE   H2Y10330   4.935   6.007   6.005  0.5490  0.1985 -0.7417
  102SAPE   C2310331   4.596   5.600   5.897  0.0451 -0.0311  0.3572
  102SAPE   H3R10332   4.683   5.670   5.902 -0.3404  0.5159 -0.3920
  102SAPE   H3S10333   4.498   5.651   5.894 -0.3430 -0.6219  1.9809
  102SAPE   C2410334   4.604   5.525   5.759 -0.2098 -0.0247 -0.8599
  102SAPE   H4R10335   4.571   5.588   5.673 -0.1447 -1.0607 -1.6688
  102SAPE   H4S10336   4.535   5.439   5.766 -0.4680  0.2942  0.7033
  102SAPE   C2510337   4.737   5.463   5.738 -0.6822 -0.2788  0.3018
  102SAPE   H5R10338   4.771   5.393   5.816 -0.0610  0.4562  0.6979
  102SAPE   C2610339   4.828   5.500   5.638  1.0893 -0.3401  0.1278
  102SAPE   H6R10340   4.930   5.459   5.637  1.1392 -0.2203 -1.0688
  102SAPE   C2710341   4.792   5.604   5.533 -0.1826  0.0542  0.1249
  102SAPE   H7R10342   4.851   5.694   5.562 -1.3214  0.5555  0.9815
  102SAPE   H7S10343   4.688   5.643   5.540 -1.1964 -2.5416  0.4880
  102SAPE   C2810344   4.814   5.561   5.387  0.2065  0.6407 -0.1511
  102SAPE   H8R10345   4.858   5.461   5.384  3.1737  1.8276  0.5463
  102SAPE   C2910346   4.777   5.625   5.276  0.7583  0.3060 -0.3348
  102SAPE   H9R10347   4.772   5.573   5.179  2.4847 -3.4778  1.4067
  102SAPE  C21010348   4.720   5.761   5.272  0.1531  0.2591 -0.1777
  102SAPE  H10R10349   4.729   5.808   5.372  0.9698  0.3787 -0.3007
  102SAPE  H10S10350   4.611   5.744   5.266 -0.2272  2.5704 -0.7668
  102SAPE  C21110351   4.771   5.858   5.162  0.6146 -0.3317  0.6597
  102SAPE  H11R10352   4.866   5.897   5.201 -0.0135  0.7572  1.1535
  102SAPE  C21210353   4.716   5.896   5.045 -0.1843 -0.5181  0.6672
  102SAPE  H12R10354   4.769   5.973   4.986  1.1106 -1.0317  1.1182
  102SAPE  C21310355   4.595   5.844   4.975  0.5048  0.0408  0.5212
  102SAPE  H13R10356   4.522   5.817   5.055 -2.2294 -0.3047 -1.9377
  102SAPE  H13S10357   4.614   5.751   4.917 -3.4969 -0.4126 -0.3669
  102SAPE  C21410358   4.518   5.945   4.892 -0.2745  0.3359 -0.5671
  102SAPE  H14R10359   4.498   6.041   4.943 -0.9615  1.0933 -2.1769
  102SAPE  C21510360   4.471   5.934   4.766 -0.1885 -1.2826  0.0786
  102SAPE  H15R10361   4.416   6.021   4.727  0.1764 -0.7735  0.6827
  102SAPE  C21610362   4.481   5.827   4.676 -0.5138  0.0502  0.0013
  102SAPE  H16R10363   4.383   5.815   4.625 -0.6824  0.0531  0.3223
  102SAPE  H16S10364   4.509   5.731   4.724 -0.4239 -0.8328 -1.7355
  102SAPE  C21710365   4.585   5.870   4.564 -0.0557  0.0650 -0.5412
  102SAPE  H17R10366   4.575   5.977   4.537  1.7116  0.2287 -0.6689
  102SAPE  H17S10367   4.555   5.811   4.474  1.1476  0.1303 -1.0005
  102SAPE  C21810368   4.733   5.843   4.598  0.0772 -0.5630  0.4843
  102SAPE  H18R10369   4.758   5.741   4.562  2.9864  0.9709 -2.3488
  102SAPE  H18S10370   4.736   5.842   4.709  3.4502  0.8505  0.5110
  102SAPE  C21910371   4.836   5.945   4.540 -0.0054  0.6172  0.5046
  102SAPE  H19R10372   4.924   5.947   4.609  1.9045 -0.4592 -1.7560
  102SAPE  H19S10373   4.794   6.046   4.526 -1.0466  0.1358  0.0697
  102SAPE  C22010374   4.886   5.900   4.399  0.1757  0.1370 -0.0534
  102SAPE  H20R10375   4.807   5.889   4.322  0.1231  0.6086 -0.0726
  102SAPE  H20S10376   4.950   5.810   4.406  1.2589  0.8309 -0.6233
  102SAPE  H20T10377   4.949   5.982   4.357  0.7517  0.4093  1.2736
  102SAPE   C3310378   4.792   6.050   5.841  0.1819 -0.3933 -0.1593
  102SAPE   H3X10379   4.792   6.158   5.866 -0.7013  0.0226 -1.7701
  102SAPE   H3Y10380   4.687   6.032   5.809 -0.0341  0.6095 -0.0283
  102SAPE   C3410381   4.893   6.036   5.727 -0.3283 -0.6133 -0.5992
  102SAPE   H4X10382   4.905   5.930   5.698 -0.1290 -0.6904 -0.2429
  102SAPE   H4Y10383   4.994   6.061   5.766 -0.4308 -1.2396  0.0786
  102SAPE   C3510384   4.851   6.117   5.599  0.1316 -0.6759  0.4443
  102SAPE   H5X10385   4.830   6.222   5.628  0.7128 -0.7795  1.3012
  102SAPE   H5Y10386   4.766   6.066   5.549  1.8675 -1.2265 -2.1302
  102SAPE   C3610387   4.962   6.108   5.491 -0.2590  0.5327  0.5485
  102SAPE   H6X10388   4.969   6.006   5.448  0.3771  1.1221 -0.8295
  102SAPE   H6Y10389   5.055   6.148   5.538 -0.4615  1.1023  0.4801
  102SAPE   C3710390   4.932   6.194   5.369 -0.5822 -0.5696  0.0821
  102SAPE   H7X10391   4.912   6.300   5.394  1.5244 -0.4523  1.5433
  102SAPE   H7Y10392   4.838   6.155   5.326 -0.1672 -1.5013 -0.0140
  102SAPE   C3810393   5.041   6.195   5.265  0.7565  0.5089  0.4610
  102SAPE   H8X10394   5.091   6.097   5.248  0.8812  0.3512  1.6839
  102SAPE   H8Y10395   5.121   6.266   5.293  0.3136  1.3478 -0.3272
  102SAPE   C3910396   4.979   6.231   5.127 -0.0992 -0.5143 -0.4061
  102SAPE   H9X10397   4.951   6.339   5.124  1.1804 -0.1097  1.1078
  102SAPE   H9Y10398   4.886   6.176   5.101 -0.9921  0.6538  0.1948
  102SAPE  C31010399   5.077   6.227   5.015  0.4571  0.6177  0.4573
  102SAPE  H10X10400   5.111   6.121   5.006 -3.0585 -0.7640  1.6074
  102SAPE  H10Y10401   5.168   6.281   5.047  0.5228  1.0615 -0.4535
  102SAPE  C31110402   5.023   6.277   4.881  0.4411 -0.2829  0.4110
  102SAPE  H11X10403   4.984   6.380   4.893  0.8713  0.2323 -1.9900
  102SAPE  H11Y10404   4.936   6.212   4.855  1.0263 -1.0071  0.2517
  102SAPE  C31210405   5.129   6.267   4.764 -0.2750 -0.3905 -0.0882
  102SAPE  H12X10406   5.219   6.328   4.788 -0.6568 -0.4228  1.5332
  102SAPE  H12Y10407   5.083   6.309   4.672 -0.1819  0.4873  0.2538
  102SAPE  C31310408   5.172   6.130   4.731 -0.4446  0.4680 -0.3051
  102SAPE  H13X10409   5.080   6.069   4.742 -0.4218  0.4949  0.0283
  102SAPE  H13Y10410   5.249   6.095   4.803 -0.3285  1.0097 -0.1638
  102SAPE  C31410411   5.216   6.114   4.588 -0.2987 -0.1822 -0.3434
  102SAPE  H14X10412   5.291   6.193   4.567 -1.9522  1.6391  0.3858
  102SAPE  H14Y10413   5.130   6.135   4.520 -0.8218  0.5038  0.5155
  102SAPE  C31510414   5.289   5.985   4.548 -0.0195 -0.0532  0.8114
  102SAPE  H15X10415   5.395   5.986   4.581  0.6441  0.1196 -1.2014
  102SAPE  H15Y10416   5.301   5.979   4.438  1.0157  1.6764  0.7855
  102SAPE  C31610417   5.230   5.852   4.598 -0.0865 -0.7171  0.8873
  102SAPE  H16X10418   5.130   5.834   4.553 -0.0488 -1.1888  0.9819
  102SAPE  H16Y10419   5.205   5.852   4.707  2.1537 -3.0193  1.5032
  102SAPE  C31710420   5.325   5.730   4.590  0.4381 -0.7954  0.7447
  102SAPE  H17X10421   5.370   5.742   4.489 -1.1156 -0.3290  0.0893
  102SAPE  H17Y10422   5.267   5.636   4.593  2.0959 -1.8398  1.9680
  102SAPE  C31810423   5.440   5.704   4.690 -0.0632 -0.1670  0.4902
  102SAPE  H18X10424   5.412   5.677   4.794  0.2014 -1.4504  0.2322
  102SAPE  H18Y10425   5.503   5.795   4.701  0.0345 -0.2898  0.9615
  102SAPE  H18Z10426   5.498   5.618   4.653 -1.0426 -1.0263  0.9080
  103SAPE     N10427   3.670   0.169   1.804 -0.1637 -0.4060 -0.7804
  103SAPE   HN110428   3.570   0.143   1.795 -0.0897 -0.6105 -1.0104
  103SAPE   HN210429   3.671   0.271   1.782 -0.2975 -0.5823 -1.6189
  103SAPE   HN310430   3.724   0.113   1.735  2.2330  1.3449 -0.4813
  103SAPE   C1210431   3.723   0.132   1.941 -0.2520 -0.0351 -0.3085
  103SAPE  H12A10432   3.824   0.087   1.927 -0.3876 -0.8338  1.1159
  103SAPE  H12B10433   3.667   0.048   1.988  2.6804 -0.4889  2.7228
  103SAPE   C1110434   3.718   0.250   2.032 -0.2452  0.0834 -0.2167
  103SAPE  H11A10435   3.729   0.215   2.137 -1.2569 -0.7472 -0.3764
  103SAPE  H11B10436   3.617   0.296   2.028 -0.2214  0.0634 -3.3398
  103SAPE     P10437   3.969   0.349   2.017 -0.2258 -0.1028 -0.2849
  103SAPE   O1310438   4.039   0.250   1.932 -0.3297 -0.4489  0.6963
  103SAPE   O1410439   4.024   0.484   2.016 -0.3505 -0.2199 -0.2108
  103SAPE   O1210440   3.813   0.349   1.984  0.5164  0.0295 -0.2599
  103SAPE   O1110441   3.965   0.300   2.172 -0.2295 -0.3140 -0.0047
  103SAPE    C110442   4.089   0.319   2.250 -0.5377  0.3291 -0.1288
  103SAPE    HA10443   4.160   0.390   2.202 -0.4091 -0.0015 -0.4349
  103SAPE    HB10444   4.059   0.375   2.341 -0.6484  0.3098 -0.1536
  103SAPE    C210445   4.162   0.196   2.301 -0.3791  0.7511 -0.1809
  103SAPE    HS10446   4.223   0.171   2.212 -0.0506 -2.7369  0.8724
  103SAPE   O2110447   4.063   0.082   2.322 -0.4175  0.1608 -0.0610
  103SAPE   C2110448   4.117  -0.034   2.349 -0.0308 -1.0389  0.0108
  103SAPE   O2210449   4.236  -0.064   2.346 -0.3922  0.8407  0.1597
  103SAPE   C2210450   4.006  -0.132   2.395 -0.0492  0.3300 -0.0736
  103SAPE   H2R10451   3.904  -0.087   2.394 -2.4724 -4.4540  1.3687
  103SAPE   H2S10452   4.007  -0.211   2.316  0.7241  1.5650 -1.3412
  103SAPE    C310453   4.278   0.222   2.411 -0.0469  0.0355  0.0187
  103SAPE    HX10454   4.327   0.319   2.387  1.2978 -0.2218  1.5569
  103SAPE    HY10455   4.350   0.138   2.398 -1.1646 -0.7801 -1.2068
  103SAPE   O3110456   4.212   0.240   2.540  0.1610 -0.2924 -0.3238
  103SAPE   C3110457   4.280   0.192   2.642 -0.6848  0.1901  0.1773
  103SAPE   O3210458   4.381   0.128   2.639 -0.1871 -0.0455  0.3048
  103SAPE   C3210459   4.215   0.232   2.773  0.2023 -0.1202  0.0195
  103SAPE   H2X10460   4.105   0.214   2.769  0.1427  0.0741  0.6651
  103SAPE   H2Y10461   4.222   0.343   2.778 -2.6347  0.1648 -0.4364
  103SAPE   C2310462   4.019  -0.192   2.538  0.5759  0.6147  0.1324
  103SAPE   H3R10463   4.094  -0.275   2.536 -0.9498 -0.9259  2.4981
  103SAPE   H3S10464   3.921  -0.236   2.566  0.4528  1.2629  0.7338
  103SAPE   C2410465   4.052  -0.102   2.658 -0.7853  0.6131  0.0420
  103SAPE   H4R10466   4.158  -0.070   2.649 -0.8259  0.3350 -1.7449
  103SAPE   H4S10467   4.039  -0.166   2.748  0.2528 -1.1710 -1.0141
  103SAPE   C2510468   3.962   0.015   2.666  0.5179 -0.4235  0.6566
  103SAPE   H5R10469   3.961   0.085   2.581  0.0943  2.6443  2.9867
  103SAPE   C2610470   3.880   0.053   2.760  0.2733 -0.4669 -0.4350
  103SAPE   H6R10471   3.835   0.151   2.741  0.3623 -0.4239 -0.4278
  103SAPE   C2710472   3.845  -0.018   2.889  0.0500  0.0756  0.5235
  103SAPE   H7R10473   3.912   0.022   2.969  2.3063 -1.3025 -0.5796
  103SAPE   H7S10474   3.876  -0.124   2.879 -1.7682 -0.5925  1.4936
  103SAPE   C2810475   3.698   0.007   2.926 -0.1106 -0.2577  0.3155
  103SAPE   H8R10476   3.633  -0.002   2.837  0.4957 -0.9429 -0.0718
  103SAPE   C2910477   3.644   0.031   3.046 -0.1601 -0.5340 -0.8512
  103SAPE   H9R10478   3.535   0.046   3.047  0.0776  1.3127 -0.0768
  103SAPE  C21010479   3.712   0.028   3.184  0.1797  0.0610 -0.2439
  103SAPE  H10R10480   3.778  -0.061   3.187 -2.5422 -2.0590  1.6103
  103SAPE  H10S10481   3.631   0.002   3.255  1.2212 -2.3106  0.1670
  103SAPE  C21110482   3.788   0.151   3.225 -0.7150  0.2835  0.5729
  103SAPE  H11R10483   3.835   0.198   3.138 -0.1285 -2.7651 -0.9101
  103SAPE  C21210484   3.806   0.195   3.346  0.6940 -0.6605  0.1411
  103SAPE  H12R10485   3.863   0.288   3.359  0.2612 -0.3473 -0.1703
  103SAPE  C21310486   3.753   0.134   3.478 -0.6262  0.1373 -0.1759
  103SAPE  H13R10487   3.720   0.032   3.449 -1.3030  0.0290  0.8952
  103SAPE  H13S10488   3.659   0.190   3.499 -1.2698  0.6957 -3.9303
  103SAPE  C21410489   3.840   0.122   3.604 -0.3068 -0.1041  0.6007
  103SAPE  H14R10490   3.946   0.139   3.581 -0.6529 -2.1341 -3.1162
  103SAPE  C21510491   3.793   0.096   3.725 -0.4214  0.3650 -0.5198
  103SAPE  H15R10492   3.854   0.096   3.817 -0.5228  0.3596 -0.4519
  103SAPE  C21610493   3.649   0.065   3.750 -0.0577  0.6639  1.0145
  103SAPE  H16R10494   3.590   0.042   3.659  3.4274 -4.8960 -0.4177
  103SAPE  H16S10495   3.606   0.151   3.804 -0.5565  1.6198 -0.8495
  103SAPE  C21710496   3.620  -0.066   3.832  0.3317 -0.5363 -0.2560
  103SAPE  H17R10497   3.650  -0.164   3.789 -0.1282 -1.0336  0.5358
  103SAPE  H17S10498   3.513  -0.072   3.860  0.5459 -0.6155  0.5635
  103SAPE  C21810499   3.700  -0.061   3.970  0.3899  0.1771 -0.1596
  103SAPE  H18R10500   3.680   0.032   4.028  0.3406  1.3772 -2.0107
  103SAPE  H18S10501   3.804  -0.055   3.932  0.9734 -0.6927  1.2144
  103SAPE  C21910502   3.670  -0.180   4.061 -0.2968 -0.6645 -0.8153
  103SAPE  H19R10503   3.648  -0.271   4.000  0.5742 -1.4029 -0.0423
  103SAPE  H19S10504   3.591  -0.149   4.133  0.2136 -0.6293 -0.2670
  103SAPE  C22010505   3.794  -0.220   4.141  0.3337  0.2469  0.2944
  103SAPE  H20R10506   3.874  -0.262   4.076  0.1214  1.8938 -1.1222
  103SAPE  H20S10507   3.761  -0.308   4.200  0.2408  0.4628  0.5624
  103SAPE  H20T10508   3.827  -0.143   4.214  0.0694 -0.5827  1.3146
  103SAPE   C3310509   4.267   0.168   2.905 -0.4284  0.5735 -0.3035
  103SAPE   H3X10510   4.368   0.213   2.913 -1.0590  2.1998 -1.0700
  103SAPE   H3Y10511   4.282   0.059   2.890  0.1867  0.7331 -0.8840
  103SAPE   C3410512   4.199   0.204   3.033  0.6133  0.1541 -0.4767
  103SAPE   H4X10513   4.092   0.176   3.020 -0.2361  2.2885  1.2443
  103SAPE   H4Y10514   4.200   0.315   3.045  0.7226 -0.0081  1.4261
  103SAPE   C3510515   4.261   0.129   3.147 -0.1036  0.1903  0.0937
  103SAPE   H5X10516   4.367   0.162   3.150 -0.4579  1.4589 -0.5881
  103SAPE   H5Y10517   4.258   0.021   3.123 -1.8296  0.3361 -0.5059
  103SAPE   C3610518   4.197   0.143   3.286  0.3415  0.0741 -0.2787
  103SAPE   H6X10519   4.109   0.076   3.288  2.0982 -2.6413 -3.3077
  103SAPE   H6Y10520   4.164   0.248   3.302  0.0511 -0.2673  1.5043
  103SAPE   C3710521   4.289   0.112   3.394 -0.4159 -0.0812 -0.1467
  103SAPE   H7X10522   4.392   0.154   3.389  0.6580 -2.2433  1.5618
  103SAPE   H7Y10523   4.307   0.002   3.389  0.2889  0.0293 -0.0838
  103SAPE   C3810524   4.228   0.144   3.528 -0.5294  0.1290 -0.1600
  103SAPE   H8X10525   4.136   0.083   3.535 -0.9731  0.9814  3.0289
  103SAPE   H8Y10526   4.194   0.250   3.527 -0.1418  0.2554 -0.5352
  103SAPE   C3910527   4.319   0.109   3.653 -0.3606  0.2339  0.9918
  103SAPE   H9X10528   4.405   0.180   3.651 -0.1569 -0.0008  1.3609
  103SAPE   H9Y10529   4.353   0.005   3.635 -3.0242 -0.1132 -3.6078
  103SAPE  C31010530   4.249   0.125   3.783 -0.1726 -1.2648  0.6548
  103SAPE  H10X10531   4.164   0.054   3.791 -0.9149 -0.5396 -0.5448
  103SAPE  H10Y10532   4.205   0.227   3.792  0.9554 -0.6088 -0.9612
  103SAPE  C31110533   4.348   0.100   3.890 -1.1301  0.1441  0.0299
  103SAPE  H11X10534   4.427   0.178   3.888  1.4029 -2.2228  0.9374
  103SAPE  H11Y10535   4.397   0.001   3.874  2.0373  1.4258  1.0182
  103SAPE  C31210536   4.294   0.103   4.038  0.1032  0.1199 -0.4291
  103SAPE  H12X10537   4.301   0.209   4.073 -0.3808  0.2694 -0.7799
  103SAPE  H12Y10538   4.352   0.030   4.098 -2.0137 -1.4030 -0.1154
  103SAPE  C31310539   4.157   0.042   4.060 -0.3379 -0.3754  0.2803
  103SAPE  H13X10540   4.135  -0.054   4.008  1.3457 -1.8015  2.0950
  103SAPE  H13Y10541   4.076   0.111   4.027 -1.5149 -2.1388 -0.6525
  103SAPE  C31410542   4.144  -0.004   4.210  0.3252 -0.6173 -0.3244
  103SAPE  H14X10543   4.202  -0.099   4.224  1.2068  0.1036  1.1881
  103SAPE  H14Y10544   4.039  -0.036   4.229 -0.0948  1.0315  0.2857
  103SAPE  C31510545   4.181   0.116   4.296 -0.0673 -1.1223 -0.3423
  103SAPE  H15X10546   4.145   0.212   4.254  3.5762  1.0665  1.1127
  103SAPE  H15Y10547   4.291   0.128   4.292  0.0443 -1.5861  0.9060
  103SAPE  C31610548   4.105   0.108   4.432  0.2370 -0.5999 -0.2315
  103SAPE  H16X10549   4.161   0.044   4.503 -0.6752 -1.8163 -0.5662
  103SAPE  H16Y10550   4.003   0.065   4.425 -0.1075  0.2818 -0.9432
  103SAPE  C31710551   4.071   0.247   4.494  0.3761  0.1748 -0.0443
  103SAPE  H17X10552   4.034   0.238   4.598 -1.7870 -0.5651 -0.8422
  103SAPE  H17Y10553   3.985   0.288   4.436  0.1172  1.7074  1.3448
  103SAPE  C31810554   4.184   0.341   4.491 -0.7502 -0.0015  0.2694
  103SAPE  H18X10555   4.228   0.369   4.393 -0.0517  0.5153  0.7213
  103SAPE  H18Y10556   4.269   0.301   4.550 -0.7221 -1.5034 -0.7334
  103SAPE  H18Z10557   4.153   0.436   4.539  1.8404  1.3489 -0.5422
  104SAPE     N10558   5.838   5.134   2.103 -0.2767 -0.0093  0.8699
  104SAPE   HN110559   5.852   5.213   2.169  0.0864  0.4731  0.2368
  104SAPE   HN210560   5.931   5.089   2.087  0.6335  1.9766  0.1093
  104SAPE   HN310561   5.817   5.176   2.010  0.6477  0.1146  0.7070
  104SAPE   C1210562   5.721   5.050   2.142  0.5121  0.8021 -0.5126
  104SAPE  H12A10563   5.634   5.111   2.175 -0.8002  0.1015 -2.5060
  104SAPE  H12B10564   5.758   4.985   2.224 -1.5449  0.4921  0.2309
  104SAPE   C1110565   5.667   4.962   2.025  0.6031  0.0683 -0.4522
  104SAPE  H11A10566   5.612   5.033   1.959 -0.4933 -1.7368 -1.5751
  104SAPE  H11B10567   5.594   4.887   2.062  0.5394  0.5650  0.4389
  104SAPE     P10568   5.784   4.742   1.944  0.3933 -0.0696  0.3166
  104SAPE   O1310569   5.670   4.680   1.865  0.2031  0.1300 -0.3658
  104SAPE   O1410570   5.915   4.709   1.881  0.6447  0.3121  0.2518
  104SAPE   O1210571   5.774   4.898   1.952  0.0152 -0.2739 -0.4293
  104SAPE   O1110572   5.771   4.697   2.096  0.4514 -0.8946 -0.0999
  104SAPE    C110573   5.887   4.724   2.177  0.1341  0.2607  0.7127
  104SAPE    HA10574   5.953   4.637   2.158 -0.2039  0.4299 -1.4564
  104SAPE    HB10575   5.937   4.822   2.163 -0.6755  0.8178  1.5852
  104SAPE    C210576   5.852   4.726   2.326 -0.2961 -0.3692 -0.1454
  104SAPE    HS10577   5.819   4.621   2.344  0.6232 -0.9257 -1.5154
  104SAPE   O2110578   5.746   4.823   2.360  0.2168  0.5626  0.9528
  104SAPE   C2110579   5.642   4.774   2.417 -0.4886  0.3780  0.3229
  104SAPE   O2210580   5.620   4.662   2.461  0.0079  0.4871 -0.7365
  104SAPE   C2210581   5.543   4.887   2.434 -0.0765 -0.8181 -0.2703
  104SAPE   H2R10582   5.520   4.923   2.331  0.2981 -1.6539 -0.6593
  104SAPE   H2S10583   5.449   4.848   2.480 -1.1064  2.2979  0.4603
  104SAPE    C310584   5.976   4.747   2.412  0.5826  0.2391 -0.5643
  104SAPE    HX10585   6.009   4.851   2.392  0.3680  0.0062 -2.2068
  104SAPE    HY10586   6.059   4.687   2.370 -1.1697 -1.5437 -1.6185
  104SAPE   O3110587   5.956   4.725   2.557 -0.4077  0.0761  0.1447
  104SAPE   C3110588   6.066   4.701   2.629  0.0449  0.2748  0.2692
  104SAPE   O3210589   6.172   4.672   2.581 -0.0548  0.3344  0.0398
  104SAPE   C3210590   6.029   4.688   2.770 -0.0596 -0.1694 -0.0874
  104SAPE   H2X10591   6.067   4.778   2.824  0.9021 -1.3956  1.3887
  104SAPE   H2Y10592   6.084   4.605   2.821 -1.1840 -0.6575  0.3816
  104SAPE   C2310593   5.577   5.005   2.527 -0.2895  0.2946  0.3734
  104SAPE   H3R10594   5.489   5.071   2.536 -0.6070 -0.1294  0.4062
  104SAPE   H3S10595   5.668   5.052   2.485 -0.7378  1.8382  1.0781
  104SAPE   C2410596   5.630   4.972   2.672 -0.0804  0.2737  0.0561
  104SAPE   H4R10597   5.635   5.070   2.725  3.7229 -0.9407  2.3312
  104SAPE   H4S10598   5.736   4.939   2.659  0.2613  1.5418 -0.5533
  104SAPE   C2510599   5.544   4.874   2.759 -0.9908 -0.1032  0.4269
  104SAPE   H5R10600   5.560   4.769   2.732  0.7116  0.0567  0.6745
  104SAPE   C2610601   5.439   4.905   2.839  0.2228  0.0388 -0.0326
  104SAPE   H6R10602   5.388   4.826   2.897  1.6708  0.9221  2.6034
  104SAPE   C2710603   5.402   5.046   2.873  0.5977  0.1126 -0.0915
  104SAPE   H7R10604   5.437   5.113   2.791 -1.7705  0.6790 -0.7168
  104SAPE   H7S10605   5.466   5.077   2.959  2.7177  0.8249 -1.8093
  104SAPE   C2810606   5.257   5.064   2.900 -0.8149  0.5501  0.1239
  104SAPE   H8R10607   5.203   5.121   2.822 -2.2469  1.1231  1.4900
  104SAPE   C2910608   5.190   5.021   3.009 -0.2015 -0.2849 -0.3206
  104SAPE   H9R10609   5.083   5.040   2.998 -0.1466 -0.3484 -1.0041
  104SAPE  C21010610   5.235   4.954   3.132 -0.6225 -0.5131 -0.4610
  104SAPE  H10R10611   5.257   5.030   3.210  0.6603 -0.3415 -0.9712
  104SAPE  H10S10612   5.335   4.906   3.131 -1.1952 -1.7696  0.3804
  104SAPE  C21110613   5.128   4.858   3.177  0.4165  0.0325  0.3770
  104SAPE  H11R10614   5.091   4.800   3.091 -0.4740  0.3570  0.5347
  104SAPE  C21210615   5.088   4.831   3.299 -0.0886  0.3497 -0.0731
  104SAPE  H12R10616   5.011   4.753   3.309  0.4438 -0.2526 -0.6167
  104SAPE  C21310617   5.121   4.895   3.432 -0.0986  0.3559  0.1381
  104SAPE  H13R10618   5.031   4.895   3.497  1.0647 -0.2396  1.7996
  104SAPE  H13S10619   5.146   5.003   3.430  0.6306  0.2117  0.7336
  104SAPE  C21410620   5.225   4.818   3.512 -0.0365 -0.0097  0.3643
  104SAPE  H14R10621   5.317   4.811   3.453  0.7001  0.0797  1.4799
  104SAPE  C21510622   5.223   4.785   3.643  0.3384 -0.4756 -0.2048
  104SAPE  H15R10623   5.308   4.726   3.681  0.0903 -0.7688 -0.1108
  104SAPE  C21610624   5.099   4.798   3.736 -0.5040 -0.2358 -0.5600
  104SAPE  H16R10625   5.019   4.720   3.732 -0.9653  0.2182 -4.3880
  104SAPE  H16S10626   5.041   4.890   3.713  0.3617  0.1355 -1.3370
  104SAPE  C21710627   5.153   4.813   3.880 -0.2424  0.1888  0.4778
  104SAPE  H17R10628   5.223   4.899   3.893  0.5860 -0.6528  1.7679
  104SAPE  H17S10629   5.208   4.719   3.899  2.4787  0.9506 -2.6102
  104SAPE  C21810630   5.040   4.836   3.976  0.7845 -0.9787  0.1304
  104SAPE  H18R10631   5.066   4.824   4.083  0.6103 -0.3020  0.2544
  104SAPE  H18S10632   4.962   4.758   3.964  2.4505 -2.4512 -1.8544
  104SAPE  C21910633   4.956   4.961   3.957 -0.2118  0.4919  0.0124
  104SAPE  H19R10634   4.891   4.966   4.047  0.3280 -1.1688  0.5354
  104SAPE  H19S10635   4.894   4.949   3.866 -1.0149 -2.3452  0.8102
  104SAPE  C22010636   5.037   5.082   3.954 -0.1203 -0.2888  0.2903
  104SAPE  H20R10637   5.121   5.070   3.882  0.7747 -0.5277  1.3581
  104SAPE  H20S10638   5.070   5.107   4.057  0.6968  1.4822 -0.3538
  104SAPE  H20T10639   4.976   5.172   3.932 -1.7540 -0.4881  3.4275
  104SAPE   C3310640   5.883   4.655   2.799 -0.0496  0.0441 -1.0639
  104SAPE   H3X10641   5.821   4.728   2.743 -1.1839  0.7701  1.0216
  104SAPE   H3Y10642   5.865   4.677   2.906  1.3841  1.9778 -1.1652
  104SAPE   C3410643   5.839   4.509   2.771  0.1159  0.6195  0.7679
  104SAPE   H4X10644   5.898   4.444   2.839  0.9579 -2.0400 -2.2566
  104SAPE   H4Y10645   5.855   4.486   2.663  2.3197  2.4106  0.6433
  104SAPE   C3510646   5.698   4.482   2.809  0.6936 -0.4699 -0.1877
  104SAPE   H5X10647   5.675   4.380   2.772  2.1467 -0.4519 -1.2488
  104SAPE   H5Y10648   5.637   4.555   2.752  0.0457 -1.1492 -0.3784
  104SAPE   C3610649   5.658   4.498   2.956 -0.0810  0.3736 -0.3775
  104SAPE   H6X10650   5.660   4.606   2.980 -0.5673  0.3157 -0.0713
  104SAPE   H6Y10651   5.734   4.456   3.026  0.4194 -0.4343 -1.3700
  104SAPE   C3710652   5.527   4.427   2.988 -0.5249 -0.2413 -0.0990
  104SAPE   H7X10653   5.519   4.324   2.947 -1.0304  1.1310 -3.8176
  104SAPE   H7Y10654   5.441   4.477   2.938  1.6586  3.4155 -0.5647
  104SAPE   C3810655   5.497   4.422   3.143  0.5377 -0.6726 -0.4875
  104SAPE   H8X10656   5.577   4.360   3.189  1.9710 -0.6941 -2.8729
  104SAPE   H8Y10657   5.399   4.372   3.163 -2.3003  5.1691  3.0997
  104SAPE   C3910658   5.472   4.558   3.213 -0.6359  0.0881  0.7302
  104SAPE   H9X10659   5.375   4.595   3.174  0.2868 -0.6870 -2.5871
  104SAPE   H9Y10660   5.551   4.624   3.172  2.6304 -4.2820 -0.7531
  104SAPE  C31010661   5.478   4.553   3.365  0.4596  0.2422  0.6055
  104SAPE  H10X10662   5.402   4.481   3.402 -0.1176 -1.0960 -2.8571
  104SAPE  H10Y10663   5.452   4.652   3.409  1.8137  1.7626 -1.8315
  104SAPE  C31110664   5.616   4.510   3.420  0.5709  0.6778  0.4516
  104SAPE  H11X10665   5.690   4.592   3.418  1.3680 -0.0286  0.1657
  104SAPE  H11Y10666   5.644   4.416   3.366  0.0938  0.3369  0.7851
  104SAPE  C31210667   5.623   4.472   3.569 -0.1062  0.1787  0.1064
  104SAPE  H12X10668   5.731   4.458   3.594 -0.4819 -2.6780  0.4755
  104SAPE  H12Y10669   5.581   4.370   3.573  2.2889 -0.9326 -1.0164
  104SAPE  C31310670   5.557   4.571   3.670 -0.1021  0.1169  0.8168
  104SAPE  H13X10671   5.449   4.572   3.645  0.6065  1.8323 -2.7643
  104SAPE  H13Y10672   5.594   4.675   3.658  1.1534 -0.3069  0.8933
  104SAPE  C31410673   5.593   4.538   3.816 -0.0572  0.1963  0.3444
  104SAPE  H14X10674   5.601   4.633   3.873 -1.8771  1.4568 -1.3608
  104SAPE  H14Y10675   5.693   4.489   3.818 -0.4743 -0.7758 -1.0793
  104SAPE  C31510676   5.485   4.445   3.865  0.2020  0.0159  0.1584
  104SAPE  H15X10677   5.518   4.341   3.848  0.1121 -0.0852  0.5906
  104SAPE  H15Y10678   5.387   4.460   3.815 -0.7666 -3.0182  0.9394
  104SAPE  C31610679   5.445   4.482   4.017  0.0561 -0.7197 -0.2044
  104SAPE  H16X10680   5.349   4.431   4.043 -0.8628  0.5034 -1.1044
  104SAPE  H16Y10681   5.423   4.590   4.015 -0.2900 -0.7953 -0.5171
  104SAPE  C31710682   5.568   4.454   4.114  0.3881 -0.2731  0.0015
  104SAPE  H17X10683   5.643   4.532   4.091 -0.2815  0.6034  0.7515
  104SAPE  H17Y10684   5.602   4.351   4.089  1.7783 -0.0439  0.8630
  104SAPE  C31810685   5.528   4.471   4.258  0.2359  0.0280 -0.2056
  104SAPE  H18X10686   5.495   4.577   4.269  2.5544  0.8054 -0.1651
  104SAPE  H18Y10687   5.620   4.459   4.319  1.1614 -0.3862 -1.6292
  104SAPE  H18Z10688   5.444   4.401   4.277  1.2253 -1.2240 -0.2864
  105SAPE     N10689   2.537   2.733   2.269 -0.7917 -1.0492  0.3845
  105SAPE   HN110690   2.494   2.807   2.210  1.2431 -1.4960 -1.8193
  105SAPE   HN210691   2.606   2.790   2.322 -0.9158 -0.7822  0.2582
  105SAPE   HN310692   2.592   2.665   2.213  3.5148  0.0120  2.8718
  105SAPE   C1210693   2.445   2.656   2.362  0.1247 -0.1809  0.1186
  105SAPE  H12A10694   2.344   2.677   2.321  0.2249 -0.1805 -0.1330
  105SAPE  H12B10695   2.440   2.708   2.459 -1.6202 -1.6678  0.8826
  105SAPE   C1110696   2.487   2.503   2.358  0.4284 -0.3721  0.1073
  105SAPE  H11A10697   2.463   2.452   2.454  0.2617 -0.0499  0.2377
  105SAPE  H11B10698   2.597   2.492   2.345  0.5807  1.6049 -0.5120
  105SAPE     P10699   2.279   2.390   2.253  0.2512 -0.0182  0.3598
  105SAPE   O1310700   2.200   2.460   2.147  0.4370  0.0337 -0.1288
  105SAPE   O1410701   2.283   2.246   2.246  0.3782 -0.1970 -0.4796
  105SAPE   O1210702   2.421   2.454   2.245 -0.4214  0.4826  0.5080
  105SAPE   O1110703   2.223   2.436   2.390 -0.2715  0.2853 -0.0781
  105SAPE    C110704   2.091   2.491   2.403 -0.3077 -0.6914  0.3255
  105SAPE    HA10705   2.090   2.592   2.359 -1.4636 -0.7601  0.1683
  105SAPE    HB10706   2.012   2.441   2.344 -0.1461  0.3010 -0.7617
  105SAPE    C210707   2.037   2.504   2.556  0.2090 -0.3628 -0.5034
  105SAPE    HS10708   1.947   2.568   2.562  1.2133  1.2060 -1.3211
  105SAPE   O2110709   2.141   2.559   2.642  0.5367 -0.1806  0.2545
  105SAPE   C2110710   2.170   2.689   2.616  0.4229 -0.6184  0.2805
  105SAPE   O2210711   2.118   2.750   2.528  0.4041 -0.2313  0.2690
  105SAPE   C2210712   2.272   2.749   2.713 -0.0080 -0.3945  0.8497
  105SAPE   H2R10713   2.212   2.745   2.806 -2.4981  0.7973 -0.6070
  105SAPE   H2S10714   2.361   2.683   2.719  1.9492  2.1544  1.9560
  105SAPE    C310715   1.989   2.365   2.614 -0.0165 -0.7312  0.4727
  105SAPE    HX10716   2.079   2.300   2.617  2.1553  2.1358  1.3035
  105SAPE    HY10717   1.907   2.316   2.556 -0.4751 -0.8261  1.1915
  105SAPE   O3110718   1.949   2.384   2.749  0.0574 -0.0011 -0.3898
  105SAPE   C3110719   1.920   2.271   2.812 -0.4629 -1.3933 -0.5436
  105SAPE   O3210720   1.914   2.160   2.764  0.1539 -0.6496  0.0180
  105SAPE   C3210721   1.888   2.302   2.963 -0.3745 -0.2129  0.0638
  105SAPE   H2X10722   1.806   2.376   2.971 -1.2976 -1.0138 -1.4436
  105SAPE   H2Y10723   1.989   2.335   2.994  1.3243 -1.0977 -3.8663
  105SAPE   C2310724   2.316   2.886   2.683 -0.3117 -0.1291 -0.4633
  105SAPE   H3R10725   2.236   2.963   2.670  0.1663  0.9021  2.1329
  105SAPE   H3S10726   2.372   2.902   2.589  1.7402 -0.7571  0.5845
  105SAPE   C2410727   2.408   2.932   2.797 -0.6444  0.3359  0.2156
  105SAPE   H4R10728   2.453   3.029   2.767  2.7928 -0.6022  1.8068
  105SAPE   H4S10729   2.497   2.866   2.803 -0.6748  0.3109  0.4181
  105SAPE   C2510730   2.338   2.939   2.926  0.0177 -0.0832  0.6946
  105SAPE   H5R10731   2.267   3.022   2.938  0.9031  0.4693  2.3930
  105SAPE   C2610732   2.356   2.860   3.035  0.6843 -0.8118  0.0288
  105SAPE   H6R10733   2.288   2.881   3.120  2.7945  0.4572  1.4886
  105SAPE   C2710734   2.462   2.761   3.053  0.3026  0.6007  0.4561
  105SAPE   H7R10735   2.547   2.808   3.107  0.5908 -0.3447  0.8543
  105SAPE   H7S10736   2.505   2.740   2.953 -3.2604  1.3444 -1.4188
  105SAPE   C2810737   2.420   2.629   3.112 -0.1055  0.0198  0.4573
  105SAPE   H8R10738   2.402   2.548   3.040  2.6762  1.0797 -1.6229
  105SAPE   C2910739   2.396   2.609   3.241  0.4463  0.3776  0.2537
  105SAPE   H9R10740   2.367   2.508   3.271  1.4447  0.5507  1.8804
  105SAPE  C21010741   2.404   2.704   3.359 -0.7625  0.6448 -0.1706
  105SAPE  H10R10742   2.308   2.756   3.382 -0.3949  0.4463  2.0190
  105SAPE  H10S10743   2.479   2.783   3.336 -0.9040  0.6522 -0.6080
  105SAPE  C21110744   2.456   2.629   3.481  0.2939  0.4464  0.4100
  105SAPE  H11R10745   2.552   2.580   3.458  0.5920  1.7002 -1.2355
  105SAPE  C21210746   2.407   2.620   3.609 -0.4166  0.4373 -0.2505
  105SAPE  H12R10747   2.436   2.538   3.677 -1.2250  0.7218  0.4584
  105SAPE  C21310748   2.277   2.666   3.660 -0.2370 -0.2164 -0.7088
  105SAPE  H13R10749   2.210   2.582   3.688 -1.6188  1.4805  1.4189
  105SAPE  H13S10750   2.228   2.724   3.580 -1.0174  0.7617  0.4501
  105SAPE  C21410751   2.303   2.769   3.773 -0.4678 -0.4493  0.3727
  105SAPE  H14R10752   2.332   2.867   3.732  0.2772 -1.3239 -1.2828
  105SAPE  C21510753   2.304   2.752   3.904 -0.2990 -0.4081 -0.0110
  105SAPE  H15R10754   2.346   2.835   3.962 -0.2344  0.0345 -0.6764
  105SAPE  C21610755   2.264   2.636   3.988 -0.3414 -0.1277  0.9996
  105SAPE  H16R10756   2.351   2.606   4.051  0.4847  2.4957  1.2440
  105SAPE  H16S10757   2.222   2.544   3.944  0.3765  0.7764 -1.8172
  105SAPE  C21710758   2.145   2.681   4.079  0.3497 -0.2262  0.3334
  105SAPE  H17R10759   2.063   2.698   4.006  0.7605 -1.3855 -0.4322
  105SAPE  H17S10760   2.174   2.773   4.133 -0.6454  0.2329  0.1130
  105SAPE  C21810761   2.113   2.568   4.179 -0.8676  0.7535 -0.0245
  105SAPE  H18R10762   2.200   2.517   4.226 -0.5653 -0.2928 -1.6343
  105SAPE  H18S10763   2.071   2.489   4.112 -0.8609  1.1326 -0.4779
  105SAPE  C21910764   2.009   2.592   4.287 -0.2731 -0.7396 -0.1403
  105SAPE  H19R10765   2.034   2.677   4.354  1.1655  0.3263 -1.9187
  105SAPE  H19S10766   1.980   2.504   4.348  0.4619  0.9124  2.7680
  105SAPE  C22010767   1.877   2.648   4.228 -0.3469  0.0498  0.3139
  105SAPE  H20R10768   1.903   2.743   4.177  0.9088 -0.1731  0.5158
  105SAPE  H20S10769   1.820   2.669   4.321  2.5152 -0.1236  2.2149
  105SAPE  H20T10770   1.821   2.570   4.172  0.1675 -1.6393  2.0103
  105SAPE   C3310771   1.842   2.171   3.028  0.1709 -0.0670  0.0519
  105SAPE   H3X10772   1.921   2.095   3.009  2.3006  2.2961 -1.1538
  105SAPE   H3Y10773   1.743   2.151   2.981 -0.7091  0.5793  1.5706
  105SAPE   C3410774   1.826   2.191   3.175  0.2494 -0.2693  0.6605
  105SAPE   H4X10775   1.920   2.229   3.222  1.4279 -1.3569 -0.7268
  105SAPE   H4Y10776   1.803   2.087   3.206 -0.3039 -0.5274 -0.5700
  105SAPE   C3510777   1.712   2.289   3.209 -0.0471  0.0905  0.2027
  105SAPE   H5X10778   1.624   2.267   3.145 -1.5102  3.4712  0.8127
  105SAPE   H5Y10779   1.750   2.391   3.185  1.9051 -0.9289 -1.3386
  105SAPE   C3610780   1.659   2.268   3.351  0.6546 -0.6887  0.2833
  105SAPE   H6X10781   1.648   2.160   3.374  0.8480 -0.4492  1.6009
  105SAPE   H6Y10782   1.562   2.321   3.358  1.3032  0.9434 -1.8855
  105SAPE   C3710783   1.748   2.321   3.455 -0.1053 -0.1076 -0.1198
  105SAPE   H7X10784   1.778   2.426   3.437  0.0873 -0.0040  0.7612
  105SAPE   H7Y10785   1.842   2.261   3.463 -0.6820 -1.0037  0.1478
  105SAPE   C3810786   1.674   2.302   3.594 -0.5644  0.6718 -0.1326
  105SAPE   H8X10787   1.635   2.199   3.611 -1.7132  1.1548  0.2473
  105SAPE   H8Y10788   1.586   2.370   3.587 -0.5659  1.2140  3.4280
  105SAPE   C3910789   1.765   2.335   3.711  0.9144  0.1267 -0.9360
  105SAPE   H9X10790   1.839   2.415   3.693  1.1520  0.8033  2.4157
  105SAPE   H9Y10791   1.817   2.242   3.742 -1.5833 -0.4888  1.9808
  105SAPE  C31010792   1.692   2.392   3.841  0.0732  0.1144  0.4272
  105SAPE  H10X10793   1.628   2.478   3.809 -0.9216  0.1385  2.3579
  105SAPE  H10Y10794   1.769   2.440   3.905  1.2919 -0.1854 -0.7623
  105SAPE  C31110795   1.611   2.289   3.927  0.2200 -0.7716 -0.0277
  105SAPE  H11X10796   1.691   2.240   3.987  1.0639  1.7991  1.0908
  105SAPE  H11Y10797   1.559   2.212   3.866  0.3399 -2.5658  2.0218
  105SAPE  C31210798   1.498   2.353   4.012 -0.4338 -0.0869 -0.1729
  105SAPE  H12X10799   1.426   2.396   3.939 -0.4072  1.9404  0.9147
  105SAPE  H12Y10800   1.540   2.436   4.072  0.9164  0.7555 -2.1965
  105SAPE  C31310801   1.423   2.250   4.096 -0.7644 -0.0780 -0.1853
  105SAPE  H13X10802   1.504   2.197   4.151 -0.2938 -0.8418 -1.5792
  105SAPE  H13Y10803   1.367   2.192   4.020 -0.5359 -1.3490  0.5870
  105SAPE  C31410804   1.324   2.308   4.197 -0.0342  0.0545  0.4344
  105SAPE  H14X10805   1.248   2.360   4.136 -0.5170 -2.0180 -0.8301
  105SAPE  H14Y10806   1.374   2.375   4.271  0.8104  0.1827 -0.2433
  105SAPE  C31510807   1.263   2.196   4.279  0.5352  0.8791 -0.7176
  105SAPE  H15X10808   1.236   2.106   4.220  1.8724 -0.1112  0.1161
  105SAPE  H15Y10809   1.164   2.234   4.311  0.3047 -1.2910  1.5725
  105SAPE  C31610810   1.356   2.168   4.404  0.1424  0.2429 -0.8239
  105SAPE  H16X10811   1.367   2.262   4.462 -0.1047  0.5434 -1.2653
  105SAPE  H16Y10812   1.459   2.142   4.374 -0.1567 -0.8910 -0.9259
  105SAPE  C31710813   1.317   2.050   4.492 -0.3268 -0.4416  0.1702
  105SAPE  H17X10814   1.360   1.953   4.458  0.7332 -0.3919  1.3208
  105SAPE  H17Y10815   1.208   2.048   4.512 -0.2683  1.7470  1.0343
  105SAPE  C31810816   1.369   2.058   4.637 -0.2470 -0.8860  0.3487
  105SAPE  H18X10817   1.480   2.043   4.635 -0.1959 -0.5783  0.8549
  105SAPE  H18Y10818   1.315   1.981   4.695 -0.1945 -1.1957 -0.0077
  105SAPE  H18Z10819   1.356   2.163   4.669  0.8368 -1.1649  1.7922
  106SAPE     N10820   2.058   5.008   2.121  0.0529 -0.6297 -0.2335
  106SAPE   HN110821   2.023   4.922   2.168 -1.9860 -1.1785 -2.5378
  106SAPE   HN210822   1.987   5.040   2.051  0.5305  1.6431  0.2165
  106SAPE   HN310823   2.141   4.969   2.072  1.2990 -2.8195  3.3044
  106SAPE   C1210824   2.090   5.116   2.220 -0.1195  0.3221 -0.4707
  106SAPE  H12A10825   2.157   5.073   2.298 -1.6140  3.1124  2.5689
  106SAPE  H12B10826   1.998   5.162   2.261 -0.5137  0.2171 -1.2096
  106SAPE   C1110827   2.164   5.229   2.153  0.1675 -0.3074  0.3686
  106SAPE  H11A10828   2.261   5.183   2.127 -0.6578 -1.5819 -0.6102
  106SAPE  H11B10829   2.185   5.311   2.224 -2.0463  0.6869 -0.0253
  106SAPE     P10830   1.994   5.399   2.045  0.0040 -0.0534  0.1876
  106SAPE   O1310831   2.073   5.516   2.089 -0.0157 -0.6128 -0.2148
  106SAPE   O1410832   1.920   5.417   1.915 -0.0428 -0.4106 -0.2171
  106SAPE   O1210833   2.099   5.282   2.032  0.1319  0.1839  0.2320
  106SAPE   O1110834   1.889   5.343   2.147 -0.3456 -0.3143 -0.0409
  106SAPE    C110835   1.828   5.429   2.246 -0.2654  1.0244 -0.5006
  106SAPE    HA10836   1.800   5.522   2.192 -1.9843 -0.4185 -2.2513
  106SAPE    HB10837   1.736   5.378   2.281  1.0238  0.1098  1.8057
  106SAPE    C210838   1.910   5.461   2.371 -0.0202  0.4474 -0.0477
  106SAPE    HS10839   1.997   5.518   2.331 -0.0817  0.6956  0.1691
  106SAPE   O2110840   1.962   5.346   2.440 -0.0422  0.2311 -0.2949
  106SAPE   C2110841   2.075   5.361   2.516  0.1510 -0.4692  0.7853
  106SAPE   O2210842   2.161   5.451   2.502  0.6483  0.2762  0.0713
  106SAPE   C2210843   2.100   5.240   2.606 -0.5813 -0.4501 -0.4016
  106SAPE   H2R10844   2.128   5.159   2.536 -0.6238 -0.3838 -0.4962
  106SAPE   H2S10845   2.199   5.250   2.655 -0.6419  1.2966 -0.5621
  106SAPE    C310846   1.841   5.558   2.472  0.7452  0.1792  0.8974
  106SAPE    HX10847   1.751   5.504   2.508  1.3098 -1.1620  0.3760
  106SAPE    HY10848   1.792   5.638   2.414  2.4253 -0.3969 -1.4929
  106SAPE   O3110849   1.930   5.601   2.580 -0.0560  0.2354  0.3929
  106SAPE   C3110850   1.916   5.720   2.626  0.6183 -0.0768 -0.0113
  106SAPE   O3210851   1.822   5.794   2.600 -0.0713 -0.1902  0.3971
  106SAPE   C3210852   2.034   5.754   2.723 -0.2242  0.1646 -0.0060
  106SAPE   H2X10853   2.073   5.846   2.675  0.9192 -0.0565  0.4637
  106SAPE   H2Y10854   2.111   5.675   2.709  1.4596  1.6889  0.2817
  106SAPE   C2310855   1.978   5.211   2.698 -0.4110  0.1044 -0.5240
  106SAPE   H3R10856   1.903   5.150   2.643 -0.9236 -0.0539  0.3344
  106SAPE   H3S10857   1.920   5.299   2.731 -1.4661 -1.1013  0.9897
  106SAPE   C2410858   2.019   5.139   2.827 -1.0628 -0.1429  0.6908
  106SAPE   H4R10859   2.078   5.208   2.892 -0.1561 -0.4182  0.1791
  106SAPE   H4S10860   2.084   5.052   2.806  0.6441  1.6070 -1.9285
  106SAPE   C2510861   1.910   5.098   2.920  0.7432 -0.2772 -0.5085
  106SAPE   H5R10862   1.829   5.172   2.915  0.6524 -0.4570 -2.1663
  106SAPE   C2610863   1.898   4.989   2.995 -0.7651 -0.0449 -0.3029
  106SAPE   H6R10864   1.812   4.969   3.060 -0.4482 -0.7093 -0.0732
  106SAPE   C2710865   2.007   4.883   3.003  0.0500  0.3596  0.5635
  106SAPE   H7R10866   2.102   4.930   2.968 -0.7060 -0.7178 -3.4775
  106SAPE   H7S10867   1.984   4.800   2.933 -0.7595  0.8060  0.2959
  106SAPE   C2810868   2.048   4.834   3.138  0.9739 -0.2345 -0.8207
  106SAPE   H8R10869   2.095   4.909   3.203  1.0259  0.0102 -1.1376
  106SAPE   C2910870   2.040   4.704   3.175  0.1849 -0.3644 -0.2315
  106SAPE   H9R10871   2.068   4.668   3.275  0.5157 -0.7559 -0.4637
  106SAPE  C21010872   1.984   4.595   3.083  0.2955 -0.4932 -0.6840
  106SAPE  H10R10873   2.061   4.568   3.008  0.2620 -0.7950 -0.6097
  106SAPE  H10S10874   1.898   4.644   3.033  0.1273 -1.1380 -1.0325
  106SAPE  C21110875   1.924   4.477   3.156 -0.6733  0.0184  0.2083
  106SAPE  H11R10876   1.850   4.515   3.228 -1.3470 -1.8162  0.5365
  106SAPE  C21210877   1.953   4.346   3.153 -0.6637 -0.3643  0.1440
  106SAPE  H12R10878   1.882   4.276   3.200 -1.0247 -0.5719 -0.6967
  106SAPE  C21310879   2.061   4.272   3.078  0.3661  0.2188  1.2745
  106SAPE  H13R10880   2.165   4.297   3.107  0.7114  0.2456  0.0558
  106SAPE  H13S10881   2.053   4.299   2.970 -1.0250 -4.6073 -0.1034
  106SAPE  C21410882   2.044   4.114   3.087  0.6649 -0.3067  0.1366
  106SAPE  H14R10883   1.999   4.071   2.996  0.8692 -0.2837  0.0256
  106SAPE  C21510884   2.050   4.038   3.200 -0.0712 -0.3723  0.4834
  106SAPE  H15R10885   2.025   3.931   3.192 -0.0384 -0.7064  3.7297
  106SAPE  C21610886   2.088   4.094   3.341  0.2039  0.3008 -0.7437
  106SAPE  H16R10887   1.993   4.104   3.398 -0.9508 -0.9073 -2.3415
  106SAPE  H16S10888   2.121   4.200   3.335  0.5511  0.2093 -0.4088
  106SAPE  C21710889   2.183   4.005   3.421  0.4794  0.4851 -0.0590
  106SAPE  H17R10890   2.263   3.964   3.357  0.2139  0.0419 -0.1083
  106SAPE  H17S10891   2.128   3.918   3.462  1.9305 -0.0343  0.8687
  106SAPE  C21810892   2.233   4.076   3.552  0.2327 -0.0017  0.1157
  106SAPE  H18R10893   2.315   4.148   3.532 -0.3228  0.5386 -0.2298
  106SAPE  H18S10894   2.265   4.002   3.629  1.2440  0.9723  0.6574
  106SAPE  C21910895   2.119   4.144   3.620 -0.2317  0.3141 -0.1257
  106SAPE  H19R10896   2.026   4.082   3.620  0.4460 -0.7671  1.5050
  106SAPE  H19S10897   2.088   4.233   3.561 -1.1028  1.2084  1.6212
  106SAPE  C22010898   2.158   4.182   3.762  0.3014  0.5268  0.5615
  106SAPE  H20R10899   2.092   4.255   3.814  0.6014  0.7720  0.5986
  106SAPE  H20S10900   2.260   4.224   3.775 -0.1839  1.4657  1.4978
  106SAPE  H20T10901   2.167   4.085   3.816 -0.8939 -1.0550 -1.8969
  106SAPE   C3310902   1.988   5.774   2.869 -0.7087 -0.3771  0.0112
  106SAPE   H3X10903   1.897   5.835   2.886 -0.4481 -0.1014  0.4250
  106SAPE   H3Y10904   2.072   5.834   2.912  0.1287 -0.4519 -1.4533
  106SAPE   C3410905   1.971   5.648   2.960  0.8456 -0.1058 -0.3706
  106SAPE   H4X10906   2.065   5.588   2.951  3.7223  4.0262 -0.4822
  106SAPE   H4Y10907   1.888   5.592   2.912  0.5964  0.4746 -0.6214
  106SAPE   C3510908   1.944   5.680   3.104 -0.3340 -0.0073 -0.0283
  106SAPE   H5X10909   1.840   5.715   3.117  0.3616  2.6568 -0.8932
  106SAPE   H5Y10910   2.000   5.769   3.141  0.8267 -0.4170 -0.7445
  106SAPE   C3610911   1.986   5.570   3.195  0.5342  0.4023  0.7947
  106SAPE   H6X10912   1.964   5.596   3.301  0.6694  1.7684  0.5021
  106SAPE   H6Y10913   2.096   5.555   3.197  0.3356 -1.3111  3.5275
  106SAPE   C3710914   1.898   5.444   3.172  0.5404  0.1917 -0.6047
  106SAPE   H7X10915   1.897   5.428   3.062  0.6514 -1.5123 -0.3853
  106SAPE   H7Y10916   1.791   5.457   3.199  0.8529  1.4607  0.0771
  106SAPE   C3810917   1.936   5.311   3.242  0.5716 -0.5456  0.2168
  106SAPE   H8X10918   2.039   5.281   3.213  0.7271 -0.1405  0.3472
  106SAPE   H8Y10919   1.858   5.237   3.214  0.0063  0.3686 -0.7400
  106SAPE   C3910920   1.934   5.335   3.398 -0.2834  0.2399 -0.1849
  106SAPE   H9X10921   2.026   5.388   3.432  1.7471 -1.9107 -2.0085
  106SAPE   H9Y10922   1.948   5.231   3.434  1.9221  0.0956 -1.2820
  106SAPE  C31010923   1.807   5.392   3.465 -0.3873 -0.0363  0.4414
  106SAPE  H10X10924   1.719   5.342   3.420 -0.3146 -0.1142  0.3843
  106SAPE  H10Y10925   1.804   5.502   3.458  2.9919  0.1057 -1.1640
  106SAPE  C31110926   1.803   5.360   3.617  0.1821  0.3446  0.4970
  106SAPE  H11X10927   1.831   5.253   3.625 -0.8413  0.1760  2.1222
  106SAPE  H11Y10928   1.704   5.374   3.665  0.1436 -0.7521  0.7465
  106SAPE  C31210929   1.899   5.463   3.693  0.2132 -0.1395  0.2925
  106SAPE  H12X10930   1.864   5.567   3.679 -0.1077 -0.5297 -2.5156
  106SAPE  H12Y10931   1.999   5.445   3.649 -0.1765  1.1026 -1.1868
  106SAPE  C31310932   1.908   5.440   3.846 -1.2264 -0.1561  0.2051
  106SAPE  H13X10933   1.826   5.478   3.910 -0.9895  1.7302 -0.5522
  106SAPE  H13Y10934   1.993   5.493   3.895 -2.1774 -0.1690  1.9533
  106SAPE  C31410935   1.932   5.295   3.883  0.2287  1.4913  0.2143
  106SAPE  H14X10936   1.842   5.236   3.857  1.6315  0.0152 -1.5699
  106SAPE  H14Y10937   1.942   5.279   3.993 -2.3489 -0.1472  0.2934
  106SAPE  C31510938   2.053   5.221   3.812  0.1907  0.8369  0.2505
  106SAPE  H15X10939   2.147   5.272   3.842  0.6079  1.9282 -2.5536
  106SAPE  H15Y10940   2.053   5.240   3.702  1.5788  2.2943  0.4599
  106SAPE  C31610941   2.053   5.066   3.837 -0.1746  0.0374  0.0506
  106SAPE  H16X10942   2.159   5.038   3.817 -0.2195  0.7909 -1.4876
  106SAPE  H16Y10943   1.986   5.020   3.761  0.7995  0.9173 -1.4147
  106SAPE  C31710944   2.006   5.029   3.982  0.2387  0.2210 -0.0560
  106SAPE  H17X10945   1.902   5.066   3.979  0.4033  0.7879 -4.2366
  106SAPE  H17Y10946   2.070   5.084   4.055  0.4550 -0.7957  0.5356
  106SAPE  C31810947   2.012   4.876   4.017 -0.4902 -0.1841  0.3441
  106SAPE  H18X10948   1.945   4.846   4.101  0.2990 -1.7163  0.4668
  106SAPE  H18Y10949   2.112   4.831   4.036 -1.3054 -2.3041 -0.0499
  106SAPE  H18Z10950   1.970   4.815   3.934 -2.6918  1.0279  0.5101
  107SAPE     N10951   0.290   3.156   2.223  0.1198  0.2665  0.6382
  107SAPE   HN110952   0.385   3.117   2.241  0.9474  1.1199 -1.4722
  107SAPE   HN210953   0.253   3.094   2.148  0.8690  0.5682 -0.0123
  107SAPE   HN310954   0.292   3.255   2.190 -1.8413  0.2123  0.2438
  107SAPE   C1210955   0.198   3.136   2.337 -0.9263  0.0594 -0.3163
  107SAPE  H12A10956   0.230   3.206   2.417 -0.9968 -0.3980  0.1226
  107SAPE  H12B10957   0.196   3.026   2.353 -0.3194  0.1076  0.1007
  107SAPE   C1110958   0.053   3.169   2.301 -0.0591  0.1270 -0.3594
  107SAPE  H11A10959  -0.007   3.159   2.394  0.1929  0.3669 -0.1713
  107SAPE  H11B10960   0.014   3.110   2.215 -0.2734  1.1666 -0.9966
  107SAPE     P10961  -0.091   3.376   2.270  0.4069  0.1821  0.2674
  107SAPE   O1310962  -0.080   3.518   2.223  0.5062 -0.3856 -0.4389
  107SAPE   O1410963  -0.200   3.299   2.205 -0.1555 -0.4496  0.1081
  107SAPE   O1210964   0.045   3.308   2.265  0.2173  0.3180  0.3944
  107SAPE   O1110965  -0.113   3.379   2.429  0.2237 -0.0049  0.2876
  107SAPE    C110966  -0.047   3.487   2.499  0.1951 -0.0190  0.0104
  107SAPE    HA10967   0.062   3.473   2.512 -0.0650 -2.9368 -0.2827
  107SAPE    HB10968  -0.068   3.586   2.451 -0.6428 -0.4239 -0.4864
  107SAPE    C210969  -0.107   3.488   2.642  0.5235  0.0823 -0.5988
  107SAPE    HS10970  -0.217   3.505   2.640  0.3366 -1.0684 -1.7024
  107SAPE   O2110971  -0.037   3.585   2.719 -0.6955 -0.2147  0.2464
  107SAPE   C2110972  -0.105   3.658   2.804 -0.5066  0.5527 -0.4251
  107SAPE   O2210973  -0.219   3.686   2.796  0.1655  0.2732  0.7462
  107SAPE   C2210974   0.001   3.710   2.908  0.2382 -0.2315 -0.2326
  107SAPE   H2R10975   0.102   3.714   2.860 -0.7554  2.5074 -2.4036
  107SAPE   H2S10976  -0.020   3.816   2.935 -0.8917 -0.7935  1.2095
  107SAPE    C310977  -0.080   3.353   2.707  0.0863 -0.1540  0.1686
  107SAPE    HX10978   0.029   3.333   2.722 -0.2060 -1.5136  0.6140
  107SAPE    HY10979  -0.119   3.271   2.644 -0.0807 -0.5172  0.7431
  107SAPE   O3110980  -0.145   3.355   2.839 -0.6415  0.3212 -0.0764
  107SAPE   C3110981  -0.272   3.305   2.847 -0.1898  0.9078 -0.2430
  107SAPE   O3210982  -0.332   3.245   2.758 -0.0313  0.0667  0.4297
  107SAPE   C3210983  -0.317   3.329   2.990  0.7579 -0.1146 -0.1881
  107SAPE   H2X10984  -0.292   3.430   3.030  0.6490  0.5909 -1.8348
  107SAPE   H2Y10985  -0.276   3.248   3.054 -0.0304 -0.8286 -0.5618
  107SAPE   C2310986  -0.004   3.635   3.050 -0.3025  0.7050  0.1693
  107SAPE   H3R10987   0.083   3.677   3.104 -0.6887 -0.6629  1.9427
  107SAPE   H3S10988   0.019   3.526   3.042  0.9403  1.0841 -3.9069
  107SAPE   C2410989  -0.124   3.673   3.144  0.0957  0.0922  0.1485
  107SAPE   H4R10990  -0.219   3.666   3.086  0.2052  1.3481 -0.2108
  107SAPE   H4S10991  -0.112   3.783   3.149  2.2339 -0.0658 -0.5185
  107SAPE   C2510992  -0.108   3.602   3.279  0.6369 -0.9453 -0.3706
  107SAPE   H5R10993  -0.120   3.493   3.271 -2.9944 -0.6948 -0.0356
  107SAPE   C2610994  -0.094   3.665   3.394  0.0049  0.9199 -0.4198
  107SAPE   H6R10995  -0.092   3.601   3.484 -0.6098 -0.7300 -1.5179
  107SAPE   C2710996  -0.101   3.812   3.415  0.3765  0.2665 -0.7958
  107SAPE   H7R10997  -0.153   3.833   3.511 -1.4780  3.0224 -2.2939
  107SAPE   H7S10998  -0.170   3.857   3.341  1.0193  0.4782 -1.2777
  107SAPE   C2810999   0.031   3.877   3.407 -0.4489 -0.0453  0.1181
  107SAPE   H8R11000   0.085   3.844   3.317 -1.2299  1.5445 -0.9969
  107SAPE   C2911001   0.090   3.971   3.491  0.0028  0.2018 -0.4909
  107SAPE   H9R11002   0.192   4.007   3.477  0.4597  0.2151  2.3120
  107SAPE  C21011003   0.017   4.028   3.607 -0.4886  0.2338 -0.4593
  107SAPE  H10R11004   0.019   3.952   3.688 -1.3003 -1.5044 -1.9990
  107SAPE  H10S11005  -0.089   4.049   3.579 -0.5032  0.3009 -0.3554
  107SAPE  C21111006   0.080   4.158   3.651  0.2905  0.1926 -0.0470
  107SAPE  H11R11007   0.106   4.223   3.566  2.1264  1.0822  1.1405
  107SAPE  C21211008   0.096   4.206   3.772  0.0477 -0.2980  0.3340
  107SAPE  H12R11009   0.139   4.307   3.769 -1.0847  0.1763 -0.5496
  107SAPE  C21311010   0.054   4.135   3.900 -0.0440 -0.3631  0.3668
  107SAPE  H13R11011   0.140   4.139   3.970  0.6359 -0.2768 -0.4558
  107SAPE  H13S11012   0.030   4.029   3.877  1.0704 -0.4261 -0.5704
  107SAPE  C21411013  -0.066   4.203   3.964 -0.1482 -0.1093  0.1373
  107SAPE  H14R11014  -0.147   4.238   3.898 -0.9301 -0.3277  0.9694
  107SAPE  C21511015  -0.103   4.212   4.093  0.2761 -0.6461 -0.5910
  107SAPE  H15R11016  -0.177   4.286   4.128  2.2263  1.1853 -0.1002
  107SAPE  C21611017  -0.015   4.178   4.209 -0.0039  0.2377  0.3019
  107SAPE  H16R11018  -0.033   4.253   4.289  0.9302  0.2921  0.4724
  107SAPE  H16S11019   0.090   4.170   4.176  0.1330 -1.3444  1.0017
  107SAPE  C21711020  -0.056   4.037   4.253 -0.5357 -0.4768 -0.5991
  107SAPE  H17R11021  -0.031   3.967   4.171  0.7043  1.2579 -1.7722
  107SAPE  H17S11022  -0.167   4.031   4.256 -0.5845  0.4437  0.8988
  107SAPE  C21811023   0.007   4.015   4.385  1.0995  0.7860  0.0308
  107SAPE  H18R11024   0.113   4.046   4.375  0.9113  0.7812 -2.6912
  107SAPE  H18S11025   0.019   3.905   4.395 -0.2046  0.4877 -1.3271
  107SAPE  C21911026  -0.075   4.073   4.500 -0.1852 -0.0911  0.4648
  107SAPE  H19R11027  -0.184   4.054   4.487  0.0697 -1.2055 -0.1355
  107SAPE  H19S11028  -0.058   4.180   4.476 -2.9746  0.4138  0.3456
  107SAPE  C22011029  -0.031   4.045   4.641  0.0917 -0.2031  0.0630
  107SAPE  H20R11030   0.079   4.052   4.654  0.3879 -2.6249 -0.6657
  107SAPE  H20S11031  -0.062   3.940   4.657 -1.3471  0.1959  0.1112
  107SAPE  H20T11032  -0.080   4.108   4.719  0.9692 -0.1685  0.5931
  107SAPE   C3311033  -0.472   3.324   2.989  0.4164 -0.1260 -0.4829
  107SAPE   H3X11034  -0.515   3.247   2.923  0.5197  1.9021 -3.0640
  107SAPE   H3Y11035  -0.515   3.422   2.959 -1.9210 -0.6832  0.8038
  107SAPE   C3411036  -0.510   3.282   3.136 -0.4942  0.2911  0.9991
  107SAPE   H4X11037  -0.436   3.207   3.172  0.5009  0.9907  0.4692
  107SAPE   H4Y11038  -0.614   3.243   3.138 -0.3647 -0.2736 -1.1940
  107SAPE   C3511039  -0.509   3.409   3.228  0.0439  0.1625  0.7586
  107SAPE   H5X11040  -0.577   3.487   3.190 -0.3828 -0.2051  0.7630
  107SAPE   H5Y11041  -0.407   3.452   3.213  0.2686 -0.6472 -0.1133
  107SAPE   C3611042  -0.523   3.391   3.377 -0.3388  0.1747 -0.0320
  107SAPE   H6X11043  -0.473   3.466   3.442 -0.9129 -0.1725  0.8352
  107SAPE   H6Y11044  -0.474   3.298   3.414 -2.7946 -0.1589  2.7112
  107SAPE   C3711045  -0.667   3.374   3.433  0.1557  0.0411 -0.2825
  107SAPE   H7X11046  -0.709   3.297   3.365 -0.2018  0.8592 -1.0092
  107SAPE   H7Y11047  -0.730   3.465   3.419  0.5555  0.1917 -1.1257
  107SAPE   C3811048  -0.669   3.320   3.579 -0.0552  0.3239 -0.5932
  107SAPE   H8X11049  -0.632   3.388   3.659  0.1119 -0.5568  0.0881
  107SAPE   H8Y11050  -0.594   3.239   3.571  0.1280  0.5826 -1.5725
  107SAPE   C3911051  -0.809   3.283   3.616 -0.4454  0.3213 -0.3078
  107SAPE   H9X11052  -0.848   3.201   3.551 -0.6558  1.1809 -1.2909
  107SAPE   H9Y11053  -0.869   3.372   3.585 -1.5322  0.1291  1.1466
  107SAPE  C31011054  -0.831   3.245   3.766 -0.7057 -0.0530 -0.0795
  107SAPE  H10X11055  -0.803   3.139   3.783 -0.2630  0.1008  0.1586
  107SAPE  H10Y11056  -0.935   3.261   3.801 -0.4627 -3.3426  2.6377
  107SAPE  C31111057  -0.742   3.312   3.879 -0.6927  0.8731 -0.2430
  107SAPE  H11X11058  -0.719   3.420   3.870  2.7017  0.2872 -0.1553
  107SAPE  H11Y11059  -0.651   3.250   3.896 -0.4301  0.7289 -2.0333
  107SAPE  C31211060  -0.826   3.301   4.020 -0.1107  0.4300  0.7001
  107SAPE  H12X11061  -0.873   3.200   4.029 -0.8331  0.7711  0.7951
  107SAPE  H12Y11062  -0.920   3.358   4.005  1.3346  2.8502  0.3683
  107SAPE  C31311063  -0.749   3.333   4.145  0.6067 -0.1574 -0.4808
  107SAPE  H13X11064  -0.719   3.439   4.158 -2.2257  0.7991 -1.1181
  107SAPE  H13Y11065  -0.653   3.278   4.132  0.5203 -0.6950  0.8880
  107SAPE  C31411066  -0.821   3.282   4.270 -0.7483  0.5991  0.2534
  107SAPE  H14X11067  -0.847   3.174   4.265  1.5461 -0.0914  1.3842
  107SAPE  H14Y11068  -0.916   3.338   4.280 -0.5080  1.0917 -0.1530
  107SAPE  C31511069  -0.724   3.290   4.386  0.2916  0.2089  0.5751
  107SAPE  H15X11070  -0.696   3.397   4.391  2.9385 -0.3611 -0.0920
  107SAPE  H15Y11071  -0.630   3.231   4.371  0.7401  1.2310 -0.8069
  107SAPE  C31611072  -0.787   3.240   4.518  0.2424  0.2818 -0.5412
  107SAPE  H16X11073  -0.766   3.132   4.530  1.9388  0.7072  0.8325
  107SAPE  H16Y11074  -0.895   3.265   4.509 -0.1847 -0.1665  2.2525
  107SAPE  C31711075  -0.745   3.312   4.646  0.3368  0.1101 -0.6986
  107SAPE  H17X11076  -0.784   3.416   4.637  0.0060  0.2777  1.8861
  107SAPE  H17Y11077  -0.635   3.297   4.655  0.0402 -1.8735  0.2399
  107SAPE  C31811078  -0.806   3.257   4.772  0.0539  0.5886  0.0153
  107SAPE  H18X11079  -0.765   3.155   4.788  0.1524  0.6871  0.3968
  107SAPE  H18Y11080  -0.916   3.254   4.756  0.2000 -2.3309 -0.9561
  107SAPE  H18Z11081  -0.778   3.322   4.858  0.2983 -0.8978  1.0876
  108SAPE     N11082   3.658   3.888   1.840 -0.0247  0.1928 -0.0424
  108SAPE   HN111083   3.696   3.899   1.744  5.6535 -0.4584  1.7215
  108SAPE   HN211084   3.748   3.878   1.892 -0.3615  1.4386  0.8471
  108SAPE   HN311085   3.602   3.802   1.854 -1.5133  1.2688  0.8781
  108SAPE   C1211086   3.581   4.009   1.884 -0.2311  0.3633 -0.4594
  108SAPE  H12A11087   3.503   4.036   1.810 -1.0162 -0.4310  0.0700
  108SAPE  H12B11088   3.655   4.092   1.888 -0.8020  1.1702 -3.5751
  108SAPE   C1111089   3.517   3.981   2.020 -0.3574  0.2051 -0.0440
  108SAPE  H11A11090   3.459   3.886   2.019 -0.5713  0.3329  0.0882
  108SAPE  H11B11091   3.432   4.052   2.034 -1.5121 -0.9642 -0.9135
  108SAPE     P11092   3.663   4.093   2.208 -0.5516 -0.3332 -0.0171
  108SAPE   O1311093   3.729   4.058   2.335 -0.4956 -0.4012  0.1445
  108SAPE   O1411094   3.741   4.183   2.119  0.3899 -0.4700 -0.0370
  108SAPE   O1211095   3.620   3.965   2.126  0.1285  0.2344  0.2677
  108SAPE   O1111096   3.526   4.170   2.229 -0.2247  0.3842 -0.5283
  108SAPE    C111097   3.416   4.121   2.304  0.6798  0.0105  0.3644
  108SAPE    HA11098   3.322   4.144   2.250  0.3500 -2.9778 -0.4982
  108SAPE    HB11099   3.404   4.011   2.303 -2.7954  0.2047 -3.4895
  108SAPE    C211100   3.411   4.197   2.446  0.0619  0.2839  0.2609
  108SAPE    HS11101   3.323   4.178   2.511  0.8455 -1.5839  0.8426
  108SAPE   O2111102   3.419   4.338   2.417 -0.4104 -0.5683 -0.1718
  108SAPE   C2111103   3.303   4.392   2.377 -0.1357  0.8458 -0.6913
  108SAPE   O2211104   3.196   4.327   2.381 -0.9704  0.0041  0.7793
  108SAPE   C2211105   3.318   4.536   2.331 -0.8479 -0.3585  0.1319
  108SAPE   H2R11106   3.394   4.584   2.397  0.9685 -1.0656 -1.3615
  108SAPE   H2S11107   3.370   4.535   2.233  0.8886  0.7158  0.9780
  108SAPE    C311108   3.516   4.167   2.554 -0.2588 -0.3038  0.0604
  108SAPE    HX11109   3.615   4.216   2.541 -0.7505  0.6968 -0.0305
  108SAPE    HY11110   3.532   4.059   2.533  1.1007  0.0574 -0.8700
  108SAPE   O3111111   3.473   4.204   2.688  0.1654 -0.6323  0.1529
  108SAPE   C3111112   3.495   4.331   2.729 -0.3016 -0.0846  0.0588
  108SAPE   O3211113   3.577   4.405   2.677 -0.7910 -0.3003  1.0361
  108SAPE   C3211114   3.388   4.373   2.827 -0.0609  0.1665 -0.1112
  108SAPE   H2X11115   3.370   4.301   2.909  2.5659 -0.1291  0.2650
  108SAPE   H2Y11116   3.296   4.378   2.765 -0.5033  0.7585  0.5718
  108SAPE   C2311117   3.192   4.615   2.318 -0.9597 -0.0111 -0.3493
  108SAPE   H3R11118   3.100   4.553   2.321 -1.2797  0.4861  0.5839
  108SAPE   H3S11119   3.201   4.672   2.222  0.8871  1.3215  0.5494
  108SAPE   C2411120   3.176   4.721   2.433 -0.4752 -0.6941  0.3391
  108SAPE   H4R11121   3.080   4.775   2.417 -0.5617 -0.7120  0.7649
  108SAPE   H4S11122   3.263   4.788   2.414 -0.4618 -0.7864  0.0732
  108SAPE   C2511123   3.173   4.679   2.580 -0.1870 -0.6050 -0.1802
  108SAPE   H5R11124   3.274   4.685   2.624  0.0100 -0.6839 -0.6189
  108SAPE   C2611125   3.067   4.643   2.653  0.3227 -0.3150  1.0136
  108SAPE   H6R11126   3.072   4.611   2.757 -1.4700 -0.0852  1.2062
  108SAPE   C2711127   2.924   4.659   2.606 -0.0781 -0.4844  0.5301
  108SAPE   H7R11128   2.919   4.693   2.500 -1.4946 -2.5417 -0.1213
  108SAPE   H7S11129   2.878   4.742   2.664 -1.1512 -0.6792 -0.0197
  108SAPE   C2811130   2.847   4.535   2.611 -0.2245  0.2502  0.0595
  108SAPE   H8R11131   2.886   4.457   2.545  1.4533  0.6868  0.4846
  108SAPE   C2911132   2.726   4.511   2.677 -0.5068 -0.3606  0.2312
  108SAPE   H9R11133   2.681   4.411   2.663  1.8894 -1.5327  0.3251
  108SAPE  C21011134   2.662   4.598   2.782  0.5931 -0.0551 -0.5157
  108SAPE  H10R11135   2.561   4.626   2.746 -0.1000  2.5129  2.8928
  108SAPE  H10S11136   2.713   4.696   2.789  0.7881 -0.2478  2.0480
  108SAPE  C21111137   2.648   4.544   2.923 -0.6932 -0.6166  0.8497
  108SAPE  H11R11138   2.589   4.451   2.924 -1.2737 -0.3352 -1.4887
  108SAPE  C21211139   2.707   4.583   3.036 -0.5085 -0.1669 -0.0006
  108SAPE  H12R11140   2.675   4.519   3.119 -1.4987  1.3089  0.8053
  108SAPE  C21311141   2.814   4.689   3.051  0.0023  0.3794 -0.4487
  108SAPE  H13R11142   2.880   4.680   2.962  1.1913  1.9485  0.2405
  108SAPE  H13S11143   2.871   4.666   3.144  1.2194  3.0721 -0.4436
  108SAPE  C21411144   2.778   4.835   3.059 -0.0807 -0.2906 -0.4528
  108SAPE  H14R11145   2.745   4.876   2.962  1.2111 -1.2916 -1.3354
  108SAPE  C21511146   2.781   4.917   3.167 -0.5441 -0.0912 -0.1607
  108SAPE  H15R11147   2.759   5.024   3.172  2.2116  0.5410  0.3914
  108SAPE  C21611148   2.808   4.873   3.307  0.0393  0.3325 -0.1443
  108SAPE  H16R11149   2.836   4.766   3.317  1.9198  0.5899 -2.0166
  108SAPE  H16S11150   2.718   4.884   3.370  1.5321  1.7609  1.8876
  108SAPE  C21711151   2.916   4.953   3.382  0.0872 -0.3408 -0.4363
  108SAPE  H17R11152   2.917   5.062   3.363  1.0822  0.2420  2.5010
  108SAPE  H17S11153   3.016   4.918   3.349  0.0999  0.6378 -1.5174
  108SAPE  C21811154   2.900   4.947   3.537 -0.0458  0.0241  0.0749
  108SAPE  H18R11155   2.809   5.004   3.566  0.2127  0.2330  0.4913
  108SAPE  H18S11156   2.979   5.010   3.584 -2.4202  2.5328  0.9655
  108SAPE  C21911157   2.899   4.802   3.587 -0.3744  0.3409  0.1028
  108SAPE  H19R11158   2.989   4.742   3.562 -1.9207 -3.0871  2.0953
  108SAPE  H19S11159   2.808   4.754   3.546  0.2634 -1.0351  0.2193
  108SAPE  C22011160   2.889   4.771   3.742 -0.0329  0.5772  0.6876
  108SAPE  H20R11161   2.873   4.663   3.762 -0.5194  0.3548 -0.7913
  108SAPE  H20S11162   2.801   4.820   3.788 -1.8796 -0.5359 -1.4895
  108SAPE  H20T11163   2.977   4.807   3.800 -0.1017  0.4664  0.8614
  108SAPE   C3311164   3.410   4.516   2.878  0.2532 -0.0409 -0.6160
  108SAPE   H3X11165   3.374   4.586   2.799  0.3162 -0.6394 -1.1839
  108SAPE   H3Y11166   3.519   4.533   2.891  0.3441 -1.5113  0.7187
  108SAPE   C3411167   3.326   4.547   3.005  0.1851 -0.1559  0.2556
  108SAPE   H4X11168   3.362   4.490   3.093 -1.0650  0.3556  1.1329
  108SAPE   H4Y11169   3.224   4.510   2.983 -0.6464  1.8180  0.5423
  108SAPE   C3511170   3.308   4.698   3.024  0.4127  0.4315 -0.4721
  108SAPE   H5X11171   3.401   4.756   3.014  0.1015  1.0451  0.1217
  108SAPE   H5Y11172   3.242   4.742   2.946  1.4422  0.6571 -1.2283
  108SAPE   C3611173   3.241   4.735   3.158 -0.0651 -0.0435 -0.7498
  108SAPE   H6X11174   3.153   4.675   3.192  0.6387  0.1544  1.6134
  108SAPE   H6Y11175   3.209   4.841   3.169  1.5833  0.4383 -0.3978
  108SAPE   C3711176   3.336   4.713   3.277  0.2276  0.4786  0.2600
  108SAPE   H7X11177   3.436   4.758   3.260  0.1419  0.3174 -0.7536
  108SAPE   H7Y11178   3.333   4.602   3.283 -5.2462  0.1017 -2.6600
  108SAPE   C3811179   3.280   4.753   3.417  0.0225  0.2540  0.3103
  108SAPE   H8X11180   3.171   4.730   3.420 -0.5651  2.7384  0.3988
  108SAPE   H8Y11181   3.291   4.862   3.437 -0.4610 -0.0646  2.7078
  108SAPE   C3911182   3.352   4.680   3.530  0.1712 -0.7659  0.0721
  108SAPE   H9X11183   3.462   4.697   3.523  0.2297 -0.4156  1.5104
  108SAPE   H9Y11184   3.336   4.571   3.518  0.3585 -0.8252  0.3550
  108SAPE  C31011185   3.307   4.714   3.667 -0.0374  0.0463 -0.4285
  108SAPE  H10X11186   3.198   4.698   3.682 -0.0352  1.4261  1.6428
  108SAPE  H10Y11187   3.315   4.825   3.665 -0.9872  0.1723  1.0126
  108SAPE  C31111188   3.378   4.641   3.782  0.3466  0.2193  0.4539
  108SAPE  H11X11189   3.350   4.534   3.783  2.6813 -0.5414 -2.4039
  108SAPE  H11Y11190   3.341   4.698   3.870  0.4407 -0.7014  1.1037
  108SAPE  C31211191   3.530   4.639   3.778 -0.2654  0.4291 -0.4722
  108SAPE  H12X11192   3.557   4.743   3.749 -0.5252  0.4911 -0.4967
  108SAPE  H12Y11193   3.566   4.571   3.698 -0.3200 -1.2281  0.8685
  108SAPE  C31311194   3.593   4.590   3.910  0.1195 -0.1493  0.0570
  108SAPE  H13X11195   3.561   4.485   3.926 -2.6282  0.4999 -0.5899
  108SAPE  H13Y11196   3.562   4.662   3.989 -2.0123  0.4173 -1.2039
  108SAPE  C31411197   3.751   4.604   3.900  0.3907  0.0825  0.4367
  108SAPE  H14X11198   3.774   4.699   3.847 -2.5364  0.3592 -0.5362
  108SAPE  H14Y11199   3.790   4.519   3.842  1.9468  0.3455  1.0431
  108SAPE  C31511200   3.823   4.614   4.029  0.1981  0.1537 -0.0684
  108SAPE  H15X11201   3.774   4.697   4.086 -1.7628  1.0335 -2.8136
  108SAPE  H15Y11202   3.927   4.635   3.999 -0.1956  0.2804 -1.4164
  108SAPE  C31611203   3.824   4.492   4.109 -0.5933  0.6663 -0.3411
  108SAPE  H16X11204   3.905   4.427   4.070  0.5968  0.5416  2.1033
  108SAPE  H16Y11205   3.728   4.438   4.119 -0.4592  0.5538  0.4185
  108SAPE  C31711206   3.864   4.507   4.257  0.1069  0.9361  0.2165
  108SAPE  H17X11207   3.781   4.567   4.300 -1.7466 -1.0015 -0.4714
  108SAPE  H17Y11208   3.964   4.555   4.270  0.0964  1.2783 -0.8910
  108SAPE  C31811209   3.870   4.374   4.323  0.5334  0.6038  0.5899
  108SAPE  H18X11210   3.795   4.311   4.270  2.3282  0.8308 -2.4558
  108SAPE  H18Y11211   3.837   4.378   4.429  0.1875  0.2768  0.4973
  108SAPE  H18Z11212   3.966   4.320   4.312  0.5660  0.7048  0.3679
  109SAPE     N11213   0.554   1.257   1.512  0.0504  0.5373 -0.0640
  109SAPE   HN111214   0.566   1.247   1.615 -2.0762 -0.8321  0.1165
  109SAPE   HN211215   0.451   1.254   1.500  0.1935 -1.6386 -1.2535
  109SAPE   HN311216   0.604   1.178   1.466  1.8325  0.1254  2.3496
  109SAPE   C1211217   0.623   1.392   1.477  0.0116  0.0772 -0.5554
  109SAPE  H12A11218   0.568   1.431   1.389 -2.1244 -2.3588 -0.3946
  109SAPE  H12B11219   0.729   1.368   1.454  0.1197 -1.7970  1.5873
  109SAPE   C1111220   0.605   1.484   1.603 -0.0848 -0.5124  0.2184
  109SAPE  H11A11221   0.657   1.579   1.578  0.5917 -0.6620  1.0366
  109SAPE  H11B11222   0.656   1.448   1.695  2.1262  0.1588 -0.6741
  109SAPE     P11223   0.419   1.635   1.693 -0.1527 -0.2900 -0.2340
  109SAPE   O1311224   0.513   1.745   1.645  0.0021  0.3541  0.4319
  109SAPE   O1411225   0.272   1.648   1.678 -0.4032 -0.2137  0.4429
  109SAPE   O1211226   0.464   1.496   1.624  0.2012  0.1963 -0.0323
  109SAPE   O1111227   0.450   1.611   1.844 -0.8462  0.1086  0.7082
  109SAPE    C111228   0.430   1.478   1.890 -0.3416  0.2391 -0.4847
  109SAPE    HA11229   0.334   1.427   1.866 -0.2480  0.3565 -1.1433
  109SAPE    HB11230   0.510   1.412   1.853  0.7748  0.0739  2.0253
  109SAPE    C211231   0.423   1.480   2.051 -0.5735  0.2488  0.6051
  109SAPE    HS11232   0.436   1.377   2.091  1.0193 -0.0318 -0.5457
  109SAPE   O2111233   0.306   1.549   2.081  0.1377 -0.0688 -0.0579
  109SAPE   C2111234   0.222   1.475   2.153 -0.8025 -0.1391 -0.3147
  109SAPE   O2211235   0.254   1.362   2.194 -0.0460 -0.1807  0.2589
  109SAPE   C2211236   0.087   1.534   2.174  0.0695 -0.1194 -0.0973
  109SAPE   H2R11237   0.080   1.644   2.170 -0.4489 -0.1362  0.3802
  109SAPE   H2S11238   0.022   1.496   2.093 -0.4138 -0.3085  0.3776
  109SAPE    C311239   0.546   1.559   2.111  0.0897  0.4130 -0.0407
  109SAPE    HX11240   0.563   1.652   2.052 -2.7053  2.6064  2.2796
  109SAPE    HY11241   0.635   1.494   2.101 -0.3331 -0.7844  2.9941
  109SAPE   O3111242   0.527   1.591   2.254 -0.4824 -0.4261  0.0493
  109SAPE   C3111243   0.600   1.698   2.286  0.5094  0.6885 -0.6123
  109SAPE   O3211244   0.663   1.768   2.210 -0.1209 -0.0309  0.4613
  109SAPE   C3211245   0.588   1.711   2.435  0.3532 -0.6795  0.1427
  109SAPE   H2X11246   0.608   1.613   2.483 -0.1033 -0.7606  0.1698
  109SAPE   H2Y11247   0.481   1.732   2.457  0.7408  0.2010  1.3434
  109SAPE   C2311248   0.012   1.481   2.304  0.1223  0.1242 -0.1266
  109SAPE   H3R11249  -0.021   1.380   2.274  2.7507 -1.2254  1.1401
  109SAPE   H3S11250  -0.077   1.544   2.325 -0.0150 -1.0983  3.8627
  109SAPE   C2411251   0.090   1.476   2.435  0.0104 -0.3336 -0.3548
  109SAPE   H4R11252   0.163   1.392   2.424 -0.1289 -0.4687 -0.2568
  109SAPE   H4S11253   0.015   1.435   2.506  1.5703 -0.4252  1.3264
  109SAPE   C2511254   0.157   1.601   2.487 -0.1386 -0.7072  0.8601
  109SAPE   H5R11255   0.224   1.649   2.415 -1.1370  0.4145  0.6501
  109SAPE   C2611256   0.144   1.652   2.610 -0.1541 -0.3177  0.4726
  109SAPE   H6R11257   0.206   1.742   2.624  0.7998 -0.7590 -0.7130
  109SAPE   C2711258   0.083   1.597   2.736 -0.4499  0.6438 -0.7152
  109SAPE   H7R11259   0.003   1.523   2.713  0.3960 -0.6311  0.2722
  109SAPE   H7S11260   0.033   1.680   2.790  1.7097  0.3098  2.0303
  109SAPE   C2811261   0.187   1.531   2.822 -0.0551 -0.5621 -0.3236
  109SAPE   H8R11262   0.253   1.460   2.771 -2.5127 -1.4965 -2.4104
  109SAPE   C2911263   0.201   1.542   2.955  0.7769  0.7202  0.1958
  109SAPE   H9R11264   0.285   1.493   3.007  0.6782  0.1474 -0.1762
  109SAPE  C21011265   0.107   1.616   3.050  0.9688 -0.1690 -0.1993
  109SAPE  H10R11266   0.021   1.658   2.993  0.3152 -1.5663 -0.2734
  109SAPE  H10S11267   0.157   1.705   3.094 -0.3721 -0.7275  2.7010
  109SAPE  C21111268   0.048   1.536   3.165 -0.3634 -0.2045 -0.0134
  109SAPE  H11R11269   0.125   1.467   3.203  0.8855  0.7311 -0.7470
  109SAPE  C21211270  -0.064   1.556   3.237 -0.0139  0.3289 -0.1009
  109SAPE  H12R11271  -0.094   1.470   3.300 -3.2347 -0.2102 -2.1405
  109SAPE  C21311272  -0.173   1.641   3.204 -0.1326 -1.2629  0.0985
  109SAPE  H13R11273  -0.154   1.716   3.124 -1.6987 -1.0073 -0.0635
  109SAPE  H13S11274  -0.196   1.707   3.290 -1.9983  0.5142 -1.6416
  109SAPE  C21411275  -0.292   1.560   3.155  0.3352 -0.1909  0.3023
  109SAPE  H14R11276  -0.349   1.510   3.235  3.4878  0.0920  2.9076
  109SAPE  C21511277  -0.347   1.555   3.026 -0.3417  0.3164  0.4222
  109SAPE  H15R11278  -0.436   1.495   3.003  1.0035 -0.9044 -2.0373
  109SAPE  C21611279  -0.282   1.622   2.908 -0.6895 -0.1096  0.0558
  109SAPE  H16R11280  -0.173   1.605   2.902 -0.2883  2.1584 -0.1650
  109SAPE  H16S11281  -0.294   1.729   2.936  1.7917  0.1160  0.4196
  109SAPE  C21711282  -0.349   1.585   2.773  0.0424  0.1483 -0.4557
  109SAPE  H17R11283  -0.446   1.639   2.777  0.4073  1.5858 -5.1358
  109SAPE  H17S11284  -0.376   1.478   2.764 -1.8518  0.4797  0.7330
  109SAPE  C21811285  -0.282   1.645   2.649  0.2310 -0.1944  0.1675
  109SAPE  H18R11286  -0.319   1.585   2.563 -3.2491 -0.4920  1.6719
  109SAPE  H18S11287  -0.173   1.627   2.657  0.0637 -0.6651  1.6853
  109SAPE  C21911288  -0.327   1.790   2.620  0.0733 -1.1060  0.3520
  109SAPE  H19R11289  -0.289   1.862   2.696 -0.8006  0.6598 -0.7964
  109SAPE  H19S11290  -0.437   1.802   2.630 -0.2218 -1.7359 -1.7466
  109SAPE  C22011291  -0.285   1.837   2.481  0.9845  0.1062 -0.0417
  109SAPE  H20R11292  -0.319   1.939   2.452 -2.1614 -0.9861 -0.5006
  109SAPE  H20S11293  -0.347   1.781   2.408  0.2981 -1.3320  1.5983
  109SAPE  H20T11294  -0.178   1.813   2.460  0.9782  1.6930 -2.3121
  109SAPE   C3311295   0.686   1.819   2.489 -0.3665  0.1369 -0.3925
  109SAPE   H3X11296   0.647   1.921   2.471 -0.1508  0.0021 -1.7708
  109SAPE   H3Y11297   0.788   1.814   2.445  0.5939  0.4983  1.6779
  109SAPE   C3411298   0.716   1.801   2.640 -0.0639 -0.3102 -0.0355
  109SAPE   H4X11299   0.764   1.893   2.679  0.2342 -0.5940  0.2748
  109SAPE   H4Y11300   0.792   1.721   2.652  2.0188  0.9284 -3.5115
  109SAPE   C3511301   0.590   1.779   2.720  0.5833  0.0696 -0.0007
  109SAPE   H5X11302   0.550   1.677   2.702  1.4012 -0.5434  1.5000
  109SAPE   H5Y11303   0.517   1.856   2.686  0.5103 -0.0674 -0.1566
  109SAPE   C3611304   0.622   1.791   2.877 -0.4749 -0.0402  0.2774
  109SAPE   H6X11305   0.675   1.888   2.890  2.3798 -1.5823  0.9783
  109SAPE   H6Y11306   0.685   1.703   2.901 -1.2687 -1.8356 -3.4370
  109SAPE   C3711307   0.490   1.809   2.964  0.0951 -0.6557  1.0946
  109SAPE   H7X11308   0.418   1.727   2.950 -0.8844  0.1171  1.5129
  109SAPE   H7Y11309   0.458   1.902   2.912  0.6097 -0.5878  0.8843
  109SAPE   C3811310   0.506   1.833   3.117 -0.1687 -0.8603 -0.4254
  109SAPE   H8X11311   0.429   1.905   3.153 -1.8925 -2.2787 -1.1109
  109SAPE   H8Y11312   0.602   1.880   3.147 -1.6135  3.0743 -1.3455
  109SAPE   C3911313   0.473   1.712   3.201  0.5503  0.1794 -0.3971
  109SAPE   H9X11314   0.536   1.630   3.162 -0.0040 -0.1750 -0.5611
  109SAPE   H9Y11315   0.365   1.686   3.192  0.2333  0.9800  0.7642
  109SAPE  C31011316   0.511   1.708   3.349 -0.0706 -0.1693  0.2524
  109SAPE  H10X11317   0.620   1.729   3.353 -0.3432  1.1850  2.0151
  109SAPE  H10Y11318   0.502   1.609   3.397  0.1231  0.5003  1.7283
  109SAPE  C31111319   0.440   1.819   3.432 -0.6340 -0.8284 -0.6248
  109SAPE  H11X11320   0.336   1.781   3.437 -0.0997 -2.4916 -1.3384
  109SAPE  H11Y11321   0.446   1.920   3.387 -1.4808 -0.1481  0.7249
  109SAPE  C31211322   0.486   1.825   3.578  0.0005  0.5347  0.4040
  109SAPE  H12X11323   0.586   1.874   3.587  0.0029  0.4678  0.7543
  109SAPE  H12Y11324   0.495   1.721   3.617  0.4821  0.1563 -0.6645
  109SAPE  C31311325   0.399   1.919   3.660 -0.7449 -0.3517 -0.3484
  109SAPE  H13X11326   0.294   1.886   3.653 -0.4769 -1.4381  0.5014
  109SAPE  H13Y11327   0.413   2.027   3.637  0.3282 -0.4305 -0.1088
  109SAPE  C31411328   0.435   1.900   3.806  0.4421 -1.6030  0.2321
  109SAPE  H14X11329   0.538   1.939   3.809 -0.1658  0.5076 -2.2193
  109SAPE  H14Y11330   0.439   1.791   3.830  1.8644 -1.8161 -0.8306
  109SAPE  C31511331   0.326   1.949   3.898 -0.1264  0.1365 -0.0578
  109SAPE  H15X11332   0.229   1.895   3.887  1.4566 -2.7593 -0.7513
  109SAPE  H15Y11333   0.298   2.052   3.865 -0.2140 -0.0442 -0.5613
  109SAPE  C31611334   0.374   1.938   4.048  0.2753 -0.1124  0.2849
  109SAPE  H16X11335   0.477   1.980   4.053  1.0263 -1.8575 -0.0212
  109SAPE  H16Y11336   0.380   1.830   4.073 -2.4911 -0.9933 -2.3006
  109SAPE  C31711337   0.267   2.005   4.142  0.6125  0.5957 -0.5400
  109SAPE  H17X11338   0.166   1.966   4.120 -0.0816  2.4055 -0.7912
  109SAPE  H17Y11339   0.283   2.115   4.129  1.0102  0.5045 -0.8704
  109SAPE  C31811340   0.297   1.985   4.282  0.1761 -0.1059  0.0284
  109SAPE  H18X11341   0.404   2.009   4.301  0.6138 -0.0102 -2.2812
  109SAPE  H18Y11342   0.272   1.886   4.324 -2.2067  0.9490  1.3494
  109SAPE  H18Z11343   0.255   2.063   4.350  2.0741  0.0652  1.0866
  110SAPE     N11344   6.030   5.648   2.335 -0.5343  0.4705  0.2571
  110SAPE   HN111345   6.046   5.548   2.312  0.2459  0.6625 -0.0767
  110SAPE   HN211346   6.076   5.703   2.260  0.2627  0.3974  0.6745
  110SAPE   HN311347   6.093   5.669   2.416  2.8223 -0.5855 -1.8782
  110SAPE   C1211348   5.897   5.698   2.346 -0.1637  0.0244  0.3804
  110SAPE  H12A11349   5.840   5.633   2.416  0.1905 -0.6686  0.0345
  110SAPE  H12B11350   5.851   5.689   2.245  1.5596 -0.8534 -0.3609
  110SAPE   C1111351   5.886   5.844   2.406 -0.4668  0.5989  0.1815
  110SAPE  H11A11352   5.929   5.837   2.508 -2.7023 -2.0794  1.0706
  110SAPE  H11B11353   5.781   5.878   2.417 -0.1837  3.5175 -3.9108
  110SAPE     P11354   5.910   6.016   2.213  0.0316  0.2458  0.1833
  110SAPE   O1311355   6.027   6.083   2.149 -0.1187 -0.3902 -0.6829
  110SAPE   O1411356   5.839   5.924   2.122  0.0337 -0.2341  0.1507
  110SAPE   O1211357   5.964   5.943   2.331  0.1901 -0.4770  0.1461
  110SAPE   O1111358   5.812   6.120   2.270  0.9021 -0.0662 -0.0459
  110SAPE    C111359   5.852   6.240   2.336 -0.7433 -0.4096 -0.9246
  110SAPE    HA11360   5.961   6.255   2.318 -1.0243  1.6114 -1.0966
  110SAPE    HB11361   5.808   6.326   2.281  1.5785  1.5742  0.1324
  110SAPE    C211362   5.797   6.245   2.476 -0.3903 -0.3265  0.5858
  110SAPE    HS11363   5.813   6.348   2.515  1.6504 -1.2158  2.3315
  110SAPE   O2111364   5.854   6.150   2.567  0.0600 -0.2445  0.2706
  110SAPE   C2111365   5.985   6.152   2.588 -0.5008 -0.9114 -0.2900
  110SAPE   O2211366   6.061   6.241   2.546 -0.1448 -0.0717  0.2000
  110SAPE   C2211367   6.024   6.042   2.689  0.9282  0.2746 -0.7131
  110SAPE   H2R11368   6.008   6.087   2.790  3.8350 -0.1686  0.0229
  110SAPE   H2S11369   5.954   5.956   2.677  0.0232  1.2467 -3.0471
  110SAPE    C311370   5.651   6.210   2.468  0.9588  0.4067 -0.2089
  110SAPE    HX11371   5.600   6.277   2.395 -1.3229  1.9533  2.5525
  110SAPE    HY11372   5.645   6.112   2.417 -0.1125  0.1971  0.2905
  110SAPE   O3111373   5.585   6.193   2.598  0.1865 -0.3439 -0.3527
  110SAPE   C3111374   5.537   6.309   2.638  0.7513 -0.0190  0.5813
  110SAPE   O3211375   5.526   6.408   2.571 -0.0394 -0.2427  0.0154
  110SAPE   C3211376   5.493   6.304   2.783 -0.3398 -1.0663 -0.4886
  110SAPE   H2X11377   5.415   6.382   2.796 -0.0633 -1.0756  1.5383
  110SAPE   H2Y11378   5.585   6.326   2.841  1.0973 -2.5374 -2.1137
  110SAPE   C2311379   6.169   5.986   2.668  0.2736  0.3492  0.6424
  110SAPE   H3R11380   6.233   6.076   2.654  1.8494 -0.9326 -0.7494
  110SAPE   H3S11381   6.155   5.932   2.572 -0.1744  1.4222  0.0769
  110SAPE   C2411382   6.213   5.897   2.786 -0.1626 -0.1455 -0.3986
  110SAPE   H4R11383   6.299   5.837   2.749 -0.6901  0.1150 -2.1392
  110SAPE   H4S11384   6.138   5.821   2.814  0.8412 -0.6731  0.9805
  110SAPE   C2511385   6.239   5.982   2.906 -0.2607  0.3909 -0.0444
  110SAPE   H5R11386   6.317   6.058   2.893 -0.1357  0.5094  1.2547
  110SAPE   C2611387   6.172   5.977   3.020 -0.1881 -1.2790 -0.5886
  110SAPE   H6R11388   6.191   6.050   3.101 -1.9648  0.9735 -2.0814
  110SAPE   C2711389   6.053   5.896   3.053 -0.5137  0.1628  0.4810
  110SAPE   H7R11390   6.088   5.827   3.132  1.0164 -2.9169 -2.6287
  110SAPE   H7S11391   6.017   5.839   2.965  1.5665 -0.4466 -0.0261
  110SAPE   C2811392   5.942   5.974   3.107  0.1936 -0.5204  0.3095
  110SAPE   H8R11393   5.861   6.011   3.042 -0.6812 -0.2185  1.5270
  110SAPE   C2911394   5.923   5.993   3.240 -0.2014 -0.4046 -0.4324
  110SAPE   H9R11395   5.825   6.035   3.266  0.1634  0.2081 -0.0014
  110SAPE  C21011396   6.011   5.959   3.351 -1.5253 -0.3674  0.4222
  110SAPE  H10R11397   6.113   5.937   3.313 -1.4802 -0.2436  0.4732
  110SAPE  H10S11398   5.978   5.869   3.407 -2.0616 -0.4840 -0.0649
  110SAPE  C21111399   6.042   6.076   3.434 -0.2862 -0.3811 -0.2214
  110SAPE  H11R11400   6.056   6.169   3.377  0.2947 -0.4814 -0.2522
  110SAPE  C21211401   6.040   6.084   3.567  0.1209 -0.0740  0.1960
  110SAPE  H12R11402   6.058   6.179   3.619  1.9369 -0.2835  0.0283
  110SAPE  C21311403   6.014   5.983   3.674 -0.1333 -0.1148 -0.1913
  110SAPE  H13R11404   6.003   5.887   3.619 -0.8733 -0.5049  0.6132
  110SAPE  H13S11405   5.910   5.997   3.710  0.3443 -0.2343  1.3162
  110SAPE  C21411406   6.111   5.990   3.795  0.3108 -0.2101  0.4054
  110SAPE  H14R11407   6.203   5.931   3.781  2.2659  2.7696 -0.2429
  110SAPE  C21511408   6.096   6.058   3.912 -0.2947 -0.0264 -0.0145
  110SAPE  H15R11409   6.176   6.044   3.987 -1.4546 -2.4439  0.8785
  110SAPE  C21611410   5.973   6.142   3.945  0.2725  0.2593  0.2653
  110SAPE  H16R11411   5.912   6.118   4.035  0.1096  0.6226  0.2541
  110SAPE  H16S11412   5.892   6.138   3.869 -0.3058 -1.2224  0.9088
  110SAPE  C21711413   6.015   6.295   3.949 -0.5446  0.8798  0.2222
  110SAPE  H17R11414   5.926   6.357   3.972 -1.3303  0.5701 -1.8274
  110SAPE  H17S11415   6.026   6.328   3.843 -0.9293  0.1976 -0.0319
  110SAPE  C21811416   6.137   6.333   4.042 -0.4146  0.1464  0.3792
  110SAPE  H18R11417   6.146   6.444   4.051  1.9305 -0.1765  3.4649
  110SAPE  H18S11418   6.232   6.298   3.999 -1.6567  1.5413 -4.0537
  110SAPE  C21911419   6.118   6.265   4.181 -1.5021  0.2836  0.0065
  110SAPE  H19R11420   6.205   6.284   4.247 -1.4818  1.3430 -0.2931
  110SAPE  H19S11421   6.116   6.156   4.164  0.8852  0.2005 -0.1101
  110SAPE  C22011422   5.990   6.300   4.258 -0.3491  0.1973  0.4955
  110SAPE  H20R11423   5.971   6.410   4.257  0.5725  0.3665  0.6889
  110SAPE  H20S11424   5.994   6.257   4.360  0.3780  0.8015  0.7283
  110SAPE  H20T11425   5.904   6.258   4.201 -0.8726  1.5810  0.2145
  110SAPE   C3311426   5.435   6.175   2.826 -0.3310  0.1237  0.2430
  110SAPE   H3X11427   5.379   6.118   2.750  0.3154 -0.9035  0.5147
  110SAPE   H3Y11428   5.367   6.191   2.912 -1.0359 -2.2070  0.1827
  110SAPE   C3411429   5.551   6.084   2.884  0.8729 -0.5331  0.0595
  110SAPE   H4X11430   5.599   6.138   2.968  1.3541  0.6488 -0.9365
  110SAPE   H4Y11431   5.621   6.067   2.799  1.4638  0.6321  0.2865
  110SAPE   C3511432   5.494   5.946   2.929  0.1268 -0.3240  0.3578
  110SAPE   H5X11433   5.575   5.870   2.922  0.5927  0.2202 -0.3352
  110SAPE   H5Y11434   5.416   5.915   2.856  1.7420  0.6845 -1.9399
  110SAPE   C3611435   5.442   5.941   3.075  0.0520 -0.7499  0.9182
  110SAPE   H6X11436   5.383   5.846   3.076  0.5284 -1.0617  0.1395
  110SAPE   H6Y11437   5.367   6.021   3.089 -0.4842 -1.1194  0.2330
  110SAPE   C3711438   5.552   5.945   3.180  0.2971 -0.7465  0.1653
  110SAPE   H7X11439   5.592   6.048   3.194  1.2195 -1.2182  1.1704
  110SAPE   H7Y11440   5.639   5.880   3.156  1.8189  1.4236 -0.5077
  110SAPE   C3811441   5.493   5.881   3.310 -0.5624 -0.2883  0.4555
  110SAPE   H8X11442   5.458   5.777   3.292 -1.1928  0.1566 -1.0807
  110SAPE   H8Y11443   5.407   5.944   3.342 -0.5155  0.6911 -1.2350
  110SAPE   C3911444   5.598   5.893   3.420 -0.4088  0.2171 -0.7350
  110SAPE   H9X11445   5.637   5.997   3.414 -0.6107  0.3954  0.6834
  110SAPE   H9Y11446   5.681   5.823   3.399  0.6799  0.9786  0.7857
  110SAPE  C31011447   5.546   5.873   3.562  0.0165  0.0261 -0.9902
  110SAPE  H10X11448   5.524   5.767   3.588 -0.2079  0.1510 -0.6656
  110SAPE  H10Y11449   5.446   5.917   3.580  0.0706 -0.2097 -0.0532
  110SAPE  C31111450   5.649   5.920   3.682 -0.1011  0.0958 -0.6929
  110SAPE  H11X11451   5.679   6.026   3.667 -0.4714  0.3122  0.0770
  110SAPE  H11Y11452   5.736   5.851   3.678 -0.1478  0.0313 -0.6055
  110SAPE  C31211453   5.583   5.915   3.818 -0.3653  0.8206 -0.1387
  110SAPE  H12X11454   5.473   5.898   3.814 -0.4654  0.6458  2.0164
  110SAPE  H12Y11455   5.595   6.003   3.884  1.2368 -0.8069  1.8741
  110SAPE  C31311456   5.638   5.795   3.906  0.5355  0.4757  0.4754
  110SAPE  H13X11457   5.749   5.802   3.899  0.3666  2.1815 -1.3437
  110SAPE  H13Y11458   5.601   5.701   3.860 -0.1357 -0.0538  2.0068
  110SAPE  C31411459   5.582   5.794   4.055  0.1898  0.5055 -0.3956
  110SAPE  H14X11460   5.471   5.794   4.046  0.2686  0.3550 -1.6096
  110SAPE  H14Y11461   5.619   5.887   4.103 -1.7220  0.7374  0.7239
  110SAPE  C31511462   5.624   5.673   4.147  0.6216 -0.4778  0.1654
  110SAPE  H15X11463   5.726   5.687   4.189  0.9994 -1.9255 -0.2174
  110SAPE  H15Y11464   5.633   5.587   4.077  2.4274 -0.4623  0.3129
  110SAPE  C31611465   5.525   5.648   4.260 -0.6365  0.1077  0.0793
  110SAPE  H16X11466   5.418   5.648   4.228 -0.0813 -0.0326 -1.9014
  110SAPE  H16Y11467   5.526   5.735   4.329 -0.7025  0.1469  0.0308
  110SAPE  C31711468   5.557   5.526   4.344 -0.3852 -0.4328  0.4022
  110SAPE  H17X11469   5.477   5.508   4.418 -1.0262  2.4059  0.5028
  110SAPE  H17Y11470   5.648   5.539   4.407 -1.5666 -0.2113  2.1160
  110SAPE  C31811471   5.571   5.401   4.257 -0.4614  0.8628 -0.8903
  110SAPE  H18X11472   5.671   5.394   4.208 -0.3222  1.6937 -0.7296
  110SAPE  H18Y11473   5.495   5.411   4.177 -1.2996  0.9587 -0.0968
  110SAPE  H18Z11474   5.555   5.313   4.323  1.1970  1.7463  0.7793
  111SAPE     N11475   5.211   0.771   1.699  0.5475  0.5160 -0.2035
  111SAPE   HN111476   5.216   0.776   1.596 -1.2678 -0.6009 -0.3815
  111SAPE   HN211477   5.292   0.712   1.727 -0.8641 -1.6605 -0.4766
  111SAPE   HN311478   5.127   0.714   1.720  1.1139 -0.8291 -1.4659
  111SAPE   C1211479   5.216   0.904   1.774  0.3106  0.7728 -1.1416
  111SAPE  H12A11480   5.161   0.879   1.868  1.3646  0.3667 -0.6104
  111SAPE  H12B11481   5.150   0.979   1.725 -0.9431 -0.1205 -0.8800
  111SAPE   C1111482   5.350   0.960   1.821 -0.1706  0.2193 -0.0724
  111SAPE  H11A11483   5.333   1.046   1.888 -1.2906 -1.3343  1.7244
  111SAPE  H11B11484   5.400   0.985   1.725 -2.6304 -1.7885 -2.0074
  111SAPE     P11485   5.559   0.908   1.950  0.0336 -0.0812  0.2859
  111SAPE   O1311486   5.649   0.795   1.986 -0.1041  0.1261  0.6111
  111SAPE   O1411487   5.614   1.012   1.865  0.1412 -0.0411 -0.2520
  111SAPE   O1211488   5.427   0.853   1.877  0.5911  0.3282 -0.7030
  111SAPE   O1111489   5.510   0.976   2.087  0.3873 -0.0319  0.1352
  111SAPE    C111490   5.411   0.913   2.168 -0.1319 -0.7167  0.3654
  111SAPE    HA11491   5.357   0.997   2.218 -0.3072  0.0453 -1.0539
  111SAPE    HB11492   5.334   0.859   2.108  0.0751  0.9308 -1.5003
  111SAPE    C211493   5.471   0.812   2.264 -0.4196 -0.4141 -0.1501
  111SAPE    HS11494   5.568   0.856   2.295 -1.3481 -0.6528  3.4879
  111SAPE   O2111495   5.486   0.693   2.190 -0.4920  0.3265  0.3283
  111SAPE   C2111496   5.603   0.619   2.214  0.8760  0.3692 -0.4377
  111SAPE   O2211497   5.682   0.645   2.304  0.5870  0.0756  0.1994
  111SAPE   C2211498   5.618   0.497   2.122 -0.6335  0.6586  0.3347
  111SAPE   H2R11499   5.532   0.487   2.053 -0.4545  0.2062  0.1728
  111SAPE   H2S11500   5.712   0.517   2.067 -0.3892  1.9928  1.1863
  111SAPE    C311501   5.390   0.792   2.389 -0.4275 -0.3987 -0.4130
  111SAPE    HX11502   5.442   0.713   2.448 -0.2858  0.4439  0.6099
  111SAPE    HY11503   5.288   0.760   2.358 -0.9582 -0.7938  1.5694
  111SAPE   O3111504   5.391   0.917   2.465  0.4955 -0.5759 -0.5768
  111SAPE   C3111505   5.492   0.938   2.548 -0.6844 -0.4103 -0.4621
  111SAPE   O3211506   5.584   0.860   2.561  0.0211 -0.4756  0.6490
  111SAPE   C3211507   5.464   1.071   2.620 -0.2258  0.3785 -0.6001
  111SAPE   H2X11508   5.372   1.116   2.576 -2.0041  0.1572  2.6028
  111SAPE   H2Y11509   5.550   1.138   2.595  2.0709 -2.3377 -0.4595
  111SAPE   C2311510   5.621   0.352   2.198 -0.3009  0.1499  0.4711
  111SAPE   H3R11511   5.692   0.360   2.284 -0.0614  0.0688  0.2830
  111SAPE   H3S11512   5.669   0.282   2.126  0.8069  0.7620  0.5899
  111SAPE   C2411513   5.494   0.290   2.252 -0.0056 -0.1010  0.1178
  111SAPE   H4R11514   5.523   0.193   2.300  0.5036  0.2302  0.4878
  111SAPE   H4S11515   5.457   0.253   2.154  2.7816 -2.2841 -0.2396
  111SAPE   C2511516   5.402   0.378   2.319  0.5121  0.4527  0.5209
  111SAPE   H5R11517   5.341   0.436   2.249  1.8458  0.3957 -0.7450
  111SAPE   C2611518   5.401   0.409   2.451  0.1901 -0.1955  0.6125
  111SAPE   H6R11519   5.338   0.494   2.483  0.8958 -0.1318  1.9085
  111SAPE   C2711520   5.500   0.356   2.550  0.6251  0.8771  0.6090
  111SAPE   H7R11521   5.560   0.277   2.501 -1.3676  0.9102 -2.0617
  111SAPE   H7S11522   5.446   0.304   2.632  2.3813 -1.1165  0.5927
  111SAPE   C2811523   5.579   0.462   2.618 -0.6451  0.5798  0.1761
  111SAPE   H8R11524   5.629   0.527   2.545  0.0915  1.7476  1.6681
  111SAPE   C2911525   5.601   0.479   2.753 -0.4748  0.2936  0.4188
  111SAPE   H9R11526   5.654   0.568   2.789 -1.5951  0.8876  0.6424
  111SAPE  C21011527   5.536   0.397   2.866 -0.0113  0.0415  0.0873
  111SAPE  H10R11528   5.468   0.319   2.826 -1.1892  1.5192 -0.8478
  111SAPE  H10S11529   5.474   0.466   2.927  0.9931  1.4403 -0.4278
  111SAPE  C21111530   5.628   0.335   2.960 -0.7676 -0.1216  0.1428
  111SAPE  H11R11531   5.732   0.370   2.952 -0.4955 -1.0485 -0.6207
  111SAPE  C21211532   5.600   0.232   3.044  0.5780 -0.2577 -0.4266
  111SAPE  H12R11533   5.669   0.178   3.111  0.0469 -0.3924  0.0165
  111SAPE  C21311534   5.461   0.167   3.056  0.1349  0.4025 -0.2814
  111SAPE  H13R11535   5.429   0.132   2.956  2.7925  0.6718 -1.3213
  111SAPE  H13S11536   5.390   0.245   3.092 -0.5604 -0.0811 -0.5894
  111SAPE  C21411537   5.442   0.049   3.150  0.0196  0.0592 -0.1493
  111SAPE  H14R11538   5.387  -0.032   3.100  0.7257 -0.0294 -0.8225
  111SAPE  C21511539   5.484   0.044   3.274 -0.1122  0.0373 -0.3082
  111SAPE  H15R11540   5.457  -0.041   3.339  3.0219 -0.1756  0.8603
  111SAPE  C21611541   5.557   0.148   3.359  0.3599 -0.9737  0.6148
  111SAPE  H16R11542   5.505   0.245   3.348 -2.1658 -2.5859 -4.3093
  111SAPE  H16S11543   5.663   0.155   3.326 -0.2783  1.2588 -1.2001
  111SAPE  C21711544   5.561   0.105   3.507 -0.0297 -0.5786 -0.1014
  111SAPE  H17R11545   5.463   0.077   3.551  0.5985 -3.1183 -0.1252
  111SAPE  H17S11546   5.607   0.184   3.569 -0.5558 -0.0442 -0.3835
  111SAPE  C21811547   5.661  -0.009   3.513 -0.0883  0.1605 -0.2345
  111SAPE  H18R11548   5.749   0.015   3.450  0.9987 -1.5347  0.5452
  111SAPE  H18S11549   5.631  -0.107   3.471  0.3719 -0.4199  0.7391
  111SAPE  C21911550   5.712  -0.023   3.654  0.0010 -0.0555 -0.6456
  111SAPE  H19R11551   5.757   0.074   3.685 -0.7636 -0.1581  0.8345
  111SAPE  H19S11552   5.776  -0.113   3.644 -0.1373 -0.4813  1.8240
  111SAPE  C22011553   5.605  -0.071   3.753  0.1276 -0.5520  0.0957
  111SAPE  H20R11554   5.560  -0.168   3.724  0.0238 -0.5855  0.3648
  111SAPE  H20S11555   5.514  -0.006   3.754 -0.7148 -1.7052  0.5222
  111SAPE  H20T11556   5.646  -0.075   3.856 -1.4460  1.8811  0.9204
  111SAPE   C3311557   5.450   1.047   2.770  0.0860  0.4654  1.2307
  111SAPE   H3X11558   5.454   1.144   2.825  1.0348  1.0041  0.2677
  111SAPE   H3Y11559   5.535   0.996   2.821 -0.3415  1.1268  2.6538
  111SAPE   C3411560   5.318   0.979   2.806 -0.0280 -0.0576 -0.4647
  111SAPE   H4X11561   5.312   0.882   2.752  1.4072 -0.3778 -0.1024
  111SAPE   H4Y11562   5.224   1.031   2.777 -0.7138 -1.1270 -0.2228
  111SAPE   C3511563   5.290   0.938   2.956 -0.1275  0.5217  0.2734
  111SAPE   H5X11564   5.370   0.890   3.016  0.6468 -0.4034 -1.4228
  111SAPE   H5Y11565   5.195   0.882   2.969 -0.8156  1.0059 -2.0439
  111SAPE   C3611566   5.254   1.073   3.025  0.0690 -0.3829 -0.4513
  111SAPE   H6X11567   5.161   1.111   2.977 -0.6161 -1.9839 -0.4492
  111SAPE   H6Y11568   5.341   1.142   3.025  0.8066 -1.2841 -0.3039
  111SAPE   C3711569   5.204   1.066   3.175 -0.8210  0.5383  0.0633
  111SAPE   H7X11570   5.151   0.969   3.188  0.7155 -0.9844 -3.7172
  111SAPE   H7Y11571   5.143   1.156   3.199  1.7347  1.8498  2.2037
  111SAPE   C3811572   5.331   1.050   3.262 -0.3194  0.4515 -0.0978
  111SAPE   H8X11573   5.389   1.145   3.267  1.6069 -0.4627 -2.8509
  111SAPE   H8Y11574   5.403   0.982   3.213  2.7203  1.9791  1.9304
  111SAPE   C3911575   5.300   1.018   3.408 -0.4433  0.4100 -0.3956
  111SAPE   H9X11576   5.390   1.042   3.469  0.7462 -1.8271 -1.1668
  111SAPE   H9Y11577   5.282   0.909   3.423  2.3355 -0.2311 -1.1741
  111SAPE  C31011578   5.179   1.094   3.475  0.2839  0.5221 -0.0533
  111SAPE  H10X11579   5.093   1.097   3.405  0.3805  1.0100 -0.1537
  111SAPE  H10Y11580   5.205   1.201   3.488 -2.0383  1.0063  1.0989
  111SAPE  C31111581   5.128   1.030   3.605  0.6265  0.3611  0.0466
  111SAPE  H11X11582   5.156   0.923   3.619 -1.1456  0.0767  1.8194
  111SAPE  H11Y11583   5.017   1.032   3.613  0.6362 -2.0771  2.2121
  111SAPE  C31211584   5.185   1.106   3.721  0.4320 -0.0018 -0.4248
  111SAPE  H12X11585   5.172   1.214   3.701 -0.6850 -0.3481 -1.7211
  111SAPE  H12Y11586   5.292   1.077   3.726 -0.2738 -2.8457  0.0022
  111SAPE  C31311587   5.125   1.072   3.854 -0.2690 -0.6873 -0.7680
  111SAPE  H13X11588   5.113   0.962   3.860  1.6728 -1.0466 -2.2933
  111SAPE  H13Y11589   5.023   1.116   3.859 -0.7055 -1.7761  0.2938
  111SAPE  C31411590   5.207   1.126   3.967 -0.5154  0.4171  0.1684
  111SAPE  H14X11591   5.217   1.236   3.977  2.7129  0.1838  0.6608
  111SAPE  H14Y11592   5.313   1.097   3.951 -0.3803  0.8818  0.1988
  111SAPE  C31511593   5.162   1.077   4.104  0.1781  1.0725 -0.9001
  111SAPE  H15X11594   5.163   0.966   4.109 -4.3449  0.9242  1.3081
  111SAPE  H15Y11595   5.061   1.115   4.128  0.3298  0.4670  0.8752
  111SAPE  C31611596   5.256   1.121   4.219 -0.4027 -0.4434 -0.1891
  111SAPE  H16X11597   5.279   1.225   4.188 -0.8888  0.2422  1.5817
  111SAPE  H16Y11598   5.351   1.063   4.218  0.0624  0.2405  1.1861
  111SAPE  C31711599   5.187   1.141   4.359  0.2959 -0.4685 -0.7733
  111SAPE  H17X11600   5.155   1.036   4.379 -0.9677 -0.0580 -0.5437
  111SAPE  H17Y11601   5.101   1.210   4.345  0.5342 -0.1824 -0.8475
  111SAPE  C31811602   5.275   1.179   4.480  0.6155 -0.1307 -0.0785
  111SAPE  H18X11603   5.351   1.103   4.508 -0.2225 -1.0712 -0.3026
  111SAPE  H18Y11604   5.215   1.202   4.570 -0.9736  0.1546 -1.1558
  111SAPE  H18Z11605   5.330   1.274   4.463 -1.9950  1.6623  0.7883
  112SAPE     N11606   2.578   1.306   2.098 -0.0654 -0.2238  0.4101
  112SAPE   HN111607   2.569   1.225   2.033 -2.2959  0.9016 -0.8060
  112SAPE   HN211608   2.499   1.373   2.100 -1.2402 -1.4220 -1.8154
  112SAPE   HN311609   2.669   1.353   2.084  0.1844  0.4740  3.5957
  112SAPE   C1211610   2.591   1.224   2.218  0.4538  0.2293  0.0731
  112SAPE  H12A11611   2.487   1.203   2.249  0.6022  0.6607  0.8863
  112SAPE  H12B11612   2.639   1.282   2.300  0.4526  1.8539 -1.0164
  112SAPE   C1111613   2.663   1.088   2.194 -0.3551  0.5953  0.7596
  112SAPE  H11A11614   2.632   1.016   2.272 -1.5583  1.4071  1.0646
  112SAPE  H11B11615   2.772   1.110   2.194 -0.6912  2.5147 -0.1596
  112SAPE     P11616   2.715   0.910   2.000  0.5918 -0.0373 -0.2971
  112SAPE   O1311617   2.618   0.819   1.930  0.7018 -0.1711  0.3755
  112SAPE   O1411618   2.833   0.964   1.928  0.2533  0.4760 -0.1176
  112SAPE   O1211619   2.631   1.029   2.067 -0.1490 -0.1680  0.2026
  112SAPE   O1111620   2.772   0.845   2.129  0.4906  0.3403  0.3788
  112SAPE    C111621   2.714   0.731   2.196 -0.0828  0.0265  0.2872
  112SAPE    HA11622   2.603   0.721   2.195  0.0108 -1.7402  1.6595
  112SAPE    HB11623   2.751   0.635   2.154  1.0319 -0.8699  3.0816
  112SAPE    C211624   2.753   0.739   2.346 -0.2465 -0.5709 -0.4829
  112SAPE    HS11625   2.708   0.829   2.392 -0.7278  1.0496 -3.8235
  112SAPE   O2111626   2.895   0.737   2.360  0.0939  0.5184 -0.6996
  112SAPE   C2111627   2.943   0.803   2.458 -0.7290 -0.2285 -0.0569
  112SAPE   O2211628   2.884   0.874   2.537 -0.2503 -0.3605 -0.1251
  112SAPE   C2211629   3.098   0.778   2.467  0.0168 -0.1673 -0.1094
  112SAPE   H2R11630   3.143   0.746   2.370 -0.6640  1.5581 -1.0204
  112SAPE   H2S11631   3.144   0.877   2.488 -0.1618 -0.2336  0.6060
  112SAPE    C311632   2.691   0.612   2.418 -0.0143  0.5613  0.4223
  112SAPE    HX11633   2.753   0.523   2.395  1.1023  0.6827  2.6341
  112SAPE    HY11634   2.591   0.583   2.381  0.9433 -1.3812 -0.8073
  112SAPE   O3111635   2.699   0.621   2.563  0.7542 -0.2266  0.0699
  112SAPE   C3111636   2.606   0.699   2.622 -0.4375  0.1867  0.2652
  112SAPE   O3211637   2.518   0.760   2.571 -0.1027 -0.0862  0.0825
  112SAPE   C3211638   2.652   0.710   2.772  0.1316  0.1008  0.5780
  112SAPE   H2X11639   2.724   0.795   2.777  0.5680 -0.3012  1.2486
  112SAPE   H2Y11640   2.702   0.614   2.795  0.6368 -0.9618 -3.9603
  112SAPE   C2311641   3.143   0.684   2.582 -0.1213  0.3456 -0.2944
  112SAPE   H3R11642   3.251   0.661   2.570 -0.4301 -2.2511  1.1106
  112SAPE   H3S11643   3.086   0.589   2.571 -0.2142  0.2505  0.9237
  112SAPE   C2411644   3.113   0.730   2.731  0.1588  0.5071 -0.4697
  112SAPE   H4R11645   3.003   0.743   2.744 -0.0652  0.1318 -1.8142
  112SAPE   H4S11646   3.158   0.829   2.754  0.1368  0.2412  0.7729
  112SAPE   C2511647   3.176   0.630   2.825 -0.3900 -0.2834  0.0579
  112SAPE   H5R11648   3.282   0.609   2.801 -0.3727  0.2526 -0.3498
  112SAPE   C2611649   3.106   0.586   2.924 -0.0191  0.4645 -0.3398
  112SAPE   H6R11650   3.154   0.524   3.001 -1.5123  0.6105  0.7481
  112SAPE   C2711651   2.961   0.617   2.959 -0.1602  0.0008  0.0470
  112SAPE   H7R11652   2.892   0.589   2.876  1.5342 -1.4124 -0.9451
  112SAPE   H7S11653   2.941   0.727   2.957 -2.0104 -0.2982  0.0592
  112SAPE   C2811654   2.917   0.558   3.091 -0.8793  0.7998 -0.4613
  112SAPE   H8R11655   2.894   0.451   3.084  1.3602  0.2041  0.2197
  112SAPE   C2911656   2.885   0.625   3.205  0.2414 -0.0251  0.2140
  112SAPE   H9R11657   2.839   0.570   3.289  0.2977  0.5347  0.6224
  112SAPE  C21011658   2.905   0.774   3.230 -0.3110  0.5965  0.5592
  112SAPE  H10R11659   2.831   0.812   3.304 -0.3091 -1.1134  1.5045
  112SAPE  H10S11660   2.889   0.834   3.138 -4.1558  0.5284  0.9906
  112SAPE  C21111661   3.050   0.800   3.264  0.3603  0.4710 -0.1126
  112SAPE  H11R11662   3.118   0.808   3.178 -0.7137  1.1761 -0.9342
  112SAPE  C21211663   3.115   0.796   3.382  0.5844 -0.3664  0.0713
  112SAPE  H12R11664   3.219   0.828   3.372 -0.0978  1.7243 -1.1053
  112SAPE  C21311665   3.049   0.790   3.519 -0.1770 -0.6748 -0.4057
  112SAPE  H13R11666   3.121   0.738   3.586 -0.4855 -1.4155 -0.6343
  112SAPE  H13S11667   2.959   0.726   3.508  0.8927 -1.7614 -4.6304
  112SAPE  C21411668   3.014   0.922   3.579 -0.6552  0.2065  0.4176
  112SAPE  H14R11669   2.906   0.937   3.565 -0.5686 -1.5488 -3.3616
  112SAPE  C21511670   3.089   1.002   3.660  0.0622  0.5111 -0.4446
  112SAPE  H15R11671   3.046   1.095   3.699  0.7520  1.3111 -1.5625
  112SAPE  C21611672   3.238   0.989   3.692  0.1153  0.4916 -0.5303
  112SAPE  H16R11673   3.291   1.085   3.677  0.0432  0.2922 -2.3000
  112SAPE  H16S11674   3.289   0.921   3.621  1.6750  1.5853 -0.4934
  112SAPE  C21711675   3.255   0.949   3.839  0.9083 -0.0426 -1.0354
  112SAPE  H17R11676   3.205   0.852   3.858  0.4935  0.3291 -0.1494
  112SAPE  H17S11677   3.226   1.032   3.908  1.0685 -0.5537 -0.3459
  112SAPE  C21811678   3.399   0.917   3.888  0.4489 -0.0692 -0.4440
  112SAPE  H18R11679   3.462   1.003   3.858  0.0068  1.1416  1.9330
  112SAPE  H18S11680   3.438   0.825   3.838 -0.1023  0.2072 -1.4132
  112SAPE  C21911681   3.408   0.908   4.043 -0.0742 -0.0963  0.3692
  112SAPE  H19R11682   3.365   1.003   4.081  0.7803  0.3454  0.2429
  112SAPE  H19S11683   3.514   0.909   4.073 -0.2838  0.3702  1.1053
  112SAPE  C22011684   3.339   0.786   4.102 -0.4538  0.7770 -0.4118
  112SAPE  H20R11685   3.389   0.691   4.072  1.2505  0.6857  2.3734
  112SAPE  H20S11686   3.232   0.797   4.074 -0.9737  2.0463  1.8309
  112SAPE  H20T11687   3.343   0.784   4.213 -1.9184 -1.0016 -0.3496
  112SAPE   C3311688   2.528   0.730   2.863  0.2110 -0.1047  0.0371
  112SAPE   H3X11689   2.434   0.679   2.832 -0.9510  1.4075  0.9927
  112SAPE   H3Y11690   2.508   0.839   2.859 -2.1739 -0.5077 -3.7289
  112SAPE   C3411691   2.566   0.706   3.007 -0.3969 -0.3278  0.2646
  112SAPE   H4X11692   2.668   0.751   3.010  0.1186 -1.4143 -0.4060
  112SAPE   H4Y11693   2.592   0.599   3.021  0.5988  0.1168  2.1751
  112SAPE   C3511694   2.468   0.778   3.109 -1.2686  0.3282 -0.6503
  112SAPE   H5X11695   2.370   0.725   3.111 -0.7322 -0.6876 -0.8408
  112SAPE   H5Y11696   2.447   0.883   3.081 -2.7602  0.6358  1.4062
  112SAPE   C3611697   2.526   0.778   3.250  0.2226  0.3250  0.0128
  112SAPE   H6X11698   2.608   0.854   3.253 -0.2777  1.0800 -2.6607
  112SAPE   H6Y11699   2.562   0.677   3.278 -1.5601 -0.0531  1.0914
  112SAPE   C3711700   2.421   0.830   3.356 -0.4707 -0.1259 -0.2051
  112SAPE   H7X11701   2.324   0.777   3.345 -1.1736  0.9444  0.6033
  112SAPE   H7Y11702   2.400   0.937   3.335 -0.3850  0.3418  1.8710
  112SAPE   C3811703   2.480   0.848   3.498  0.1395  0.0169  0.3786
  112SAPE   H8X11704   2.570   0.910   3.479  0.1882 -0.2208 -0.1863
  112SAPE   H8Y11705   2.517   0.748   3.528  2.6721  0.8524  0.2794
  112SAPE   C3911706   2.384   0.904   3.609  0.2357 -0.4036  0.7978
  112SAPE   H9X11707   2.292   0.842   3.616  0.1972 -0.4286  0.1736
  112SAPE   H9Y11708   2.363   1.007   3.573 -1.7194 -0.6388  1.1207
  112SAPE  C31011709   2.462   0.913   3.742  0.7550 -0.4442  0.3252
  112SAPE  H10X11710   2.553   0.976   3.732  1.0527 -0.7971  0.7513
  112SAPE  H10Y11711   2.497   0.809   3.759 -0.6893 -1.3316 -1.7299
  112SAPE  C31111712   2.364   0.973   3.851 -0.3463  0.0341 -0.1769
  112SAPE  H11X11713   2.304   0.884   3.878  1.6145 -1.1621  0.4927
  112SAPE  H11Y11714   2.307   1.052   3.800 -1.8916  0.2113  1.7014
  112SAPE  C31211715   2.437   1.036   3.977 -0.9424  0.3657 -0.1693
  112SAPE  H12X11716   2.499   0.960   4.028 -0.5154  0.3724 -0.6657
  112SAPE  H12Y11717   2.363   1.054   4.058 -1.7099 -1.3545 -0.4428
  112SAPE  C31311718   2.497   1.172   3.958 -0.9000 -0.3949 -0.0079
  112SAPE  H13X11719   2.417   1.248   3.945  0.6929  1.5965  1.2696
  112SAPE  H13Y11720   2.553   1.172   3.861  1.2316  1.4402  1.1249
  112SAPE  C31411721   2.606   1.230   4.052  0.1371 -0.6357 -0.1188
  112SAPE  H14X11722   2.561   1.232   4.153 -0.4474 -0.2519 -0.3770
  112SAPE  H14Y11723   2.625   1.334   4.018  0.8878 -1.2388 -1.6622
  112SAPE  C31511724   2.733   1.143   4.048 -0.2867 -0.0265 -0.5171
  112SAPE  H15X11725   2.783   1.154   3.949 -1.3440 -0.3573 -1.0964
  112SAPE  H15Y11726   2.704   1.036   4.053 -1.3322  0.2870  0.6376
  112SAPE  C31611727   2.845   1.180   4.151 -0.3868  0.7488  0.3777
  112SAPE  H16X11728   2.802   1.152   4.249  0.2054 -0.4979  0.3016
  112SAPE  H16Y11729   2.859   1.290   4.159 -0.6923  0.7518  0.8637
  112SAPE  C31711730   2.975   1.109   4.130 -0.0195  0.2500  0.1139
  112SAPE  H17X11731   3.011   1.140   4.029  2.4512 -1.2131  0.4558
  112SAPE  H17Y11732   2.962   0.999   4.132 -3.7598  0.5515  2.6992
  112SAPE  C31811733   3.082   1.144   4.236 -0.2266  0.3093  0.0634
  112SAPE  H18X11734   3.033   1.118   4.332 -0.1189  0.9063  0.2846
  112SAPE  H18Y11735   3.103   1.253   4.237  1.2747  0.0500 -0.3722
  112SAPE  H18Z11736   3.176   1.088   4.219 -0.5436 -0.1458 -0.1969
  113SAPE     N11737   3.145   6.706   2.116  0.0568 -0.3545 -0.6905
  113SAPE   HN111738   3.246   6.683   2.104  0.0429 -1.7383  1.4194
  113SAPE   HN211739   3.092   6.630   2.163 -1.6600 -0.5441 -2.7937
  113SAPE   HN311740   3.105   6.715   2.020  0.2548 -1.6965 -0.9149
  113SAPE   C1211741   3.138   6.837   2.180 -0.3237 -0.3262  0.3294
  113SAPE  H12A11742   3.036   6.852   2.221 -0.3204  0.9364 -0.0824
  113SAPE  H12B11743   3.143   6.920   2.106  1.4494 -1.9677 -1.5012
  113SAPE   C1111744   3.242   6.849   2.285 -0.1664 -0.0731 -0.7255
  113SAPE  H11A11745   3.226   6.779   2.370  1.5050  0.8101  0.3599
  113SAPE  H11B11746   3.233   6.953   2.323 -2.9296 -0.2608 -0.6255
  113SAPE     P11747   3.490   6.831   2.311 -0.4928  0.0784 -0.4088
  113SAPE   O1311748   3.608   6.791   2.234  0.2259 -0.0206  0.1672
  113SAPE   O1411749   3.497   6.964   2.374 -0.4195 -0.1133  0.5549
  113SAPE   O1211750   3.364   6.829   2.212  0.0718 -0.3163 -0.5876
  113SAPE   O1111751   3.459   6.716   2.412  0.0724  0.1834 -0.4207
  113SAPE    C111752   3.549   6.623   2.466 -0.4007 -0.6872 -0.1896
  113SAPE    HA11753   3.550   6.532   2.401  0.3933  0.6117 -2.0741
  113SAPE    HB11754   3.653   6.660   2.468 -0.6705  0.1167  2.3362
  113SAPE    C211755   3.511   6.591   2.617 -0.3333 -0.3822  0.1736
  113SAPE    HS11756   3.435   6.510   2.614 -0.9086  0.1624 -0.1595
  113SAPE   O2111757   3.459   6.709   2.685  0.2579  0.2642 -0.0303
  113SAPE   C2111758   3.328   6.729   2.668  0.3279  0.1330  0.1943
  113SAPE   O2211759   3.243   6.647   2.633  0.3490  0.1923  0.0423
  113SAPE   C2211760   3.289   6.868   2.700 -0.4231 -0.1086 -0.5054
  113SAPE   H2R11761   3.368   6.943   2.675 -0.0258 -0.6402 -0.8819
  113SAPE   H2S11762   3.208   6.890   2.627 -0.2692 -2.4311 -1.4855
  113SAPE    C311763   3.638   6.540   2.694 -0.6648  0.2217 -0.3427
  113SAPE    HX11764   3.712   6.623   2.691  0.3585 -0.6799 -0.8957
  113SAPE    HY11765   3.684   6.454   2.640  0.8858 -0.1059  1.4165
  113SAPE   O3111766   3.606   6.502   2.834  0.1086  0.0259 -0.2277
  113SAPE   C3111767   3.717   6.469   2.902  0.0337 -0.4289 -0.2443
  113SAPE   O3211768   3.831   6.462   2.852  0.1775  0.0177 -0.5036
  113SAPE   C3211769   3.689   6.455   3.052  0.1902 -0.4674  0.4126
  113SAPE   H2X11770   3.635   6.362   3.076 -4.0835  1.3061 -1.3327
  113SAPE   H2Y11771   3.617   6.539   3.064  1.1222  0.3209  0.5850
  113SAPE   C2311772   3.242   6.895   2.839  0.0136  0.0534  0.1325
  113SAPE   H3R11773   3.321   6.859   2.908 -1.1189 -1.4724  0.6937
  113SAPE   H3S11774   3.161   6.820   2.853 -0.5961  0.8154  0.8382
  113SAPE   C2411775   3.178   7.036   2.859 -0.5653  1.1405  0.0051
  113SAPE   H4R11776   3.075   7.037   2.818 -1.2902 -0.5549  1.6605
  113SAPE   H4S11777   3.232   7.119   2.808  0.9464  0.8462  1.0363
  113SAPE   C2511778   3.155   7.056   3.007 -0.2316 -0.4288 -0.3246
  113SAPE   H5R11779   3.047   7.060   3.028 -0.0895  1.4709  0.2164
  113SAPE   C2611780   3.247   7.090   3.104  0.6250  0.1158 -0.1292
  113SAPE   H6R11781   3.217   7.100   3.209  2.2022  0.8625  0.2759
  113SAPE   C2711782   3.396   7.114   3.077 -0.0077  0.5996  0.2745
  113SAPE   H7R11783   3.418   7.095   2.969  0.0720  1.4725  0.1308
  113SAPE   H7S11784   3.466   7.052   3.136 -0.3777  0.5343  0.6490
  113SAPE   C2811785   3.429   7.256   3.100 -0.1866  0.4108  0.6324
  113SAPE   H8R11786   3.345   7.314   3.141 -1.3136 -1.8606  1.7505
  113SAPE   C2911787   3.552   7.312   3.077 -0.1336  0.1766 -0.4288
  113SAPE   H9R11788   3.563   7.412   3.122  1.6662  0.0108 -0.4308
  113SAPE  C21011789   3.686   7.262   3.034  0.3591  0.0751 -0.0134
  113SAPE  H10R11790   3.679   7.153   3.010  0.3619 -0.0996  0.7514
  113SAPE  H10S11791   3.753   7.266   3.122 -0.2934  1.2028  0.4489
  113SAPE  C21111792   3.750   7.332   2.920  0.5173  0.5072  0.1034
  113SAPE  H11R11793   3.685   7.351   2.833 -2.9394  1.5092  2.6796
  113SAPE  C21211794   3.875   7.375   2.906  0.0076  0.3089 -0.6628
  113SAPE  H12R11795   3.904   7.414   2.807  1.2630  2.7070  0.5515
  113SAPE  C21311796   3.981   7.379   3.013  0.1830  1.1631  0.4506
  113SAPE  H13R11797   4.080   7.372   2.963 -0.3109 -1.0470 -0.3375
  113SAPE  H13S11798   3.985   7.278   3.060 -1.4891  0.2283 -1.2952
  113SAPE  C21411799   3.978   7.501   3.107 -0.1341 -0.5822 -0.0830
  113SAPE  H14R11800   3.950   7.596   3.060  0.7264 -0.5358 -0.5239
  113SAPE  C21511801   4.024   7.512   3.228 -0.0198 -0.5927 -0.2832
  113SAPE  H15R11802   4.002   7.608   3.278 -1.2935  0.4310 -2.6068
  113SAPE  C21611803   4.081   7.406   3.311 -0.5425  0.2603 -0.1948
  113SAPE  H16R11804   4.170   7.448   3.363 -0.7397 -1.3867  1.5921
  113SAPE  H16S11805   4.129   7.335   3.240  0.0127 -0.0380  0.4636
  113SAPE  C21711806   3.997   7.316   3.403 -0.8323 -0.1852 -0.2661
  113SAPE  H17R11807   4.064   7.229   3.419  0.0186  0.0953 -2.0571
  113SAPE  H17S11808   3.904   7.289   3.347 -0.3164 -0.7860 -0.8534
  113SAPE  C21811809   3.981   7.383   3.537  0.5133  0.7419  0.0704
  113SAPE  H18R11810   3.886   7.439   3.526  0.8589  1.5099  0.8760
  113SAPE  H18S11811   4.061   7.455   3.565  1.4939  0.2405 -1.3165
  113SAPE  C21911812   3.950   7.282   3.652 -0.2565  0.6277  0.1920
  113SAPE  H19R11813   4.031   7.206   3.658 -0.4614  0.4844  1.7491
  113SAPE  H19S11814   3.857   7.230   3.622 -0.0911 -0.3679  1.3011
  113SAPE  C22011815   3.942   7.341   3.794  0.7200 -0.3266 -0.7178
  113SAPE  H20R11816   4.044   7.367   3.829 -0.2822  2.2139  0.6321
  113SAPE  H20S11817   3.911   7.274   3.877  1.2273  0.5072  0.1655
  113SAPE  H20T11818   3.874   7.429   3.788  0.7491 -0.1865  0.6753
  113SAPE   C3311819   3.816   6.460   3.131  0.1277 -0.2225 -0.0839
  113SAPE   H3X11820   3.880   6.541   3.090  2.2571 -1.1466  1.2617
  113SAPE   H3Y11821   3.878   6.370   3.114  1.4259  1.1621 -3.4716
  113SAPE   C3411822   3.779   6.488   3.279  0.2299 -0.2905 -0.4460
  113SAPE   H4X11823   3.712   6.404   3.309 -2.0653  1.1587 -1.2389
  113SAPE   H4Y11824   3.730   6.587   3.286 -1.0080 -0.8722 -0.5433
  113SAPE   C3511825   3.907   6.487   3.369  0.0502  0.3292  0.4995
  113SAPE   H5X11826   3.982   6.556   3.324 -0.8206  3.3204  3.2283
  113SAPE   H5Y11827   3.940   6.383   3.347 -1.2529  0.0658 -0.3428
  113SAPE   C3611828   3.886   6.524   3.518  0.2356 -0.0082  0.8092
  113SAPE   H6X11829   3.825   6.438   3.552  0.0218 -0.0392  0.3543
  113SAPE   H6Y11830   3.832   6.621   3.520 -0.6299 -0.3935 -1.2185
  113SAPE   C3711831   4.013   6.537   3.598  0.3502 -0.6264 -0.5340
  113SAPE   H7X11832   4.049   6.642   3.590 -1.9488  0.1983 -0.7952
  113SAPE   H7Y11833   4.090   6.467   3.557  1.0235  0.3091 -0.8965
  113SAPE   C3811834   3.998   6.499   3.746  0.3386 -0.0100 -0.6220
  113SAPE   H8X11835   3.931   6.567   3.803 -0.9564 -0.1976 -1.8632
  113SAPE   H8Y11836   3.948   6.400   3.759  1.8364 -0.8939 -1.3066
  113SAPE   C3911837   4.137   6.504   3.821 -0.0488 -0.1165  0.3974
  113SAPE   H9X11838   4.168   6.610   3.815  1.9785 -0.7584 -2.6490
  113SAPE   H9Y11839   4.214   6.458   3.755 -2.2228  0.2038 -2.5823
  113SAPE  C31011840   4.118   6.442   3.970 -0.0032 -0.2782 -0.3352
  113SAPE  H10X11841   4.078   6.339   3.955  0.9522 -0.3091 -3.3066
  113SAPE  H10Y11842   4.053   6.512   4.027 -0.1607 -1.0937  0.5174
  113SAPE  C31111843   4.256   6.421   4.041  0.7477 -0.1648  0.1726
  113SAPE  H11X11844   4.302   6.520   4.058  1.8243 -0.8046  1.1160
  113SAPE  H11Y11845   4.323   6.368   3.969  0.6810  0.5313 -0.4156
  113SAPE  C31211846   4.231   6.337   4.164 -0.4695  0.2531 -1.1958
  113SAPE  H12X11847   4.227   6.236   4.119  1.5786 -0.6588  0.4774
  113SAPE  H12Y11848   4.142   6.364   4.226  0.1508 -0.2766 -0.0304
  113SAPE  C31311849   4.344   6.328   4.262 -0.7953  0.1436 -0.6054
  113SAPE  H13X11850   4.366   6.427   4.307  0.7860  1.2123 -3.4529
  113SAPE  H13Y11851   4.435   6.301   4.204 -1.5507 -2.1183 -0.8646
  113SAPE  C31411852   4.312   6.216   4.371 -0.1720 -0.1197 -0.0980
  113SAPE  H14X11853   4.290   6.119   4.321  0.0592  0.2224 -0.8773
  113SAPE  H14Y11854   4.216   6.240   4.421 -0.2666  0.0381 -0.3533
  113SAPE  C31511855   4.415   6.198   4.485  0.2148 -0.5236 -0.6425
  113SAPE  H15X11856   4.507   6.145   4.452  1.1535  0.4078  0.3894
  113SAPE  H15Y11857   4.380   6.135   4.570  2.8361  0.2618  1.1552
  113SAPE  C31611858   4.469   6.328   4.546  0.3321  0.5324  0.2330
  113SAPE  H16X11859   4.393   6.402   4.580 -1.9990 -0.8473 -1.6494
  113SAPE  H16Y11860   4.527   6.373   4.462  1.1475 -1.4673 -0.3274
  113SAPE  C31711861   4.571   6.308   4.660 -0.1658  0.4522 -0.3999
  113SAPE  H17X11862   4.642   6.236   4.616 -0.4394  0.8221 -1.4741
  113SAPE  H17Y11863   4.513   6.259   4.742  0.8422  0.5024  0.3558
  113SAPE  C31811864   4.641   6.439   4.708  0.4382  0.4888  0.2237
  113SAPE  H18X11865   4.560   6.507   4.741 -0.4365  0.9005 -2.4647
  113SAPE  H18Y11866   4.704   6.480   4.625 -0.9989  1.7737 -0.2895
  113SAPE  H18Z11867   4.715   6.410   4.785  2.1330  1.3347 -1.0051
  114SAPE     N11868   4.767   0.097   1.883 -0.0033 -0.6355  0.0032
  114SAPE   HN111869   4.718   0.030   1.821  0.0299 -0.2535 -0.4399
  114SAPE   HN211870   4.710   0.184   1.889  2.0671  0.7750  0.2182
  114SAPE   HN311871   4.856   0.119   1.834  1.4212  0.1161  2.7409
  114SAPE   C1211872   4.794   0.073   2.028  0.0720 -0.2901 -0.2787
  114SAPE  H12A11873   4.696   0.050   2.075  0.5917  0.1116  1.0484
  114SAPE  H12B11874   4.843   0.158   2.081 -0.1174  1.1237 -2.2577
  114SAPE   C1111875   4.882  -0.053   2.042 -0.2712  0.0080  0.1596
  114SAPE  H11A11876   4.833  -0.138   1.990  0.2733 -0.8174  0.9625
  114SAPE  H11B11877   4.894  -0.083   2.148  1.8622 -1.1798 -0.3611
  114SAPE     P11878   5.129   0.036   2.033 -0.0093  0.0933  0.4828
  114SAPE   O1311879   5.250   0.018   1.954 -0.3399  1.0667  0.4013
  114SAPE   O1411880   5.085   0.179   2.030  0.2066  1.3120 -0.0170
  114SAPE   O1211881   5.010  -0.047   1.982 -0.0114 -0.1421  0.3206
  114SAPE   O1111882   5.151  -0.009   2.181  0.1554  0.0553  0.4726
  114SAPE    C111883   5.221  -0.135   2.191  0.5319  0.0709 -0.4240
  114SAPE    HA11884   5.152  -0.218   2.162 -0.7546  0.4443  1.3892
  114SAPE    HB11885   5.303  -0.149   2.118 -0.8612  0.1026 -2.0369
  114SAPE    C211886   5.282  -0.152   2.333  0.0534  1.0891  0.3983
  114SAPE    HS11887   5.337  -0.249   2.331  0.6001  1.3763 -2.1479
  114SAPE   O2111888   5.190  -0.153   2.442  0.2971  0.2675  0.2812
  114SAPE   C2111889   5.079  -0.228   2.445 -0.0864 -0.0953  0.0106
  114SAPE   O2211890   5.050  -0.317   2.364  0.0961  0.0430 -0.8593
  114SAPE   C2211891   4.996  -0.204   2.575 -0.6024 -0.0660  0.7084
  114SAPE   H2R11892   5.017  -0.104   2.619  1.0123 -0.0730 -0.0087
  114SAPE   H2S11893   4.891  -0.206   2.539 -0.0620  2.2326 -1.2437
  114SAPE    C311894   5.383  -0.044   2.365 -0.4767 -0.2760  0.0877
  114SAPE    HX11895   5.341   0.055   2.391  2.0612  0.9366 -0.1409
  114SAPE    HY11896   5.435  -0.021   2.270  0.2264 -0.0926  0.5081
  114SAPE   O3111897   5.486  -0.086   2.460 -0.1766  0.1286 -0.1541
  114SAPE   C3111898   5.487  -0.027   2.582 -0.0363 -0.5545  0.0130
  114SAPE   O3211899   5.410   0.059   2.623  0.2877  0.1517 -0.1799
  114SAPE   C3211900   5.597  -0.093   2.663  0.3795  0.1583  0.2631
  114SAPE   H2X11901   5.690  -0.090   2.602  0.9957  0.7433  1.2098
  114SAPE   H2Y11902   5.556  -0.192   2.691 -0.1813  0.3529  0.1348
  114SAPE   C2311903   5.027  -0.315   2.685  0.4591  0.0930 -0.1354
  114SAPE   H3R11904   5.030  -0.416   2.639 -2.8418 -0.1252 -0.1390
  114SAPE   H3S11905   4.945  -0.325   2.759  1.3938 -0.3812  0.8638
  114SAPE   C2411906   5.157  -0.281   2.759 -1.2009  0.5601  0.1745
  114SAPE   H4R11907   5.234  -0.302   2.682 -1.9091 -1.7513  0.0325
  114SAPE   H4S11908   5.174  -0.366   2.828  3.4376 -0.0791 -1.4015
  114SAPE   C2511909   5.164  -0.137   2.823 -0.0073  0.3738 -0.0916
  114SAPE   H5R11910   5.186  -0.060   2.748 -0.2990 -0.9683 -1.6221
  114SAPE   C2611911   5.140  -0.113   2.954 -0.1258 -0.4087  0.3101
  114SAPE   H6R11912   5.177  -0.021   3.001 -0.2437 -0.0178 -0.3500
  114SAPE   C2711913   5.085  -0.217   3.048 -0.7115 -0.3062  0.0900
  114SAPE   H7R11914   5.156  -0.263   3.119 -1.7595 -2.0364  0.0698
  114SAPE   H7S11915   5.043  -0.303   2.991  0.2434  0.3215 -1.6501
  114SAPE   C2811916   4.971  -0.158   3.135  0.0488  0.1716  0.0838
  114SAPE   H8R11917   4.874  -0.128   3.093 -0.2369  1.8487  1.7963
  114SAPE   C2911918   4.972  -0.148   3.267  0.0693  0.4153  0.3456
  114SAPE   H9R11919   4.876  -0.114   3.309 -0.4827 -1.9438  1.1078
  114SAPE  C21011920   5.077  -0.165   3.370  0.0667 -0.8118  0.2349
  114SAPE  H10R11921   5.153  -0.227   3.318 -0.4561 -1.1789 -0.0963
  114SAPE  H10S11922   5.039  -0.224   3.456  1.4170  2.4328  3.3348
  114SAPE  C21111923   5.143  -0.039   3.425 -0.8205 -0.0819 -0.5534
  114SAPE  H11R11924   5.141   0.057   3.372  3.6610  0.5172  0.0394
  114SAPE  C21211925   5.219  -0.042   3.541  0.1984  0.4253  0.1762
  114SAPE  H12R11926   5.271   0.048   3.577  0.6459 -0.2671  1.3499
  114SAPE  C21311927   5.245  -0.165   3.626  0.0286 -0.1504 -1.2408
  114SAPE  H13R11928   5.344  -0.159   3.676 -0.1496  2.3523 -1.0233
  114SAPE  H13S11929   5.252  -0.257   3.564 -0.9805 -1.7438  0.8841
  114SAPE  C21411930   5.128  -0.198   3.727 -0.3689 -0.5142  0.4972
  114SAPE  H14R11931   5.032  -0.214   3.676 -1.7845 -0.3063  2.9259
  114SAPE  C21511932   5.132  -0.194   3.857  0.4625  0.1805  0.4827
  114SAPE  H15R11933   5.042  -0.212   3.917 -0.7683 -1.3265 -1.6759
  114SAPE  C21611934   5.261  -0.165   3.937  0.2135  0.6903 -0.0083
  114SAPE  H16R11935   5.354  -0.141   3.881  1.4124  1.3068  2.1392
  114SAPE  H16S11936   5.288  -0.253   3.998  0.8104  0.8769 -0.0013
  114SAPE  C21711937   5.242  -0.047   4.027 -0.2553 -0.3047 -0.0588
  114SAPE  H17R11938   5.156  -0.064   4.095  0.8512 -0.4925  1.3330
  114SAPE  H17S11939   5.203   0.043   3.974 -1.2650 -0.7113 -0.0326
  114SAPE  C21811940   5.368  -0.002   4.097 -0.3057  0.3290 -0.4637
  114SAPE  H18R11941   5.346   0.099   4.140  1.7333  0.3729  0.6089
  114SAPE  H18S11942   5.449  -0.005   4.021 -0.3692 -1.2627 -0.5042
  114SAPE  C21911943   5.405  -0.080   4.232 -0.1460  0.1820  0.1802
  114SAPE  H19R11944   5.489  -0.028   4.285  0.2217  1.2164 -1.3296
  114SAPE  H19S11945   5.437  -0.184   4.213 -1.2660 -0.6187  2.4020
  114SAPE  C22011946   5.286  -0.089   4.335  0.0370 -0.1173 -0.4440
  114SAPE  H20R11947   5.315  -0.130   4.433  3.3059  0.3700 -1.1111
  114SAPE  H20S11948   5.203  -0.152   4.294  1.9172 -3.0924  0.0231
  114SAPE  H20T11949   5.241   0.010   4.358  1.5675  0.5508 -0.2248
  114SAPE   C3311950   5.617  -0.037   2.803 -0.3449 -0.1844 -0.5871
  114SAPE   H3X11951   5.527  -0.046   2.867 -0.5098 -0.1220 -0.8070
  114SAPE   H3Y11952   5.627   0.074   2.801 -0.5618 -0.1329  0.5352
  114SAPE   C3411953   5.751  -0.088   2.856  0.4096 -0.3882 -0.3976
  114SAPE   H4X11954   5.798  -0.021   2.930  3.0994  0.3700 -2.6324
  114SAPE   H4Y11955   5.830  -0.096   2.779  0.0568  0.4124 -0.8581
  114SAPE   C3511956   5.742  -0.217   2.940 -0.1174  0.1543  0.1939
  114SAPE   H5X11957   5.836  -0.227   2.999  0.5044 -0.3974 -0.8360
  114SAPE   H5Y11958   5.730  -0.301   2.867  2.1369 -1.0242  1.0505
  114SAPE   C3611959   5.625  -0.223   3.032  0.9405  0.1639 -0.1511
  114SAPE   H6X11960   5.534  -0.224   2.968  0.2914  0.9845  0.7222
  114SAPE   H6Y11961   5.626  -0.144   3.111  0.5131 -0.3950  0.4299
  114SAPE   C3711962   5.614  -0.353   3.113 -0.0650  0.2234 -0.8368
  114SAPE   H7X11963   5.708  -0.365   3.171 -0.5971 -0.2895 -0.0462
  114SAPE   H7Y11964   5.608  -0.451   3.060  1.9432 -1.2215  1.3962
  114SAPE   C3811965   5.498  -0.354   3.222  0.3169 -0.5582  0.6803
  114SAPE   H8X11966   5.398  -0.334   3.177  1.2572 -0.2787 -1.4121
  114SAPE   H8Y11967   5.507  -0.265   3.288 -0.9946  0.3481 -0.3086
  114SAPE   C3911968   5.496  -0.470   3.328 -0.1761  0.1197 -0.0809
  114SAPE   H9X11969   5.465  -0.564   3.279  0.8814  1.5221 -3.7530
  114SAPE   H9Y11970   5.427  -0.436   3.408 -1.6515  2.4805 -2.2204
  114SAPE  C31011971   5.620  -0.479   3.417 -0.2341  0.2595  0.4293
  114SAPE  H10X11972   5.657  -0.379   3.446  1.9012  0.2237 -1.7894
  114SAPE  H10Y11973   5.702  -0.527   3.358  1.6078  0.9970  2.2901
  114SAPE  C31111974   5.610  -0.550   3.549  0.5277  0.7656 -0.9935
  114SAPE  H11X11975   5.709  -0.586   3.582  0.2511 -0.2920 -1.2880
  114SAPE  H11Y11976   5.547  -0.642   3.547  1.3115 -0.1560  3.7287
  114SAPE  C31211977   5.559  -0.465   3.670  0.2948 -0.4021 -0.0944
  114SAPE  H12X11978   5.448  -0.467   3.671  0.2298  0.4043  2.3643
  114SAPE  H12Y11979   5.577  -0.357   3.650 -1.8643 -0.1611 -1.0516
  114SAPE  C31311980   5.617  -0.503   3.807  0.1462  0.1484  0.6256
  114SAPE  H13X11981   5.728  -0.490   3.813 -0.1224  2.5789  1.3485
  114SAPE  H13Y11982   5.602  -0.612   3.826  0.0972 -0.1486 -0.9696
  114SAPE  C31411983   5.560  -0.430   3.926  0.5621  0.2738  1.0699
  114SAPE  H14X11984   5.450  -0.441   3.923  0.5957 -0.0473 -1.6050
  114SAPE  H14Y11985   5.575  -0.320   3.922  0.2314  0.2797 -0.3700
  114SAPE  C31511986   5.612  -0.490   4.055  0.0391  0.0347 -0.5031
  114SAPE  H15X11987   5.723  -0.493   4.054  0.1360 -4.0455  1.2773
  114SAPE  H15Y11988   5.581  -0.597   4.046  1.4735 -0.5221  0.7316
  114SAPE  C31611989   5.543  -0.433   4.172 -0.5700 -0.1636  0.2571
  114SAPE  H16X11990   5.436  -0.415   4.147 -0.9131 -1.4620  0.7070
  114SAPE  H16Y11991   5.594  -0.336   4.190  2.0309 -1.1555 -1.2375
  114SAPE  C31711992   5.547  -0.528   4.297  0.2284  0.2606 -0.7489
  114SAPE  H17X11993   5.649  -0.522   4.340  0.6291 -0.1576 -1.6128
  114SAPE  H17Y11994   5.530  -0.635   4.272 -0.0304  0.0651  0.2172
  114SAPE  C31811995   5.456  -0.499   4.417 -0.0939  0.0752  0.6953
  114SAPE  H18X11996   5.482  -0.553   4.510  0.8381 -1.0164 -0.1731
  114SAPE  H18Y11997   5.351  -0.519   4.385  0.8086 -0.3492 -2.2920
  114SAPE  H18Z11998   5.463  -0.392   4.445  0.6335  0.1553  0.2152
  115SAPE     N11999   3.850   2.205   1.289 -0.1680 -0.7171 -0.2296
  115SAPE   HN112000   3.951   2.178   1.286  0.5720  1.7644  0.1120
  115SAPE   HN212001   3.819   2.179   1.193 -1.5107 -1.3045  0.3422
  115SAPE   HN312002   3.840   2.307   1.305  0.9618 -0.5025 -0.7732
  115SAPE   C1212003   3.774   2.114   1.391 -0.3226  0.4196 -0.6210
  115SAPE  H12A12004   3.796   2.012   1.352 -1.3844 -0.2792  0.5305
  115SAPE  H12B12005   3.664   2.127   1.378 -0.4079  1.7647  1.0615
  115SAPE   C1112006   3.821   2.120   1.534 -0.2243 -1.1426  0.0047
  115SAPE  H11A12007   3.911   2.056   1.549  1.9096  1.8127  0.7220
  115SAPE  H11B12008   3.744   2.076   1.602  0.2948 -0.8470  0.7970
  115SAPE     P12009   3.935   2.299   1.691  0.0454 -0.2669 -0.0715
  115SAPE   O1312010   4.068   2.249   1.702  0.0126 -0.0636  0.2149
  115SAPE   O1412011   3.917   2.446   1.705 -1.0135  0.0887  0.4016
  115SAPE   O1212012   3.862   2.251   1.560  0.4108  0.6302  0.7792
  115SAPE   O1112013   3.849   2.240   1.811  0.3946 -0.0412  0.4369
  115SAPE    C112014   3.882   2.113   1.863  0.8247 -0.4828  0.9119
  115SAPE    HA12015   3.791   2.051   1.877  0.6539 -0.5653 -0.4821
  115SAPE    HB12016   3.961   2.053   1.812  0.2770 -0.6165  0.2099
  115SAPE    C212017   3.936   2.117   2.010 -0.2705 -0.1013 -0.0692
  115SAPE    HS12018   3.954   2.014   2.048 -1.4730 -0.9008 -1.5932
  115SAPE   O2112019   3.843   2.177   2.102  0.2574  0.4081  0.8749
  115SAPE   C2112020   3.749   2.098   2.149 -0.2729 -0.0065  0.4628
  115SAPE   O2212021   3.729   1.981   2.125  0.1256 -0.2599  0.5952
  115SAPE   C2212022   3.654   2.183   2.240  0.0398 -0.0758  0.0718
  115SAPE   H2R12023   3.661   2.143   2.343 -1.0109 -1.1974 -0.2492
  115SAPE   H2S12024   3.681   2.290   2.230 -0.5811  0.0192 -0.8461
  115SAPE    C312025   4.066   2.203   2.017 -0.0856 -0.6582  0.1484
  115SAPE    HX12026   4.033   2.299   1.970  0.0423  0.7186  2.6931
  115SAPE    HY12027   4.146   2.162   1.952  0.2603  0.3174 -0.0582
  115SAPE   O3112028   4.120   2.210   2.151  0.2248  0.0579 -0.0759
  115SAPE   C3112029   4.123   2.331   2.207 -0.0391 -0.4399  0.1113
  115SAPE   O3212030   4.070   2.432   2.164 -0.2285 -0.3690  0.6025
  115SAPE   C3212031   4.198   2.324   2.337  0.4123 -0.2409 -0.0669
  115SAPE   H2X12032   4.286   2.390   2.319 -0.3618  0.9730  0.4223
  115SAPE   H2Y12033   4.241   2.223   2.350 -1.8882 -1.2500  0.0460
  115SAPE   C2312034   3.503   2.170   2.189 -0.4063  0.6363  0.0198
  115SAPE   H3R12035   3.484   2.070   2.144  1.6459  0.9391 -1.7195
  115SAPE   H3S12036   3.499   2.233   2.097 -0.4148  1.0956  0.3315
  115SAPE   C2412037   3.386   2.194   2.281 -0.3282 -0.5316 -0.5188
  115SAPE   H4R12038   3.350   2.096   2.319 -1.2222 -0.1816 -0.4227
  115SAPE   H4S12039   3.297   2.225   2.221 -1.2341 -0.2663  0.9048
  115SAPE   C2512040   3.407   2.308   2.380 -0.3498  0.3347 -0.5197
  115SAPE   H5R12041   3.462   2.398   2.348 -1.4681  0.6042 -1.8110
  115SAPE   C2612042   3.398   2.290   2.512  1.1533  0.2112 -0.0544
  115SAPE   H6R12043   3.407   2.380   2.575  1.8848  0.3168 -0.3072
  115SAPE   C2712044   3.330   2.174   2.571  0.3589  0.1701 -0.6410
  115SAPE   H7R12045   3.372   2.088   2.514  0.5622 -0.0698 -0.1380
  115SAPE   H7S12046   3.220   2.172   2.555  0.6078  0.5207 -2.5376
  115SAPE   C2812047   3.372   2.160   2.720 -0.5295  0.2257  0.7105
  115SAPE   H8R12048   3.480   2.151   2.735  0.2588  2.9753 -2.2858
  115SAPE   C2912049   3.296   2.166   2.826  0.2374  0.3090  0.5199
  115SAPE   H9R12050   3.358   2.159   2.917  2.7706 -0.7923 -1.1509
  115SAPE  C21012051   3.148   2.199   2.833 -0.6939  0.2475  0.0613
  115SAPE  H10R12052   3.083   2.188   2.743 -0.1203  2.8001 -0.7563
  115SAPE  H10S12053   3.138   2.310   2.840  0.6580  0.3662  0.4192
  115SAPE  C21112054   3.083   2.144   2.954  0.5669  0.0392  0.5648
  115SAPE  H11R12055   3.139   2.154   3.049  0.9634 -2.4137  0.6375
  115SAPE  C21212056   2.967   2.072   2.963 -0.5187 -0.7158 -0.1850
  115SAPE  H12R12057   2.922   2.047   3.061  1.0585 -1.6702  0.3324
  115SAPE  C21312058   2.876   2.037   2.850  0.0486 -0.2646  0.1530
  115SAPE  H13R12059   2.903   2.097   2.760  1.6525  2.6070  2.3836
  115SAPE  H13S12060   2.776   2.075   2.877  0.2988 -1.1088  2.5067
  115SAPE  C21412061   2.871   1.890   2.834  0.2202 -0.7741  0.1808
  115SAPE  H14R12062   2.946   1.846   2.767  1.4107  0.5311  0.6052
  115SAPE  C21512063   2.779   1.801   2.880  1.2292  0.9428 -0.2400
  115SAPE  H15R12064   2.786   1.694   2.854  3.1462  1.1520 -0.7408
  115SAPE  C21612065   2.663   1.840   2.973  0.5125  0.6031  0.7740
  115SAPE  H16R12066   2.570   1.856   2.914 -0.2670 -1.0640  1.4694
  115SAPE  H16S12067   2.682   1.939   3.020 -0.3269  0.1867  2.0708
  115SAPE  C21712068   2.630   1.743   3.091 -0.4589 -0.3986 -0.2608
  115SAPE  H17R12069   2.727   1.709   3.133 -1.8202 -3.7645  0.4929
  115SAPE  H17S12070   2.581   1.650   3.055  1.1474 -0.9882 -1.0019
  115SAPE  C21812071   2.538   1.816   3.189 -0.0670  0.2017 -1.3934
  115SAPE  H18R12072   2.440   1.845   3.146 -0.8590 -0.2398  0.0551
  115SAPE  H18S12073   2.589   1.910   3.217  2.9895 -1.3387 -1.2952
  115SAPE  C21912074   2.500   1.726   3.312 -0.4050  0.2018  0.3479
  115SAPE  H19R12075   2.463   1.791   3.394 -1.2196  0.7503 -0.4315
  115SAPE  H19S12076   2.592   1.671   3.342  0.2935  1.0910 -0.1071
  115SAPE  C22012077   2.382   1.633   3.277  0.2143 -0.3389  0.1736
  115SAPE  H20R12078   2.310   1.692   3.217  1.1651  1.8971  1.1357
  115SAPE  H20S12079   2.329   1.604   3.370  2.9759  0.9654  2.3036
  115SAPE  H20T12080   2.415   1.552   3.207 -0.1500  0.1650 -0.5839
  115SAPE   C3312081   4.115   2.379   2.463  0.8276  0.0909  0.0426
  115SAPE   H3X12082   4.024   2.317   2.477  1.4420 -0.4921  1.5693
  115SAPE   H3Y12083   4.072   2.478   2.437 -2.2869 -1.2138 -0.1558
  115SAPE   C3412084   4.199   2.368   2.594 -0.2254 -0.1469  0.2168
  115SAPE   H4X12085   4.303   2.401   2.570 -0.9038  1.8382 -0.1695
  115SAPE   H4Y12086   4.208   2.264   2.632  0.8464 -0.6114 -1.1943
  115SAPE   C3512087   4.137   2.459   2.701 -0.1947 -0.1678  0.3948
  115SAPE   H5X12088   4.027   2.443   2.712 -0.3660  0.1905 -0.7520
  115SAPE   H5Y12089   4.140   2.566   2.673  2.2314  0.2337  1.8459
  115SAPE   C3612090   4.215   2.438   2.836 -1.0992  0.0951  0.5360
  115SAPE   H6X12091   4.322   2.454   2.811 -1.7946  1.2787 -1.9700
  115SAPE   H6Y12092   4.188   2.336   2.871  0.2148 -0.2877  0.4949
  115SAPE   C3712093   4.161   2.538   2.938 -0.1890 -0.3020  0.1401
  115SAPE   H7X12094   4.134   2.634   2.889 -1.1376 -1.4172 -1.6177
  115SAPE   H7Y12095   4.249   2.548   3.006  0.2244 -0.6721 -0.3248
  115SAPE   C3812096   4.043   2.492   3.023  0.2975 -0.3287 -0.2017
  115SAPE   H8X12097   4.086   2.395   3.058 -0.5713 -1.4222 -2.0124
  115SAPE   H8Y12098   3.957   2.458   2.962  0.0815  0.3074 -0.2591
  115SAPE   C3912099   3.996   2.585   3.138  0.1003 -0.0809  0.8268
  115SAPE   H9X12100   3.942   2.673   3.095 -0.9829 -1.5911 -1.0573
  115SAPE   H9Y12101   4.095   2.618   3.175  1.0180  0.1933 -1.6550
  115SAPE  C31012102   3.926   2.506   3.257  0.0580 -0.8457  0.2925
  115SAPE  H10X12103   3.993   2.422   3.285  2.8869  0.8280 -0.9626
  115SAPE  H10Y12104   3.827   2.476   3.218 -0.6174  0.4736  0.9213
  115SAPE  C31112105   3.916   2.581   3.391 -0.0331 -0.4049 -0.0115
  115SAPE  H11X12106   4.012   2.635   3.401  1.3833 -2.4360 -1.8527
  115SAPE  H11Y12107   3.905   2.513   3.478  0.4998 -1.4576 -0.7471
  115SAPE  C31212108   3.813   2.691   3.383  0.0969  0.3454 -0.0526
  115SAPE  H12X12109   3.710   2.654   3.404  0.3926 -0.9704 -0.8106
  115SAPE  H12Y12110   3.805   2.739   3.283 -1.3413 -0.6230 -0.4423
  115SAPE  C31312111   3.833   2.807   3.490  0.6774  0.2472 -0.3441
  115SAPE  H13X12112   3.814   2.904   3.438 -0.8788 -0.3605 -0.9618
  115SAPE  H13Y12113   3.939   2.788   3.519  0.6376  1.2561  0.5221
  115SAPE  C31412114   3.737   2.786   3.609 -0.6413  0.1918  0.1753
  115SAPE  H14X12115   3.731   2.680   3.642  0.4691  0.0120 -0.1669
  115SAPE  H14Y12116   3.636   2.817   3.576 -0.8004 -1.5029 -1.0652
  115SAPE  C31512117   3.786   2.868   3.734  0.3724 -0.1466 -0.7549
  115SAPE  H15X12118   3.780   2.973   3.700  0.3417  0.3818  0.8176
  115SAPE  H15Y12119   3.894   2.854   3.760 -0.3026 -1.3103  1.7426
  115SAPE  C31612120   3.695   2.852   3.856  0.0013 -0.4879 -0.0861
  115SAPE  H16X12121   3.590   2.856   3.819  0.2202  0.5079 -0.6215
  115SAPE  H16Y12122   3.701   2.935   3.929 -0.9980 -0.4324 -0.0474
  115SAPE  C31712123   3.711   2.721   3.933  1.0207  0.2080  0.5798
  115SAPE  H17X12124   3.813   2.714   3.976  1.2798  0.4875  0.0251
  115SAPE  H17Y12125   3.701   2.640   3.857 -1.2959  0.6602  0.3490
  115SAPE  C31812126   3.601   2.708   4.039  0.2722  0.3971  0.1769
  115SAPE  H18X12127   3.598   2.796   4.107  2.0050  0.5705  0.0772
  115SAPE  H18Y12128   3.622   2.621   4.105 -0.4704 -0.2950 -0.4839
  115SAPE  H18Z12129   3.501   2.687   3.996  0.1860 -0.8793  0.9451
  116SAPE     N12130   3.901   2.604   1.936 -0.7048  0.1147  0.0002
  116SAPE   HN112131   3.886   2.706   1.926  1.2872  0.4875  0.4511
  116SAPE   HN212132   4.000   2.577   1.951 -0.2272 -1.5293 -4.5287
  116SAPE   HN312133   3.885   2.559   1.843 -0.9024 -0.3433  0.2523
  116SAPE   C1212134   3.801   2.561   2.037  0.2543  0.2953 -0.3552
  116SAPE  H12A12135   3.839   2.585   2.139 -0.4546 -0.0361 -0.0102
  116SAPE  H12B12136   3.795   2.450   2.032  0.7560  0.3191 -1.9912
  116SAPE   C1112137   3.677   2.643   2.024 -0.2574  0.0187  0.0425
  116SAPE  H11A12138   3.621   2.635   2.120 -1.3176 -2.4751 -0.7018
  116SAPE  H11B12139   3.607   2.600   1.948  1.1648 -0.0098 -1.2946
  116SAPE     P12140   3.578   2.875   1.994 -0.1034 -0.3182  0.5334
  116SAPE   O1312141   3.531   2.860   1.856 -0.7658  0.5142  0.4927
  116SAPE   O1412142   3.473   2.853   2.097 -0.3460  0.2828  0.3826
  116SAPE   O1212143   3.705   2.778   2.004  0.0755  0.4259 -0.0578
  116SAPE   O1112144   3.645   3.018   2.023  0.9805 -0.4455  0.1968
  116SAPE    C112145   3.753   3.024   2.117  0.1212  0.2192  0.2346
  116SAPE    HA12146   3.819   2.935   2.113  0.4288  0.3809  1.3501
  116SAPE    HB12147   3.816   3.113   2.098 -1.1504  1.1516  0.2220
  116SAPE    C212148   3.704   3.058   2.261 -0.9835 -0.6469 -0.1052
  116SAPE    HS12149   3.792   3.082   2.325 -1.3128  2.1883 -0.6080
  116SAPE   O2112150   3.626   2.960   2.331 -0.1759 -0.2115  0.0807
  116SAPE   C2112151   3.689   2.849   2.363  0.9845 -0.1589 -0.1071
  116SAPE   O2212152   3.796   2.817   2.318  0.3631  0.4723 -0.0916
  116SAPE   C2212153   3.597   2.764   2.459 -0.4121 -0.3303 -0.4219
  116SAPE   H2R12154   3.625   2.800   2.561 -2.0786  1.0092 -0.3831
  116SAPE   H2S12155   3.490   2.781   2.435 -0.7394 -1.2835  0.3127
  116SAPE    C312156   3.629   3.191   2.260 -0.3485 -0.0767  0.4092
  116SAPE    HX12157   3.545   3.203   2.188 -0.4268 -1.3131  0.2720
  116SAPE    HY12158   3.700   3.270   2.226 -1.3160  0.7003  0.1070
  116SAPE   O3112159   3.585   3.224   2.393 -0.2820  0.0875  0.5272
  116SAPE   C3112160   3.463   3.248   2.417  0.0975 -0.5597  0.1006
  116SAPE   O3212161   3.371   3.249   2.334 -0.1925 -0.0726 -0.4234
  116SAPE   C3212162   3.453   3.293   2.566  0.0602 -0.6827  0.9310
  116SAPE   H2X12163   3.357   3.252   2.605 -1.1232 -1.0337 -2.1171
  116SAPE   H2Y12164   3.463   3.403   2.571  0.7562 -0.6141 -1.0368
  116SAPE   C2312165   3.618   2.610   2.438 -0.0042  0.5701 -0.1816
  116SAPE   H3R12166   3.597   2.605   2.329 -4.3664  3.2661  0.2871
  116SAPE   H3S12167   3.541   2.549   2.491  0.5583 -0.9742 -1.0708
  116SAPE   C2412168   3.764   2.567   2.468  0.2373  0.0364 -0.4767
  116SAPE   H4R12169   3.834   2.600   2.389  1.7553  0.9499  1.1703
  116SAPE   H4S12170   3.757   2.456   2.471 -1.7887  0.1302  0.5455
  116SAPE   C2512171   3.816   2.608   2.608 -0.0172 -0.2414 -0.0302
  116SAPE   H5R12172   3.869   2.705   2.604  3.1344 -1.8529 -0.0570
  116SAPE   C2612173   3.790   2.551   2.727 -0.3124  0.6330  0.4009
  116SAPE   H6R12174   3.825   2.593   2.823  0.1877  1.2914 -0.0507
  116SAPE   C2712175   3.702   2.422   2.743 -0.1247 -0.3305 -0.1264
  116SAPE   H7R12176   3.731   2.347   2.820 -1.8793 -1.8843 -0.9045
  116SAPE   H7S12177   3.696   2.360   2.651 -2.0259  1.5203 -1.3396
  116SAPE   C2812178   3.560   2.466   2.788 -0.3680  0.2371  0.6838
  116SAPE   H8R12179   3.491   2.497   2.708  0.7958 -0.4465 -0.6388
  116SAPE   C2912180   3.514   2.474   2.914 -0.0701 -0.6188  0.1148
  116SAPE   H9R12181   3.410   2.508   2.921  0.1607  0.1639 -0.1677
  116SAPE  C21012182   3.584   2.437   3.041 -0.4350  0.2905 -0.3197
  116SAPE  H10R12183   3.693   2.441   3.018 -0.7442  0.3082 -1.9115
  116SAPE  H10S12184   3.548   2.334   3.065 -1.8411  0.8687  0.1384
  116SAPE  C21112185   3.553   2.538   3.148 -0.1504  0.2500 -0.3642
  116SAPE  H11R12186   3.574   2.644   3.127 -0.1085  0.5798  1.2516
  116SAPE  C21212187   3.490   2.506   3.262 -0.1849 -0.2841 -0.1214
  116SAPE  H12R12188   3.457   2.582   3.335 -0.9149  0.1284 -0.8644
  116SAPE  C21312189   3.441   2.375   3.318  0.1111 -0.4230 -0.2710
  116SAPE  H13R12190   3.442   2.372   3.429 -0.9592 -1.6726 -0.2561
  116SAPE  H13S12191   3.514   2.298   3.286 -1.1744 -1.3489 -1.0867
  116SAPE  C21412192   3.303   2.336   3.273 -0.3359  0.3028 -0.1993
  116SAPE  H14R12193   3.300   2.341   3.163  3.4898  1.8441 -0.3767
  116SAPE  C21512194   3.205   2.268   3.342 -0.2803  0.1768 -0.3760
  116SAPE  H15R12195   3.115   2.234   3.290 -1.7865  2.0630  0.8299
  116SAPE  C21612196   3.200   2.232   3.492 -0.6586 -0.1118  0.3357
  116SAPE  H16R12197   3.306   2.239   3.528 -0.6864  3.4838  0.1255
  116SAPE  H16S12198   3.170   2.126   3.504 -1.4653  0.1321  0.5031
  116SAPE  C21712199   3.119   2.337   3.576 -0.6175  0.2970 -1.1136
  116SAPE  H17R12200   3.012   2.315   3.558 -0.4502 -0.2724 -1.4341
  116SAPE  H17S12201   3.132   2.440   3.536 -0.7563  0.8891  0.3223
  116SAPE  C21812202   3.157   2.342   3.726  0.1978 -0.1942  0.9859
  116SAPE  H18R12203   3.178   2.240   3.764 -1.8727 -0.9914  0.1331
  116SAPE  H18S12204   3.070   2.386   3.778  1.3255  1.0730  1.8886
  116SAPE  C21912205   3.289   2.428   3.756  0.6430 -0.5646  0.5651
  116SAPE  H19R12206   3.263   2.530   3.721  0.3179 -0.8271  0.0359
  116SAPE  H19S12207   3.367   2.381   3.692  0.2886  0.6854 -0.8392
  116SAPE  C22012208   3.334   2.432   3.898 -0.0155 -0.1784 -0.4733
  116SAPE  H20R12209   3.444   2.445   3.900 -0.1019  1.1425 -1.9620
  116SAPE  H20S12210   3.304   2.342   3.955 -2.4945  0.7931 -0.1295
  116SAPE  H20T12211   3.290   2.522   3.946  0.2937  0.7486 -1.8819
  116SAPE   C3312212   3.562   3.238   2.662  0.0268 -0.8288  0.3144
  116SAPE   H3X12213   3.662   3.281   2.642  0.8310 -2.3710  0.8982
  116SAPE   H3Y12214   3.569   3.128   2.646  2.3559 -0.6691 -0.1074
  116SAPE   C3412215   3.534   3.268   2.819  0.0535 -0.0098 -0.5191
  116SAPE   H4X12216   3.621   3.225   2.874 -0.0335 -0.7766 -0.9570
  116SAPE   H4Y12217   3.448   3.208   2.854  1.6220 -1.0744  1.7342
  116SAPE   C3512218   3.523   3.415   2.870 -0.0071 -0.0660  0.0794
  116SAPE   H5X12219   3.438   3.462   2.816  0.0350  2.0809  1.7257
  116SAPE   H5Y12220   3.610   3.476   2.837 -1.4869  2.0136 -0.2411
  116SAPE   C3612221   3.521   3.426   3.021  0.4962  0.6617 -0.3823
  116SAPE   H6X12222   3.628   3.429   3.052  0.2561 -1.6973  0.8682
  116SAPE   H6Y12223   3.462   3.339   3.057  3.2453 -1.0583  0.2852
  116SAPE   C3712224   3.438   3.548   3.063 -0.0436  0.5768  0.6011
  116SAPE   H7X12225   3.345   3.537   3.002  1.8583 -0.9551 -2.2629
  116SAPE   H7Y12226   3.486   3.638   3.020  0.6108  0.9980  2.1586
  116SAPE   C3812227   3.433   3.545   3.208 -0.8213  0.1799 -0.0924
  116SAPE   H8X12228   3.538   3.546   3.243 -0.5483 -0.8558 -0.8450
  116SAPE   H8Y12229   3.393   3.445   3.237 -0.2748 -0.0589 -0.1560
  116SAPE   C3912230   3.358   3.656   3.276  0.6087  0.4816  0.2941
  116SAPE   H9X12231   3.250   3.654   3.250  0.5507  1.4722  0.4102
  116SAPE   H9Y12232   3.398   3.757   3.251  0.0886  0.8025  0.7319
  116SAPE  C31012233   3.349   3.636   3.433  0.4131 -0.1181 -0.7151
  116SAPE  H10X12234   3.327   3.529   3.450  2.0054 -0.2767  0.6056
  116SAPE  H10Y12235   3.265   3.697   3.474 -0.6166 -1.4182 -0.8430
  116SAPE  C31112236   3.477   3.670   3.503 -0.4127 -0.4644  0.4132
  116SAPE  H11X12237   3.502   3.775   3.475  2.1727 -0.4776  2.2994
  116SAPE  H11Y12238   3.561   3.604   3.474 -1.2475 -1.0078 -0.8555
  116SAPE  C31212239   3.469   3.666   3.658 -0.3216  0.7733  0.2427
  116SAPE  H12X12240   3.415   3.570   3.673 -3.0415  2.1753  0.0515
  116SAPE  H12Y12241   3.396   3.741   3.695 -4.3577 -2.8166  0.3215
  116SAPE  C31312242   3.601   3.656   3.729 -0.6362  0.2412 -0.3444
  116SAPE  H13X12243   3.653   3.751   3.704  1.9261 -1.4519 -1.8578
  116SAPE  H13Y12244   3.659   3.570   3.689 -1.8466 -0.5398 -0.4659
  116SAPE  C31412245   3.589   3.645   3.882  0.1531  0.7172  0.0399
  116SAPE  H14X12246   3.550   3.544   3.908  0.2781  0.2624 -1.4941
  116SAPE  H14Y12247   3.506   3.707   3.924 -1.1452 -1.5203  0.9161
  116SAPE  C31512248   3.726   3.659   3.956  0.1014 -0.2994 -0.2385
  116SAPE  H15X12249   3.785   3.753   3.952  1.8272 -1.3743 -1.4906
  116SAPE  H15Y12250   3.785   3.579   3.905  3.2648  1.6458  0.0877
  116SAPE  C31612251   3.710   3.627   4.108 -0.3303  0.0563 -0.1400
  116SAPE  H16X12252   3.671   3.524   4.098  1.0070 -0.3577 -1.5073
  116SAPE  H16Y12253   3.645   3.702   4.157 -0.4223 -1.4997  2.2523
  116SAPE  C31712254   3.830   3.638   4.193  0.1693  0.1026  0.8006
  116SAPE  H17X12255   3.876   3.733   4.156 -0.5315  0.6461  1.2990
  116SAPE  H17Y12256   3.906   3.561   4.166  0.4354  0.9751 -1.1369
  116SAPE  C31812257   3.807   3.653   4.347 -0.4038 -0.4363  0.5484
  116SAPE  H18X12258   3.736   3.572   4.376 -1.5476 -0.0842 -1.0789
  116SAPE  H18Y12259   3.745   3.740   4.376 -2.6717 -2.1730  1.1972
  116SAPE  H18Z12260   3.902   3.648   4.404 -1.5417 -1.8207  2.4406
  117SOPE     N12261   1.730   3.226   6.591  0.0558 -0.3787 -0.2477
  117SOPE   HN112262   1.789   3.301   6.548  1.1133  0.0426  1.8166
  117SOPE   HN212263   1.776   3.135   6.568 -1.4775 -1.0025 -1.0123
  117SOPE   HN312264   1.631   3.221   6.560 -0.4700 -2.0797  1.5137
  117SOPE   C1212265   1.730   3.232   6.742  0.3562  0.7170  0.6193
  117SOPE  H12A12266   1.671   3.321   6.771  1.2123  1.4992  0.0522
  117SOPE  H12B12267   1.832   3.256   6.779  0.7173 -0.0668  0.1690
  117SOPE   C1112268   1.672   3.102   6.810  0.2902 -0.2351  0.1163
  117SOPE  H11A12269   1.651   3.121   6.917 -2.9299  0.9004 -0.6080
  117SOPE  H11B12270   1.752   3.026   6.795  1.2231  0.6540  0.4224
  117SOPE     P12271   1.474   2.932   6.786  0.4319  0.0933 -0.0669
  117SOPE   O1312272   1.324   2.952   6.789 -0.1629 -0.9245 -0.0382
  117SOPE   O1412273   1.533   2.869   6.907  0.0933  0.1377  0.0058
  117SOPE   O1212274   1.547   3.066   6.742  0.0457 -0.0771  0.0709
  117SOPE   O1112275   1.500   2.830   6.669 -0.1159 -0.5457 -0.7729
  117SOPE    C112276   1.481   2.881   6.541  0.3721 -0.1891  0.5309
  117SOPE    HA12277   1.577   2.875   6.485  1.1801  2.4286  1.4657
  117SOPE    HB12278   1.454   2.988   6.533  1.6380  0.1618  0.7734
  117SOPE    C212279   1.368   2.810   6.466  0.2215 -0.0463 -0.7207
  117SOPE    HS12280   1.268   2.823   6.514  1.0510 -3.7899  2.5549
  117SOPE   O2112281   1.409   2.669   6.462  0.7784  0.0952 -0.7598
  117SOPE   C2112282   1.319   2.577   6.453  0.5431 -0.4979 -0.2066
  117SOPE   O2212283   1.201   2.594   6.474 -0.4927  0.5407 -0.0275
  117SOPE   C2212284   1.378   2.443   6.413 -0.0475  0.7569  0.7215
  117SOPE   H2R12285   1.336   2.363   6.478  2.2016 -1.3234 -0.2060
  117SOPE   H2S12286   1.487   2.447   6.434  0.1694  2.3381 -0.5407
  117SOPE    C312287   1.358   2.852   6.319 -0.6684 -0.0848  0.0444
  117SOPE    HX12288   1.456   2.825   6.276  0.8596  1.7701  2.1214
  117SOPE    HY12289   1.331   2.960   6.322 -0.6170  0.0465 -2.3912
  117SOPE   O3112290   1.248   2.791   6.248 -0.0021  0.0665 -0.3776
  117SOPE   C3112291   1.158   2.862   6.191  0.0265 -0.6132  0.0501
  117SOPE   O3212292   1.159   2.984   6.175 -0.0798  0.4402 -0.7818
  117SOPE   C3212293   1.033   2.778   6.157 -0.1081 -0.0833  1.0152
  117SOPE   H2X12294   0.997   2.822   6.062 -1.0938 -1.0818  0.9037
  117SOPE   H2Y12295   0.978   2.805   6.249 -0.5060  2.8256  0.0146
  117SOPE   C2312296   1.344   2.412   6.269  0.5514  0.1032 -0.5439
  117SOPE   H3R12297   1.349   2.494   6.195  0.0504  0.9486  0.3306
  117SOPE   H3S12298   1.238   2.377   6.268  0.2735  0.3406  3.5619
  117SOPE   C2412299   1.426   2.288   6.220 -0.2488  0.1776 -0.8696
  117SOPE   H4R12300   1.533   2.312   6.233 -0.4627  0.7012  0.0776
  117SOPE   H4S12301   1.413   2.202   6.290 -0.0069  0.8461  0.0082
  117SOPE   C2512302   1.387   2.222   6.090  0.5578 -0.4044  0.0505
  117SOPE   H5R12303   1.459   2.141   6.067  0.4175  0.0748 -2.4589
  117SOPE   H5S12304   1.287   2.174   6.093 -0.0580  0.8462  0.3991
  117SOPE   C2612305   1.398   2.323   5.972 -0.6789  0.1315  0.7279
  117SOPE   H6R12306   1.341   2.415   5.999  0.0587  1.7301 -2.6262
  117SOPE   H6S12307   1.503   2.356   5.977 -0.2524 -1.3184  2.2593
  117SOPE   C2712308   1.346   2.267   5.842  0.3991  0.3147 -0.6908
  117SOPE   H7R12309   1.410   2.188   5.799  1.1746  0.8320 -0.5277
  117SOPE   H7S12310   1.245   2.226   5.859  0.5173  0.7826  1.4457
  117SOPE   C2812311   1.349   2.381   5.728 -0.1521 -0.1740 -1.5307
  117SOPE   H8R12312   1.312   2.329   5.637  0.2962 -1.3525 -1.0591
  117SOPE   H8S12313   1.273   2.452   5.769 -0.3117 -1.7220  1.0587
  117SOPE   C2912314   1.483   2.443   5.700 -0.2839 -0.0411  0.1712
  117SOPE   H9112315   1.569   2.403   5.757  1.4477  0.0257 -2.2487
  117SOPE  C21012316   1.499   2.552   5.618  0.2951  0.4277 -1.1646
  117SOPE  H10112317   1.603   2.587   5.603 -0.1617  2.9765  0.8484
  117SOPE  C21112318   1.394   2.610   5.523  0.2895 -0.1073  0.0579
  117SOPE  H11R12319   1.374   2.717   5.543  1.2984  0.3802 -1.3992
  117SOPE  H11S12320   1.303   2.552   5.553  1.6360 -3.2823 -1.4831
  117SOPE  C21212321   1.427   2.595   5.373  0.8567  0.5674 -0.1209
  117SOPE  H12R12322   1.533   2.624   5.356  0.3977  2.5583  0.1402
  117SOPE  H12S12323   1.358   2.662   5.317 -0.2062 -0.2915  0.1406
  117SOPE  C21312324   1.417   2.449   5.316 -0.2215  0.3515  0.5591
  117SOPE  H13R12325   1.309   2.421   5.322 -0.6973  2.1215  0.6553
  117SOPE  H13S12326   1.480   2.388   5.385  0.2193 -1.6717 -1.4986
  117SOPE  C21412327   1.473   2.445   5.168  0.7458  0.3193 -0.2704
  117SOPE  H14R12328   1.477   2.337   5.141  0.9940  0.8570 -2.6125
  117SOPE  H14S12329   1.576   2.485   5.166  0.0790  2.2880 -4.0440
  117SOPE  C21512330   1.387   2.526   5.071  0.4233 -0.2931  0.7912
  117SOPE  H15R12331   1.410   2.629   5.105  0.3819 -0.6957  2.0775
  117SOPE  H15S12332   1.281   2.496   5.082  0.9292 -1.5792  2.6933
  117SOPE  C21612333   1.440   2.500   4.929  0.2163  0.1626  0.0584
  117SOPE  H16R12334   1.472   2.394   4.933 -1.1398 -0.2370  2.5448
  117SOPE  H16S12335   1.532   2.558   4.907 -0.5640  1.1654 -0.6303
  117SOPE  C21712336   1.333   2.523   4.820 -0.8258 -0.1892 -0.1305
  117SOPE  H17R12337   1.305   2.630   4.822 -0.3640 -0.0630 -0.2675
  117SOPE  H17S12338   1.242   2.465   4.845 -1.6603  1.0571 -0.1937
  117SOPE  C21812339   1.367   2.495   4.678 -0.3087 -0.1063  0.2163
  117SOPE  H18R12340   1.458   2.551   4.648 -1.0115  0.5238 -0.8334
  117SOPE  H18S12341   1.285   2.524   4.608  0.4800 -0.7498 -1.0076
  117SOPE  H18T12342   1.389   2.386   4.672  0.1965 -0.0309  0.6241
  117SOPE   C3312343   1.048   2.626   6.170  1.2086  0.3120 -0.2312
  117SOPE   H3X12344   1.104   2.589   6.258 -0.5814  0.3586  0.9840
  117SOPE   H3Y12345   1.108   2.585   6.085  0.8184 -0.4444 -0.1473
  117SOPE   C3412346   0.914   2.547   6.171 -0.0618 -0.3312  0.2455
  117SOPE   H4X12347   0.857   2.584   6.259  0.7227  3.0863 -0.5501
  117SOPE   H4Y12348   0.921   2.437   6.186 -0.2503 -0.1449  1.9004
  117SOPE   C3512349   0.829   2.577   6.047  0.5561 -0.1904  0.6360
  117SOPE   H5X12350   0.895   2.554   5.960  1.5854  0.5556  1.1955
  117SOPE   H5Y12351   0.808   2.686   6.047  2.2374  0.1740 -0.4388
  117SOPE   C3612352   0.697   2.493   6.049  0.1297  0.1811  0.3868
  117SOPE   H6X12353   0.624   2.536   6.120  0.4406  1.5015 -0.0757
  117SOPE   H6Y12354   0.723   2.395   6.096  0.1923  0.5487  1.1295
  117SOPE   C3712355   0.635   2.488   5.909  0.2385  0.6014 -0.7326
  117SOPE   H7X12356   0.698   2.417   5.851 -0.0296  0.0516 -0.3639
  117SOPE   H7Y12357   0.633   2.590   5.864 -1.7144  0.7074 -0.4633
  117SOPE   C3812358   0.487   2.446   5.904  0.3105  0.4877  0.1699
  117SOPE   H8X12359   0.420   2.519   5.954  1.2135  1.0165  0.6310
  117SOPE   H8Y12360   0.467   2.350   5.955 -0.7119 -0.3945 -1.7848
  117SOPE   C3912361   0.438   2.429   5.762  0.0241 -0.1013 -0.4166
  117SOPE   H9X12362   0.346   2.370   5.782  0.6445 -1.4502 -1.4032
  117SOPE   H9Y12363   0.514   2.373   5.705  0.6705  0.0921  0.2405
  117SOPE  C31012364   0.393   2.552   5.688  0.0971 -0.9785 -0.5321
  117SOPE  H10X12365   0.473   2.624   5.661 -0.0381 -0.6599 -0.1039
  117SOPE  H10Y12366   0.339   2.607   5.769 -0.1228  1.3886 -2.1913
  117SOPE  C31112367   0.282   2.536   5.579 -0.3273  0.3246  0.2623
  117SOPE  H11X12368   0.281   2.637   5.533  0.8015  0.1137 -0.2703
  117SOPE  H11Y12369   0.186   2.517   5.631 -0.2756  2.5188  1.2904
  117SOPE  C31212370   0.326   2.443   5.468 -0.6784  0.3684 -0.2427
  117SOPE  H12X12371   0.236   2.433   5.404  1.4062 -4.1981 -2.9427
  117SOPE  H12Y12372   0.331   2.339   5.506 -0.7124  0.7118  0.7274
  117SOPE  C31312373   0.451   2.491   5.389 -0.1639  0.1568  0.7251
  117SOPE  H13X12374   0.539   2.494   5.456  0.1806  0.4452  0.2615
  117SOPE  H13Y12375   0.432   2.598   5.369  0.0984  0.5058  2.2203
  117SOPE  C31412376   0.488   2.402   5.273 -0.1298 -0.0132  0.5748
  117SOPE  H14X12377   0.404   2.347   5.227  0.1246  0.1195 -0.0564
  117SOPE  H14Y12378   0.554   2.322   5.311 -2.3902 -1.0429  2.6279
  117SOPE  C31512379   0.551   2.481   5.156  1.2432 -0.4571 -0.8128
  117SOPE  H15X12380   0.639   2.528   5.205  0.0141  0.3951  0.7005
  117SOPE  H15Y12381   0.482   2.557   5.115  1.1847 -1.0804 -1.9051
  117SOPE  C31612382   0.564   2.384   5.038  0.9785 -0.3308  0.1491
  117SOPE  H16X12383   0.460   2.355   5.016  1.1216 -0.5657 -0.2266
  117SOPE  H16Y12384   0.616   2.290   5.069 -0.7465 -1.0238  1.0624
  117SOPE  C31712385   0.626   2.448   4.915  0.1544 -0.5081  0.2218
  117SOPE  H17X12386   0.724   2.493   4.943 -1.1802  1.9263  1.2579
  117SOPE  H17Y12387   0.561   2.531   4.881 -0.8244 -1.8129 -1.2312
  117SOPE  C31812388   0.648   2.353   4.792  1.0882  0.2949  0.0867
  117SOPE  H18X12389   0.644   2.408   4.696 -0.1804  1.4745  0.7781
  117SOPE  H18Y12390   0.567   2.277   4.788  2.3319 -1.1583  1.0911
  117SOPE  H18Z12391   0.739   2.291   4.811 -0.0814 -1.6744 -0.4174
  118SOPE     N12392   0.359   3.741   6.368  0.3358 -0.1591  0.0769
  118SOPE   HN112393   0.396   3.820   6.312  1.1204  0.6499  1.6678
  118SOPE   HN212394   0.321   3.666   6.306  1.1281 -0.0350 -0.5640
  118SOPE   HN312395   0.287   3.775   6.435 -0.0399 -0.6375 -0.0739
  118SOPE   C1212396   0.471   3.690   6.451  0.1472  0.4641 -0.0386
  118SOPE  H12A12397   0.483   3.761   6.536 -0.4928  1.0340 -0.4069
  118SOPE  H12B12398   0.563   3.680   6.390  0.8402  2.5068  0.5677
  118SOPE   C1112399   0.444   3.556   6.518 -0.0947  0.1373 -0.0519
  118SOPE  H11A12400   0.340   3.556   6.556  0.5371  0.1316  1.7779
  118SOPE  H11B12401   0.508   3.536   6.606 -1.0621  2.2617  1.2181
  118SOPE     P12402   0.421   3.305   6.448 -0.0650 -0.1650 -0.1248
  118SOPE   O1312403   0.274   3.286   6.434 -0.7794 -0.0561  0.3990
  118SOPE   O1412404   0.478   3.266   6.576 -0.0926 -0.4264 -0.5486
  118SOPE   O1212405   0.455   3.454   6.415  0.4494  0.2436  0.0819
  118SOPE   O1112406   0.496   3.222   6.337  0.3714  0.0808 -0.3977
  118SOPE    C112407   0.506   3.079   6.345  0.5295 -0.1800  0.6782
  118SOPE    HA12408   0.412   3.028   6.375 -0.8842  2.5914  1.2741
  118SOPE    HB12409   0.585   3.055   6.420  0.5833 -2.4383 -0.0036
  118SOPE    C212410   0.551   3.002   6.205 -0.1204 -0.6305 -0.4476
  118SOPE    HS12411   0.586   2.904   6.243 -1.0865 -1.0406 -0.5754
  118SOPE   O2112412   0.645   3.072   6.124  0.4196  0.1404  0.3806
  118SOPE   C2112413   0.764   3.075   6.167 -0.0229  0.4091  0.3449
  118SOPE   O2212414   0.811   3.023   6.267  0.8415 -0.1085 -0.6605
  118SOPE   C2212415   0.846   3.142   6.056  0.1412  0.3476 -0.3279
  118SOPE   H2R12416   0.954   3.117   6.063  0.2996  0.1507 -2.6103
  118SOPE   H2S12417   0.855   3.251   6.075 -0.0512  0.2769  0.1786
  118SOPE    C312418   0.417   2.977   6.130  0.3583 -0.2714 -0.4277
  118SOPE    HX12419   0.370   3.077   6.123 -0.0439 -0.4510 -0.3131
  118SOPE    HY12420   0.351   2.912   6.191 -1.9416  1.3270 -1.0912
  118SOPE   O3112421   0.432   2.927   5.999  0.0003 -0.1819 -0.3650
  118SOPE   C3112422   0.442   3.010   5.895 -0.0035  0.2962 -0.1198
  118SOPE   O3212423   0.404   3.127   5.900 -0.4638  0.1796 -0.4102
  118SOPE   C3212424   0.496   2.933   5.772 -0.2121 -0.5425  0.1523
  118SOPE   H2X12425   0.451   2.832   5.767  1.6037 -1.4083  0.6207
  118SOPE   H2Y12426   0.604   2.909   5.781 -0.1844  0.1308  2.2326
  118SOPE   C2312427   0.805   3.107   5.912 -0.1060 -0.4801  0.3848
  118SOPE   H3R12428   0.700   3.140   5.895 -0.2960 -1.3197 -0.1357
  118SOPE   H3S12429   0.807   2.997   5.898 -1.3693 -0.4094 -0.5288
  118SOPE   C2412430   0.899   3.176   5.803  0.1172  0.0316 -0.0495
  118SOPE   H4R12431   0.881   3.285   5.810  0.8018  0.2328 -1.1268
  118SOPE   H4S12432   1.006   3.150   5.820  0.2287 -0.2395 -1.1119
  118SOPE   C2512433   0.877   3.123   5.657 -0.0275  0.0301  0.8314
  118SOPE   H5R12434   0.877   3.012   5.653  0.8127 -0.0284  1.8391
  118SOPE   H5S12435   0.777   3.162   5.626 -0.9577 -1.1404  2.2074
  118SOPE   C2612436   0.982   3.180   5.562 -0.2053  0.4012 -0.0434
  118SOPE   H6R12437   0.959   3.284   5.533  0.3547  0.5147 -0.0915
  118SOPE   H6S12438   1.075   3.176   5.623 -0.7550  0.5831  0.8195
  118SOPE   C2712439   0.988   3.113   5.425 -0.3062 -0.8745  0.1310
  118SOPE   H7R12440   1.055   3.158   5.349 -2.4158 -1.0201 -1.9366
  118SOPE   H7S12441   1.021   3.013   5.459 -0.5095 -0.6611  0.9656
  118SOPE   C2812442   0.856   3.093   5.357 -0.3013 -0.0812  0.3631
  118SOPE   H8R12443   0.884   3.027   5.272 -0.6431  0.5567 -0.2631
  118SOPE   H8S12444   0.794   3.027   5.422 -0.2562 -0.4247  0.0615
  118SOPE   C2912445   0.797   3.224   5.311  0.0402 -0.3674  0.2472
  118SOPE   H9112446   0.763   3.291   5.391  1.6176  0.2947  0.4102
  118SOPE  C21012447   0.791   3.256   5.180  0.3173 -0.3858 -0.1544
  118SOPE  H10112448   0.767   3.360   5.154  1.2917 -0.1989 -0.3524
  118SOPE  C21112449   0.831   3.168   5.061 -0.4386 -1.2210 -0.4179
  118SOPE  H11R12450   0.765   3.078   5.067 -2.5239  0.2954  0.6158
  118SOPE  H11S12451   0.940   3.147   5.056 -0.2111  0.1438 -1.4640
  118SOPE  C21212452   0.800   3.236   4.927  0.2463  1.1104 -0.0616
  118SOPE  H12R12453   0.837   3.341   4.920 -2.0782  1.9839 -0.0793
  118SOPE  H12S12454   0.691   3.249   4.915  0.5378  1.8768 -2.2421
  118SOPE  C21312455   0.854   3.156   4.802  0.4730 -0.0936 -0.5278
  118SOPE  H13R12456   0.841   3.046   4.807 -0.3893  0.0107 -0.4160
  118SOPE  H13S12457   0.959   3.191   4.816  0.9638 -2.3739  2.6062
  118SOPE  C21412458   0.786   3.211   4.672  0.8701 -0.2478 -0.2652
  118SOPE  H14R12459   0.779   3.320   4.688  1.0732 -0.4624  1.5858
  118SOPE  H14S12460   0.682   3.172   4.666  0.3719  0.9537  0.2915
  118SOPE  C21512461   0.868   3.168   4.556 -0.2361  0.3228  0.6143
  118SOPE  H15R12462   0.840   3.071   4.509 -1.4693  0.9945 -0.1028
  118SOPE  H15S12463   0.976   3.162   4.583 -0.4181 -1.5410  1.0672
  118SOPE  C21612464   0.870   3.265   4.438  0.1435 -0.7703 -0.2137
  118SOPE  H16R12465   0.911   3.363   4.472  2.0086 -1.7897  0.6021
  118SOPE  H16S12466   0.764   3.294   4.419  0.2069  1.5749  2.3692
  118SOPE  C21712467   0.941   3.203   4.317 -0.0346 -1.0680 -0.2870
  118SOPE  H17R12468   0.899   3.105   4.286  0.3950 -1.1324 -0.6810
  118SOPE  H17S12469   1.042   3.190   4.361 -0.3302 -1.9824  0.1220
  118SOPE  C21812470   0.950   3.299   4.200  0.4537  0.1711  0.0339
  118SOPE  H18R12471   0.850   3.320   4.158 -0.4850 -3.7600 -0.0590
  118SOPE  H18S12472   1.012   3.254   4.119 -0.2476 -4.0048  1.5539
  118SOPE  H18T12473   1.004   3.389   4.236  0.7187  0.2071 -0.4499
  118SOPE   C3312474   0.474   3.000   5.637 -0.6674 -0.4085 -0.6753
  118SOPE   H3X12475   0.528   3.095   5.619 -0.2784 -0.6919 -1.0399
  118SOPE   H3Y12476   0.368   3.029   5.619 -0.4930  2.7439  2.3719
  118SOPE   C3412477   0.522   2.910   5.517 -0.7421  0.8367  0.1658
  118SOPE   H4X12478   0.472   2.812   5.525 -0.2378  0.3486 -2.0218
  118SOPE   H4Y12479   0.633   2.903   5.518 -0.8045 -2.2118 -2.3710
  118SOPE   C3512480   0.482   2.965   5.380 -0.0545 -0.5993 -0.0321
  118SOPE   H5X12481   0.520   3.068   5.365 -1.3921  0.2503  2.0119
  118SOPE   H5Y12482   0.372   2.973   5.387 -0.0663 -0.6926 -0.1130
  118SOPE   C3612483   0.530   2.880   5.265 -0.1102  0.5854 -0.1390
  118SOPE   H6X12484   0.489   2.778   5.284  0.1406  0.7374  1.2755
  118SOPE   H6Y12485   0.640   2.871   5.263 -0.2399 -1.5751 -1.7244
  118SOPE   C3712486   0.476   2.927   5.128 -0.8983  0.1283 -0.5798
  118SOPE   H7X12487   0.491   3.037   5.122  2.6717 -0.2315 -0.3040
  118SOPE   H7Y12488   0.366   2.910   5.127 -0.4403 -3.8065 -1.9722
  118SOPE   C3812489   0.537   2.853   5.007  0.8152  0.2808 -0.7741
  118SOPE   H8X12490   0.506   2.747   4.995  0.1330  0.7188 -3.4487
  118SOPE   H8Y12491   0.647   2.858   5.016  0.7218  0.3983  0.4557
  118SOPE   C3912492   0.483   2.920   4.875  0.2570 -0.4323 -0.5261
  118SOPE   H9X12493   0.472   3.028   4.901  3.0401  0.6521 -3.2336
  118SOPE   H9Y12494   0.379   2.884   4.857 -0.0836  0.2743 -0.0611
  118SOPE  C31012495   0.561   2.892   4.749 -0.3595  0.0874  1.1310
  118SOPE  H10X12496   0.667   2.868   4.774  0.2617  3.1226  1.8178
  118SOPE  H10Y12497   0.571   2.990   4.697  1.2256 -1.4182 -1.6767
  118SOPE  C31112498   0.490   2.786   4.662 -0.6902  0.6655  0.3146
  118SOPE  H11X12499   0.383   2.809   4.640 -0.7999 -0.3443 -0.2653
  118SOPE  H11Y12500   0.482   2.690   4.718 -0.1195  0.5877  0.2656
  118SOPE  C31212501   0.570   2.778   4.527  0.0603 -0.0157 -0.3009
  118SOPE  H12X12502   0.675   2.757   4.554 -0.7762 -3.4762  0.7439
  118SOPE  H12Y12503   0.568   2.879   4.479 -1.6210 -0.4883 -1.3258
  118SOPE  C31312504   0.514   2.672   4.431  0.6291 -0.4515 -0.5147
  118SOPE  H13X12505   0.404   2.688   4.443  0.9395  1.0895  0.7003
  118SOPE  H13Y12506   0.535   2.573   4.476  0.8274  0.0403  0.4982
  118SOPE  C31412507   0.567   2.682   4.296 -0.0783  0.1051  0.0616
  118SOPE  H14X12508   0.677   2.678   4.280 -0.3238  1.1214 -2.2961
  118SOPE  H14Y12509   0.525   2.765   4.236 -0.5724 -0.5101 -0.4586
  118SOPE  C31512510   0.511   2.557   4.222  0.2785 -0.3982 -0.7133
  118SOPE  H15X12511   0.406   2.564   4.257  1.0483 -0.4161  1.8038
  118SOPE  H15Y12512   0.553   2.467   4.272  1.0158  0.0775 -0.4623
  118SOPE  C31612513   0.543   2.551   4.071  0.4521 -0.1496 -0.0561
  118SOPE  H16X12514   0.647   2.514   4.066  0.6578  0.4407 -0.2918
  118SOPE  H16Y12515   0.548   2.645   4.011  3.1663 -0.0259  0.2693
  118SOPE  C31712516   0.460   2.441   4.003 -0.2211  0.7114 -0.6244
  118SOPE  H17X12517   0.352   2.466   4.016 -0.4880  0.3492 -2.0125
  118SOPE  H17Y12518   0.483   2.347   4.056  0.4845  2.4684  2.4249
  118SOPE  C31812519   0.494   2.417   3.858 -0.4548 -0.1467 -0.0768
  118SOPE  H18X12520   0.483   2.517   3.811  0.0854  0.2263  0.5628
  118SOPE  H18Y12521   0.438   2.339   3.803  1.9914 -0.0417 -2.9995
  118SOPE  H18Z12522   0.601   2.385   3.854 -0.7217 -2.0793  3.4874
  119SOPE     N12523   3.823   2.362   6.996 -0.3577  0.0183 -0.1327
  119SOPE   HN112524   3.799   2.325   7.090 -0.5383  1.9335  0.6243
  119SOPE   HN212525   3.741   2.359   6.933 -1.1517  1.3926  0.7965
  119SOPE   HN312526   3.896   2.303   6.951 -0.8054 -2.2266  1.8974
  119SOPE   C1212527   3.874   2.507   6.999 -0.3941  0.5909 -0.8826
  119SOPE  H12A12528   3.977   2.498   7.038 -0.6273 -4.0303 -0.7438
  119SOPE  H12B12529   3.803   2.565   7.062 -2.9158 -3.4994  0.4398
  119SOPE   C1112530   3.879   2.569   6.855  0.0352 -0.5680  0.8145
  119SOPE  H11A12531   3.934   2.494   6.795 -0.5697 -1.5334  1.4436
  119SOPE  H11B12532   3.935   2.665   6.860  1.8244 -1.2245 -3.0360
  119SOPE     P12533   3.664   2.501   6.720  0.1264  0.4022  0.3924
  119SOPE   O1312534   3.540   2.564   6.663  0.6111  0.0402 -0.4003
  119SOPE   O1412535   3.642   2.385   6.804  0.6762 -0.0656 -0.1290
  119SOPE   O1212536   3.757   2.600   6.804  0.4052 -0.1145  0.5648
  119SOPE   O1112537   3.754   2.443   6.607 -0.4572 -0.2175  0.5146
  119SOPE    C112538   3.825   2.513   6.511 -0.8568 -0.4691  0.3467
  119SOPE    HA12539   3.917   2.457   6.483  0.4763  0.3998  2.7157
  119SOPE    HB12540   3.869   2.603   6.561  1.5849 -2.5732  2.3047
  119SOPE    C212541   3.749   2.548   6.385  0.5562  0.0013 -0.0631
  119SOPE    HS12542   3.652   2.593   6.414  0.6973  1.1184 -1.2122
  119SOPE   O2112543   3.708   2.426   6.318  0.2638 -0.7107  0.1021
  119SOPE   C2112544   3.609   2.423   6.231 -0.1113  0.8345  0.5164
  119SOPE   O2212545   3.536   2.516   6.209  0.7411  0.1552  0.3451
  119SOPE   C2212546   3.613   2.290   6.156  0.6620  0.5270 -0.1336
  119SOPE   H2R12547   3.536   2.228   6.208 -0.4719  1.6167 -0.4639
  119SOPE   H2S12548   3.710   2.238   6.173  0.7209  0.7623  0.2376
  119SOPE    C312549   3.832   2.648   6.299  0.2887 -1.2953  0.5762
  119SOPE    HX12550   3.934   2.605   6.285  1.3523  1.1954 -0.0145
  119SOPE    HY12551   3.832   2.742   6.359 -0.9786 -2.6803  2.9052
  119SOPE   O3112552   3.765   2.668   6.167 -0.7262 -0.0234 -0.3365
  119SOPE   C3112553   3.674   2.770   6.161 -0.1600 -0.3320 -0.3958
  119SOPE   O3212554   3.641   2.836   6.260 -0.0309 -0.1960  0.2380
  119SOPE   C3212555   3.621   2.792   6.026  0.1799  0.6430 -0.4404
  119SOPE   H2X12556   3.539   2.867   6.030  0.9000  1.4033  1.0567
  119SOPE   H2Y12557   3.577   2.693   6.002  0.3910  0.5736 -0.5357
  119SOPE   C2312558   3.553   2.301   6.014 -0.2474  0.6316 -0.0875
  119SOPE   H3R12559   3.461   2.362   6.020 -2.5046 -2.2741 -1.9065
  119SOPE   H3S12560   3.518   2.201   5.980 -2.0163  0.8647  0.9102
  119SOPE   C2412561   3.644   2.365   5.908  0.1637 -0.3913 -0.4047
  119SOPE   H4R12562   3.673   2.469   5.937 -2.6828  0.3750  0.0184
  119SOPE   H4S12563   3.742   2.313   5.903  0.1646 -0.2854 -2.0501
  119SOPE   C2512564   3.586   2.352   5.765 -0.6487 -1.0120 -0.3657
  119SOPE   H5R12565   3.551   2.248   5.751 -1.2527 -1.1641  1.8744
  119SOPE   H5S12566   3.495   2.416   5.762  0.9118  1.3251 -0.8148
  119SOPE   C2612567   3.682   2.395   5.648  0.4808 -0.3686  0.3639
  119SOPE   H6R12568   3.688   2.506   5.638 -0.3951 -0.1850  1.5626
  119SOPE   H6S12569   3.785   2.363   5.672  0.7302 -0.6585 -1.0294
  119SOPE   C2712570   3.640   2.333   5.515  0.4338  0.4413  0.9200
  119SOPE   H7R12571   3.634   2.222   5.519 -0.1678  0.4102 -0.3648
  119SOPE   H7S12572   3.530   2.344   5.508 -0.1269 -3.1861  1.8055
  119SOPE   C2812573   3.726   2.380   5.398 -0.0831 -0.2571 -0.1018
  119SOPE   H8R12574   3.740   2.490   5.400  1.4045 -0.3484 -2.1878
  119SOPE   H8S12575   3.828   2.339   5.410  0.5106  1.0481 -0.5177
  119SOPE   C2912576   3.672   2.315   5.276  0.5767  0.3774 -1.0315
  119SOPE   H9112577   3.656   2.207   5.290  2.4421  0.2044  0.0931
  119SOPE  C21012578   3.653   2.373   5.152 -0.0473 -0.1101  0.0960
  119SOPE  H10112579   3.620   2.308   5.070  1.0490  0.9754 -1.2643
  119SOPE  C21112580   3.688   2.506   5.107  0.0460 -0.4158 -0.3785
  119SOPE  H11R12581   3.754   2.511   5.018  1.9788  0.6101  1.0297
  119SOPE  H11S12582   3.749   2.550   5.190  2.5581 -3.3827 -0.4767
  119SOPE  C21212583   3.558   2.594   5.087 -0.1874  0.6641 -0.4846
  119SOPE  H12R12584   3.598   2.697   5.077  0.5430  0.9017  3.2947
  119SOPE  H12S12585   3.503   2.592   5.184  2.1998 -1.0014  0.9221
  119SOPE  C21312586   3.465   2.560   4.968  0.1412 -0.1782 -0.3911
  119SOPE  H13R12587   3.368   2.611   4.988 -0.0228 -0.7068  0.1640
  119SOPE  H13S12588   3.452   2.450   4.959 -0.1785 -0.2238  0.4949
  119SOPE  C21412589   3.509   2.626   4.845 -0.7705  0.4437  0.8166
  119SOPE  H14R12590   3.609   2.585   4.816 -2.8274 -2.6967 -2.7722
  119SOPE  H14S12591   3.512   2.735   4.862  1.0120  0.8081 -1.3452
  119SOPE  C21512592   3.422   2.599   4.725  0.3766 -0.0714 -0.2502
  119SOPE  H15R12593   3.316   2.610   4.758  0.8423  1.1521  0.8884
  119SOPE  H15S12594   3.436   2.493   4.692  0.0536 -1.0019  2.4127
  119SOPE  C21612595   3.454   2.686   4.608 -0.1071 -0.2735  0.2950
  119SOPE  H16R12596   3.560   2.665   4.581 -0.0457  0.3181  0.0443
  119SOPE  H16S12597   3.441   2.794   4.630  0.8330 -0.2479  0.8208
  119SOPE  C21712598   3.373   2.652   4.483  0.0955 -0.0771 -1.0108
  119SOPE  H17R12599   3.265   2.669   4.506  0.6018 -0.1457  1.7378
  119SOPE  H17S12600   3.380   2.546   4.451  3.7335 -0.1928 -0.2785
  119SOPE  C21812601   3.404   2.732   4.359  0.1365 -0.3769 -0.3994
  119SOPE  H18R12602   3.354   2.698   4.266  0.0910 -0.7255 -0.2466
  119SOPE  H18S12603   3.514   2.741   4.355 -0.0060  1.4987 -1.6180
  119SOPE  H18T12604   3.372   2.837   4.379  0.2024 -0.4477  0.0912
  119SOPE   C3312605   3.728   2.834   5.925  0.1310  0.7297 -0.1899
  119SOPE   H3X12606   3.809   2.759   5.914 -1.2407 -0.5408 -2.4770
  119SOPE   H3Y12607   3.774   2.932   5.951  1.6989  0.2509 -1.0541
  119SOPE   C3412608   3.655   2.847   5.787 -0.1070 -0.3159 -0.3618
  119SOPE   H4X12609   3.565   2.911   5.798 -0.2838 -0.7850  1.1438
  119SOPE   H4Y12610   3.621   2.743   5.767  0.6985 -0.6865  0.1290
  119SOPE   C3512611   3.742   2.889   5.679 -0.5645 -0.9388  0.2587
  119SOPE   H5X12612   3.837   2.832   5.687  0.0748 -0.4896 -2.9338
  119SOPE   H5Y12613   3.771   2.996   5.684  0.0423 -1.0399 -0.9171
  119SOPE   C3612614   3.688   2.854   5.539  0.6486 -0.2109  0.2804
  119SOPE   H6X12615   3.594   2.912   5.537 -0.5601 -1.9872  2.0058
  119SOPE   H6Y12616   3.674   2.746   5.520 -3.8720  0.1470  0.5978
  119SOPE   C3712617   3.780   2.906   5.427 -0.0141  0.0575 -0.0819
  119SOPE   H7X12618   3.879   2.863   5.451  0.0704  0.3274  0.0636
  119SOPE   H7Y12619   3.799   3.014   5.446  0.4121 -0.1892  0.9688
  119SOPE   C3812620   3.734   2.876   5.284 -0.1881 -0.4375  0.1486
  119SOPE   H8X12621   3.624   2.889   5.277  0.0134  1.8065  0.3146
  119SOPE   H8Y12622   3.741   2.766   5.269 -0.7664 -0.7071  1.6870
  119SOPE   C3912623   3.794   2.970   5.174 -0.1954 -0.4604 -1.0794
  119SOPE   H9X12624   3.904   2.961   5.174 -0.0782  0.8735 -1.1822
  119SOPE   H9Y12625   3.757   3.071   5.201  0.7890 -0.1090 -1.0414
  119SOPE  C31012626   3.742   2.925   5.033  1.0728  0.4785 -0.2936
  119SOPE  H10X12627   3.631   2.920   5.025  1.1894 -1.1377 -1.4191
  119SOPE  H10Y12628   3.769   2.821   5.007 -2.1914 -1.0287  1.6650
  119SOPE  C31112629   3.806   3.014   4.927  0.0402  1.2250 -0.3009
  119SOPE  H11X12630   3.906   3.035   4.971 -0.4397 -0.6896  1.8946
  119SOPE  H11Y12631   3.747   3.109   4.933 -1.7753  0.0863  0.6796
  119SOPE  C31212632   3.801   2.954   4.789  0.2554 -0.4354 -0.5282
  119SOPE  H12X12633   3.694   2.935   4.767  0.7299 -2.0834 -1.6428
  119SOPE  H12Y12634   3.857   2.859   4.771  0.8758 -0.1503 -0.1414
  119SOPE  C31312635   3.851   3.056   4.688  0.3477  0.3518 -0.3363
  119SOPE  H13X12636   3.929   3.120   4.735 -1.9450  2.0273  1.4481
  119SOPE  H13Y12637   3.767   3.127   4.673 -0.8622 -0.2311  2.9324
  119SOPE  C31412638   3.903   2.986   4.565 -0.0199 -0.3565 -0.4883
  119SOPE  H14X12639   4.004   2.940   4.573 -0.1701 -0.5184  0.5342
  119SOPE  H14Y12640   3.918   3.074   4.499 -1.5754 -0.0163 -0.4088
  119SOPE  C31512641   3.808   2.879   4.499  0.7061  0.0403 -0.3662
  119SOPE  H15X12642   3.709   2.927   4.481  0.1117 -0.6188  1.0405
  119SOPE  H15Y12643   3.795   2.795   4.570  0.3222  1.3818  1.2168
  119SOPE  C31612644   3.854   2.829   4.364 -0.1159 -0.4813 -0.1429
  119SOPE  H16X12645   3.871   2.914   4.295  0.8620  1.3889  2.2833
  119SOPE  H16Y12646   3.788   2.759   4.308  1.6718 -2.1920 -0.2564
  119SOPE  C31712647   3.987   2.748   4.372  0.3814 -0.1632 -0.0100
  119SOPE  H17X12648   3.972   2.655   4.431  1.8935  0.1876  0.9976
  119SOPE  H17Y12649   4.061   2.815   4.422 -0.5610  1.8101 -1.1056
  119SOPE  C31812650   4.027   2.705   4.232  0.2560 -0.6936 -0.4382
  119SOPE  H18X12651   4.041   2.797   4.173  2.3146  0.4253  1.6178
  119SOPE  H18Y12652   3.960   2.625   4.194 -0.7343 -0.9950  1.7783
  119SOPE  H18Z12653   4.131   2.668   4.250  0.2178  0.4676  2.9145
  120SOPE     N12654   3.913   5.128   6.789  0.1205 -0.0246  0.2405
  120SOPE   HN112655   3.870   5.220   6.811 -0.8276 -0.0043 -1.5138
  120SOPE   HN212656   3.841   5.053   6.780  0.9742 -0.8799  0.3151
  120SOPE   HN312657   3.980   5.102   6.864  3.1376  1.0457 -1.8988
  120SOPE   C1212658   3.986   5.127   6.658 -0.5595 -0.5603  0.3726
  120SOPE  H12A12659   4.070   5.055   6.665 -1.0220 -1.1340  0.1518
  120SOPE  H12B12660   4.029   5.229   6.652 -0.5721 -0.5927 -0.4769
  120SOPE   C1112661   3.902   5.083   6.538  0.4842 -0.0786 -0.0085
  120SOPE  H11A12662   3.961   5.056   6.447  0.3702 -0.5901  0.0677
  120SOPE  H11B12663   3.834   5.167   6.511 -0.6837  0.2446  3.5063
  120SOPE     P12664   3.901   4.821   6.591  0.3457  0.6010  0.2137
  120SOPE   O1312665   3.852   4.758   6.719  0.6124 -0.3959  0.4048
  120SOPE   O1412666   4.047   4.836   6.567 -0.1168  0.0404 -0.2021
  120SOPE   O1212667   3.830   4.959   6.565  0.4945 -0.1429 -0.0058
  120SOPE   O1112668   3.847   4.727   6.470  0.8232  0.3150  0.1723
  120SOPE    C112669   3.768   4.765   6.358  0.2648  0.5007 -0.2773
  120SOPE    HA12670   3.823   4.842   6.301 -0.7281  2.8519  1.7310
  120SOPE    HB12671   3.675   4.812   6.396  1.0165  2.2834 -0.5615
  120SOPE    C212672   3.738   4.649   6.261 -0.2291  0.0582  0.0261
  120SOPE    HS12673   3.708   4.559   6.320 -2.0242  2.2007  2.6188
  120SOPE   O2112674   3.868   4.635   6.193  0.3249 -0.0638  0.2517
  120SOPE   C2112675   3.938   4.524   6.209  0.0260 -0.6527  0.4435
  120SOPE   O2212676   3.897   4.424   6.270 -0.5523 -0.1209 -0.3627
  120SOPE   C2212677   4.085   4.541   6.151  0.0891 -0.3607 -0.8256
  120SOPE   H2R12678   4.138   4.444   6.160 -0.6860 -0.6042  2.6117
  120SOPE   H2S12679   4.143   4.592   6.231  1.7356 -0.1696 -2.0948
  120SOPE    C312680   3.623   4.686   6.161  0.1015  0.0897  0.6819
  120SOPE    HX12681   3.655   4.783   6.117  2.4633 -0.1715  1.6595
  120SOPE    HY12682   3.526   4.703   6.213 -0.1606 -0.5225  0.4014
  120SOPE   O3112683   3.628   4.585   6.058 -0.5280 -0.1142  0.8589
  120SOPE   C3112684   3.546   4.477   6.073  0.2555 -0.2064  0.6564
  120SOPE   O3212685   3.469   4.461   6.162  0.8166 -0.3132 -0.0055
  120SOPE   C3212686   3.574   4.372   5.969 -1.1997  0.3881  0.6608
  120SOPE   H2X12687   3.506   4.284   5.979  0.5072 -1.3514 -1.6717
  120SOPE   H2Y12688   3.677   4.344   5.999 -1.3712 -0.5225  0.4545
  120SOPE   C2312689   4.108   4.610   6.022 -0.6548  0.2644  0.1656
  120SOPE   H3R12690   4.218   4.618   6.010 -0.4896 -1.2302  0.5265
  120SOPE   H3S12691   4.070   4.714   6.021  0.7642  0.9003 -3.2832
  120SOPE   C2412692   4.038   4.539   5.901  0.6227 -0.0639 -0.6328
  120SOPE   H4R12693   4.091   4.442   5.894  1.3534  0.1708  1.1102
  120SOPE   H4S12694   3.930   4.515   5.915  0.8978 -0.0730  2.0647
  120SOPE   C2512695   4.049   4.622   5.773  0.5983  0.5472  0.2084
  120SOPE   H5R12696   3.978   4.705   5.792 -4.5213 -3.6345  1.7799
  120SOPE   H5S12697   4.149   4.653   5.735 -0.1605  1.1393 -1.4022
  120SOPE   C2612698   3.982   4.553   5.655 -0.5400  0.6417  0.5527
  120SOPE   H6R12699   3.881   4.526   5.693 -0.0921  0.4779  1.6806
  120SOPE   H6S12700   3.970   4.629   5.576 -0.8049  0.1162  0.0810
  120SOPE   C2712701   4.042   4.423   5.601  0.0171  0.5067 -0.0040
  120SOPE   H7R12702   4.036   4.346   5.680 -0.7485  0.9244  0.3591
  120SOPE   H7S12703   3.965   4.381   5.533 -1.9300  0.1270  2.3241
  120SOPE   C2812704   4.190   4.432   5.553 -0.0179  0.6611 -0.6978
  120SOPE   H8R12705   4.246   4.441   5.649 -1.1072  0.1739  0.0077
  120SOPE   H8S12706   4.206   4.327   5.522 -0.2064  0.2375  0.5788
  120SOPE   C2912707   4.198   4.538   5.451 -0.6044  0.4841 -0.0865
  120SOPE   H9112708   4.195   4.644   5.481 -0.1080  0.7305 -0.8670
  120SOPE  C21012709   4.214   4.516   5.320  0.2381 -0.0056 -0.5157
  120SOPE  H10112710   4.222   4.612   5.267 -0.5557  0.2331 -0.2253
  120SOPE  C21112711   4.224   4.388   5.245 -0.4232  0.7527 -0.2321
  120SOPE  H11R12712   4.183   4.310   5.313 -0.3485  0.5722 -0.3949
  120SOPE  H11S12713   4.326   4.360   5.212 -1.1440 -1.1171 -0.9549
  120SOPE  C21212714   4.132   4.376   5.125  0.0838  0.1343  0.5866
  120SOPE  H12R12715   4.037   4.429   5.149  0.5229  1.9788 -1.4466
  120SOPE  H12S12716   4.103   4.270   5.106  0.2825  0.2229 -0.2429
  120SOPE  C21312717   4.199   4.424   4.997  0.4414  0.7894 -0.3860
  120SOPE  H13R12718   4.299   4.375   4.996 -1.3814 -3.4449  2.0539
  120SOPE  H13S12719   4.205   4.535   4.991 -0.7112  0.8381 -0.7297
  120SOPE  C21412720   4.130   4.385   4.867  0.6936 -0.3517  0.2804
  120SOPE  H14R12721   4.032   4.436   4.862  1.0050  0.2754  0.4765
  120SOPE  H14S12722   4.128   4.274   4.856  1.8965 -0.4184  0.5645
  120SOPE  C21512723   4.215   4.437   4.741 -0.2741  0.2000 -0.4265
  120SOPE  H15R12724   4.319   4.399   4.750  1.0315  2.8303 -2.7514
  120SOPE  H15S12725   4.217   4.547   4.754  2.5706  0.0965  0.6810
  120SOPE  C21612726   4.149   4.387   4.611  0.1858 -0.3023 -0.0374
  120SOPE  H16R12727   4.043   4.416   4.600  0.7517  0.8240 -3.8888
  120SOPE  H16S12728   4.151   4.276   4.609 -0.0223 -0.3640  1.7294
  120SOPE  C21712729   4.221   4.448   4.490 -0.4307  0.4945 -0.4131
  120SOPE  H17R12730   4.219   4.559   4.493  1.3646  0.5627 -0.7088
  120SOPE  H17S12731   4.167   4.406   4.403  0.1774  1.0906 -1.0943
  120SOPE  C21812732   4.375   4.412   4.482 -0.1824 -0.2236  0.1605
  120SOPE  H18R12733   4.428   4.473   4.557 -0.3948 -1.1535  1.0897
  120SOPE  H18S12734   4.407   4.450   4.383  0.4181  1.6744  1.0475
  120SOPE  H18T12735   4.395   4.303   4.483  1.8435  0.0586 -1.7676
  120SOPE   C3312736   3.561   4.420   5.822  0.2180 -0.6566 -0.8115
  120SOPE   H3X12737   3.643   4.494   5.807 -1.3358  1.3826  0.3603
  120SOPE   H3Y12738   3.459   4.455   5.797  0.5890  0.1853 -1.1988
  120SOPE   C3412739   3.583   4.306   5.718 -0.1932 -0.5768 -0.2895
  120SOPE   H4X12740   3.491   4.244   5.710 -1.2799  0.8348  0.7543
  120SOPE   H4Y12741   3.662   4.237   5.754 -0.5292 -1.6187 -1.4670
  120SOPE   C3512742   3.617   4.360   5.576 -0.2391  0.6391 -0.6170
  120SOPE   H5X12743   3.718   4.406   5.589  0.8317 -1.6354 -0.3549
  120SOPE   H5Y12744   3.537   4.435   5.565 -1.4298 -0.4467  0.3699
  120SOPE   C3612745   3.611   4.255   5.464 -0.3350 -0.6559 -0.3163
  120SOPE   H6X12746   3.505   4.227   5.441 -0.2581 -0.6826 -0.6340
  120SOPE   H6Y12747   3.671   4.168   5.498 -0.1882 -0.6402 -0.5427
  120SOPE   C3712748   3.682   4.309   5.334  0.5802 -0.5298  0.3723
  120SOPE   H7X12749   3.792   4.295   5.340  0.3499 -2.6808  0.4466
  120SOPE   H7Y12750   3.659   4.417   5.339 -0.9689 -0.6989 -1.8051
  120SOPE   C3812751   3.626   4.244   5.206 -0.1896  0.0527 -0.6202
  120SOPE   H8X12752   3.515   4.239   5.195 -0.5440  1.8271  1.4541
  120SOPE   H8Y12753   3.663   4.139   5.210 -0.5308 -0.1459 -2.1213
  120SOPE   C3912754   3.716   4.288   5.087  0.5107 -0.0338 -0.1818
  120SOPE   H9X12755   3.818   4.266   5.125  0.4878  1.2686  0.7285
  120SOPE   H9Y12756   3.690   4.396   5.081  0.4001 -0.0324  0.2911
  120SOPE  C31012757   3.688   4.221   4.951 -0.2116  0.4182 -0.5677
  120SOPE  H10X12758   3.580   4.230   4.925 -0.1084  3.2362 -0.3660
  120SOPE  H10Y12759   3.691   4.117   4.988 -1.7267  1.1088  1.6978
  120SOPE  C31112760   3.788   4.244   4.839  0.0108  0.4192 -0.5545
  120SOPE  H11X12761   3.889   4.222   4.881 -0.5101 -1.0058  0.0026
  120SOPE  H11Y12762   3.786   4.352   4.812 -2.6519  1.4286  2.9054
  120SOPE  C31212763   3.762   4.162   4.717 -0.3637 -0.2488  0.7861
  120SOPE  H12X12764   3.676   4.204   4.660 -0.0943 -2.1778 -1.1631
  120SOPE  H12Y12765   3.738   4.057   4.741 -0.4004 -0.3410  0.3474
  120SOPE  C31312766   3.887   4.146   4.627  0.2510  0.3893  0.2683
  120SOPE  H13X12767   3.981   4.153   4.687 -1.2980 -3.3241  3.5488
  120SOPE  H13Y12768   3.876   4.242   4.571  0.0356 -0.4861 -1.2395
  120SOPE  C31412769   3.876   4.030   4.527  0.2567 -0.6640 -0.4586
  120SOPE  H14X12770   3.789   4.058   4.464 -0.9415  0.9273  1.7800
  120SOPE  H14Y12771   3.850   3.938   4.584  0.8125  0.5959  1.9552
  120SOPE  C31512772   3.988   4.007   4.433 -0.4536 -0.1575 -0.1291
  120SOPE  H15X12773   4.022   4.089   4.366  2.4298 -1.1354 -0.0283
  120SOPE  H15Y12774   3.965   3.921   4.367  3.3538 -2.9812  1.8259
  120SOPE  C31612775   4.118   3.973   4.510  0.3946 -0.0936  0.4609
  120SOPE  H16X12776   4.107   3.892   4.586 -1.6932 -0.5933 -0.3037
  120SOPE  H16Y12777   4.148   4.061   4.570 -0.0627 -0.2430  0.9113
  120SOPE  C31712778   4.232   3.921   4.424 -0.4992 -0.5551 -0.0773
  120SOPE  H17X12779   4.188   3.859   4.344  0.6799  1.7963 -2.7366
  120SOPE  H17Y12780   4.309   3.861   4.478  1.3692  0.3392 -1.6160
  120SOPE  C31812781   4.311   4.040   4.357 -0.3137  0.1833  0.3139
  120SOPE  H18X12782   4.367   4.091   4.438 -0.5444  0.2988  0.4006
  120SOPE  H18Y12783   4.243   4.108   4.302 -0.1680  1.6229  1.8427
  120SOPE  H18Z12784   4.387   4.004   4.285  1.3382  1.4378  1.3533
  121SOPE     N12785   3.415   4.092   6.758 -0.5411  0.5289 -0.3394
  121SOPE   HN112786   3.478   4.174   6.755  2.4025 -1.5596 -0.2796
  121SOPE   HN212787   3.363   4.091   6.848  1.2308 -0.6922  0.7350
  121SOPE   HN312788   3.477   4.009   6.757 -0.0790  0.8747 -0.6135
  121SOPE   C1212789   3.321   4.091   6.640  0.1211 -0.2372 -0.0721
  121SOPE  H12A12790   3.390   4.097   6.553  2.4148 -1.3793  1.5621
  121SOPE  H12B12791   3.250   4.174   6.662 -1.2873 -1.3999 -0.1027
  121SOPE   C1112792   3.237   3.963   6.620  0.2907 -0.0932 -0.0077
  121SOPE  H11A12793   3.305   3.876   6.626 -0.1839 -0.4237  0.7112
  121SOPE  H11B12794   3.188   3.965   6.521  0.8945  0.9804 -0.3119
  121SOPE     P12795   2.996   4.009   6.728  0.3114  0.1182 -0.1103
  121SOPE   O1312796   3.003   4.129   6.812 -0.2706 -0.3011  0.4296
  121SOPE   O1412797   2.906   3.895   6.777 -0.5357  0.6104  0.1009
  121SOPE   O1212798   3.143   3.947   6.726  0.2290  0.5919  0.3023
  121SOPE   O1112799   2.961   4.044   6.579  0.2489 -0.6280 -0.3711
  121SOPE    C112800   2.860   3.974   6.513  0.1789 -0.0040  0.7571
  121SOPE    HA12801   2.827   4.023   6.419  0.9983 -0.4790  0.1975
  121SOPE    HB12802   2.767   3.963   6.571 -0.5880 -0.0533 -0.4423
  121SOPE    C212803   2.889   3.824   6.476  0.0962  0.0518  0.3460
  121SOPE    HS12804   2.893   3.768   6.572 -1.1038 -2.3964 -0.9252
  121SOPE   O2112805   3.020   3.823   6.416 -0.3127 -0.4573 -0.6151
  121SOPE   C2112806   3.080   3.711   6.408 -0.1035 -1.3696 -0.7107
  121SOPE   O2212807   3.037   3.601   6.438 -0.5151 -0.2314  0.1040
  121SOPE   C2212808   3.221   3.738   6.355 -0.2251  0.0353 -0.3074
  121SOPE   H2R12809   3.288   3.694   6.432  0.5640  1.0588 -0.3893
  121SOPE   H2S12810   3.239   3.847   6.350  0.7226 -0.1001 -0.1142
  121SOPE    C312811   2.762   3.761   6.398  0.1052  0.0349 -0.4299
  121SOPE    HX12812   2.680   3.784   6.470  0.2193 -0.7690 -0.0311
  121SOPE    HY12813   2.775   3.651   6.389  2.5602  0.4183 -2.4774
  121SOPE   O3112814   2.737   3.839   6.284  0.7765 -0.0865  0.2032
  121SOPE   C3112815   2.736   3.769   6.169 -0.0332 -0.4789  0.2233
  121SOPE   O3212816   2.735   3.649   6.157 -0.4318 -0.1135 -0.0540
  121SOPE   C3212817   2.736   3.868   6.050  0.1143 -1.2849  0.4110
  121SOPE   H2X12818   2.841   3.905   6.046 -0.6893  1.2111  0.5460
  121SOPE   H2Y12819   2.676   3.957   6.081  1.5397 -0.2423  0.2646
  121SOPE   C2312820   3.228   3.670   6.211  0.1935 -0.1839 -0.0734
  121SOPE   H3R12821   3.168   3.578   6.223 -3.6121  2.2814  2.1434
  121SOPE   H3S12822   3.328   3.647   6.169 -0.5492  0.6722 -2.4592
  121SOPE   C2412823   3.176   3.752   6.093  0.2291 -0.2323 -0.1234
  121SOPE   H4R12824   3.069   3.777   6.108  0.6065  1.3730  0.0238
  121SOPE   H4S12825   3.250   3.831   6.071  2.2401 -1.4671  1.7282
  121SOPE   C2512826   3.177   3.679   5.958 -0.1480  0.0709 -0.0421
  121SOPE   H5R12827   3.281   3.655   5.927 -0.0921  0.3993 -0.1057
  121SOPE   H5S12828   3.125   3.581   5.953 -3.9710  1.9524 -0.5992
  121SOPE   C2612829   3.127   3.770   5.847 -0.0379  0.1941 -0.1095
  121SOPE   H6R12830   3.019   3.796   5.859 -0.0090  0.1790  0.1757
  121SOPE   H6S12831   3.187   3.863   5.843 -1.1158  1.0467  1.8811
  121SOPE   C2712832   3.153   3.709   5.709  0.1659  0.4534 -0.1411
  121SOPE   H7R12833   3.263   3.698   5.698  0.1231 -0.0661 -0.0995
  121SOPE   H7S12834   3.111   3.606   5.711  1.5220 -0.1564  2.6515
  121SOPE   C2812835   3.102   3.798   5.590 -0.4086 -0.4309 -0.1738
  121SOPE   H8R12836   3.156   3.892   5.614  1.0042 -1.3903  0.6483
  121SOPE   H8S12837   3.140   3.755   5.495  0.7481  1.4396 -0.6089
  121SOPE   C2912838   2.954   3.826   5.581 -0.4491  0.7189 -0.7105
  121SOPE   H9112839   2.901   3.803   5.675  0.4644 -1.1386 -0.5975
  121SOPE  C21012840   2.892   3.860   5.470  0.0371  0.3278 -0.5746
  121SOPE  H10112841   2.788   3.888   5.489  0.3323 -0.2189  2.3396
  121SOPE  C21112842   2.939   3.866   5.324  0.2766 -0.8556 -0.4924
  121SOPE  H11R12843   3.046   3.835   5.317  1.3087  2.3265 -0.4344
  121SOPE  H11S12844   2.935   3.969   5.283 -0.7683 -0.3807  0.7627
  121SOPE  C21212845   2.847   3.771   5.237  0.3463 -0.2930  0.2861
  121SOPE  H12R12846   2.836   3.678   5.298 -0.1158  0.2383  1.0217
  121SOPE  H12S12847   2.895   3.736   5.143  0.7117 -0.2893  0.4661
  121SOPE  C21312848   2.707   3.824   5.203 -0.4506  0.3797 -0.8778
  121SOPE  H13R12849   2.734   3.921   5.156  1.8438  1.5190  2.4387
  121SOPE  H13S12850   2.656   3.864   5.293 -0.0007  0.9504 -0.8700
  121SOPE  C21412851   2.616   3.733   5.124  0.6671  0.2519  0.4439
  121SOPE  H14R12852   2.529   3.802   5.127  0.9726  0.6479  0.2709
  121SOPE  H14S12853   2.588   3.639   5.176 -0.3304  0.8920  1.1091
  121SOPE  C21512854   2.663   3.720   4.980  0.3301  0.1787 -0.3845
  121SOPE  H15R12855   2.756   3.660   4.975  1.1048  1.1269  1.5903
  121SOPE  H15S12856   2.693   3.820   4.941 -1.9292  0.8825 -0.4594
  121SOPE  C21612857   2.568   3.653   4.881 -0.4360  0.6807  0.5414
  121SOPE  H16R12858   2.615   3.663   4.781 -2.1605 -0.9090 -0.5037
  121SOPE  H16S12859   2.470   3.704   4.870 -0.2130  1.0349  0.1934
  121SOPE  C21712860   2.536   3.510   4.904  0.1306 -0.1193  0.3106
  121SOPE  H17R12861   2.508   3.501   5.011 -0.2074 -0.7319  0.1795
  121SOPE  H17S12862   2.631   3.453   4.892  0.0911  0.0132 -0.7472
  121SOPE  C21812863   2.439   3.443   4.804 -0.8475  0.1492 -0.4860
  121SOPE  H18R12864   2.492   3.415   4.711 -1.0376 -0.4350 -0.4177
  121SOPE  H18S12865   2.343   3.495   4.784 -0.5669  0.3412 -1.3662
  121SOPE  H18T12866   2.413   3.344   4.846  0.5298 -0.2202 -0.4611
  121SOPE   C3312867   2.711   3.814   5.906  0.1591 -0.2946 -0.1095
  121SOPE   H3X12868   2.760   3.715   5.893  2.0438  0.5808 -0.0083
  121SOPE   H3Y12869   2.757   3.886   5.835 -0.9551 -0.9491 -1.5273
  121SOPE   C3412870   2.566   3.798   5.862  1.1723 -0.3759  0.0538
  121SOPE   H4X12871   2.494   3.870   5.906  0.5865 -0.2811 -1.0182
  121SOPE   H4Y12872   2.524   3.700   5.891 -0.7065  0.8822  1.8924
  121SOPE   C3512873   2.560   3.812   5.704  0.7524 -1.2322 -0.5077
  121SOPE   H5X12874   2.615   3.724   5.662 -1.0078 -1.3739 -2.6926
  121SOPE   H5Y12875   2.620   3.902   5.678  1.4860 -1.3313  0.7578
  121SOPE   C3612876   2.419   3.806   5.640  0.0856  0.3760  0.1864
  121SOPE   H6X12877   2.373   3.904   5.666 -0.4372  0.0186  0.6231
  121SOPE   H6Y12878   2.374   3.723   5.699  1.5154 -1.0213 -0.6228
  121SOPE   C3712879   2.414   3.787   5.485  0.1685  0.1985  0.0153
  121SOPE   H7X12880   2.488   3.712   5.450 -0.6448 -0.8249  0.4345
  121SOPE   H7Y12881   2.445   3.886   5.446 -2.1699  0.8554 -0.3512
  121SOPE   C3812882   2.276   3.751   5.421 -0.2801 -0.3027 -0.4574
  121SOPE   H8X12883   2.202   3.830   5.443  1.5129  1.6309 -1.0168
  121SOPE   H8Y12884   2.228   3.659   5.461 -2.0301  0.1684 -1.4128
  121SOPE   C3912885   2.280   3.741   5.268  0.2543 -0.0847  0.4243
  121SOPE   H9X12886   2.367   3.674   5.250 -0.4996 -1.0862  0.4316
  121SOPE   H9Y12887   2.293   3.839   5.218  2.0068 -0.1208  0.7384
  121SOPE  C31012888   2.154   3.669   5.221 -0.4380  0.0206  0.1130
  121SOPE  H10X12889   2.068   3.730   5.255 -1.8511 -0.4725 -2.2745
  121SOPE  H10Y12890   2.149   3.571   5.273  1.6859 -0.0603  0.2639
  121SOPE  C31112891   2.140   3.647   5.071 -0.5609  0.0890  0.6651
  121SOPE  H11X12892   2.209   3.564   5.045 -1.2418 -0.1090 -0.6047
  121SOPE  H11Y12893   2.160   3.734   5.005 -0.0391 -1.8654 -1.9131
  121SOPE  C31212894   2.003   3.602   5.029 -0.5465  0.2426 -0.6217
  121SOPE  H12X12895   1.932   3.686   5.046 -2.5765 -1.3810 -0.6905
  121SOPE  H12Y12896   1.967   3.525   5.101  0.7970 -0.1824 -0.3855
  121SOPE  C31312897   1.990   3.545   4.886  0.8772 -0.0900 -0.5629
  121SOPE  H13X12898   1.892   3.494   4.873 -0.9500  3.5374 -2.5467
  121SOPE  H13Y12899   2.074   3.474   4.870 -0.4314 -2.5078  2.3700
  121SOPE  C31412900   1.992   3.664   4.788 -0.2259  0.2131 -0.6016
  121SOPE  H14X12901   2.080   3.725   4.815 -0.0782 -0.6950  1.1236
  121SOPE  H14Y12902   1.898   3.722   4.800 -1.2876 -1.2762 -1.3411
  121SOPE  C31512903   2.025   3.620   4.648  0.3053  0.4714  0.9955
  121SOPE  H15X12904   2.113   3.552   4.648 -0.0571 -0.1734 -2.4731
  121SOPE  H15Y12905   2.050   3.712   4.590 -0.3026  0.4249  0.6516
  121SOPE  C31612906   1.915   3.552   4.562  0.4341 -0.4834  0.5922
  121SOPE  H16X12907   1.820   3.610   4.562  0.6999  0.0378 -1.6313
  121SOPE  H16Y12908   1.877   3.461   4.614 -0.8008 -0.3771 -0.0731
  121SOPE  C31712909   1.953   3.514   4.417 -0.4797  0.1078 -0.0923
  121SOPE  H17X12910   1.999   3.606   4.375  1.0189 -0.1378  0.9257
  121SOPE  H17Y12911   1.851   3.514   4.374 -0.8628  1.9725  0.7152
  121SOPE  C31812912   2.032   3.386   4.387  0.0614  0.1754 -0.6843
  121SOPE  H18X12913   2.130   3.382   4.438 -0.9099  0.0544  1.2804
  121SOPE  H18Y12914   2.037   3.376   4.277 -2.0497 -3.6173 -0.5986
  121SOPE  H18Z12915   1.970   3.297   4.411  1.5668 -0.4933  0.9649
  122SOPE     N12916   3.636   3.022   6.444 -0.3538  0.5876  0.0420
  122SOPE   HN112917   3.665   2.966   6.527 -1.0074 -0.2308 -0.2645
  122SOPE   HN212918   3.538   3.053   6.462 -0.5384 -0.0939  0.2630
  122SOPE   HN312919   3.639   2.954   6.366 -0.2802 -0.2451  0.7547
  122SOPE   C1212920   3.725   3.137   6.412  0.4927 -0.2754 -0.3850
  122SOPE  H12A12921   3.832   3.109   6.404  0.7016  0.9815 -3.2568
  122SOPE  H12B12922   3.725   3.207   6.498 -1.2075 -1.1799  0.4110
  122SOPE   C1112923   3.693   3.200   6.274  0.1501  0.3267 -0.0125
  122SOPE  H11A12924   3.728   3.126   6.199 -0.4628  0.7250 -0.7063
  122SOPE  H11B12925   3.753   3.293   6.273 -1.1937  1.2233  0.1138
  122SOPE     P12926   3.482   3.362   6.297  0.2289  0.2160 -0.0561
  122SOPE   O1312927   3.519   3.380   6.441  0.2322 -0.0520 -0.1383
  122SOPE   O1412928   3.342   3.360   6.254 -0.2004 -0.1721 -0.3407
  122SOPE   O1212929   3.554   3.224   6.256 -0.2802 -0.1480 -0.5437
  122SOPE   O1112930   3.561   3.461   6.213 -0.3023 -0.5506 -0.0404
  122SOPE    C112931   3.567   3.464   6.065  0.0943  0.4483 -0.3943
  122SOPE    HA12932   3.583   3.573   6.047  0.9853  0.4507  0.3378
  122SOPE    HB12933   3.469   3.443   6.018  0.1699  2.7760 -1.7984
  122SOPE    C212934   3.690   3.383   6.003  0.3841 -0.6202  0.4271
  122SOPE    HS12935   3.764   3.364   6.083 -1.6398 -0.7524  2.3480
  122SOPE   O2112936   3.744   3.473   5.901 -0.2544  0.6121 -0.0215
  122SOPE   C2112937   3.864   3.442   5.853 -0.3869 -0.5485  0.3520
  122SOPE   O2212938   3.939   3.353   5.889  0.8703 -0.5812 -0.1240
  122SOPE   C2212939   3.885   3.524   5.727  0.1628 -0.3903 -0.3724
  122SOPE   H2R12940   3.991   3.516   5.695  0.4630  1.5667  0.0178
  122SOPE   H2S12941   3.861   3.628   5.757  0.5580 -0.3802 -0.0790
  122SOPE    C312942   3.638   3.243   5.941  0.2513 -0.2198  0.1297
  122SOPE    HX12943   3.595   3.179   6.020  0.8430  0.7636  1.2720
  122SOPE    HY12944   3.719   3.184   5.892 -0.7088 -0.2667 -1.4835
  122SOPE   O3112945   3.537   3.272   5.842 -0.7373  0.6535 -0.5059
  122SOPE   C3112946   3.437   3.188   5.836 -0.3094 -0.5819  0.5643
  122SOPE   O3212947   3.409   3.097   5.908 -0.3153  0.4816  0.0486
  122SOPE   C3212948   3.364   3.237   5.709  0.8409  0.4740  0.6513
  122SOPE   H2X12949   3.337   3.343   5.725  0.5395  0.3738  0.8243
  122SOPE   H2Y12950   3.275   3.170   5.707  0.7148  0.6424 -0.6011
  122SOPE   C2312951   3.792   3.469   5.614  0.1299  0.5926  0.3704
  122SOPE   H3R12952   3.687   3.481   5.646 -0.2206 -1.6896  0.2318
  122SOPE   H3S12953   3.811   3.362   5.590 -3.1889 -0.2816  1.0969
  122SOPE   C2412954   3.824   3.547   5.479  0.0444  0.1442 -0.2144
  122SOPE   H4R12955   3.793   3.654   5.477  1.3613  0.6772  2.8877
  122SOPE   H4S12956   3.932   3.533   5.461  0.1969 -1.1519  1.4296
  122SOPE   C2512957   3.764   3.479   5.353  0.3419 -0.0356 -0.6850
  122SOPE   H5R12958   3.774   3.369   5.358 -2.4676 -0.4549 -1.9547
  122SOPE   H5S12959   3.656   3.506   5.360  0.7966  1.9152 -0.7002
  122SOPE   C2612960   3.829   3.525   5.222  0.0338 -0.1931 -0.3499
  122SOPE   H6R12961   3.934   3.489   5.227  0.3932  0.9685  1.3660
  122SOPE   H6S12962   3.781   3.475   5.135 -0.0767 -1.0986  0.2279
  122SOPE   C2712963   3.845   3.675   5.205  0.4346  0.1003  0.3045
  122SOPE   H7R12964   3.743   3.719   5.200  0.2508 -0.3800 -0.1893
  122SOPE   H7S12965   3.910   3.697   5.293 -0.1098 -1.1189  1.0407
  122SOPE   C2812966   3.917   3.711   5.075  0.0926  0.0030  0.6168
  122SOPE   H8R12967   4.021   3.673   5.088  0.3392  0.5998  0.4194
  122SOPE   H8S12968   3.870   3.655   4.992  0.6075  0.6202 -0.1061
  122SOPE   C2912969   3.901   3.860   5.039 -0.1003 -0.5842 -0.0805
  122SOPE   H9112970   3.845   3.870   4.945  1.0181 -2.6112 -1.0188
  122SOPE  C21012971   3.942   3.964   5.101 -0.1602  0.5472 -0.0764
  122SOPE  H10112972   3.910   4.061   5.060  1.6831  1.4639  0.5632
  122SOPE  C21112973   4.030   3.960   5.224 -0.6324 -0.4204 -0.0423
  122SOPE  H11R12974   4.107   4.040   5.219 -1.5152  0.5009  0.9738
  122SOPE  H11S12975   4.095   3.871   5.238  2.0077  1.5795  1.3692
  122SOPE  C21212976   3.950   3.980   5.354  1.0676  0.0454  0.8272
  122SOPE  H12R12977   3.869   3.904   5.356  0.8792  0.2501  1.7048
  122SOPE  H12S12978   3.900   4.080   5.355 -0.3365 -0.4397 -3.0316
  122SOPE  C21312979   4.028   3.958   5.482  0.5414  0.9738 -0.4957
  122SOPE  H13R12980   4.105   4.038   5.479 -0.9808  2.6892  1.9274
  122SOPE  H13S12981   4.086   3.863   5.480  0.7909  1.1119 -0.0076
  122SOPE  C21412982   3.949   3.997   5.608 -0.0460 -0.2505  0.3053
  122SOPE  H14R12983   3.899   3.900   5.628  3.5883 -2.4786 -0.5867
  122SOPE  H14S12984   3.882   4.082   5.584 -0.1142 -0.0456  1.1741
  122SOPE  C21512985   4.032   4.031   5.734  0.1651  0.5427 -0.2244
  122SOPE  H15R12986   4.088   4.126   5.723  0.1049  0.6882  0.6944
  122SOPE  H15S12987   4.110   3.951   5.741  0.6728  0.7426 -2.7082
  122SOPE  C21612988   3.948   4.053   5.852  0.1059  0.5043  0.3019
  122SOPE  H16R12989   3.896   3.956   5.867 -0.4098  0.7020 -0.1638
  122SOPE  H16S12990   3.875   4.135   5.841 -2.3933 -1.6485 -0.1446
  122SOPE  C21712991   4.034   4.099   5.971  0.3096 -0.2522 -0.0082
  122SOPE  H17R12992   4.088   4.196   5.960 -0.8498  0.5385  0.9832
  122SOPE  H17S12993   4.109   4.021   5.992 -0.2098 -0.1348  2.5823
  122SOPE  C21812994   3.941   4.107   6.096  0.2824  0.0876  0.3932
  122SOPE  H18R12995   3.870   4.189   6.074  0.4130 -0.3264 -1.7189
  122SOPE  H18S12996   3.998   4.138   6.187  0.9515  0.9335 -0.2991
  122SOPE  H18T12997   3.906   4.004   6.119  1.5706 -0.4274  0.1434
  122SOPE   C3312998   3.455   3.234   5.583  0.0712 -0.1312 -0.5451
  122SOPE   H3X12999   3.472   3.125   5.567  0.7828 -0.1180  0.0929
  122SOPE   H3Y13000   3.555   3.279   5.602  1.5670 -3.2788 -0.3841
  122SOPE   C3413001   3.383   3.295   5.461  0.0377 -0.4119  0.0053
  122SOPE   H4X13002   3.378   3.402   5.488 -0.0015 -0.9085  2.1894
  122SOPE   H4Y13003   3.277   3.260   5.469 -0.2792  0.0935 -1.6037
  122SOPE   C3513004   3.456   3.255   5.332  0.0640  0.5412 -0.1505
  122SOPE   H5X13005   3.450   3.144   5.325 -3.0816  0.5921  0.3238
  122SOPE   H5Y13006   3.566   3.271   5.340  0.1423 -0.4998  1.1473
  122SOPE   C3613007   3.404   3.330   5.215  0.4254 -0.0506 -0.5688
  122SOPE   H6X13008   3.407   3.440   5.228 -0.5497 -0.0328 -0.3819
  122SOPE   H6Y13009   3.298   3.302   5.196 -0.5748  2.1891  1.2398
  122SOPE   C3713010   3.497   3.300   5.093 -0.3619 -0.2956  0.1764
  122SOPE   H7X13011   3.501   3.192   5.068 -2.8180 -0.1388 -1.1524
  122SOPE   H7Y13012   3.600   3.336   5.117 -0.9096  0.1904  1.9307
  122SOPE   C3813013   3.455   3.366   4.965 -0.4052 -0.1036  0.2850
  122SOPE   H8X13014   3.467   3.474   4.988 -1.0758 -0.1988  1.1470
  122SOPE   H8Y13015   3.345   3.356   4.950 -0.2125 -0.1255 -1.2868
  122SOPE   C3913016   3.518   3.314   4.838  0.1923  0.2183  0.6222
  122SOPE   H9X13017   3.487   3.207   4.839 -0.0274  0.2758  0.2484
  122SOPE   H9Y13018   3.628   3.334   4.838  0.2351  0.5827 -2.6342
  122SOPE  C31013019   3.460   3.386   4.715 -0.1919 -0.6712 -0.3994
  122SOPE  H10X13020   3.450   3.494   4.735 -0.9944 -0.7858 -0.1592
  122SOPE  H10Y13021   3.357   3.352   4.693  0.0386 -0.5272 -1.8011
  122SOPE  C31113022   3.536   3.358   4.584 -0.1472  0.0104  0.6165
  122SOPE  H11X13023   3.644   3.376   4.601  0.2253 -1.1682 -0.3789
  122SOPE  H11Y13024   3.493   3.425   4.506 -1.2134  0.3397  1.4627
  122SOPE  C31213025   3.518   3.215   4.520  0.0284  0.3954 -0.4762
  122SOPE  H12X13026   3.410   3.189   4.530 -0.2536  1.4960 -0.4861
  122SOPE  H12Y13027   3.568   3.145   4.590  1.7211  1.4664 -0.5728
  122SOPE  C31313028   3.570   3.186   4.374  0.2139 -0.6791  0.4968
  122SOPE  H13X13029   3.498   3.236   4.306 -2.0897 -3.3812  0.7771
  122SOPE  H13Y13030   3.553   3.076   4.370  2.2575 -1.0489  0.7557
  122SOPE  C31413031   3.708   3.234   4.346  0.0351 -0.2303  0.1484
  122SOPE  H14X13032   3.790   3.199   4.411 -0.0713 -0.1154  0.3457
  122SOPE  H14Y13033   3.690   3.343   4.361 -2.6943 -0.9203  3.0107
  122SOPE  C31513034   3.753   3.202   4.203  0.1733  0.4853 -0.4391
  122SOPE  H15X13035   3.709   3.279   4.136 -0.4744  1.0643  0.6232
  122SOPE  H15Y13036   3.722   3.097   4.180 -0.0074  0.3904  0.2132
  122SOPE  C31613037   3.903   3.197   4.176  0.5040 -0.5290 -0.5399
  122SOPE  H16X13038   3.955   3.132   4.250  0.3830  0.1070  0.1151
  122SOPE  H16Y13039   3.948   3.298   4.169 -0.7729 -0.0401 -2.4530
  122SOPE  C31713040   3.945   3.129   4.044  0.5874  0.5421 -0.4195
  122SOPE  H17X13041   3.906   3.026   4.040  1.0251  0.3889 -0.7905
  122SOPE  H17Y13042   4.056   3.126   4.035  0.5297  0.0821 -1.0221
  122SOPE  C31813043   3.887   3.198   3.919 -0.2121 -0.3167 -0.5311
  122SOPE  H18X13044   3.904   3.307   3.928  1.3897 -0.4901 -1.2853
  122SOPE  H18Y13045   3.777   3.183   3.908 -0.6585  3.4459 -2.6347
  122SOPE  H18Z13046   3.928   3.155   3.826 -2.2118  0.2540 -1.7420
  123SOPE     N13047   5.856   0.813   2.421  0.0769  0.2216 -0.4789
  123SOPE   HN113048   5.871   0.805   2.524  3.0639  2.1989 -0.6282
  123SOPE   HN213049   5.776   0.752   2.394  0.0079  0.3511 -0.5727
  123SOPE   HN313050   5.940   0.770   2.378  0.3717 -0.5543  0.8277
  123SOPE   C1213051   5.840   0.959   2.377 -0.6922  0.5559 -0.0175
  123SOPE  H12A13052   5.902   1.024   2.442  0.7562 -0.3602 -0.4477
  123SOPE  H12B13053   5.732   0.983   2.389 -1.2207 -1.1549 -0.9480
  123SOPE   C1113054   5.861   0.984   2.227 -0.1981  0.6955 -1.0141
  123SOPE  H11A13055   5.847   1.094   2.225  0.5629  0.8234  0.1775
  123SOPE  H11B13056   5.784   0.931   2.167 -1.7533  0.3617  1.1600
  123SOPE     P13057   6.096   1.038   2.138  0.0668 -0.4356  0.2596
  123SOPE   O1313058   6.080   1.047   1.993  0.3804 -0.0664 -0.3409
  123SOPE   O1413059   6.224   1.004   2.195 -0.2914  0.2641 -0.1904
  123SOPE   O1213060   5.987   0.936   2.186 -0.0714  0.1594 -0.1543
  123SOPE   O1113061   6.056   1.178   2.198  0.5767  0.0742 -0.0986
  123SOPE    C113062   6.150   1.265   2.262  0.0642 -0.2644  0.4736
  123SOPE    HA13063   6.135   1.366   2.219  1.7054 -0.9876 -1.9898
  123SOPE    HB13064   6.255   1.241   2.236  0.1390 -1.3054  1.6180
  123SOPE    C213065   6.128   1.273   2.414  0.0044  0.1950  0.1968
  123SOPE    HS13066   6.197   1.352   2.450 -1.0664  2.1587 -1.8225
  123SOPE   O2113067   6.147   1.142   2.478  0.7132  0.2634 -0.2956
  123SOPE   C2113068   6.277   1.108   2.485  0.3086 -0.2905  0.4622
  123SOPE   O2213069   6.378   1.165   2.451 -0.2373  0.2343 -0.2324
  123SOPE   C2213070   6.288   0.969   2.560 -0.1287  0.0389  0.6167
  123SOPE   H2R13071   6.377   0.912   2.526 -1.0122 -0.7300 -0.4792
  123SOPE   H2S13072   6.201   0.907   2.530  0.3537  0.2698 -1.4675
  123SOPE    C313073   5.990   1.323   2.438 -0.0172 -0.0142 -0.0686
  123SOPE    HX13074   5.910   1.252   2.409 -1.2443  0.4412  1.9948
  123SOPE    HY13075   5.962   1.409   2.373  0.2229  2.6609  3.1251
  123SOPE   O3113076   5.977   1.378   2.570 -0.1961  0.0275 -0.9874
  123SOPE   C3113077   5.897   1.313   2.652  0.1158 -0.7633 -0.2365
  123SOPE   O3213078   5.822   1.224   2.628 -0.2853 -0.5975  0.2226
  123SOPE   C3213079   5.920   1.378   2.798  0.4037 -0.1895  0.0745
  123SOPE   H2X13080   5.928   1.488   2.786  0.8158 -0.1996  0.2244
  123SOPE   H2Y13081   6.019   1.344   2.835  0.4055  0.8971  1.1119
  123SOPE   C2313082   6.289   0.979   2.717  0.3633  0.1926 -0.0674
  123SOPE   H3R13083   6.318   0.878   2.753 -0.8729 -0.1557 -0.0193
  123SOPE   H3S13084   6.190   1.010   2.756  0.8624  0.3235  1.1312
  123SOPE   C2413085   6.399   1.073   2.764  0.0231 -0.1905 -0.4847
  123SOPE   H4R13086   6.492   1.073   2.703  0.2721  1.7773 -0.1672
  123SOPE   H4S13087   6.365   1.177   2.749  1.1987 -0.0266 -2.2324
  123SOPE   C2513088   6.436   1.067   2.913 -0.0353 -0.1294 -0.7068
  123SOPE   H5R13089   6.373   0.986   2.954  1.0419 -0.1349  1.0415
  123SOPE   H5S13090   6.542   1.036   2.927 -0.6414 -1.3708  1.7124
  123SOPE   C2613091   6.402   1.208   2.981  0.6366  0.3153  0.0266
  123SOPE   H6R13092   6.472   1.217   3.067  0.9506  0.4740 -0.2439
  123SOPE   H6S13093   6.415   1.301   2.923 -2.6366  1.9666  1.7033
  123SOPE   C2713094   6.253   1.201   3.036 -0.2415  0.2257  0.2794
  123SOPE   H7R13095   6.232   1.306   3.067  2.4057  0.8945  0.0834
  123SOPE   H7S13096   6.180   1.177   2.956 -0.9807  1.0323  0.6979
  123SOPE   C2813097   6.234   1.098   3.152 -0.1839  0.4154 -0.7915
  123SOPE   H8R13098   6.229   0.993   3.114  2.5390  1.0819 -3.3910
  123SOPE   H8S13099   6.325   1.094   3.216  0.2483  2.5288 -1.1854
  123SOPE   C2913100   6.105   1.130   3.226 -0.4591  0.0712 -0.4237
  123SOPE   H9113101   6.018   1.143   3.160  0.1804  2.7114 -0.8623
  123SOPE  C21013102   6.090   1.178   3.353 -0.2377 -0.2041  0.6335
  123SOPE  H10113103   5.986   1.193   3.383  0.0205  0.5831  1.1669
  123SOPE  C21113104   6.198   1.187   3.460  0.2651 -0.0557 -0.3975
  123SOPE  H11R13105   6.277   1.261   3.436 -1.7706  2.7025  0.9729
  123SOPE  H11S13106   6.240   1.085   3.475  0.8634  0.4139  1.4602
  123SOPE  C21213107   6.138   1.234   3.590 -0.6601 -0.1017 -0.2054
  123SOPE  H12R13108   6.037   1.190   3.604 -2.0505  2.6708 -0.8279
  123SOPE  H12S13109   6.134   1.345   3.582  0.8020 -0.1116 -1.7163
  123SOPE  C21313110   6.226   1.197   3.711 -0.8729  0.1761  0.5325
  123SOPE  H13R13111   6.321   1.255   3.714 -0.0797 -1.1217  0.9279
  123SOPE  H13S13112   6.258   1.092   3.692 -1.7168  0.1393 -0.8114
  123SOPE  C21413113   6.163   1.218   3.844  0.0859 -0.4885  0.2159
  123SOPE  H14R13114   6.062   1.173   3.830 -0.6563  0.9779  0.5902
  123SOPE  H14S13115   6.146   1.328   3.835 -0.6392 -0.7161 -1.8225
  123SOPE  C21513116   6.233   1.171   3.974  0.4330 -0.1932 -0.0799
  123SOPE  H15R13117   6.335   1.215   3.976 -0.1424  1.1994  1.0361
  123SOPE  H15S13118   6.241   1.060   3.975 -1.3551 -0.3612  0.8060
  123SOPE  C21613119   6.157   1.201   4.099  0.5420 -0.8046  0.1831
  123SOPE  H16R13120   6.202   1.151   4.188 -0.2058  1.2451  1.7769
  123SOPE  H16S13121   6.059   1.149   4.085  0.1871  0.0413 -0.5538
  123SOPE  C21713122   6.120   1.353   4.115  0.6012  0.9597 -0.1315
  123SOPE  H17R13123   6.048   1.376   4.034 -0.2182 -0.3443  0.1983
  123SOPE  H17S13124   6.216   1.407   4.101  1.6627 -0.5107  1.1106
  123SOPE  C21813125   6.042   1.385   4.240  0.7367 -0.2592 -0.4846
  123SOPE  H18R13126   5.942   1.336   4.242  0.8769 -0.5275  0.0776
  123SOPE  H18S13127   6.042   1.493   4.267  0.4743 -0.9506  2.5266
  123SOPE  H18T13128   6.096   1.343   4.327 -0.4793 -1.5099 -0.2873
  123SOPE   C3313129   5.809   1.344   2.907  0.3252 -0.5113  0.1054
  123SOPE   H3X13130   5.821   1.234   2.916  1.7013 -0.3706  0.2600
  123SOPE   H3Y13131   5.706   1.379   2.882 -0.2313 -1.8918  0.4076
  123SOPE   C3413132   5.846   1.396   3.054  0.6056 -0.4359  0.1241
  123SOPE   H4X13133   5.878   1.502   3.048  0.4226 -0.4437 -1.4301
  123SOPE   H4Y13134   5.934   1.339   3.090 -0.2112 -1.0515  1.1990
  123SOPE   C3513135   5.723   1.387   3.147  0.3979  0.3455  0.8163
  123SOPE   H5X13136   5.683   1.284   3.144 -1.3419  1.0083  0.3818
  123SOPE   H5Y13137   5.640   1.454   3.114  0.0713 -1.2287 -1.8387
  123SOPE   C3613138   5.764   1.414   3.286 -0.2510  0.0707  0.2312
  123SOPE   H6X13139   5.819   1.511   3.283 -0.5210  0.2038 -2.2384
  123SOPE   H6Y13140   5.830   1.332   3.321 -3.4339 -1.9227  2.1347
  123SOPE   C3713141   5.640   1.410   3.379  0.2608 -0.6086  0.7175
  123SOPE   H7X13142   5.592   1.310   3.372  1.0458 -0.9066 -0.7340
  123SOPE   H7Y13143   5.554   1.470   3.343  0.9185  1.2317  2.0381
  123SOPE   C3813144   5.672   1.465   3.521 -0.2820  0.5583  0.5611
  123SOPE   H8X13145   5.697   1.573   3.516 -0.2638  0.8539  4.2031
  123SOPE   H8Y13146   5.759   1.407   3.559  0.5571  1.1866 -0.3335
  123SOPE   C3913147   5.554   1.449   3.619 -0.1536 -0.2566 -0.3269
  123SOPE   H9X13148   5.525   1.341   3.623 -0.3592 -0.1898  0.0668
  123SOPE   H9Y13149   5.466   1.508   3.587 -1.9719 -2.0529  1.0383
  123SOPE  C31013150   5.601   1.487   3.754 -0.2002  0.1480 -0.2898
  123SOPE  H10X13151   5.638   1.592   3.745 -1.8799  1.1895  3.1768
  123SOPE  H10Y13152   5.688   1.428   3.790 -0.7863  0.3681  1.5776
  123SOPE  C31113153   5.489   1.459   3.855  0.4154  0.0729  0.4394
  123SOPE  H11X13154   5.463   1.351   3.856  0.7931 -0.0503 -0.8260
  123SOPE  H11Y13155   5.395   1.512   3.829 -0.3020 -0.3582  2.0216
  123SOPE  C31213156   5.528   1.493   3.990 -0.2769 -0.5069  0.2663
  123SOPE  H12X13157   5.605   1.417   4.017  0.9769 -0.4184 -2.7032
  123SOPE  H12Y13158   5.444   1.462   4.056 -0.5881 -1.9409 -0.7626
  123SOPE  C31313159   5.583   1.637   4.018  0.8619  0.2902  0.2847
  123SOPE  H13X13160   5.501   1.707   3.989  0.8148 -0.2735 -1.0271
  123SOPE  H13Y13161   5.671   1.654   3.953 -0.1789  0.1112 -1.2394
  123SOPE  C31413162   5.617   1.656   4.174 -0.1336 -0.0427 -0.2830
  123SOPE  H14X13163   5.718   1.610   4.185  0.8881  2.2760  0.6987
  123SOPE  H14Y13164   5.546   1.596   4.234  0.7746 -1.9953 -1.0686
  123SOPE  C31513165   5.606   1.801   4.214  0.3000 -0.0810 -0.8822
  123SOPE  H15X13166   5.505   1.839   4.187  0.8464  0.4066 -2.3288
  123SOPE  H15Y13167   5.675   1.858   4.147  0.0010  0.3851 -0.8002
  123SOPE  C31613168   5.645   1.831   4.358 -0.4304 -0.4033  0.0550
  123SOPE  H16X13169   5.660   1.940   4.368  0.8750 -0.2763 -2.5240
  123SOPE  H16Y13170   5.743   1.785   4.382 -1.2438 -2.2546  0.0823
  123SOPE  C31713171   5.544   1.788   4.465 -0.4570 -0.8213  0.4050
  123SOPE  H17X13172   5.510   1.683   4.450 -0.2167 -0.8814  0.2717
  123SOPE  H17Y13173   5.455   1.853   4.453  0.0216 -0.0256  1.0842
  123SOPE  C31813174   5.596   1.806   4.614  0.4587  0.2195 -0.0403
  123SOPE  H18X13175   5.504   1.822   4.673  0.3752  0.2475 -0.1762
  123SOPE  H18Y13176   5.675   1.883   4.627 -0.3641  1.0007  0.4064
  123SOPE  H18Z13177   5.654   1.718   4.649 -0.4598  0.8425  3.3938
  124SOPE     N13178   3.494   5.796   2.286 -0.4070 -0.1020  0.3329
  124SOPE   HN113179   3.479   5.739   2.201  0.1361  2.5798 -1.6904
  124SOPE   HN213180   3.459   5.887   2.251  0.6571 -0.5057 -1.9246
  124SOPE   HN313181   3.594   5.811   2.308  0.0561 -0.1576 -1.6241
  124SOPE   C1213182   3.419   5.730   2.397 -0.5706 -0.0907  0.2546
  124SOPE  H12A13183   3.484   5.659   2.453  1.0433  1.8121  0.9259
  124SOPE  H12B13184   3.332   5.676   2.354 -1.2914  1.4091 -0.2053
  124SOPE   C1113185   3.365   5.832   2.503 -0.4260 -0.0679  0.1220
  124SOPE  H11A13186   3.444   5.865   2.574 -2.1397  0.4873  1.8482
  124SOPE  H11B13187   3.288   5.781   2.564 -0.9055 -0.4030 -0.7415
  124SOPE     P13188   3.171   5.954   2.370  0.0364 -0.0213 -0.3493
  124SOPE   O1313189   3.165   5.838   2.273 -0.0495  0.0236  0.3005
  124SOPE   O1413190   3.160   6.093   2.311 -0.2925  0.1117 -0.0532
  124SOPE   O1213191   3.313   5.950   2.451  0.4347 -0.3790  0.5751
  124SOPE   O1113192   3.058   5.935   2.475  0.2368 -0.1930 -0.0827
  124SOPE    C113193   3.074   6.001   2.597  0.3451  0.2471 -0.8083
  124SOPE    HA13194   3.144   6.088   2.600 -0.7555  1.2346 -2.2761
  124SOPE    HB13195   3.109   5.919   2.663 -0.3266  0.0889 -0.6399
  124SOPE    C213196   2.934   6.043   2.654  0.2892  0.3841 -0.0747
  124SOPE    HS13197   2.884   6.112   2.583 -0.3013  1.1823  1.0816
  124SOPE   O2113198   2.944   6.094   2.791 -0.3355  0.2384  0.5980
  124SOPE   C2113199   2.999   6.214   2.786  0.2136  0.2323  0.0235
  124SOPE   O2213200   2.996   6.282   2.687 -0.5779 -0.2465  0.1864
  124SOPE   C2213201   3.053   6.262   2.919  0.5051  0.4113 -0.4121
  124SOPE   H2R13202   3.108   6.170   2.945  1.2824  0.7926 -0.6889
  124SOPE   H2S13203   2.964   6.273   2.985  1.1207 -0.6998  0.6370
  124SOPE    C313204   2.832   5.926   2.661 -0.2970 -0.4456  0.1492
  124SOPE    HX13205   2.855   5.872   2.755 -0.3452 -0.7279 -0.0009
  124SOPE    HY13206   2.847   5.846   2.585 -2.5593 -0.4830 -0.3260
  124SOPE   O3113207   2.700   5.975   2.666  0.1897 -0.3561  0.7989
  124SOPE   C3113208   2.616   5.871   2.681 -0.1091 -0.5012 -0.5973
  124SOPE   O3213209   2.647   5.751   2.685  0.2057  0.1111  0.0317
  124SOPE   C3213210   2.467   5.921   2.672 -0.5268  0.1679 -0.2516
  124SOPE   H2X13211   2.418   5.868   2.588  0.7634 -2.7206  0.6751
  124SOPE   H2Y13212   2.462   6.031   2.660 -0.9120  0.2096  0.2410
  124SOPE   C2313213   3.136   6.392   2.913  0.1769  0.8234 -0.4223
  124SOPE   H3R13214   3.091   6.463   2.840 -2.3374  0.5002  0.7165
  124SOPE   H3S13215   3.240   6.359   2.889 -0.4459 -0.5052 -1.4502
  124SOPE   C2413216   3.122   6.462   3.048  0.6725  0.3992  0.9108
  124SOPE   H4R13217   3.018   6.499   3.060  0.2715 -0.3163 -0.2218
  124SOPE   H4S13218   3.134   6.383   3.125  0.3586 -0.4280  0.1256
  124SOPE   C2513219   3.223   6.580   3.066  0.4545  0.9054  0.1113
  124SOPE   H5R13220   3.324   6.544   3.037  0.1889  0.7296 -0.6223
  124SOPE   H5S13221   3.200   6.662   2.995 -0.7720  0.0951 -0.4644
  124SOPE   C2613222   3.217   6.635   3.212 -0.0127  0.3485  0.1319
  124SOPE   H6R13223   3.115   6.667   3.240  0.5987  0.7999  1.9578
  124SOPE   H6S13224   3.254   6.554   3.279  1.9337  1.7356  0.8116
  124SOPE   C2713225   3.321   6.746   3.224 -0.0422 -0.0191 -0.2793
  124SOPE   H7R13226   3.411   6.700   3.178  0.9243  0.5933  0.9368
  124SOPE   H7S13227   3.297   6.836   3.163  1.3376  1.3534  1.0932
  124SOPE   C2813228   3.347   6.781   3.368 -0.1348 -0.4604  0.1566
  124SOPE   H8R13229   3.383   6.692   3.424 -0.4580 -0.0567  1.0274
  124SOPE   H8S13230   3.429   6.857   3.367 -1.0018  0.5047 -1.0959
  124SOPE   C2913231   3.222   6.847   3.423 -0.2636 -0.4859 -0.3249
  124SOPE   H9113232   3.187   6.942   3.379 -0.2550 -0.7851 -1.0046
  124SOPE  C21013233   3.141   6.807   3.526  0.3511 -0.3621 -0.2136
  124SOPE  H10113234   3.050   6.868   3.535 -1.7832 -3.1716 -1.3617
  124SOPE  C21113235   3.158   6.690   3.619  0.1698 -0.5536  0.7719
  124SOPE  H11R13236   3.142   6.713   3.726 -5.3126 -1.7194  0.4825
  124SOPE  H11S13237   3.264   6.658   3.605 -0.2066 -1.4597 -0.1235
  124SOPE  C21213238   3.082   6.557   3.581 -0.1134 -0.4808 -0.1591
  124SOPE  H12R13239   3.111   6.533   3.477  3.3568  0.9280  0.3429
  124SOPE  H12S13240   2.974   6.585   3.581 -0.8019 -2.9373 -0.8507
  124SOPE  C21313241   3.117   6.445   3.673 -0.0168 -0.7714  0.2952
  124SOPE  H13R13242   3.089   6.490   3.771 -1.9192 -0.2891 -0.4132
  124SOPE  H13S13243   3.221   6.407   3.680  0.2017 -0.0823  0.9005
  124SOPE  C21413244   3.035   6.318   3.647 -0.0071  0.6922  1.0165
  124SOPE  H14R13245   2.927   6.344   3.638 -0.1157  0.5183  1.7432
  124SOPE  H14S13246   3.058   6.251   3.733  1.2450 -1.1310 -0.6634
  124SOPE  C21513247   3.082   6.237   3.519  0.3976  0.3317  0.0262
  124SOPE  H15R13248   3.177   6.185   3.545  0.5308 -0.1466 -1.3629
  124SOPE  H15S13249   3.087   6.302   3.429 -0.2297 -0.4386 -0.5766
  124SOPE  C21613250   2.987   6.124   3.464 -0.2611 -0.1906  0.0489
  124SOPE  H16R13251   2.895   6.163   3.415 -1.2798 -2.5423 -0.0801
  124SOPE  H16S13252   2.939   6.071   3.549 -1.1606  0.6991  0.1135
  124SOPE  C21713253   3.061   6.038   3.362 -0.6204 -0.4161  0.2609
  124SOPE  H17R13254   2.996   5.950   3.345 -0.1712 -1.0869  1.8513
  124SOPE  H17S13255   3.158   5.999   3.398  1.4162  2.2048 -1.9164
  124SOPE  C21813256   3.069   6.091   3.219 -1.1694 -0.5228 -0.3071
  124SOPE  H18R13257   2.969   6.076   3.172 -1.2236 -0.3144 -0.2561
  124SOPE  H18S13258   3.146   6.038   3.158 -0.9903 -0.4712 -0.1258
  124SOPE  H18T13259   3.101   6.197   3.224 -0.6885 -0.7078  0.8990
  124SOPE   C3313260   2.387   5.869   2.799  0.5540 -0.4536 -0.1128
  124SOPE   H3X13261   2.402   5.760   2.814 -1.3523 -0.5758  1.2206
  124SOPE   H3Y13262   2.280   5.890   2.780  0.2722 -2.2664 -0.6258
  124SOPE   C3413263   2.442   5.946   2.921  0.2728  0.8361 -0.8828
  124SOPE   H4X13264   2.447   6.052   2.890  1.5145  1.7294  2.0290
  124SOPE   H4Y13265   2.549   5.928   2.947 -0.3136  1.0795  1.9489
  124SOPE   C3513266   2.352   5.934   3.053 -0.2580  0.1058 -0.0030
  124SOPE   H5X13267   2.242   5.924   3.036 -0.2412 -1.9853  0.7185
  124SOPE   H5Y13268   2.380   6.029   3.102  1.6821  0.2286 -1.2438
  124SOPE   C3613269   2.375   5.811   3.141  0.1808  0.5785  0.0926
  124SOPE   H6X13270   2.484   5.804   3.159  0.1052  2.2228  1.4337
  124SOPE   H6Y13271   2.345   5.725   3.078 -0.5883  1.2105 -0.4304
  124SOPE   C3713272   2.298   5.811   3.272 -0.1913  0.5603  0.3751
  124SOPE   H7X13273   2.190   5.827   3.249 -0.5218 -0.8805  0.8388
  124SOPE   H7Y13274   2.326   5.893   3.342 -0.5285  0.4996  0.5836
  124SOPE   C3813275   2.324   5.678   3.351  0.3104 -0.5302 -0.3340
  124SOPE   H8X13276   2.427   5.684   3.393 -1.2435  3.9723  3.7775
  124SOPE   H8Y13277   2.307   5.601   3.273  0.0264 -2.1310  1.2418
  124SOPE   C3913278   2.235   5.655   3.479  0.0417  1.0222 -0.2130
  124SOPE   H9X13279   2.260   5.554   3.516 -3.7823  0.1671  0.4843
  124SOPE   H9Y13280   2.129   5.663   3.445  0.1707  0.1452 -0.8479
  124SOPE  C31013281   2.272   5.751   3.596  0.6014 -0.3550  0.1601
  124SOPE  H10X13282   2.235   5.853   3.573  0.9370 -0.2364  0.1364
  124SOPE  H10Y13283   2.382   5.763   3.605  0.3017  3.3512  0.5639
  124SOPE  C31113284   2.221   5.703   3.732  0.1935 -0.2149 -0.1821
  124SOPE  H11X13285   2.254   5.597   3.731 -2.1180 -0.9785 -0.2953
  124SOPE  H11Y13286   2.112   5.703   3.750  0.5085 -2.6782  2.5196
  124SOPE  C31213287   2.280   5.775   3.853 -0.3409 -0.3510 -0.1782
  124SOPE  H12X13288   2.252   5.881   3.842  0.9220  0.4670  3.2087
  124SOPE  H12Y13289   2.390   5.790   3.847 -0.3696 -0.6013 -2.5000
  124SOPE  C31313290   2.231   5.715   3.987 -0.1600 -0.4132 -1.0792
  124SOPE  H13X13291   2.273   5.613   4.000  1.4516  0.2729 -0.7457
  124SOPE  H13Y13292   2.122   5.695   3.996 -0.3342  0.7505 -0.3527
  124SOPE  C31413293   2.270   5.803   4.108 -0.4404  0.4429  0.1702
  124SOPE  H14X13294   2.231   5.904   4.087  3.8410  2.3976  0.6352
  124SOPE  H14Y13295   2.381   5.807   4.110 -0.3086 -1.8099  2.4873
  124SOPE  C31513296   2.235   5.746   4.252  0.3663 -0.5174 -0.7216
  124SOPE  H15X13297   2.266   5.836   4.311  0.2902 -0.5903 -0.5710
  124SOPE  H15Y13298   2.303   5.663   4.280  0.8897 -0.1839 -0.9784
  124SOPE  C31613299   2.091   5.729   4.279  0.3845 -0.1914 -0.6413
  124SOPE  H16X13300   2.071   5.701   4.384 -0.4808 -0.5576 -0.8918
  124SOPE  H16Y13301   2.058   5.639   4.223  1.3552  0.3564 -2.1784
  124SOPE  C31713302   1.996   5.842   4.254 -0.3507  0.1096 -0.4910
  124SOPE  H17X13303   1.893   5.805   4.275 -0.0110 -0.3670  0.3650
  124SOPE  H17Y13304   2.004   5.866   4.145  2.0260 -1.2605 -0.6865
  124SOPE  C31813305   2.020   5.968   4.331 -0.5970  0.4124  0.4350
  124SOPE  H18X13306   1.939   6.040   4.309 -1.5184 -0.6164  0.4005
  124SOPE  H18Y13307   2.116   6.020   4.308  0.8690 -2.3683 -0.1553
  124SOPE  H18Z13308   2.021   5.935   4.437 -0.8642 -2.4583 -0.3923
  125SOPE     N13309   5.033   4.233   2.188  0.2989 -0.0174 -0.0477
  125SOPE   HN113310   5.040   4.132   2.162  1.4713 -0.7949  2.8480
  125SOPE   HN213311   5.043   4.230   2.292  2.3820 -1.4138 -0.2075
  125SOPE   HN313312   4.947   4.278   2.153  0.9722  0.9508 -0.4946
  125SOPE   C1213313   5.147   4.319   2.144  0.5511  0.3682 -0.3280
  125SOPE  H12A13314   5.127   4.368   2.046 -1.3663  3.2309  1.3667
  125SOPE  H12B13315   5.239   4.257   2.139  0.3495  0.0977 -0.7504
  125SOPE   C1113316   5.163   4.423   2.256 -0.0992  0.4603 -0.0285
  125SOPE  H11A13317   5.186   4.523   2.213 -0.8261  0.2145 -1.0228
  125SOPE  H11B13318   5.246   4.395   2.324  0.8177 -0.9808 -1.6796
  125SOPE     P13319   4.936   4.566   2.281  0.0384 -0.0333 -0.3604
  125SOPE   O1313320   4.814   4.526   2.357 -0.3337  0.5563  0.1122
  125SOPE   O1413321   4.922   4.564   2.131 -0.1858 -0.6233  0.1796
  125SOPE   O1213322   5.042   4.456   2.323 -0.3696 -0.2927  0.3195
  125SOPE   O1113323   4.990   4.703   2.340 -0.1896 -0.1648  0.4141
  125SOPE    C113324   5.091   4.701   2.439 -0.2448  0.4725 -0.5435
  125SOPE    HA13325   5.101   4.809   2.464  0.7920  0.2591  0.0292
  125SOPE    HB13326   5.184   4.652   2.401 -1.3242 -0.1880 -2.4770
  125SOPE    C213327   5.057   4.642   2.579 -0.4252  0.9609  0.5845
  125SOPE    HS13328   5.033   4.536   2.560 -0.3291  0.6106  2.2604
  125SOPE   O2113329   4.944   4.711   2.632  0.3961 -0.1750 -0.3535
  125SOPE   C2113330   4.846   4.635   2.682 -0.1936  0.4407  0.2184
  125SOPE   O2213331   4.858   4.515   2.711 -0.1910  0.1674  0.2794
  125SOPE   C2213332   4.731   4.720   2.728 -0.1133  0.6967 -0.1228
  125SOPE   H2R13333   4.634   4.670   2.707 -0.5902  1.5763 -0.0725
  125SOPE   H2S13334   4.730   4.815   2.670  0.0405 -0.5522 -2.2631
  125SOPE    C313335   5.189   4.668   2.665 -0.0235 -0.3878 -0.0843
  125SOPE    HX13336   5.206   4.777   2.659  1.9519 -0.4669  2.2840
  125SOPE    HY13337   5.277   4.615   2.623 -1.8247 -3.5002 -0.2445
  125SOPE   O3113338   5.165   4.634   2.803 -0.3880  0.1887  0.6708
  125SOPE   C3113339   5.171   4.502   2.825  0.5381  0.0827 -0.0637
  125SOPE   O3213340   5.168   4.411   2.745 -0.3271 -0.1053  0.1916
  125SOPE   C3213341   5.177   4.477   2.976 -0.0324  0.4068  0.1945
  125SOPE   H2X13342   5.228   4.560   3.028 -0.2984 -0.1812  1.4441
  125SOPE   H2Y13343   5.241   4.387   2.987  1.1453  1.3385  1.2242
  125SOPE   C2313344   4.739   4.754   2.877 -0.3158 -0.2092 -0.3434
  125SOPE   H3R13345   4.813   4.836   2.890 -0.6317  0.1734 -0.9262
  125SOPE   H3S13346   4.768   4.670   2.944 -1.9262  0.7370  1.6376
  125SOPE   C2413347   4.598   4.796   2.929  0.0126  0.1328 -0.4703
  125SOPE   H4R13348   4.560   4.891   2.887  0.0306  0.3215 -0.0730
  125SOPE   H4S13349   4.525   4.715   2.906 -1.0975  1.3144 -1.2765
  125SOPE   C2513350   4.604   4.822   3.078 -0.5748 -0.0475 -0.2746
  125SOPE   H5R13351   4.708   4.832   3.118 -1.1723  3.2074  0.8314
  125SOPE   H5S13352   4.568   4.923   3.109  4.7298  1.9491  0.4687
  125SOPE   C2613353   4.534   4.707   3.161 -0.8302  0.2144 -0.4554
  125SOPE   H6R13354   4.432   4.688   3.120  0.2905 -1.1835 -2.8146
  125SOPE   H6S13355   4.585   4.611   3.142 -2.7800 -0.5399 -2.3624
  125SOPE   C2713356   4.523   4.722   3.312  0.2769  0.3126 -0.3239
  125SOPE   H7R13357   4.493   4.828   3.324  0.6691  0.5643 -1.4314
  125SOPE   H7S13358   4.430   4.667   3.334  0.1315 -0.2868 -2.2343
  125SOPE   C2813359   4.639   4.682   3.410 -0.5355  0.3136  0.9102
  125SOPE   H8R13360   4.640   4.571   3.402 -0.4994  0.3800 -0.1322
  125SOPE   H8S13361   4.742   4.696   3.371 -1.0930  0.1226 -0.7342
  125SOPE   C2913362   4.636   4.738   3.545  0.3276  0.1483 -0.7218
  125SOPE   H9113363   4.629   4.848   3.540  1.5189  0.3629  1.3227
  125SOPE  C21013364   4.645   4.674   3.665  0.2293  0.1402  0.3404
  125SOPE  H10113365   4.652   4.742   3.751 -0.1806 -0.7502  1.0868
  125SOPE  C21113366   4.666   4.525   3.688  0.0985 -0.0133 -0.8663
  125SOPE  H11R13367   4.763   4.489   3.647  0.0994 -0.8601 -0.1566
  125SOPE  H11S13368   4.586   4.472   3.633  0.7696 -1.2751 -0.6713
  125SOPE  C21213369   4.649   4.469   3.828  0.0323 -0.1389 -0.2783
  125SOPE  H12R13370   4.664   4.359   3.823  1.5162 -0.1339  2.3269
  125SOPE  H12S13371   4.550   4.492   3.872  0.6819  2.3277  0.0739
  125SOPE  C21313372   4.741   4.536   3.928  0.3171  0.5284 -0.7982
  125SOPE  H13R13373   4.691   4.634   3.946  0.2059  0.9401 -2.9866
  125SOPE  H13S13374   4.846   4.556   3.896  0.3598  1.2276 -0.2541
  125SOPE  C21413375   4.743   4.448   4.062  0.3688  0.0610 -0.5127
  125SOPE  H14R13376   4.788   4.348   4.047  0.3696 -0.5690  2.9948
  125SOPE  H14S13377   4.636   4.439   4.090  0.2064  3.9206  0.7955
  125SOPE  C21513378   4.810   4.515   4.191 -0.0834 -0.1123  0.8769
  125SOPE  H15R13379   4.786   4.451   4.279  1.1005  0.6543  1.7826
  125SOPE  H15S13380   4.764   4.615   4.202  0.9830  0.8491 -2.4184
  125SOPE  C21613381   4.960   4.531   4.185 -0.0379  0.6459 -0.1596
  125SOPE  H16R13382   4.992   4.585   4.094  1.0643  0.4142  0.0731
  125SOPE  H16S13383   5.000   4.427   4.183 -1.4391  0.0854 -1.1655
  125SOPE  C21713384   5.015   4.615   4.307  0.6931  0.1356  1.1968
  125SOPE  H17R13385   4.987   4.570   4.405  0.4033 -1.7145  0.3102
  125SOPE  H17S13386   4.958   4.711   4.304 -0.9853 -0.8537 -0.4714
  125SOPE  C21813387   5.166   4.639   4.301  0.2994 -0.0308  0.3632
  125SOPE  H18R13388   5.189   4.695   4.394  1.4213 -0.0660  0.1235
  125SOPE  H18S13389   5.191   4.697   4.210 -2.6886 -0.9699 -1.2029
  125SOPE  H18T13390   5.220   4.543   4.316  3.5178  1.9993  2.9208
  125SOPE   C3313391   5.033   4.461   3.021 -0.0809 -0.4095 -0.1087
  125SOPE   H3X13392   4.992   4.365   2.982  2.6732 -1.4146 -0.7779
  125SOPE   H3Y13393   4.965   4.539   2.983  0.4307 -0.2466 -0.7172
  125SOPE   C3413394   5.042   4.479   3.175  0.1154  0.0959  0.7919
  125SOPE   H4X13395   5.076   4.579   3.208  2.9353 -1.3862  2.8707
  125SOPE   H4Y13396   5.115   4.404   3.212 -1.8062 -1.5794  1.4312
  125SOPE   C3513397   4.911   4.446   3.241 -0.1849 -1.0184 -0.4258
  125SOPE   H5X13398   4.871   4.348   3.208 -1.0570 -0.7772 -0.1090
  125SOPE   H5Y13399   4.837   4.523   3.211  1.0314 -0.0576 -1.0734
  125SOPE   C3613400   4.908   4.447   3.397 -0.2663  0.0100  0.8234
  125SOPE   H6X13401   4.804   4.429   3.430  0.0837 -0.0830  1.9109
  125SOPE   H6Y13402   4.932   4.547   3.439 -0.8579 -0.2399  1.7704
  125SOPE   C3713403   4.990   4.337   3.471  0.1849 -0.5326  1.3717
  125SOPE   H7X13404   5.031   4.269   3.394  1.4029 -0.2196  1.7179
  125SOPE   H7Y13405   4.920   4.277   3.533 -1.1302  0.4829  0.9013
  125SOPE   C3813406   5.107   4.389   3.552  0.3135 -0.1966 -0.3228
  125SOPE   H8X13407   5.063   4.470   3.615  1.3328 -0.8141  1.2585
  125SOPE   H8Y13408   5.191   4.428   3.491  1.1095  0.9897  1.4367
  125SOPE   C3913409   5.162   4.280   3.647  0.4619  0.1284 -0.3042
  125SOPE   H9X13410   5.270   4.302   3.655  0.6950 -0.7229 -0.9441
  125SOPE   H9Y13411   5.145   4.186   3.590 -0.4393 -1.0594  1.7987
  125SOPE  C31013412   5.097   4.273   3.789  0.6688 -0.3464  0.1465
  125SOPE  H10X13413   4.993   4.234   3.793  0.0992  1.2161  1.8964
  125SOPE  H10Y13414   5.098   4.374   3.834 -0.3368  0.1760 -0.9614
  125SOPE  C31113415   5.180   4.189   3.886  0.2060  0.5272  0.5845
  125SOPE  H11X13416   5.288   4.212   3.880  0.3874 -0.5060 -0.4970
  125SOPE  H11Y13417   5.167   4.085   3.850  2.2580  0.1343  0.8674
  125SOPE  C31213418   5.120   4.194   4.029  0.3892 -0.2428 -0.1556
  125SOPE  H12X13419   5.079   4.295   4.052 -0.8307 -0.8608  0.5289
  125SOPE  H12Y13420   5.193   4.168   4.108  1.5738  0.0274 -1.1350
  125SOPE  C31313421   5.010   4.082   4.058  0.4187 -0.1938  0.2586
  125SOPE  H13X13422   5.061   3.984   4.072 -0.1432 -0.5068  0.1329
  125SOPE  H13Y13423   4.934   4.077   3.977 -0.4974  0.7622  1.0308
  125SOPE  C31413424   4.946   4.101   4.192  0.1719 -0.0864  0.0985
  125SOPE  H14X13425   4.956   4.205   4.231 -0.2100  0.8523 -2.1326
  125SOPE  H14Y13426   5.002   4.042   4.268 -0.5597 -0.0632  0.6658
  125SOPE  C31513427   4.793   4.066   4.176 -0.2008  0.4058 -0.7578
  125SOPE  H15X13428   4.771   4.006   4.086 -0.2794 -0.5281 -0.1231
  125SOPE  H15Y13429   4.738   4.159   4.149 -2.0043  0.1450  1.6716
  125SOPE  C31613430   4.731   4.014   4.303 -0.7431  0.4869 -0.1641
  125SOPE  H16X13431   4.630   4.060   4.315 -1.0073 -0.4926  1.9838
  125SOPE  H16Y13432   4.788   4.062   4.386  0.1519 -0.3738 -0.2681
  125SOPE  C31713433   4.727   3.860   4.327 -0.0805  0.3327  0.6131
  125SOPE  H17X13434   4.650   3.830   4.402 -1.0598  0.3688 -0.3553
  125SOPE  H17Y13435   4.826   3.818   4.354  0.1367  0.2119 -0.3544
  125SOPE  C31813436   4.678   3.777   4.208 -0.7351  0.0019  0.0595
  125SOPE  H18X13437   4.578   3.803   4.167 -1.4589 -0.9122  1.2109
  125SOPE  H18Y13438   4.680   3.668   4.225  1.9608 -0.2215 -1.0909
  125SOPE  H18Z13439   4.738   3.799   4.117 -0.1915  1.1681  0.6696
  126SOPE     N13440   0.589   3.873   2.115 -0.3731  0.2852 -0.3341
  126SOPE   HN113441   0.492   3.870   2.151 -0.7498  1.0357 -1.2298
  126SOPE   HN213442   0.616   3.790   2.058  3.7199  0.7130  0.6617
  126SOPE   HN313443   0.654   3.878   2.196  0.9304  0.9338 -1.3651
  126SOPE   C1213444   0.591   3.994   2.030 -0.0664  0.6845 -0.0140
  126SOPE  H12A13445   0.525   3.968   1.944  2.1306 -1.2328 -1.2135
  126SOPE  H12B13446   0.697   4.003   2.001 -0.4077 -0.2906 -1.7368
  126SOPE   C1113447   0.532   4.107   2.116 -0.2957 -0.9702 -0.5670
  126SOPE  H11A13448   0.429   4.086   2.151  0.1996 -0.0586  1.6032
  126SOPE  H11B13449   0.525   4.198   2.053 -0.9363 -0.0692  0.7505
  126SOPE     P13450   0.710   4.235   2.250 -0.2573 -0.4346 -0.2514
  126SOPE   O1313451   0.738   4.292   2.116 -0.5560 -0.4271 -0.4578
  126SOPE   O1413452   0.819   4.169   2.321  0.0700  0.2953  0.5875
  126SOPE   O1213453   0.594   4.127   2.244 -0.3818 -0.5933 -0.1498
  126SOPE   O1113454   0.656   4.347   2.346  0.3754 -0.1924  0.0602
  126SOPE    C113455   0.522   4.399   2.322  0.6074  0.7277 -0.0885
  126SOPE    HA13456   0.463   4.321   2.269  1.5172  0.8571 -1.3493
  126SOPE    HB13457   0.521   4.493   2.263 -0.5744 -0.2270 -1.6634
  126SOPE    C213458   0.450   4.413   2.460 -0.7748 -0.4022 -0.0409
  126SOPE    HS13459   0.345   4.387   2.436 -1.0915  1.4485 -0.7796
  126SOPE   O2113460   0.455   4.549   2.505  0.2119  0.4123 -0.2580
  126SOPE   C2113461   0.352   4.624   2.456  1.1021  0.2383 -0.5444
  126SOPE   O2213462   0.282   4.595   2.358  0.8416 -0.0132 -0.7524
  126SOPE   C2213463   0.356   4.757   2.521  1.0584 -0.1773 -0.3490
  126SOPE   H2R13464   0.297   4.824   2.455 -0.1106 -1.5070 -0.7010
  126SOPE   H2S13465   0.462   4.790   2.516  0.0378  3.6403  0.4514
  126SOPE    C313466   0.501   4.317   2.566 -0.2082 -0.4731 -0.6409
  126SOPE    HX13467   0.608   4.343   2.581 -0.1881 -0.6792 -0.4168
  126SOPE    HY13468   0.497   4.212   2.529  2.1130 -0.9162  0.1918
  126SOPE   O3113469   0.450   4.329   2.699 -0.4206 -0.5071  0.6988
  126SOPE   C3113470   0.340   4.271   2.729 -0.0040 -0.4050 -0.5812
  126SOPE   O3213471   0.263   4.219   2.649 -0.1834 -0.1953 -0.2783
  126SOPE   C3213472   0.321   4.278   2.877 -0.2537  0.2131  0.2902
  126SOPE   H2X13473   0.315   4.386   2.902 -0.2116  0.1164  0.7212
  126SOPE   H2Y13474   0.413   4.254   2.933 -1.1892  1.0222  2.2565
  126SOPE   C2313475   0.294   4.766   2.668 -0.9981 -0.0414 -0.8982
  126SOPE   H3R13476   0.185   4.743   2.673 -1.5529  2.5072  1.7399
  126SOPE   H3S13477   0.309   4.868   2.710  2.8855  0.2327 -2.5043
  126SOPE   C2413478   0.371   4.678   2.772 -0.1191 -0.2000 -0.0979
  126SOPE   H4R13479   0.383   4.574   2.735 -0.4653 -1.3512  2.7575
  126SOPE   H4S13480   0.477   4.713   2.774 -0.4071  0.8320 -1.6352
  126SOPE   C2513481   0.299   4.679   2.916 -0.2092 -0.0870  0.0910
  126SOPE   H5R13482   0.272   4.783   2.946  2.5699  1.6834 -2.9371
  126SOPE   H5S13483   0.210   4.614   2.900  1.0065 -1.8920  0.4293
  126SOPE   C2613484   0.389   4.631   3.023 -0.3023  0.4791 -0.8639
  126SOPE   H6R13485   0.439   4.534   3.001  3.7033  2.6181 -2.3776
  126SOPE   H6S13486   0.477   4.699   3.032 -0.4580  0.4766  0.8511
  126SOPE   C2713487   0.327   4.638   3.158 -0.2776  1.4180  0.7757
  126SOPE   H7R13488   0.298   4.742   3.183  0.7918  1.8696  0.2203
  126SOPE   H7S13489   0.233   4.580   3.148  0.0594  0.7577  1.2885
  126SOPE   C2813490   0.416   4.571   3.259 -0.1705 -0.3447  0.4760
  126SOPE   H8R13491   0.458   4.474   3.224  1.7209  1.0345 -1.3325
  126SOPE   H8S13492   0.508   4.629   3.281  1.3527 -1.3970 -2.5733
  126SOPE   C2913493   0.327   4.555   3.382 -0.5601 -0.6511  0.3472
  126SOPE   H9113494   0.254   4.635   3.402 -0.8717 -0.4570 -1.4201
  126SOPE  C21013495   0.336   4.450   3.469 -0.2568  0.0390  0.3778
  126SOPE  H10113496   0.254   4.442   3.542 -1.1153 -1.8130 -0.7195
  126SOPE  C21113497   0.430   4.336   3.465  0.5866 -0.2537 -0.7450
  126SOPE  H11R13498   0.431   4.270   3.376  0.4598 -1.8174  0.3618
  126SOPE  H11S13499   0.416   4.270   3.554  2.1183  1.2687  0.6976
  126SOPE  C21213500   0.576   4.389   3.495 -0.3498  0.3477  0.4944
  126SOPE  H12R13501   0.598   4.447   3.403  0.5987  1.5693  1.4598
  126SOPE  H12S13502   0.651   4.307   3.504  1.4353  2.0337  1.9303
  126SOPE  C21313503   0.604   4.475   3.612  0.1695 -0.2336  0.0991
  126SOPE  H13R13504   0.530   4.557   3.619  0.7491  0.3655 -0.5626
  126SOPE  H13S13505   0.704   4.521   3.600 -0.4826  1.3404  0.4912
  126SOPE  C21413506   0.597   4.392   3.746  0.0287 -0.2016  0.1490
  126SOPE  H14R13507   0.509   4.325   3.750 -1.6189  1.9130  2.3734
  126SOPE  H14S13508   0.572   4.469   3.823 -0.1309 -1.9083  1.8802
  126SOPE  C21513509   0.732   4.320   3.775  0.2258 -0.5307 -0.3268
  126SOPE  H15R13510   0.809   4.397   3.753 -1.0630  0.8827 -0.0908
  126SOPE  H15S13511   0.739   4.240   3.698  3.6732 -1.3281  0.6380
  126SOPE  C21613512   0.737   4.253   3.912  1.0108  0.1095  0.1065
  126SOPE  H16R13513   0.646   4.191   3.930  1.3343 -0.0388  1.2952
  126SOPE  H16S13514   0.743   4.326   3.996  2.5020 -1.9552  1.9114
  126SOPE  C21713515   0.861   4.159   3.930  0.2608  0.3695 -0.0229
  126SOPE  H17R13516   0.949   4.219   3.899  0.0094 -0.0688 -1.6700
  126SOPE  H17S13517   0.861   4.075   3.857  2.4086 -0.8536  1.2827
  126SOPE  C21813518   0.865   4.096   4.073 -0.1687 -0.5571 -0.2028
  126SOPE  H18R13519   0.837   4.171   4.150 -1.2003 -1.6892  0.5682
  126SOPE  H18S13520   0.967   4.054   4.088 -0.1155  0.1318  1.5710
  126SOPE  H18T13521   0.794   4.010   4.075  1.2600 -1.7804 -0.0300
  126SOPE   C3313522   0.193   4.202   2.923  0.4550 -0.1087 -0.4744
  126SOPE   H3X13523   0.221   4.097   2.950  1.8405  0.0214 -1.2724
  126SOPE   H3Y13524   0.118   4.196   2.842  1.7725 -3.2137 -1.6511
  126SOPE   C3413525   0.147   4.263   3.055  0.0189  1.0932 -0.2227
  126SOPE   H4X13526   0.132   4.372   3.040  0.6858  1.0619 -1.2738
  126SOPE   H4Y13527   0.223   4.236   3.131  1.3153 -2.2524 -2.4731
  126SOPE   C3513528   0.027   4.179   3.103 -0.6401  0.3683 -0.8963
  126SOPE   H5X13529   0.046   4.071   3.118  1.8115  0.6404 -1.6490
  126SOPE   H5Y13530  -0.050   4.171   3.023 -0.3281 -2.4784 -1.0100
  126SOPE   C3613531  -0.034   4.230   3.239  0.7027  0.8049  0.2334
  126SOPE   H6X13532   0.051   4.231   3.310  0.2712 -0.9372  0.8344
  126SOPE   H6Y13533  -0.107   4.156   3.278  0.1156  1.8533  1.1642
  126SOPE   C3713534  -0.122   4.354   3.226 -0.3344  0.7993  0.3317
  126SOPE   H7X13535  -0.195   4.334   3.144  0.5983  0.8512 -0.5368
  126SOPE   H7Y13536  -0.051   4.430   3.186  0.1244  0.1639 -0.0815
  126SOPE   C3813537  -0.189   4.397   3.362  0.3092  0.4789 -0.6081
  126SOPE   H8X13538  -0.231   4.495   3.330  1.0750  1.1443  0.3481
  126SOPE   H8Y13539  -0.122   4.422   3.447 -1.9681 -0.4616  1.5846
  126SOPE   C3913540  -0.293   4.301   3.417 -0.3263  0.2754  0.7017
  126SOPE   H9X13541  -0.248   4.203   3.443 -1.7765  0.0779  2.6217
  126SOPE   H9Y13542  -0.383   4.291   3.354 -0.1129 -0.3732  0.4896
  126SOPE  C31013543  -0.333   4.350   3.556  0.1319  0.0840 -0.4457
  126SOPE  H10X13544  -0.413   4.425   3.537 -1.5281 -1.2558  0.9176
  126SOPE  H10Y13545  -0.255   4.396   3.619 -0.4925  0.4066  0.1070
  126SOPE  C31113546  -0.390   4.233   3.646  0.2624 -0.1580  0.2853
  126SOPE  H11X13547  -0.296   4.175   3.647  0.5626  0.2821 -0.7754
  126SOPE  H11Y13548  -0.469   4.176   3.591  0.4310 -0.7546  0.6585
  126SOPE  C31213549  -0.440   4.279   3.784 -0.2264 -0.1801 -0.2938
  126SOPE  H12X13550  -0.517   4.359   3.786  1.2035  1.2392 -0.0023
  126SOPE  H12Y13551  -0.356   4.330   3.836  2.3204 -3.1467 -1.2224
  126SOPE  C31313552  -0.488   4.166   3.875  0.6297 -0.2317 -0.0633
  126SOPE  H13X13553  -0.406   4.092   3.861  2.2220  1.6005 -0.8110
  126SOPE  H13Y13554  -0.584   4.133   3.830  0.2531  2.0228 -1.0241
  126SOPE  C31413555  -0.504   4.195   4.025 -0.4370 -0.9702 -1.1457
  126SOPE  H14X13556  -0.597   4.248   4.053 -0.8826 -3.3473  2.4917
  126SOPE  H14Y13557  -0.426   4.271   4.048 -1.7103  0.0881 -0.1772
  126SOPE  C31513558  -0.481   4.075   4.119 -0.2112  0.3609 -0.2060
  126SOPE  H15X13559  -0.384   4.033   4.083 -1.9283 -1.8673 -2.5541
  126SOPE  H15Y13560  -0.557   3.998   4.099 -0.3553  0.7516 -1.2187
  126SOPE  C31613561  -0.491   4.107   4.272  0.4605 -0.1149 -0.6268
  126SOPE  H16X13562  -0.590   4.146   4.302  1.1212  0.9628  0.2067
  126SOPE  H16Y13563  -0.413   4.181   4.302 -0.2051 -0.3690  1.8882
  126SOPE  C31713564  -0.458   3.989   4.373  0.3303  0.2263 -0.1161
  126SOPE  H17X13565  -0.468   4.021   4.479 -1.3048 -1.4013  0.2569
  126SOPE  H17Y13566  -0.359   3.945   4.349  0.4659  1.2419 -1.5628
  126SOPE  C31813567  -0.560   3.878   4.365  0.5572  0.6814  0.3273
  126SOPE  H18X13568  -0.667   3.908   4.363  0.1248 -0.8100 -1.0509
  126SOPE  H18Y13569  -0.553   3.795   4.438  1.0853  1.0186  0.6634
  126SOPE  H18Z13570  -0.552   3.828   4.266 -2.0184 -0.7210  0.7294
  127SOPE     N13571   1.412   4.776   2.020  0.0586 -0.4270 -0.1629
  127SOPE   HN113572   1.448   4.823   2.106 -0.4672 -0.1149 -0.1126
  127SOPE   HN213573   1.483   4.712   1.980  1.2483  0.3851  0.5737
  127SOPE   HN313574   1.413   4.850   1.947  0.5212 -1.4162 -1.1888
  127SOPE   C1213575   1.273   4.718   2.020  0.4444 -0.0882 -0.2428
  127SOPE  H12A13576   1.273   4.641   2.100 -0.6578 -1.4023 -1.4296
  127SOPE  H12B13577   1.251   4.660   1.928  0.6672 -1.4083  0.5073
  127SOPE   C1113578   1.165   4.827   2.034 -0.1211  0.5186 -0.0584
  127SOPE  H11A13579   1.181   4.909   1.961  0.2383  0.4268 -0.0896
  127SOPE  H11B13580   1.194   4.860   2.136  1.0577  0.6906 -0.4293
  127SOPE     P13581   0.975   4.647   2.090 -0.2730 -0.2751 -0.4359
  127SOPE   O1313582   1.032   4.531   2.019 -0.2387  0.5967 -0.0153
  127SOPE   O1413583   0.828   4.653   2.092  0.2366 -0.3347  0.1148
  127SOPE   O1213584   1.031   4.785   2.040 -0.2638  0.1064 -0.3803
  127SOPE   O1113585   1.028   4.636   2.234  0.5195 -0.6378 -0.7235
  127SOPE    C113586   1.018   4.738   2.335 -0.2845 -0.3805  0.3048
  127SOPE    HA13587   0.940   4.812   2.308 -0.9273 -1.1027  0.1616
  127SOPE    HB13588   1.119   4.783   2.347  0.7519 -2.8416  1.6446
  127SOPE    C213589   0.974   4.679   2.475  0.0335  0.4915 -1.0805
  127SOPE    HS13590   0.955   4.762   2.547  2.3354 -0.5275  0.8197
  127SOPE   O2113591   1.069   4.583   2.531 -0.1249  0.0662  0.2640
  127SOPE   C2113592   1.147   4.645   2.612 -0.0541 -0.4367  0.3345
  127SOPE   O2213593   1.144   4.768   2.640  0.0982 -0.3428  0.6123
  127SOPE   C2213594   1.245   4.543   2.661 -1.2046  0.5046 -0.0146
  127SOPE   H2R13595   1.339   4.558   2.603 -0.5791  0.6565  1.0065
  127SOPE   H2S13596   1.212   4.437   2.663 -0.3619  0.2398  1.1752
  127SOPE    C313597   0.843   4.598   2.463 -0.2198  0.2272  0.2448
  127SOPE    HX13598   0.861   4.525   2.382 -0.1492 -0.9064  1.2684
  127SOPE    HY13599   0.766   4.666   2.420  1.0040  0.4803 -1.6597
  127SOPE   O3113600   0.794   4.519   2.583  0.8860 -0.1493  0.3906
  127SOPE   C3113601   0.726   4.586   2.676 -0.7265 -0.3374  0.3252
  127SOPE   O3213602   0.699   4.707   2.664  0.9458  0.1364 -0.3113
  127SOPE   C3213603   0.700   4.501   2.799 -0.3149  0.0916  0.6667
  127SOPE   H2X13604   0.736   4.399   2.772 -0.5648  0.3078 -0.5443
  127SOPE   H2Y13605   0.591   4.506   2.819 -0.5879 -1.0850 -0.3925
  127SOPE   C2313606   1.283   4.570   2.802  0.1760 -0.1327 -0.8407
  127SOPE   H3R13607   1.210   4.525   2.872  2.0135 -0.0311  1.2649
  127SOPE   H3S13608   1.288   4.676   2.834 -2.0153 -0.3531  0.3927
  127SOPE   C2413609   1.428   4.524   2.826 -0.6518  0.0332  0.8059
  127SOPE   H4R13610   1.432   4.414   2.814 -1.8655 -0.2878  2.8289
  127SOPE   H4S13611   1.495   4.571   2.752  0.0930  1.0951  2.1066
  127SOPE   C2513612   1.496   4.560   2.959  0.1872 -0.5967 -0.3448
  127SOPE   H5R13613   1.602   4.526   2.957  0.4407  0.2087 -0.6520
  127SOPE   H5S13614   1.504   4.670   2.964 -0.9526 -0.5254  0.3965
  127SOPE   C2613615   1.428   4.529   3.091  0.2089 -0.1065  0.5648
  127SOPE   H6R13616   1.339   4.596   3.093  0.5438  0.5333 -2.2866
  127SOPE   H6S13617   1.392   4.424   3.101  2.4161 -0.7541  2.7707
  127SOPE   C2713618   1.522   4.552   3.208  0.1258 -0.3268 -0.5146
  127SOPE   H7R13619   1.587   4.465   3.231  2.7781  1.5287 -0.4488
  127SOPE   H7S13620   1.601   4.625   3.179  0.7004 -0.4231  0.7368
  127SOPE   C2813621   1.449   4.593   3.340  0.3222 -0.0271  0.6927
  127SOPE   H8R13622   1.528   4.614   3.415  1.6043 -1.6996 -0.1374
  127SOPE   H8S13623   1.404   4.690   3.311  1.1276 -0.3660 -1.9157
  127SOPE   C2913624   1.345   4.500   3.401 -0.1912 -0.4484  0.3964
  127SOPE   H9113625   1.255   4.471   3.344 -0.7792 -0.7624  1.4557
  127SOPE  C21013626   1.339   4.453   3.523  0.4543  0.2835  0.0761
  127SOPE  H10113627   1.246   4.404   3.556 -0.3264  1.2176 -0.6581
  127SOPE  C21113628   1.443   4.467   3.629 -0.2073 -0.2662 -0.9405
  127SOPE  H11R13629   1.538   4.497   3.578 -1.6855  2.0589 -2.5292
  127SOPE  H11S13630   1.457   4.367   3.675 -1.2231 -0.7909 -1.7363
  127SOPE  C21213631   1.407   4.575   3.738  0.0594 -0.1349 -0.6990
  127SOPE  H12R13632   1.308   4.547   3.780  0.1888  0.1823 -0.1764
  127SOPE  H12S13633   1.391   4.678   3.699  2.5915  2.4032  4.1014
  127SOPE  C21313634   1.524   4.585   3.831  0.0675  0.3713 -0.0230
  127SOPE  H13R13635   1.607   4.601   3.758 -1.1075  0.1683 -1.4696
  127SOPE  H13S13636   1.528   4.489   3.886  0.7435 -1.6760 -3.3086
  127SOPE  C21413637   1.524   4.690   3.935 -0.1814 -0.3499  0.5146
  127SOPE  H14R13638   1.529   4.787   3.882 -1.1158 -0.3348  0.4435
  127SOPE  H14S13639   1.618   4.675   3.993  0.0845 -0.2993  0.1015
  127SOPE  C21513640   1.406   4.689   4.029  0.1149  0.3383  0.4552
  127SOPE  H15R13641   1.314   4.699   3.968  0.4242 -1.5683 -0.3963
  127SOPE  H15S13642   1.412   4.785   4.085 -0.0851  1.2591 -1.0485
  127SOPE  C21613643   1.400   4.566   4.117 -0.6622  0.7406  0.1814
  127SOPE  H16R13644   1.482   4.495   4.097 -0.6628  0.7177  0.2618
  127SOPE  H16S13645   1.317   4.503   4.079  0.1393 -0.2496  0.0441
  127SOPE  C21713646   1.391   4.601   4.265 -0.2755  0.0297 -0.9309
  127SOPE  H17R13647   1.393   4.512   4.331  2.6439  1.1655  0.6771
  127SOPE  H17S13648   1.305   4.667   4.291 -1.1456 -0.6212 -2.0099
  127SOPE  C21813649   1.516   4.674   4.308 -0.0159 -0.4410 -0.1068
  127SOPE  H18R13650   1.606   4.615   4.278 -1.0434 -0.8273 -2.6703
  127SOPE  H18S13651   1.518   4.677   4.419  0.8775  0.8137 -0.1318
  127SOPE  H18T13652   1.531   4.780   4.279 -0.2486  0.4388  2.7504
  127SOPE   C3313653   0.777   4.552   2.927 -0.4590 -0.0262  0.0720
  127SOPE   H3X13654   0.745   4.657   2.940 -0.2259  0.4389 -2.5424
  127SOPE   H3Y13655   0.887   4.552   2.911 -0.2752 -3.3803  0.6049
  127SOPE   C3413656   0.749   4.460   3.043  0.0737 -0.4223 -0.4610
  127SOPE   H4X13657   0.754   4.357   3.003  0.3346 -0.0073 -1.5397
  127SOPE   H4Y13658   0.650   4.490   3.085 -0.0699  2.2305 -2.4236
  127SOPE   C3513659   0.842   4.478   3.166  0.2119  0.6787 -0.1602
  127SOPE   H5X13660   0.948   4.473   3.133  0.9190 -2.4059  2.1363
  127SOPE   H5Y13661   0.841   4.384   3.224 -0.6059  0.8297  0.0856
  127SOPE   C3613662   0.828   4.604   3.250  0.0486  0.2431  0.4106
  127SOPE   H6X13663   0.735   4.605   3.310  0.0863 -0.4971  0.4890
  127SOPE   H6Y13664   0.839   4.690   3.180  1.1369  1.8908  2.4898
  127SOPE   C3713665   0.952   4.623   3.342 -0.0824  0.3661 -0.1605
  127SOPE   H7X13666   1.042   4.650   3.283 -0.2626 -2.1292 -1.6974
  127SOPE   H7Y13667   0.971   4.532   3.401 -0.1755  0.2662 -0.2843
  127SOPE   C3813668   0.913   4.738   3.440  0.5686 -0.3024  0.7774
  127SOPE   H8X13669   0.823   4.715   3.501 -0.0551  2.6809  1.1614
  127SOPE   H8Y13670   0.898   4.827   3.375 -1.7050 -1.4238 -0.3378
  127SOPE   C3913671   1.027   4.759   3.555  0.4008  0.5562 -0.1037
  127SOPE   H9X13672   1.118   4.756   3.492 -1.1421 -0.4599 -2.4425
  127SOPE   H9Y13673   1.025   4.678   3.631  0.1894 -0.7126 -1.4152
  127SOPE  C31013674   1.013   4.897   3.635  0.2236  0.3754  0.4534
  127SOPE  H10X13675   0.907   4.899   3.670 -0.8625  0.9357 -2.5703
  127SOPE  H10Y13676   1.010   4.966   3.549 -2.5662 -1.6349 -1.2347
  127SOPE  C31113677   1.118   4.918   3.740 -0.2944  0.4014 -0.5165
  127SOPE  H11X13678   1.132   4.828   3.804  1.9583  2.7871  2.6497
  127SOPE  H11Y13679   1.085   4.997   3.811 -0.4728  0.2520 -0.4319
  127SOPE  C31213680   1.250   4.962   3.681 -0.2951  0.1097  0.3857
  127SOPE  H12X13681   1.226   5.026   3.594 -0.8772 -0.1607  0.3506
  127SOPE  H12Y13682   1.290   4.870   3.634  2.0634  0.8090  0.8384
  127SOPE  C31313683   1.339   5.033   3.784 -0.1637 -0.2057  0.3849
  127SOPE  H13X13684   1.367   4.963   3.866  0.1261 -0.5015  0.0356
  127SOPE  H13Y13685   1.277   5.122   3.810  1.5037  2.2444 -3.1715
  127SOPE  C31413686   1.468   5.086   3.729  0.1688 -0.1697 -0.8086
  127SOPE  H14X13687   1.445   5.174   3.665 -1.0978  1.0894  1.2882
  127SOPE  H14Y13688   1.506   5.011   3.657  0.4170  0.1956 -1.0612
  127SOPE  C31513689   1.577   5.111   3.838 -0.7712 -0.4472 -0.3766
  127SOPE  H15X13690   1.675   5.141   3.795  0.1490  0.9613  2.4311
  127SOPE  H15Y13691   1.605   5.013   3.882  3.3390  0.0226 -1.5151
  127SOPE  C31613692   1.527   5.198   3.959 -0.4623  0.3687 -0.3494
  127SOPE  H16X13693   1.605   5.198   4.038  0.0058  1.2978 -0.7861
  127SOPE  H16Y13694   1.429   5.162   3.995 -1.8241  3.8562 -0.2177
  127SOPE  C31713695   1.500   5.351   3.928  0.9285  0.0171  0.0019
  127SOPE  H17X13696   1.412   5.367   3.862  0.6828  0.5117  0.4342
  127SOPE  H17Y13697   1.593   5.387   3.879  1.1476 -0.4625  0.0614
  127SOPE  C31813698   1.473   5.429   4.057 -0.1393  0.0331 -0.3260
  127SOPE  H18X13699   1.497   5.536   4.045 -1.4016  0.1830 -1.7215
  127SOPE  H18Y13700   1.540   5.391   4.138 -0.3889  0.6326  0.1692
  127SOPE  H18Z13701   1.365   5.428   4.086 -0.3932  0.9760 -1.1932
  128SOPE     N13702   5.870   2.697   2.060  0.3599  0.1972 -0.1949
  128SOPE   HN113703   5.796   2.712   1.988  1.4878  0.2947 -1.3546
  128SOPE   HN213704   5.888   2.786   2.111  0.0659 -1.0611  2.2901
  128SOPE   HN313705   5.958   2.682   2.009 -0.5541 -3.5759 -0.9210
  128SOPE   C1213706   5.825   2.602   2.169 -0.1093  0.4855  0.1860
  128SOPE  H12A13707   5.905   2.587   2.245  3.0971 -0.6012 -3.0883
  128SOPE  H12B13708   5.821   2.499   2.127 -3.6395  0.9831 -0.9922
  128SOPE   C1113709   5.697   2.661   2.231  0.3341  0.1460 -0.1211
  128SOPE  H11A13710   5.716   2.757   2.282  0.2026  0.3405 -0.4331
  128SOPE  H11B13711   5.665   2.592   2.312 -1.6104 -2.8029 -3.1243
  128SOPE     P13712   5.443   2.639   2.165 -0.0651 -0.4528 -0.2941
  128SOPE   O1313713   5.434   2.493   2.133  0.6138  0.0739  0.5427
  128SOPE   O1413714   5.356   2.726   2.080 -0.1766  0.0078 -0.1430
  128SOPE   O1213715   5.593   2.687   2.131 -0.0072  0.3681 -0.4329
  128SOPE   O1113716   5.424   2.668   2.314  0.0483 -0.2418 -0.0551
  128SOPE    C113717   5.399   2.807   2.349 -0.1009  0.4632 -0.6834
  128SOPE    HA13718   5.290   2.828   2.348 -0.6896 -1.5767  3.1157
  128SOPE    HB13719   5.449   2.884   2.286  0.7040  2.1046  1.8128
  128SOPE    C213720   5.446   2.834   2.495  0.6025 -0.3235 -0.2373
  128SOPE    HS13721   5.424   2.937   2.531 -0.4657 -0.7488  0.3489
  128SOPE   O2113722   5.587   2.816   2.504 -0.2267  0.7616 -0.1679
  128SOPE   C2113723   5.647   2.873   2.604 -0.6496 -0.6672 -0.0558
  128SOPE   O2213724   5.607   2.969   2.668  0.6778 -0.0870 -0.5015
  128SOPE   C2213725   5.785   2.807   2.621  0.5922  0.0936  0.9160
  128SOPE   H2R13726   5.865   2.866   2.571 -0.0248 -0.2675 -0.5647
  128SOPE   H2S13727   5.777   2.705   2.579 -0.2587  0.3499  0.4311
  128SOPE    C313728   5.373   2.731   2.595 -0.0467 -0.0290 -0.1137
  128SOPE    HX13729   5.429   2.735   2.691  3.7732 -0.6987 -2.0965
  128SOPE    HY13730   5.399   2.636   2.543  1.9447 -0.1613  1.0059
  128SOPE   O3113731   5.227   2.751   2.605  0.4378  0.0823 -0.5183
  128SOPE   C3113732   5.180   2.831   2.697 -0.5675  0.4059  0.1615
  128SOPE   O3213733   5.252   2.882   2.783  0.3248 -0.1604  0.2373
  128SOPE   C3213734   5.030   2.846   2.679 -0.9963  0.0542  0.3400
  128SOPE   H2X13735   4.985   2.750   2.709 -0.3473 -0.3919 -0.0857
  128SOPE   H2Y13736   5.035   2.858   2.568 -0.6135 -1.7752  0.1301
  128SOPE   C2313737   5.828   2.790   2.769 -0.8004 -0.2947  0.1947
  128SOPE   H3R13738   5.825   2.878   2.837  1.4703 -1.5701  2.1591
  128SOPE   H3S13739   5.934   2.756   2.758 -0.9800 -0.0007 -3.7008
  128SOPE   C2413740   5.748   2.690   2.848  0.7062  0.4287 -0.2592
  128SOPE   H4R13741   5.639   2.712   2.842  0.1033 -2.3163 -0.6894
  128SOPE   H4S13742   5.771   2.592   2.802  1.8177  0.0546  1.0422
  128SOPE   C2513743   5.776   2.690   2.996 -0.9799  0.0349 -0.4143
  128SOPE   H5R13744   5.882   2.657   3.006 -1.9486 -3.1089  0.8478
  128SOPE   H5S13745   5.770   2.795   3.030  0.3376 -0.0800  0.2270
  128SOPE   C2613746   5.678   2.588   3.056 -0.6010 -0.2871 -0.3937
  128SOPE   H6R13747   5.580   2.638   3.064 -0.0639  0.5393  2.1196
  128SOPE   H6S13748   5.664   2.496   2.996  0.3545  0.2017 -1.3958
  128SOPE   C2713749   5.717   2.529   3.194 -0.8244  0.8668  0.6930
  128SOPE   H7R13750   5.649   2.445   3.220 -0.4941 -0.2036 -1.5489
  128SOPE   H7S13751   5.809   2.473   3.165 -2.2187 -0.3714 -1.6851
  128SOPE   C2813752   5.745   2.633   3.305  0.6551 -0.2382  0.7021
  128SOPE   H8R13753   5.796   2.597   3.397 -1.5469 -3.7121  0.7433
  128SOPE   H8S13754   5.804   2.715   3.258 -2.2067  2.5881  1.7406
  128SOPE   C2913755   5.612   2.685   3.348 -0.0144  0.0003  0.2046
  128SOPE   H9113756   5.544   2.709   3.265  0.2478  1.4637  0.3909
  128SOPE  C21013757   5.569   2.675   3.473 -0.0667 -0.1224 -0.6226
  128SOPE  H10113758   5.460   2.675   3.491  0.1979 -2.3609  1.7049
  128SOPE  C21113759   5.635   2.630   3.604  1.2329  0.2443 -0.2628
  128SOPE  H11R13760   5.745   2.650   3.606  1.9413 -3.1462  1.0823
  128SOPE  H11S13761   5.627   2.520   3.613 -2.0263  0.4956  0.9711
  128SOPE  C21213762   5.560   2.686   3.728 -0.4572  0.1186  0.6865
  128SOPE  H12R13763   5.451   2.665   3.727 -0.2791 -0.9076 -0.8040
  128SOPE  H12S13764   5.582   2.795   3.729 -0.1316  0.1155 -1.5644
  128SOPE  C21313765   5.618   2.633   3.861  0.3988  0.2387  0.0414
  128SOPE  H13R13766   5.727   2.653   3.872  1.0574 -2.2850 -1.1092
  128SOPE  H13S13767   5.615   2.522   3.863 -2.2438  0.2496  2.1772
  128SOPE  C21413768   5.531   2.667   3.978 -0.7764 -0.3198 -0.2326
  128SOPE  H14R13769   5.429   2.622   3.972 -0.0201 -2.3387  0.8976
  128SOPE  H14S13770   5.514   2.777   3.982  0.0628 -0.2240  1.3427
  128SOPE  C21513771   5.595   2.603   4.103 -0.9682 -0.3202  0.0065
  128SOPE  H15R13772   5.702   2.635   4.107 -1.4044  1.1787  3.9167
  128SOPE  H15S13773   5.595   2.493   4.094  1.6369 -0.4130  0.2700
  128SOPE  C21613774   5.525   2.626   4.231 -0.3850  0.6490 -0.0276
  128SOPE  H16R13775   5.564   2.557   4.309  1.0768  0.1518 -1.1497
  128SOPE  H16S13776   5.418   2.600   4.223  0.2295 -1.6496 -2.1240
  128SOPE  C21713777   5.549   2.769   4.289  0.4093  0.2845  0.0751
  128SOPE  H17R13778   5.511   2.764   4.394 -1.6383 -2.1461 -0.6732
  128SOPE  H17S13779   5.491   2.835   4.222 -0.2927 -0.1855  0.2122
  128SOPE  C21813780   5.693   2.824   4.290  0.2404 -0.0562 -0.2112
  128SOPE  H18R13781   5.732   2.820   4.186 -1.1421 -0.8581 -0.7261
  128SOPE  H18S13782   5.758   2.767   4.359  0.9457  0.3820 -0.4990
  128SOPE  H18T13783   5.704   2.928   4.329  0.0515  0.2600 -0.9822
  128SOPE   C3313784   4.981   2.959   2.766 -0.4342  0.4135 -0.1676
  128SOPE   H3X13785   4.886   2.992   2.719 -1.7196 -0.2020  1.8637
  128SOPE   H3Y13786   5.057   3.040   2.766  0.1663 -0.1415 -0.0483
  128SOPE   C3413787   4.959   2.905   2.913  0.2309 -0.6480  0.2283
  128SOPE   H4X13788   5.048   2.857   2.957  0.3952 -0.8443 -0.3184
  128SOPE   H4Y13789   4.875   2.832   2.918  0.3447 -0.7026  1.6755
  128SOPE   C3513790   4.935   3.025   3.000  0.0206 -0.2425 -0.4407
  128SOPE   H5X13791   4.862   3.086   2.944  1.6775 -0.0106 -2.4802
  128SOPE   H5Y13792   5.023   3.093   3.000  0.0982 -0.3403 -1.0196
  128SOPE   C3613793   4.891   2.998   3.139 -0.9824  1.0439 -0.0491
  128SOPE   H6X13794   4.807   2.927   3.154  0.4934 -1.3157 -2.0684
  128SOPE   H6Y13795   4.856   3.096   3.179  1.2446  1.5011  0.9766
  128SOPE   C3713796   5.004   2.972   3.236 -0.4297 -0.3774 -0.0020
  128SOPE   H7X13797   5.068   3.062   3.246 -1.3392  0.0754  2.5820
  128SOPE   H7Y13798   5.070   2.889   3.202  1.0397  0.1088  1.5026
  128SOPE   C3813799   4.956   2.938   3.377 -0.1021  0.1143  0.4481
  128SOPE   H8X13800   4.890   2.848   3.376 -1.1677  0.8298 -2.0291
  128SOPE   H8Y13801   4.898   3.023   3.416 -0.5037 -0.3320  0.8387
  128SOPE   C3913802   5.070   2.904   3.463 -0.4544  1.1830 -0.1807
  128SOPE   H9X13803   5.140   2.989   3.469 -2.0184  2.5188 -0.0872
  128SOPE   H9Y13804   5.128   2.822   3.416  0.9221  3.0334 -1.8719
  128SOPE  C31013805   5.024   2.870   3.605  0.3533  0.7733 -0.1674
  128SOPE  H10X13806   5.105   2.808   3.650  0.5514  1.3737  0.3229
  128SOPE  H10Y13807   4.937   2.801   3.608  2.8122 -2.5390  1.1699
  128SOPE  C31113808   4.999   3.001   3.686 -0.3101  0.3623 -0.8334
  128SOPE  H11X13809   4.995   3.087   3.617 -0.5166 -0.6421 -2.1146
  128SOPE  H11Y13810   5.077   3.036   3.757 -0.0104  0.8494 -1.4046
  128SOPE  C31213811   4.872   3.000   3.773  0.0962  0.3087  0.6958
  128SOPE  H12X13812   4.859   3.099   3.821 -1.5668  0.1413  0.6376
  128SOPE  H12Y13813   4.910   2.923   3.844  0.3393 -2.6613 -2.3624
  128SOPE  C31313814   4.738   2.963   3.716  0.4109  0.3350  0.1900
  128SOPE  H13X13815   4.751   2.857   3.686 -0.8113 -0.1205  1.1606
  128SOPE  H13Y13816   4.719   3.024   3.626  0.5481 -0.7873 -0.6198
  128SOPE  C31413817   4.621   2.962   3.815 -0.6195 -0.2937  0.0919
  128SOPE  H14X13818   4.610   3.058   3.869  0.8386 -0.1298  0.1234
  128SOPE  H14Y13819   4.650   2.890   3.895 -1.8870 -2.5509 -1.3501
  128SOPE  C31513820   4.494   2.928   3.749 -0.7413  0.9319 -0.4343
  128SOPE  H15X13821   4.500   2.827   3.703  1.0630  0.0167  1.6599
  128SOPE  H15Y13822   4.474   2.999   3.666 -1.6029 -0.8865 -1.8805
  128SOPE  C31613823   4.374   2.933   3.846 -0.4066  0.3637  0.9617
  128SOPE  H16X13824   4.390   2.875   3.940  1.3153  2.4239  2.0342
  128SOPE  H16Y13825   4.286   2.890   3.792  1.1320 -1.8726  0.0971
  128SOPE  C31713826   4.336   3.072   3.896  0.3478  0.2738 -0.5084
  128SOPE  H17X13827   4.427   3.109   3.948 -0.6765  0.5561  1.1518
  128SOPE  H17Y13828   4.251   3.054   3.966 -0.1058 -2.7530 -1.6545
  128SOPE  C31813829   4.288   3.163   3.786  0.0285 -0.2016  0.3299
  128SOPE  H18X13830   4.368   3.197   3.717  0.2321 -0.2042  0.5634
  128SOPE  H18Y13831   4.236   3.251   3.830 -0.8206 -1.4421  1.9138
  128SOPE  H18Z13832   4.210   3.110   3.728  0.1763  0.6932 -0.7146
  129OSM      N13833   2.048   1.411   6.807  0.2850  0.1219  0.5998
  129OSM    C1513834   2.106   1.496   6.709 -0.5198 -0.4734 -0.6995
  129OSM   H15A13835   2.083   1.597   6.742  0.0433 -1.2255  2.2455
  129OSM   H15B13836   2.066   1.474   6.611 -0.0230 -0.4794 -0.9037
  129OSM   H15C13837   2.214   1.491   6.709 -0.4393  0.7250  0.3217
  129OSM    C1413838   2.157   1.316   6.854  0.7011  0.0254  0.5560
  129OSM   H14A13839   2.129   1.238   6.923  0.9425 -1.7373 -1.2423
  129OSM   H14B13840   2.228   1.377   6.909  0.3093  0.8929  0.1181
  129OSM   H14C13841   2.201   1.265   6.770  0.2677 -1.7826  1.3838
  129OSM    C1313842   2.007   1.494   6.916  0.2727  0.8886 -0.6636
  129OSM   H13A13843   1.990   1.427   6.999  1.9602  0.2335 -0.8099
  129OSM   H13B13844   1.918   1.553   6.897  0.3122  0.5593 -1.9105
  129OSM   H13C13845   2.088   1.561   6.942  1.2054  0.4213 -2.2896
  129OSM    C1213846   1.925   1.337   6.758  0.4060  0.0006 -0.2975
  129OSM   H12A13847   1.903   1.255   6.824  2.6717  0.2632  0.8851
  129OSM   H12B13848   1.948   1.281   6.669  0.3804 -0.2842 -0.1239
  129OSM    C1113849   1.803   1.426   6.728 -0.4074  0.4300 -0.7952
  129OSM   H11A13850   1.848   1.511   6.672  1.3165  0.3712  0.4068
  129OSM   H11B13851   1.756   1.468   6.820 -1.7529 -1.5441 -0.5291
  129OSM      P13852   1.580   1.288   6.703 -0.2126 -0.1414  0.4613
  129OSM    O1313853   1.603   1.151   6.756  0.2682  0.5628  0.0068
  129OSM    O1413854   1.517   1.395   6.782  0.2557 -0.0402  0.0973
  129OSM    O1113855   1.504   1.266   6.569  0.1811  0.9737 -0.1270
  129OSM    O1213856   1.714   1.347   6.652 -0.3619 -0.4665 -0.4447
  129OSM    C1S13857   1.519   1.327   6.440 -0.1555  0.9157 -0.7066
  129OSM    H1S13858   1.601   1.402   6.429  0.0634  0.6671 -0.7956
  129OSM    H1T13859   1.430   1.390   6.421 -2.2025 -1.2115  1.1358
  129OSM     NF13860   1.523   1.276   6.180  0.4864 -0.4421  0.1999
  129OSM    HNF13861   1.440   1.254   6.129 -0.0668 -1.7279  1.5777
  129OSM    C2S13862   1.531   1.220   6.316  0.1474 -0.3921 -0.5209
  129OSM    H2S13863   1.628   1.169   6.331 -0.0948 -1.6697 -2.8816
  129OSM    C3S13864   1.428   1.105   6.332 -0.4210 -0.3673  0.4889
  129OSM    H3S13865   1.323   1.141   6.334 -0.3411  0.1244 -1.8417
  129OSM     O313866   1.435   1.034   6.454 -0.4854 -0.7581  0.2105
  129OSM    HO313867   1.489   1.085   6.514  0.8585 -1.8231 -0.0566
  129OSM    C4S13868   1.439   1.016   6.209 -0.2726  0.1669 -0.6977
  129OSM    H4S13869   1.370   1.048   6.130  0.9098  2.3106 -0.9408
  129OSM    C5S13870   1.500   0.897   6.202  0.6413 -0.4735 -0.0638
  129OSM    H5S13871   1.547   0.862   6.295  3.4029  1.5342 -0.6111
  129OSM    C6S13872   1.516   0.801   6.081 -0.3272  0.2277  0.1479
  129OSM    H6S13873   1.492   0.697   6.111  1.3081 -0.1875  0.0684
  129OSM    H6T13874   1.622   0.784   6.053 -0.1370  1.0481  0.3303
  129OSM    C7S13875   1.434   0.849   5.956 -0.0566  0.4773  0.0772
  129OSM    H7S13876   1.441   0.957   5.932  0.0529  1.0782  2.5080
  129OSM    H7T13877   1.330   0.821   5.981  0.5872 -0.6835  1.6607
  129OSM    C8S13878   1.452   0.769   5.827 -0.0950  0.2907  0.6145
  129OSM    H8S13879   1.422   0.662   5.837  2.8750 -0.5751  1.2235
  129OSM    H8T13880   1.560   0.777   5.804  0.3124 -0.1155  2.2376
  129OSM    C9S13881   1.375   0.826   5.710  0.5044 -0.2320  0.7532
  129OSM    H9S13882   1.403   0.933   5.714 -1.4552  0.4181 -0.8992
  129OSM    H9T13883   1.264   0.817   5.716  0.2258  0.7932 -1.7545
  129OSM   C10S13884   1.410   0.771   5.568 -0.3487 -0.5898  0.7353
  129OSM   H10S13885   1.380   0.664   5.565 -1.3084 -0.2983 -0.9993
  129OSM   H10T13886   1.520   0.775   5.553 -0.3874 -2.4166 -0.4272
  129OSM   C11S13887   1.331   0.831   5.451  0.0685 -0.1573  0.0620
  129OSM   H11S13888   1.354   0.940   5.448 -0.1296 -0.1010  0.5524
  129OSM   H11T13889   1.223   0.807   5.463  0.7999 -2.4024  3.7478
  129OSM   C12S13890   1.375   0.766   5.315  0.1952  0.1906 -0.5281
  129OSM   H12S13891   1.365   0.657   5.333  1.9315  0.0372 -0.3535
  129OSM   H12T13892   1.484   0.774   5.299  0.0130 -0.3880 -2.1884
  129OSM   C13S13893   1.282   0.799   5.195 -0.2068 -0.6456  0.3015
  129OSM   H13S13894   1.273   0.909   5.187 -0.0185 -0.6563 -0.1137
  129OSM   H13T13895   1.178   0.771   5.221 -0.1125 -1.5258 -0.2085
  129OSM   C14S13896   1.318   0.737   5.062  0.1179 -0.2425  0.4491
  129OSM   H14S13897   1.347   0.631   5.076 -0.7971 -0.5336  0.2129
  129OSM   H14T13898   1.411   0.784   5.026  1.4249 -3.3206 -0.5479
  129OSM   C15S13899   1.207   0.758   4.957 -0.2451  0.0347  0.0753
  129OSM   H15S13900   1.168   0.861   4.950 -1.4045 -0.3767  0.3178
  129OSM   H15T13901   1.125   0.695   4.997  1.2640 -2.2990 -0.2788
  129OSM   C16S13902   1.249   0.705   4.819  0.8682 -0.0333 -0.2433
  129OSM   H16S13903   1.227   0.596   4.821 -2.5230  0.5433  0.7244
  129OSM   H16T13904   1.359   0.718   4.813  1.1307 -2.0211 -0.4656
  129OSM   C17S13905   1.176   0.772   4.702  0.6965 -0.4956  0.5230
  129OSM   H17S13906   1.191   0.881   4.717 -2.0498  0.0356 -0.0411
  129OSM   H17T13907   1.068   0.751   4.720  0.2587  1.0916 -0.0753
  129OSM   C18S13908   1.221   0.731   4.562  0.2192  0.1625  0.4583
  129OSM   H18S13909   1.211   0.806   4.480 -2.4791 -2.1556 -1.5239
  129OSM   H18T13910   1.168   0.638   4.531 -1.3125  0.7312  1.2437
  129OSM   H18U13911   1.329   0.708   4.560  0.3207  0.6616  0.0126
  129OSM    C1F13912   1.622   1.352   6.134  0.2173 -0.3271 -1.1227
  129OSM     OF13913   1.720   1.370   6.204  0.5668 -0.1040  0.3035
  129OSM    C2F13914   1.614   1.398   5.995  0.1352  0.8122  0.3431
  129OSM    H2F13915   1.517   1.447   5.973  0.6784  1.6923 -0.1524
  129OSM    H2G13916   1.626   1.311   5.928 -0.9847  1.3046 -0.5227
  129OSM    C3F13917   1.717   1.503   5.956 -0.8002 -0.6570 -0.3876
  129OSM    H3F13918   1.820   1.464   5.966 -1.1206 -1.1439  1.2973
  129OSM    H3G13919   1.713   1.583   6.033 -0.0296  0.7537 -1.7785
  129OSM    C4F13920   1.709   1.542   5.806 -0.2545 -0.1348 -0.5346
  129OSM    H4F13921   1.709   1.446   5.749 -2.1522 -0.6137  0.1805
  129OSM    H4G13922   1.807   1.591   5.790  0.2158 -0.9900 -0.3600
  129OSM    C5F13923   1.597   1.629   5.771 -0.4674  0.2048 -0.1669
  129OSM    H5F13924   1.603   1.716   5.840 -1.0597  0.3389 -0.2795
  129OSM    H5G13925   1.505   1.577   5.805  0.8663 -0.7748  2.2095
  129OSM    C6F13926   1.608   1.675   5.624 -0.0737  0.4620 -0.3138
  129OSM    H6F13927   1.588   1.587   5.559 -0.6216  0.7411 -0.5280
  129OSM    H6G13928   1.710   1.712   5.601 -0.2655  1.0031 -0.3061
  129OSM    C7F13929   1.498   1.778   5.583  0.8406  0.2478 -0.1583
  129OSM    H7F13930   1.399   1.753   5.628  0.0418  2.0819 -0.8109
  129OSM    H7G13931   1.494   1.775   5.472  3.5211  1.7564 -0.3587
  129OSM    C8F13932   1.536   1.914   5.634 -0.3665  0.0997  0.1422
  129OSM    H8F13933   1.641   1.943   5.613 -0.4395 -0.8600 -1.7277
  129OSM    H8G13934   1.522   1.923   5.744  2.1178  0.1497  0.5153
  129OSM    C9F13935   1.435   2.008   5.575 -0.3687  0.1837  0.1534
  129OSM    H9F13936   1.341   2.009   5.632 -3.4208 -0.3453 -4.4061
  129OSM   C10F13937   1.447   2.105   5.478 -0.2404  0.5168  0.1061
  129OSM   H10F13938   1.364   2.167   5.444  0.3834  0.5978 -1.3192
  129OSM   C11F13939   1.577   2.109   5.404  0.0935  0.0293  0.2651
  129OSM   H11F13940   1.663   2.056   5.450  0.8889  2.0004  1.1944
  129OSM   H11G13941   1.613   2.214   5.414 -1.5944  0.4298  3.4369
  129OSM   C12F13942   1.564   2.064   5.263  0.4368  0.3776 -0.2024
  129OSM   H12F13943   1.654   2.097   5.208  0.4044  2.8440  1.1113
  129OSM   H12G13944   1.476   2.114   5.218  0.5705 -0.1182 -1.0444
  129OSM   C13F13945   1.535   1.907   5.244  0.2843  0.2596 -0.6670
  129OSM   H13F13946   1.437   1.882   5.288  0.7746 -3.1970 -1.3072
  129OSM   H13G13947   1.614   1.855   5.302  0.1098 -0.4321 -1.0504
  129OSM   C14F13948   1.533   1.863   5.093 -0.0999  0.1208  0.0922
  129OSM   H14F13949   1.633   1.866   5.046 -0.4312 -1.4753 -0.7794
  129OSM   H14G13950   1.466   1.933   5.038 -3.4288 -2.4820  0.4374
  129OSM   C15F13951   1.464   1.726   5.075  0.3905  0.1325  0.0098
  129OSM   H15F13952   1.353   1.732   5.077  0.0991 -2.5888 -2.0463
  129OSM   H15G13953   1.495   1.670   5.165 -1.3142  2.2249  2.0473
  129OSM   C16F13954   1.502   1.646   4.946 -0.1963  0.2462  0.3978
  129OSM   H16F13955   1.458   1.544   4.942 -1.9526  0.9796 -1.1570
  129OSM   H16G13956   1.612   1.636   4.942  0.1494  3.0340  0.8239
  129OSM   C17F13957   1.468   1.721   4.815  0.1602  0.1405 -0.3016
  129OSM   H17F13958   1.522   1.818   4.827  0.9336 -0.4288  1.1374
  129OSM   H17G13959   1.358   1.735   4.807 -0.3777 -1.7421  2.3923
  129OSM   C18F13960   1.514   1.652   4.684  0.0207  0.8404 -0.4115
  129OSM   H18F13961   1.484   1.716   4.598 -2.9436 -1.4612 -1.2910
  129OSM   H18G13962   1.484   1.546   4.665  1.5830  0.4777 -0.9655
  129OSM   H18H13963   1.624   1.661   4.686  0.2226 -1.2755  0.5553
  130OSM      N13964   1.189   4.064   6.711  0.8266  0.7198 -0.1651
  130OSM    C1513965   1.053   4.001   6.741 -0.1907 -0.4963  0.7355
  130OSM   H15A13966   1.060   3.894   6.730  1.0103 -0.5353  1.7033
  130OSM   H15B13967   0.979   4.038   6.671  0.6711  0.0973  0.1138
  130OSM   H15C13968   1.027   4.021   6.843  0.2048  0.1384  0.7123
  130OSM    C1413969   1.174   4.209   6.722 -0.2896 -0.4332 -1.0083
  130OSM   H14A13970   1.258   4.275   6.705  0.3418 -1.5970 -2.5769
  130OSM   H14B13971   1.123   4.232   6.815  1.2973  1.8520 -0.6109
  130OSM   H14C13972   1.107   4.249   6.647  2.2249  0.5032 -2.8788
  130OSM    C1313973   1.293   4.018   6.811 -0.3636 -0.2531 -1.1244
  130OSM   H13A13974   1.278   4.051   6.912  3.6956 -0.6221 -0.2261
  130OSM   H13B13975   1.393   4.042   6.778 -0.8223  1.0168 -1.6710
  130OSM   H13C13976   1.317   3.913   6.811  0.2239 -0.1266 -0.5546
  130OSM    C1213977   1.234   4.034   6.568  0.7164 -0.2379  1.1323
  130OSM   H12A13978   1.328   4.085   6.553  0.4304  0.4370  1.5778
  130OSM   H12B13979   1.161   4.066   6.495 -0.1364 -0.4655  1.8611
  130OSM    C1113980   1.271   3.890   6.540 -0.3284  0.2376 -0.0395
  130OSM   H11A13981   1.287   3.867   6.432 -1.9359 -1.1279 -0.0239
  130OSM   H11B13982   1.182   3.828   6.564 -1.4599  2.4123  1.7306
  130OSM      P13983   1.531   3.877   6.586  0.1036  0.1022  0.3401
  130OSM    O1313984   1.552   4.017   6.622 -0.3523 -0.6073 -0.1852
  130OSM    O1413985   1.610   3.772   6.652 -0.7499  0.6830  0.0924
  130OSM    O1113986   1.535   3.865   6.430 -0.1014  0.3210 -0.2397
  130OSM    O1213987   1.385   3.840   6.619  0.7169 -0.3624 -0.2000
  130OSM    C1S13988   1.657   3.833   6.359  0.5316  1.5318  0.1922
  130OSM    H1S13989   1.689   3.727   6.364 -0.0149  1.2717 -1.2649
  130OSM    H1T13990   1.749   3.886   6.392  1.4123  0.5959 -0.6622
  130OSM     NF13991   1.779   3.828   6.139  0.5582 -0.3667 -0.3077
  130OSM    HNF13992   1.799   3.903   6.077  0.3516  0.9184  1.1019
  130OSM    C2S13993   1.649   3.837   6.195 -0.9282  0.1878 -0.5468
  130OSM    H2S13994   1.600   3.744   6.160  1.0427  0.0491 -3.2540
  130OSM    C3S13995   1.568   3.957   6.133 -0.2378  0.7285 -0.0808
  130OSM    H3S13996   1.636   4.044   6.144  1.3722 -0.7441  2.7212
  130OSM     O313997   1.456   3.997   6.217  0.4808 -0.0765 -0.0997
  130OSM    HO313998   1.478   3.959   6.302  1.5059  2.8849  1.0813
  130OSM    C4S13999   1.537   3.925   5.988  0.2122 -0.0065  0.4710
  130OSM    H4S14000   1.619   3.953   5.920 -0.0193 -0.1300  0.1441
  130OSM    C5S14001   1.423   3.885   5.934  0.1284  0.0971  0.3520
  130OSM    H5S14002   1.336   3.870   6.000  2.3967 -0.1953  3.5506
  130OSM    C6S14003   1.404   3.882   5.784  0.0688  0.3459  0.1692
  130OSM    H6S14004   1.347   3.969   5.745  1.5587  0.4416 -1.9219
  130OSM    H6T14005   1.343   3.790   5.765 -0.9671  0.8269  1.0779
  130OSM    C7S14006   1.541   3.851   5.708 -0.0420 -0.1080  0.6005
  130OSM    H7S14007   1.593   3.761   5.747  0.8396  0.5325  0.9321
  130OSM    H7T14008   1.612   3.936   5.716  0.1912 -0.0520 -1.3936
  130OSM    C8S14009   1.525   3.829   5.549 -0.5292  0.0712  0.0051
  130OSM    H8S14010   1.468   3.734   5.535 -0.4663 -0.0225  0.3668
  130OSM    H8T14011   1.621   3.814   5.496 -1.4165 -0.4947 -1.5168
  130OSM    C9S14012   1.440   3.936   5.480  1.1524 -0.0566  0.2700
  130OSM    H9S14013   1.436   4.024   5.548 -1.2074  1.3391 -1.5268
  130OSM    H9T14014   1.337   3.898   5.468  1.2265  0.4249 -2.6560
  130OSM   C10S14015   1.494   3.984   5.346  0.0450 -0.1292  0.7502
  130OSM   H10S14016   1.589   4.042   5.351 -0.4712  0.7435  0.7656
  130OSM   H10T14017   1.419   4.055   5.305 -0.2096 -1.3435 -0.9784
  130OSM   C11S14018   1.502   3.868   5.246  0.0165  0.1570  0.4300
  130OSM   H11S14019   1.399   3.830   5.229  0.6866 -0.4576 -2.8419
  130OSM   H11T14020   1.563   3.784   5.287  0.0438  0.5001  1.1059
  130OSM   C12S14021   1.564   3.921   5.109  0.5200  0.2274 -0.3393
  130OSM   H12S14022   1.659   3.976   5.119  1.3126 -1.0516 -0.5673
  130OSM   H12T14023   1.486   3.993   5.077 -0.9799 -0.7368  0.9372
  130OSM   C13S14024   1.596   3.806   5.013 -0.3763 -0.8301  0.1885
  130OSM   H13S14025   1.498   3.772   4.972 -0.3668  0.0484 -0.5784
  130OSM   H13T14026   1.652   3.735   5.078  1.2514  1.1462  1.0600
  130OSM   C14S14027   1.678   3.853   4.886 -0.1661  0.0901 -0.5708
  130OSM   H14S14028   1.676   3.768   4.814 -0.0653 -0.6622  0.3014
  130OSM   H14T14029   1.788   3.850   4.904 -0.1114  1.3103 -0.5863
  130OSM   C15S14030   1.642   3.980   4.812 -0.0926 -0.0501 -0.2902
  130OSM   H15S14031   1.672   4.066   4.875 -0.4724  1.8050 -2.4798
  130OSM   H15T14032   1.532   3.986   4.800 -0.1119 -1.8946 -1.3797
  130OSM   C16S14033   1.723   3.996   4.689  0.2882  0.0476 -0.1139
  130OSM   H16S14034   1.685   3.942   4.600  0.8817 -0.7406  0.1017
  130OSM   H16T14035   1.824   3.952   4.702  1.2657  1.9935 -0.8423
  130OSM   C17S14036   1.752   4.149   4.650 -0.3102 -0.1190 -0.3276
  130OSM   H17S14037   1.777   4.210   4.739 -0.7944 -1.3069  0.6669
  130OSM   H17T14038   1.661   4.194   4.605 -0.1217  0.0125 -0.5779
  130OSM   C18S14039   1.870   4.144   4.552  0.2927 -1.0193  0.6226
  130OSM   H18S14040   1.960   4.096   4.595  2.5692  0.0884 -2.5510
  130OSM   H18T14041   1.900   4.247   4.522 -0.2307 -1.4449 -1.4732
  130OSM   H18U14042   1.831   4.084   4.468  0.2472 -0.8393  0.5152
  130OSM    C1F14043   1.863   3.729   6.143 -0.7305  0.3025  0.3885
  130OSM     OF14044   1.835   3.624   6.197 -0.2637  0.3378  0.2583
  130OSM    C2F14045   1.989   3.756   6.082 -0.5862  0.6602  0.3286
  130OSM    H2F14046   2.059   3.738   6.166 -0.6203 -1.5740 -0.0761
  130OSM    H2G14047   1.993   3.864   6.055 -1.5790 -0.0787 -3.4993
  130OSM    C3F14048   2.018   3.671   5.953  0.6129  0.6572 -0.0356
  130OSM    H3F14049   1.982   3.567   5.969  2.8657 -0.3376 -1.0692
  130OSM    H3G14050   2.127   3.672   5.933  0.5501 -0.7333 -0.5361
  130OSM    C4F14051   1.952   3.736   5.829 -0.1306  0.2484 -0.3900
  130OSM    H4F14052   1.987   3.841   5.817  0.8009  0.1069  0.8116
  130OSM    H4G14053   1.841   3.729   5.835  0.0468 -2.5046  1.1568
  130OSM    C5F14054   2.001   3.664   5.703  0.4812  0.0390 -0.4655
  130OSM    H5F14055   2.111   3.653   5.694  0.5972 -0.6612  1.4019
  130OSM    H5G14056   1.974   3.728   5.617 -0.6593  0.9387  0.5249
  130OSM    C6F14057   1.939   3.527   5.668  0.2452 -0.1918 -0.0432
  130OSM    H6F14058   1.830   3.544   5.683 -0.1360 -1.0323 -1.6936
  130OSM    H6G14059   1.980   3.463   5.749 -0.5007 -0.5231  0.0786
  130OSM    C7F14060   1.955   3.490   5.526  0.2105 -0.4805 -0.5555
  130OSM    H7F14061   2.057   3.456   5.498 -0.3140 -2.9061  0.2571
  130OSM    H7G14062   1.944   3.578   5.459  0.7556 -0.3168 -0.4398
  130OSM    C8F14063   1.848   3.391   5.486  0.0741  0.7115 -0.0048
  130OSM    H8F14064   1.755   3.446   5.510 -0.2710  0.1839 -0.1314
  130OSM    H8G14065   1.846   3.296   5.543 -1.4647  0.8260  0.1525
  130OSM    C9F14066   1.855   3.360   5.338  0.1173 -0.9838  0.3679
  130OSM    H9F14067   1.952   3.314   5.312  1.0731  0.6644  0.8790
  130OSM   C10F14068   1.772   3.404   5.237  0.0731 -0.5766  0.0269
  130OSM   H10F14069   1.796   3.383   5.132 -0.1955  1.0590 -0.3962
  130OSM   C11F14070   1.642   3.481   5.240 -0.4289  0.0414 -0.4114
  130OSM   H11F14071   1.647   3.568   5.172  2.2127 -1.8758 -2.8856
  130OSM   H11G14072   1.618   3.517   5.343 -0.7466  0.9478 -0.7949
  130OSM   C12F14073   1.526   3.391   5.190  0.1971  0.1331  0.0905
  130OSM   H12F14074   1.430   3.447   5.190 -0.4282 -0.9019  0.4511
  130OSM   H12G14075   1.516   3.312   5.268 -1.1878  0.4672  0.2819
  130OSM   C13F14076   1.543   3.337   5.056 -0.0796  0.8023 -0.8153
  130OSM   H13F14077   1.446   3.295   5.020 -0.0267  0.5339 -0.6473
  130OSM   H13G14078   1.607   3.246   5.050 -0.9446 -0.4171  3.9146
  130OSM   C14F14079   1.570   3.441   4.944  0.0285 -0.0841  0.5077
  130OSM   H14F14080   1.676   3.472   4.949  0.1324 -0.6076  1.9839
  130OSM   H14G14081   1.519   3.536   4.970  1.0529 -0.0945  2.7721
  130OSM   C15F14082   1.517   3.398   4.807 -0.8098 -0.3659  0.1221
  130OSM   H15F14083   1.423   3.342   4.824  0.2557 -1.8713  1.2639
  130OSM   H15G14084   1.591   3.328   4.764 -1.0289  1.4719 -3.6768
  130OSM   C16F14085   1.507   3.497   4.697  0.0796 -0.2056 -0.6044
  130OSM   H16F14086   1.598   3.497   4.633 -0.2364 -0.1182 -1.0647
  130OSM   H16G14087   1.484   3.595   4.743  0.5877 -0.6891  0.7100
  130OSM   C17F14088   1.381   3.481   4.603  0.2775 -1.0650  0.0283
  130OSM   H17F14089   1.394   3.550   4.518 -2.1890  0.8248  1.0548
  130OSM   H17G14090   1.286   3.505   4.657  1.5725  0.7877  1.6078
  130OSM   C18F14091   1.371   3.346   4.529  0.2176 -0.3527 -0.1930
  130OSM   H18F14092   1.353   3.260   4.597 -2.2921  1.8490  2.2128
  130OSM   H18G14093   1.464   3.341   4.468  1.1182  0.5939  1.0441
  130OSM   H18H14094   1.281   3.343   4.464  0.2510 -0.4077 -0.2377
  131OSM      N14095   2.809   0.558   5.935  0.3586 -0.9185  0.3993
  131OSM    C1514096   2.827   0.638   6.064 -0.4661 -0.7908  0.0259
  131OSM   H15A14097   2.743   0.629   6.132 -1.3690  0.5144 -0.8662
  131OSM   H15B14098   2.828   0.744   6.045  0.2480 -0.1509  3.0144
  131OSM   H15C14099   2.917   0.605   6.114 -0.4847 -1.6639 -0.4961
  131OSM    C1414100   2.912   0.581   5.846 -0.5632 -0.7840 -0.0889
  131OSM   H14A14101   2.927   0.681   5.809  2.2936 -0.5671  1.3704
  131OSM   H14B14102   2.911   0.509   5.766 -1.3333 -0.6147 -0.2380
  131OSM   H14C14103   3.011   0.574   5.890 -0.9610 -0.1361  0.9463
  131OSM    C1314104   2.822   0.414   5.983  0.7919 -0.3186  0.4455
  131OSM   H13A14105   2.761   0.404   6.072  0.5551  2.3681  0.6604
  131OSM   H13B14106   2.926   0.398   6.008  0.8452 -0.4841  0.1141
  131OSM   H13C14107   2.797   0.342   5.907  1.5119  0.3012 -0.3997
  131OSM    C1214108   2.665   0.580   5.877  0.4256 -0.1747  0.4215
  131OSM   H12A14109   2.595   0.554   5.954  0.9577  2.0034  1.7435
  131OSM   H12B14110   2.652   0.508   5.797 -0.4516 -0.0702  0.4602
  131OSM    C1114111   2.625   0.724   5.838  0.3807  0.4906  0.6681
  131OSM   H11A14112   2.527   0.715   5.786  0.7584 -2.2707  0.2960
  131OSM   H11B14113   2.693   0.764   5.760 -0.0464 -0.7791 -0.4016
  131OSM      P14114   2.506   0.826   6.046  0.6038 -0.6357  0.1216
  131OSM    O1314115   2.544   0.798   6.186 -0.1553  0.0894  0.4244
  131OSM    O1414116   2.448   0.961   6.020 -0.1014 -0.1216 -0.1430
  131OSM    O1114117   2.407   0.715   5.997  0.2825 -0.7532  0.2557
  131OSM    O1214118   2.630   0.806   5.954 -0.5723  0.6937  0.5074
  131OSM    C1S14119   2.281   0.693   6.058  0.7988 -0.0052 -0.0067
  131OSM    H1S14120   2.263   0.744   6.155 -0.1759  2.1486 -1.2315
  131OSM    H1T14121   2.272   0.584   6.076  2.2300 -0.0203  0.7665
  131OSM     NF14122   2.045   0.763   6.053  0.4959  0.2118  0.0904
  131OSM    HNF14123   1.970   0.699   6.062 -1.5281  2.6770  2.7170
  131OSM    C2S14124   2.162   0.729   5.971 -0.2516 -0.3814  0.3764
  131OSM    H2S14125   2.198   0.819   5.918  1.0332 -0.8678  0.3814
  131OSM    C3S14126   2.148   0.618   5.871  0.1300 -0.3479  0.1135
  131OSM    H3S14127   2.097   0.538   5.929  0.6306 -0.7311  0.0364
  131OSM     O314128   2.267   0.556   5.827  0.3867 -0.5491 -0.4961
  131OSM    HO314129   2.327   0.604   5.884 -0.5793  1.8480 -1.3781
  131OSM    C4S14130   2.064   0.663   5.747  0.0964  0.3114 -0.4560
  131OSM    H4S14131   1.956   0.662   5.768 -0.0009 -0.7508 -0.9521
  131OSM    C5S14132   2.109   0.710   5.623  0.2986  0.7906  0.1994
  131OSM    H5S14133   2.217   0.708   5.601  0.2786  1.2731  0.0583
  131OSM    C6S14134   2.023   0.752   5.504  0.0636 -0.0455 -0.5354
  131OSM    H6S14135   2.057   0.693   5.416 -0.3464 -1.8639  0.4712
  131OSM    H6T14136   2.039   0.860   5.484  0.4420  0.2513  1.1928
  131OSM    C7S14137   1.872   0.727   5.522 -0.2021 -0.2293  0.1745
  131OSM    H7S14138   1.838   0.777   5.614  0.6524  0.9113 -0.1143
  131OSM    H7T14139   1.849   0.618   5.517 -0.0740 -0.2575  0.1978
  131OSM    C8S14140   1.794   0.774   5.396 -0.0586 -0.3303 -0.0795
  131OSM    H8S14141   1.789   0.885   5.404 -0.6873 -0.4130  0.8900
  131OSM    H8T14142   1.685   0.752   5.408  0.0836 -1.5865 -0.9058
  131OSM    C9S14143   1.847   0.740   5.254  0.1508  0.4350 -0.0606
  131OSM    H9S14144   1.844   0.629   5.244 -0.2031  0.4869 -0.6231
  131OSM    H9T14145   1.953   0.769   5.238 -0.1844  0.9675 -1.4411
  131OSM   C10S14146   1.752   0.796   5.142  0.1140  0.9664  0.1868
  131OSM   H10S14147   1.760   0.907   5.144 -0.1308  0.9756  0.9977
  131OSM   H10T14148   1.646   0.785   5.174  1.2179 -1.9179  3.3554
  131OSM   C11S14149   1.781   0.750   4.999  0.6739  0.1062 -0.0120
  131OSM   H11S14150   1.782   0.639   4.995 -0.6857 -0.0011  1.5697
  131OSM   H11T14151   1.887   0.775   4.980  0.7308 -0.0897  0.0480
  131OSM   C12S14152   1.702   0.817   4.893 -0.3704 -0.3290  0.6099
  131OSM   H12S14153   1.736   0.923   4.891  1.2204 -0.8181 -0.6175
  131OSM   H12T14154   1.594   0.813   4.916 -0.4804 -0.0530  0.1728
  131OSM   C13S14155   1.708   0.765   4.747  0.7296  0.6290  0.5634
  131OSM   H13S14156   1.679   0.658   4.740 -0.0929  0.8816 -0.0019
  131OSM   H13T14157   1.813   0.768   4.711 -0.0977 -1.8812 -2.6175
  131OSM   C14S14158   1.614   0.842   4.652 -0.1699 -0.6410  0.2570
  131OSM   H14S14159   1.634   0.951   4.666  1.8546 -0.7780 -1.0812
  131OSM   H14T14160   1.504   0.834   4.663 -0.5758  0.0061 -2.5050
  131OSM   C15S14161   1.657   0.818   4.503  0.2871  0.5940 -0.6455
  131OSM   H15S14162   1.656   0.707   4.495 -2.8380  0.1582  2.7161
  131OSM   H15T14163   1.759   0.857   4.484  0.1901  0.4697 -1.4595
  131OSM   C16S14164   1.560   0.881   4.412 -0.0863 -0.1664  1.2015
  131OSM   H16S14165   1.539   0.985   4.446 -0.5002  0.8619 -1.8856
  131OSM   H16T14166   1.460   0.834   4.421 -0.5383  0.7901  1.2580
  131OSM   C17S14167   1.603   0.896   4.261  0.0732  0.1161  0.5990
  131OSM   H17S14168   1.590   0.799   4.209 -0.1157 -0.0378  0.9334
  131OSM   H17T14169   1.707   0.934   4.267 -0.4657  1.5512  1.1768
  131OSM   C18S14170   1.523   0.995   4.187  0.0121  0.2402  0.1757
  131OSM   H18S14171   1.528   1.094   4.238 -0.9182 -0.1078  0.9855
  131OSM   H18T14172   1.419   0.962   4.168  0.2041  0.1260 -0.6978
  131OSM   H18U14173   1.569   1.016   4.088 -0.5262 -1.4254 -0.4500
  131OSM    C1F14174   2.029   0.865   6.132  0.1869 -0.3287 -0.7238
  131OSM     OF14175   2.122   0.935   6.158 -0.4092 -0.4120  0.1701
  131OSM    C2F14176   1.900   0.890   6.185  0.0766  0.7726  0.7154
  131OSM    H2F14177   1.903   0.897   6.296 -0.1512  1.1646  0.6990
  131OSM    H2G14178   1.832   0.806   6.158  0.7422  0.6402 -0.6004
  131OSM    C3F14179   1.839   1.027   6.137  0.0114 -0.4782 -0.3467
  131OSM    H3F14180   1.890   1.113   6.184  0.8581 -0.3480 -1.4472
  131OSM    H3G14181   1.737   1.038   6.179  0.1860 -0.7846  0.1623
  131OSM    C4F14182   1.850   1.052   5.986  0.3485 -0.0962 -0.5033
  131OSM    H4F14183   1.951   1.034   5.943  1.2338  2.9768  0.0880
  131OSM    H4G14184   1.836   1.160   5.967  0.4089 -0.0578 -0.3320
  131OSM    C5F14185   1.745   0.976   5.905  1.2356  0.5899  0.2044
  131OSM    H5F14186   1.648   1.009   5.950  0.6654 -0.7580  0.0030
  131OSM    H5G14187   1.739   0.867   5.926  0.5633  0.5195 -0.2985
  131OSM    C6F14188   1.756   1.003   5.753  1.2149  0.2418  0.3629
  131OSM    H6F14189   1.678   0.938   5.708  1.6859 -1.3129  1.6983
  131OSM    H6G14190   1.848   0.968   5.702  0.5614 -0.5480 -0.3117
  131OSM    C7F14191   1.723   1.143   5.699  0.4065 -0.0992  0.2102
  131OSM    H7F14192   1.795   1.207   5.754 -1.9380  1.7907  1.2744
  131OSM    H7G14193   1.623   1.182   5.729 -1.1891 -1.8189 -2.4430
  131OSM    C8F14194   1.739   1.152   5.546  0.1713  0.3887  0.2178
  131OSM    H8F14195   1.679   1.065   5.511  0.5720 -0.6591  1.9600
  131OSM    H8G14196   1.843   1.121   5.522 -0.8578 -0.6471 -3.5121
  131OSM    C9F14197   1.709   1.288   5.475  0.0693  0.5159 -0.2149
  131OSM    H9F14198   1.746   1.383   5.516 -0.2750  1.6051 -2.3052
  131OSM   C10F14199   1.649   1.287   5.354 -0.6307 -0.1906 -0.3728
  131OSM   H10F14200   1.630   1.383   5.305 -1.7976 -0.0394  0.3561
  131OSM   C11F14201   1.584   1.171   5.277 -0.3510  0.3857 -0.1146
  131OSM   H11F14202   1.479   1.154   5.312  0.2617  0.5163  1.9482
  131OSM   H11G14203   1.643   1.079   5.293 -1.1087  0.0163  0.6419
  131OSM   C12F14204   1.602   1.182   5.129  0.1977 -0.4467  0.0043
  131OSM   H12F14205   1.709   1.169   5.102  1.0010  3.0490  0.9186
  131OSM   H12G14206   1.582   1.286   5.096 -2.1194 -1.1329 -0.9147
  131OSM   C13F14207   1.501   1.105   5.047 -0.2240  0.5972  0.0112
  131OSM   H13F14208   1.398   1.128   5.082 -0.8995  0.6390 -1.9122
  131OSM   H13G14209   1.526   0.998   5.068  1.5191  0.8172 -0.7833
  131OSM   C14F14210   1.502   1.140   4.903  0.8054  0.3822  0.1052
  131OSM   H14F14211   1.600   1.117   4.855  1.6398 -0.5647  2.1346
  131OSM   H14G14212   1.497   1.251   4.896 -0.0341  0.2812 -1.1866
  131OSM   C15F14213   1.383   1.081   4.825 -0.1412 -0.6818  0.6496
  131OSM   H15F14214   1.291   1.108   4.881 -2.1240 -0.3545 -2.4895
  131OSM   H15G14215   1.384   0.972   4.806 -2.3794 -0.7284  0.5179
  131OSM   C16F14216   1.371   1.147   4.680  0.5565  0.4070 -0.8426
  131OSM   H16F14217   1.316   1.071   4.621 -1.1075  0.0050  1.1048
  131OSM   H16G14218   1.476   1.152   4.645  0.8666  1.1318  0.1427
  131OSM   C17F14219   1.291   1.277   4.682  0.0646 -1.3309  0.1902
  131OSM   H17F14220   1.351   1.352   4.738  1.5858 -1.1130 -1.6142
  131OSM   H17G14221   1.194   1.290   4.735 -0.8860 -2.1475 -1.2578
  131OSM   C18F14222   1.268   1.336   4.543 -0.6085  0.3350  0.1095
  131OSM   H18F14223   1.362   1.361   4.489 -0.3016 -0.9320  0.0265
  131OSM   H18G14224   1.214   1.433   4.540 -1.7459 -0.2963 -0.5694
  131OSM   H18H14225   1.219   1.264   4.473 -0.0966 -0.7077  0.7975
  132OSM      N14226   2.944   2.880   6.558  0.1110  0.0618  0.0918
  132OSM    C1514227   2.793   2.890   6.549  0.0153 -0.0322  0.4094
  132OSM   H15A14228   2.740   2.905   6.642 -0.7335 -2.8398  0.5333
  132OSM   H15B14229   2.745   2.796   6.526 -1.8885  0.7693  0.9271
  132OSM   H15C14230   2.767   2.966   6.477  1.7326 -0.7416 -1.0190
  132OSM    C1414231   2.986   2.841   6.419 -0.2613 -0.3463 -0.1805
  132OSM   H14A14232   3.090   2.832   6.391 -0.9644  0.2713 -3.4222
  132OSM   H14B14233   2.958   2.923   6.355  2.2590 -0.9655 -2.2862
  132OSM   H14C14234   2.932   2.754   6.383  1.2274 -0.4266 -2.4420
  132OSM    C1314235   2.997   3.010   6.588 -0.3530 -0.7284  0.0298
  132OSM   H13A14236   2.987   3.040   6.692 -0.1387 -1.5206  0.2880
  132OSM   H13B14237   2.966   3.087   6.520  0.8629 -1.9145 -1.9779
  132OSM   H13C14238   3.105   3.005   6.577 -0.5387 -4.1471 -1.5411
  132OSM    C1214239   2.981   2.786   6.670 -0.1136  0.6822  0.0745
  132OSM   H12A14240   2.929   2.809   6.762  0.7351 -0.9606  1.0116
  132OSM   H12B14241   3.086   2.795   6.695  0.0245  1.9321 -0.8616
  132OSM    C1114242   2.966   2.637   6.640 -0.6592 -0.1053 -0.1933
  132OSM   H11A14243   2.992   2.566   6.721 -1.9429 -1.3331 -0.8132
  132OSM   H11B14244   3.048   2.618   6.567 -2.5724  0.5469 -2.6775
  132OSM      P14245   2.819   2.471   6.492 -0.3906  0.0906 -0.0509
  132OSM    O1314246   2.893   2.359   6.551 -0.4754  0.0172  0.2037
  132OSM    O1414247   2.675   2.454   6.463 -0.4818  0.3848  0.1422
  132OSM    O1114248   2.894   2.506   6.364  0.3398 -1.0587 -1.0339
  132OSM    O1214249   2.838   2.594   6.592 -0.5901 -0.2297 -0.0777
  132OSM    C1S14250   2.854   2.458   6.243 -0.1997  0.0439  0.3156
  132OSM    H1S14251   2.746   2.482   6.230  0.0473  2.0632  1.5312
  132OSM    H1T14252   2.870   2.349   6.230  0.2508 -0.0889  1.8141
  132OSM     NF14253   2.871   2.488   6.004 -0.0722  0.1686  0.0852
  132OSM    HNF14254   2.936   2.446   5.941  2.8454 -2.5035  4.3392
  132OSM    C2S14255   2.927   2.532   6.127  0.6508  0.4514  0.4259
  132OSM    H2S14256   2.903   2.641   6.125  3.2653  1.1134  1.4030
  132OSM    C3S14257   3.079   2.525   6.143  0.0015 -0.3725 -0.3846
  132OSM    H3S14258   3.114   2.420   6.142  0.4465 -0.2274 -0.0318
  132OSM     O314259   3.124   2.598   6.257 -0.2569  0.2746 -0.0218
  132OSM    HO314260   3.054   2.582   6.321  1.3214 -1.2648  1.4350
  132OSM    C4S14261   3.133   2.602   6.023 -0.0061 -0.1436 -0.4812
  132OSM    H4S14262   3.106   2.708   6.014 -0.3919 -0.3661 -2.7619
  132OSM    C5S14263   3.233   2.562   5.939 -0.2738 -0.1704 -0.6718
  132OSM    H5S14264   3.295   2.473   5.954 -0.6519 -0.1702  1.1687
  132OSM    C6S14265   3.299   2.637   5.821  0.4404  0.6547 -0.6012
  132OSM    H6S14266   3.283   2.580   5.727 -0.3840  1.4314 -0.9544
  132OSM    H6T14267   3.408   2.650   5.838  0.1355  1.8307  0.6989
  132OSM    C7S14268   3.239   2.775   5.804  0.2390  0.1018  0.3564
  132OSM    H7S14269   3.270   2.843   5.887  0.8790  0.7547 -0.4093
  132OSM    H7T14270   3.128   2.779   5.802  0.2415 -0.0891 -1.0888
  132OSM    C8S14271   3.298   2.836   5.673  0.4198 -0.5410  0.4615
  132OSM    H8S14272   3.407   2.838   5.691  0.4896  0.7155 -0.0277
  132OSM    H8T14273   3.268   2.943   5.671 -0.0971 -0.6036  2.3298
  132OSM    C9S14274   3.250   2.778   5.544  0.0268  0.5806 -0.7729
  132OSM    H9S14275   3.139   2.787   5.549  0.0876  0.7783  0.5558
  132OSM    H9T14276   3.282   2.672   5.530  1.6272  1.1550 -1.7984
  132OSM   C10S14277   3.296   2.846   5.419 -0.3941 -0.1720  0.4195
  132OSM   H10S14278   3.403   2.817   5.405 -0.8722 -1.4968 -0.7803
  132OSM   H10T14279   3.286   2.957   5.422  2.1508  0.1346  0.1918
  132OSM   C11S14280   3.224   2.806   5.287  0.6606 -0.2448 -0.5684
  132OSM   H11S14281   3.117   2.834   5.288  1.3618  3.0852  2.0100
  132OSM   H11T14282   3.228   2.695   5.284 -0.8003 -0.2918 -2.0533
  132OSM   C12S14283   3.293   2.840   5.158 -0.1072 -0.1371 -0.3544
  132OSM   H12S14284   3.271   2.752   5.095  3.3343 -2.3993  1.2715
  132OSM   H12T14285   3.404   2.839   5.167 -0.1713  1.3252  0.9875
  132OSM   C13S14286   3.252   2.977   5.100 -0.2585 -0.4561 -0.3294
  132OSM   H13S14287   3.313   3.052   5.155 -0.6860 -0.0801 -0.3676
  132OSM   H13T14288   3.150   3.001   5.135  0.3906 -1.0120  2.1742
  132OSM   C14S14289   3.264   2.991   4.951 -0.0167 -0.0423 -0.1580
  132OSM   H14S14290   3.365   2.959   4.921  0.4609 -1.6270  2.7601
  132OSM   H14T14291   3.248   3.100   4.935  0.1683  0.3300  1.9411
  132OSM   C15S14292   3.144   2.922   4.877  0.3529 -0.3364  0.0974
  132OSM   H15S14293   3.049   2.954   4.925 -0.5054 -0.8351 -1.2078
  132OSM   H15T14294   3.149   2.813   4.898  0.7592  0.0691  2.3493
  132OSM   C16S14295   3.149   2.951   4.722 -0.0510  0.0187 -0.3085
  132OSM   H16S14296   3.244   2.916   4.677 -0.0960  0.4385 -0.7387
  132OSM   H16T14297   3.125   3.054   4.689  2.5358  0.0614 -2.4390
  132OSM   C17S14298   3.036   2.876   4.649 -0.4932 -0.1929  0.4697
  132OSM   H17S14299   2.937   2.914   4.683 -1.1314 -0.2448 -1.2274
  132OSM   H17T14300   3.026   2.766   4.665  1.7103 -1.0743 -3.1525
  132OSM   C18S14301   3.045   2.901   4.501  0.0449  0.0030  0.2648
  132OSM   H18S14302   2.964   2.842   4.453  0.1734 -0.1131  0.1895
  132OSM   H18T14303   3.137   2.862   4.453 -1.3581 -2.0315 -0.9064
  132OSM   H18U14304   3.036   3.009   4.475  0.2238 -0.1933 -0.6448
  132OSM    C1F14305   2.750   2.514   5.960 -0.7273 -0.1116 -0.2704
  132OSM     OF14306   2.670   2.573   6.026  0.2269  0.0237  0.1378
  132OSM    C2F14307   2.724   2.454   5.824  0.3935 -0.3112  0.0832
  132OSM    H2F14308   2.615   2.439   5.811  0.1094  1.3379  0.3175
  132OSM    H2G14309   2.779   2.357   5.821 -0.9554 -1.0803 -0.5068
  132OSM    C3F14310   2.772   2.554   5.720 -0.0864  0.6420 -0.1542
  132OSM    H3F14311   2.881   2.572   5.734  0.7592 -2.0796 -2.2687
  132OSM    H3G14312   2.712   2.647   5.725  0.6938  1.2860 -1.9518
  132OSM    C4F14313   2.748   2.496   5.586  0.3595  0.9438  0.2756
  132OSM    H4F14314   2.638   2.483   5.578  0.5754  0.2565 -2.9250
  132OSM    H4G14315   2.791   2.394   5.575 -0.9829  0.2507  1.1682
  132OSM    C5F14316   2.810   2.572   5.466  0.3238  0.2782  0.8257
  132OSM    H5F14317   2.918   2.571   5.492 -0.0876 -0.2474  2.6789
  132OSM    H5G14318   2.771   2.675   5.453 -0.9627 -0.3271 -0.5123
  132OSM    C6F14319   2.778   2.501   5.329 -0.4469 -0.3080 -0.5164
  132OSM    H6F14320   2.670   2.472   5.325 -0.4365 -0.4165 -0.0916
  132OSM    H6G14321   2.847   2.419   5.300  0.5833 -0.0616  1.1472
  132OSM    C7F14322   2.797   2.606   5.219  0.8035  0.2128 -0.9081
  132OSM    H7F14323   2.895   2.656   5.240  0.5053  0.2416  0.5742
  132OSM    H7G14324   2.718   2.683   5.227  1.1522  0.3911  1.7404
  132OSM    C8F14325   2.798   2.542   5.080  0.1278  0.5862  0.2606
  132OSM    H8F14326   2.690   2.517   5.073  0.6159 -1.7190 -0.0322
  132OSM    H8G14327   2.850   2.444   5.076 -1.7814 -0.4625  0.1558
  132OSM    C9F14328   2.836   2.639   4.964 -0.0318  0.1505 -0.0825
  132OSM    H9F14329   2.896   2.729   4.986  0.2392  0.2593 -1.2213
  132OSM   C10F14330   2.814   2.613   4.831  0.8219 -0.4413 -0.2724
  132OSM   H10F14331   2.848   2.686   4.756 -0.4929  1.0828  0.5687
  132OSM   C11F14332   2.756   2.491   4.769  0.0731 -0.2537  0.3746
  132OSM   H11F14333   2.645   2.497   4.775  0.1641  0.2442  2.3235
  132OSM   H11G14334   2.794   2.400   4.822  0.2976 -0.7184 -0.5713
  132OSM   C12F14335   2.805   2.468   4.621  0.7025  0.2430 -0.5057
  132OSM   H12F14336   2.803   2.565   4.567  0.5386 -1.6592 -4.2221
  132OSM   H12G14337   2.734   2.394   4.579  2.8773 -2.3791  0.1419
  132OSM   C13F14338   2.955   2.416   4.618 -0.6345  0.2211 -0.4134
  132OSM   H13F14339   2.951   2.307   4.643 -0.0423  0.0215 -1.1515
  132OSM   H13G14340   3.009   2.470   4.699  0.4918 -0.5685 -0.6133
  132OSM   C14F14341   3.019   2.441   4.485  0.6165 -0.5143  0.0502
  132OSM   H14F14342   3.129   2.434   4.499  0.6345  0.0062  0.1611
  132OSM   H14G14343   3.000   2.544   4.450  0.3207 -0.3585  0.6607
  132OSM   C15F14344   2.973   2.337   4.382 -0.3005 -0.6563 -0.2442
  132OSM   H15F14345   2.912   2.394   4.309  0.7710  1.3863  0.3559
  132OSM   H15G14346   2.915   2.255   4.430 -1.9323 -0.8934 -2.4774
  132OSM   C16F14347   3.092   2.265   4.303 -0.1320 -0.4065 -0.1205
  132OSM   H16F14348   3.133   2.192   4.376 -2.7300 -2.3303 -0.4439
  132OSM   H16G14349   3.171   2.340   4.280 -0.0363 -0.0591  1.2564
  132OSM   C17F14350   3.048   2.199   4.174 -0.1340  0.7960  0.1070
  132OSM   H17F14351   2.968   2.126   4.200  1.4568 -0.8497  0.6771
  132OSM   H17G14352   3.142   2.145   4.147  0.5192  1.5958  0.7310
  132OSM   C18F14353   2.998   2.288   4.063 -0.0727  0.2247 -0.2160
  132OSM   H18F14354   3.046   2.388   4.062 -3.8465  2.2336 -0.9893
  132OSM   H18G14355   2.891   2.309   4.085  0.3066  0.8168  1.2491
  132OSM   H18H14356   3.003   2.239   3.964 -1.3875  0.1026 -0.2435
  133OSM      N14357   0.037   3.601   6.783  0.4164  0.0554  0.0199
  133OSM    C1514358  -0.001   3.458   6.794 -0.3350  0.6834  0.5501
  133OSM   H15A14359   0.026   3.405   6.704  1.4072  0.6830  1.0383
  133OSM   H15B14360  -0.108   3.456   6.808 -0.8148  2.7414 -1.8986
  133OSM   H15C14361   0.051   3.420   6.880 -0.6181 -0.6019  0.1792
  133OSM    C1414362   0.006   3.668   6.905  0.4199  0.0708  0.3975
  133OSM   H14A14363   0.041   3.770   6.895  0.7111 -0.1002 -0.3425
  133OSM   H14B14364   0.055   3.616   6.986  0.0768  2.6396  2.3948
  133OSM   H14C14365  -0.101   3.673   6.920 -0.3045  0.1839 -3.7396
  133OSM    C1314366   0.185   3.615   6.757 -0.1785  1.0605  0.2078
  133OSM   H13A14367   0.216   3.560   6.670 -1.9827  2.7747 -1.6070
  133OSM   H13B14368   0.235   3.584   6.848  0.5340 -0.2314 -0.5890
  133OSM   H13C14369   0.202   3.720   6.740  1.1992  0.7245 -0.6283
  133OSM    C1214370  -0.034   3.664   6.666 -0.3261  0.2640  0.3511
  133OSM   H12A14371  -0.142   3.658   6.668 -0.4149  0.1575 -2.0901
  133OSM   H12B14372  -0.005   3.606   6.580 -1.2334 -0.1236  0.2867
  133OSM    C1114373   0.004   3.815   6.626  0.0919  0.1141 -0.4517
  133OSM   H11A14374  -0.054   3.839   6.535 -2.4974  0.7775  1.2384
  133OSM   H11B14375   0.112   3.818   6.602  0.8954  0.5195  2.7240
  133OSM      P14376   0.018   4.069   6.706 -0.2454  0.0315 -0.0655
  133OSM    O1314377  -0.084   4.160   6.765 -0.2733 -0.6087 -0.1118
  133OSM    O1414378   0.154   4.092   6.749 -0.1863 -0.0681  0.0153
  133OSM    O1114379   0.025   4.090   6.544 -0.0525  0.0483 -0.8035
  133OSM    O1214380  -0.018   3.913   6.724 -0.6208  0.0276  0.2931
  133OSM    C1S14381  -0.095   4.088   6.466 -0.2624  0.5906 -0.5253
  133OSM    H1S14382  -0.144   4.188   6.472  0.4909  0.8955  1.0352
  133OSM    H1T14383  -0.168   4.013   6.502 -0.6445  1.4741  0.5883
  133OSM     NF14384  -0.192   4.063   6.241  0.2652 -0.3138 -0.4047
  133OSM    HNF14385  -0.218   3.987   6.182 -0.9234  0.3342 -0.7469
  133OSM    C2S14386  -0.063   4.067   6.315 -0.1948 -0.3560 -0.2362
  133OSM    H2S14387  -0.001   4.152   6.280 -1.5641  1.3566  1.2884
  133OSM    C3S14388   0.029   3.949   6.285 -0.2722  0.7779 -0.2761
  133OSM    H3S14389  -0.030   3.859   6.310  0.2645  0.5970  0.3735
  133OSM     O314390   0.142   3.951   6.365 -0.7599  0.6471 -0.3770
  133OSM    HO314391   0.121   4.015   6.433 -0.0110 -0.3423  0.8204
  133OSM    C4S14392   0.066   3.940   6.130 -0.6078 -0.8380  0.7955
  133OSM    H4S14393  -0.005   3.875   6.076 -0.3416  1.5063 -2.7409
  133OSM    C5S14394   0.165   4.002   6.063  0.4092 -0.4124  0.4102
  133OSM    H5S14395   0.233   4.067   6.119 -2.1467  2.5707  0.3317
  133OSM    C6S14396   0.193   3.976   5.915  0.3397  0.0766  0.0876
  133OSM    H6S14397   0.110   4.016   5.852  1.1249 -1.1898 -1.8356
  133OSM    H6T14398   0.198   3.868   5.888 -1.4431  0.1449 -0.6534
  133OSM    C7S14399   0.316   4.042   5.856 -0.0375  0.9970  0.0289
  133OSM    H7S14400   0.411   4.034   5.915  1.2931  1.0765 -2.0039
  133OSM    H7T14401   0.291   4.145   5.826 -0.4740  1.0634  0.5905
  133OSM    C8S14402   0.353   3.964   5.726  0.3748 -0.8054  0.3339
  133OSM    H8S14403   0.322   3.858   5.739 -1.8482 -0.4519 -1.4742
  133OSM    H8T14404   0.462   3.965   5.704  0.2946 -0.5325 -0.0596
  133OSM    C9S14405   0.281   4.024   5.604 -0.0508  0.6100  0.1165
  133OSM    H9S14406   0.303   4.133   5.614 -1.9439  1.0525 -0.3356
  133OSM    H9T14407   0.172   4.009   5.601  0.0510 -0.6699  1.4356
  133OSM   C10S14408   0.315   3.963   5.465 -0.7580  0.0017  0.0720
  133OSM   H10S14409   0.261   3.866   5.457  2.3907 -1.8686 -0.7775
  133OSM   H10T14410   0.422   3.932   5.465 -1.0488 -1.2331 -1.8980
  133OSM   C11S14411   0.287   4.068   5.364 -0.0517 -1.0330  0.2133
  133OSM   H11S14412   0.345   4.161   5.382  0.3227 -0.7944 -2.0108
  133OSM   H11T14413   0.178   4.088   5.362 -0.2338 -1.0426  3.8118
  133OSM   C12S14414   0.325   4.016   5.220 -0.1609 -0.2227 -0.4669
  133OSM   H12S14415   0.267   3.924   5.203 -1.8578  0.7043  0.0746
  133OSM   H12T14416   0.434   3.993   5.226  0.1876  1.5217  1.3804
  133OSM   C13S14417   0.300   4.109   5.104  0.5182 -0.1356 -0.8014
  133OSM   H13S14418   0.335   4.209   5.137 -1.3619  0.6158 -0.9210
  133OSM   H13T14419   0.189   4.110   5.096  0.4973  3.2771 -1.5779
  133OSM   C14S14420   0.358   4.075   4.967 -0.2671 -0.4844  0.2067
  133OSM   H14S14421   0.363   3.964   4.957  0.3963 -0.7805  3.0859
  133OSM   H14T14422   0.461   4.116   4.971 -0.3896  0.0568 -1.3839
  133OSM   C15S14423   0.287   4.145   4.849 -0.1699  0.7885  0.4242
  133OSM   H15S14424   0.178   4.126   4.849 -0.1501  0.6716  0.6962
  133OSM   H15T14425   0.313   4.096   4.752 -4.0843 -0.7442 -0.0462
  133OSM   C16S14426   0.320   4.296   4.832  0.0955 -0.3215  0.2665
  133OSM   H16S14427   0.419   4.304   4.782  0.5274  0.3822  1.2095
  133OSM   H16T14428   0.343   4.339   4.932 -1.0040  0.1204  0.3463
  133OSM   C17S14429   0.215   4.382   4.751 -0.6080 -0.1923  0.0238
  133OSM   H17S14430   0.225   4.350   4.645 -0.0997  4.3034 -1.5220
  133OSM   H17T14431   0.260   4.483   4.760 -1.2876  0.0052  1.4465
  133OSM   C18S14432   0.073   4.383   4.814 -0.6995 -0.0926  0.3696
  133OSM   H18S14433   0.014   4.460   4.759 -0.8115 -1.6303 -1.8210
  133OSM   H18T14434   0.070   4.408   4.922 -0.3999  1.7822 -0.0116
  133OSM   H18U14435   0.027   4.283   4.804 -0.3809 -0.1843 -0.2810
  133OSM    C1F14436  -0.283   4.165   6.242  0.0558  0.2273  0.3336
  133OSM     OF14437  -0.239   4.274   6.279 -0.1762  0.1754 -0.0558
  133OSM    C2F14438  -0.415   4.134   6.184 -0.1939 -0.0373 -0.2928
  133OSM    H2F14439  -0.452   4.036   6.221  0.4276 -0.1698 -0.0069
  133OSM    H2G14440  -0.400   4.115   6.076  0.2103  1.0358 -0.4333
  133OSM    C3F14441  -0.525   4.248   6.181  0.1937  0.4109  0.8144
  133OSM    H3F14442  -0.484   4.332   6.120 -0.8948 -0.4092 -1.1178
  133OSM    H3G14443  -0.540   4.286   6.284  2.0120  0.4221  1.1076
  133OSM    C4F14444  -0.666   4.213   6.126 -0.7080  0.3119 -0.6010
  133OSM    H4F14445  -0.746   4.280   6.164 -1.2822 -0.6448 -0.0780
  133OSM    H4G14446  -0.698   4.110   6.151 -0.5648  0.5161  0.4995
  133OSM    C5F14447  -0.696   4.233   5.975  0.1818 -0.1821  0.1090
  133OSM    H5F14448  -0.617   4.183   5.915  1.2436 -0.0279  1.3482
  133OSM    H5G14449  -0.689   4.343   5.961 -0.1906  0.3102  3.1152
  133OSM    C6F14450  -0.825   4.159   5.949  1.7094 -0.0297 -0.5566
  133OSM    H6F14451  -0.884   4.205   6.031  2.0608  0.5819 -0.6396
  133OSM    H6G14452  -0.826   4.048   5.951  1.2960 -0.0795  3.0547
  133OSM    C7F14453  -0.890   4.215   5.823  0.0647  0.6302  1.3516
  133OSM    H7F14454  -0.890   4.326   5.829 -1.8336  0.7928 -0.4784
  133OSM    H7G14455  -0.998   4.193   5.808 -0.7560  4.2633  0.9613
  133OSM    C8F14456  -0.810   4.173   5.703 -0.4309 -0.2854  0.1350
  133OSM    H8F14457  -0.782   4.066   5.720  0.9706 -0.3833 -2.3576
  133OSM    H8G14458  -0.710   4.221   5.713  0.1018 -1.3017 -0.1628
  133OSM    C9F14459  -0.890   4.196   5.580 -0.1220  0.3535 -0.1167
  133OSM    H9F14460  -0.999   4.200   5.598 -0.3216 -1.8046 -0.5748
  133OSM   C10F14461  -0.844   4.220   5.453 -0.1668 -0.7665 -0.1765
  133OSM   H10F14462  -0.924   4.260   5.390 -2.0885 -0.1600  2.4746
  133OSM   C11F14463  -0.709   4.226   5.403 -0.4833  1.4975 -0.3704
  133OSM   H11F14464  -0.639   4.194   5.483 -1.1607 -2.4464 -1.1624
  133OSM   H11G14465  -0.689   4.331   5.370 -1.3517  0.8217 -3.3216
  133OSM   C12F14466  -0.688   4.115   5.301  0.4972 -0.0340  0.3533
  133OSM   H12F14467  -0.751   4.144   5.214  0.6510  1.6132  0.7528
  133OSM   H12G14468  -0.732   4.023   5.343  0.8793  0.2364  1.3706
  133OSM   C13F14469  -0.546   4.092   5.263  0.0767 -0.7850  0.1282
  133OSM   H13F14470  -0.487   4.042   5.343 -1.0724  0.8355  2.0882
  133OSM   H13G14471  -0.498   4.189   5.242  2.1114 -1.8831 -0.4965
  133OSM   C14F14472  -0.525   4.014   5.133  0.3688 -0.5501 -0.5438
  133OSM   H14F14473  -0.416   4.027   5.114  0.7527  0.9876  2.2098
  133OSM   H14G14474  -0.587   4.060   5.053  0.7288  0.4014 -0.2929
  133OSM   C15F14475  -0.570   3.865   5.135  0.4057 -0.4218  0.2594
  133OSM   H15F14476  -0.678   3.869   5.164 -0.2222  4.0741 -1.8715
  133OSM   H15G14477  -0.518   3.815   5.220 -2.0601  1.3550  3.0562
  133OSM   C16F14478  -0.559   3.793   4.999 -0.1806  0.0333 -0.5777
  133OSM   H16F14479  -0.456   3.812   4.962  0.9357 -1.0489  1.8118
  133OSM   H16G14480  -0.628   3.835   4.922 -0.7148 -0.7941 -0.5638
  133OSM   C17F14481  -0.590   3.645   5.008 -0.0700 -0.3551  0.1856
  133OSM   H17F14482  -0.694   3.636   5.044  0.7641 -0.0425  2.9395
  133OSM   H17G14483  -0.514   3.617   5.084  0.3546  0.7121  0.1757
  133OSM   C18F14484  -0.568   3.559   4.881 -0.3618  0.0382  0.1888
  133OSM   H18F14485  -0.616   3.461   4.904  1.0528 -0.7715 -0.1814
  133OSM   H18G14486  -0.458   3.552   4.864 -0.4234  0.2311 -0.3014
  133OSM   H18H14487  -0.622   3.596   4.791 -0.1622  0.4242  0.2252
  134OSM      N14488   0.227   1.947   6.984 -0.0198 -0.3868 -0.7630
  134OSM    C1514489   0.282   1.894   6.857 -0.1094 -0.5196 -0.6300
  134OSM   H15A14490   0.380   1.853   6.878 -0.3200  0.0400  1.6191
  134OSM   H15B14491   0.289   1.979   6.790 -1.5125 -0.9800 -1.3997
  134OSM   H15C14492   0.213   1.822   6.815  0.3215 -1.5911  0.4495
  134OSM    C1414493   0.209   1.824   7.069 -0.1135 -0.1535  0.2504
  134OSM   H14A14494   0.179   1.844   7.171 -0.1873 -1.2074  0.4430
  134OSM   H14B14495   0.308   1.780   7.077 -0.2684 -0.3666  1.1011
  134OSM   H14C14496   0.143   1.751   7.026 -1.8219  0.2576  2.0578
  134OSM    C1314497   0.326   2.042   7.053  0.6967 -0.1797 -0.2107
  134OSM   H13A14498   0.326   2.135   6.999 -1.6578 -0.2636 -0.4773
  134OSM   H13B14499   0.430   2.015   7.058  0.5593 -0.6622  0.0360
  134OSM   H13C14500   0.285   2.057   7.152 -0.7150 -2.9109 -0.2976
  134OSM    C1214501   0.087   2.004   6.970  0.3167  0.2381  0.2160
  134OSM   H12A14502   0.040   2.001   7.067  0.8837  0.6599  0.5077
  134OSM   H12B14503   0.031   1.931   6.913  1.8317 -0.2885 -0.6631
  134OSM    C1114504   0.085   2.139   6.899  0.6267 -0.4031  0.6446
  134OSM   H11A14505   0.147   2.213   6.953  0.4823 -1.5350  2.4428
  134OSM   H11B14506  -0.020   2.174   6.908  0.3200 -0.9463 -0.6094
  134OSM      P14507   0.118   2.256   6.669  0.1042  0.1886 -0.0372
  134OSM    O1314508  -0.020   2.284   6.633  0.3103  0.6273 -0.5986
  134OSM    O1414509   0.190   2.369   6.727 -0.0607  0.1391  0.0613
  134OSM    O1114510   0.190   2.212   6.535  0.0216 -0.3051  0.3766
  134OSM    O1214511   0.117   2.128   6.761 -0.2714 -0.0759 -0.5952
  134OSM    C1S14512   0.139   2.261   6.409 -0.1421  0.1459 -1.0011
  134OSM    H1S14513   0.101   2.363   6.432 -0.6471 -0.2404 -0.0565
  134OSM    H1T14514   0.046   2.208   6.379 -0.7893  1.5456 -1.5393
  134OSM     NF14515   0.186   2.326   6.189 -0.2840  0.1807 -0.5458
  134OSM    HNF14516   0.140   2.275   6.116 -1.5523  0.3041  0.1305
  134OSM    C2S14517   0.242   2.259   6.302 -0.0001  0.0262 -0.1517
  134OSM    H2S14518   0.333   2.310   6.341  0.9266 -3.0915  2.2156
  134OSM    C3S14519   0.277   2.108   6.276  0.1169 -0.0584  0.4340
  134OSM    H3S14520   0.184   2.052   6.253 -0.6990 -0.1365  3.4563
  134OSM     O314521   0.335   2.043   6.396  0.2836  0.0115  0.3396
  134OSM    HO314522   0.298   2.090   6.471  2.8717  1.9799  0.5342
  134OSM    C4S14523   0.384   2.084   6.174 -0.2021  0.6906  0.0566
  134OSM    H4S14524   0.487   2.103   6.209  0.9766  0.4697 -3.0450
  134OSM    C5S14525   0.377   2.004   6.068  0.0070  0.5609 -0.0140
  134OSM    H5S14526   0.278   1.978   6.027  0.4134 -0.5529 -0.3300
  134OSM    C6S14527   0.485   1.944   5.974  0.7282 -0.0090 -0.1775
  134OSM    H6S14528   0.469   1.834   5.972  0.3494  0.0395 -2.4880
  134OSM    H6T14529   0.584   1.969   6.018  0.1192 -0.5028  1.5681
  134OSM    C7S14530   0.498   2.003   5.831 -0.5011 -0.3026 -0.6522
  134OSM    H7S14531   0.535   2.107   5.840  0.1314 -0.5320 -0.5275
  134OSM    H7T14532   0.397   2.013   5.786 -0.4132  0.5001 -0.6853
  134OSM    C8S14533   0.580   1.916   5.739  0.4006  0.0325 -0.4318
  134OSM    H8S14534   0.533   1.815   5.727  2.6167 -1.2479  0.9807
  134OSM    H8T14535   0.674   1.890   5.792  0.4003  1.1512  0.1461
  134OSM    C9S14536   0.612   1.985   5.606 -0.0847  1.1808 -0.3262
  134OSM    H9S14537   0.712   2.029   5.629 -0.7093  0.8759  3.8355
  134OSM    H9T14538   0.542   2.071   5.605  0.1889  1.4638  1.3074
  134OSM   C10S14539   0.599   1.903   5.474 -0.4337  0.3987 -0.4808
  134OSM   H10S14540   0.499   1.857   5.457  1.2518 -3.9840  0.0633
  134OSM   H10T14541   0.673   1.821   5.491  1.2730  1.9504 -0.1033
  134OSM   C11S14542   0.630   1.977   5.351 -0.0872 -0.4712 -0.4046
  134OSM   H11S14543   0.733   2.018   5.343  0.0299 -0.0047  2.3618
  134OSM   H11T14544   0.569   2.070   5.360 -0.6213 -0.9091  0.8214
  134OSM   C12S14545   0.593   1.903   5.222 -1.1845 -0.6791 -0.0376
  134OSM   H12S14546   0.493   1.857   5.236 -1.1592 -0.4523  0.9420
  134OSM   H12T14547   0.673   1.828   5.204  1.6765  2.0643  0.2626
  134OSM   C13S14548   0.602   1.989   5.098  0.0847 -0.3206 -0.0070
  134OSM   H13S14549   0.705   2.032   5.094 -0.2788  0.4769 -1.3461
  134OSM   H13T14550   0.544   2.080   5.125  0.7806 -0.6120  2.8093
  134OSM   C14S14551   0.559   1.909   4.976  0.7011 -0.1242  0.2139
  134OSM   H14S14552   0.468   1.857   5.012 -0.0809  1.1969  0.2115
  134OSM   H14T14553   0.647   1.849   4.945  1.6436  2.0923 -1.7747
  134OSM   C15S14554   0.505   2.001   4.862 -0.5330 -0.4077  0.5040
  134OSM   H15S14555   0.591   2.069   4.844 -1.3589  0.4452 -0.3432
  134OSM   H15T14556   0.425   2.066   4.904 -1.0086 -0.6597  0.0098
  134OSM   C16S14557   0.455   1.925   4.739  0.2971  0.2135 -0.0296
  134OSM   H16S14558   0.412   1.991   4.661  0.4154  1.0955  0.6418
  134OSM   H16T14559   0.371   1.860   4.771  1.1797 -2.3051 -2.3720
  134OSM   C17S14560   0.566   1.836   4.679 -0.2553 -0.1240  0.2082
  134OSM   H17S14561   0.603   1.752   4.742  2.2559 -1.4435 -2.7935
  134OSM   H17T14562   0.654   1.896   4.649  0.4054  0.4410  2.9594
  134OSM   C18S14563   0.519   1.766   4.548 -0.6177 -0.3404  0.1220
  134OSM   H18S14564   0.495   1.845   4.473  3.1561 -0.9959 -2.0632
  134OSM   H18T14565   0.435   1.697   4.568 -0.7367 -0.2560 -0.0940
  134OSM   H18U14566   0.608   1.714   4.507 -0.2227 -0.9561  1.6966
  134OSM    C1F14567   0.167   2.457   6.171 -0.4526  0.2869 -1.0242
  134OSM     OF14568   0.226   2.522   6.260  0.5274  0.0287  0.3079
  134OSM    C2F14569   0.089   2.503   6.049  0.0586 -0.0880  0.0103
  134OSM    H2F14570  -0.018   2.480   6.064 -0.5389  3.2226  1.9178
  134OSM    H2G14571   0.124   2.446   5.961  0.0059 -0.0150 -0.0577
  134OSM    C3F14572   0.110   2.655   6.019 -0.8501 -0.3679 -0.0806
  134OSM    H3F14573   0.078   2.684   5.917 -1.0096 -1.0416 -0.2298
  134OSM    H3G14574   0.219   2.677   6.022 -1.2399  1.7608 -0.1317
  134OSM    C4F14575   0.044   2.756   6.120 -0.2112 -1.1985 -0.1484
  134OSM    H4F14576   0.094   2.740   6.218 -1.1209 -0.6885  0.4144
  134OSM    H4G14577  -0.064   2.737   6.134 -0.4169 -1.8184 -2.2350
  134OSM    C5F14578   0.071   2.905   6.070  0.1959  0.3612 -0.6607
  134OSM    H5F14579   0.176   2.916   6.035  0.4634 -1.9831 -0.7971
  134OSM    H5G14580   0.060   2.976   6.155  0.4914  0.7457 -0.9390
  134OSM    C6F14581  -0.024   2.962   5.957  0.1619  0.2325 -0.1405
  134OSM    H6F14582  -0.117   3.000   6.004 -0.4249 -0.3711 -0.8030
  134OSM    H6G14583  -0.051   2.879   5.890 -1.1623  0.5247  0.0046
  134OSM    C7F14584   0.049   3.085   5.888  0.3662  0.2111  0.1829
  134OSM    H7F14585   0.126   3.125   5.959 -1.6518  1.6783  1.6652
  134OSM    H7G14586  -0.024   3.167   5.872  1.1137  0.8805  0.1460
  134OSM    C8F14587   0.131   3.037   5.764  0.6968 -0.0843 -0.0704
  134OSM    H8F14588   0.202   2.952   5.776  0.5406 -0.6423 -2.5510
  134OSM    H8G14589   0.197   3.123   5.737 -0.3349  1.2249  1.3749
  134OSM    C9F14590   0.039   2.994   5.659 -0.0158  0.2372 -0.2481
  134OSM    H9F14591  -0.015   2.901   5.683 -0.3252  0.8320  1.4879
  134OSM   C10F14592   0.008   3.051   5.547 -0.2530 -0.9433  0.5903
  134OSM   H10F14593  -0.076   3.013   5.487 -1.1086  0.5472  0.8080
  134OSM   C11F14594   0.065   3.175   5.483  0.1255 -0.1175 -0.5335
  134OSM   H11F14595   0.160   3.203   5.534  0.4944 -0.8987 -0.7932
  134OSM   H11G14596  -0.003   3.263   5.490  0.5752  0.3274 -1.5598
  134OSM   C12F14597   0.105   3.149   5.332  0.3062  0.2530 -0.3089
  134OSM   H12F14598   0.166   3.058   5.316  0.3510 -0.0464  1.4027
  134OSM   H12G14599   0.169   3.237   5.310  0.7005  0.0790  0.1272
  134OSM   C13F14600  -0.005   3.150   5.232  0.0683 -0.4310 -0.5173
  134OSM   H13F14601  -0.076   3.232   5.254 -1.5496 -1.1916 -2.6209
  134OSM   H13G14602  -0.069   3.060   5.239  0.0811 -0.4458 -0.5949
  134OSM   C14F14603   0.034   3.177   5.084 -0.2813  0.5418 -0.4001
  134OSM   H14F14604   0.143   3.155   5.083 -0.2409 -0.0603  3.3635
  134OSM   H14G14605   0.025   3.284   5.057 -1.4257  0.8340  1.0218
  134OSM   C15F14606  -0.048   3.096   4.987  0.0066 -0.3685 -0.1609
  134OSM   H15F14607  -0.151   3.137   4.977  0.2594 -0.2406 -3.1302
  134OSM   H15G14608  -0.043   2.988   5.013 -0.9831 -0.6941 -1.2542
  134OSM   C16F14609   0.022   3.112   4.849  0.2835  0.2100  0.6300
  134OSM   H16F14610   0.115   3.052   4.848 -1.4797 -2.6773  0.7150
  134OSM   H16G14611   0.038   3.221   4.829 -2.0036  0.4598 -0.1255
  134OSM   C17F14612  -0.060   3.048   4.738  0.2964 -0.4031  0.3333
  134OSM   H17F14613  -0.149   3.112   4.725  0.1514 -0.2022  2.0762
  134OSM   H17G14614  -0.084   2.942   4.762  0.8670 -0.3040  1.4197
  134OSM   C18F14615   0.019   3.043   4.604 -0.5595  0.0733  0.3716
  134OSM   H18F14616  -0.056   3.051   4.522 -0.8690  1.4544  0.7573
  134OSM   H18G14617   0.087   2.959   4.581 -0.3379  0.3433  0.0203
  134OSM   H18H14618   0.075   3.139   4.602  2.0533 -1.3456 -2.6833
  135OSM      N14619   0.222   0.849   6.926 -0.2212 -0.9686 -0.0937
  135OSM    C1514620   0.243   1.000   6.915 -0.0562  0.5261  0.3832
  135OSM   H15A14621   0.294   1.039   7.002  1.5834 -1.2144  0.2920
  135OSM   H15B14622   0.153   1.056   6.896 -1.0155 -1.2503 -0.6398
  135OSM   H15C14623   0.300   1.030   6.829 -1.3772 -0.0231 -0.7132
  135OSM    C1414624   0.351   0.775   6.956 -0.0993 -0.0477 -0.0023
  135OSM   H14A14625   0.334   0.669   6.970  0.7585 -0.2280 -0.2936
  135OSM   H14B14626   0.407   0.830   7.030  2.0218 -0.1260 -1.4769
  135OSM   H14C14627   0.405   0.789   6.864 -1.7600  0.5075 -0.9413
  135OSM    C1314628   0.123   0.828   7.034  0.3832  0.2896  0.2998
  135OSM   H13A14629   0.158   0.842   7.136 -2.0328  1.3526  1.0601
  135OSM   H13B14630   0.096   0.724   7.034  0.3498  0.2960 -0.5379
  135OSM   H13C14631   0.032   0.885   7.027  1.1705  1.3759 -1.6925
  135OSM    C1214632   0.154   0.790   6.796  0.7641 -0.2348 -0.0104
  135OSM   H12A14633   0.057   0.838   6.797  0.5762 -0.6108  0.1576
  135OSM   H12B14634   0.137   0.686   6.818 -2.6861  0.3647  0.7438
  135OSM    C1114635   0.228   0.812   6.661 -0.1569 -0.1332 -0.6777
  135OSM   H11A14636   0.237   0.921   6.640  0.3118 -0.3924 -1.9007
  135OSM   H11B14637   0.170   0.771   6.576 -1.7663  1.3782 -0.3747
  135OSM      P14638   0.399   0.617   6.612 -0.1641 -0.1482  0.0028
  135OSM    O1314639   0.543   0.613   6.602 -0.2088 -0.1873 -0.3366
  135OSM    O1414640   0.329   0.512   6.681  0.3329 -0.1065  0.2464
  135OSM    O1114641   0.347   0.623   6.462 -0.0121 -0.2628 -0.1291
  135OSM    O1214642   0.357   0.759   6.667  0.1938 -0.5485  0.3774
  135OSM    C1S14643   0.409   0.535   6.373 -0.9293 -0.4548  0.6286
  135OSM    H1S14644   0.382   0.430   6.396  0.6714 -1.3811 -1.4267
  135OSM    H1T14645   0.520   0.541   6.368 -0.9583  0.4749  0.8770
  135OSM     NF14646   0.390   0.464   6.131 -0.8047  0.1203  0.4905
  135OSM    HNF14647   0.454   0.480   6.056 -0.7789 -1.2308  0.1914
  135OSM    C2S14648   0.362   0.572   6.227  0.1025  0.8456  0.0593
  135OSM    H2S14649   0.251   0.578   6.226 -0.0319 -1.0963 -0.5463
  135OSM    C3S14650   0.427   0.707   6.191  0.0980 -0.5439  0.7358
  135OSM    H3S14651   0.538   0.701   6.181  0.3333  1.8266  1.3215
  135OSM     O314652   0.410   0.816   6.286  0.0004 -0.1923 -0.0493
  135OSM    HO314653   0.354   0.770   6.349 -0.6173 -1.4957 -1.4845
  135OSM    C4S14654   0.377   0.752   6.059  0.2351  0.4104 -0.7360
  135OSM    H4S14655   0.418   0.698   5.972 -1.9635  0.0695 -1.6245
  135OSM    C5S14656   0.285   0.845   6.031 -0.7938 -0.2722  0.4343
  135OSM    H5S14657   0.234   0.893   6.116  0.2134 -1.9650  2.0791
  135OSM    C6S14658   0.229   0.883   5.892 -0.1602  0.4890 -0.2731
  135OSM    H6S14659   0.299   0.846   5.814 -2.9096  1.4383 -3.4233
  135OSM    H6T14660   0.212   0.992   5.876 -0.1382  0.0927 -3.6799
  135OSM    C7S14661   0.102   0.805   5.860 -0.2318  0.1646  0.0524
  135OSM    H7S14662   0.028   0.821   5.942 -0.2736 -0.2353  0.0949
  135OSM    H7T14663   0.116   0.695   5.859  1.1003  0.3179 -0.8735
  135OSM    C8S14664   0.046   0.843   5.719  0.6019  0.8134  0.4469
  135OSM    H8S14665   0.120   0.807   5.644  1.1931  1.6633  0.6072
  135OSM    H8T14666   0.034   0.953   5.714  1.2153  1.0378  2.8433
  135OSM    C9S14667  -0.094   0.775   5.695 -0.4319 -0.3518  0.0059
  135OSM    H9S14668  -0.157   0.828   5.770  0.5058  0.2775  0.3757
  135OSM    H9T14669  -0.087   0.668   5.722  1.3267  0.5436  3.8012
  135OSM   C10S14670  -0.152   0.781   5.553 -0.2510  0.8707  0.7258
  135OSM   H10S14671  -0.185   0.880   5.513 -0.5713  1.0016  1.3005
  135OSM   H10T14672  -0.247   0.723   5.560 -1.5113  2.6617 -0.5883
  135OSM   C11S14673  -0.075   0.719   5.438  0.1545  0.3031  0.4487
  135OSM   H11S14674  -0.034   0.620   5.469 -0.5088  0.1417  0.8330
  135OSM   H11T14675   0.010   0.785   5.411  0.3466  0.9001  2.3597
  135OSM   C12S14676  -0.166   0.704   5.320 -0.0010  0.0249  0.0083
  135OSM   H12S14677  -0.212   0.800   5.291 -1.1957 -1.0478 -1.8327
  135OSM   H12T14678  -0.250   0.634   5.337  0.8945 -1.0363  0.1739
  135OSM   C13S14679  -0.096   0.655   5.194 -0.1976  0.0576  1.6243
  135OSM   H13S14680  -0.048   0.556   5.207  0.0176 -0.1187 -0.2726
  135OSM   H13T14681  -0.019   0.729   5.165 -0.4052 -0.4910 -0.4978
  135OSM   C14S14682  -0.196   0.623   5.079  0.4362  0.8142 -0.0436
  135OSM   H14S14683  -0.221   0.708   5.012  1.3027  0.7444 -0.4731
  135OSM   H14T14684  -0.290   0.586   5.124  0.6636  1.4844  1.0133
  135OSM   C15S14685  -0.138   0.504   4.995  0.4398  1.0322  0.0693
  135OSM   H15S14686  -0.144   0.407   5.048  0.7502  0.6277 -0.6276
  135OSM   H15T14687  -0.036   0.517   4.954  0.0486  0.4898 -1.1221
  135OSM   C16S14688  -0.214   0.481   4.861  1.3125 -0.3923  0.7013
  135OSM   H16S14689  -0.202   0.575   4.803 -3.0899  0.5329  0.9658
  135OSM   H16T14690  -0.324   0.476   4.878  0.7281 -1.4627 -2.6833
  135OSM   C17S14691  -0.175   0.365   4.773 -1.0017 -0.0509 -0.0168
  135OSM   H17S14692  -0.067   0.350   4.752 -1.3308 -1.2355 -1.0069
  135OSM   H17T14693  -0.220   0.385   4.673 -1.2784  1.9334  0.4827
  135OSM   C18S14694  -0.224   0.226   4.823  0.3355  0.0431  0.3859
  135OSM   H18S14695  -0.327   0.217   4.782  0.1283 -1.6447  1.1975
  135OSM   H18T14696  -0.225   0.227   4.934 -0.1743 -0.7480  0.3954
  135OSM   H18U14697  -0.154   0.148   4.788 -0.7287 -1.2356  1.0355
  135OSM    C1F14698   0.321   0.347   6.130 -0.0282 -0.0503  0.2456
  135OSM     OF14699   0.230   0.320   6.206 -0.1884  0.2099 -0.1026
  135OSM    C2F14700   0.367   0.238   6.037  1.1290  0.0494 -0.1519
  135OSM    H2F14701   0.348   0.139   6.084  1.7455 -0.4552 -0.9317
  135OSM    H2G14702   0.476   0.250   6.023  0.7637  1.6466 -2.1512
  135OSM    C3F14703   0.294   0.247   5.898 -0.0069 -0.3627  0.4405
  135OSM    H3F14704   0.183   0.242   5.901 -0.0411  0.5009  2.8738
  135OSM    H3G14705   0.327   0.150   5.855 -2.1101 -0.5119 -0.9654
  135OSM    C4F14706   0.345   0.369   5.807  0.0219  0.6091 -0.1941
  135OSM    H4F14707   0.321   0.462   5.863  1.5548 -0.0711  1.6875
  135OSM    H4G14708   0.456   0.373   5.808  0.0071  2.1445 -1.0675
  135OSM    C5F14709   0.299   0.338   5.666 -0.0128  0.1603 -0.6715
  135OSM    H5F14710   0.190   0.315   5.670 -0.0865  0.6715  0.8683
  135OSM    H5G14711   0.352   0.252   5.620  1.1258 -2.1988  4.3945
  135OSM    C6F14712   0.306   0.461   5.570 -0.6066 -0.8562 -0.4797
  135OSM    H6F14713   0.415   0.478   5.556 -1.2083  1.5770 -2.9984
  135OSM    H6G14714   0.263   0.552   5.618 -1.8407 -0.7758 -1.7008
  135OSM    C7F14715   0.232   0.447   5.441  0.4132  0.4626  0.2922
  135OSM    H7F14716   0.127   0.419   5.465  1.0625 -1.7260  0.8317
  135OSM    H7G14717   0.280   0.362   5.388 -0.6223  0.9783 -1.5534
  135OSM    C8F14718   0.244   0.578   5.355  0.3669 -0.0739 -0.0146
  135OSM    H8F14719   0.211   0.666   5.414  1.0088  0.4123 -0.3797
  135OSM    H8G14720   0.161   0.575   5.281 -0.9684 -0.3224  1.4359
  135OSM    C9F14721   0.384   0.590   5.296  0.1143 -0.2144  0.4008
  135OSM    H9F14722   0.457   0.639   5.362 -0.4231  2.0758 -0.6206
  135OSM   C10F14723   0.415   0.546   5.174  0.2538 -0.6339  0.1452
  135OSM   H10F14724   0.516   0.563   5.134  0.4246  0.5694  1.0268
  135OSM   C11F14725   0.319   0.482   5.073 -0.2039  0.5641  0.7036
  135OSM   H11F14726   0.231   0.434   5.122 -0.1096  0.3590  0.6740
  135OSM   H11G14727   0.381   0.396   5.038 -1.1815  0.3506 -0.5765
  135OSM   C12F14728   0.268   0.573   4.959  0.0091  0.4216 -0.2932
  135OSM   H12F14729   0.191   0.643   4.999 -0.9995 -0.3028 -0.9350
  135OSM   H12G14730   0.203   0.517   4.888 -1.8053  2.5022 -0.4018
  135OSM   C13F14731   0.375   0.656   4.877 -0.4539 -0.5030 -0.2541
  135OSM   H13F14732   0.442   0.713   4.945  1.9922 -1.7418 -1.4622
  135OSM   H13G14733   0.312   0.731   4.825 -1.0608  0.0818  1.2611
  135OSM   C14F14734   0.464   0.566   4.786  0.3426  0.1268  0.1309
  135OSM   H14F14735   0.539   0.514   4.849  0.7253 -1.6156 -1.6570
  135OSM   H14G14736   0.537   0.620   4.721 -0.7725 -1.2615 -2.4396
  135OSM   C15F14737   0.385   0.485   4.677  0.4069 -0.1947  0.8004
  135OSM   H15F14738   0.293   0.436   4.713  1.1651 -2.7846 -0.5126
  135OSM   H15G14739   0.448   0.407   4.627  1.7649  1.5529 -0.3626
  135OSM   C16F14740   0.340   0.591   4.576  0.3166 -0.1224  0.4846
  135OSM   H16F14741   0.416   0.672   4.562 -0.4298  1.1193  2.9590
  135OSM   H16G14742   0.252   0.641   4.622 -1.3286 -2.2067 -0.2556
  135OSM   C17F14743   0.310   0.532   4.439  0.4749  0.2425  0.0138
  135OSM   H17F14744   0.218   0.471   4.429 -0.8311  2.1878 -0.5163
  135OSM   H17G14745   0.382   0.450   4.419 -1.2244 -1.7757  1.7749
  135OSM   C18F14746   0.314   0.636   4.328  0.5524  0.3113  0.4466
  135OSM   H18F14747   0.265   0.595   4.237  1.9056  0.4863 -0.3886
  135OSM   H18G14748   0.413   0.664   4.286 -0.6385  0.7796 -2.2908
  135OSM   H18H14749   0.253   0.724   4.357 -1.4426 -0.5002 -1.0436
  136OSM      N14750   3.281   1.449   6.478 -0.1497 -0.1298 -0.1631
  136OSM    C1514751   3.385   1.433   6.587 -0.0769  1.3554 -0.2220
  136OSM   H15A14752   3.436   1.339   6.573 -2.4305  0.3568 -3.6859
  136OSM   H15B14753   3.333   1.436   6.682 -0.4634 -0.3625 -0.3534
  136OSM   H15C14754   3.456   1.514   6.580  0.1134  1.1970 -0.1037
  136OSM    C1414755   3.205   1.569   6.518  0.1903 -0.0162  0.0910
  136OSM   H14A14756   3.167   1.553   6.618  0.2182  0.4856  0.1841
  136OSM   H14B14757   3.131   1.602   6.447  0.4789 -0.2196 -0.3028
  136OSM   H14C14758   3.260   1.662   6.525 -1.1533  0.7792  0.7055
  136OSM    C1314759   3.359   1.488   6.359 -0.2341  0.0404  0.8270
  136OSM   H13A14760   3.426   1.406   6.339 -2.5114 -2.2347  1.8708
  136OSM   H13B14761   3.413   1.581   6.374  0.6334  0.0046 -1.5779
  136OSM   H13C14762   3.305   1.484   6.265  1.5789 -2.5499 -0.1966
  136OSM    C1214763   3.198   1.328   6.463  0.6499 -0.5234 -0.7068
  136OSM   H12A14764   3.169   1.283   6.557 -0.9118 -0.4946 -1.1472
  136OSM   H12B14765   3.263   1.250   6.425  1.5914 -0.2941  0.3974
  136OSM    C1114766   3.073   1.342   6.369 -0.3781  0.0661 -0.7607
  136OSM   H11A14767   3.036   1.238   6.351 -1.3939  0.4363 -0.9138
  136OSM   H11B14768   3.097   1.377   6.267 -0.4080 -1.0695 -1.1759
  136OSM      P14769   2.858   1.381   6.527  0.3977 -0.0607 -0.0675
  136OSM    O1314770   2.922   1.293   6.623 -0.0167 -0.2523 -0.0264
  136OSM    O1414771   2.787   1.499   6.575 -0.0816 -0.1283  0.3272
  136OSM    O1114772   2.752   1.286   6.457 -0.3398  0.3760 -0.1007
  136OSM    O1214773   2.970   1.428   6.425  0.3971  0.2484 -0.5207
  136OSM    C1S14774   2.700   1.346   6.340 -0.4276  0.6080 -0.4794
  136OSM    H1S14775   2.684   1.456   6.342  2.5156  1.1089  0.0731
  136OSM    H1T14776   2.595   1.309   6.343  0.6938 -2.9830 -0.7683
  136OSM     NF14777   2.708   1.374   6.092  0.9797  0.5073  0.4215
  136OSM    HNF14778   2.652   1.317   6.032  1.1101  0.1961  0.5908
  136OSM    C2S14779   2.764   1.303   6.206  0.1571  0.4643  0.5270
  136OSM    H2S14780   2.867   1.344   6.216  0.8065 -1.0656  0.3136
  136OSM    C3S14781   2.765   1.147   6.193  0.0306 -0.1154  0.0498
  136OSM    H3S14782   2.659   1.114   6.199  0.3248 -1.2982 -0.7649
  136OSM     O314783   2.819   1.075   6.304 -0.5174  0.3088  0.0635
  136OSM    HO314784   2.785   1.133   6.373  0.1536  0.0832  0.5981
  136OSM    C4S14785   2.830   1.094   6.066  0.3053  0.4751  0.5139
  136OSM    H4S14786   2.758   1.091   5.982 -0.0778 -1.4618  0.8721
  136OSM    C5S14787   2.953   1.048   6.043  0.1551  0.0780  0.2259
  136OSM    H5S14788   3.007   1.026   6.136  1.6643  0.4834 -0.5298
  136OSM    C6S14789   3.029   1.001   5.922  0.1399 -0.3134 -0.4282
  136OSM    H6S14790   3.058   0.896   5.943 -1.0832 -0.7349 -0.7749
  136OSM    H6T14791   3.122   1.062   5.919 -0.4298  0.6781  0.8430
  136OSM    C7S14792   2.942   0.997   5.796  0.6062 -0.0943 -0.1907
  136OSM    H7S14793   2.913   1.097   5.756  0.8118 -0.9155 -2.5361
  136OSM    H7T14794   2.843   0.952   5.821  1.1346 -0.7640  0.7203
  136OSM    C8S14795   2.994   0.928   5.667 -0.1480 -0.6986 -0.0279
  136OSM    H8S14796   3.022   0.822   5.686  2.2955 -0.0456  0.3341
  136OSM    H8T14797   3.087   0.981   5.638  0.3270 -0.2668  2.1111
  136OSM    C9S14798   2.886   0.938   5.560  0.2344 -0.1802 -0.0402
  136OSM    H9S14799   2.881   1.046   5.531  0.1672  1.1511  4.2615
  136OSM    H9T14800   2.789   0.901   5.599 -1.2618  4.1253  0.9203
  136OSM   C10S14801   2.919   0.857   5.438 -0.1901 -0.1568 -0.2469
  136OSM   H10S14802   2.844   0.877   5.359 -2.9128 -1.7594  1.7745
  136OSM   H10T14803   2.922   0.748   5.461 -2.0084 -0.0796  0.4721
  136OSM   C11S14804   3.052   0.895   5.377 -0.3147 -0.3520 -0.4802
  136OSM   H11S14805   3.124   0.825   5.425  1.5317 -0.2690 -2.9246
  136OSM   H11T14806   3.082   0.998   5.404 -1.2502 -0.2569  0.2344
  136OSM   C12S14807   3.040   0.891   5.225 -0.3338 -0.4084 -1.0123
  136OSM   H12S14808   2.982   0.981   5.196  1.5717  0.5309 -2.0988
  136OSM   H12T14809   2.986   0.802   5.186 -0.6171  0.1941 -2.0102
  136OSM   C13S14810   3.168   0.910   5.155  0.2712 -0.1042  0.1800
  136OSM   H13S14811   3.212   1.001   5.202 -0.4415 -0.7806  2.2949
  136OSM   H13T14812   3.153   0.922   5.046  1.6459 -2.5504 -0.3467
  136OSM   C14S14813   3.273   0.797   5.165 -0.5291 -0.0057 -0.0480
  136OSM   H14S14814   3.222   0.702   5.139 -0.4175  0.4197 -1.9311
  136OSM   H14T14815   3.303   0.788   5.272 -1.4091 -0.6245  0.1605
  136OSM   C15S14816   3.386   0.824   5.064  0.2255  0.0485  0.5291
  136OSM   H15S14817   3.417   0.928   5.086  1.9480 -0.8671  2.8527
  136OSM   H15T14818   3.340   0.820   4.963  0.5532 -1.1589  0.4102
  136OSM   C16S14819   3.502   0.733   5.074 -0.5019 -0.0047  0.8673
  136OSM   H16S14820   3.470   0.629   5.056 -1.4033  0.7553 -2.5555
  136OSM   H16T14821   3.538   0.742   5.179 -0.4799  3.2878  0.6906
  136OSM   C17S14822   3.616   0.761   4.980 -0.3286  0.1199  0.0324
  136OSM   H17S14823   3.583   0.752   4.874  1.1431  2.1659 -0.6635
  136OSM   H17T14824   3.680   0.672   4.998 -1.3226 -0.1263  2.7961
  136OSM   C18S14825   3.703   0.882   5.001  0.0643 -0.6067 -0.2478
  136OSM   H18S14826   3.709   0.885   5.112 -2.3658 -2.4964  0.0262
  136OSM   H18T14827   3.651   0.975   4.969 -0.4880 -1.3934 -1.7330
  136OSM   H18U14828   3.799   0.867   4.948  1.3919 -1.7715  2.2928
  136OSM    C1F14829   2.707   1.503   6.068  0.1849 -0.1587 -0.0900
  136OSM     OF14830   2.766   1.583   6.135 -0.1493  0.0424 -0.1989
  136OSM    C2F14831   2.622   1.548   5.954  0.2098 -0.3470 -0.5730
  136OSM    H2F14832   2.588   1.648   5.989  0.2317 -0.2163 -0.9140
  136OSM    H2G14833   2.535   1.482   5.937  0.1544 -0.6281  0.7173
  136OSM    C3F14834   2.703   1.546   5.823  0.0705 -0.4290  0.2654
  136OSM    H3F14835   2.721   1.441   5.792 -1.8132 -0.1948 -1.8809
  136OSM    H3G14836   2.805   1.587   5.838  0.4683 -1.3583  0.1732
  136OSM    C4F14837   2.623   1.621   5.720 -0.2541 -0.7162 -0.6479
  136OSM    H4F14838   2.623   1.728   5.750  1.9289 -1.4735  2.4905
  136OSM    H4G14839   2.520   1.581   5.708 -0.8975  0.5348  0.5165
  136OSM    C5F14840   2.696   1.620   5.591  0.4289  0.8267  0.4098
  136OSM    H5F14841   2.695   1.516   5.553  2.5524  1.4164 -1.4423
  136OSM    H5G14842   2.801   1.645   5.614 -0.1658  3.8370  0.2389
  136OSM    C6F14843   2.655   1.726   5.487  0.2824 -0.3073  0.4041
  136OSM    H6F14844   2.743   1.750   5.424  1.1017  2.1376  2.2983
  136OSM    H6G14845   2.632   1.816   5.547  2.0749 -0.2674  1.0902
  136OSM    C7F14846   2.542   1.682   5.396  0.3296 -1.0425  0.3312
  136OSM    H7F14847   2.478   1.768   5.367 -1.7256 -2.5298  0.1921
  136OSM    H7G14848   2.473   1.616   5.454  0.1741 -0.3067  1.0000
  136OSM    C8F14849   2.588   1.606   5.269 -0.5336 -0.2660  0.0767
  136OSM    H8F14850   2.500   1.558   5.220 -1.5118 -0.2754  1.7484
  136OSM    H8G14851   2.652   1.520   5.299  2.2091  1.6867  0.1809
  136OSM    C9F14852   2.640   1.704   5.171 -0.7766 -0.3880 -0.0954
  136OSM    H9F14853   2.702   1.785   5.213 -2.3578 -0.2073  2.0968
  136OSM   C10F14854   2.610   1.727   5.039 -0.1361 -0.5704 -0.9367
  136OSM   H10F14855   2.660   1.802   4.977 -1.2952 -0.8220 -2.2439
  136OSM   C11F14856   2.517   1.640   4.959  0.3904  0.2933  0.1011
  136OSM   H11F14857   2.467   1.706   4.884 -1.8414 -0.8314  0.5176
  136OSM   H11G14858   2.440   1.599   5.028  0.7790 -0.8333 -0.1156
  136OSM   C12F14859   2.598   1.528   4.891  0.9597  0.1912  0.2705
  136OSM   H12F14860   2.640   1.467   4.974 -0.0771 -0.8011  0.0880
  136OSM   H12G14861   2.670   1.581   4.825  0.1494 -1.4353 -2.0489
  136OSM   C13F14862   2.506   1.439   4.820  0.4992 -0.5798  0.1024
  136OSM   H13F14863   2.411   1.426   4.876  0.2752  1.0005  0.1370
  136OSM   H13G14864   2.554   1.339   4.813 -2.0534 -1.9654  0.8199
  136OSM   C14F14865   2.471   1.497   4.686  0.3542 -0.1752 -0.0649
  136OSM   H14F14866   2.441   1.604   4.694  0.5342 -0.1011 -0.3682
  136OSM   H14G14867   2.385   1.451   4.634  0.2678 -0.0423 -0.0425
  136OSM   C15F14868   2.579   1.474   4.580  0.6205  0.1848 -0.4999
  136OSM   H15F14869   2.592   1.367   4.556 -0.5372 -0.0827  0.0139
  136OSM   H15G14870   2.675   1.508   4.625 -0.0084 -0.5280  1.4889
  136OSM   C16F14871   2.561   1.545   4.447  0.4042  0.2999  0.3441
  136OSM   H16F14872   2.668   1.552   4.418 -0.0708 -0.6327 -1.7520
  136OSM   H16G14873   2.507   1.641   4.460  0.7327  0.9762 -2.6884
  136OSM   C17F14874   2.486   1.459   4.344  0.3944  0.4941  0.2825
  136OSM   H17F14875   2.381   1.432   4.369 -0.1651 -1.4692 -3.3799
  136OSM   H17G14876   2.540   1.362   4.336 -0.5533  0.0192 -0.6078
  136OSM   C18F14877   2.482   1.532   4.203 -0.2509 -0.1911 -0.6470
  136OSM   H18F14878   2.441   1.634   4.218 -0.6592 -0.3785 -0.4673
  136OSM   H18G14879   2.407   1.482   4.138  1.0677 -2.8990 -0.2089
  136OSM   H18H14880   2.585   1.545   4.163 -0.4518  1.2188 -0.7558
  137OSM      N14881   0.142   6.436   6.773 -0.0309  0.2980 -0.8134
  137OSM    C1514882   0.206   6.568   6.747  0.5484  0.1850  0.4639
  137OSM   H15A14883   0.171   6.647   6.812 -1.0853 -0.2179  0.1011
  137OSM   H15B14884   0.183   6.602   6.647  0.9127  1.9959  0.9454
  137OSM   H15C14885   0.313   6.568   6.759  0.4327 -0.7002  1.6028
  137OSM    C1414886   0.189   6.330   6.675 -0.6864 -0.7891  0.1813
  137OSM   H14A14887   0.292   6.298   6.688 -0.0227  1.1070 -0.0600
  137OSM   H14B14888   0.177   6.362   6.573 -0.4868 -0.1702  0.3483
  137OSM   H14C14889   0.126   6.243   6.687 -0.2674 -1.3860 -1.6074
  137OSM    C1314890   0.191   6.384   6.905 -0.2613 -0.4533  0.2464
  137OSM   H13A14891   0.139   6.296   6.938 -1.8059  0.7538  1.1222
  137OSM   H13B14892   0.177   6.461   6.979  0.3576  0.4409 -0.5349
  137OSM   H13C14893   0.298   6.368   6.902 -0.3645 -1.9085  2.1814
  137OSM    C1214894  -0.010   6.434   6.778  0.0866  1.1432 -0.1815
  137OSM   H12A14895  -0.044   6.507   6.850 -1.8821 -0.5856  0.7491
  137OSM   H12B14896  -0.047   6.340   6.815  0.3815 -0.2498 -3.1221
  137OSM    C1114897  -0.096   6.468   6.653  0.1561  0.1589 -0.1948
  137OSM   H11A14898  -0.204   6.456   6.673  0.0503 -1.2908 -1.4887
  137OSM   H11B14899  -0.069   6.402   6.568  0.0016  0.0934 -0.1933
  137OSM      P14900  -0.123   6.731   6.675 -0.4946  0.0793  0.0066
  137OSM    O1314901  -0.183   6.700   6.803 -0.5405 -0.2920 -0.1374
  137OSM    O1414902  -0.004   6.818   6.668 -0.4376  0.1844 -0.9571
  137OSM    O1114903  -0.225   6.793   6.572 -0.5782 -0.1365  0.0226
  137OSM    O1214904  -0.079   6.601   6.599 -0.0304 -0.4172 -0.5336
  137OSM    C1S14905  -0.206   6.819   6.427  0.4311  0.2648 -0.1693
  137OSM    H1S14906  -0.177   6.725   6.374 -1.9956 -1.2054  0.9234
  137OSM    H1T14907  -0.137   6.903   6.408  2.0290 -1.3765 -2.0533
  137OSM     NF14908  -0.299   6.870   6.218  0.0961  0.0313 -0.4461
  137OSM    HNF14909  -0.298   6.963   6.180  0.3110  0.6858  1.0872
  137OSM    C2S14910  -0.334   6.858   6.355  0.2726  0.5257 -0.1900
  137OSM    H2S14911  -0.402   6.770   6.363 -1.7582  1.8317 -2.0998
  137OSM    C3S14912  -0.412   6.979   6.415 -0.5125  0.3638 -0.3028
  137OSM    H3S14913  -0.350   7.068   6.395 -2.2047  1.8724  0.8842
  137OSM     O314914  -0.444   6.979   6.553 -0.2604 -0.3579 -0.2805
  137OSM    HO314915  -0.389   6.909   6.590 -1.1197 -0.7213  0.3476
  137OSM    C4S14916  -0.541   7.007   6.340  0.3722 -0.4203 -0.2355
  137OSM    H4S14917  -0.531   7.061   6.245  0.0473 -0.5383 -0.3396
  137OSM    C5S14918  -0.661   6.951   6.359  0.0847  0.1115 -0.6005
  137OSM    H5S14919  -0.681   6.895   6.451 -2.1713  2.5776  0.5565
  137OSM    C6S14920  -0.784   6.974   6.279 -0.2537  0.1197  0.4522
  137OSM    H6S14921  -0.831   7.067   6.319  1.2307 -0.2225  3.2210
  137OSM    H6T14922  -0.857   6.893   6.302 -2.1693  1.4323 -0.6575
  137OSM    C7S14923  -0.751   6.980   6.128  0.5060  0.3725 -0.3929
  137OSM    H7S14924  -0.711   6.882   6.094 -0.1119  0.2423 -0.7647
  137OSM    H7T14925  -0.681   7.061   6.101  0.8693  0.8461  1.8099
  137OSM    C8S14926  -0.872   7.006   6.039  0.5952  0.6985  0.7741
  137OSM    H8S14927  -0.920   7.103   6.064  0.4329  1.1526 -1.1539
  137OSM    H8T14928  -0.941   6.925   6.072 -1.4111  1.7358 -0.6722
  137OSM    C9S14929  -0.851   6.996   5.885 -0.4023  0.0787 -0.1512
  137OSM    H9S14930  -0.805   6.898   5.859 -1.7090 -0.9151  1.1191
  137OSM    H9T14931  -0.781   7.081   5.866  0.7704 -0.3892  1.7407
  137OSM   C10S14932  -0.988   6.991   5.810 -0.3937 -0.1306  0.6814
  137OSM   H10S14933  -1.041   7.088   5.824 -0.1182  0.5716 -2.3425
  137OSM   H10T14934  -1.049   6.916   5.864  0.6401  0.2379  2.4402
  137OSM   C11S14935  -0.976   6.973   5.659  0.7299 -0.0971 -0.4814
  137OSM   H11S14936  -0.956   6.867   5.636  2.2010  0.2627 -0.9481
  137OSM   H11T14937  -0.911   7.046   5.605 -2.0374  1.7794 -1.5631
  137OSM   C12S14938  -1.119   6.994   5.597  0.3437  0.6939  0.1627
  137OSM   H12S14939  -1.144   7.100   5.620  1.2467  0.6665  1.3620
  137OSM   H12T14940  -1.189   6.932   5.657 -0.0817  1.3877  0.3966
  137OSM   C13S14941  -1.132   6.955   5.446 -1.2287 -0.7579  0.0876
  137OSM   H13S14942  -1.239   6.964   5.418 -1.0256 -0.2322 -0.5225
  137OSM   H13T14943  -1.100   6.850   5.428 -0.4640 -0.5563  0.2656
  137OSM   C14S14944  -1.065   7.063   5.363 -0.2147 -0.0603  0.0347
  137OSM   H14S14945  -0.957   7.084   5.383 -0.2897  0.4920 -0.1080
  137OSM   H14T14946  -1.121   7.157   5.383 -1.3277 -0.7239  0.0781
  137OSM   C15S14947  -1.070   7.035   5.215 -0.2018 -0.0471  0.0766
  137OSM   H15S14948  -1.020   6.936   5.206 -1.3144 -0.8242  1.8555
  137OSM   H15T14949  -0.996   7.097   5.160 -1.7199 -0.2100 -2.2878
  137OSM   C16S14950  -1.209   7.019   5.156 -0.3476 -0.3844  0.1549
  137OSM   H16S14951  -1.256   7.118   5.170 -1.6869 -0.7406 -1.4769
  137OSM   H16T14952  -1.273   6.944   5.209 -2.6561  1.2163 -0.2224
  137OSM   C17S14953  -1.211   6.964   5.012 -0.2332 -0.4289 -0.1540
  137OSM   H17S14954  -1.172   6.860   5.009  1.6278  0.2491 -1.1771
  137OSM   H17T14955  -1.138   7.023   4.953  0.6663 -2.0661 -0.7595
  137OSM   C18S14956  -1.354   6.978   4.955 -0.1929 -0.0792 -0.3344
  137OSM   H18S14957  -1.423   6.905   5.003 -0.4956  0.9115  0.7857
  137OSM   H18T14958  -1.355   6.957   4.846  1.4407 -1.2850 -0.1594
  137OSM   H18U14959  -1.380   7.083   4.977  1.7430  0.4961 -0.6538
  137OSM    C1F14960  -0.269   6.780   6.135 -0.7665  0.5630 -0.0427
  137OSM     OF14961  -0.270   6.664   6.170 -0.7932 -0.7036 -0.0268
  137OSM    C2F14962  -0.246   6.814   5.986  0.3109  0.0194 -0.0067
  137OSM    H2F14963  -0.203   6.729   5.928 -0.5322 -0.3512 -0.1025
  137OSM    H2G14964  -0.170   6.895   5.978  0.3789  0.1118  1.3728
  137OSM    C3F14965  -0.375   6.859   5.920  0.6653  0.5332  0.1877
  137OSM    H3F14966  -0.390   6.967   5.941 -1.9529  0.0688  1.1545
  137OSM    H3G14967  -0.461   6.798   5.956  1.5053 -0.4143  0.6346
  137OSM    C4F14968  -0.380   6.858   5.767  0.0532  0.3841 -0.1204
  137OSM    H4F14969  -0.392   6.752   5.734 -2.0902  1.0540 -1.7005
  137OSM    H4G14970  -0.283   6.888   5.722  0.0865 -1.3198 -1.2862
  137OSM    C5F14971  -0.503   6.922   5.694 -0.0264 -0.3724  0.0179
  137OSM    H5F14972  -0.526   7.026   5.727  0.7199  0.3442 -1.6409
  137OSM    H5G14973  -0.600   6.875   5.723  0.3553 -0.6732  0.8256
  137OSM    C6F14974  -0.491   6.907   5.541 -0.8938  0.4379  0.0520
  137OSM    H6F14975  -0.482   6.797   5.529 -0.6098  0.3029  1.3050
  137OSM    H6G14976  -0.404   6.960   5.496  0.1231 -0.9632  0.2686
  137OSM    C7F14977  -0.620   6.950   5.471 -0.1156 -0.4370 -0.5494
  137OSM    H7F14978  -0.642   7.056   5.493 -0.5271 -0.5413 -0.4550
  137OSM    H7G14979  -0.712   6.905   5.513 -1.1427  2.1986  0.2268
  137OSM    C8F14980  -0.613   6.927   5.322  0.1494 -0.2733  0.0579
  137OSM    H8F14981  -0.714   6.934   5.277  0.8941  2.0350 -1.4413
  137OSM    H8G14982  -0.581   6.821   5.313 -2.8059 -1.1717 -0.7438
  137OSM    C9F14983  -0.537   7.033   5.251  0.0222  0.4741 -0.0569
  137OSM    H9F14984  -0.506   7.117   5.314 -0.1448  0.1447  0.4638
  137OSM   C10F14985  -0.522   7.039   5.118  0.5930 -0.6163 -0.3123
  137OSM   H10F14986  -0.462   7.124   5.083  0.2951 -0.1556  0.2664
  137OSM   C11F14987  -0.567   6.935   5.019 -0.3309 -0.0111  0.0174
  137OSM   H11F14988  -0.628   6.852   5.062 -1.7494 -0.6398 -2.9167
  137OSM   H11G14989  -0.477   6.892   4.969  0.3328  0.9087  0.3998
  137OSM   C12F14990  -0.643   7.004   4.908 -0.2718 -0.1059  0.9879
  137OSM   H12F14991  -0.578   7.070   4.847 -2.5834  1.0505 -0.3573
  137OSM   H12G14992  -0.728   7.059   4.954  1.1150  2.4117  0.7371
  137OSM   C13F14993  -0.708   6.903   4.812 -0.1309 -0.0303 -0.1824
  137OSM   H13F14994  -0.759   6.823   4.870 -1.5634  0.9003 -0.0913
  137OSM   H13G14995  -0.627   6.851   4.757  0.7391 -1.0056  1.9098
  137OSM   C14F14996  -0.821   6.969   4.728 -0.0403 -0.4175 -0.7684
  137OSM   H14F14997  -0.785   7.072   4.705 -2.6674  0.4468 -1.4112
  137OSM   H14G14998  -0.907   6.978   4.797 -0.6097  0.9144 -1.5986
  137OSM   C15F14999  -0.859   6.880   4.608  0.2197 -0.0573  0.2155
  137OSM   H15F15000  -0.887   6.776   4.638  1.1421 -0.3571  0.0679
  137OSM   H15G15001  -0.769   6.860   4.545 -1.1319  0.5921 -2.0154
  137OSM   C16F15002  -0.972   6.944   4.522  0.3401 -0.2860  0.3049
  137OSM   H16F15003  -0.997   6.867   4.446  0.0595 -0.1398  0.2469
  137OSM   H16G15004  -0.921   7.026   4.466 -1.7851  0.1963 -1.0141
  137OSM   C17F15005  -1.083   7.010   4.600  0.9995  0.0679  0.3661
  137OSM   H17F15006  -1.046   7.104   4.645 -1.2656  0.5773  1.3219
  137OSM   H17G15007  -1.124   6.938   4.675  1.3891 -0.4419  0.0969
  137OSM   C18F15008  -1.210   7.043   4.517  0.1203  0.0676  0.4688
  137OSM   H18F15009  -1.186   7.109   4.431 -0.4814  0.4808  0.6167
  137OSM   H18G15010  -1.289   7.088   4.581  0.1611 -1.9915  2.0799
  137OSM   H18H15011  -1.249   6.950   4.472 -0.3243  0.6389 -0.3320
  138OSM      N15012   1.909   0.083   6.148 -0.0104 -0.0957  0.0400
  138OSM    C1515013   1.997  -0.017   6.227  0.1638  0.1679 -0.0364
  138OSM   H15A15014   1.945  -0.104   6.264 -0.5049  0.4807 -0.2248
  138OSM   H15B15015   2.049   0.035   6.305  0.5104 -3.5390  2.4522
  138OSM   H15C15016   2.072  -0.059   6.161  0.8663  0.1311  0.7738
  138OSM    C1415017   1.839  -0.001   6.041 -0.4595  1.5456  0.3266
  138OSM   H14A15018   1.787  -0.082   6.088  0.5737 -1.9270 -3.8983
  138OSM   H14B15019   1.911  -0.042   5.972 -1.1613  2.0380 -0.7287
  138OSM   H14C15020   1.764   0.053   5.985 -0.3774  1.0068 -0.3188
  138OSM    C1315021   1.803   0.127   6.249 -0.0817 -0.2688 -0.4399
  138OSM   H13A15022   1.749   0.040   6.284  2.9604 -2.0757  0.1049
  138OSM   H13B15023   1.721   0.189   6.213 -0.6851 -0.8717 -0.1340
  138OSM   H13C15024   1.861   0.184   6.320 -0.7984  0.5373 -0.4717
  138OSM    C1215025   1.992   0.192   6.092 -0.2437 -0.1756 -0.5188
  138OSM   H12A15026   1.948   0.247   6.011  1.0746  0.2394 -0.9811
  138OSM   H12B15027   2.079   0.154   6.040 -1.4420 -0.6056 -2.2727
  138OSM    C1115028   2.035   0.298   6.192 -0.0951 -0.1707 -0.3857
  138OSM   H11A15029   1.948   0.338   6.247 -0.5123  0.2722 -1.3439
  138OSM   H11B15030   2.078   0.386   6.140 -0.5564 -0.8684 -2.0351
  138OSM      P15031   2.280   0.237   6.268 -0.5372 -0.1964 -0.1775
  138OSM    O1315032   2.319   0.359   6.339 -0.2324 -0.1239 -0.4068
  138OSM    O1415033   2.328   0.112   6.324  0.1053  0.3024  0.0380
  138OSM    O1115034   2.307   0.245   6.114 -0.6409  0.2996  0.3314
  138OSM    O1215035   2.129   0.233   6.278 -0.2873  0.1849  0.6068
  138OSM    C1S15036   2.334   0.133   6.038  0.1737 -0.0393  0.4236
  138OSM    H1S15037   2.242   0.073   6.023  0.6940 -0.5033 -1.0881
  138OSM    H1T15038   2.425   0.082   6.075  1.9589  2.9826  0.5867
  138OSM     NF15039   2.384   0.045   5.819  0.3682  0.0706  0.2074
  138OSM    HNF15040   2.476   0.009   5.832 -0.2511 -0.9421  2.0765
  138OSM    C2S15041   2.361   0.172   5.889  0.2801  0.1923 -0.0345
  138OSM    H2S15042   2.267   0.214   5.848  0.8631 -0.0959 -1.7522
  138OSM    C3S15043   2.480   0.265   5.894 -0.6812  0.1513  0.2759
  138OSM    H3S15044   2.560   0.211   5.950 -0.1389  1.5218  0.9031
  138OSM     O315045   2.472   0.383   5.972 -0.7558 -0.8830  0.0654
  138OSM    HO315046   2.386   0.377   6.015 -1.4134  0.4320 -0.9781
  138OSM    C4S15047   2.543   0.286   5.755  0.3678  0.6634 -0.2178
  138OSM    H4S15048   2.601   0.202   5.717 -0.4510  0.4251 -0.9805
  138OSM    C5S15049   2.524   0.388   5.668  0.1236  0.1304  1.1566
  138OSM    H5S15050   2.453   0.471   5.685 -2.2814 -1.3254 -1.0369
  138OSM    C6S15051   2.590   0.401   5.531  0.4735  0.6670  0.3211
  138OSM    H6S15052   2.575   0.303   5.480  0.5492  1.4102 -1.1971
  138OSM    H6T15053   2.699   0.421   5.544  0.5513  1.6363 -1.4921
  138OSM    C7S15054   2.525   0.520   5.461  0.4625 -0.0436 -0.2476
  138OSM    H7S15055   2.528   0.606   5.531 -0.6715 -1.2934  1.4480
  138OSM    H7T15056   2.415   0.502   5.452  0.7010 -1.3106 -0.8308
  138OSM    C8S15057   2.582   0.545   5.325  0.2702  1.2531 -0.0827
  138OSM    H8S15058   2.601   0.445   5.282  0.9085  0.2376  2.3845
  138OSM    H8T15059   2.685   0.582   5.345  0.7210 -0.3320  0.6245
  138OSM    C9S15060   2.496   0.624   5.227  0.6026 -0.0209 -1.0433
  138OSM    H9S15061   2.441   0.711   5.269 -2.1356 -0.7478 -2.8176
  138OSM    H9T15062   2.424   0.552   5.183  0.8364  0.0917 -1.6217
  138OSM   C10S15063   2.571   0.673   5.107 -0.1978 -0.0637  0.5557
  138OSM   H10S15064   2.657   0.724   5.154  0.5960  1.2706 -2.1568
  138OSM   H10T15065   2.512   0.752   5.055  0.6052  0.6250  0.6709
  138OSM   C11S15066   2.624   0.568   5.010 -0.3022  0.2828  0.3434
  138OSM   H11S15067   2.549   0.488   4.991 -0.1118  0.4048 -1.0471
  138OSM   H11T15068   2.717   0.520   5.048  1.2446  2.0894 -0.9975
  138OSM   C12S15069   2.665   0.617   4.866  0.9268 -0.1602 -0.0081
  138OSM   H12S15070   2.577   0.655   4.810 -0.3499 -2.3540  0.3973
  138OSM   H12T15071   2.703   0.529   4.810  3.1846 -0.0388  1.1945
  138OSM   C13S15072   2.778   0.718   4.867  0.2170  0.0805  0.3668
  138OSM   H13S15073   2.847   0.700   4.952  0.4797 -2.1874 -0.2703
  138OSM   H13T15074   2.736   0.819   4.882  0.0724 -0.0591  0.8872
  138OSM   C14S15075   2.867   0.714   4.744  0.4932  0.7010 -0.4657
  138OSM   H14S15076   2.830   0.793   4.676  2.2659  1.4033 -0.6880
  138OSM   H14T15077   2.861   0.612   4.701 -1.8135 -0.0568  1.4691
  138OSM   C15S15078   3.017   0.749   4.773  0.5355  0.8428 -0.7796
  138OSM   H15S15079   3.055   0.679   4.851  1.8085  1.0306 -1.2078
  138OSM   H15T15080   3.031   0.849   4.819  1.8848  1.3926 -2.2909
  138OSM   C16S15081   3.122   0.736   4.655 -0.2274 -0.1415 -0.5763
  138OSM   H16S15082   3.090   0.805   4.574 -2.0081  0.4213  0.5517
  138OSM   H16T15083   3.116   0.631   4.619 -1.8168 -0.6644  1.0759
  138OSM   C17S15084   3.265   0.771   4.696 -0.3582 -0.7349  0.0136
  138OSM   H17S15085   3.335   0.741   4.615 -0.0715 -0.2775  0.0908
  138OSM   H17T15086   3.289   0.717   4.790 -0.4556 -1.7027 -0.5063
  138OSM   C18S15087   3.289   0.915   4.715  0.6801  0.1380 -0.3661
  138OSM   H18S15088   3.241   0.956   4.807  2.1410  0.2875  0.3493
  138OSM   H18T15089   3.259   0.970   4.623  2.3974  1.1367 -0.3623
  138OSM   H18U15090   3.395   0.933   4.744 -0.0925  3.4682  0.8963
  138OSM    C1F15091   2.279  -0.038   5.785  0.4194 -0.9627 -0.3164
  138OSM     OF15092   2.165   0.005   5.787  0.2240 -0.2458 -0.3741
  138OSM    C2F15093   2.307  -0.180   5.749 -0.0567 -0.8860 -0.4444
  138OSM    H2F15094   2.338  -0.235   5.840  0.2966 -0.7445 -0.4775
  138OSM    H2G15095   2.386  -0.184   5.670 -0.5573  0.1311 -1.0168
  138OSM    C3F15096   2.187  -0.260   5.690  0.0310  1.1599 -0.3287
  138OSM    H3F15097   2.131  -0.208   5.608 -1.0399 -0.9020 -0.9676
  138OSM    H3G15098   2.116  -0.264   5.775 -1.4449 -0.6498 -1.5600
  138OSM    C4F15099   2.221  -0.398   5.628  0.0031 -0.1756 -0.2451
  138OSM    H4F15100   2.127  -0.444   5.591 -1.1783  1.8915  0.0350
  138OSM    H4G15101   2.248  -0.462   5.714 -1.1572 -0.8209 -0.3392
  138OSM    C5F15102   2.338  -0.398   5.526 -0.7377 -0.2182  0.7045
  138OSM    H5F15103   2.355  -0.500   5.484 -1.1139  0.1426 -0.3631
  138OSM    H5G15104   2.432  -0.380   5.582 -0.2329  0.2148 -0.2644
  138OSM    C6F15105   2.311  -0.318   5.397  0.5895 -0.4459 -0.5692
  138OSM    H6F15106   2.410  -0.307   5.349  0.3471  0.4581 -0.8740
  138OSM    H6G15107   2.279  -0.218   5.433  0.2922 -0.8731  0.3911
  138OSM    C7F15108   2.222  -0.392   5.300  0.2589 -0.9341 -0.6550
  138OSM    H7F15109   2.114  -0.385   5.324 -0.6514 -2.5704 -3.7087
  138OSM    H7G15110   2.254  -0.499   5.300  0.4999 -0.9429  2.3813
  138OSM    C8F15111   2.229  -0.336   5.150 -0.1548 -0.1563  0.8846
  138OSM    H8F15112   2.169  -0.404   5.086 -0.7908  0.3170  0.9708
  138OSM    H8G15113   2.332  -0.364   5.118 -1.3968 -3.5355 -0.6199
  138OSM    C9F15114   2.185  -0.194   5.128 -0.3090  0.0077 -0.1904
  138OSM    H9F15115   2.148  -0.148   5.221 -2.0527 -1.1741 -0.2563
  138OSM   C10F15116   2.168  -0.132   5.011  0.0155 -0.5846 -0.0118
  138OSM   H10F15117   2.139  -0.026   5.010  1.8467 -0.0215  1.2557
  138OSM   C11F15118   2.216  -0.175   4.876 -0.5751  1.0651  0.4519
  138OSM   H11F15119   2.134  -0.231   4.826 -0.5260  1.1858  0.2370
  138OSM   H11G15120   2.296  -0.248   4.903  0.2733  2.1614  0.9784
  138OSM   C12F15121   2.262  -0.054   4.802  0.1709 -0.0998  0.3975
  138OSM   H12F15122   2.339  -0.004   4.865 -1.2718  0.7748  1.5471
  138OSM   H12G15123   2.184   0.020   4.774 -0.7426 -1.6517 -1.3554
  138OSM   C13F15124   2.317  -0.083   4.663  0.1238 -0.1496 -0.6052
  138OSM   H13F15125   2.249  -0.156   4.614  1.4097 -0.5381 -1.8607
  138OSM   H13G15126   2.413  -0.138   4.662 -0.4192 -1.1165 -0.5861
  138OSM   C14F15127   2.319   0.040   4.568  0.4712 -0.5032  0.1714
  138OSM   H14F15128   2.210   0.062   4.562  0.7045  0.3318 -1.7415
  138OSM   H14G15129   2.360   0.000   4.472  0.6606  0.3749 -0.1225
  138OSM   C15F15130   2.399   0.157   4.633  0.0366  0.4183  0.5993
  138OSM   H15F15131   2.501   0.121   4.659  0.1733 -0.5693 -1.1199
  138OSM   H15G15132   2.357   0.179   4.733  0.8420  2.7532  0.4866
  138OSM   C16F15133   2.425   0.267   4.530 -0.8520  0.2273  0.1471
  138OSM   H16F15134   2.330   0.311   4.494 -0.2659 -0.0302 -1.8998
  138OSM   H16G15135   2.465   0.235   4.431 -0.8658  0.6872 -0.0094
  138OSM   C17F15136   2.514   0.377   4.598  0.3679 -0.0135  1.3174
  138OSM   H17F15137   2.607   0.325   4.631  1.5087 -0.1081 -1.7754
  138OSM   H17G15138   2.464   0.422   4.687  0.1769  1.2737  0.5758
  138OSM   C18F15139   2.555   0.492   4.498  0.1785 -0.1903  0.5041
  138OSM   H18F15140   2.641   0.552   4.535 -0.9240  1.8874 -0.1440
  138OSM   H18G15141   2.469   0.562   4.497 -0.1116 -0.3611 -3.4820
  138OSM   H18H15142   2.571   0.451   4.395  1.3354  0.6428  0.3374
  139OSM      N15143   4.696   2.574   6.740  0.2600  0.9433  0.9447
  139OSM    C1515144   4.566   2.546   6.808 -0.6752 -0.7587 -0.2649
  139OSM   H15A15145   4.586   2.457   6.866  0.3920 -1.1816 -1.2346
  139OSM   H15B15146   4.493   2.533   6.730 -1.7324  2.0312  0.1417
  139OSM   H15C15147   4.535   2.628   6.872  1.0518  0.5509 -1.0192
  139OSM    C1415148   4.710   2.462   6.632  0.5232 -0.1053  0.2517
  139OSM   H14A15149   4.631   2.482   6.561  0.3604  3.2844  1.2217
  139OSM   H14B15150   4.708   2.357   6.659 -0.5169 -0.5779 -1.4541
  139OSM   H14C15151   4.803   2.478   6.581 -0.3947  1.8916 -0.9015
  139OSM    C1315152   4.668   2.698   6.663 -0.3202  0.6172  0.2254
  139OSM   H13A15153   4.738   2.706   6.582 -1.3404  0.7818 -0.6511
  139OSM   H13B15154   4.687   2.781   6.729 -1.3623  1.8359 -0.9547
  139OSM   H13C15155   4.568   2.710   6.624  0.1205 -0.6001 -1.4002
  139OSM    C1215156   4.814   2.578   6.831  0.1697  0.5525  0.3659
  139OSM   H12A15157   4.900   2.588   6.766  0.3528  0.5162  0.5991
  139OSM   H12B15158   4.820   2.485   6.886 -2.0722  1.2001  1.8202
  139OSM    C1115159   4.826   2.693   6.938  0.4333  0.2010 -0.4548
  139OSM   H11A15160   4.920   2.680   6.996 -0.3170 -0.8930  0.5428
  139OSM   H11B15161   4.748   2.656   7.007  0.8525 -2.5219 -1.3366
  139OSM      P15162   4.891   2.941   6.938 -0.0209 -0.4961  0.5161
  139OSM    O1315163   4.802   3.019   7.020 -0.2255  0.5160  0.0058
  139OSM    O1415164   5.019   2.900   6.990 -0.4825 -0.4983  0.0809
  139OSM    O1115165   4.919   3.017   6.801 -0.1630  0.3992  0.7461
  139OSM    O1215166   4.813   2.820   6.875 -0.3196  0.0256 -0.3438
  139OSM    C1S15167   4.972   2.935   6.693  0.4343 -0.0311  0.3415
  139OSM    H1S15168   4.899   2.858   6.663 -0.6954  0.9384  0.5395
  139OSM    H1T15169   5.071   2.890   6.718  1.8173  0.8478 -3.0502
  139OSM     NF15170   5.001   2.957   6.445  0.1895 -0.4959  0.5967
  139OSM    HNF15171   5.092   2.949   6.405 -0.9879 -3.0433 -1.8996
  139OSM    C2S15172   5.000   3.028   6.568  0.0649  0.8721 -0.2821
  139OSM    H2S15173   4.911   3.094   6.558 -2.1691 -1.7826  0.6991
  139OSM    C3S15174   5.124   3.117   6.610  0.1861  0.2860 -0.3593
  139OSM    H3S15175   5.206   3.050   6.641 -1.7273 -1.6356  0.8335
  139OSM     O315176   5.099   3.201   6.726 -0.3462  0.3965 -0.3328
  139OSM    HO315177   5.022   3.167   6.773  0.9241  0.7233  2.1732
  139OSM    C4S15178   5.155   3.208   6.497 -0.2953  0.2518  0.4158
  139OSM    H4S15179   5.084   3.291   6.504  0.4357  0.9985 -0.8039
  139OSM    C5S15180   5.254   3.203   6.404  0.1706 -0.2057  0.3924
  139OSM    H5S15181   5.327   3.121   6.418 -1.3850 -1.4592  1.6347
  139OSM    C6S15182   5.270   3.307   6.296  0.0650  0.3454  0.1350
  139OSM    H6S15183   5.353   3.373   6.330  0.1202  0.0062  0.6791
  139OSM    H6T15184   5.177   3.365   6.281 -0.0745 -0.0574 -0.6081
  139OSM    C7S15185   5.304   3.257   6.156  0.4861  0.7580 -0.0947
  139OSM    H7S15186   5.394   3.192   6.150  0.4885  0.7708 -0.1888
  139OSM    H7T15187   5.319   3.346   6.091  0.2424  0.6851 -0.2501
  139OSM    C8S15188   5.184   3.176   6.097  0.6118  0.7875  0.5036
  139OSM    H8S15189   5.102   3.251   6.098 -0.9343 -0.6921 -1.9509
  139OSM    H8T15190   5.146   3.096   6.165 -0.2587 -1.0328 -1.9610
  139OSM    C9S15191   5.205   3.115   5.964  0.4343  0.0311  0.1296
  139OSM    H9S15192   5.226   3.200   5.895 -1.2056  2.4745  2.4215
  139OSM    H9T15193   5.106   3.078   5.929 -0.1979  1.3548  0.4445
  139OSM   C10S15194   5.304   2.996   5.954  0.0798  0.3528  0.7460
  139OSM   H10S15195   5.276   2.919   6.029  1.3509  1.1133  2.0491
  139OSM   H10T15196   5.409   3.031   5.961  0.3642 -0.4456  0.6626
  139OSM   C11S15197   5.282   2.930   5.812  0.2499 -0.4430 -0.4244
  139OSM   H11S15198   5.302   3.010   5.737  2.5518 -0.5030  0.0318
  139OSM   H11T15199   5.177   2.903   5.788  0.3888 -0.2757 -1.2373
  139OSM   C12S15200   5.361   2.800   5.795 -0.0363 -0.6079  0.0318
  139OSM   H12S15201   5.345   2.733   5.882 -1.0833 -1.7616 -0.9997
  139OSM   H12T15202   5.467   2.828   5.778  0.0118 -0.2774  0.8532
  139OSM   C13S15203   5.326   2.716   5.669 -0.5388 -0.3160 -0.2840
  139OSM   H13S15204   5.365   2.770   5.580 -0.1878  1.5992  0.9691
  139OSM   H13T15205   5.216   2.707   5.659 -0.9034  1.3909  1.5418
  139OSM   C14S15206   5.380   2.575   5.680 -0.7696 -0.0121 -0.5847
  139OSM   H14S15207   5.330   2.516   5.759 -0.3043 -1.0488 -1.0458
  139OSM   H14T15208   5.489   2.594   5.692 -0.5667 -1.1552 -0.5777
  139OSM   C15S15209   5.350   2.502   5.551 -0.5069 -0.0437  0.0827
  139OSM   H15S15210   5.374   2.567   5.464 -2.5048  1.5321  0.6284
  139OSM   H15T15211   5.242   2.488   5.534 -0.2518 -0.9435 -0.9241
  139OSM   C16S15212   5.413   2.359   5.536 -0.6269  0.3017  0.5500
  139OSM   H16S15213   5.392   2.296   5.624  1.0491 -1.7716 -0.4489
  139OSM   H16T15214   5.522   2.378   5.527 -0.5878  0.2216  0.8465
  139OSM   C17S15215   5.369   2.268   5.414  0.0906  0.1508 -0.0715
  139OSM   H17S15216   5.258   2.268   5.416  0.0513  0.9513  3.3771
  139OSM   H17T15217   5.409   2.165   5.428 -0.8170 -0.0825  0.8966
  139OSM   C18S15218   5.406   2.323   5.275  0.6152  0.4284 -0.1691
  139OSM   H18S15219   5.516   2.320   5.261  0.7133  1.5108  0.2253
  139OSM   H18T15220   5.384   2.432   5.268  1.0192  0.4931 -0.4561
  139OSM   H18U15221   5.357   2.275   5.188 -0.6505 -0.8871  1.1989
  139OSM    C1F15222   4.896   2.881   6.404  0.0391  1.1573  0.5467
  139OSM     OF15223   4.784   2.896   6.446  0.1668 -0.5528  0.1417
  139OSM    C2F15224   4.931   2.777   6.304  0.2141  0.5538 -0.2925
  139OSM    H2F15225   4.916   2.675   6.344  0.2215 -0.2629 -2.2753
  139OSM    H2G15226   5.041   2.785   6.290 -0.0177  2.7676 -1.2896
  139OSM    C3F15227   4.871   2.815   6.166  0.6315 -0.8999  0.1157
  139OSM    H3F15228   4.909   2.914   6.131 -0.1848 -0.4593  0.4649
  139OSM    H3G15229   4.761   2.821   6.170  0.5970 -1.5904  0.2651
  139OSM    C4F15230   4.910   2.720   6.048  0.0465  0.6953  0.1012
  139OSM    H4F15231   4.890   2.618   6.088 -0.4736  1.4841  2.0054
  139OSM    H4G15232   5.017   2.732   6.024 -0.5264  1.3522 -2.4038
  139OSM    C5F15233   4.838   2.738   5.912  0.0099 -0.8325  0.1941
  139OSM    H5F15234   4.727   2.739   5.924  0.1603  1.4790  2.2567
  139OSM    H5G15235   4.872   2.659   5.842 -0.5631  0.3211 -1.4507
  139OSM    C6F15236   4.873   2.869   5.834  0.0741  0.6754 -0.2038
  139OSM    H6F15237   4.976   2.899   5.865  1.5500 -1.0055 -3.0423
  139OSM    H6G15238   4.808   2.956   5.858  0.0962  0.6056  0.1137
  139OSM    C7F15239   4.876   2.854   5.678 -0.2566 -0.3293  0.7967
  139OSM    H7F15240   4.768   2.857   5.652  0.3234  0.5639 -1.7795
  139OSM    H7G15241   4.905   2.751   5.651 -0.3513  0.3598 -2.2448
  139OSM    C8F15242   4.934   2.965   5.591  0.0446  0.2000  0.5492
  139OSM    H8F15243   5.043   2.985   5.604  0.6145 -2.3702  0.2379
  139OSM    H8G15244   4.900   3.068   5.615  0.3220  0.4773 -0.1956
  139OSM    C9F15245   4.911   2.944   5.439 -0.0748 -0.0016 -0.6637
  139OSM    H9F15246   4.810   2.974   5.411 -0.0893 -0.1926 -0.8166
  139OSM   C10F15247   4.987   2.885   5.342 -0.2157 -0.5950  0.6268
  139OSM   H10F15248   4.963   2.888   5.235 -0.1985 -1.2113  0.6019
  139OSM   C11F15249   5.129   2.827   5.351  0.1523  0.1418  0.0268
  139OSM   H11F15250   5.182   2.838   5.448 -1.0800 -0.4308  0.7789
  139OSM   H11G15251   5.191   2.872   5.269  1.8347  0.7475  1.5535
  139OSM   C12F15252   5.128   2.676   5.321 -0.3944 -0.7919  0.0098
  139OSM   H12F15253   5.085   2.620   5.408  1.2977 -1.9634  0.1444
  139OSM   H12G15254   5.230   2.633   5.307  0.4036  0.7763  0.7283
  139OSM   C13F15255   5.048   2.622   5.199 -0.3760 -0.3647  0.5236
  139OSM   H13F15256   4.949   2.670   5.191  0.2277  0.9472  0.7581
  139OSM   H13G15257   5.039   2.512   5.211 -0.7195 -0.2100  1.8156
  139OSM   C14F15258   5.138   2.635   5.069  0.0710  0.2192 -0.1243
  139OSM   H14F15259   5.227   2.569   5.084 -2.0706 -2.3200  2.8565
  139OSM   H14G15260   5.168   2.741   5.059 -0.2215  0.2730 -0.4310
  139OSM   C15F15261   5.073   2.591   4.936  0.3187  0.5819  0.2061
  139OSM   H15F15262   5.132   2.639   4.855  0.8263  0.1531  0.3199
  139OSM   H15G15263   4.964   2.611   4.942 -0.1609 -1.5909 -0.2919
  139OSM   C16F15264   5.103   2.434   4.911  0.2693 -0.3426 -0.0966
  139OSM   H16F15265   5.050   2.375   4.989  1.1024  2.0041  2.3862
  139OSM   H16G15266   5.210   2.406   4.911  0.0659 -1.1899  0.9417
  139OSM   C17F15267   5.046   2.387   4.775 -0.9208  0.1502  0.1387
  139OSM   H17F15268   5.083   2.456   4.695  1.3380  0.8238  1.6824
  139OSM   H17G15269   4.937   2.408   4.781 -1.5859 -2.8404  0.0278
  139OSM   C18F15270   5.057   2.239   4.747 -0.3265  0.4349 -0.2421
  139OSM   H18F15271   5.158   2.194   4.749 -1.5824 -2.9380 -2.7701
  139OSM   H18G15272   5.019   2.222   4.644  0.5050 -1.1172 -0.3166
  139OSM   H18H15273   4.982   2.181   4.804 -1.3475  0.2420 -1.7015
  140OSM      N15274   6.047   0.237   6.784  0.4043  0.3871 -0.6796
  140OSM    C1515275   6.145   0.131   6.746 -0.0589 -0.2004  0.4588
  140OSM   H15A15276   6.196   0.160   6.655  1.5484 -0.1512  1.3453
  140OSM   H15B15277   6.102   0.034   6.731 -0.6440  0.0782  0.3158
  140OSM   H15C15278   6.222   0.118   6.820 -0.2108 -1.3997  0.4211
  140OSM    C1415279   6.123   0.375   6.811  0.1282  0.1121 -0.2428
  140OSM   H14A15280   6.164   0.407   6.716 -1.1669 -0.5264 -1.0504
  140OSM   H14B15281   6.205   0.370   6.881  0.0772 -0.1238 -0.1977
  140OSM   H14C15282   6.052   0.447   6.849  0.1867 -0.4411  0.9648
  140OSM    C1315283   5.952   0.254   6.679 -0.5380  0.5532 -0.4220
  140OSM   H13A15284   6.007   0.270   6.588  1.0263 -0.5086  0.2793
  140OSM   H13B15285   5.898   0.346   6.697  1.7575  1.8574  0.2553
  140OSM   H13C15286   5.887   0.169   6.668  0.4016  0.1150 -3.4810
  140OSM    C1215287   5.969   0.193   6.908  0.0188 -0.5005  0.7769
  140OSM   H12A15288   6.044   0.193   6.985  0.4252  2.0349  0.4908
  140OSM   H12B15289   5.941   0.090   6.895 -0.3713 -0.1547 -1.6944
  140OSM    C1115290   5.846   0.275   6.956 -0.3153 -0.8972  0.7320
  140OSM   H11A15291   5.808   0.229   7.049 -1.0623 -0.6878  0.5307
  140OSM   H11B15292   5.757   0.274   6.890  0.6839  0.8881 -0.7811
  140OSM      P15293   5.802   0.525   6.960 -0.0092 -0.1785  0.1066
  140OSM    O1315294   5.685   0.505   7.046  0.3720 -0.0399 -0.4029
  140OSM    O1415295   5.874   0.656   6.973  0.2298  0.0649 -0.2981
  140OSM    O1115296   5.758   0.503   6.811  0.2078  0.2521 -0.2177
  140OSM    O1215297   5.894   0.408   6.989  0.2642 -0.6158  0.2558
  140OSM    C1S15298   5.686   0.603   6.736  0.0214 -0.4018 -0.2253
  140OSM    H1S15299   5.735   0.703   6.740 -1.4591  0.3424  0.5844
  140OSM    H1T15300   5.583   0.608   6.779  1.4229  0.2854  3.4296
  140OSM     NF15301   5.619   0.666   6.510  0.1848  0.0099  0.0422
  140OSM    HNF15302   5.521   0.668   6.493 -0.2486  0.0510  2.1776
  140OSM    C2S15303   5.665   0.554   6.595 -0.3664  0.2825  0.4091
  140OSM    H2S15304   5.761   0.515   6.554  0.2919 -0.1210  2.2669
  140OSM    C3S15305   5.572   0.430   6.593  0.5370 -0.3223  0.1280
  140OSM    H3S15306   5.466   0.460   6.603  0.4052  0.2482 -2.4428
  140OSM     O315307   5.588   0.328   6.693  0.3020  0.1461 -0.0369
  140OSM    HO315308   5.658   0.362   6.750  0.6165 -0.2623 -0.1733
  140OSM    C4S15309   5.562   0.364   6.448 -0.1698  0.1846 -0.2542
  140OSM    H4S15310   5.463   0.362   6.402 -1.3122  0.7511  2.0205
  140OSM    C5S15311   5.649   0.272   6.405 -0.0931  0.2208  0.6548
  140OSM    H5S15312   5.743   0.251   6.460  0.3852  1.6556  0.4119
  140OSM    C6S15313   5.634   0.176   6.292  0.2262 -0.0628 -0.2442
  140OSM    H6S15314   5.625   0.071   6.327 -1.2649  0.5416  1.3221
  140OSM    H6T15315   5.722   0.177   6.224 -1.1746 -2.0654 -2.2448
  140OSM    C7S15316   5.512   0.203   6.196 -0.1224  0.3679 -0.2660
  140OSM    H7S15317   5.479   0.308   6.181 -1.0386  0.4002  1.6664
  140OSM    H7T15318   5.425   0.148   6.239 -0.2486  1.2420  0.6259
  140OSM    C8S15319   5.524   0.150   6.055  0.4099  0.0864  0.6451
  140OSM    H8S15320   5.529   0.040   6.048 -1.1833 -0.0091  0.4974
  140OSM    H8T15321   5.607   0.206   6.008 -0.8109  1.1147 -0.3964
  140OSM    C9S15322   5.390   0.170   5.964 -0.3502  0.4474 -0.4156
  140OSM    H9S15323   5.362   0.277   5.974  3.1097  1.2932  1.7310
  140OSM    H9T15324   5.314   0.098   6.001  0.5235 -0.9795 -1.3021
  140OSM   C10S15325   5.413   0.146   5.818 -0.0938  0.6055  0.1699
  140OSM   H10S15326   5.457   0.049   5.786 -1.0856 -0.6641  2.4579
  140OSM   H10T15327   5.482   0.228   5.787  0.1814  0.6854  0.9831
  140OSM   C11S15328   5.291   0.169   5.726  0.1258  0.1920 -0.1359
  140OSM   H11S15329   5.245   0.270   5.732  1.1993  0.8294 -1.8772
  140OSM   H11T15330   5.210   0.101   5.761 -1.0288 -0.1842 -3.2235
  140OSM   C12S15331   5.311   0.138   5.577  0.2955  0.0502  0.4532
  140OSM   H12S15332   5.330   0.030   5.562 -2.2896 -0.2042 -1.8549
  140OSM   H12T15333   5.399   0.189   5.533  0.6466 -1.2361 -0.3769
  140OSM   C13S15334   5.190   0.193   5.492 -0.4764  0.4900 -0.7386
  140OSM   H13S15335   5.192   0.301   5.519 -0.0896 -0.4947  3.9842
  140OSM   H13T15336   5.095   0.157   5.538 -0.7701  2.6896  0.5109
  140OSM   C14S15337   5.213   0.151   5.353  0.1310 -0.5243 -0.5330
  140OSM   H14S15338   5.196   0.042   5.358 -0.3188 -0.4953 -1.1892
  140OSM   H14T15339   5.315   0.162   5.311 -0.3880  2.8590 -1.1900
  140OSM   C15S15340   5.112   0.224   5.260  0.0847 -0.1832  0.5945
  140OSM   H15S15341   5.084   0.326   5.296 -0.9273  0.2735 -1.3317
  140OSM   H15T15342   5.023   0.159   5.252 -0.2495 -0.0149  2.4940
  140OSM   C16S15343   5.175   0.236   5.118  0.2338 -0.0932 -0.4140
  140OSM   H16S15344   5.222   0.140   5.088  1.0936  0.7170 -1.7640
  140OSM   H16T15345   5.251   0.317   5.114  0.2279 -0.0835 -0.3282
  140OSM   C17S15346   5.073   0.265   5.005  0.0395  0.3121 -1.2454
  140OSM   H17S15347   5.016   0.359   5.024 -0.5660 -0.6730  2.7219
  140OSM   H17T15348   4.997   0.184   5.005  2.0800 -1.6999 -1.3112
  140OSM   C18S15349   5.143   0.257   4.860  0.4840 -0.5683 -0.5013
  140OSM   H18S15350   5.064   0.268   4.783  0.4552 -2.3600 -0.7739
  140OSM   H18T15351   5.183   0.156   4.835  0.4620 -0.8797  0.6850
  140OSM   H18U15352   5.216   0.339   4.839 -0.5019  0.2631 -0.7266
  140OSM    C1F15353   5.686   0.777   6.481  0.3021  0.3135 -0.4879
  140OSM     OF15354   5.801   0.782   6.520 -0.5439  0.2398  0.5156
  140OSM    C2F15355   5.626   0.891   6.409  0.8387  0.6256 -0.6949
  140OSM    H2F15356   5.602   0.965   6.488 -0.2924  0.2036 -0.6205
  140OSM    H2G15357   5.526   0.855   6.378 -0.0546  2.1583  0.2344
  140OSM    C3F15358   5.694   0.948   6.281 -0.2503 -0.0872 -0.7716
  140OSM    H3F15359   5.788   1.002   6.306 -0.6975  0.6781 -0.7008
  140OSM    H3G15360   5.618   1.025   6.253 -0.2353  0.7330  1.2911
  140OSM    C4F15361   5.707   0.843   6.174 -0.7568 -0.4628  0.3692
  140OSM    H4F15362   5.745   0.751   6.224  1.5419  0.1513 -0.0948
  140OSM    H4G15363   5.790   0.880   6.110 -0.9480  0.7383  0.7816
  140OSM    C5F15364   5.587   0.835   6.089  0.3760 -0.0219 -0.0427
  140OSM    H5F15365   5.494   0.880   6.131  0.1126  0.7982 -1.4552
  140OSM    H5G15366   5.557   0.736   6.049 -2.1888  0.9386 -0.6665
  140OSM    C6F15367   5.600   0.906   5.951  0.3301 -0.5545 -0.6075
  140OSM    H6F15368   5.695   0.894   5.896  0.0447  2.9614 -2.1436
  140OSM    H6G15369   5.598   1.015   5.974 -2.0522 -0.7071  0.1904
  140OSM    C7F15370   5.486   0.888   5.860  0.2211  0.1681 -0.0314
  140OSM    H7F15371   5.433   0.984   5.842 -1.2149 -0.3725  1.0240
  140OSM    H7G15372   5.402   0.842   5.918 -0.2502  0.3114 -0.5914
  140OSM    C8F15373   5.530   0.806   5.730  0.2556  0.5361 -0.1527
  140OSM    H8F15374   5.619   0.850   5.680  0.7717 -0.0171  0.2590
  140OSM    H8G15375   5.451   0.813   5.653  0.2040  2.9304  0.0540
  140OSM    C9F15376   5.544   0.659   5.762  0.0528 -0.3035  0.8014
  140OSM    H9F15377   5.601   0.648   5.855 -0.2380 -0.8748  0.9217
  140OSM   C10F15378   5.476   0.560   5.714  0.0181  0.1675 -0.7348
  140OSM   H10F15379   5.496   0.456   5.745 -1.3132  0.9861  3.3557
  140OSM   C11F15380   5.386   0.571   5.596  0.7543  0.1302  0.5494
  140OSM   H11F15381   5.299   0.640   5.598  0.0006 -0.5615 -2.4304
  140OSM   H11G15382   5.337   0.472   5.584  0.6059  0.4643 -2.2575
  140OSM   C12F15383   5.468   0.585   5.464  0.5361 -0.0781  0.9687
  140OSM   H12F15384   5.556   0.518   5.473  0.8644  0.4581  1.8991
  140OSM   H12G15385   5.504   0.690   5.454  1.7370 -0.7324 -3.5091
  140OSM   C13F15386   5.389   0.541   5.331 -0.1168 -0.0071 -0.1503
  140OSM   H13F15387   5.282   0.561   5.354  0.2631  3.8034 -1.0690
  140OSM   H13G15388   5.395   0.431   5.318 -0.8158 -0.0512 -0.1358
  140OSM   C14F15389   5.448   0.603   5.201  0.9490 -0.0366 -0.0665
  140OSM   H14F15390   5.554   0.569   5.192  1.1936  0.4240  0.9997
  140OSM   H14G15391   5.452   0.713   5.213 -1.4504  0.2063 -0.8968
  140OSM   C15F15392   5.372   0.561   5.075  0.4045  0.1521  0.4197
  140OSM   H15F15393   5.263   0.565   5.093  0.1009 -1.5516 -0.8136
  140OSM   H15G15394   5.379   0.450   5.065 -0.9236  0.0924 -0.0002
  140OSM   C16F15395   5.430   0.630   4.952 -0.6016  0.0369 -0.2096
  140OSM   H16F15396   5.536   0.607   4.928  0.2232  2.9102  0.1759
  140OSM   H16G15397   5.433   0.738   4.979  2.7945  0.0821 -0.2834
  140OSM   C17F15398   5.349   0.595   4.830  0.0582  0.1199  0.0558
  140OSM   H17F15399   5.322   0.689   4.778 -0.1741  0.0640  0.0747
  140OSM   H17G15400   5.254   0.543   4.853 -0.2052  0.9595  0.9380
  140OSM   C18F15401   5.430   0.503   4.725  0.3473 -1.2341 -0.5760
  140OSM   H18F15402   5.531   0.545   4.708 -0.0223  0.2859  0.7574
  140OSM   H18G15403   5.360   0.485   4.641 -0.5276  1.0271 -0.3860
  140OSM   H18H15404   5.435   0.401   4.769  0.7472  0.3448  3.4897
  141OSM      N15405   3.369   0.312   6.367  0.2811  0.3369  0.8130
  141OSM    C1515406   3.272   0.202   6.377 -0.0632  1.3909 -0.3933
  141OSM   H15A15407   3.227   0.199   6.475  2.6487 -0.4551  0.9354
  141OSM   H15B15408   3.325   0.111   6.354 -0.8271  1.4010 -2.3428
  141OSM   H15C15409   3.189   0.206   6.308 -0.2890 -0.1063 -0.2463
  141OSM    C1415410   3.300   0.437   6.391  0.2073 -0.5218 -0.3704
  141OSM   H14A15411   3.255   0.429   6.489  1.6178  4.0744  0.8964
  141OSM   H14B15412   3.211   0.453   6.332  0.6076 -0.1552 -0.8764
  141OSM   H14C15413   3.359   0.527   6.388  0.5023 -0.7320 -2.1260
  141OSM    C1315414   3.471   0.295   6.481 -0.5425 -0.0995 -0.0906
  141OSM   H13A15415   3.515   0.198   6.464  1.2354  0.4511  1.0822
  141OSM   H13B15416   3.422   0.299   6.577 -1.1932  0.9301 -0.4493
  141OSM   H13C15417   3.555   0.361   6.473  0.3521 -1.1951  0.0390
  141OSM    C1215418   3.447   0.320   6.235  0.9057  0.4645  0.5092
  141OSM   H12A15419   3.521   0.398   6.244  0.6061  0.8108  0.0323
  141OSM   H12B15420   3.388   0.362   6.154  2.6740 -0.2563 -1.2177
  141OSM    C1115421   3.512   0.193   6.185 -0.3519  0.3054  0.4246
  141OSM   H11A15422   3.559   0.217   6.088  0.7991 -2.3008  0.2510
  141OSM   H11B15423   3.426   0.124   6.170 -0.2110 -0.2786  2.0632
  141OSM      P15424   3.608  -0.012   6.327  0.2564  0.1784  0.2061
  141OSM    O1315425   3.728  -0.057   6.397 -0.5541  0.0714 -0.6942
  141OSM    O1415426   3.478  -0.030   6.394 -0.6477  0.6516 -0.3210
  141OSM    O1115427   3.600  -0.092   6.194  0.2445 -0.0377  0.6080
  141OSM    O1215428   3.611   0.135   6.264  0.3236  0.6823 -0.6322
  141OSM    C1S15429   3.648  -0.036   6.068  0.3525 -0.0427  0.7461
  141OSM    H1S15430   3.723   0.045   6.068 -0.0263  0.5436 -3.2547
  141OSM    H1T15431   3.562   0.007   6.011  2.7712  0.8476 -2.5497
  141OSM     NF15432   3.762  -0.106   5.854 -0.1217  0.1607  0.0970
  141OSM    HNF15433   3.725  -0.130   5.765  0.1536 -1.6807  0.4357
  141OSM    C2S15434   3.691  -0.153   5.972 -0.0616  0.9263 -0.0290
  141OSM    H2S15435   3.763  -0.214   6.030  0.2823  1.5600  0.2117
  141OSM    C3S15436   3.567  -0.245   5.951 -0.0643  0.1958  0.5949
  141OSM    H3S15437   3.485  -0.187   5.903 -1.1052  0.5339  2.6717
  141OSM     O315438   3.502  -0.304   6.065 -0.0807 -1.0414  0.6697
  141OSM    HO315439   3.542  -0.252   6.135 -0.2985 -0.0951  0.1043
  141OSM    C4S15440   3.614  -0.348   5.853 -0.0918  0.0429  0.2664
  141OSM    H4S15441   3.593  -0.322   5.748 -0.0976  0.8946  0.4712
  141OSM    C5S15442   3.665  -0.470   5.876  0.2828  0.5119 -0.2338
  141OSM    H5S15443   3.661  -0.519   5.974 -0.8649 -0.5359 -0.7728
  141OSM    C6S15444   3.708  -0.570   5.772 -0.3841 -0.5283 -0.4467
  141OSM    H6S15445   3.622  -0.626   5.730 -0.2036 -0.5466 -0.7940
  141OSM    H6T15446   3.758  -0.650   5.831  0.9111  0.3020 -0.3781
  141OSM    C7S15447   3.800  -0.524   5.652 -0.3098 -0.1529 -0.0568
  141OSM    H7S15448   3.895  -0.486   5.695  0.3339 -1.1122 -0.6039
  141OSM    H7T15449   3.747  -0.450   5.588 -0.5891 -0.2620  0.0484
  141OSM    C8S15450   3.848  -0.644   5.570 -0.2811 -0.8067  0.7782
  141OSM    H8S15451   3.765  -0.690   5.512  0.6558 -1.7033  0.1260
  141OSM    H8T15452   3.890  -0.719   5.639  2.6219 -1.6237 -1.6598
  141OSM    C9S15453   3.945  -0.606   5.451 -0.1771 -0.4962 -0.1833
  141OSM    H9S15454   4.041  -0.565   5.489  0.5058 -0.0016 -2.2872
  141OSM    H9T15455   3.899  -0.523   5.393  1.4229  0.1213 -0.6350
  141OSM   C10S15456   3.982  -0.720   5.353 -0.2593  0.0656  0.0386
  141OSM   H10S15457   3.885  -0.764   5.322 -0.8438  0.8694  0.6630
  141OSM   H10T15458   4.044  -0.805   5.390  1.7288  1.1287 -0.6775
  141OSM   C11S15459   4.046  -0.652   5.223  0.1701  0.3987  0.6994
  141OSM   H11S15460   4.156  -0.639   5.234 -0.0872  4.0373  0.1531
  141OSM   H11T15461   3.996  -0.555   5.204 -0.0440  0.2982  0.7461
  141OSM   C12S15462   4.017  -0.748   5.105 -0.0743  0.4319 -0.0757
  141OSM   H12S15463   4.006  -0.698   5.006 -1.6087  1.3329  0.5231
  141OSM   H12T15464   3.914  -0.786   5.116  0.9707 -2.4462  0.5930
  141OSM   C13S15465   4.125  -0.859   5.094  0.0481 -0.8400  0.9290
  141OSM   H13S15466   4.150  -0.899   5.195  2.0235 -0.1091  0.7776
  141OSM   H13T15467   4.219  -0.811   5.060  0.0648 -1.7361 -0.3638
  141OSM   C14S15468   4.092  -0.976   4.999 -0.6194 -0.1971  0.1795
  141OSM   H14S15469   3.995  -1.020   5.030 -1.8847  1.9210 -0.6174
  141OSM   H14T15470   4.177  -1.048   5.006 -1.2016 -1.0275 -1.0808
  141OSM   C15S15471   4.095  -0.949   4.843  0.1911 -0.6502  0.3341
  141OSM   H15S15472   4.179  -0.887   4.804 -1.4805  1.5371 -0.0166
  141OSM   H15T15473   3.999  -0.899   4.817  1.1554  1.8828  1.2724
  141OSM   C16S15474   4.091  -1.084   4.770  0.9936 -0.7116 -0.4383
  141OSM   H16S15475   4.010  -1.145   4.816 -0.8811 -0.1124 -2.7745
  141OSM   H16T15476   4.187  -1.138   4.755  0.5911 -1.1877 -1.4392
  141OSM   C17S15477   4.014  -1.074   4.629 -0.0364  0.0716  0.0286
  141OSM   H17S15478   4.077  -1.023   4.553  0.3164 -0.3276  0.0488
  141OSM   H17T15479   3.919  -1.019   4.644 -0.9623 -1.7466  1.0775
  141OSM   C18S15480   3.997  -1.211   4.574  0.2841 -0.2895  0.2186
  141OSM   H18S15481   3.909  -1.262   4.619 -0.7395 -0.6231 -2.0197
  141OSM   H18T15482   4.090  -1.270   4.590  1.9359  1.5449 -1.9288
  141OSM   H18U15483   3.960  -1.205   4.470 -1.5497  0.3821  0.8675
  141OSM    C1F15484   3.873  -0.032   5.846 -0.3432  0.1519  0.5109
  141OSM     OF15485   3.914   0.019   5.946  0.0038 -0.7529 -0.2174
  141OSM    C2F15486   3.933  -0.014   5.713  0.9686 -0.4193  0.3393
  141OSM    H2F15487   4.033   0.034   5.724 -0.0652  1.5047  1.8898
  141OSM    H2G15488   3.878   0.060   5.651  2.7443  0.2185 -0.5359
  141OSM    C3F15489   3.948  -0.147   5.638  0.5296 -0.0914  0.3031
  141OSM    H3F15490   3.843  -0.177   5.615  0.3162  0.2680  0.8097
  141OSM    H3G15491   3.997  -0.225   5.699  1.0245  0.5684  0.7615
  141OSM    C4F15492   4.020  -0.125   5.511 -0.2704 -0.1623 -0.8793
  141OSM    H4F15493   4.129  -0.112   5.532 -0.2573 -1.3085 -0.1572
  141OSM    H4G15494   4.000  -0.037   5.447 -0.3750  2.7751  2.8730
  141OSM    C5F15495   4.015  -0.253   5.433 -0.3594 -0.1160 -0.0692
  141OSM    H5F15496   3.913  -0.294   5.417  0.4584 -3.0869  1.5798
  141OSM    H5G15497   4.052  -0.331   5.503 -1.4211 -2.5432 -2.0295
  141OSM    C6F15498   4.098  -0.267   5.299 -0.4553  0.1737 -0.0191
  141OSM    H6F15499   4.157  -0.361   5.306 -0.1622  0.4360  1.3874
  141OSM    H6G15500   4.176  -0.188   5.299 -0.3880  0.1071 -0.2599
  141OSM    C7F15501   4.006  -0.266   5.182  0.9638  0.0929 -0.3532
  141OSM    H7F15502   3.914  -0.327   5.195  0.8486 -0.5894 -3.5290
  141OSM    H7G15503   4.058  -0.323   5.101 -2.6984 -2.5859 -1.0703
  141OSM    C8F15504   3.968  -0.121   5.138 -0.3562  0.0758  0.5346
  141OSM    H8F15505   4.063  -0.066   5.120  1.5412 -3.1023  0.1677
  141OSM    H8G15506   3.920  -0.072   5.226 -1.8871 -0.4708  0.0412
  141OSM    C9F15507   3.889  -0.132   5.009 -0.0568  0.7678 -0.6063
  141OSM    H9F15508   3.814  -0.212   5.015 -0.0849  0.8861  1.2653
  141OSM   C10F15509   3.909  -0.065   4.896  0.1081 -0.5927  0.3792
  141OSM   H10F15510   3.839  -0.088   4.815 -1.2710  2.0450  0.6929
  141OSM   C11F15511   4.019   0.038   4.862  0.4543 -1.0763  0.1234
  141OSM   H11F15512   4.041   0.041   4.753  0.1981  2.0776  0.0597
  141OSM   H11G15513   4.109   0.012   4.921  0.3512 -0.2961  0.6364
  141OSM   C12F15514   3.970   0.179   4.906  0.1773 -0.2139 -0.3308
  141OSM   H12F15515   3.863   0.202   4.894  0.4834  0.9591 -0.9286
  141OSM   H12G15516   4.019   0.253   4.839 -0.3827 -0.7439 -1.3464
  141OSM   C13F15517   4.029   0.221   5.047  0.3742  0.2653  0.3716
  141OSM   H13F15518   4.136   0.192   5.044 -0.0708 -2.2757  3.6341
  141OSM   H13G15519   4.003   0.154   5.131 -0.0295 -3.2615 -2.3325
  141OSM   C14F15520   4.026   0.368   5.086 -0.4201 -0.1981 -0.0040
  141OSM   H14F15521   4.070   0.425   5.001 -0.4879  2.6080  1.6956
  141OSM   H14G15522   4.090   0.393   5.173 -2.1028  0.7734  1.0101
  141OSM   C15F15523   3.889   0.432   5.108 -0.1763 -1.0010 -0.4254
  141OSM   H15F15524   3.822   0.431   5.019  2.6280  3.4285 -3.0181
  141OSM   H15G15525   3.901   0.543   5.112  0.1912 -0.9809 -1.7166
  141OSM   C16F15526   3.819   0.378   5.234  0.2566  0.3950  0.1675
  141OSM   H16F15527   3.895   0.383   5.314 -0.4142  1.5010  0.7517
  141OSM   H16G15528   3.778   0.276   5.219  2.4986 -0.3623 -1.4824
  141OSM   C17F15529   3.709   0.469   5.281  0.3400 -0.5817  0.4666
  141OSM   H17F15530   3.631   0.483   5.203  0.5442 -0.2564  0.3228
  141OSM   H17G15531   3.741   0.572   5.307  0.4835 -0.2154 -1.0633
  141OSM   C18F15532   3.639   0.416   5.406  0.3511  0.3562 -0.1048
  141OSM   H18F15533   3.710   0.419   5.491 -0.2422 -2.0264  0.5536
  141OSM   H18G15534   3.604   0.310   5.403  3.0679 -0.6550  0.9010
  141OSM   H18H15535   3.555   0.484   5.430 -0.8554 -1.7779  2.2090
  142OSM      N15536   3.821   6.402   6.682 -0.2182  0.2040  0.1417
  142OSM    C1515537   3.799   6.261   6.731  0.0950  0.1300 -0.1748
  142OSM   H15A15538   3.728   6.259   6.813 -0.1225  1.1771 -0.3292
  142OSM   H15B15539   3.891   6.216   6.766  1.5344  1.3428 -2.2098
  142OSM   H15C15540   3.755   6.204   6.649 -1.2727  1.3280 -0.3175
  142OSM    C1415541   3.683   6.457   6.653  0.0945 -0.3233  0.8056
  142OSM   H14A15542   3.625   6.435   6.741  0.8940 -0.7237  1.2455
  142OSM   H14B15543   3.645   6.398   6.571  0.8352 -1.6969  1.4120
  142OSM   H14C15544   3.683   6.563   6.634 -0.2164 -0.3544  0.6182
  142OSM    C1315545   3.896   6.483   6.781 -0.1025 -0.4840  0.3327
  142OSM   H13A15546   3.889   6.586   6.748  2.4060 -0.6576 -0.9383
  142OSM   H13B15547   4.000   6.463   6.799  0.3238  0.7079 -0.6629
  142OSM   H13C15548   3.851   6.481   6.880  1.5089  1.2669  1.1649
  142OSM    C1215549   3.910   6.394   6.560  0.0139  0.9220  0.3033
  142OSM   H12A15550   3.919   6.499   6.536 -0.4232  0.3598 -2.7464
  142OSM   H12B15551   3.849   6.364   6.476  0.2584  1.2943 -0.0130
  142OSM    C1115552   4.044   6.321   6.576  0.7481  0.1726 -0.7554
  142OSM   H11A15553   4.093   6.390   6.648  0.0962 -2.1068  2.0116
  142OSM   H11B15554   4.099   6.326   6.479 -1.3507 -0.2569 -2.0450
  142OSM      P15555   4.049   6.057   6.549  0.1066 -0.5579 -0.6360
  142OSM    O1315556   4.023   5.938   6.635 -0.8381  0.7799  0.1292
  142OSM    O1415557   3.960   6.072   6.430 -0.2881  0.3184 -0.8431
  142OSM    O1115558   4.193   6.063   6.497  0.1233  0.1410  0.8820
  142OSM    O1215559   4.049   6.192   6.635 -0.0277  0.2685  0.3271
  142OSM    C1S15560   4.248   5.985   6.393 -0.2325  0.0781  0.3361
  142OSM    H1S15561   4.173   5.918   6.345 -0.0950  0.5075 -0.4861
  142OSM    H1T15562   4.318   5.912   6.439  0.4124 -0.4566 -1.4142
  142OSM     NF15563   4.345   5.990   6.158  0.3533  0.5816  0.4667
  142OSM    HNF15564   4.439   5.982   6.127  1.6441  2.1184  3.5775
  142OSM    C2S15565   4.315   6.069   6.281 -0.6048  0.3143  0.6972
  142OSM    H2S15566   4.248   6.156   6.266  0.1288  0.4966 -1.9685
  142OSM    C3S15567   4.446   6.133   6.337  0.0283  0.2564 -0.2627
  142OSM    H3S15568   4.518   6.049   6.346  0.0557 -0.0980 -2.8701
  142OSM     O315569   4.440   6.182   6.472 -0.7354 -0.0570 -0.1920
  142OSM    HO315570   4.358   6.148   6.509  0.2588 -1.5224  0.7670
  142OSM    C4S15571   4.512   6.234   6.239  0.1108 -0.4447  0.0628
  142OSM    H4S15572   4.494   6.216   6.132  1.0509  0.4290 -0.2551
  142OSM    C5S15573   4.562   6.358   6.267 -0.2996  0.4947  0.2819
  142OSM    H5S15574   4.561   6.395   6.371 -1.3297 -0.0644  0.4859
  142OSM    C6S15575   4.614   6.460   6.168 -0.9294 -0.0400 -0.7289
  142OSM    H6S15576   4.705   6.509   6.209 -0.5811 -1.4401  0.2369
  142OSM    H6T15577   4.539   6.540   6.150  1.6843  2.4587 -1.4425
  142OSM    C7S15578   4.649   6.409   6.021 -0.3507  1.0638  0.4726
  142OSM    H7S15579   4.559   6.368   5.971 -0.6104  1.4876  0.5867
  142OSM    H7T15580   4.725   6.328   6.023  0.4530  1.7796 -0.1779
  142OSM    C8S15581   4.720   6.513   5.926  0.5164  0.4894  0.4997
  142OSM    H8S15582   4.816   6.541   5.974  0.0840  0.6084  1.3151
  142OSM    H8T15583   4.654   6.602   5.918  0.9551  0.7434 -0.5748
  142OSM    C9S15584   4.750   6.469   5.783 -0.0671  0.3513  0.4161
  142OSM    H9S15585   4.655   6.429   5.741  0.5706 -1.1787  0.3754
  142OSM    H9T15586   4.826   6.389   5.780  1.2611  1.5906 -1.4895
  142OSM   C10S15587   4.792   6.583   5.690 -1.2004 -0.5743 -0.5957
  142OSM   H10S15588   4.884   6.638   5.721 -1.7422  1.9892 -3.1382
  142OSM   H10T15589   4.724   6.670   5.700  2.6213  2.7430 -0.8699
  142OSM   C11S15590   4.788   6.532   5.543  0.2827 -0.7158 -0.2284
  142OSM   H11S15591   4.679   6.513   5.530 -0.1496 -0.0939  2.0373
  142OSM   H11T15592   4.845   6.438   5.533  3.4610  1.1120 -0.6636
  142OSM   C12S15593   4.833   6.635   5.441  0.3017 -0.3675 -0.2079
  142OSM   H12S15594   4.938   6.667   5.460  0.2381 -1.1062  1.5880
  142OSM   H12T15595   4.768   6.723   5.457  1.9835  0.5344  2.3800
  142OSM   C13S15596   4.839   6.580   5.293  0.3466  0.1749  0.0732
  142OSM   H13S15597   4.740   6.536   5.269  0.3130  1.1047 -1.6438
  142OSM   H13T15598   4.899   6.486   5.289  0.0682  0.0113 -0.3447
  142OSM   C14S15599   4.892   6.688   5.195  0.3120  0.4088  0.1156
  142OSM   H14S15600   4.995   6.717   5.225  0.1554  1.1065  0.0079
  142OSM   H14T15601   4.820   6.771   5.215 -1.9703 -2.1065  3.2572
  142OSM   C15S15602   4.883   6.645   5.050  0.4877  0.2340 -0.1160
  142OSM   H15S15603   4.782   6.600   5.034 -0.2305  0.2923  3.4391
  142OSM   H15T15604   4.967   6.578   5.024 -0.3076 -0.3596 -1.2372
  142OSM   C16S15605   4.904   6.761   4.958  0.0426 -1.1191  0.1297
  142OSM   H16S15606   4.997   6.804   5.000 -0.3003  0.9546 -1.0700
  142OSM   H16T15607   4.824   6.836   4.976 -0.6663 -2.0809  1.1081
  142OSM   C17S15608   4.908   6.736   4.805  0.2004 -0.1530  0.3756
  142OSM   H17S15609   4.910   6.837   4.760  4.2543 -0.2192 -0.0014
  142OSM   H17T15610   4.819   6.673   4.783 -0.4771 -0.2717  3.0565
  142OSM   C18S15611   5.036   6.669   4.762  0.5754  0.0526  0.2030
  142OSM   H18S15612   5.035   6.638   4.656 -1.7251 -0.6905  0.3984
  142OSM   H18T15613   5.066   6.584   4.826 -1.5255  1.0643  2.7252
  142OSM   H18U15614   5.118   6.741   4.782 -1.1740  2.3931 -0.6000
  142OSM    C1F15615   4.241   5.934   6.091 -0.3506  0.0074  0.6556
  142OSM     OF15616   4.133   5.991   6.108 -0.4922  0.0800  0.4141
  142OSM    C2F15617   4.267   5.815   6.003 -0.1714 -0.2506  0.4070
  142OSM    H2F15618   4.282   5.725   6.067 -2.0012 -1.4256 -0.7004
  142OSM    H2G15619   4.360   5.829   5.944 -0.4344  2.8769  0.5807
  142OSM    C3F15620   4.138   5.796   5.916 -0.1947 -0.1459 -0.0488
  142OSM    H3F15621   4.102   5.897   5.887 -1.2234 -0.0554  1.4703
  142OSM    H3G15622   4.054   5.763   5.980 -1.4682 -0.0517 -1.6225
  142OSM    C4F15623   4.157   5.697   5.795  0.2086  0.6951 -0.5275
  142OSM    H4F15624   4.057   5.663   5.763  0.3791 -1.4220  1.0078
  142OSM    H4G15625   4.214   5.605   5.818 -2.9526 -0.5744  3.1893
  142OSM    C5F15626   4.219   5.777   5.682 -0.0938 -0.2454 -0.2943
  142OSM    H5F15627   4.323   5.811   5.704  1.3056 -4.0521 -0.2960
  142OSM    H5G15628   4.149   5.861   5.661  1.0296  1.0527  0.9326
  142OSM    C6F15629   4.234   5.677   5.568 -0.0700 -0.1456 -0.6560
  142OSM    H6F15630   4.143   5.614   5.559 -0.5778  0.7387 -1.9965
  142OSM    H6G15631   4.316   5.609   5.600  0.2864  0.2986 -0.6143
  142OSM    C7F15632   4.283   5.754   5.436  0.3542  0.0958  0.4404
  142OSM    H7F15633   4.362   5.830   5.457 -2.2938  2.6792  1.7526
  142OSM    H7G15634   4.197   5.814   5.401 -0.6302 -1.5415 -0.0594
  142OSM    C8F15635   4.323   5.650   5.328  1.0254  0.9516  0.0448
  142OSM    H8F15636   4.398   5.598   5.392  0.0447 -1.8151 -0.9189
  142OSM    H8G15637   4.381   5.699   5.246  2.7450 -0.4203  0.3757
  142OSM    C9F15638   4.227   5.543   5.285 -0.3701  0.4069  0.0890
  142OSM    H9F15639   4.144   5.524   5.355 -0.0389  2.0872  0.9794
  142OSM   C10F15640   4.228   5.490   5.161  0.6702  0.0977  0.0132
  142OSM   H10F15641   4.146   5.422   5.135 -0.3916  2.1020 -2.2147
  142OSM   C11F15642   4.320   5.526   5.050  0.5504  1.2884  0.3495
  142OSM   H11F15643   4.307   5.631   5.014  2.0009  1.4737  0.3016
  142OSM   H11G15644   4.270   5.449   4.987  2.0463 -0.1938  0.8986
  142OSM   C12F15645   4.462   5.487   5.054  0.5096  0.3188  0.1076
  142OSM   H12F15646   4.482   5.444   5.154  1.6295  1.8307  0.5593
  142OSM   H12G15647   4.526   5.578   5.058  1.2132 -0.0539 -1.5650
  142OSM   C13F15648   4.499   5.377   4.950  0.6521  0.2479 -0.5847
  142OSM   H13F15649   4.424   5.294   4.950  0.9080 -0.0152  1.0462
  142OSM   H13G15650   4.589   5.319   4.980  0.0734 -0.0355  0.6941
  142OSM   C14F15651   4.496   5.434   4.812 -0.5889 -0.0654 -0.0545
  142OSM   H14F15652   4.571   5.515   4.794 -2.9585  2.0659 -1.1204
  142OSM   H14G15653   4.402   5.483   4.776  0.2365 -0.2810 -2.7642
  142OSM   C15F15654   4.514   5.308   4.720  0.1586  0.7476  0.5511
  142OSM   H15F15655   4.430   5.236   4.723  1.5603 -0.9842  0.0021
  142OSM   H15G15656   4.604   5.248   4.747  1.2905  0.3832 -3.3842
  142OSM   C16F15657   4.530   5.352   4.571 -0.1236  0.2550 -0.4679
  142OSM   H16F15658   4.542   5.257   4.515 -0.0649  0.6292 -1.0944
  142OSM   H16G15659   4.620   5.415   4.555 -0.7342  1.6485  1.2302
  142OSM   C17F15660   4.405   5.404   4.500  1.2522 -0.0856  0.2170
  142OSM   H17F15661   4.343   5.466   4.569 -1.1935 -0.9389 -1.1247
  142OSM   H17G15662   4.344   5.321   4.459 -0.6846  1.8100 -0.9598
  142OSM   C18F15663   4.437   5.497   4.384 -0.1642 -0.2664 -1.0199
  142OSM   H18F15664   4.342   5.538   4.345 -1.1757  0.8255  2.2270
  142OSM   H18G15665   4.504   5.447   4.311  1.3002 -1.6687  1.1731
  142OSM   H18H15666   4.492   5.584   4.428 -0.7551  0.4076 -1.5915
  143OSM      N15667   5.783   3.077   6.995 -0.2025  0.1952 -0.4604
  143OSM    C1515668   5.920   3.031   7.052 -0.4899 -0.2307  0.2941
  143OSM   H15A15669   5.983   3.008   6.967 -1.0678 -0.7885  0.0069
  143OSM   H15B15670   5.907   2.933   7.096  0.7355 -1.0383 -1.0396
  143OSM   H15C15671   5.970   3.094   7.124 -1.4965 -1.4419  2.1339
  143OSM    C1415672   5.687   3.092   7.112 -0.3608 -0.1471 -0.1668
  143OSM   H14A15673   5.589   3.107   7.070 -1.7843 -1.3806  2.4702
  143OSM   H14B15674   5.730   3.175   7.166  1.6636 -1.7778  0.9033
  143OSM   H14C15675   5.677   3.006   7.178 -0.8928 -2.0321 -2.5604
  143OSM    C1315676   5.811   3.209   6.928  0.2888  0.9671  0.0936
  143OSM   H13A15677   5.869   3.280   6.984  0.7738  1.4510 -0.9874
  143OSM   H13B15678   5.728   3.254   6.876 -0.6121 -1.7000 -0.9722
  143OSM   H13C15679   5.885   3.189   6.852  0.6360 -2.0127  1.0691
  143OSM    C1215680   5.722   2.981   6.893 -0.0257  0.3520 -0.2002
  143OSM   H12A15681   5.646   3.038   6.842  0.1525  1.1622  0.4157
  143OSM   H12B15682   5.681   2.899   6.950  0.0173 -0.8343 -1.8306
  143OSM    C1115683   5.821   2.925   6.783  0.4721 -0.0280  0.2482
  143OSM   H11A15684   5.753   2.881   6.707 -0.6442 -1.6877  2.1050
  143OSM   H11B15685   5.864   2.832   6.826 -0.4529 -1.7789 -2.3674
  143OSM      P15686   5.942   3.070   6.591  0.0260 -0.1235  0.2821
  143OSM    O1315687   5.826   3.145   6.539 -0.6792  0.4120  0.6062
  143OSM    O1415688   6.073   3.134   6.575  0.4637 -0.0037 -0.1813
  143OSM    O1115689   5.949   2.932   6.518  0.0910 -0.0075 -0.5108
  143OSM    O1215690   5.919   3.018   6.736 -0.4292  0.5305 -0.2791
  143OSM    C1S15691   5.934   2.927   6.379 -0.5040  0.4851  0.9593
  143OSM    H1S15692   5.852   2.988   6.337 -0.3525  1.8803  2.5829
  143OSM    H1T15693   5.918   2.819   6.357  1.7710  0.3781 -0.5564
  143OSM     NF15694   6.041   2.971   6.165  0.1249 -0.2197  0.5173
  143OSM    HNF15695   6.080   2.893   6.116 -0.0014 -1.4968  2.3253
  143OSM    C2S15696   6.065   2.958   6.298  0.4929 -0.3996 -0.1418
  143OSM    H2S15697   6.103   3.056   6.333 -2.0019  0.1118  1.3947
  143OSM    C3S15698   6.183   2.868   6.331  0.4459  0.3790 -0.5530
  143OSM    H3S15699   6.169   2.773   6.276  0.7122  0.7101 -1.2041
  143OSM     O315700   6.179   2.832   6.466 -0.2055  0.2603 -0.3484
  143OSM    HO315701   6.096   2.864   6.501 -1.4294 -1.3923 -1.6183
  143OSM    C4S15702   6.311   2.919   6.275 -0.1200  0.0922 -0.0432
  143OSM    H4S15703   6.335   2.886   6.173 -0.8461  0.8146 -0.4600
  143OSM    C5S15704   6.383   3.014   6.333  0.6357  0.7864  0.2312
  143OSM    H5S15705   6.344   3.066   6.422  0.7865  1.8332 -0.3001
  143OSM    C6S15706   6.497   3.094   6.274 -0.2417 -0.1595 -0.0645
  143OSM    H6S15707   6.598   3.048   6.283 -0.4452 -1.3486 -2.9239
  143OSM    H6T15708   6.498   3.188   6.335 -2.7722 -1.0778  1.5337
  143OSM    C7S15709   6.488   3.125   6.126 -0.2765  0.2422  0.3169
  143OSM    H7S15710   6.482   3.026   6.075 -0.5088 -0.3401  1.4396
  143OSM    H7T15711   6.578   3.178   6.089  0.1521  0.4535  1.6108
  143OSM    C8S15712   6.371   3.212   6.098  0.3123  0.4397  0.3115
  143OSM    H8S15713   6.383   3.303   6.161  2.8916  0.9111 -0.7431
  143OSM    H8T15714   6.271   3.164   6.109  0.2502 -0.5185 -3.1392
  143OSM    C9S15715   6.364   3.261   5.942  0.0411 -0.2933 -0.2934
  143OSM    H9S15716   6.283   3.337   5.947  0.2417 -0.1006  0.0620
  143OSM    H9T15717   6.332   3.174   5.881 -1.2222  0.6013 -0.9590
  143OSM   C10S15718   6.485   3.335   5.886 -0.0490 -0.4090 -0.2983
  143OSM   H10S15719   6.572   3.266   5.888 -0.0621 -0.5026 -1.9727
  143OSM   H10T15720   6.508   3.427   5.946  0.9933 -0.9469  0.1530
  143OSM   C11S15721   6.449   3.382   5.740 -0.3770  0.1438  0.2280
  143OSM   H11S15722   6.509   3.471   5.712  0.1649 -0.3875 -0.3203
  143OSM   H11T15723   6.347   3.427   5.740  0.0420  1.1754  2.1312
  143OSM   C12S15724   6.473   3.277   5.632  0.1091  0.2051  0.1903
  143OSM   H12S15725   6.393   3.200   5.643  0.5073 -0.2719 -0.2294
  143OSM   H12T15726   6.565   3.216   5.641  0.0785 -0.2471 -1.9623
  143OSM   C13S15727   6.464   3.329   5.482 -0.8651 -0.3854  0.1519
  143OSM   H13S15728   6.550   3.399   5.478  0.1858 -1.6898 -1.1946
  143OSM   H13T15729   6.376   3.397   5.472 -0.8791  0.1526  3.1060
  143OSM   C14S15730   6.452   3.216   5.383 -0.2177 -0.0822  0.0167
  143OSM   H14S15731   6.370   3.155   5.426 -1.0669  1.8474  1.2935
  143OSM   H14T15732   6.548   3.159   5.384 -1.5181 -2.3724 -0.0916
  143OSM   C15S15733   6.425   3.257   5.237  0.3345  0.7949 -0.9920
  143OSM   H15S15734   6.504   3.324   5.198  1.4247 -0.7838 -1.6134
  143OSM   H15T15735   6.328   3.311   5.242  0.5207  1.0329  2.3661
  143OSM   C16S15736   6.420   3.136   5.141  0.5936 -0.1290  0.8830
  143OSM   H16S15737   6.372   3.046   5.185 -0.1725 -0.3538 -0.3775
  143OSM   H16T15738   6.526   3.104   5.131  0.2022 -0.8645 -1.6624
  143OSM   C17S15739   6.376   3.182   5.009  0.6961  0.8093  0.3259
  143OSM   H17S15740   6.426   3.272   4.969 -1.3849  1.1432 -1.7675
  143OSM   H17T15741   6.269   3.201   5.031  0.3502  0.6691 -1.1154
  143OSM   C18S15742   6.398   3.077   4.898  0.2167  0.1667 -0.5440
  143OSM   H18S15743   6.317   3.001   4.897  0.2707  0.0844  0.4362
  143OSM   H18T15744   6.497   3.030   4.917 -0.2944 -1.0505 -0.7888
  143OSM   H18U15745   6.399   3.122   4.797  0.6790  0.4367 -0.4199
  143OSM    C1F15746   5.950   3.051   6.113 -0.1299 -0.0005 -0.1584
  143OSM     OF15747   5.909   3.152   6.172 -0.4753 -0.5843 -0.2034
  143OSM    C2F15748   5.904   3.022   5.970  0.2753 -0.4519  0.0973
  143OSM    H2F15749   5.964   2.939   5.926 -1.6271 -1.8472  0.0187
  143OSM    H2G15750   5.919   3.112   5.907 -0.4827  0.4614  1.1869
  143OSM    C3F15751   5.752   2.985   5.962  0.1859 -0.0206  0.7727
  143OSM    H3F15752   5.685   3.047   6.025 -1.0004 -0.8423  0.3654
  143OSM    H3G15753   5.749   2.879   5.996 -1.6819 -0.4713 -0.6472
  143OSM    C4F15754   5.710   2.996   5.817 -0.7152 -0.1158 -0.0423
  143OSM    H4F15755   5.689   3.102   5.792 -0.1832  0.4228  1.6319
  143OSM    H4G15756   5.608   2.951   5.819 -0.5106 -0.6832 -1.5489
  143OSM    C5F15757   5.799   2.935   5.708  0.0934 -0.4824  0.1026
  143OSM    H5F15758   5.820   2.833   5.745  0.4823 -1.3164 -2.2438
  143OSM    H5G15759   5.890   2.997   5.691 -1.4044  1.1074 -2.9975
  143OSM    C6F15760   5.719   2.915   5.579 -0.0447  0.3559 -0.7678
  143OSM    H6F15761   5.660   3.006   5.554 -0.1862  0.4474 -0.1269
  143OSM    H6G15762   5.646   2.839   5.615  0.4416  0.8471  1.3908
  143OSM    C7F15763   5.791   2.852   5.460 -0.5529  0.0798  0.0056
  143OSM    H7F15764   5.888   2.809   5.493 -0.2236  1.4739  0.9230
  143OSM    H7G15765   5.809   2.939   5.393 -1.3440  0.8713  0.8064
  143OSM    C8F15766   5.712   2.738   5.385 -0.4486  0.3639 -0.3155
  143OSM    H8F15767   5.702   2.659   5.462 -1.9108  2.3068  1.5926
  143OSM    H8G15768   5.777   2.696   5.305 -1.6859 -1.3550 -0.4904
  143OSM    C9F15769   5.570   2.766   5.347 -0.4840  0.1373  0.0682
  143OSM    H9F15770   5.516   2.803   5.435  2.7350  0.8223  1.9278
  143OSM   C10F15771   5.513   2.732   5.231 -0.2263  0.9249 -0.2074
  143OSM   H10F15772   5.406   2.747   5.212 -0.4544 -0.1850  0.1300
  143OSM   C11F15773   5.589   2.681   5.111  0.6493  0.6073  1.1179
  143OSM   H11F15774   5.584   2.571   5.094  0.0980  0.9217 -1.0123
  143OSM   H11G15775   5.696   2.712   5.113 -0.0740  3.4567  0.4557
  143OSM   C12F15776   5.534   2.758   4.987 -1.0093  0.1222 -0.4232
  143OSM   H12F15777   5.443   2.720   4.936  0.7907 -0.8135 -3.1714
  143OSM   H12G15778   5.612   2.739   4.911 -1.5876  2.1569 -1.6039
  143OSM   C13F15779   5.525   2.912   5.000 -0.9352  1.0736  0.0673
  143OSM   H13F15780   5.619   2.948   5.048 -1.1116 -0.5529  1.7278
  143OSM   H13G15781   5.440   2.932   5.070  0.4620  1.9947  1.5825
  143OSM   C14F15782   5.487   2.979   4.863  0.0186  0.2878 -0.2750
  143OSM   H14F15783   5.561   2.949   4.785 -1.8811 -3.2481 -0.9169
  143OSM   H14G15784   5.502   3.089   4.876  2.0959 -0.1830  1.8855
  143OSM   C15F15785   5.346   2.939   4.812  0.1923 -0.2345  0.5495
  143OSM   H15F15786   5.274   2.961   4.893 -0.1380  2.2019 -0.3176
  143OSM   H15G15787   5.353   2.829   4.797  0.5144 -0.2927  1.1066
  143OSM   C16F15788   5.310   3.010   4.684  0.1562 -0.0961  0.2526
  143OSM   H16F15789   5.399   3.012   4.617  0.0273  0.4669  0.0958
  143OSM   H16G15790   5.295   3.115   4.715  1.6612  0.1484  0.2280
  143OSM   C17F15791   5.179   2.972   4.609 -0.1740  0.6617  0.8619
  143OSM   H17F15792   5.159   3.041   4.524 -1.7014  0.1799  0.7970
  143OSM   H17G15793   5.082   2.987   4.663 -1.0765 -0.2078 -0.4482
  143OSM   C18F15794   5.177   2.834   4.544 -0.2494 -0.4065 -0.8445
  143OSM   H18F15795   5.078   2.815   4.499 -0.7338 -2.2781  0.8307
  143OSM   H18G15796   5.196   2.758   4.623 -0.8806 -2.5772 -2.7043
  143OSM   H18H15797   5.259   2.813   4.472  0.4327  0.0968 -0.2399
  144OSM      N15798   4.875   1.943   7.189  0.4933  0.5813  0.2157
  144OSM    C1515799   4.920   1.858   7.312  0.5616 -0.0931 -0.5468
  144OSM   H15A15800   4.914   1.751   7.301  0.9886 -0.2714  0.8299
  144OSM   H15B15801   4.857   1.882   7.397  1.1454 -0.3182 -0.0422
  144OSM   H15C15802   5.021   1.883   7.340  0.2384  1.7181 -0.8536
  144OSM    C1415803   4.728   1.920   7.166 -1.0254 -0.0717  0.1570
  144OSM   H14A15804   4.705   1.816   7.180 -1.9349  0.0250 -0.5881
  144OSM   H14B15805   4.703   1.956   7.068  0.9638 -2.3763 -1.2854
  144OSM   H14C15806   4.668   1.973   7.239 -2.3000 -0.3281 -0.6968
  144OSM    C1315807   4.881   2.090   7.221 -0.6322  0.1651 -0.6112
  144OSM   H13A15808   4.826   2.135   7.140 -3.8809 -1.0820  0.7025
  144OSM   H13B15809   4.982   2.126   7.230 -1.3923  2.5014 -0.7502
  144OSM   H13C15810   4.833   2.111   7.316 -0.3380 -1.0406 -0.1758
  144OSM    C1215811   4.957   1.906   7.063 -0.0193 -0.7065 -0.2728
  144OSM   H12A15812   4.958   1.799   7.047  1.4667 -0.3761 -2.8834
  144OSM   H12B15813   5.061   1.927   7.081 -0.2271  1.4537 -1.2610
  144OSM    C1115814   4.929   1.973   6.928  0.2315  0.1194  0.4742
  144OSM   H11A15815   4.829   1.938   6.894 -0.0765 -0.6996  2.1142
  144OSM   H11B15816   5.005   1.939   6.855  0.8647  1.5089  0.4599
  144OSM      P15817   5.056   2.201   6.920 -0.2153 -0.4387  0.3428
  144OSM    O1315818   5.022   2.345   6.895 -0.1552 -0.3825 -0.2032
  144OSM    O1415819   5.150   2.164   7.024  0.2245 -0.6337  0.1640
  144OSM    O1115820   5.122   2.144   6.788  0.3821  0.4588 -0.2904
  144OSM    O1215821   4.924   2.113   6.931 -0.3229  0.0268 -0.2116
  144OSM    C1S15822   5.038   2.121   6.672  0.1134  0.3479  0.6907
  144OSM    H1S15823   4.938   2.170   6.676  0.1287  0.3785  0.6946
  144OSM    H1T15824   5.005   2.015   6.665 -1.7921  0.9934 -1.0722
  144OSM     NF15825   5.022   2.145   6.419 -0.0407  0.2123  0.7191
  144OSM    HNF15826   5.020   2.063   6.363  1.9573 -0.4845  1.5817
  144OSM    C2S15827   5.108   2.140   6.535 -0.3297 -0.0487  0.0550
  144OSM    H2S15828   5.158   2.239   6.541 -0.8276  0.3931 -2.3333
  144OSM    C3S15829   5.214   2.029   6.518 -0.1427  0.3291  0.2327
  144OSM    H3S15830   5.165   1.932   6.496 -0.1625 -0.0710  1.9067
  144OSM     O315831   5.288   2.001   6.636 -0.3012 -0.0184 -0.2340
  144OSM    HO315832   5.237   2.043   6.705 -1.4283 -0.7544 -0.6016
  144OSM    C4S15833   5.311   2.061   6.408 -0.3378  0.2217 -0.5581
  144OSM    H4S15834   5.286   2.004   6.317  0.7502  1.1102 -1.4388
  144OSM    C5S15835   5.416   2.146   6.404  0.2396  0.2815 -0.3895
  144OSM    H5S15836   5.448   2.199   6.494 -0.3204 -0.7925  0.4804
  144OSM    C6S15837   5.512   2.167   6.286  0.7120  0.3171  0.5923
  144OSM    H6S15838   5.613   2.127   6.309  0.3478  0.1819  2.0206
  144OSM    H6T15839   5.523   2.277   6.275 -2.4264  0.5989 -0.8739
  144OSM    C7S15840   5.457   2.110   6.151  0.0570 -0.4220 -0.1295
  144OSM    H7S15841   5.355   2.149   6.130 -0.2641 -0.7156  0.8565
  144OSM    H7T15842   5.448   2.000   6.160 -1.4117 -0.2689  0.6669
  144OSM    C8S15843   5.546   2.149   6.035  0.4220  0.6584 -0.4825
  144OSM    H8S15844   5.642   2.102   6.067 -0.1970  0.8729  1.8697
  144OSM    H8T15845   5.565   2.258   6.033  1.8775  0.5266  1.7824
  144OSM    C9S15846   5.495   2.088   5.903 -0.2560 -0.0025 -0.6059
  144OSM    H9S15847   5.410   2.148   5.865 -1.7020 -2.0840 -0.8076
  144OSM    H9T15848   5.455   1.987   5.926 -2.2668  0.9442  0.2843
  144OSM   C10S15849   5.605   2.068   5.801 -0.2725 -0.2622  0.1012
  144OSM   H10S15850   5.697   2.022   5.844 -0.6886 -0.6698  0.5763
  144OSM   H10T15851   5.639   2.167   5.762 -1.2788 -0.5284 -1.5346
  144OSM   C11S15852   5.564   1.983   5.676  0.2214  0.1391 -0.6686
  144OSM   H11S15853   5.474   2.037   5.639 -0.0301  1.2245  1.3819
  144OSM   H11T15854   5.534   1.880   5.708  0.4235  0.7767  1.7572
  144OSM   C12S15855   5.673   1.991   5.572 -0.1124  0.3497  0.1777
  144OSM   H12S15856   5.777   1.978   5.609 -0.1712 -0.1020  0.1877
  144OSM   H12T15857   5.673   2.091   5.524  1.9260  0.3488  0.0767
  144OSM   C13S15858   5.650   1.891   5.460 -0.4769  0.1549 -0.9981
  144OSM   H13S15859   5.547   1.884   5.419 -0.0284 -0.4605 -2.0703
  144OSM   H13T15860   5.669   1.790   5.502  2.8625  1.3440  0.6977
  144OSM   C14S15861   5.749   1.897   5.342 -0.9366 -0.0307 -0.4005
  144OSM   H14S15862   5.825   1.821   5.370 -3.3166 -3.0086 -1.3509
  144OSM   H14T15863   5.810   1.990   5.340  0.6605 -1.0473 -0.9070
  144OSM   C15S15864   5.714   1.845   5.205 -0.0031  0.4267  0.5669
  144OSM   H15S15865   5.655   1.918   5.146 -2.9942 -2.7661 -0.7122
  144OSM   H15T15866   5.668   1.745   5.202 -0.2378  0.5520 -0.8455
  144OSM   C16S15867   5.849   1.825   5.127  0.6642 -0.3407 -0.2518
  144OSM   H16S15868   5.913   1.759   5.189  0.4738  1.4330  2.0027
  144OSM   H16T15869   5.906   1.920   5.140 -1.2803  0.7426  0.7429
  144OSM   C17S15870   5.844   1.793   4.975 -0.7412  0.1382  0.3211
  144OSM   H17S15871   5.781   1.861   4.913  2.2674  1.4806 -1.5004
  144OSM   H17T15872   5.798   1.694   4.957 -0.6561  0.2240 -0.3887
  144OSM   C18S15873   5.984   1.798   4.912 -0.7316  0.3040  0.5932
  144OSM   H18S15874   6.069   1.746   4.961  0.0600  0.0986 -0.9217
  144OSM   H18T15875   6.015   1.904   4.899  1.2027 -0.3805 -0.9718
  144OSM   H18U15876   5.983   1.764   4.806  1.7994 -0.7031  0.8280
  144OSM    C1F15877   4.927   2.244   6.403 -0.0617  0.1957 -0.3660
  144OSM     OF15878   4.927   2.336   6.485  0.2769 -0.2314  0.3713
  144OSM    C2F15879   4.847   2.243   6.274 -0.1244  1.0021 -0.3494
  144OSM    H2F15880   4.863   2.145   6.223 -0.3167 -0.7542  2.7094
  144OSM    H2G15881   4.898   2.319   6.212 -0.2953  1.4895  0.1037
  144OSM    C3F15882   4.702   2.282   6.290  0.6496  0.3277 -0.1356
  144OSM    H3F15883   4.702   2.386   6.330 -1.8546  0.0193  0.8728
  144OSM    H3G15884   4.647   2.214   6.358 -0.8429  0.1653 -1.4450
  144OSM    C4F15885   4.627   2.291   6.156 -0.0441  0.1958  0.0422
  144OSM    H4F15886   4.683   2.359   6.088  1.2654 -0.1985  0.6892
  144OSM    H4G15887   4.524   2.331   6.172  0.0677  0.9850 -1.1146
  144OSM    C5F15888   4.610   2.157   6.085 -0.2795 -0.7464 -0.0834
  144OSM    H5F15889   4.700   2.095   6.065  0.8109  0.9311 -0.5922
  144OSM    H5G15890   4.583   2.174   5.978  0.0641  1.9498  0.1991
  144OSM    C6F15891   4.500   2.065   6.145  0.2242  0.1227  0.2804
  144OSM    H6F15892   4.403   2.118   6.156  0.0510  0.2083 -1.3661
  144OSM    H6G15893   4.537   2.056   6.249  2.7864 -0.8037 -0.6180
  144OSM    C7F15894   4.487   1.929   6.084  0.3019  0.5500  0.2288
  144OSM    H7F15895   4.407   1.874   6.137  0.3427 -1.6981 -1.8319
  144OSM    H7G15896   4.571   1.860   6.106 -1.0458 -0.7496  1.5198
  144OSM    C8F15897   4.453   1.921   5.935 -0.0468 -0.0664  0.2123
  144OSM    H8F15898   4.435   1.811   5.926  1.6043 -0.4483  1.1680
  144OSM    H8G15899   4.519   1.948   5.850 -0.7705  0.1532 -0.2982
  144OSM    C9F15900   4.328   2.003   5.916  0.4102  0.5344 -0.1609
  144OSM    H9F15901   4.269   2.010   6.009  2.3353 -0.6131  1.2124
  144OSM   C10F15902   4.316   2.092   5.819  0.3974  0.2313 -0.1837
  144OSM   H10F15903   4.227   2.157   5.813  0.1932  0.0057  0.3324
  144OSM   C11F15904   4.403   2.127   5.704  0.0618 -0.1827  0.3967
  144OSM   H11F15905   4.460   2.036   5.675  0.3495 -0.7281  2.5660
  144OSM   H11G15906   4.478   2.203   5.734 -0.7351  0.8177 -0.0797
  144OSM   C12F15907   4.336   2.182   5.570 -0.1364 -0.7439  0.7284
  144OSM   H12F15908   4.266   2.264   5.596  2.5187  2.1170 -0.5142
  144OSM   H12G15909   4.271   2.105   5.524 -0.6063  0.2764 -0.3756
  144OSM   C13F15910   4.436   2.233   5.462  0.2370 -0.0699 -0.1154
  144OSM   H13F15911   4.507   2.148   5.454 -1.1852 -1.2652 -0.5449
  144OSM   H13G15912   4.502   2.316   5.494  1.5463 -1.1612  0.0918
  144OSM   C14F15913   4.372   2.262   5.319  0.3906  0.0697  0.1132
  144OSM   H14F15914   4.320   2.360   5.314  2.3529  1.1296 -0.4115
  144OSM   H14G15915   4.284   2.196   5.333  0.4173  0.4729  2.7558
  144OSM   C15F15916   4.462   2.232   5.198 -0.0085  1.1075  0.4259
  144OSM   H15F15917   4.501   2.129   5.217  0.5850  1.5202  1.5716
  144OSM   H15G15918   4.544   2.307   5.203 -0.1516  1.8042 -4.0214
  144OSM   C16F15919   4.379   2.223   5.068  0.1359 -0.8511  0.7865
  144OSM   H16F15920   4.310   2.308   5.049 -1.1832 -2.3214 -1.3848
  144OSM   H16G15921   4.324   2.128   5.063  0.7164 -1.1327 -1.6673
  144OSM   C17F15922   4.479   2.231   4.943 -0.1153 -0.1721 -0.0049
  144OSM   H17F15923   4.546   2.144   4.957 -2.0369 -1.7141  0.1891
  144OSM   H17G15924   4.535   2.327   4.942 -1.1379  0.4395 -0.2810
  144OSM   C18F15925   4.401   2.219   4.811 -0.1207 -0.5088  0.2219
  144OSM   H18F15926   4.337   2.310   4.805  0.4720 -0.0454  0.7490
  144OSM   H18G15927   4.336   2.129   4.813 -1.0864  0.1741  0.9703
  144OSM   H18H15928   4.463   2.214   4.720 -0.5192  4.8542 -0.6676
  145OSM      N15929   4.738   4.445   6.950 -0.0592  0.5462 -0.9914
  145OSM    C1515930   4.725   4.591   6.945  0.0809 -1.1839 -0.4880
  145OSM   H15A15931   4.800   4.643   6.887 -0.7368  0.3791 -0.2145
  145OSM   H15B15932   4.723   4.630   7.046  2.4272 -2.4442  0.1148
  145OSM   H15C15933   4.631   4.612   6.896 -0.5789 -1.2066  0.7195
  145OSM    C1415934   4.868   4.410   7.020 -0.3558  0.0627  0.4942
  145OSM   H14A15935   4.944   4.436   6.949 -2.0349 -1.3105 -1.9537
  145OSM   H14B15936   4.872   4.303   7.040 -2.8149 -0.0068  0.9656
  145OSM   H14C15937   4.892   4.476   7.102  0.5807 -0.9067  1.0252
  145OSM    C1315938   4.628   4.398   7.038  0.0126 -0.4983 -0.7526
  145OSM   H13A15939   4.632   4.293   7.065 -0.8730 -0.1827  0.6849
  145OSM   H13B15940   4.529   4.407   6.995 -0.5402  0.0333  0.5934
  145OSM   H13C15941   4.624   4.461   7.125 -0.9247 -1.3921 -0.1312
  145OSM    C1215942   4.734   4.386   6.815  0.1441  0.5590 -0.0216
  145OSM   H12A15943   4.631   4.398   6.784  0.4774 -0.6160 -1.7098
  145OSM   H12B15944   4.758   4.281   6.821  0.9405  0.7006 -0.6514
  145OSM    C1115945   4.829   4.449   6.709 -0.7063  0.1159  1.2785
  145OSM   H11A15946   4.795   4.554   6.698 -0.9909 -0.0884  0.1181
  145OSM   H11B15947   4.811   4.386   6.620  2.8718 -0.8532  1.0787
  145OSM      P15948   5.061   4.311   6.745 -0.1824  0.0741  0.0407
  145OSM    O1315949   5.150   4.309   6.860  0.3199  0.3056  0.2468
  145OSM    O1415950   4.985   4.190   6.716 -0.0880  1.0924 -0.2451
  145OSM    O1115951   5.158   4.345   6.625 -0.3016  0.2425 -0.1140
  145OSM    O1215952   4.968   4.442   6.752  0.5217  0.1068  0.8367
  145OSM    C1S15953   5.130   4.459   6.545  0.3286  0.0091 -0.3374
  145OSM    H1S15954   5.141   4.552   6.605 -0.2424 -0.9597  1.3451
  145OSM    H1T15955   5.031   4.459   6.494  0.6204  1.8834 -1.0076
  145OSM     NF15956   5.237   4.599   6.357 -0.7573 -0.4076 -0.1904
  145OSM    HNF15957   5.199   4.597   6.264 -0.9848  0.1283 -0.1160
  145OSM    C2S15958   5.233   4.470   6.423  0.2590  0.2129 -0.3283
  145OSM    H2S15959   5.334   4.464   6.468 -0.6567  1.5623  2.1137
  145OSM    C3S15960   5.215   4.344   6.327 -0.0124 -0.3897 -0.4101
  145OSM    H3S15961   5.124   4.362   6.265 -0.5313  1.4888  0.8093
  145OSM     O315962   5.194   4.215   6.384  0.1673 -0.4123  0.0630
  145OSM    HO315963   5.190   4.226   6.480  1.4184 -2.2999  0.3743
  145OSM    C4S15964   5.323   4.345   6.223 -0.4749  0.4017 -0.4194
  145OSM    H4S15965   5.279   4.393   6.133 -2.1127 -1.8380 -0.9065
  145OSM    C5S15966   5.439   4.277   6.225 -0.7252  0.0665 -0.1665
  145OSM    H5S15967   5.466   4.210   6.309 -1.4238 -2.1354 -1.6095
  145OSM    C6S15968   5.537   4.261   6.105 -0.6528  0.1442  0.2861
  145OSM    H6S15969   5.555   4.154   6.084  1.4824  0.7339 -1.0987
  145OSM    H6T15970   5.640   4.296   6.125 -0.8177  1.1229 -0.5139
  145OSM    C7S15971   5.496   4.354   5.990  0.0522 -0.6093 -0.4158
  145OSM    H7S15972   5.482   4.458   6.025 -0.9089 -0.7972 -0.1899
  145OSM    H7T15973   5.394   4.324   5.955 -0.5963  0.2845  0.6574
  145OSM    C8S15974   5.592   4.342   5.872 -0.4141  0.0046  0.4594
  145OSM    H8S15975   5.621   4.242   5.834  3.5627  1.2107 -0.1404
  145OSM    H8T15976   5.689   4.382   5.908 -0.8559  1.7134 -0.1696
  145OSM    C9S15977   5.551   4.429   5.750  0.2678 -0.5147 -0.2996
  145OSM    H9S15978   5.576   4.535   5.773  1.1846 -0.4647 -1.4395
  145OSM    H9T15979   5.442   4.426   5.732 -0.0552  1.2025  1.0612
  145OSM   C10S15980   5.618   4.394   5.618  0.0831  0.0554  0.0900
  145OSM   H10S15981   5.585   4.291   5.592  1.7568  0.0096 -2.2287
  145OSM   H10T15982   5.729   4.398   5.623  0.1541  0.9510 -1.3936
  145OSM   C11S15983   5.576   4.485   5.504 -0.7623 -0.0675  1.0108
  145OSM   H11S15984   5.585   4.594   5.528 -0.1954  0.0201  0.4000
  145OSM   H11T15985   5.470   4.456   5.489 -0.7433  0.2394  0.2228
  145OSM   C12S15986   5.663   4.456   5.375  0.4712 -0.0008 -0.3300
  145OSM   H12S15987   5.683   4.347   5.374  0.4635 -0.0303  1.0135
  145OSM   H12T15988   5.759   4.507   5.399 -1.1626  3.4069 -0.4719
  145OSM   C13S15989   5.614   4.503   5.243 -0.3306  0.4385  1.0485
  145OSM   H13S15990   5.590   4.612   5.251  0.1248  0.5484  0.9476
  145OSM   H13T15991   5.525   4.445   5.212  1.4768 -0.8749 -2.0823
  145OSM   C14S15992   5.715   4.471   5.130 -0.0175 -0.1466 -0.0432
  145OSM   H14S15993   5.718   4.359   5.128 -0.4239 -0.1634 -2.1904
  145OSM   H14T15994   5.814   4.510   5.159  0.3421 -1.0437 -0.0384
  145OSM   C15S15995   5.677   4.529   4.996 -1.2379 -0.2451  0.2235
  145OSM   H15S15996   5.574   4.488   4.986 -0.5565 -2.2198  0.7770
  145OSM   H15T15997   5.733   4.479   4.914 -1.3284 -0.7140  0.4461
  145OSM   C16S15998   5.687   4.682   4.997  0.3370  0.0619 -0.4337
  145OSM   H16S15999   5.645   4.722   5.092  1.1219  1.4915 -0.6593
  145OSM   H16T16000   5.631   4.722   4.910 -0.9177  0.9509  0.7401
  145OSM   C17S16001   5.836   4.731   4.995  0.1415  0.0782 -0.5077
  145OSM   H17S16002   5.891   4.689   4.908 -1.4518  0.6455 -1.8446
  145OSM   H17T16003   5.895   4.705   5.085 -0.3531 -0.1881 -0.2596
  145OSM   C18S16004   5.856   4.886   4.978  0.4522 -0.9813 -0.6041
  145OSM   H18S16005   5.809   4.931   4.888 -0.1901  1.4530  0.8414
  145OSM   H18T16006   5.962   4.915   4.991 -0.6032  2.7930  1.1614
  145OSM   H18U16007   5.807   4.937   5.064 -0.8312 -1.0425 -1.2777
  145OSM    C1F16008   5.270   4.716   6.408 -0.1022  0.1348 -0.1767
  145OSM     OF16009   5.331   4.714   6.516 -0.2213  0.5372  0.1538
  145OSM    C2F16010   5.238   4.839   6.334 -0.0024 -0.5122 -0.7004
  145OSM    H2F16011   5.199   4.924   6.395 -0.6364 -0.3264 -1.3484
  145OSM    H2G16012   5.157   4.822   6.259 -0.6812  1.0781 -0.3752
  145OSM    C3F16013   5.357   4.902   6.254 -0.2190  0.7083  0.1518
  145OSM    H3F16014   5.429   4.919   6.338 -0.4232 -0.0564  0.4984
  145OSM    H3G16015   5.318   5.002   6.227  2.3721  2.6487  2.9408
  145OSM    C4F16016   5.433   4.818   6.154  0.3572  0.1803  0.0417
  145OSM    H4F16017   5.463   4.715   6.183  2.0958  0.1735 -1.5861
  145OSM    H4G16018   5.521   4.883   6.133 -1.6961  3.4168  0.7031
  145OSM    C5F16019   5.360   4.801   6.016  0.1834  0.2873  0.1180
  145OSM    H5F16020   5.320   4.902   5.994 -0.1897  0.5224  1.8120
  145OSM    H5G16021   5.271   4.736   6.000 -0.4380  1.0547  0.4174
  145OSM    C6F16022   5.454   4.753   5.906  0.6261 -0.2302  0.0711
  145OSM    H6F16023   5.467   4.644   5.894  0.4586 -0.1447 -1.0872
  145OSM    H6G16024   5.552   4.799   5.928  1.5042 -2.6849  1.6032
  145OSM    C7F16025   5.408   4.810   5.766 -0.4311 -0.6857 -0.8609
  145OSM    H7F16026   5.298   4.800   5.752 -0.4068 -1.0625 -0.7847
  145OSM    H7G16027   5.463   4.749   5.692  0.6411  0.6610 -1.2161
  145OSM    C8F16028   5.443   4.964   5.733  0.8545  0.2245  0.0590
  145OSM    H8F16029   5.417   5.034   5.815  1.4821 -0.2994  0.7184
  145OSM    H8G16030   5.380   4.989   5.645 -0.7568  1.5184  1.5195
  145OSM    C9F16031   5.588   4.969   5.683 -0.0484 -0.1555 -0.0904
  145OSM    H9F16032   5.660   4.917   5.747  1.5670 -1.9175 -3.0831
  145OSM   C10F16033   5.636   5.004   5.555  0.3904 -0.1337 -0.0598
  145OSM   H10F16034   5.743   4.989   5.536  0.2567 -2.5975  0.6652
  145OSM   C11F16035   5.556   5.076   5.449  0.0728  0.5867 -0.2483
  145OSM   H11F16036   5.612   5.143   5.380 -0.2219  0.3434 -0.7320
  145OSM   H11G16037   5.466   5.126   5.490 -1.4687 -1.8658 -0.4116
  145OSM   C12F16038   5.518   4.971   5.347  0.4003  0.5710  0.1731
  145OSM   H12F16039   5.452   4.894   5.394 -0.3517  0.4323 -1.0537
  145OSM   H12G16040   5.596   4.916   5.291 -0.6678 -0.6590 -0.1743
  145OSM   C13F16041   5.419   5.020   5.234  0.2038 -0.0523 -0.4003
  145OSM   H13F16042   5.464   5.107   5.183 -0.3490 -0.9175 -2.4446
  145OSM   H13G16043   5.329   5.065   5.283  1.1886  1.4416  0.1016
  145OSM   C14F16044   5.385   4.913   5.124  0.4098  0.6841  0.0066
  145OSM   H14F16045   5.481   4.876   5.084 -0.6298 -0.4908 -1.5423
  145OSM   H14G16046   5.329   4.975   5.051 -0.0221  1.4091  0.9315
  145OSM   C15F16047   5.300   4.786   5.165  0.6993  0.0999 -0.2532
  145OSM   H15F16048   5.364   4.727   5.234  2.7012 -0.1819 -2.2213
  145OSM   H15G16049   5.290   4.722   5.075 -0.8332 -1.3230  0.8820
  145OSM   C16F16050   5.167   4.822   5.227  0.6477 -0.4267  0.6104
  145OSM   H16F16051   5.110   4.860   5.140  0.3357 -2.7326 -0.2598
  145OSM   H16G16052   5.180   4.901   5.304  0.5510  0.6228 -0.4309
  145OSM   C17F16053   5.087   4.714   5.283  0.3331 -0.2893  0.4391
  145OSM   H17F16054   5.139   4.638   5.345 -0.0501  0.6286  1.9276
  145OSM   H17G16055   5.048   4.660   5.194  2.6515  2.2252 -2.3140
  145OSM   C18F16056   4.968   4.776   5.359  0.1669 -0.3899 -0.0742
  145OSM   H18F16057   4.916   4.849   5.293  0.5741 -0.4302 -0.4429
  145OSM   H18G16058   4.995   4.810   5.461 -3.3589 -1.2677  1.2680
  145OSM   H18H16059   4.890   4.699   5.375 -1.0104  0.4798 -1.3559
  146OSM      N16060   3.561   5.828   6.978 -0.0343 -0.3705  0.4922
  146OSM    C1516061   3.638   5.796   7.104 -0.2881  0.2199 -0.3413
  146OSM   H15A16062   3.620   5.877   7.174 -0.0751  0.3085 -0.3884
  146OSM   H15B16063   3.746   5.796   7.096 -0.2599  2.4966 -0.7991
  146OSM   H15C16064   3.612   5.698   7.139  0.2415 -0.0228 -0.6160
  146OSM    C1416065   3.416   5.858   7.014  0.4132 -0.3517  0.7917
  146OSM   H14A16066   3.370   5.775   7.066 -0.2272 -1.8771 -1.9992
  146OSM   H14B16067   3.356   5.871   6.925  0.1303  0.6439  1.1167
  146OSM   H14C16068   3.410   5.939   7.085  1.7704  0.3005  0.2008
  146OSM    C1316069   3.620   5.954   6.919 -0.2823  0.7118 -0.1654
  146OSM   H13A16070   3.572   5.991   6.829 -2.5227  1.5643  1.2928
  146OSM   H13B16071   3.722   5.923   6.901 -0.8609 -1.7740  0.4634
  146OSM   H13C16072   3.633   6.036   6.988  2.5353  0.3039 -0.0917
  146OSM    C1216073   3.575   5.729   6.869 -0.1580  0.4757  0.0455
  146OSM   H12A16074   3.546   5.774   6.776 -0.5809  2.2242  0.9717
  146OSM   H12B16075   3.519   5.638   6.886  0.2190  0.7033  3.0804
  146OSM    C1116076   3.725   5.685   6.846 -0.0525 -1.1178  0.4375
  146OSM   H11A16077   3.782   5.642   6.931  0.2501 -4.4086 -1.2809
  146OSM   H11B16078   3.765   5.784   6.816 -1.8432 -0.7449 -0.9445
  146OSM      P16079   3.720   5.445   6.758 -0.1065  0.0645  0.3251
  146OSM    O1316080   3.844   5.397   6.832  0.3068 -0.0452 -0.1413
  146OSM    O1416081   3.591   5.423   6.828  0.1487  0.4163 -0.1929
  146OSM    O1116082   3.721   5.388   6.609  0.6935 -0.0433  0.4265
  146OSM    O1216083   3.724   5.604   6.733 -0.5386 -0.0403  0.2693
  146OSM    C1S16084   3.789   5.440   6.501  0.1345 -0.3179  0.3166
  146OSM    H1S16085   3.887   5.390   6.485  0.8680  1.7223 -2.4263
  146OSM    H1T16086   3.806   5.549   6.508  0.1180 -0.0866 -2.1291
  146OSM     NF16087   3.773   5.483   6.262  0.3856  0.6549 -0.4098
  146OSM    HNF16088   3.735   5.570   6.230 -1.1139  0.4752  0.7866
  146OSM    C2S16089   3.703   5.432   6.375  0.1722  0.4974 -1.0399
  146OSM    H2S16090   3.689   5.324   6.354  0.1802  0.4547 -0.8306
  146OSM    C3S16091   3.552   5.483   6.394  0.1765  0.7802  0.3374
  146OSM    H3S16092   3.569   5.589   6.424 -1.2581  0.7164  1.4637
  146OSM     O316093   3.476   5.420   6.497  0.6030 -0.3987 -0.4011
  146OSM    HO316094   3.537   5.388   6.564 -1.4271 -1.3724  1.0776
  146OSM    C4S16095   3.483   5.475   6.261  0.6646 -0.7494 -0.3078
  146OSM    H4S16096   3.467   5.578   6.226  1.3829  0.4173  2.5659
  146OSM    C5S16097   3.432   5.373   6.192  0.7233  0.5783  0.3146
  146OSM    H5S16098   3.437   5.272   6.236  0.3216  1.1132  1.6490
  146OSM    C6S16099   3.347   5.384   6.068  0.6925  0.5730 -0.1445
  146OSM    H6S16100   3.350   5.483   6.018 -1.9736  0.1696 -1.2896
  146OSM    H6T16101   3.238   5.379   6.090  1.3413 -1.6935  3.4158
  146OSM    C7S16102   3.383   5.282   5.960 -0.4227 -0.6570  0.6737
  146OSM    H7S16103   3.364   5.177   5.991  1.3064 -1.7327 -1.5855
  146OSM    H7T16104   3.493   5.283   5.941 -0.6167  1.1372 -0.6024
  146OSM    C8S16105   3.322   5.312   5.819  0.1711  0.2300 -0.3858
  146OSM    H8S16106   3.354   5.416   5.795  1.0139 -0.2456 -1.3969
  146OSM    H8T16107   3.214   5.302   5.842  0.4160 -0.7277  0.4769
  146OSM    C9S16108   3.368   5.208   5.718  0.7087 -0.3370  0.3560
  146OSM    H9S16109   3.311   5.118   5.748 -1.5673  0.8562 -0.1400
  146OSM    H9T16110   3.477   5.190   5.726  0.8358  0.4602  0.5532
  146OSM   C10S16111   3.339   5.258   5.580 -0.1739  0.3805 -0.1235
  146OSM   H10S16112   3.415   5.337   5.562  1.0606 -0.3763  1.5258
  146OSM   H10T16113   3.234   5.294   5.568 -0.1105 -0.1539 -3.3888
  146OSM   C11S16114   3.359   5.155   5.469 -0.1060  0.1419 -0.1288
  146OSM   H11S16115   3.294   5.067   5.492 -1.9437  1.5570  0.3484
  146OSM   H11T16116   3.461   5.114   5.483 -0.2543  0.2026  1.3408
  146OSM   C12S16117   3.350   5.200   5.322  0.0173  0.4680 -0.4916
  146OSM   H12S16118   3.411   5.292   5.308  0.8691  0.0843  0.5462
  146OSM   H12T16119   3.247   5.223   5.290  0.3482 -0.5169 -2.3962
  146OSM   C13S16120   3.390   5.088   5.221 -0.2232  0.0355  0.7799
  146OSM   H13S16121   3.311   5.012   5.205 -1.3155  1.4958 -1.0946
  146OSM   H13T16122   3.479   5.033   5.258 -0.4073 -1.8239 -1.3563
  146OSM   C14S16123   3.431   5.147   5.082 -0.3197 -0.4272  0.0293
  146OSM   H14S16124   3.499   5.233   5.097 -1.1043  0.1788  0.1776
  146OSM   H14T16125   3.337   5.164   5.025  0.7009 -0.8133 -1.8318
  146OSM   C15S16126   3.506   5.043   4.998 -0.6120 -0.3153  0.7364
  146OSM   H15S16127   3.467   4.939   5.010 -2.8918  0.2551 -1.0084
  146OSM   H15T16128   3.607   5.035   5.042 -1.6868 -1.6526  3.1871
  146OSM   C16S16129   3.532   5.067   4.850  0.3954 -0.0447 -0.3043
  146OSM   H16S16130   3.629   5.021   4.822  1.7058  1.7537  1.0857
  146OSM   H16T16131   3.532   5.178   4.843  1.8794  0.2209  2.3653
  146OSM   C17S16132   3.432   5.010   4.760  0.5103 -0.0132 -0.4151
  146OSM   H17S16133   3.338   5.059   4.793 -0.3453 -2.9694  1.9846
  146OSM   H17T16134   3.408   4.902   4.774 -0.6807  0.3532  0.5487
  146OSM   C18S16135   3.468   5.035   4.612  0.3620  0.3482 -0.4214
  146OSM   H18S16136   3.390   4.988   4.548  0.6264 -1.1083  0.2765
  146OSM   H18T16137   3.550   4.962   4.593  0.1799 -0.2076  0.8405
  146OSM   H18U16138   3.505   5.138   4.593  0.9204  0.2692  0.1761
  146OSM    C1F16139   3.877   5.426   6.204 -1.0140  0.2265  0.0310
  146OSM     OF16140   3.933   5.326   6.254 -0.1776 -0.1594  0.2124
  146OSM    C2F16141   3.903   5.482   6.060 -0.7373  0.4412 -0.5776
  146OSM    H2F16142   4.013   5.492   6.048 -0.7363  0.4822 -0.5355
  146OSM    H2G16143   3.858   5.583   6.046 -1.1334  0.5053  0.9449
  146OSM    C3F16144   3.855   5.379   5.961  0.4358 -0.6860  0.4567
  146OSM    H3F16145   3.747   5.356   5.975  0.4697 -0.8180  0.5020
  146OSM    H3G16146   3.900   5.277   5.971  0.3797 -0.6479  1.1086
  146OSM    C4F16147   3.884   5.411   5.803  0.2180  0.2982  0.2530
  146OSM    H4F16148   3.993   5.425   5.787 -0.1247  3.4835 -0.0014
  146OSM    H4G16149   3.836   5.507   5.775 -0.6980 -0.3118 -0.3410
  146OSM    C5F16150   3.824   5.305   5.712 -0.4180  0.2205  0.1949
  146OSM    H5F16151   3.720   5.274   5.735 -0.0672  0.2372  1.9993
  146OSM    H5G16152   3.880   5.211   5.731 -2.6249 -1.0124  0.9015
  146OSM    C6F16153   3.847   5.336   5.563  0.3202  0.0690  0.2410
  146OSM    H6F16154   3.952   5.373   5.554  0.0793  1.2859  1.9597
  146OSM    H6G16155   3.783   5.412   5.514  0.9456  0.4567  0.0057
  146OSM    C7F16156   3.836   5.217   5.480  0.6978 -0.0303  0.3113
  146OSM    H7F16157   3.728   5.192   5.471  0.1132  2.9619 -3.2406
  146OSM    H7G16158   3.909   5.150   5.530  2.1159  1.3018  0.1122
  146OSM    C8F16159   3.898   5.245   5.343  0.1746 -0.2087  0.0355
  146OSM    H8F16160   4.002   5.281   5.357  0.6733 -0.6959 -2.0527
  146OSM    H8G16161   3.845   5.338   5.311 -2.3863 -1.8954 -0.9417
  146OSM    C9F16162   3.892   5.122   5.257  0.6622  0.1909  0.9319
  146OSM    H9F16163   3.888   5.022   5.303  1.3446 -0.8677 -1.1893
  146OSM   C10F16164   3.879   5.140   5.121  0.5478  0.0678  0.1287
  146OSM   H10F16165   3.877   5.048   5.061  1.9326  1.1235 -1.6426
  146OSM   C11F16166   3.869   5.270   5.038 -0.5597  0.3223 -0.0411
  146OSM   H11F16167   3.869   5.364   5.097  0.1088 -0.0340  0.5478
  146OSM   H11G16168   3.766   5.281   4.997 -0.3868  3.8259  0.1514
  146OSM   C12F16169   3.978   5.281   4.937 -0.2690 -0.2203 -0.0983
  146OSM   H12F16170   4.077   5.241   4.969  0.1093  1.2212  0.5770
  146OSM   H12G16171   3.988   5.388   4.909 -1.0373 -0.0069  0.4213
  146OSM   C13F16172   3.943   5.195   4.812  0.6665 -0.1797 -0.4463
  146OSM   H13F16173   3.842   5.229   4.779  0.8344  1.4925  0.6522
  146OSM   H13G16174   3.933   5.086   4.829 -0.5803 -0.1144 -0.6355
  146OSM   C14F16175   4.057   5.203   4.706 -0.0263  0.5457 -0.1089
  146OSM   H14F16176   4.092   5.308   4.715 -1.0706  0.8211  1.0709
  146OSM   H14G16177   4.130   5.127   4.741 -1.0397  0.0779  1.0562
  146OSM   C15F16178   4.012   5.167   4.561 -0.1809 -0.4428  0.4416
  146OSM   H15F16179   4.092   5.201   4.493 -0.4443  1.4891  1.0467
  146OSM   H15G16180   3.932   5.242   4.547  1.9611  1.7611 -0.5708
  146OSM   C16F16181   3.971   5.020   4.537  0.7073 -0.3074 -0.2114
  146OSM   H16F16182   3.887   4.997   4.606  1.5166  1.3710  1.4223
  146OSM   H16G16183   4.059   4.953   4.546  0.8743  0.0428  0.8328
  146OSM   C17F16184   3.926   5.002   4.388 -0.0849 -0.5164  0.5346
  146OSM   H17F16185   4.006   5.056   4.333 -0.0626 -0.0731  0.9893
  146OSM   H17G16186   3.827   5.048   4.370  0.2216  0.0336  0.2080
  146OSM   C18F16187   3.936   4.859   4.341 -0.0246 -0.5492 -0.2843
  146OSM   H18F16188   4.033   4.814   4.373  0.2428  0.9843  1.2140
  146OSM   H18G16189   3.923   4.852   4.231  1.2468  2.4950 -0.7407
  146OSM   H18H16190   3.854   4.802   4.390 -0.5498 -0.9378 -1.5909
  147OSM      N16191   6.512   5.912   2.261  0.0648 -0.5851  0.7041
  147OSM    C1516192   6.461   5.800   2.173  0.7309 -0.7860  0.1153
  147OSM   H15A16193   6.360   5.835   2.157  1.2600  1.3481  1.1606
  147OSM   H15B16194   6.459   5.706   2.225 -0.2678 -0.9763 -0.2395
  147OSM   H15C16195   6.508   5.789   2.076  0.9693 -1.4435  0.3003
  147OSM    C1416196   6.668   5.889   2.257 -0.4040  0.7332 -0.4098
  147OSM   H14A16197   6.692   5.797   2.310 -0.2924  1.6872  1.2509
  147OSM   H14B16198   6.725   5.972   2.295 -0.8651  1.1473 -0.6161
  147OSM   H14C16199   6.700   5.875   2.155  2.7592  0.4933  0.5138
  147OSM    C1316200   6.482   6.037   2.186 -0.5378 -0.1634 -0.8018
  147OSM   H13A16201   6.378   6.063   2.167 -0.4344  0.9385  0.0626
  147OSM   H13B16202   6.529   6.035   2.089 -1.4506 -1.2111 -1.2530
  147OSM   H13C16203   6.523   6.111   2.252 -0.0923  0.6138 -1.9139
  147OSM    C1216204   6.461   5.899   2.401 -0.1918 -0.7942  0.0796
  147OSM   H12A16205   6.355   5.875   2.397  0.1635 -2.9548  1.8429
  147OSM   H12B16206   6.464   5.992   2.456  0.1496 -0.6429 -0.1945
  147OSM    C1116207   6.530   5.793   2.488 -0.0416  0.6380 -0.3290
  147OSM   H11A16208   6.486   5.793   2.590  0.1454 -0.4432 -0.2363
  147OSM   H11B16209   6.635   5.826   2.506 -0.0428  0.6670 -0.3770
  147OSM      P16210   6.399   5.578   2.431 -0.1287  0.0075 -0.1176
  147OSM    O1316211   6.289   5.652   2.497  0.0219  0.1556 -0.0314
  147OSM    O1416212   6.375   5.536   2.293 -0.3925 -0.1023 -0.3214
  147OSM    O1116213   6.442   5.454   2.518 -0.1010  0.2932 -0.0219
  147OSM    O1216214   6.526   5.663   2.429  0.5552 -0.2453 -0.1185
  147OSM    C1S16215   6.466   5.486   2.660  0.2197  0.0790  0.6277
  147OSM    H1S16216   6.373   5.531   2.703 -0.4766 -0.1435 -0.5883
  147OSM    H1T16217   6.542   5.563   2.685  0.0718 -0.2232  2.1603
  147OSM     NF16218   6.488   5.385   2.884  0.3806  0.2760  0.3596
  147OSM    HNF16219   6.578   5.397   2.924  1.9360 -1.0196 -2.4895
  147OSM    C2S16220   6.488   5.351   2.748  0.1748 -0.0030 -0.4348
  147OSM    H2S16221   6.402   5.283   2.731  0.1241 -0.1613  0.3760
  147OSM    C3S16222   6.615   5.284   2.690 -0.2214 -0.1010  0.1986
  147OSM    H3S16223   6.700   5.354   2.699  0.3260 -0.5955 -0.9948
  147OSM     O316224   6.597   5.248   2.557 -0.0943  0.4071 -0.3809
  147OSM    HO316225   6.517   5.297   2.537 -0.0752  1.5830  2.0067
  147OSM    C4S16226   6.637   5.156   2.755 -0.2310 -0.2478  0.3722
  147OSM    H4S16227   6.555   5.084   2.753 -0.3731 -0.2991  3.3479
  147OSM    C5S16228   6.756   5.118   2.806  0.3488  0.6643  0.5368
  147OSM    H5S16229   6.839   5.191   2.799  0.6464  0.1687 -2.3155
  147OSM    C6S16230   6.778   4.987   2.878 -0.2711  0.7157  0.3510
  147OSM    H6S16231   6.870   4.943   2.835  0.6961  1.5528  1.5108
  147OSM    H6T16232   6.699   4.912   2.855  0.6287 -0.0642 -0.2581
  147OSM    C7S16233   6.791   4.993   3.032 -0.3987 -0.1028  0.4701
  147OSM    H7S16234   6.697   5.036   3.071 -0.4894 -0.7020  0.9276
  147OSM    H7T16235   6.864   5.070   3.063 -0.8994  0.4447  0.3060
  147OSM    C8S16236   6.817   4.857   3.094 -0.6000 -0.1957  0.1578
  147OSM    H8S16237   6.904   4.806   3.047  0.7251  1.8971  0.2453
  147OSM    H8T16238   6.724   4.798   3.076 -0.5616 -0.1018 -0.3660
  147OSM    C9S16239   6.827   4.870   3.247  0.1514 -0.4025  0.5381
  147OSM    H9S16240   6.763   4.954   3.281 -0.1156  0.0019 -0.8783
  147OSM    H9T16241   6.930   4.902   3.273  0.7173 -1.1495 -0.6930
  147OSM   C10S16242   6.787   4.746   3.337  0.1828 -0.0952  0.4729
  147OSM   H10S16243   6.846   4.662   3.294  0.8558  0.9320 -0.7191
  147OSM   H10T16244   6.679   4.724   3.323  0.1551  0.9479 -1.2515
  147OSM   C11S16245   6.817   4.779   3.478 -0.2156 -0.1278 -0.4207
  147OSM   H11S16246   6.775   4.873   3.519  0.0038 -0.9492  1.8677
  147OSM   H11T16247   6.925   4.807   3.478 -0.3449  0.9611  3.3921
  147OSM   C12S16248   6.807   4.666   3.575 -0.3006  0.0068 -0.0765
  147OSM   H12S16249   6.885   4.593   3.542  1.2070  1.0151  1.1226
  147OSM   H12T16250   6.708   4.615   3.573 -0.3212  0.0394  0.1626
  147OSM   C13S16251   6.852   4.719   3.712  0.0136  0.3360  0.6011
  147OSM   H13S16252   6.778   4.779   3.769 -0.4497 -0.0735  0.4420
  147OSM   H13T16253   6.940   4.783   3.692 -0.1554 -0.0920 -1.7956
  147OSM   C14S16254   6.899   4.598   3.800 -0.0143 -0.5420 -0.0812
  147OSM   H14S16255   6.959   4.539   3.727 -1.4419 -0.5001 -1.3205
  147OSM   H14T16256   6.818   4.528   3.831 -0.5431  0.2242  0.2865
  147OSM   C15S16257   6.997   4.643   3.906 -0.6836 -0.5144  0.2760
  147OSM   H15S16258   6.934   4.689   3.985 -2.7960 -0.6635 -1.2296
  147OSM   H15T16259   7.057   4.727   3.864 -0.6290 -0.1098  1.1329
  147OSM   C16S16260   7.079   4.526   3.962  0.2658  0.2255  0.5616
  147OSM   H16S16261   7.151   4.496   3.883 -0.5179  1.3037 -0.6201
  147OSM   H16T16262   7.006   4.444   3.973 -2.2016  1.6796 -2.9757
  147OSM   C17S16263   7.147   4.557   4.083  0.2356  0.3045 -0.3608
  147OSM   H17S16264   7.068   4.582   4.157 -0.3763  0.6574 -1.1128
  147OSM   H17T16265   7.219   4.642   4.076  0.7497 -0.1798 -1.0765
  147OSM   C18S16266   7.227   4.433   4.137 -0.0893  0.3054  0.8486
  147OSM   H18S16267   7.288   4.449   4.228  1.8348  1.5648 -0.5777
  147OSM   H18T16268   7.301   4.398   4.062 -1.6687  1.4883 -1.4075
  147OSM   H18U16269   7.156   4.354   4.170 -2.8049  2.5383  0.7878
  147OSM    C1F16270   6.378   5.412   2.953  0.4022  0.1875  0.1750
  147OSM     OF16271   6.270   5.383   2.906  0.5504  1.0067  0.1632
  147OSM    C2F16272   6.388   5.462   3.091  0.6139  0.0296  0.0525
  147OSM    H2F16273   6.477   5.528   3.102  2.1284 -1.8348 -0.4541
  147OSM    H2G16274   6.417   5.378   3.157  2.2943 -0.0740 -0.7800
  147OSM    C3F16275   6.251   5.511   3.145  0.1081 -0.1101  0.4535
  147OSM    H3F16276   6.191   5.418   3.149  2.5478 -1.8008 -0.3281
  147OSM    H3G16277   6.206   5.584   3.074  0.1246  0.6799  1.2399
  147OSM    C4F16278   6.260   5.585   3.274 -0.2596  0.4326 -0.0540
  147OSM    H4F16279   6.315   5.681   3.261 -0.0036 -0.0181 -2.7118
  147OSM    H4G16280   6.328   5.529   3.342  0.6015  1.2525 -0.2227
  147OSM    C5F16281   6.128   5.619   3.343  0.2062  0.1057 -0.0735
  147OSM    H5F16282   6.057   5.534   3.332  0.0806  0.2585 -0.4586
  147OSM    H5G16283   6.079   5.705   3.291 -2.8092 -1.3503  0.1246
  147OSM    C6F16284   6.140   5.650   3.493  0.0348 -0.3749  0.6944
  147OSM    H6F16285   6.042   5.687   3.530 -0.6789 -1.1100 -0.4211
  147OSM    H6G16286   6.216   5.729   3.509 -0.4410  0.1633  0.3585
  147OSM    C7F16287   6.169   5.529   3.585 -0.6582  0.0253  0.2973
  147OSM    H7F16288   6.268   5.490   3.556 -0.8991 -1.2119  1.0833
  147OSM    H7G16289   6.120   5.430   3.573  2.5833 -1.4949 -1.5303
  147OSM    C8F16290   6.190   5.576   3.727 -0.2674  0.1432  0.0592
  147OSM    H8F16291   6.245   5.672   3.738  1.4689 -0.9607  1.7440
  147OSM    H8G16292   6.247   5.497   3.781  1.5288  1.1274 -0.3060
  147OSM    C9F16293   6.056   5.605   3.792 -0.3129  0.2638  0.6448
  147OSM    H9F16294   6.016   5.706   3.776  1.7636  0.7407 -2.5415
  147OSM   C10F16295   5.992   5.515   3.867  0.1608 -1.0351  0.2239
  147OSM   H10F16296   5.892   5.539   3.906 -0.4130 -1.4877 -0.9402
  147OSM   C11F16297   6.038   5.372   3.884  0.1929 -0.3719  0.1510
  147OSM   H11F16298   6.093   5.339   3.794  1.3031  1.7210  0.0074
  147OSM   H11G16299   5.954   5.301   3.899  0.2142 -0.2175  1.1002
  147OSM   C12F16300   6.136   5.343   4.002  0.1763  0.9381 -0.2267
  147OSM   H12F16301   6.213   5.423   4.006 -0.2203  1.3346 -0.5290
  147OSM   H12G16302   6.170   5.238   3.987  1.4878  1.1274  1.1383
  147OSM   C13F16303   6.075   5.345   4.143 -0.3747 -0.3311  0.2085
  147OSM   H13F16304   5.975   5.296   4.145 -0.6316  0.1360 -0.6155
  147OSM   H13G16305   6.051   5.452   4.159 -1.6082 -0.5899  0.2123
  147OSM   C14F16306   6.172   5.298   4.246 -0.0928  0.2636  0.1906
  147OSM   H14F16307   6.272   5.344   4.228 -0.2459  0.2904 -0.6462
  147OSM   H14G16308   6.183   5.189   4.230  0.1724  0.3314 -0.1120
  147OSM   C15F16309   6.133   5.330   4.392  0.8024 -0.1792 -0.1879
  147OSM   H15F16310   6.156   5.437   4.408  1.0315 -0.3093  0.3859
  147OSM   H15G16311   6.188   5.260   4.458 -0.8512 -2.3941 -1.0239
  147OSM   C16F16312   5.992   5.305   4.438  0.0693  0.1005 -0.0690
  147OSM   H16F16313   5.929   5.362   4.367  0.9064 -0.0500 -0.9557
  147OSM   H16G16314   5.979   5.337   4.544  1.6015  0.5153  0.0194
  147OSM   C17F16315   5.943   5.162   4.425 -0.7909 -0.0655 -0.7966
  147OSM   H17F16316   6.012   5.079   4.449  0.5607  1.0566 -0.6272
  147OSM   H17G16317   5.920   5.145   4.318  2.4182  0.4731 -1.6864
  147OSM   C18F16318   5.804   5.153   4.503 -0.6529 -0.7176  1.1858
  147OSM   H18F16319   5.718   5.184   4.439  0.7021  2.5076  0.7156
  147OSM   H18G16320   5.805   5.219   4.592 -0.1619 -0.3818  0.9393
  147OSM   H18H16321   5.786   5.049   4.534  2.4947 -1.8959 -0.4719
  148OSM      N16322   0.932   5.168   1.932  0.5585 -0.6056 -0.3198
  148OSM    C1516323   0.804   5.243   1.896 -0.4628  0.8170  0.0315
  148OSM   H15A16324   0.808   5.345   1.930 -1.4971  1.1646 -0.8029
  148OSM   H15B16325   0.728   5.189   1.950  0.5282 -0.6640 -0.0001
  148OSM   H15C16326   0.778   5.239   1.791  1.0550  0.1358 -0.3480
  148OSM    C1416327   0.919   5.025   1.913  0.0616 -0.1154  0.5671
  148OSM   H14A16328   0.823   4.996   1.953  0.2848  0.4589  1.5427
  148OSM   H14B16329   0.993   4.967   1.967 -2.1595 -0.3698  3.5875
  148OSM   H14C16330   0.931   5.018   1.806 -0.7765  2.9255  0.2001
  148OSM    C1316331   1.048   5.215   1.847 -0.2818 -0.1073 -0.1737
  148OSM   H13A16332   1.062   5.320   1.870 -0.7725 -0.2388  0.8097
  148OSM   H13B16333   1.015   5.210   1.744  0.6482  0.3123 -0.5024
  148OSM   H13C16334   1.140   5.168   1.879  0.1167  1.5092  1.2422
  148OSM    C1216335   0.971   5.194   2.075  0.3746 -0.4143  0.6563
  148OSM   H12A16336   0.934   5.294   2.093  0.3580 -0.3147  0.0653
  148OSM   H12B16337   1.078   5.201   2.082  0.8962 -1.6985 -3.4540
  148OSM    C1116338   0.911   5.108   2.190 -0.2275 -0.1204 -0.0763
  148OSM   H11A16339   0.959   5.142   2.285 -1.2633  1.2623  0.0037
  148OSM   H11B16340   0.952   5.006   2.178  2.0108  0.9373 -2.2815
  148OSM      P16341   0.689   5.221   2.250  0.0549 -0.6580 -0.4468
  148OSM    O1316342   0.784   5.337   2.258  0.1234  0.6941 -0.6305
  148OSM    O1416343   0.566   5.234   2.177  0.7537 -1.0740  0.1608
  148OSM    O1116344   0.637   5.179   2.398 -0.5278 -0.1786  0.1066
  148OSM    O1216345   0.771   5.098   2.197  0.4137 -0.3028  0.4187
  148OSM    C1S16346   0.699   5.079   2.479 -0.5767 -1.1073 -0.1898
  148OSM    H1S16347   0.808   5.096   2.467 -0.8074 -1.6464 -4.7890
  148OSM    H1T16348   0.679   4.978   2.436 -1.3403 -1.0320 -0.0266
  148OSM     NF16349   0.738   4.990   2.703 -0.2123 -0.2946 -0.0376
  148OSM    HNF16350   0.695   4.903   2.723 -1.0846  0.2585  0.5554
  148OSM    C2S16351   0.662   5.091   2.628  0.8836 -0.2056 -0.3849
  148OSM    H2S16352   0.695   5.191   2.663 -1.3980  1.2386 -2.1041
  148OSM    C3S16353   0.504   5.080   2.657  0.1296 -0.1702  0.2156
  148OSM    H3S16354   0.481   4.972   2.639 -1.1640  0.0878  0.2466
  148OSM     O316355   0.412   5.149   2.568 -0.7166 -0.3766 -0.3439
  148OSM    HO316356   0.462   5.150   2.487 -0.4025 -0.8252 -0.1559
  148OSM    C4S16357   0.476   5.125   2.804  0.1940 -0.5160  0.7062
  148OSM    H4S16358   0.511   5.223   2.837  0.9757 -0.1472 -1.0798
  148OSM    C5S16359   0.398   5.055   2.890  0.1599 -0.1439  0.0251
  148OSM    H5S16360   0.364   4.952   2.874  1.2081 -1.1574  3.4482
  148OSM    C6S16361   0.363   5.096   3.029 -0.4025  0.0260 -0.4465
  148OSM    H6S16362   0.258   5.069   3.051  0.0564 -1.1731  0.4048
  148OSM    H6T16363   0.367   5.206   3.045  1.6609 -0.1670  0.7433
  148OSM    C7S16364   0.454   5.027   3.137 -0.2965 -0.2366  0.0871
  148OSM    H7S16365   0.553   5.076   3.127 -0.5864  0.2146 -0.7138
  148OSM    H7T16366   0.460   4.921   3.104  1.1853 -0.8402  2.1721
  148OSM    C8S16367   0.392   5.032   3.278 -0.0041 -0.2215 -0.0947
  148OSM    H8S16368   0.295   4.978   3.270 -0.6112  0.5725  1.5176
  148OSM    H8T16369   0.376   5.138   3.304 -1.1930 -0.6214  0.9031
  148OSM    C9S16370   0.497   4.971   3.375  0.0598  0.4925 -0.1694
  148OSM    H9S16371   0.592   5.026   3.355 -1.7286  2.9920 -2.4434
  148OSM    H9T16372   0.526   4.865   3.363 -4.9774 -1.1892  0.2106
  148OSM   C10S16373   0.444   4.966   3.522  0.1614 -0.2806 -0.5861
  148OSM   H10S16374   0.352   4.906   3.537 -0.0234 -0.0633 -0.8335
  148OSM   H10T16375   0.415   5.070   3.551 -0.1865 -0.0020 -1.8526
  148OSM   C11S16376   0.556   4.923   3.619  0.0328  0.2924 -0.0803
  148OSM   H11S16377   0.652   4.979   3.615  0.4032 -0.3554 -0.3897
  148OSM   H11T16378   0.580   4.819   3.589 -1.1185 -0.0516  0.1330
  148OSM   C12S16379   0.506   4.909   3.769  0.1087 -0.6685  0.1179
  148OSM   H12S16380   0.399   4.880   3.773  0.4769 -2.7984 -2.2990
  148OSM   H12T16381   0.525   5.002   3.825 -1.6943 -0.9301  1.2355
  148OSM   C13S16382   0.582   4.811   3.856 -0.3019 -0.0219 -0.5847
  148OSM   H13S16383   0.581   4.710   3.810 -0.8687 -0.0476 -0.5271
  148OSM   H13T16384   0.518   4.805   3.947 -1.2919 -0.5962 -1.2990
  148OSM   C14S16385   0.717   4.854   3.897  0.1042 -0.0716 -0.1043
  148OSM   H14S16386   0.716   4.914   3.990 -0.0843  0.1273 -0.2335
  148OSM   H14T16387   0.755   4.930   3.825 -0.4839 -0.8068 -1.2232
  148OSM   C15S16388   0.815   4.738   3.918 -0.0178 -0.2907  0.2589
  148OSM   H15S16389   0.918   4.777   3.930  0.2858 -1.3884  1.4441
  148OSM   H15T16390   0.824   4.673   3.828  1.4286 -0.7100  0.6767
  148OSM   C16S16391   0.777   4.660   4.042 -0.2019  0.7474  0.5460
  148OSM   H16S16392   0.684   4.601   4.027  1.1184 -1.1654 -0.5687
  148OSM   H16T16393   0.765   4.715   4.137 -1.0021 -0.3474  1.1015
  148OSM   C17S16394   0.874   4.552   4.070 -0.3916  0.1978 -0.3424
  148OSM   H17S16395   0.890   4.468   3.998  0.1973  0.5888 -0.6776
  148OSM   H17T16396   0.835   4.497   4.158 -1.9914 -0.9309 -1.6865
  148OSM   C18S16397   1.015   4.601   4.114 -0.3141  0.3850 -0.4602
  148OSM   H18S16398   1.075   4.521   4.163  0.2424  1.9142  1.5370
  148OSM   H18T16399   0.999   4.679   4.192 -1.3242  0.1310 -0.4044
  148OSM   H18U16400   1.074   4.643   4.030 -0.7023  1.7191 -0.0851
  148OSM    C1F16401   0.864   5.017   2.735 -0.1689  0.3351  0.3705
  148OSM     OF16402   0.924   5.118   2.696  0.0292 -0.2224 -0.1649
  148OSM    C2F16403   0.942   4.920   2.825  0.1288 -0.2503  0.3911
  148OSM    H2F16404   1.047   4.951   2.812  0.1270  1.1575  2.9290
  148OSM    H2G16405   0.912   4.817   2.795 -0.7296 -0.0285  0.4557
  148OSM    C3F16406   0.911   4.954   2.979 -0.1330  0.1367 -0.1733
  148OSM    H3F16407   0.812   4.906   2.993  0.4009 -0.9246  0.0534
  148OSM    H3G16408   0.909   5.060   3.012  0.2192  0.1037 -0.0470
  148OSM    C4F16409   1.007   4.896   3.080 -0.2721  0.6293  0.0148
  148OSM    H4F16410   1.040   4.793   3.053  2.2330  1.0685  1.0928
  148OSM    H4G16411   0.956   4.892   3.179 -4.0548 -1.1199 -1.7802
  148OSM    C5F16412   1.139   4.983   3.097  0.6253  0.8374  0.6204
  148OSM    H5F16413   1.106   5.082   3.136  0.2440  1.8521 -2.0299
  148OSM    H5G16414   1.182   4.998   2.996 -2.2424  2.6492 -0.4747
  148OSM    C6F16415   1.248   4.915   3.184 -0.3582  0.2395 -0.5244
  148OSM    H6F16416   1.279   4.823   3.130 -4.1017 -1.6502  0.1986
  148OSM    H6G16417   1.215   4.878   3.284 -0.5862  0.7938 -0.3891
  148OSM    C7F16418   1.363   5.000   3.221 -0.1392 -0.1942 -0.2824
  148OSM    H7F16419   1.324   5.088   3.277 -0.9559 -0.9838  0.4074
  148OSM    H7G16420   1.403   5.047   3.128  1.8341  1.0607  1.1128
  148OSM    C8F16421   1.490   4.926   3.280 -0.0562  0.3816 -0.4079
  148OSM    H8F16422   1.523   4.844   3.213  0.0618  1.1554 -1.3278
  148OSM    H8G16423   1.469   4.887   3.382  0.8625 -0.8611 -0.6762
  148OSM    C9F16424   1.604   5.028   3.290 -0.0508 -0.2093  0.4402
  148OSM    H9F16425   1.578   5.127   3.250 -2.5211 -1.7937 -2.2361
  148OSM   C10F16426   1.724   5.002   3.350 -0.0591 -0.3778  0.1842
  148OSM   H10F16427   1.802   5.079   3.344  0.9862 -1.3156  1.1905
  148OSM   C11F16428   1.762   4.870   3.398  0.2902  0.5169 -0.4163
  148OSM   H11F16429   1.832   4.823   3.327  0.1878 -1.4932  0.7384
  148OSM   H11G16430   1.671   4.806   3.394 -1.3049  2.7072 -1.5494
  148OSM   C12F16431   1.825   4.851   3.536  0.6699  0.2327 -0.4925
  148OSM   H12F16432   1.748   4.858   3.616 -0.0602 -1.1207 -1.0490
  148OSM   H12G16433   1.895   4.937   3.548  0.3159  0.3751  0.6952
  148OSM   C13F16434   1.908   4.728   3.545  0.6644 -0.1572 -0.8678
  148OSM   H13F16435   1.983   4.715   3.464  1.6709 -2.0528  0.2642
  148OSM   H13G16436   1.837   4.643   3.544  0.7126 -0.2948  1.5570
  148OSM   C14F16437   1.991   4.717   3.667  0.5116  0.0895 -0.4427
  148OSM   H14F16438   1.915   4.744   3.743  2.5893 -1.4506  2.3797
  148OSM   H14G16439   2.080   4.783   3.668  1.3481 -0.7979 -3.4824
  148OSM   C15F16440   2.038   4.570   3.702 -0.0050  0.1549  0.4958
  148OSM   H15F16441   1.982   4.491   3.648  2.7764 -0.5228 -1.6329
  148OSM   H15G16442   2.010   4.555   3.808 -1.9903 -1.1102 -0.1573
  148OSM   C16F16443   2.190   4.554   3.684 -0.5883 -0.4892 -0.8004
  148OSM   H16F16444   2.216   4.595   3.584  0.5957 -3.9140 -2.0403
  148OSM   H16G16445   2.209   4.445   3.681  0.5028 -0.3972  1.1937
  148OSM   C17F16446   2.279   4.614   3.793 -0.5693  0.9946  0.3966
  148OSM   H17F16447   2.228   4.710   3.817 -0.8873  1.2154 -1.0614
  148OSM   H17G16448   2.382   4.643   3.764 -0.5814  2.4907  1.7126
  148OSM   C18F16449   2.290   4.529   3.924 -0.3219 -0.6265  0.3157
  148OSM   H18F16450   2.310   4.421   3.908  0.6450 -0.4387  0.2210
  148OSM   H18G16451   2.196   4.530   3.984 -1.0475  0.8291 -0.7893
  148OSM   H18H16452   2.378   4.573   3.976  0.5102  1.2645 -2.5063
  149OSM      N16453   0.717   1.957   1.929 -0.1350  0.0219  0.2217
  149OSM    C1516454   0.774   2.043   1.819 -0.4424 -0.0960  0.1277
  149OSM   H15A16455   0.764   1.990   1.726  1.0737  0.6300 -0.4864
  149OSM   H15B16456   0.876   2.061   1.850  0.1672 -1.2351 -1.1509
  149OSM   H15C16457   0.721   2.136   1.802 -1.1005 -0.6703 -1.0739
  149OSM    C1416458   0.583   1.909   1.878  0.1149  0.3179 -0.3409
  149OSM   H14A16459   0.506   1.985   1.874  1.7031  1.9308 -2.2096
  149OSM   H14B16460   0.542   1.825   1.932  0.2190  0.0450 -0.6790
  149OSM   H14C16461   0.593   1.880   1.774 -0.9176 -0.9118 -0.1258
  149OSM    C1316462   0.811   1.833   1.936 -1.2682 -0.1809 -0.4591
  149OSM   H13A16463   0.904   1.863   1.983 -0.7822  1.3104 -2.2521
  149OSM   H13B16464   0.827   1.779   1.844 -0.9702  1.1940 -1.2426
  149OSM   H13C16465   0.770   1.763   2.008 -4.0719 -0.6120 -2.3085
  149OSM    C1216466   0.711   2.022   2.060 -0.7605 -0.6280 -0.0081
  149OSM   H12A16467   0.685   1.943   2.129 -0.0308 -2.4330 -1.7146
  149OSM   H12B16468   0.652   2.112   2.059 -0.7342 -0.5906  0.9784
  149OSM    C1116469   0.849   2.076   2.111 -0.4131 -0.3613  0.0048
  149OSM   H11A16470   0.919   1.990   2.116 -0.4123 -0.5703 -2.4476
  149OSM   H11B16471   0.822   2.108   2.214 -2.7739  1.1415 -0.9924
  149OSM      P16472   0.852   2.326   2.080 -0.0510 -0.3512 -0.1291
  149OSM    O1316473   0.875   2.392   1.955  0.4731 -0.2082  0.2104
  149OSM    O1416474   0.712   2.321   2.139 -0.0073 -0.1549  0.1032
  149OSM    O1116475   0.954   2.391   2.183  0.4572 -0.1618  0.3352
  149OSM    O1216476   0.905   2.190   2.042 -0.5787  0.9152 -0.3652
  149OSM    C1S16477   0.909   2.435   2.311 -0.2104  0.2441 -0.1900
  149OSM    H1S16478   0.932   2.354   2.383  0.0007  0.8670  0.4561
  149OSM    H1T16479   0.800   2.455   2.309 -0.2015  0.2830 -0.4056
  149OSM     NF16480   0.963   2.616   2.484  0.4565 -0.0277  0.1062
  149OSM    HNF16481   0.912   2.701   2.485 -0.0087 -0.3071  1.7101
  149OSM    C2S16482   0.985   2.566   2.354  0.1471 -0.2998 -0.0105
  149OSM    H2S16483   1.091   2.539   2.337 -0.3775 -1.4542 -1.8193
  149OSM    C3S16484   0.966   2.679   2.242  0.7253  0.4551  0.5123
  149OSM    H3S16485   0.857   2.694   2.229  0.4845 -0.5884  1.1610
  149OSM     O316486   1.002   2.652   2.111  0.0957 -0.6351 -0.0771
  149OSM    HO316487   0.977   2.559   2.104  1.6205 -1.0557 -0.3470
  149OSM    C4S16488   1.041   2.801   2.269  0.0858 -0.1935  0.1679
  149OSM    H4S16489   1.150   2.789   2.277 -0.0467 -0.1106  3.0463
  149OSM    C5S16490   0.976   2.917   2.293  0.2951  0.2820 -0.0780
  149OSM    H5S16491   0.867   2.906   2.304  0.4711 -0.2394  1.3221
  149OSM    C6S16492   1.044   3.051   2.310 -0.9061 -0.3115  0.2569
  149OSM    H6S16493   1.041   3.085   2.416  1.0021  1.7857 -0.2941
  149OSM    H6T16494   1.001   3.136   2.252  1.3072 -0.0440 -1.0932
  149OSM    C7S16495   1.188   3.040   2.253 -0.0422 -0.1581 -0.0971
  149OSM    H7S16496   1.180   3.004   2.148  1.9091  0.9830 -0.7035
  149OSM    H7T16497   1.254   2.966   2.303  2.0483  0.6310 -1.5032
  149OSM    C8S16498   1.262   3.175   2.252 -0.2323 -0.1428  0.0517
  149OSM    H8S16499   1.198   3.245   2.195  0.1353 -1.0566 -1.5444
  149OSM    H8T16500   1.360   3.150   2.207  1.0712 -1.0968  3.1306
  149OSM    C9S16501   1.286   3.227   2.391 -0.0050  0.2666  0.1723
  149OSM    H9S16502   1.185   3.267   2.417 -0.8484 -1.6861  0.0333
  149OSM    H9T16503   1.353   3.316   2.388  0.4650 -0.0236  1.5416
  149OSM   C10S16504   1.341   3.129   2.491  0.8992 -0.1282 -0.3533
  149OSM   H10S16505   1.429   3.075   2.452  1.7870  0.4769  0.7250
  149OSM   H10T16506   1.263   3.051   2.505  1.1299 -0.1634  0.8005
  149OSM   C11S16507   1.374   3.199   2.623 -0.2337  0.8444 -0.5062
  149OSM   H11S16508   1.288   3.265   2.649  0.2210  0.5675  1.9853
  149OSM   H11T16509   1.466   3.261   2.625 -0.4529  1.1710 -0.3158
  149OSM   C12S16510   1.391   3.083   2.725  0.1744 -0.4144 -0.0738
  149OSM   H12S16511   1.460   3.006   2.684 -0.2827 -1.0187  0.2706
  149OSM   H12T16512   1.295   3.027   2.730  0.2948 -0.6933 -0.7736
  149OSM   C13S16513   1.432   3.122   2.869 -0.8969 -0.3097  0.0080
  149OSM   H13S16514   1.388   3.044   2.934 -1.2009  0.7048  1.0476
  149OSM   H13T16515   1.389   3.217   2.908  1.5406  1.5520 -1.5192
  149OSM   C14S16516   1.583   3.131   2.900 -0.4409  1.1681 -0.2341
  149OSM   H14S16517   1.633   3.214   2.845 -0.0824 -0.6460 -2.8082
  149OSM   H14T16518   1.629   3.037   2.863 -1.5577  1.5366 -2.7907
  149OSM   C15S16519   1.607   3.146   3.055 -0.2233  0.1705  0.2234
  149OSM   H15S16520   1.706   3.095   3.064  0.3272  1.1276 -0.3049
  149OSM   H15T16521   1.532   3.081   3.106  0.1888 -0.4441  0.0664
  149OSM   C16S16522   1.618   3.288   3.102  0.4429  0.5090  0.0212
  149OSM   H16S16523   1.525   3.330   3.058  0.5216  1.1474  0.4640
  149OSM   H16T16524   1.700   3.347   3.057 -0.3223  2.3423  0.9235
  149OSM   C17S16525   1.616   3.303   3.255  0.4453  0.0690  0.8022
  149OSM   H17S16526   1.516   3.268   3.290 -1.2002  2.6031 -0.9872
  149OSM   H17T16527   1.612   3.411   3.281  1.2321  0.6297 -1.1889
  149OSM   C18S16528   1.726   3.234   3.330 -0.1628 -0.5369  0.3689
  149OSM   H18S16529   1.821   3.273   3.288 -1.5094  1.5931 -0.9151
  149OSM   H18T16530   1.728   3.123   3.334  0.9464 -0.5018  1.3855
  149OSM   H18U16531   1.721   3.282   3.430 -0.4670  1.2561 -0.4555
  149OSM    C1F16532   0.997   2.541   2.591 -0.5087  1.1700  0.4590
  149OSM     OF16533   1.068   2.440   2.573  0.3014  0.4316 -0.2904
  149OSM    C2F16534   0.976   2.601   2.729 -0.1970 -0.0846 -0.9734
  149OSM    H2F16535   0.869   2.585   2.753 -0.7067  0.1362 -2.9484
  149OSM    H2G16536   0.994   2.711   2.730  1.0677 -0.2733 -0.7472
  149OSM    C3F16537   1.065   2.554   2.847 -0.4789  0.3008 -0.0336
  149OSM    H3F16538   1.167   2.589   2.820  0.0723  0.0908  1.6568
  149OSM    H3G16539   1.063   2.443   2.856 -1.2162  0.0789 -2.3656
  149OSM    C4F16540   1.015   2.620   2.975  0.4731 -0.8431 -1.0488
  149OSM    H4F16541   1.066   2.589   3.069  0.3738  2.0651  0.0883
  149OSM    H4G16542   0.908   2.598   2.996  0.5295  1.3461  2.5086
  149OSM    C5F16543   1.039   2.773   2.970 -0.1517  0.4698  0.2554
  149OSM    H5F16544   0.941   2.816   2.939 -0.1350 -0.4127 -1.0959
  149OSM    H5G16545   1.108   2.798   2.887  0.6181 -0.0979  0.7158
  149OSM    C6F16546   1.082   2.831   3.103 -0.7435  0.2280 -0.8952
  149OSM    H6F16547   1.184   2.791   3.121  0.4388  2.1329 -2.8916
  149OSM    H6G16548   1.011   2.802   3.184 -1.9698  0.7213 -1.7719
  149OSM    C7F16549   1.092   2.986   3.102  0.4657  0.5431  0.4002
  149OSM    H7F16550   0.990   3.023   3.078  1.0551  0.3648 -2.8533
  149OSM    H7G16551   1.154   3.027   3.019 -0.5331  0.0619 -0.6126
  149OSM    C8F16552   1.165   3.037   3.231 -0.9079 -0.5530  1.2039
  149OSM    H8F16553   1.170   3.148   3.225  0.3517 -0.4826  2.9424
  149OSM    H8G16554   1.272   3.006   3.228 -0.3175  1.3565 -2.1392
  149OSM    C9F16555   1.111   3.006   3.365 -0.3743  0.1829  0.8537
  149OSM    H9F16556   1.001   2.997   3.368 -0.8566  3.5716 -1.5121
  149OSM   C10F16557   1.174   3.026   3.478  0.2573  0.2249 -0.6011
  149OSM   H10F16558   1.121   2.989   3.567  2.3497 -1.6747 -0.0316
  149OSM   C11F16559   1.316   3.068   3.493  0.0717  0.7320  0.1359
  149OSM   H11F16560   1.384   3.048   3.407  1.3118 -2.2475  1.6453
  149OSM   H11G16561   1.364   3.005   3.572 -0.1238 -1.3270 -1.2888
  149OSM   C12F16562   1.333   3.207   3.555  0.5474 -0.3055  0.6888
  149OSM   H12F16563   1.263   3.280   3.509  0.5008  1.3478  3.1992
  149OSM   H12G16564   1.436   3.239   3.528  0.3850 -1.5955 -1.7506
  149OSM   C13F16565   1.293   3.209   3.705  0.0309 -0.2808  0.3902
  149OSM   H13F16566   1.201   3.149   3.719  1.0141 -1.6236  1.3093
  149OSM   H13G16567   1.268   3.313   3.735  0.3330  0.1055 -0.6455
  149OSM   C14F16568   1.388   3.145   3.811 -0.4010 -0.2081 -0.0086
  149OSM   H14F16569   1.489   3.190   3.801 -0.1879 -0.9518 -1.3041
  149OSM   H14G16570   1.407   3.037   3.796  1.1799  0.0237  0.1223
  149OSM   C15F16571   1.329   3.153   3.955  0.3705  0.7153  0.8685
  149OSM   H15F16572   1.230   3.105   3.969  0.4465  0.0221 -0.7174
  149OSM   H15G16573   1.320   3.262   3.974 -1.0487  0.6747  0.4972
  149OSM   C16F16574   1.430   3.107   4.063 -0.5129 -0.1543 -0.3374
  149OSM   H16F16575   1.521   3.169   4.055 -1.0436  1.0312  1.9751
  149OSM   H16G16576   1.443   2.997   4.057  2.6229  0.1260  0.0387
  149OSM   C17F16577   1.372   3.133   4.205  0.0244  0.1887  1.1298
  149OSM   H17F16578   1.275   3.078   4.216  0.6742 -1.5720 -1.1988
  149OSM   H17G16579   1.342   3.238   4.227 -0.0115  0.0366  1.8360
  149OSM   C18F16580   1.472   3.088   4.309 -0.1403 -0.1628  0.6503
  149OSM   H18F16581   1.427   3.077   4.410 -2.2543  2.1318  0.0517
  149OSM   H18G16582   1.553   3.164   4.318 -0.3755  0.1447  0.1925
  149OSM   H18H16583   1.510   2.986   4.286 -3.4516 -1.6782  1.3270
  150OSM      N16584   4.530   4.748   2.079 -0.6447 -0.7567 -0.6468
  150OSM    C1516585   4.648   4.654   2.087  0.5117  0.8230 -0.0489
  150OSM   H15A16586   4.614   4.556   2.057  0.6059 -0.2737  3.1583
  150OSM   H15B16587   4.686   4.638   2.186  2.7294 -1.6933 -1.1625
  150OSM   H15C16588   4.737   4.677   2.030  0.6472  0.7330  0.1263
  150OSM    C1416589   4.422   4.714   2.179  0.1433 -0.0655 -0.0512
  150OSM   H14A16590   4.351   4.795   2.185  0.8496  0.5385  0.2689
  150OSM   H14B16591   4.473   4.693   2.271  1.2674  0.9938 -0.4019
  150OSM   H14C16592   4.375   4.623   2.144  1.9590 -2.1309  2.4856
  150OSM    C1316593   4.579   4.889   2.104  0.1872  0.0710  0.4607
  150OSM   H13A16594   4.637   4.928   2.022 -1.1595 -0.4171 -0.7695
  150OSM   H13B16595   4.651   4.891   2.185 -0.3109 -0.2200  0.9209
  150OSM   H13C16596   4.496   4.954   2.129  0.3363 -0.4089  2.4337
  150OSM    C1216597   4.475   4.736   1.938  0.2875  0.6437  0.3330
  150OSM   H12A16598   4.559   4.743   1.872  1.9096  1.4406  2.3607
  150OSM   H12B16599   4.409   4.821   1.925  0.1951  1.1136  3.1340
  150OSM    C1116600   4.398   4.605   1.899  0.4389 -0.1911 -0.0213
  150OSM   H11A16601   4.380   4.602   1.789  2.8067 -2.7702 -0.4360
  150OSM   H11B16602   4.302   4.597   1.956  0.8996 -1.9328  0.5635
  150OSM      P16603   4.445   4.349   1.950  0.0013  0.1964 -0.0456
  150OSM    O1316604   4.366   4.298   1.833 -0.1888 -0.5047  0.4689
  150OSM    O1416605   4.563   4.271   1.995  0.5160  0.0969 -0.6740
  150OSM    O1116606   4.349   4.365   2.073 -0.2346  0.6160 -0.3268
  150OSM    O1216607   4.485   4.492   1.920 -0.1685 -0.2520 -0.7769
  150OSM    C1S16608   4.255   4.270   2.124 -0.0349 -0.2821 -0.4939
  150OSM    H1S16609   4.241   4.187   2.051  0.1959  1.4267 -2.5561
  150OSM    H1T16610   4.161   4.322   2.152 -0.4461 -1.2325 -0.0512
  150OSM     NF16611   4.208   4.103   2.308 -0.9959 -0.6519  0.2204
  150OSM    HNF16612   4.139   4.134   2.373  0.4160 -1.2077  2.0724
  150OSM    C2S16613   4.303   4.205   2.262 -0.6018 -1.2823 -0.0481
  150OSM    H2S16614   4.400   4.155   2.238  1.4373  1.7297  1.2645
  150OSM    C3S16615   4.338   4.315   2.368 -0.1062 -0.1145  0.0212
  150OSM    H3S16616   4.240   4.363   2.388 -1.0898 -1.4503 -1.3857
  150OSM     O316617   4.413   4.430   2.325  0.1665 -0.2107  0.3505
  150OSM    HO316618   4.431   4.410   2.233 -1.0375  0.4777 -0.0573
  150OSM    C4S16619   4.396   4.258   2.491 -0.1258  0.3064  0.1335
  150OSM    H4S16620   4.495   4.211   2.487 -0.8102 -1.3400  1.5744
  150OSM    C5S16621   4.358   4.288   2.616 -1.1716  0.2437 -0.1033
  150OSM    H5S16622   4.277   4.362   2.623  0.1136  1.6389  0.6689
  150OSM    C6S16623   4.439   4.255   2.739 -0.3008  0.0503 -0.5320
  150OSM    H6S16624   4.522   4.186   2.712  0.7687  0.8017  0.7018
  150OSM    H6T16625   4.381   4.208   2.822  3.2842  0.3715  2.4477
  150OSM    C7S16626   4.491   4.389   2.796 -0.3520  0.1120  0.1252
  150OSM    H7S16627   4.404   4.453   2.821 -0.6692 -0.6895  1.1502
  150OSM    H7T16628   4.538   4.441   2.709 -0.5496 -1.4802 -0.9842
  150OSM    C8S16629   4.597   4.378   2.913 -0.5919 -0.0834 -0.9326
  150OSM    H8S16630   4.620   4.483   2.939 -0.2992 -0.1897 -0.7564
  150OSM    H8T16631   4.684   4.332   2.861 -0.7112  0.2053 -1.3943
  150OSM    C9S16632   4.560   4.283   3.033 -0.1033 -1.4396  0.7326
  150OSM    H9S16633   4.646   4.281   3.103 -0.0635  1.7694  0.8823
  150OSM    H9T16634   4.559   4.177   2.998  1.4174 -2.0100  2.2695
  150OSM   C10S16635   4.430   4.318   3.105 -0.3420  0.1152 -0.7537
  150OSM   H10S16636   4.351   4.327   3.027 -0.4738 -0.0895 -0.6443
  150OSM   H10T16637   4.449   4.412   3.162  2.0802 -0.9663  0.3651
  150OSM   C11S16638   4.393   4.216   3.215  0.1529 -0.4928 -0.0302
  150OSM   H11S16639   4.369   4.126   3.156  0.6589 -0.3293 -0.4944
  150OSM   H11T16640   4.304   4.256   3.268  0.5521  0.3375  0.0445
  150OSM   C12S16641   4.504   4.173   3.315 -1.1528 -0.1916  0.1136
  150OSM   H12S16642   4.582   4.251   3.312 -1.3726  0.0136 -0.2903
  150OSM   H12T16643   4.552   4.081   3.275 -0.2498  0.1441  0.3969
  150OSM   C13S16644   4.449   4.156   3.459 -0.8773  0.3637 -0.3379
  150OSM   H13S16645   4.539   4.124   3.515  0.2563  0.9550 -1.7613
  150OSM   H13T16646   4.368   4.080   3.461 -0.8786  0.2782 -2.0637
  150OSM   C14S16647   4.384   4.285   3.518  0.2574 -0.2426 -0.6390
  150OSM   H14S16648   4.296   4.312   3.456 -0.4694 -1.1619 -0.0337
  150OSM   H14T16649   4.463   4.363   3.513  1.7366 -1.6647 -0.5207
  150OSM   C15S16650   4.330   4.263   3.657  1.0338 -0.1104  0.6359
  150OSM   H15S16651   4.222   4.238   3.661  0.1709  3.0872  0.0791
  150OSM   H15T16652   4.340   4.364   3.702  1.4213  0.9560 -1.6861
  150OSM   C16S16653   4.429   4.182   3.747 -0.0123 -0.0497  0.7004
  150OSM   H16S16654   4.533   4.209   3.720 -0.6372  1.1179 -0.6622
  150OSM   H16T16655   4.425   4.076   3.713  1.4605  0.4087 -1.0141
  150OSM   C17S16656   4.403   4.202   3.890  0.3253 -0.6250 -0.0961
  150OSM   H17S16657   4.301   4.178   3.927  0.2357  0.3067  0.2981
  150OSM   H17T16658   4.427   4.307   3.920 -1.2257  0.3228 -1.9085
  150OSM   C18S16659   4.493   4.113   3.973 -0.1885  0.1986 -0.0268
  150OSM   H18S16660   4.471   4.006   3.955 -2.0094  0.6317 -0.5904
  150OSM   H18T16661   4.471   4.136   4.079 -0.9646  1.6843 -0.4675
  150OSM   H18U16662   4.598   4.132   3.941 -0.3757 -0.9123 -1.4097
  150OSM    C1F16663   4.195   3.987   2.241  0.7322 -0.1902  0.0624
  150OSM     OF16664   4.262   3.962   2.140 -0.0103  0.2086 -0.3492
  150OSM    C2F16665   4.105   3.880   2.300  1.1217 -0.0311  0.5709
  150OSM    H2F16666   4.037   3.852   2.217  0.4434  1.3335  0.6374
  150OSM    H2G16667   4.049   3.936   2.378  2.5103 -0.7257  2.1498
  150OSM    C3F16668   4.193   3.757   2.353  0.2895  0.0253 -0.4109
  150OSM    H3F16669   4.248   3.699   2.276  0.7815  0.0078 -0.0503
  150OSM    H3G16670   4.111   3.696   2.396 -0.2231  2.5015  2.4198
  150OSM    C4F16671   4.289   3.802   2.463  0.5076 -0.0547 -0.2805
  150OSM    H4F16672   4.355   3.878   2.417 -1.1473  0.4177 -1.9962
  150OSM    H4G16673   4.350   3.711   2.483  1.0262  0.5106  0.7861
  150OSM    C5F16674   4.216   3.855   2.587 -0.5837 -0.4952  0.1247
  150OSM    H5F16675   4.136   3.785   2.620 -0.8404  0.1345  0.8780
  150OSM    H5G16676   4.169   3.952   2.562  0.0558 -0.1827  0.1284
  150OSM    C6F16677   4.314   3.885   2.702  0.4502  0.4003  0.8224
  150OSM    H6F16678   4.355   3.987   2.691  2.1574 -0.2163  1.1168
  150OSM    H6G16679   4.399   3.812   2.698  1.4611  1.5821 -0.3376
  150OSM    C7F16680   4.237   3.868   2.837 -0.2638 -0.1813 -0.4457
  150OSM    H7F16681   4.215   3.761   2.859  2.6692 -0.8475 -0.3673
  150OSM    H7G16682   4.136   3.912   2.824 -0.3283  1.5430  4.2450
  150OSM    C8F16683   4.283   3.930   2.968  0.2198  0.5302  0.1774
  150OSM    H8F16684   4.204   3.933   3.045 -0.9194  0.8057 -0.9755
  150OSM    H8G16685   4.310   4.033   2.935  0.5323  0.7472  1.1027
  150OSM    C9F16686   4.408   3.857   3.005  0.2622 -0.2236 -0.3170
  150OSM    H9F16687   4.471   3.846   2.916  0.6571  0.0808 -0.0777
  150OSM   C10F16688   4.445   3.800   3.122 -0.2359 -0.0402  0.0881
  150OSM   H10F16689   4.547   3.765   3.144 -1.3079 -2.1243  2.1039
  150OSM   C11F16690   4.367   3.811   3.251  0.4557  0.3310 -0.3872
  150OSM   H11F16691   4.277   3.748   3.263 -0.0115  1.3064  1.5604
  150OSM   H11G16692   4.320   3.911   3.264 -2.0408 -0.7376 -0.6755
  150OSM   C12F16693   4.465   3.790   3.368  0.1591 -0.0739  0.8675
  150OSM   H12F16694   4.527   3.882   3.377  1.7115 -0.9557 -0.3762
  150OSM   H12G16695   4.530   3.701   3.355 -1.1488 -0.9618  0.2029
  150OSM   C13F16696   4.382   3.751   3.495 -0.0227  0.4776 -0.1689
  150OSM   H13F16697   4.333   3.651   3.489  0.3681  0.3365 -1.1624
  150OSM   H13G16698   4.297   3.822   3.499  0.5088  1.1264  3.0637
  150OSM   C14F16699   4.461   3.778   3.620 -0.2625  0.1491  0.0723
  150OSM   H14F16700   4.503   3.881   3.624  2.0570 -0.6485 -1.3237
  150OSM   H14G16701   4.558   3.724   3.612 -0.1420 -0.0012  2.0647
  150OSM   C15F16702   4.401   3.739   3.754  0.1367  0.0347  0.1237
  150OSM   H15F16703   4.472   3.777   3.830  0.6864 -0.8458  0.0603
  150OSM   H15G16704   4.380   3.630   3.743  0.0198 -0.0108  0.7925
  150OSM   C16F16705   4.263   3.798   3.778  0.1816 -0.0267 -0.1264
  150OSM   H16F16706   4.202   3.765   3.691  1.3279  0.2048 -1.0401
  150OSM   H16G16707   4.264   3.908   3.794  0.1855 -0.1246  0.5379
  150OSM   C17F16708   4.184   3.745   3.901  0.8415 -0.6052 -0.5784
  150OSM   H17F16709   4.204   3.636   3.902  0.4123 -0.7232  1.6485
  150OSM   H17G16710   4.078   3.777   3.894  1.0453  0.2734  0.1168
  150OSM   C18F16711   4.242   3.784   4.033  0.2563  0.1236  0.5108
  150OSM   H18F16712   4.353   3.782   4.039  0.5792  3.5661 -1.7659
  150OSM   H18G16713   4.204   3.712   4.109 -0.2677 -0.8278 -0.6157
  150OSM   H18H16714   4.213   3.889   4.054 -1.1416 -0.3335  1.0010
  151OSM      N16715   3.849   3.449   1.665  0.1317 -0.5221 -0.0027
  151OSM    C1516716   3.914   3.317   1.649  0.1818 -0.4465 -0.1971
  151OSM   H15A16717   4.006   3.309   1.705 -0.4071 -0.6321  0.7555
  151OSM   H15B16718   3.939   3.292   1.547 -0.7375  0.7466 -0.7486
  151OSM   H15C16719   3.852   3.238   1.687  1.3472 -1.2876 -0.0173
  151OSM    C1416720   3.926   3.550   1.585 -0.2337 -0.6651 -0.7021
  151OSM   H14A16721   3.919   3.514   1.483 -0.9053 -1.9477 -0.2259
  151OSM   H14B16722   4.030   3.551   1.611 -0.6319  1.3773  1.1603
  151OSM   H14C16723   3.881   3.649   1.583  1.7877  0.2970 -0.9431
  151OSM    C1316724   3.715   3.435   1.595 -0.0414  0.1414  0.1138
  151OSM   H13A16725   3.716   3.396   1.495 -2.3707  2.5736 -0.9789
  151OSM   H13B16726   3.668   3.530   1.575  0.5395  0.3598 -0.2290
  151OSM   H13C16727   3.648   3.371   1.651  2.7968 -1.5078  1.8706
  151OSM    C1216728   3.838   3.479   1.812 -0.6777 -0.2835 -0.3300
  151OSM   H12A16729   3.792   3.574   1.831  2.7616  1.1022  2.0460
  151OSM   H12B16730   3.943   3.488   1.836 -1.2357  2.8446  1.3721
  151OSM    C1116731   3.758   3.380   1.904  0.7459 -0.1698 -0.2158
  151OSM   H11A16732   3.791   3.406   2.006 -1.8786  1.0838  0.4080
  151OSM   H11B16733   3.784   3.273   1.888  0.0626  0.0315 -3.6463
  151OSM      P16734   3.543   3.513   1.952  0.2415 -0.3995  0.0586
  151OSM    O1316735   3.569   3.642   1.885  0.4115  0.1193 -0.2334
  151OSM    O1416736   3.402   3.473   1.977 -0.0640 -0.0406  0.4215
  151OSM    O1116737   3.614   3.516   2.097  0.5387 -0.4821  0.1110
  151OSM    O1216738   3.618   3.395   1.875  0.0898  0.4165 -0.6339
  151OSM    C1S16739   3.577   3.623   2.186 -0.6878  0.1728 -0.4289
  151OSM    H1S16740   3.466   3.626   2.184 -0.7885 -0.8825  1.4050
  151OSM    H1T16741   3.618   3.718   2.143  2.1649 -0.7764 -0.0288
  151OSM     NF16742   3.570   3.692   2.415  0.1103 -0.5033 -0.5111
  151OSM    HNF16743   3.632   3.747   2.470  0.7175 -0.8121 -0.8765
  151OSM    C2S16744   3.642   3.610   2.322  0.0867  0.7833 -0.0093
  151OSM    H2S16745   3.610   3.511   2.361  2.3581 -0.6053 -1.4338
  151OSM    C3S16746   3.800   3.614   2.320  0.2608 -0.1829  0.6651
  151OSM    H3S16747   3.822   3.716   2.281  0.0495 -0.2840  0.2769
  151OSM     O316748   3.862   3.528   2.218  0.4114  0.0299  0.0708
  151OSM    HO316749   3.791   3.492   2.163  1.2869 -0.6347 -0.6722
  151OSM    C4S16750   3.856   3.599   2.457  0.1584 -0.0558 -0.1310
  151OSM    H4S16751   3.884   3.687   2.516  1.4498 -0.3098 -0.3263
  151OSM    C5S16752   3.854   3.481   2.525 -0.0148  0.3879  0.2346
  151OSM    H5S16753   3.837   3.389   2.466 -3.7279  0.9915  0.1635
  151OSM    C6S16754   3.892   3.458   2.669  0.2394  0.1843  0.8505
  151OSM    H6S16755   4.001   3.435   2.673  0.6671  1.9720  0.3292
  151OSM    H6T16756   3.845   3.368   2.714  1.0542  0.7516  2.9463
  151OSM    C7S16757   3.861   3.580   2.763 -0.0069  0.0243 -1.0952
  151OSM    H7S16758   3.760   3.622   2.745  1.0027  3.3035  0.1634
  151OSM    H7T16759   3.924   3.663   2.723 -0.6339  0.7144 -0.6691
  151OSM    C8S16760   3.905   3.549   2.909  0.3182 -0.8527  1.0650
  151OSM    H8S16761   4.012   3.520   2.902  1.1089  2.0913 -0.7934
  151OSM    H8T16762   3.848   3.463   2.951 -0.9804 -0.1072  0.8870
  151OSM    C9S16763   3.891   3.673   2.993  0.3153 -1.1706 -0.3979
  151OSM    H9S16764   3.795   3.723   2.969  1.2576  0.7788 -0.2929
  151OSM    H9T16765   3.973   3.739   2.958 -0.1652  0.3793  1.2654
  151OSM   C10S16766   3.922   3.652   3.144 -0.4566 -0.1098  0.8455
  151OSM   H10S16767   4.002   3.577   3.162 -0.3820 -0.6716 -1.4396
  151OSM   H10T16768   3.832   3.600   3.183 -0.2252 -0.6755  0.6276
  151OSM   C11S16769   3.941   3.779   3.227  0.1511  0.5666  0.3313
  151OSM   H11S16770   3.850   3.841   3.210  0.2018  0.2237 -1.3927
  151OSM   H11T16771   4.036   3.827   3.196  2.4230 -4.1904 -0.9837
  151OSM   C12S16772   3.945   3.740   3.378 -0.6065 -0.2459  0.1490
  151OSM   H12S16773   4.016   3.657   3.397 -0.7663  0.0930  2.4992
  151OSM   H12T16774   3.847   3.702   3.413 -0.7779  0.5437  0.5354
  151OSM   C13S16775   3.993   3.857   3.461  0.3557  0.0245 -0.5932
  151OSM   H13S16776   4.066   3.916   3.402 -0.2576  0.1733 -1.2096
  151OSM   H13T16777   4.040   3.821   3.555 -0.4520  1.9981  0.6591
  151OSM   C14S16778   3.882   3.957   3.501 -0.1476 -0.0733  0.8499
  151OSM   H14S16779   3.801   3.890   3.535 -0.5242 -0.1713 -0.2105
  151OSM   H14T16780   3.838   4.003   3.410  0.2981 -0.2873  0.5216
  151OSM   C15S16781   3.903   4.070   3.602 -0.1137 -0.1974 -0.0553
  151OSM   H15S16782   3.815   4.138   3.598  0.2872  0.3823  0.7658
  151OSM   H15T16783   3.984   4.139   3.571 -1.2443  1.2204  0.0264
  151OSM   C16S16784   3.925   4.018   3.751 -0.2632  0.5186 -0.0876
  151OSM   H16S16785   4.017   3.956   3.741 -0.8691 -0.2942 -0.8164
  151OSM   H16T16786   3.841   3.949   3.773  1.5180 -1.4971  0.7611
  151OSM   C17S16787   3.934   4.130   3.854 -0.3640 -0.8068  0.0902
  151OSM   H17S16788   3.831   4.164   3.875  0.1303  0.2818  0.8749
  151OSM   H17T16789   3.985   4.217   3.806  0.7166 -0.4256  1.8489
  151OSM   C18S16790   4.002   4.082   3.982  1.2788  0.1564  0.3546
  151OSM   H18S16791   4.109   4.062   3.960  1.1225 -1.1148  0.6658
  151OSM   H18T16792   3.960   3.982   4.009  0.9453  0.1331 -0.2314
  151OSM   H18U16793   3.986   4.149   4.069 -2.1216  0.0569 -0.0563
  151OSM    C1F16794   3.444   3.676   2.459 -0.4231 -0.2465 -0.0488
  151OSM     OF16795   3.369   3.594   2.412  0.8529  0.1872 -0.0314
  151OSM    C2F16796   3.407   3.763   2.576  0.3286 -0.0374 -0.1563
  151OSM    H2F16797   3.410   3.872   2.556  2.8624  0.4305  2.2190
  151OSM    H2G16798   3.486   3.759   2.654 -1.1387 -0.2873  1.3648
  151OSM    C3F16799   3.287   3.706   2.660  0.0091  0.1905  0.0592
  151OSM    H3F16800   3.275   3.596   2.671  0.6481  0.1841  0.7689
  151OSM    H3G16801   3.197   3.749   2.612  0.2313 -0.9511 -1.4467
  151OSM    C4F16802   3.280   3.769   2.803 -0.3241 -0.0889 -0.3078
  151OSM    H4F16803   3.370   3.744   2.863 -1.1578  2.6628  2.3270
  151OSM    H4G16804   3.189   3.730   2.853  0.0586 -3.7197 -2.1376
  151OSM    C5F16805   3.274   3.920   2.809 -0.4803  0.1158 -0.0354
  151OSM    H5F16806   3.180   3.953   2.760 -1.0329 -0.1798  0.8020
  151OSM    H5G16807   3.353   3.974   2.752 -0.2824  0.0399  0.1684
  151OSM    C6F16808   3.272   3.972   2.957 -0.2822  0.4702  0.7168
  151OSM    H6F16809   3.189   3.921   3.010 -0.3736 -1.2591 -0.9971
  151OSM    H6G16810   3.252   4.081   2.962  1.4246  0.8670 -0.2117
  151OSM    C7F16811   3.416   3.954   3.018  0.1188 -0.0461 -0.9468
  151OSM    H7F16812   3.482   3.973   2.931 -0.0055 -3.3213 -1.8807
  151OSM    H7G16813   3.434   3.854   3.062  2.0839  1.0821  1.0522
  151OSM    C8F16814   3.436   4.048   3.142  0.0589 -0.1729  0.3391
  151OSM    H8F16815   3.446   4.153   3.109  2.3847 -0.9592 -1.8480
  151OSM    H8G16816   3.538   4.032   3.183  0.7306  1.3199 -0.6631
  151OSM    C9F16817   3.325   4.047   3.238  0.2287 -0.3882 -0.2184
  151OSM    H9F16818   3.266   3.956   3.223  0.9742 -0.4281 -3.5462
  151OSM   C10F16819   3.282   4.149   3.317 -0.7554  0.8256  0.4415
  151OSM   H10F16820   3.192   4.123   3.376  0.1351  0.4056  1.6427
  151OSM   C11F16821   3.356   4.270   3.355 -0.2887  0.2693 -0.1859
  151OSM   H11F16822   3.281   4.345   3.387 -0.9961  0.4800 -2.2210
  151OSM   H11G16823   3.407   4.329   3.276 -1.1097 -0.4694 -1.2855
  151OSM   C12F16824   3.454   4.253   3.474 -0.4741 -0.5019  0.0254
  151OSM   H12F16825   3.514   4.345   3.489 -0.8594 -0.4782  1.6830
  151OSM   H12G16826   3.530   4.177   3.446 -1.5389 -0.3931 -3.5663
  151OSM   C13F16827   3.383   4.214   3.603 -0.0523 -0.4588  0.2606
  151OSM   H13F16828   3.346   4.110   3.591  0.7564 -0.7864  0.5351
  151OSM   H13G16829   3.304   4.287   3.631  2.1195  2.5529 -0.9530
  151OSM   C14F16830   3.488   4.201   3.711 -0.5274  0.1808 -0.2938
  151OSM   H14F16831   3.556   4.289   3.715 -1.8456  1.1713  1.6648
  151OSM   H14G16832   3.555   4.114   3.690  4.3195  3.3584  0.3916
  151OSM   C15F16833   3.411   4.176   3.843  0.1653  0.6882  0.2437
  151OSM   H15F16834   3.345   4.087   3.836 -1.2683  1.4519  2.6914
  151OSM   H15G16835   3.343   4.264   3.848 -2.2384 -0.8207 -2.7727
  151OSM   C16F16836   3.501   4.163   3.971  0.3646  0.3471  0.6791
  151OSM   H16F16837   3.571   4.249   3.963  0.9944 -0.1694  0.5113
  151OSM   H16G16838   3.566   4.074   3.960  0.0562  0.1426  0.5282
  151OSM   C17F16839   3.415   4.156   4.096  0.0938  0.0525 -0.9860
  151OSM   H17F16840   3.350   4.067   4.086  0.2855  0.0828 -2.9024
  151OSM   H17G16841   3.349   4.245   4.095  0.0836  0.1388  1.4636
  151OSM   C18F16842   3.500   4.166   4.224  0.3299  0.2652 -0.4158
  151OSM   H18F16843   3.446   4.139   4.317 -0.4990  2.6488 -0.1584
  151OSM   H18G16844   3.553   4.260   4.248  0.8683 -0.2703  0.5424
  151OSM   H18H16845   3.576   4.087   4.202 -1.0125 -1.5242  1.0264
  152OSM      N16846   6.405   5.314   1.960 -0.8993  0.3531  0.4565
  152OSM    C1516847   6.472   5.425   1.896 -0.1684 -0.1054  0.6655
  152OSM   H15A16848   6.416   5.518   1.899 -0.2878 -0.1958  1.3428
  152OSM   H15B16849   6.477   5.397   1.792  0.9899 -1.1886  0.9877
  152OSM   H15C16850   6.574   5.436   1.929  0.7457 -2.1985 -1.1926
  152OSM    C1416851   6.260   5.308   1.929 -0.7989  0.0249 -0.5115
  152OSM   H14A16852   6.240   5.283   1.826 -0.8150 -1.4086 -0.1875
  152OSM   H14B16853   6.217   5.404   1.951  1.3647  0.7994  0.6122
  152OSM   H14C16854   6.199   5.237   1.983 -1.2684  0.1164 -0.9107
  152OSM    C1316855   6.474   5.191   1.910  0.7747  0.1085 -0.5852
  152OSM   H13A16856   6.424   5.107   1.957  1.0959 -0.0352 -0.5012
  152OSM   H13B16857   6.578   5.178   1.933  0.6509 -0.2502 -0.2167
  152OSM   H13C16858   6.450   5.177   1.806 -0.4869  0.7261 -0.3972
  152OSM    C1216859   6.441   5.319   2.105  0.6616 -0.0991 -0.5080
  152OSM   H12A16860   6.377   5.392   2.151 -0.5879 -1.2181 -0.4339
  152OSM   H12B16861   6.545   5.349   2.113  1.2427 -2.1526  0.1829
  152OSM    C1116862   6.409   5.200   2.189  0.4051 -0.7631 -0.3510
  152OSM   H11A16863   6.440   5.239   2.289  0.1601  0.1434 -0.6155
  152OSM   H11B16864   6.464   5.105   2.175  0.8176 -0.4835 -0.6529
  152OSM      P16865   6.194   5.053   2.245  0.4283  0.0270 -0.0445
  152OSM    O1316866   6.088   5.036   2.141  0.2101  0.2351 -0.3733
  152OSM    O1416867   6.292   4.945   2.265  0.3471  0.3938 -0.2232
  152OSM    O1116868   6.132   5.084   2.384  0.1469  0.7435 -0.4538
  152OSM    O1216869   6.265   5.183   2.203  0.1132 -0.3164  0.4447
  152OSM    C1S16870   6.152   5.206   2.456 -0.3742  0.5464 -0.0412
  152OSM    H1S16871   6.094   5.291   2.414  0.5923  0.9599 -0.5625
  152OSM    H1T16872   6.258   5.238   2.464 -0.4222  0.8184 -0.4610
  152OSM     NF16873   6.092   5.340   2.670 -0.0435  0.2532  0.6728
  152OSM    HNF16874   6.141   5.347   2.757 -0.8598  1.5063  1.0575
  152OSM    C2S16875   6.099   5.211   2.601  0.0402 -0.1796  0.1892
  152OSM    H2S16876   5.992   5.191   2.580 -0.2536  0.9917  0.4864
  152OSM    C3S16877   6.166   5.101   2.684 -0.8494  0.0866  0.0448
  152OSM    H3S16878   6.271   5.130   2.705 -1.4355  1.5905  1.0615
  152OSM     O316879   6.184   4.972   2.619  0.4755 -0.0805 -0.6425
  152OSM    HO316880   6.154   4.990   2.529 -0.8479  0.7558 -0.0630
  152OSM    C4S16881   6.101   5.084   2.811 -0.4034  0.1981 -0.3773
  152OSM    H4S16882   6.170   5.101   2.895 -0.0508  2.7178 -1.0909
  152OSM    C5S16883   5.984   5.026   2.841 -0.4280 -0.2610 -0.4297
  152OSM    H5S16884   5.919   4.998   2.757 -1.4130  1.7649 -0.4100
  152OSM    C6S16885   5.943   4.988   2.975 -0.7467 -0.3239 -0.3339
  152OSM    H6S16886   5.995   5.049   3.052  2.0606 -0.1900 -2.2028
  152OSM    H6T16887   5.971   4.881   2.986 -3.1534 -1.0957 -0.9809
  152OSM    C7S16888   5.798   5.029   2.997 -1.1294  0.2721 -0.4014
  152OSM    H7S16889   5.738   4.967   2.927  1.6078 -1.9305 -0.9589
  152OSM    H7T16890   5.788   5.139   2.980  0.5928  0.6624  0.8422
  152OSM    C8S16891   5.746   5.008   3.144  0.7235 -0.0147 -0.7419
  152OSM    H8S16892   5.748   4.901   3.174  2.7110  0.3524  0.6968
  152OSM    H8T16893   5.638   5.026   3.127  0.5148  1.9735  1.9793
  152OSM    C9S16894   5.800   5.094   3.262 -0.6564  0.0894  0.9624
  152OSM    H9S16895   5.793   5.199   3.227  1.2172 -0.6548 -1.9896
  152OSM    H9T16896   5.905   5.063   3.278 -0.2231  1.4444  0.8492
  152OSM   C10S16897   5.710   5.088   3.386  0.9264  0.0802 -0.4974
  152OSM   H10S16898   5.675   4.982   3.394  0.0750  0.4559  1.2058
  152OSM   H10T16899   5.623   5.156   3.370 -0.2386 -0.1955  3.6338
  152OSM   C11S16900   5.775   5.124   3.518  0.3077 -0.2952  0.3707
  152OSM   H11S16901   5.696   5.108   3.594  0.0540  0.9598  0.3869
  152OSM   H11T16902   5.806   5.231   3.515  2.2117 -0.8144 -0.8488
  152OSM   C12S16903   5.895   5.027   3.543  0.4636 -0.7894 -0.4724
  152OSM   H12S16904   5.971   5.049   3.465  0.4570 -0.3236 -0.3518
  152OSM   H12T16905   5.856   4.925   3.523 -1.7437 -0.1434  0.2101
  152OSM   C13S16906   5.953   5.024   3.681  0.2619 -0.3112 -0.2479
  152OSM   H13S16907   5.984   5.126   3.712 -0.7403 -0.1699  0.3344
  152OSM   H13T16908   6.044   4.961   3.680  0.6232  0.2094 -0.4105
  152OSM   C14S16909   5.857   4.956   3.786 -0.8861  0.1407  0.4986
  152OSM   H14S16910   5.850   4.852   3.750  0.5889  0.2465 -0.1403
  152OSM   H14T16911   5.758   5.008   3.781 -0.6440  0.5796  0.1577
  152OSM   C15S16912   5.906   4.960   3.933 -0.9373  0.6848 -0.0373
  152OSM   H15S16913   5.823   4.920   3.996 -1.1196 -1.4266 -1.5447
  152OSM   H15T16914   5.924   5.065   3.965  1.3234 -0.1443  1.6907
  152OSM   C16S16915   6.038   4.884   3.959  0.0864  0.3646  0.2004
  152OSM   H16S16916   6.123   4.906   3.892  0.1927 -1.6407 -0.3793
  152OSM   H16T16917   6.032   4.777   3.932  0.8625 -0.5292  3.2171
  152OSM   C17S16918   6.104   4.906   4.094  0.3971  0.1689 -0.6706
  152OSM   H17S16919   6.108   5.013   4.122  1.2808 -0.1638  0.5426
  152OSM   H17T16920   6.206   4.862   4.101 -0.3702 -1.5449  0.3220
  152OSM   C18S16921   6.017   4.843   4.205 -0.2189  0.7666  0.8625
  152OSM   H18S16922   6.003   4.735   4.184 -1.4332  1.2255 -0.9358
  152OSM   H18T16923   5.918   4.894   4.200 -0.3762  0.4311 -2.9546
  152OSM   H18U16924   6.059   4.855   4.307  0.6141  0.8207  0.5219
  152OSM    C1F16925   6.023   5.444   2.631 -0.5783 -0.4062  0.1918
  152OSM     OF16926   5.960   5.441   2.520  0.0998 -0.1807 -0.2223
  152OSM    C2F16927   6.035   5.571   2.709 -0.2062 -0.5263 -0.1998
  152OSM    H2F16928   6.082   5.652   2.650 -0.6740  2.6495  3.4451
  152OSM    H2G16929   6.095   5.534   2.795  1.9236  0.6881 -1.1051
  152OSM    C3F16930   5.903   5.631   2.763  0.2905 -0.2217 -0.5076
  152OSM    H3F16931   5.817   5.619   2.694 -0.0723  0.7228 -0.2436
  152OSM    H3G16932   5.918   5.731   2.809 -0.6217 -0.0954 -0.4551
  152OSM    C4F16933   5.846   5.553   2.886 -0.4181  0.4833 -0.3793
  152OSM    H4F16934   5.922   5.558   2.967 -0.6348 -1.8686  0.0327
  152OSM    H4G16935   5.837   5.445   2.864 -1.2339  0.5805 -0.5379
  152OSM    C5F16936   5.709   5.599   2.932 -0.2473  0.1956  0.7057
  152OSM    H5F16937   5.643   5.594   2.843 -0.9169  1.6642  1.0868
  152OSM    H5G16938   5.722   5.706   2.957  2.2479  0.2715 -0.6090
  152OSM    C6F16939   5.649   5.529   3.056  0.5966  0.7903 -0.9433
  152OSM    H6F16940   5.662   5.419   3.043 -1.0638  0.6767 -1.8622
  152OSM    H6G16941   5.540   5.549   3.064  0.3572 -0.6788 -0.1125
  152OSM    C7F16942   5.725   5.568   3.183  0.4873 -1.0195 -0.8654
  152OSM    H7F16943   5.701   5.674   3.205  0.9343 -0.8933 -0.9780
  152OSM    H7G16944   5.832   5.545   3.165  0.9865  0.4819  0.0726
  152OSM    C8F16945   5.685   5.488   3.311  0.4637 -0.5155  0.0110
  152OSM    H8F16946   5.713   5.381   3.302  0.6114 -0.4035 -0.9309
  152OSM    H8G16947   5.577   5.501   3.335  0.0368 -0.3967 -1.8129
  152OSM    C9F16948   5.776   5.543   3.423  0.5805  0.0344  0.5043
  152OSM    H9F16949   5.857   5.603   3.380 -0.9449  1.1732 -0.8861
  152OSM   C10F16950   5.742   5.542   3.553 -0.3440 -0.1281  0.2483
  152OSM   H10F16951   5.818   5.586   3.620  0.5612 -2.0302  0.5146
  152OSM   C11F16952   5.622   5.476   3.628  0.0093 -0.3653 -0.3535
  152OSM   H11F16953   5.567   5.406   3.561  0.8903 -1.2113 -0.2101
  152OSM   H11G16954   5.559   5.562   3.659  0.5062 -0.7986  2.0284
  152OSM   C12F16955   5.656   5.390   3.749 -0.3958 -0.5092  0.1853
  152OSM   H12F16956   5.691   5.440   3.842  0.0455 -1.8700  0.7781
  152OSM   H12G16957   5.729   5.312   3.719 -1.3159 -1.0288 -0.7642
  152OSM   C13F16958   5.524   5.323   3.802  0.2806 -0.1778  0.4891
  152OSM   H13F16959   5.470   5.264   3.725  0.6408 -1.4397  1.1816
  152OSM   H13G16960   5.455   5.401   3.842 -0.7890 -0.7449 -0.2063
  152OSM   C14F16961   5.569   5.222   3.909  0.2226 -0.1979 -0.6639
  152OSM   H14F16962   5.602   5.280   3.999 -3.0996  0.9825 -0.0539
  152OSM   H14G16963   5.650   5.155   3.872 -0.6979 -2.3792  1.0447
  152OSM   C15F16964   5.448   5.135   3.949 -0.3517 -0.0720  0.0706
  152OSM   H15F16965   5.401   5.091   3.858  1.9293 -0.4788 -1.0149
  152OSM   H15G16966   5.368   5.197   3.993  0.9853  1.4940  0.4017
  152OSM   C16F16967   5.504   5.014   4.029 -0.4050  0.1731  0.5597
  152OSM   H16F16968   5.565   4.958   3.955 -0.6078 -0.4971  0.8954
  152OSM   H16G16969   5.419   4.943   4.038 -1.2937  0.7207 -2.3773
  152OSM   C17F16970   5.591   5.040   4.151 -0.3400  0.5762  1.0004
  152OSM   H17F16971   5.545   5.099   4.234  1.6389 -0.5536  3.0101
  152OSM   H17G16972   5.681   5.098   4.121 -0.5732 -0.6228 -2.4988
  152OSM   C18F16973   5.624   4.907   4.220 -0.5909  0.6574  0.5013
  152OSM   H18F16974   5.693   4.928   4.305  0.0658 -0.4818  0.2728
  152OSM   H18G16975   5.679   4.833   4.158 -0.6510  1.1687 -0.1690
  152OSM   H18H16976   5.531   4.864   4.263 -1.3332  1.5176 -0.1925
  153OSM      N16977   5.044   6.359   1.815 -0.1075  0.6391 -0.3900
  153OSM    C1516978   4.932   6.269   1.767 -0.1286  0.1080  0.5997
  153OSM   H15A16979   4.854   6.322   1.714 -0.7551 -0.3130  1.0819
  153OSM   H15B16980   4.889   6.212   1.849  2.9992 -1.4325  1.3179
  153OSM   H15C16981   4.967   6.194   1.698 -2.3642 -0.1718 -0.3284
  153OSM    C1416982   5.118   6.414   1.698  0.0090  0.3286 -0.1490
  153OSM   H14A16983   5.049   6.467   1.634 -0.6980 -2.4590 -1.8392
  153OSM   H14B16984   5.153   6.333   1.636 -2.0313  0.3502 -1.4067
  153OSM   H14C16985   5.210   6.462   1.728  2.3751 -2.6439 -2.1030
  153OSM    C1316986   4.984   6.468   1.899  0.1810 -0.6861 -0.5131
  153OSM   H13A16987   5.060   6.542   1.919 -0.0910 -0.4668 -0.2839
  153OSM   H13B16988   4.950   6.435   1.996  1.6422 -1.6821 -0.3105
  153OSM   H13C16989   4.902   6.513   1.845  1.1487  0.6615 -0.9139
  153OSM    C1216990   5.143   6.275   1.905  0.5115 -0.1493 -0.0436
  153OSM   H12A16991   5.241   6.319   1.917  0.3607 -0.4814  3.2679
  153OSM   H12B16992   5.166   6.186   1.849  0.4470 -0.1725 -0.0341
  153OSM    C1116993   5.097   6.232   2.049  0.9991 -0.0603 -0.2049
  153OSM   H11A16994   5.078   6.327   2.103  1.8956  0.5493 -0.9297
  153OSM   H11B16995   5.184   6.199   2.109  0.8284  0.1681  0.1726
  153OSM      P16996   5.013   5.995   2.011 -0.1388  0.4152  0.1876
  153OSM    O1316997   4.904   5.949   1.920  0.1991  0.2471 -0.0988
  153OSM    O1416998   5.151   5.980   1.948  0.3503  0.2231 -0.2078
  153OSM    O1116999   4.997   5.918   2.146 -0.2011 -0.5400 -0.0222
  153OSM    O1217000   4.981   6.145   2.046 -0.0163  0.1883 -0.1285
  153OSM    C1S17001   4.872   5.931   2.216  0.4764  0.3038  0.3388
  153OSM    H1S17002   4.814   5.837   2.198 -1.2222  0.8934  2.3798
  153OSM    H1T17003   4.805   6.015   2.189 -2.1692 -1.4939  0.8505
  153OSM     NF17004   4.746   5.939   2.451  0.4527  0.0837  0.3051
  153OSM    HNF17005   4.713   6.031   2.471  0.3276 -0.1793  1.3655
  153OSM    C2S17006   4.874   5.936   2.376 -0.7278 -0.5860 -0.2144
  153OSM    H2S17007   4.928   5.846   2.414 -3.4429 -0.8990  3.4525
  153OSM    C3S17008   4.960   6.059   2.410  0.4868  0.5425 -0.0728
  153OSM    H3S17009   4.903   6.142   2.362 -2.1534  0.6780  2.9410
  153OSM     O317010   5.095   6.047   2.354  0.9999 -0.1348  0.6459
  153OSM    HO317011   5.082   5.979   2.288  0.4366  0.5949 -0.0164
  153OSM    C4S17012   4.962   6.103   2.559  0.0582  0.3011  0.3526
  153OSM    H4S17013   4.886   6.174   2.594 -0.8616 -0.6655  0.3639
  153OSM    C5S17014   5.039   6.053   2.657 -0.2651 -0.4257  0.2408
  153OSM    H5S17015   5.106   5.970   2.632  0.6635  1.6418 -5.7847
  153OSM    C6S17016   5.037   6.093   2.799 -0.6056  0.6251  0.0308
  153OSM    H6S17017   5.102   6.183   2.802  1.7891 -0.9965 -0.4509
  153OSM    H6T17018   5.087   6.013   2.858  1.8220  0.9932 -1.4170
  153OSM    C7S17019   4.899   6.141   2.848  0.2257 -0.2144  0.1233
  153OSM    H7S17020   4.835   6.054   2.873 -0.1005 -0.2414 -0.7754
  153OSM    H7T17021   4.849   6.205   2.773 -0.2918  0.5906  1.1308
  153OSM    C8S17022   4.923   6.215   2.982  0.1611  0.1450  0.6905
  153OSM    H8S17023   4.834   6.248   3.040  0.9044  1.9780  0.8865
  153OSM    H8T17024   4.958   6.318   2.956  0.0726  0.2559  1.0059
  153OSM    C9S17025   5.033   6.164   3.081  0.5094  0.4051  0.0279
  153OSM    H9S17026   5.126   6.197   3.031  1.4552 -2.5919 -0.3587
  153OSM    H9T17027   5.036   6.053   3.093  2.5450  0.1827 -1.8878
  153OSM   C10S17028   5.023   6.220   3.221 -0.0454  0.2753 -0.3651
  153OSM   H10S17029   4.936   6.186   3.282 -1.6493  3.9118 -0.3234
  153OSM   H10T17030   5.019   6.330   3.207 -1.1247  0.0272 -2.3673
  153OSM   C11S17031   5.146   6.190   3.300 -0.1905  0.3718  0.0900
  153OSM   H11S17032   5.197   6.288   3.313  0.2057  0.4476 -1.7904
  153OSM   H11T17033   5.209   6.110   3.256  1.8909  1.7387  0.4933
  153OSM   C12S17034   5.106   6.152   3.446 -0.2411 -0.4448 -0.1843
  153OSM   H12S17035   5.062   6.050   3.458 -0.9614 -0.4360 -2.2667
  153OSM   H12T17036   5.026   6.224   3.474 -0.4493 -0.7973  0.1373
  153OSM   C13S17037   5.208   6.177   3.558 -0.5750 -0.3142  0.8500
  153OSM   H13S17038   5.230   6.286   3.558 -2.4859  0.1235  1.9016
  153OSM   H13T17039   5.308   6.135   3.534 -0.7415  0.1027 -0.6748
  153OSM   C14S17040   5.147   6.143   3.689 -0.2584  0.0522 -0.2546
  153OSM   H14S17041   5.113   6.037   3.684 -1.0619  0.3069 -0.4272
  153OSM   H14T17042   5.055   6.202   3.709 -0.2749  0.1171 -0.5192
  153OSM   C15S17043   5.244   6.154   3.809  1.3471  0.0906  0.5887
  153OSM   H15S17044   5.289   6.256   3.803 -1.1349  1.2221 -0.0003
  153OSM   H15T17045   5.314   6.071   3.785 -1.7790 -2.9011  1.1156
  153OSM   C16S17046   5.176   6.126   3.938 -0.0749  0.1702  0.0337
  153OSM   H16S17047   5.145   6.019   3.936  0.0473  0.0806  1.6087
  153OSM   H16T17048   5.093   6.200   3.947  0.7181  1.6454 -3.3629
  153OSM   C17S17049   5.271   6.144   4.056 -0.4423  0.4432 -0.2988
  153OSM   H17S17050   5.274   6.255   4.066 -0.1868  0.3231  1.1872
  153OSM   H17T17051   5.371   6.107   4.025  0.1617 -1.3852  3.2842
  153OSM   C18S17052   5.231   6.083   4.187 -0.0238  0.2941 -0.2556
  153OSM   H18S17053   5.121   6.071   4.194  0.2383 -1.7647  2.0799
  153OSM   H18T17054   5.264   6.139   4.277 -1.4888  0.8850 -0.0541
  153OSM   H18U17055   5.259   5.976   4.184 -0.2552  0.2001 -4.9120
  153OSM    C1F17056   4.655   5.841   2.440 -0.1055 -0.4177 -0.2753
  153OSM     OF17057   4.693   5.731   2.395  0.2995  0.2963 -0.5253
  153OSM    C2F17058   4.516   5.873   2.486  0.4817  0.1407  0.2995
  153OSM    H2F17059   4.448   5.800   2.436  1.2944  0.3721 -1.2033
  153OSM    H2G17060   4.486   5.972   2.445 -2.5121 -0.9846 -0.5337
  153OSM    C3F17061   4.486   5.868   2.636  0.0118  0.0106 -0.0788
  153OSM    H3F17062   4.496   5.770   2.686  2.4209 -0.2047 -0.8282
  153OSM    H3G17063   4.386   5.907   2.664  0.4330 -0.0083  1.5889
  153OSM    C4F17064   4.574   5.964   2.720  0.5146  0.6285  0.6732
  153OSM    H4F17065   4.592   6.055   2.659 -1.1694  1.3474  1.1966
  153OSM    H4G17066   4.672   5.912   2.726 -0.9610 -2.2088  2.1447
  153OSM    C5F17067   4.513   6.009   2.854 -0.5577  0.2795 -0.0800
  153OSM    H5F17068   4.403   6.023   2.849 -0.4648  0.7469 -3.3813
  153OSM    H5G17069   4.551   6.103   2.899 -1.5509  0.4658  0.3998
  153OSM    C6F17070   4.541   5.896   2.952  0.2180 -0.1964  0.7528
  153OSM    H6F17071   4.649   5.869   2.953 -0.2579 -2.4630 -0.6448
  153OSM    H6G17072   4.486   5.801   2.931 -2.3457  0.8752  2.1729
  153OSM    C7F17073   4.503   5.940   3.097 -0.3570  0.0942  0.1516
  153OSM    H7F17074   4.401   5.983   3.104 -1.3527 -2.2929  1.5149
  153OSM    H7G17075   4.572   6.024   3.123 -0.7108 -0.1641  2.0976
  153OSM    C8F17076   4.522   5.822   3.188 -0.3181  0.5115  0.7263
  153OSM    H8F17077   4.629   5.801   3.169 -1.0880 -1.2904 -2.2687
  153OSM    H8G17078   4.463   5.741   3.141  0.6489 -0.4660  1.1472
  153OSM    C9F17079   4.475   5.838   3.327  0.5330  0.5860 -0.2147
  153OSM    H9F17080   4.365   5.843   3.332  0.4012 -1.5631  0.0896
  153OSM   C10F17081   4.558   5.863   3.432 -0.7631  0.1230 -0.1316
  153OSM   H10F17082   4.506   5.870   3.529 -0.0381  0.2249  0.2596
  153OSM   C11F17083   4.704   5.868   3.444  0.1690 -0.6457  0.3437
  153OSM   H11F17084   4.750   5.918   3.356  1.2316 -0.8691  0.7655
  153OSM   H11G17085   4.742   5.765   3.456 -1.0949 -0.9555  1.9460
  153OSM   C12F17086   4.762   5.946   3.563  0.2962  0.3270 -0.5021
  153OSM   H12F17087   4.734   6.054   3.558  1.9867  1.0241  2.3917
  153OSM   H12G17088   4.872   5.941   3.549  0.3648 -0.6306  0.2566
  153OSM   C13F17089   4.710   5.893   3.697 -0.1731  0.2987  0.3931
  153OSM   H13F17090   4.702   5.783   3.687  0.9720  0.2442 -0.1023
  153OSM   H13G17091   4.607   5.925   3.723  0.3512  1.4118  1.1653
  153OSM   C14F17092   4.808   5.923   3.812  0.2123  0.1998 -0.3037
  153OSM   H14F17093   4.832   6.031   3.821  0.4278  0.2853 -1.6596
  153OSM   H14G17094   4.906   5.873   3.799  0.6883  1.0086  0.0565
  153OSM   C15F17095   4.755   5.872   3.947  0.1629  0.1726 -0.2701
  153OSM   H15F17096   4.821   5.908   4.028 -2.4413 -0.8753  2.5291
  153OSM   H15G17097   4.751   5.761   3.936 -1.6840  0.3771 -2.4329
  153OSM   C16F17098   4.620   5.929   3.987 -0.1743  0.0824 -0.1124
  153OSM   H16F17099   4.537   5.881   3.929 -1.7748 -0.0317  2.1352
  153OSM   H16G17100   4.626   6.038   3.966 -0.9563  0.4726  1.5382
  153OSM   C17F17101   4.597   5.917   4.140  0.2467  0.4092  0.0282
  153OSM   H17F17102   4.658   5.997   4.189  0.4407 -1.1482  2.4742
  153OSM   H17G17103   4.633   5.820   4.178  0.3587 -0.2131 -1.5599
  153OSM   C18F17104   4.452   5.940   4.174  0.0958  0.1789 -0.3571
  153OSM   H18F17105   4.387   5.876   4.111 -2.2996 -0.9072  2.9961
  153OSM   H18G17106   4.421   6.044   4.151  0.1406  0.1707 -0.4563
  153OSM   H18H17107   4.425   5.904   4.275  0.1581  0.7875 -0.1184
  154OSM      N17108   3.203   2.680   1.848  0.2699  0.2044  0.4560
  154OSM    C1517109   3.182   2.777   1.965  0.1007 -0.8447  0.1825
  154OSM   H15A17110   3.256   2.856   1.969  0.0876 -0.7753 -0.7564
  154OSM   H15B17111   3.174   2.716   2.054 -0.1458 -1.0134  0.0456
  154OSM   H15C17112   3.087   2.826   1.948  0.3938  0.0856  1.0806
  154OSM    C1417113   3.173   2.759   1.725  0.2787 -0.3014 -0.1270
  154OSM   H14A17114   3.245   2.839   1.716 -2.6208  2.4120 -0.5193
  154OSM   H14B17115   3.071   2.791   1.717 -0.5223 -2.3608  1.1200
  154OSM   H14C17116   3.189   2.710   1.630  1.4549 -1.0432  0.4187
  154OSM    C1317117   3.345   2.631   1.847 -0.8706  0.2417 -0.1373
  154OSM   H13A17118   3.409   2.717   1.857  1.9068 -1.8803  1.6587
  154OSM   H13B17119   3.371   2.578   1.757  0.7213 -0.9088  0.9497
  154OSM   H13C17120   3.368   2.566   1.931  1.8554  0.9262 -0.2899
  154OSM    C1217121   3.103   2.567   1.848  0.0329  0.5010  0.0379
  154OSM   H12A17122   3.138   2.511   1.933  2.1502  1.0209 -0.4280
  154OSM   H12B17123   3.129   2.500   1.767  1.1088  0.9971 -0.0367
  154OSM    C1117124   2.946   2.592   1.856 -0.8463  0.2808 -0.7253
  154OSM   H11A17125   2.898   2.491   1.854  0.2748 -0.5729  4.0208
  154OSM   H11B17126   2.921   2.650   1.764  4.3055 -1.1358 -3.3782
  154OSM      P17127   2.881   2.576   2.114 -0.0104  0.1882 -0.0612
  154OSM    O1317128   2.737   2.584   2.135  0.3684  0.2532  0.3210
  154OSM    O1417129   2.933   2.441   2.100  0.2917  0.1617 -0.3579
  154OSM    O1117130   2.969   2.651   2.224  0.4172 -0.5836  0.9114
  154OSM    O1217131   2.913   2.657   1.983  0.1254  0.0226  0.4490
  154OSM    C1S17132   2.938   2.795   2.253  0.2722  0.1141  0.2683
  154OSM    H1S17133   2.829   2.815   2.257  0.3426  0.4646  0.5285
  154OSM    H1T17134   2.959   2.865   2.169 -2.0212  1.4735  0.7292
  154OSM     NF17135   2.903   2.963   2.440  0.7149 -0.2310 -0.1857
  154OSM    HNF17136   2.958   3.045   2.455 -0.6281  0.5608  0.6835
  154OSM    C2S17137   2.973   2.848   2.399  0.0139  1.0680  0.3334
  154OSM    H2S17138   2.945   2.762   2.465 -1.0260  1.4275  0.3711
  154OSM    C3S17139   3.125   2.858   2.405 -0.1740  0.1948  0.5633
  154OSM    H3S17140   3.157   2.946   2.345 -3.0524  0.2618 -1.0287
  154OSM     O317141   3.183   2.741   2.341 -0.3212  0.1417  0.4909
  154OSM    HO317142   3.106   2.702   2.300  0.3131 -0.0691 -0.5461
  154OSM    C4S17143   3.183   2.881   2.546  0.1943 -0.0383 -0.0376
  154OSM    H4S17144   3.204   2.985   2.576  1.2132  0.2011 -1.4825
  154OSM    C5S17145   3.226   2.780   2.628  0.4811  0.6744  0.4707
  154OSM    H5S17146   3.203   2.680   2.590  0.9906  0.8024 -0.1862
  154OSM    C6S17147   3.287   2.778   2.759 -0.4249 -0.6657 -0.0536
  154OSM    H6S17148   3.341   2.682   2.770 -2.0940 -1.4689  1.5837
  154OSM    H6T17149   3.204   2.777   2.833  0.6168  0.6936  1.1884
  154OSM    C7S17150   3.377   2.898   2.791  0.0745  0.0056 -0.5437
  154OSM    H7S17151   3.316   2.991   2.789 -0.2256 -0.0761  1.8610
  154OSM    H7T17152   3.456   2.898   2.713  0.5620 -0.1038 -0.0600
  154OSM    C8S17153   3.441   2.887   2.930 -0.7269 -0.8710 -0.0499
  154OSM    H8S17154   3.533   2.949   2.923 -0.6626 -0.9962 -0.3576
  154OSM    H8T17155   3.477   2.782   2.938  0.4155 -0.4781  0.0905
  154OSM    C9S17156   3.342   2.921   3.040  0.4941 -0.3083  0.1077
  154OSM    H9S17157   3.243   2.874   3.022  0.5586 -0.0738 -0.8764
  154OSM    H9T17158   3.322   3.029   3.052 -0.4976 -0.3646 -0.8803
  154OSM   C10S17159   3.389   2.878   3.178  0.3170 -0.3840 -0.1292
  154OSM   H10S17160   3.496   2.903   3.197  1.1757 -1.7278 -2.6592
  154OSM   H10T17161   3.384   2.767   3.182  1.0585 -0.4442 -0.6834
  154OSM   C11S17162   3.300   2.935   3.286 -0.0446  0.8310 -1.0000
  154OSM   H11S17163   3.191   2.915   3.281 -0.0499 -0.0595  1.1968
  154OSM   H11T17164   3.309   3.045   3.296 -4.2727  1.1075  2.3084
  154OSM   C12S17165   3.345   2.893   3.428  0.1973  0.5754  0.7618
  154OSM   H12S17166   3.440   2.931   3.471 -0.0296  2.0185  0.0258
  154OSM   H12T17167   3.359   2.782   3.428  2.8214  0.8287 -0.4788
  154OSM   C13S17168   3.243   2.927   3.535 -0.1554 -0.8781 -0.3382
  154OSM   H13S17169   3.150   2.873   3.505 -0.3227  0.7797 -3.1430
  154OSM   H13T17170   3.216   3.034   3.526  0.1401 -0.7416  0.3701
  154OSM   C14S17171   3.277   2.871   3.675 -0.1225  0.6146  0.2651
  154OSM   H14S17172   3.367   2.929   3.704 -1.2058  2.0967  0.7760
  154OSM   H14T17173   3.323   2.771   3.660 -1.0887  0.3278 -0.9962
  154OSM   C15S17174   3.175   2.869   3.790  0.6604  0.4107 -0.2458
  154OSM   H15S17175   3.083   2.815   3.759 -0.5238  0.6501  2.5328
  154OSM   H15T17176   3.129   2.970   3.793 -2.7767 -0.8840 -2.7960
  154OSM   C16S17177   3.224   2.842   3.934  0.5541 -0.1450 -0.2761
  154OSM   H16S17178   3.305   2.912   3.963 -0.1859  0.8129 -0.4596
  154OSM   H16T17179   3.266   2.739   3.938  0.3445 -0.2662 -1.1371
  154OSM   C17S17180   3.107   2.858   4.023  0.4233 -0.1176 -1.4633
  154OSM   H17S17181   3.033   2.783   3.988  1.3810 -0.3644 -3.0346
  154OSM   H17T17182   3.061   2.957   4.008 -1.6291 -1.2665 -3.2461
  154OSM   C18S17183   3.141   2.828   4.170 -0.8259 -0.2607  0.4555
  154OSM   H18S17184   3.175   2.722   4.180 -1.3829 -0.6296 -1.2830
  154OSM   H18T17185   3.051   2.844   4.234 -0.8754 -0.0393  0.3306
  154OSM   H18U17186   3.221   2.898   4.201 -0.2409 -0.0575 -1.3851
  154OSM    C1F17187   2.765   2.973   2.444 -0.5061  0.0615  0.4635
  154OSM     OF17188   2.690   2.877   2.446  0.5243 -0.0624  0.2102
  154OSM    C2F17189   2.711   3.113   2.449  0.0552  0.4238  0.0007
  154OSM    H2F17190   2.638   3.124   2.366 -2.6149 -0.3602  2.0901
  154OSM    H2G17191   2.794   3.186   2.437  0.9561 -0.3276  1.3884
  154OSM    C3F17192   2.648   3.145   2.587 -0.6687  0.0994 -0.3148
  154OSM    H3F17193   2.729   3.144   2.663 -0.5795  0.9667 -0.3929
  154OSM    H3G17194   2.571   3.071   2.619 -0.5796  0.5066  0.8741
  154OSM    C4F17195   2.585   3.286   2.599  0.0747  0.4523 -0.5208
  154OSM    H4F17196   2.543   3.310   2.500  1.9837 -0.9574 -1.7365
  154OSM    H4G17197   2.663   3.364   2.616  0.1661  1.1235 -3.5411
  154OSM    C5F17198   2.486   3.294   2.711  0.3324  0.1733 -0.5015
  154OSM    H5F17199   2.411   3.216   2.687  0.6816 -0.5353  0.6238
  154OSM    H5G17200   2.444   3.396   2.704 -0.3341  0.0561  1.3265
  154OSM    C6F17201   2.531   3.262   2.854 -0.0792 -0.2170 -0.5002
  154OSM    H6F17202   2.605   3.180   2.857 -2.4812 -2.5195 -0.4575
  154OSM    H6G17203   2.445   3.247   2.922  0.3001  0.3409  0.1105
  154OSM    C7F17204   2.597   3.381   2.917 -0.3981 -0.6835 -0.1079
  154OSM    H7F17205   2.534   3.472   2.915 -0.6339 -0.8164  0.9607
  154OSM    H7G17206   2.686   3.416   2.860 -0.3714  0.7578  0.7671
  154OSM    C8F17207   2.636   3.355   3.065  0.3664  0.3339 -0.8117
  154OSM    H8F17208   2.703   3.436   3.101 -0.6767  1.1281 -0.6050
  154OSM    H8G17209   2.686   3.256   3.069 -1.7859 -0.8190 -1.0890
  154OSM    C9F17210   2.509   3.346   3.142 -0.1136  1.0394  0.0097
  154OSM    H9F17211   2.445   3.433   3.116 -0.3854  0.8741  0.1188
  154OSM   C10F17212   2.491   3.258   3.244 -0.7003 -0.3592  0.5190
  154OSM   H10F17213   2.395   3.268   3.296 -0.5576  2.6271  0.3532
  154OSM   C11F17214   2.592   3.153   3.293 -0.2708 -0.1153  0.5508
  154OSM   H11F17215   2.690   3.155   3.241  1.8068  1.0226  4.1494
  154OSM   H11G17216   2.554   3.050   3.278 -2.6106  0.6334  0.8785
  154OSM   C12F17217   2.614   3.151   3.448 -0.4597  0.2289  0.4547
  154OSM   H12F17218   2.518   3.148   3.503  0.3530  0.6715  1.9399
  154OSM   H12G17219   2.651   3.253   3.471 -2.6812  1.2297 -0.0500
  154OSM   C13F17220   2.700   3.032   3.495  0.4391 -0.6147  0.4082
  154OSM   H13F17221   2.802   3.046   3.452 -1.1473  0.1814 -3.5238
  154OSM   H13G17222   2.663   2.939   3.449 -0.7422  0.1161 -0.1609
  154OSM   C14F17223   2.703   3.018   3.642 -0.3030 -0.2707 -0.2248
  154OSM   H14F17224   2.612   2.972   3.686  0.3816  0.4671  2.1438
  154OSM   H14G17225   2.728   3.111   3.699  2.8442 -1.1857  0.0909
  154OSM   C15F17226   2.820   2.922   3.689  0.5609 -0.1342 -0.0767
  154OSM   H15F17227   2.840   2.938   3.797 -2.0259  0.7518  0.3426
  154OSM   H15G17228   2.910   2.943   3.626 -0.1235  1.2590 -0.6225
  154OSM   C16F17229   2.785   2.771   3.662  0.4149  0.0711 -0.1709
  154OSM   H16F17230   2.882   2.721   3.642  0.8893  1.3862 -1.3498
  154OSM   H16G17231   2.717   2.779   3.575 -0.7639  1.3036  0.8219
  154OSM   C17F17232   2.711   2.704   3.774  0.9951 -0.3799  0.1633
  154OSM   H17F17233   2.662   2.624   3.714  0.1243  1.2389 -1.3606
  154OSM   H17G17234   2.630   2.767   3.816  0.5810 -0.1648 -0.9414
  154OSM   C18F17235   2.794   2.656   3.889 -0.2822  0.4746 -0.3480
  154OSM   H18F17236   2.838   2.744   3.940 -2.7932  1.4829  0.1741
  154OSM   H18G17237   2.877   2.597   3.843  1.1298  1.3098  1.0050
  154OSM   H18H17238   2.737   2.599   3.966  2.2046 -0.5677  0.8401
  155OSM      N17239   5.693   1.359   2.006 -0.2128 -0.1651 -0.1075
  155OSM    C1517240   5.633   1.325   1.870  0.7490 -0.0908  0.0151
  155OSM   H15A17241   5.642   1.218   1.859  0.2215 -0.0728 -0.6377
  155OSM   H15B17242   5.696   1.366   1.793  1.7028 -1.6337 -0.0716
  155OSM   H15C17243   5.534   1.364   1.849  1.4838  0.9108 -1.8232
  155OSM    C1417244   5.612   1.297   2.118  0.2330  0.4443  0.2261
  155OSM   H14A17245   5.663   1.325   2.208 -0.9858  3.5422  0.0692
  155OSM   H14B17246   5.605   1.189   2.117 -1.0992  0.4960  0.8819
  155OSM   H14C17247   5.510   1.334   2.116  0.9559  2.6536  1.3950
  155OSM    C1317248   5.834   1.307   2.024 -0.2109  0.2992  0.1491
  155OSM   H13A17249   5.863   1.301   2.128 -0.3164 -4.2244  0.1056
  155OSM   H13B17250   5.909   1.364   1.971 -1.6508  0.8047 -1.4509
  155OSM   H13C17251   5.847   1.206   1.987 -1.3575 -0.0866  0.7533
  155OSM    C1217252   5.678   1.515   2.031 -0.3279  0.0578 -0.6239
  155OSM   H12A17253   5.581   1.539   1.990 -0.7215 -1.0669 -0.3852
  155OSM   H12B17254   5.747   1.567   1.966  1.0742  0.0452  0.8088
  155OSM    C1117255   5.717   1.566   2.171 -0.7686  0.0551  0.1651
  155OSM   H11A17256   5.660   1.528   2.258  1.5807  0.0548  1.8052
  155OSM   H11B17257   5.692   1.674   2.177  3.0513  1.0586  1.3283
  155OSM      P17258   5.963   1.679   2.175 -0.2554  0.1454 -0.3509
  155OSM    O1317259   6.098   1.639   2.219 -0.0889  0.4743  0.0293
  155OSM    O1417260   5.949   1.738   2.042  0.0995  0.2344  0.5602
  155OSM    O1117261   5.912   1.785   2.274 -0.3432 -0.4201  0.5282
  155OSM    O1217262   5.863   1.559   2.185  0.2329  0.8803  0.4742
  155OSM    C1S17263   5.826   1.779   2.387  0.3322  0.5050  0.6306
  155OSM    H1S17264   5.734   1.717   2.375  1.4844 -1.0087 -0.9004
  155OSM    H1T17265   5.788   1.880   2.414  0.5838  0.7523  0.0726
  155OSM     NF17266   5.796   1.720   2.616  0.7385 -0.1483  0.5488
  155OSM    HNF17267   5.784   1.803   2.670 -0.5774  1.0081 -1.3833
  155OSM    C2S17268   5.898   1.721   2.513  0.1085  0.1927 -0.7661
  155OSM    H2S17269   5.948   1.623   2.496  0.0190 -0.0374  0.2604
  155OSM    C3S17270   6.012   1.820   2.552 -0.2501  0.0358 -0.2705
  155OSM    H3S17271   5.973   1.924   2.549 -0.0682  0.0909 -1.1685
  155OSM     O317272   6.127   1.819   2.466 -0.3410  0.3582  0.0149
  155OSM    HO317273   6.097   1.816   2.374 -1.3953  0.7237  0.3291
  155OSM    C4S17274   6.071   1.793   2.683  0.4355  0.1504  0.0161
  155OSM    H4S17275   6.119   1.695   2.697  0.9403  0.4964  0.7337
  155OSM    C5S17276   6.074   1.876   2.791  0.8861  0.0970  0.1460
  155OSM    H5S17277   6.046   1.982   2.782  1.2474  0.1742 -0.0906
  155OSM    C6S17278   6.153   1.845   2.916 -0.4848 -0.2031 -0.2366
  155OSM    H6S17279   6.191   1.940   2.961 -2.7758  0.0537  1.3036
  155OSM    H6T17280   6.239   1.786   2.877  0.6489  2.1666 -1.5745
  155OSM    C7S17281   6.078   1.765   3.028  0.1944  0.0568 -0.2173
  155OSM    H7S17282   6.046   1.662   3.000 -1.1430  0.4030 -0.0254
  155OSM    H7T17283   5.986   1.817   3.060 -0.0588 -0.1172 -0.6582
  155OSM    C8S17284   6.156   1.756   3.157 -0.3412  0.2978 -0.2083
  155OSM    H8S17285   6.193   1.857   3.183 -1.4096  0.5557  0.3553
  155OSM    H8T17286   6.229   1.672   3.154 -1.7519 -1.1274  1.8564
  155OSM    C9S17287   6.049   1.720   3.264  0.4290  0.2574 -0.4695
  155OSM    H9S17288   5.974   1.648   3.224  0.7304  0.0202 -0.6132
  155OSM    H9T17289   5.997   1.811   3.300  0.1602 -0.1486  0.1840
  155OSM   C10S17290   6.126   1.665   3.378 -0.2888  0.2475  0.8058
  155OSM   H10S17291   6.224   1.715   3.390  0.6444 -1.7141  1.7288
  155OSM   H10T17292   6.152   1.567   3.334 -0.1394  0.1911  1.0193
  155OSM   C11S17293   6.037   1.629   3.510  0.4371  0.2633  0.9769
  155OSM   H11S17294   6.116   1.577   3.568  0.4574  1.7661  2.3772
  155OSM   H11T17295   5.948   1.568   3.484  0.7755  0.8393 -1.8795
  155OSM   C12S17296   5.993   1.758   3.584  0.0418  0.3130  0.4648
  155OSM   H12S17297   5.900   1.784   3.529  0.6037  1.2294 -0.0782
  155OSM   H12T17298   6.069   1.836   3.561 -1.0246  0.4852 -2.9502
  155OSM   C13S17299   5.963   1.744   3.732  0.3502  0.1428  0.6725
  155OSM   H13S17300   6.056   1.720   3.789  1.2320  0.5991 -0.5310
  155OSM   H13T17301   5.887   1.664   3.745 -0.0811 -0.2899 -3.3924
  155OSM   C14S17302   5.925   1.879   3.795  0.0025  0.0033  0.2716
  155OSM   H14S17303   5.838   1.915   3.736  1.0481 -1.3578 -2.2447
  155OSM   H14T17304   6.008   1.951   3.785 -0.5296  0.2479 -3.8450
  155OSM   C15S17305   5.889   1.873   3.943  0.2366 -0.0142  0.1295
  155OSM   H15S17306   5.849   1.772   3.969 -1.5119  0.5865 -0.1070
  155OSM   H15T17307   5.817   1.952   3.971 -1.6371 -1.3058 -0.7880
  155OSM   C16S17308   6.015   1.882   4.023  0.3429 -0.6515  0.5427
  155OSM   H16S17309   6.065   1.981   4.017 -1.3830  0.1422 -2.0870
  155OSM   H16T17310   6.093   1.821   3.973 -0.8298  0.8184 -3.4289
  155OSM   C17S17311   5.986   1.836   4.169 -1.0858 -0.3135  0.1132
  155OSM   H17S17312   5.922   1.745   4.170 -0.5923 -0.6828 -0.8038
  155OSM   H17T17313   5.915   1.909   4.213 -1.5081 -1.0738  0.7177
  155OSM   C18S17314   6.111   1.803   4.259 -0.4459 -0.2143 -0.4623
  155OSM   H18S17315   6.180   1.724   4.220 -0.3956  0.2514 -1.3267
  155OSM   H18T17316   6.078   1.761   4.356 -0.0095  0.6014  0.0545
  155OSM   H18U17317   6.170   1.893   4.287 -0.5099  0.6697 -2.8820
  155OSM    C1F17318   5.711   1.621   2.615 -0.0421 -0.8786  0.3098
  155OSM     OF17319   5.717   1.536   2.525 -0.1000  0.0787 -0.6147
  155OSM    C2F17320   5.612   1.613   2.727 -0.1589 -0.5938 -0.4733
  155OSM    H2F17321   5.558   1.709   2.740 -0.6991 -1.1266  1.7906
  155OSM    H2G17322   5.663   1.600   2.825 -0.0246  1.5807 -0.2077
  155OSM    C3F17323   5.517   1.487   2.700  0.0961 -0.5036  0.2858
  155OSM    H3F17324   5.574   1.399   2.661  0.7069  0.7725 -1.8915
  155OSM    H3G17325   5.451   1.505   2.613  0.5085 -1.2334 -0.1869
  155OSM    C4F17326   5.424   1.466   2.822 -1.0851 -0.6669  0.1657
  155OSM    H4F17327   5.479   1.391   2.883  1.3594  1.9433  1.3935
  155OSM    H4G17328   5.328   1.419   2.792 -1.0948 -2.0627  2.1735
  155OSM    C5F17329   5.403   1.594   2.911 -0.4527  0.2097  0.9358
  155OSM    H5F17330   5.368   1.666   2.834 -1.8592 -0.2754  1.0765
  155OSM    H5G17331   5.493   1.641   2.954  0.6581 -2.7653  2.1041
  155OSM    C6F17332   5.283   1.583   3.009 -0.4576 -0.2612  0.0257
  155OSM    H6F17333   5.201   1.548   2.943  0.5657  0.7488 -1.8567
  155OSM    H6G17334   5.265   1.689   3.038 -1.6795  0.5182 -3.1845
  155OSM    C7F17335   5.318   1.487   3.118 -0.9619 -0.0738 -0.2586
  155OSM    H7F17336   5.425   1.500   3.142 -1.4923  0.9996  1.8228
  155OSM    H7G17337   5.312   1.385   3.074  0.9186  0.7594 -2.6874
  155OSM    C8F17338   5.221   1.486   3.235 -0.0408  0.1895 -0.4081
  155OSM    H8F17339   5.236   1.402   3.306  2.2828  0.7288 -0.1685
  155OSM    H8G17340   5.120   1.463   3.195 -0.4359 -0.8865  1.1010
  155OSM    C9F17341   5.233   1.611   3.315  0.4748  0.1620  0.5588
  155OSM    H9F17342   5.279   1.695   3.261  1.0229  0.3687  1.3350
  155OSM   C10F17343   5.200   1.634   3.442  0.0593  1.2959 -0.4995
  155OSM   H10F17344   5.197   1.737   3.481 -0.4877  0.7002  1.1070
  155OSM   C11F17345   5.134   1.543   3.548  0.0912  0.5445  0.6318
  155OSM   H11F17346   5.181   1.443   3.532  0.8974  1.3051 -2.1619
  155OSM   H11G17347   5.024   1.530   3.541 -0.0434  0.3604  2.5330
  155OSM   C12F17348   5.140   1.601   3.689 -0.0268  0.1127  0.6441
  155OSM   H12F17349   5.064   1.680   3.707 -1.4933 -0.4036 -2.5381
  155OSM   H12G17350   5.244   1.638   3.702 -0.9848  3.2230  0.2655
  155OSM   C13F17351   5.108   1.498   3.799 -0.0630  0.3606  0.0975
  155OSM   H13F17352   5.177   1.412   3.794  1.8738  1.6855  1.9799
  155OSM   H13G17353   5.007   1.454   3.783  0.7026 -2.0863  1.4802
  155OSM   C14F17354   5.103   1.556   3.939  0.1976 -0.6058  0.2557
  155OSM   H14F17355   5.017   1.626   3.934  1.8600  1.5274 -0.2153
  155OSM   H14G17356   5.195   1.612   3.967  1.0892 -0.8799 -1.9206
  155OSM   C15F17357   5.060   1.451   4.040  0.3350 -0.1411  0.7029
  155OSM   H15F17358   5.151   1.397   4.075 -0.6040 -2.2323  0.0649
  155OSM   H15G17359   5.007   1.370   3.987 -1.5957 -0.1569  2.5099
  155OSM   C16F17360   4.971   1.504   4.147  0.0400  0.6220 -0.8736
  155OSM   H16F17361   4.937   1.426   4.219 -0.5358  1.5787 -0.0800
  155OSM   H16G17362   4.881   1.557   4.109 -0.4633  1.2386  1.0299
  155OSM   C17F17363   5.035   1.612   4.236  0.8322  0.6056  0.1546
  155OSM   H17F17364   5.053   1.699   4.169  0.4478  0.0841 -0.6407
  155OSM   H17G17365   5.132   1.572   4.274  0.1988 -0.7275  0.4481
  155OSM   C18F17366   4.935   1.660   4.343 -0.7787  0.5269 -0.3468
  155OSM   H18F17367   4.935   1.579   4.418  0.3288  2.9908  2.5252
  155OSM   H18G17368   4.830   1.669   4.310 -2.1316  0.1574  3.3692
  155OSM   H18H17369   4.965   1.748   4.404 -0.0044 -0.3648  0.5819
  156OSM      N17370   0.476   0.833   1.989  0.6007  0.0704 -0.0664
  156OSM    C1517371   0.378   0.780   2.087 -0.7088 -0.1876 -0.5324
  156OSM   H15A17372   0.310   0.711   2.038 -0.0318 -1.2324 -0.0540
  156OSM   H15B17373   0.331   0.857   2.145 -0.9476 -1.5664  1.1975
  156OSM   H15C17374   0.422   0.712   2.159 -2.1501  0.2985  0.8360
  156OSM    C1417375   0.493   0.734   1.878 -0.4712 -0.4506  0.3510
  156OSM   H14A17376   0.571   0.762   1.808  0.0094 -1.7926  0.3239
  156OSM   H14B17377   0.399   0.737   1.826 -0.5260 -0.2651  0.4579
  156OSM   H14C17378   0.524   0.635   1.906 -0.5081 -0.5829 -0.0687
  156OSM    C1317379   0.438   0.961   1.931  0.5890  0.0240  0.0434
  156OSM   H13A17380   0.517   0.999   1.868 -0.2003 -0.4039 -1.2479
  156OSM   H13B17381   0.425   1.036   2.008  0.7659  3.3848 -2.9005
  156OSM   H13C17382   0.343   0.945   1.882 -0.0384  1.8441  0.5845
  156OSM    C1217383   0.607   0.863   2.065 -0.1438  0.9925 -0.3223
  156OSM   H12A17384   0.590   0.925   2.153  0.7884 -0.0342  0.6099
  156OSM   H12B17385   0.674   0.914   1.997 -1.3207 -1.4211 -3.5375
  156OSM    C1117386   0.683   0.739   2.132  0.1190  0.5543  0.6308
  156OSM   H11A17387   0.606   0.681   2.187  0.4613 -0.4243  0.1002
  156OSM   H11B17388   0.758   0.771   2.207  2.0213  0.6995 -1.2308
  156OSM      P17389   0.882   0.569   2.068  0.0965 -0.0197  0.0757
  156OSM    O1317390   0.917   0.495   1.944 -0.7130  0.3831 -0.7102
  156OSM    O1417391   0.978   0.672   2.118  0.6556  0.4490  0.1086
  156OSM    O1117392   0.840   0.470   2.172  1.3969 -0.2489 -0.3645
  156OSM    O1217393   0.746   0.654   2.035 -0.4316 -0.6957  0.5980
  156OSM    C1S17394   0.923   0.456   2.291 -0.0429  0.0636 -0.0577
  156OSM    H1S17395   0.973   0.551   2.316 -0.2329  0.3992 -0.9245
  156OSM    H1T17396   0.997   0.374   2.277  0.4704  0.5863 -0.4205
  156OSM     NF17397   0.918   0.404   2.529 -0.0751 -0.4545 -0.0302
  156OSM    HNF17398   0.934   0.316   2.571 -0.0377  0.2148  1.4058
  156OSM    C2S17399   0.833   0.420   2.410 -0.3595  0.1622  0.2645
  156OSM    H2S17400   0.776   0.514   2.427  1.1783  1.0665  0.6923
  156OSM    C3S17401   0.737   0.297   2.388 -0.1994 -0.5804 -0.1628
  156OSM    H3S17402   0.797   0.203   2.392  1.5848  0.5245 -0.0630
  156OSM     O317403   0.671   0.293   2.265 -0.5329  0.4298 -0.2158
  156OSM    HO317404   0.726   0.353   2.214 -2.7384  0.6499 -2.5609
  156OSM    C4S17405   0.634   0.296   2.500 -0.2711  0.2008  0.0359
  156OSM    H4S17406   0.571   0.386   2.507 -1.2540 -0.4231 -0.5425
  156OSM    C5S17407   0.618   0.199   2.590  0.6261  0.1573 -0.0141
  156OSM    H5S17408   0.681   0.109   2.586 -1.2456 -1.2090  0.0972
  156OSM    C6S17409   0.536   0.214   2.713 -0.1818  0.8338 -0.3814
  156OSM    H6S17410   0.467   0.127   2.711  2.2019 -1.1847  0.8667
  156OSM    H6T17411   0.470   0.303   2.722 -1.2432 -0.0678  1.4064
  156OSM    C7S17412   0.637   0.225   2.834  0.0609 -0.0032  0.0952
  156OSM    H7S17413   0.705   0.307   2.803  0.8923 -0.5250  0.5027
  156OSM    H7T17414   0.695   0.131   2.845 -1.2652 -0.8004  0.4893
  156OSM    C8S17415   0.575   0.265   2.964  0.1294  0.0228  0.1110
  156OSM    H8S17416   0.529   0.173   3.006  2.8003 -1.5599 -0.1997
  156OSM    H8T17417   0.505   0.349   2.947 -1.1602 -0.7281  1.4418
  156OSM    C9S17418   0.683   0.307   3.070  0.3229 -0.4752  0.5021
  156OSM    H9S17419   0.731   0.401   3.035 -1.1857  0.0548 -0.2239
  156OSM    H9T17420   0.765   0.232   3.066  2.3890  1.5800  1.6925
  156OSM   C10S17421   0.618   0.314   3.207 -0.3694  0.2157  0.2694
  156OSM   H10S17422   0.594   0.213   3.247  1.1266  1.4964  5.1908
  156OSM   H10T17423   0.528   0.379   3.215 -0.0187  0.6392  0.8932
  156OSM   C11S17424   0.713   0.377   3.315  0.0929 -0.9875 -0.7786
  156OSM   H11S17425   0.726   0.485   3.292 -2.1550 -0.4272  0.2848
  156OSM   H11T17426   0.818   0.342   3.305  0.8378  1.0347 -0.5362
  156OSM   C12S17427   0.656   0.382   3.457  0.0072  0.2169 -0.1649
  156OSM   H12S17428   0.638   0.278   3.489  1.9998  0.4075  1.8880
  156OSM   H12T17429   0.561   0.438   3.449  0.2142  0.5319 -0.4589
  156OSM   C13S17430   0.748   0.468   3.548  0.1417 -0.5610 -0.3670
  156OSM   H13S17431   0.730   0.577   3.530  0.7549 -0.2752  0.6633
  156OSM   H13T17432   0.856   0.449   3.531  0.3641  1.6041 -1.7395
  156OSM   C14S17433   0.720   0.443   3.700  0.0354  0.0723  0.5803
  156OSM   H14S17434   0.750   0.339   3.722  1.0682  0.8621  3.3173
  156OSM   H14T17435   0.613   0.459   3.727 -0.3815 -0.8183 -0.4503
  156OSM   C15S17436   0.802   0.538   3.781  0.1582 -0.6999 -0.3356
  156OSM   H15S17437   0.790   0.646   3.756  3.6010  0.1050  0.7981
  156OSM   H15T17438   0.912   0.526   3.765  0.1857  0.6054 -1.3480
  156OSM   C16S17439   0.777   0.522   3.939 -0.2842 -0.0206  0.0800
  156OSM   H16S17440   0.847   0.591   3.992  0.4442 -0.6579 -0.0352
  156OSM   H16T17441   0.820   0.422   3.957  0.8610  0.7597  2.0658
  156OSM   C17S17442   0.635   0.533   3.989  0.3631  0.1330  0.3048
  156OSM   H17S17443   0.583   0.450   3.936 -1.2380 -0.7235  3.0207
  156OSM   H17T17444   0.591   0.634   3.974  0.3878  0.7834  3.6924
  156OSM   C18S17445   0.614   0.495   4.137 -0.6164 -0.1296  0.5936
  156OSM   H18S17446   0.643   0.582   4.200  2.4892 -0.8695  0.3639
  156OSM   H18T17447   0.683   0.410   4.158  1.1070  1.6651  2.7808
  156OSM   H18U17448   0.506   0.472   4.151 -0.2566 -1.6503  1.0637
  156OSM    C1F17449   0.978   0.501   2.590  0.4332 -0.9919 -0.7030
  156OSM     OF17450   0.973   0.619   2.556  0.2209 -0.2495 -0.3974
  156OSM    C2F17451   1.059   0.449   2.703  0.1790 -0.7030  0.1947
  156OSM    H2F17452   1.153   0.506   2.720  0.1805 -0.1870 -1.4183
  156OSM    H2G17453   1.088   0.345   2.680  1.0699 -0.2927 -0.6392
  156OSM    C3F17454   0.983   0.468   2.837 -0.1827  0.5762  0.3202
  156OSM    H3F17455   0.882   0.423   2.821  0.4771 -0.1015 -2.5234
  156OSM    H3G17456   0.965   0.575   2.860  0.3956  1.0692 -1.3557
  156OSM    C4F17457   1.045   0.395   2.957  0.5609 -0.2145  0.8617
  156OSM    H4F17458   1.032   0.287   2.934  0.1351  0.5818 -3.3486
  156OSM    H4G17459   0.974   0.424   3.038 -0.9466 -0.0177 -0.4829
  156OSM    C5F17460   1.187   0.411   2.996 -0.5884  0.1105  0.4089
  156OSM    H5F17461   1.215   0.518   3.005  1.1912 -0.2477 -0.3845
  156OSM    H5G17462   1.252   0.378   2.912 -1.7515  1.7289 -1.2190
  156OSM    C6F17463   1.225   0.353   3.132 -1.3437  0.5067  0.0083
  156OSM    H6F17464   1.334   0.339   3.150 -1.3091  0.8994  0.1175
  156OSM    H6G17465   1.174   0.254   3.134  2.1632 -1.4702 -0.1989
  156OSM    C7F17466   1.182   0.446   3.249  0.1539  0.0058  0.2752
  156OSM    H7F17467   1.099   0.504   3.203 -0.5706 -1.5090 -0.4204
  156OSM    H7G17468   1.265   0.513   3.278  0.0207 -0.6053  2.2103
  156OSM    C8F17469   1.127   0.380   3.372 -0.6134  0.2581 -0.1791
  156OSM    H8F17470   1.045   0.319   3.329 -1.0462  0.3778  0.4632
  156OSM    H8G17471   1.080   0.461   3.432 -1.4392 -0.6951  0.4806
  156OSM    C9F17472   1.230   0.307   3.461  0.3492  0.5834 -0.7769
  156OSM    H9F17473   1.263   0.207   3.428  4.2884  2.0023 -1.7009
  156OSM   C10F17474   1.255   0.340   3.589 -0.0572  0.5709  0.4584
  156OSM   H10F17475   1.311   0.264   3.646 -0.7925  1.3557  2.3180
  156OSM   C11F17476   1.224   0.460   3.668 -0.3676  0.5417  0.0438
  156OSM   H11F17477   1.140   0.424   3.732 -0.8040  1.0448 -0.2360
  156OSM   H11G17478   1.182   0.542   3.606 -1.0001  0.1676 -0.0392
  156OSM   C12F17479   1.326   0.517   3.771  0.1357  0.0266 -0.3040
  156OSM   H12F17480   1.381   0.435   3.822 -0.0010 -0.5383 -1.0502
  156OSM   H12G17481   1.262   0.564   3.848  0.2997 -1.7542  0.9933
  156OSM   C13F17482   1.432   0.617   3.714 -0.1042 -0.0446 -0.0449
  156OSM   H13F17483   1.369   0.700   3.676  1.3066  1.8284  1.4682
  156OSM   H13G17484   1.485   0.565   3.631 -1.0485 -1.5630  0.2539
  156OSM   C14F17485   1.523   0.669   3.827  0.1884  0.0288  0.4213
  156OSM   H14F17486   1.578   0.591   3.884  0.3451  0.7306  1.2516
  156OSM   H14G17487   1.459   0.732   3.892  0.8466  0.8769  0.2767
  156OSM   C15F17488   1.628   0.765   3.767  0.2370 -0.4704 -0.8028
  156OSM   H15F17489   1.593   0.866   3.736  2.9448  1.9087  3.0219
  156OSM   H15G17490   1.664   0.714   3.675 -1.1140 -0.1253 -1.5507
  156OSM   C16F17491   1.761   0.775   3.853  0.8558 -0.0089  0.0173
  156OSM   H16F17492   1.813   0.678   3.860  0.1028 -0.5573 -1.4346
  156OSM   H16G17493   1.747   0.813   3.956  1.0267 -0.0473  0.0543
  156OSM   C17F17494   1.863   0.868   3.791  0.7190 -0.1817  0.2842
  156OSM   H17F17495   1.813   0.963   3.764 -0.5023 -1.0982 -0.7953
  156OSM   H17G17496   1.904   0.826   3.697 -1.6107  1.7964 -1.7311
  156OSM   C18F17497   1.972   0.892   3.891 -0.1722 -0.1367 -0.1832
  156OSM   H18F17498   1.929   0.915   3.991  0.4788  1.2955 -0.2143
  156OSM   H18G17499   2.032   0.980   3.862 -1.5196  0.9138  0.1465
  156OSM   H18H17500   2.030   0.797   3.891  2.4438  1.3690  0.1553
  157OSM      N17501   1.151   0.923   1.883 -0.2925  0.4527  0.1677
  157OSM    C1517502   1.227   0.974   1.994  0.4557  0.4084 -0.9985
  157OSM   H15A17503   1.328   0.988   1.959  0.5103  1.2135 -0.5404
  157OSM   H15B17504   1.215   0.911   2.080  0.9296  0.7903 -0.6509
  157OSM   H15C17505   1.193   1.075   2.012  1.8274  0.9551 -1.3691
  157OSM    C1417506   1.162   1.009   1.762  0.1612  0.3198  0.5494
  157OSM   H14A17507   1.082   0.987   1.694  1.3641 -0.7454 -0.5618
  157OSM   H14B17508   1.257   0.992   1.714 -0.2494  0.5016 -0.3395
  157OSM   H14C17509   1.159   1.116   1.779  1.2144  0.8599 -2.1399
  157OSM    C1317510   1.207   0.787   1.860  0.1547 -0.6508 -0.2042
  157OSM   H13A17511   1.199   0.754   1.757 -1.8086 -0.4344 -0.1544
  157OSM   H13B17512   1.161   0.718   1.930  3.0939 -2.1159  0.4903
  157OSM   H13C17513   1.313   0.791   1.879  0.0624 -1.0971  0.4644
  157OSM    C1217514   1.001   0.915   1.920  0.1219 -0.4589 -0.2099
  157OSM   H12A17515   0.976   1.008   1.968 -0.4482 -0.8215  0.2001
  157OSM   H12B17516   0.989   0.840   1.996  2.5391  0.8296  1.5861
  157OSM    C1117517   0.892   0.895   1.811 -0.4289  0.7844  0.1008
  157OSM   H11A17518   0.796   0.870   1.862  0.7865 -0.9266  1.7024
  157OSM   H11B17519   0.920   0.808   1.748  1.0192  0.6823  0.8403
  157OSM      P17520   0.779   1.128   1.780 -0.1720 -0.0240 -0.3972
  157OSM    O1317521   0.842   1.262   1.763  0.5430 -0.3172  0.2580
  157OSM    O1417522   0.642   1.116   1.722  0.3640  0.3515 -0.0749
  157OSM    O1117523   0.781   1.094   1.936  0.3168  0.2711 -0.4922
  157OSM    O1217524   0.883   1.010   1.728  0.5588  0.2861 -0.0717
  157OSM    C1S17525   0.723   1.194   2.031  0.8031  1.0530  0.3007
  157OSM    H1S17526   0.614   1.179   2.044  0.4909  2.2856 -0.6004
  157OSM    H1T17527   0.733   1.301   2.000  1.1692  2.4301  4.5270
  157OSM     NF17528   0.714   1.253   2.271 -0.0713 -0.4769 -0.7365
  157OSM    HNF17529   0.748   1.339   2.309  0.1276 -0.0963 -1.7582
  157OSM    C2S17530   0.800   1.195   2.163  0.3116  0.0994  0.3709
  157OSM    H2S17531   0.812   1.089   2.193  0.6780  0.2850  0.8888
  157OSM    C3S17532   0.945   1.248   2.152  0.2562  0.7145  0.1539
  157OSM    H3S17533   0.929   1.357   2.133  1.3011  0.3136 -3.7846
  157OSM     O317534   1.011   1.205   2.029 -0.2360  0.1648 -0.3809
  157OSM    HO317535   0.938   1.186   1.970  0.2705 -0.0240 -0.9607
  157OSM    C4S17536   1.022   1.232   2.283 -1.2123 -0.6107 -0.2760
  157OSM    H4S17537   1.036   1.130   2.322  0.9897  0.2272  1.3498
  157OSM    C5S17538   1.095   1.325   2.345  0.8549  0.3988  0.5189
  157OSM    H5S17539   1.104   1.427   2.305  2.2648 -0.2525 -0.9565
  157OSM    C6S17540   1.180   1.292   2.472  0.2954 -0.7307  0.5804
  157OSM    H6S17541   1.288   1.280   2.450  0.6731  0.0844  1.8942
  157OSM    H6T17542   1.145   1.200   2.525  1.4667 -1.5448 -0.0173
  157OSM    C7S17543   1.166   1.413   2.574 -0.0758  0.1639 -0.1741
  157OSM    H7S17544   1.117   1.501   2.526  0.9487  0.7292 -0.2277
  157OSM    H7T17545   1.267   1.453   2.600  0.3429 -0.6726 -0.4943
  157OSM    C8S17546   1.086   1.379   2.703  0.3825 -0.4530  0.0623
  157OSM    H8S17547   1.136   1.298   2.760  1.7108 -0.7904 -1.5251
  157OSM    H8T17548   0.982   1.353   2.673  0.0461  0.2620  0.5891
  157OSM    C9S17549   1.081   1.495   2.808 -0.0841 -0.6558  0.1529
  157OSM    H9S17550   1.054   1.584   2.748 -0.4641  1.0352  2.6923
  157OSM    H9T17551   1.183   1.512   2.849 -0.0550  0.3538 -0.3116
  157OSM   C10S17552   0.991   1.468   2.930 -0.1642 -0.4041  0.1339
  157OSM   H10S17553   1.039   1.386   2.988  0.3543  0.0806  0.4034
  157OSM   H10T17554   0.887   1.436   2.909 -0.2562 -1.1048  1.5235
  157OSM   C11S17555   0.983   1.598   3.020  0.1290  0.0248  0.5318
  157OSM   H11S17556   0.948   1.678   2.951 -0.1761  0.4239  1.1476
  157OSM   H11T17557   1.091   1.605   3.047  1.0047  1.5412 -2.8386
  157OSM   C12S17558   0.877   1.589   3.134 -0.5596 -1.1702  0.4774
  157OSM   H12S17559   0.782   1.570   3.081 -0.3083  0.8424 -0.8001
  157OSM   H12T17560   0.860   1.688   3.182 -1.3605 -1.5694  1.0368
  157OSM   C13S17561   0.903   1.485   3.239  0.0145 -0.3245  0.7987
  157OSM   H13S17562   0.997   1.514   3.291  0.9836 -0.8936 -0.5770
  157OSM   H13T17563   0.925   1.390   3.186 -0.3583  0.0586 -0.0602
  157OSM   C14S17564   0.792   1.477   3.350 -0.3978 -0.7527  0.8574
  157OSM   H14S17565   0.706   1.419   3.309  1.1773 -1.8692 -1.0246
  157OSM   H14T17566   0.757   1.580   3.372 -1.1435 -0.8601  0.1897
  157OSM   C15S17567   0.840   1.403   3.481 -0.2162  0.1098 -0.0754
  157OSM   H15S17568   0.904   1.321   3.442 -0.1783 -1.5728  3.1410
  157OSM   H15T17569   0.751   1.371   3.540 -1.1638  4.4342  1.1788
  157OSM   C16S17570   0.938   1.498   3.555 -0.3684  0.2120 -0.2141
  157OSM   H16S17571   0.887   1.595   3.571 -0.6529 -0.0763  0.6807
  157OSM   H16T17572   1.036   1.509   3.503  0.2199  2.5498  1.2356
  157OSM   C17S17573   0.970   1.433   3.691 -0.1333  0.0479  1.0788
  157OSM   H17S17574   1.068   1.477   3.721 -0.8698  1.6108  1.2878
  157OSM   H17T17575   0.981   1.324   3.674  0.3745  0.4237 -1.3038
  157OSM   C18S17576   0.874   1.459   3.801  0.2474 -0.2200 -0.0870
  157OSM   H18S17577   0.861   1.570   3.799 -1.5938 -0.4084  0.1927
  157OSM   H18T17578   0.911   1.434   3.903  0.7952  1.0976  0.0644
  157OSM   H18U17579   0.770   1.423   3.794 -0.0372  0.3097  1.1429
  157OSM    C1F17580   0.602   1.202   2.315 -0.3744  0.3287 -0.2431
  157OSM     OF17581   0.552   1.096   2.278 -0.6789  0.0176 -0.1387
  157OSM    C2F17582   0.532   1.283   2.425  0.4370  0.3372  0.3431
  157OSM    H2F17583   0.423   1.262   2.426  0.2464  1.2671  1.3212
  157OSM    H2G17584   0.551   1.389   2.399  3.2996  0.1420  1.3562
  157OSM    C3F17585   0.588   1.241   2.566  0.4466  0.7082  0.1593
  157OSM    H3F17586   0.697   1.252   2.580  0.6973 -1.5205  0.3216
  157OSM    H3G17587   0.562   1.133   2.573  3.3530 -0.2105 -1.4245
  157OSM    C4F17588   0.523   1.316   2.688  0.5737  0.1985 -0.0736
  157OSM    H4F17589   0.414   1.313   2.668  0.6214 -0.1110 -0.3007
  157OSM    H4G17590   0.562   1.420   2.690  1.9250 -0.2848  1.4350
  157OSM    C5F17591   0.548   1.237   2.821 -0.4608 -0.7783  0.2123
  157OSM    H5F17592   0.653   1.260   2.848 -0.8859  0.5733  0.8214
  157OSM    H5G17593   0.529   1.129   2.807 -0.4475 -0.9339  1.2901
  157OSM    C6F17594   0.470   1.304   2.940 -0.8060  0.2606  0.1697
  157OSM    H6F17595   0.360   1.291   2.934 -1.1974  2.8290  0.6454
  157OSM    H6G17596   0.496   1.412   2.941  0.6703 -0.0684  1.7829
  157OSM    C7F17597   0.516   1.244   3.070 -0.5536  0.0776  0.1064
  157OSM    H7F17598   0.626   1.253   3.083 -0.7367  1.9213  0.7603
  157OSM    H7G17599   0.482   1.139   3.073 -0.3266  0.0250  1.4253
  157OSM    C8F17600   0.460   1.319   3.202  0.2843  0.2319  0.4407
  157OSM    H8F17601   0.351   1.319   3.180  0.4900 -0.0481 -0.6378
  157OSM    H8G17602   0.493   1.424   3.192 -0.8587  0.5276 -0.3958
  157OSM    C9F17603   0.491   1.248   3.331 -0.3500  0.1746 -0.3203
  157OSM    H9F17604   0.581   1.186   3.318 -1.2407 -1.2958  0.2321
  157OSM   C10F17605   0.425   1.265   3.450 -0.6537  0.4115 -0.2818
  157OSM   H10F17606   0.465   1.204   3.532  0.3990  0.6610 -0.5951
  157OSM   C11F17607   0.304   1.351   3.478 -0.3452  1.0650  0.1594
  157OSM   H11F17608   0.217   1.284   3.493  0.7457 -0.8375 -1.4295
  157OSM   H11G17609   0.297   1.427   3.397  3.0944  1.5516  0.1582
  157OSM   C12F17610   0.328   1.431   3.608  0.1851 -0.3576  0.9225
  157OSM   H12F17611   0.424   1.486   3.606 -1.4116  2.6641 -1.9390
  157OSM   H12G17612   0.334   1.361   3.694 -1.2988  0.4825  1.7453
  157OSM   C13F17613   0.222   1.541   3.632 -0.3778 -0.5285 -0.0464
  157OSM   H13F17614   0.219   1.598   3.536  2.6206 -0.8205 -0.3978
  157OSM   H13G17615   0.267   1.601   3.713  1.4253  0.5362 -1.7462
  157OSM   C14F17616   0.087   1.481   3.659 -0.6875 -0.6984 -0.8412
  157OSM   H14F17617   0.084   1.439   3.761  2.0021  0.0402 -0.3672
  157OSM   H14G17618   0.067   1.402   3.584  0.9013 -0.1408 -1.9093
  157OSM   C15F17619  -0.033   1.582   3.630  1.1358  0.3773 -0.5495
  157OSM   H15F17620  -0.029   1.625   3.528 -2.3854 -0.6388 -1.2518
  157OSM   H15G17621  -0.011   1.666   3.699  0.7639 -1.5871  2.1622
  157OSM   C16F17622  -0.166   1.520   3.648 -0.3406  0.3643 -0.3154
  157OSM   H16F17623  -0.191   1.493   3.753 -0.7322 -0.4501 -0.6096
  157OSM   H16G17624  -0.151   1.423   3.595  4.1324  0.4689  0.4046
  157OSM   C17F17625  -0.282   1.609   3.590 -1.1800 -0.0303  1.0866
  157OSM   H17F17626  -0.254   1.645   3.489 -2.9439 -3.1290 -0.6620
  157OSM   H17G17627  -0.275   1.700   3.654  0.7371  0.0691  0.7943
  157OSM   C18F17628  -0.422   1.550   3.579  0.0650  0.3970 -0.5519
  157OSM   H18F17629  -0.481   1.638   3.545  0.6960  0.9882 -0.1366
  157OSM   H18G17630  -0.460   1.533   3.682  0.1934 -0.3584 -0.6226
  157OSM   H18H17631  -0.428   1.453   3.524  0.9734 -0.9282  1.5758
  158OSM      N17632   4.369   0.431   1.777  0.0616  0.7377 -0.0241
  158OSM    C1517633   4.493   0.510   1.750  0.1039  0.4751 -0.5118
  158OSM   H15A17634   4.515   0.517   1.644 -2.0403  1.7058 -0.9305
  158OSM   H15B17635   4.574   0.460   1.802  0.4110  0.1031 -1.3243
  158OSM   H15C17636   4.495   0.602   1.807  2.8518 -1.3999  2.8106
  158OSM    C1417637   4.236   0.507   1.751 -0.6376  0.2369 -0.2931
  158OSM   H14A17638   4.203   0.565   1.837  2.3108  0.5776  0.7405
  158OSM   H14B17639   4.159   0.435   1.728  0.1481 -0.1358 -1.8681
  158OSM   H14C17640   4.251   0.565   1.661  1.5810 -1.7836 -1.3118
  158OSM    C1317641   4.378   0.313   1.689 -0.0341 -0.3870  0.2458
  158OSM   H13A17642   4.293   0.250   1.705  0.8996 -1.8737 -0.4155
  158OSM   H13B17643   4.466   0.252   1.703 -0.7074 -1.3819  0.1914
  158OSM   H13C17644   4.367   0.339   1.585 -1.0020  1.4126  0.7531
  158OSM    C1217645   4.367   0.398   1.930 -0.0350  0.7146 -0.3826
  158OSM   H12A17646   4.272   0.350   1.944  1.0017 -2.2449 -2.3823
  158OSM   H12B17647   4.362   0.488   1.989  0.2890  0.6593 -0.2637
  158OSM    C1117648   4.477   0.307   1.977 -0.5635  0.0473  0.2708
  158OSM   H11A17649   4.473   0.215   1.915 -0.7128  0.6965 -0.7164
  158OSM   H11B17650   4.464   0.272   2.081  2.0717  0.5970  0.8709
  158OSM      P17651   4.680   0.450   2.083 -0.1637 -0.1936  0.2090
  158OSM    O1317652   4.822   0.440   2.047  0.0816 -0.5200  0.1294
  158OSM    O1417653   4.623   0.585   2.094  0.5759  0.5381 -0.2384
  158OSM    O1117654   4.665   0.370   2.212  0.3279  0.2780 -0.4899
  158OSM    O1217655   4.601   0.376   1.970 -0.2570  1.1488  0.0829
  158OSM    C1S17656   4.689   0.428   2.338  0.0253 -0.9277  0.0126
  158OSM    H1S17657   4.624   0.517   2.349 -2.8624 -2.9614  0.5686
  158OSM    H1T17658   4.795   0.459   2.347 -0.8305  1.6139  2.6508
  158OSM     NF17659   4.666   0.410   2.581 -0.1479  0.7349  0.7845
  158OSM    HNF17660   4.757   0.398   2.621 -0.6168 -3.1835  1.0390
  158OSM    C2S17661   4.651   0.334   2.460  0.7938  0.1775 -0.5812
  158OSM    H2S17662   4.545   0.301   2.450  0.7458 -0.0249  0.4918
  158OSM    C3S17663   4.733   0.213   2.454 -0.3915 -0.0942 -0.5636
  158OSM    H3S17664   4.841   0.237   2.451 -0.2726 -0.4870  0.4040
  158OSM     O317665   4.713   0.142   2.336 -0.0729  0.4988 -0.3142
  158OSM    HO317666   4.663   0.209   2.288 -0.0706  0.3348 -0.5447
  158OSM    C4S17667   4.706   0.121   2.579 -0.1782 -0.0250 -0.5656
  158OSM    H4S17668   4.608   0.131   2.629 -0.4336  0.5129 -1.1735
  158OSM    C5S17669   4.802   0.066   2.658  0.1753 -0.0982  0.0628
  158OSM    H5S17670   4.906   0.069   2.623 -0.6507 -0.8863 -2.7754
  158OSM    C6S17671   4.772  -0.010   2.785 -0.0573  0.8198 -0.1629
  158OSM    H6S17672   4.832   0.036   2.867  0.4976  0.2991 -0.2664
  158OSM    H6T17673   4.816  -0.112   2.776 -1.2431  0.1545  1.1912
  158OSM    C7S17674   4.635  -0.010   2.851  0.0867  0.6358  0.6309
  158OSM    H7S17675   4.567  -0.076   2.794 -2.7088  2.2987  1.8462
  158OSM    H7T17676   4.589   0.089   2.870 -2.9131 -0.9988  2.5658
  158OSM    C8S17677   4.640  -0.065   2.994  0.1473  0.7785 -0.2188
  158OSM    H8S17678   4.713  -0.148   2.986  1.2909  1.8544 -1.7418
  158OSM    H8T17679   4.541  -0.112   3.010  0.6193  0.3028  1.5164
  158OSM    C9S17680   4.671   0.039   3.101 -0.0594  1.0860 -0.8376
  158OSM    H9S17681   4.626   0.138   3.079  1.2686  2.1871  1.1076
  158OSM    H9T17682   4.781   0.053   3.106  0.0823 -0.0101  3.0748
  158OSM   C10S17683   4.636  -0.017   3.246 -0.7999 -0.6349 -0.4002
  158OSM   H10S17684   4.686  -0.116   3.255 -0.1256 -0.1869  1.1491
  158OSM   H10T17685   4.528  -0.040   3.246 -0.4716 -2.3044 -0.1938
  158OSM   C11S17686   4.694   0.076   3.359 -0.6895  0.3896 -0.0950
  158OSM   H11S17687   4.630   0.167   3.361 -2.4523 -0.7883  2.3765
  158OSM   H11T17688   4.798   0.100   3.327 -1.0634  1.3453 -0.6562
  158OSM   C12S17689   4.688   0.015   3.491  0.0542 -0.5625 -0.5833
  158OSM   H12S17690   4.754  -0.073   3.507  1.5466  1.0914  4.0965
  158OSM   H12T17691   4.586  -0.010   3.526  0.8068 -1.9691  0.7269
  158OSM   C13S17692   4.745   0.115   3.601 -0.0267 -0.2560  0.2401
  158OSM   H13S17693   4.687   0.209   3.612  0.7949  0.4628 -1.2384
  158OSM   H13T17694   4.843   0.155   3.568 -1.4690  2.3067 -1.3632
  158OSM   C14S17695   4.767   0.048   3.735 -0.3621  0.1313  0.1923
  158OSM   H14S17696   4.837  -0.036   3.716  0.9702  0.6114  2.4862
  158OSM   H14T17697   4.669   0.012   3.773 -0.8488  2.5263  1.4168
  158OSM   C15S17698   4.813   0.147   3.838  0.2516  0.2885 -0.1088
  158OSM   H15S17699   4.726   0.208   3.871 -0.2380 -0.7922  0.6516
  158OSM   H15T17700   4.886   0.220   3.795 -1.6300  2.1520 -0.3039
  158OSM   C16S17701   4.861   0.087   3.968 -0.1754  0.3743  0.4366
  158OSM   H16S17702   4.956   0.035   3.943 -0.6577 -0.6921  0.7674
  158OSM   H16T17703   4.783   0.010   3.984  0.8074 -1.0467 -1.2280
  158OSM   C17S17704   4.868   0.183   4.090  0.2212 -0.0321  0.6021
  158OSM   H17S17705   4.763   0.216   4.103  0.5284  0.8579  0.9207
  158OSM   H17T17706   4.937   0.267   4.066 -1.6153  1.7981  1.4443
  158OSM   C18S17707   4.919   0.116   4.216  0.2858 -0.0480  0.0512
  158OSM   H18S17708   5.022   0.075   4.217  0.0024 -0.7421  0.7627
  158OSM   H18T17709   4.855   0.027   4.234 -0.3504 -0.1759 -2.3654
  158OSM   H18U17710   4.904   0.174   4.310  1.5495 -1.1205  0.9390
  158OSM    C1F17711   4.584   0.496   2.631  0.1990  1.1057 -0.1677
  158OSM     OF17712   4.486   0.528   2.567  0.1606 -0.1670  0.4517
  158OSM    C2F17713   4.612   0.552   2.766  0.1716  0.6359  0.4297
  158OSM    H2F17714   4.597   0.661   2.774  1.1023  0.6918  1.7172
  158OSM    H2G17715   4.718   0.538   2.797  0.4126  1.7452  0.1261
  158OSM    C3F17716   4.525   0.481   2.875 -0.7675 -0.1727 -0.3583
  158OSM    H3F17717   4.538   0.372   2.890 -3.8139 -0.4063  1.3919
  158OSM    H3G17718   4.416   0.483   2.856 -0.8547  0.9950  0.1322
  158OSM    C4F17719   4.550   0.559   3.012  0.7046 -0.0548 -1.2296
  158OSM    H4F17720   4.488   0.651   3.010 -1.1365 -1.2362 -0.5367
  158OSM    H4G17721   4.658   0.576   3.031  0.4751 -0.4415  0.5593
  158OSM    C5F17722   4.524   0.471   3.129  0.1648 -0.8159 -0.0363
  158OSM    H5F17723   4.582   0.376   3.137  2.2220  0.3494 -0.5615
  158OSM    H5G17724   4.416   0.445   3.128  0.6005 -3.0247  1.5321
  158OSM    C6F17725   4.538   0.547   3.260  0.3666 -0.0209 -0.5352
  158OSM    H6F17726   4.480   0.641   3.254 -0.6663 -0.7178 -2.1148
  158OSM    H6G17727   4.648   0.560   3.269  0.1648  1.0120  0.7150
  158OSM    C7F17728   4.475   0.469   3.383 -0.2939 -0.2845  0.4869
  158OSM    H7F17729   4.519   0.367   3.390 -0.8942 -0.5922 -0.1737
  158OSM    H7G17730   4.366   0.462   3.365 -0.8929  2.4780  2.4523
  158OSM    C8F17731   4.508   0.546   3.512  0.1722 -0.2918 -0.2519
  158OSM    H8F17732   4.506   0.655   3.494 -0.2949 -0.2667 -0.0546
  158OSM    H8G17733   4.611   0.524   3.547  0.0464 -0.2366  0.1547
  158OSM    C9F17734   4.403   0.512   3.610  0.7076 -0.0922 -0.7047
  158OSM    H9F17735   4.299   0.541   3.589  1.1246  0.6741 -1.7854
  158OSM   C10F17736   4.424   0.454   3.728 -0.6023  0.6019 -0.2293
  158OSM   H10F17737   4.342   0.427   3.795 -0.9780  1.1959 -0.4479
  158OSM   C11F17738   4.559   0.408   3.785 -0.4922  0.5309  0.3123
  158OSM   H11F17739   4.648   0.441   3.727 -0.6953  1.6317  0.6036
  158OSM   H11G17740   4.573   0.298   3.782  0.7066  0.6734 -1.1101
  158OSM   C12F17741   4.589   0.463   3.919 -0.3671  0.8214 -0.4450
  158OSM   H12F17742   4.578   0.574   3.926 -2.4708  0.6019  0.0948
  158OSM   H12G17743   4.698   0.442   3.930 -0.4553  0.0549 -1.0375
  158OSM   C13F17744   4.500   0.413   4.034  0.3409  0.6501  0.7843
  158OSM   H13F17745   4.516   0.303   4.031  0.8887  0.5985 -4.7822
  158OSM   H13G17746   4.395   0.440   4.011 -0.7454 -2.2380  1.7990
  158OSM   C14F17747   4.520   0.468   4.168 -0.0072 -0.4450  0.3507
  158OSM   H14F17748   4.443   0.425   4.236  0.0855  0.7324  1.2258
  158OSM   H14G17749   4.510   0.577   4.187 -2.4646 -0.8934  2.1449
  158OSM   C15F17750   4.662   0.428   4.217  0.4168 -0.1489 -0.6877
  158OSM   H15F17751   4.735   0.439   4.134  0.0650  1.1226 -0.8511
  158OSM   H15G17752   4.656   0.320   4.241  3.4852 -0.4858 -1.0769
  158OSM   C16F17753   4.700   0.500   4.355 -0.7934 -0.0381  0.2421
  158OSM   H16F17754   4.795   0.452   4.388 -0.2505  0.3670 -0.6732
  158OSM   H16G17755   4.628   0.505   4.439 -1.1403 -1.2464  0.0310
  158OSM   C17F17756   4.746   0.644   4.334  0.5393 -0.5510  0.3398
  158OSM   H17F17757   4.667   0.708   4.290  0.9632  0.8113  1.4875
  158OSM   H17G17758   4.832   0.641   4.265 -1.4061 -1.5753 -2.1952
  158OSM   C18F17759   4.789   0.702   4.470 -0.3639  0.1522 -0.5377
  158OSM   H18F17760   4.704   0.697   4.541  0.2774 -0.9898  0.1705
  158OSM   H18G17761   4.824   0.808   4.464  0.0217  0.2942  2.3784
  158OSM   H18H17762   4.866   0.636   4.515 -0.8303 -0.2442 -0.3210
  159OSM      N17763   1.766   1.779   2.236  0.4897  0.2402 -0.4569
  159OSM    C1517764   1.787   1.847   2.107 -0.3938 -0.0106  0.1597
  159OSM   H15A17765   1.814   1.951   2.113  1.5564 -0.4889  0.4497
  159OSM   H15B17766   1.701   1.839   2.043 -1.1060  2.7008  0.6483
  159OSM   H15C17767   1.869   1.803   2.051 -1.3303  0.2704 -1.4967
  159OSM    C1417768   1.692   1.649   2.219 -0.2992 -0.0937  0.4215
  159OSM   H14A17769   1.662   1.614   2.317 -2.1118  0.6227  0.1660
  159OSM   H14B17770   1.751   1.569   2.177 -0.6186 -0.4132  0.5808
  159OSM   H14C17771   1.599   1.661   2.165 -1.0154  0.5276  1.7384
  159OSM    C1317772   1.900   1.749   2.297 -0.4552  0.5244  0.0982
  159OSM   H13A17773   1.965   1.702   2.225 -0.2570  1.3339 -0.2692
  159OSM   H13B17774   1.886   1.700   2.392  1.1074  1.8597  1.0757
  159OSM   H13C17775   1.934   1.847   2.328  1.0451  0.3038 -0.7497
  159OSM    C1217776   1.692   1.863   2.331  0.1155  0.0609  0.2281
  159OSM   H12A17777   1.754   1.944   2.364 -1.1564  1.1706  0.0131
  159OSM   H12B17778   1.674   1.797   2.414 -0.6406 -0.0593 -0.0147
  159OSM    C1117779   1.567   1.935   2.291  0.4962  0.2206 -1.8067
  159OSM   H11A17780   1.587   2.006   2.208 -0.1807  1.2091 -1.1458
  159OSM   H11B17781   1.548   2.000   2.379 -0.3841 -0.2536 -1.6265
  159OSM      P17782   1.351   1.874   2.153  0.2055  0.0206 -0.0273
  159OSM    O1317783   1.428   1.882   2.024 -0.7010 -0.3674 -0.4642
  159OSM    O1417784   1.248   1.766   2.161  0.1224 -0.2820 -0.1003
  159OSM    O1117785   1.287   2.015   2.178  0.8928  0.4655  0.1557
  159OSM    O1217786   1.451   1.856   2.271 -0.1830  0.5374  0.0516
  159OSM    C1S17787   1.176   2.035   2.273 -0.0252 -0.0065 -0.1399
  159OSM    H1S17788   1.133   1.941   2.313 -0.8346  0.1859 -0.5412
  159OSM    H1T17789   1.096   2.094   2.224 -1.5213  0.3315  2.4692
  159OSM     NF17790   1.105   2.154   2.484  0.6962 -0.6298 -0.4674
  159OSM    HNF17791   1.079   2.247   2.508  0.1905 -0.3355 -2.0187
  159OSM    C2S17792   1.212   2.132   2.388  0.0169  0.0615  0.3259
  159OSM    H2S17793   1.288   2.077   2.448 -0.4164 -1.2490 -0.3055
  159OSM    C3S17794   1.276   2.267   2.347 -0.7133  0.1156 -0.1532
  159OSM    H3S17795   1.193   2.330   2.310 -1.1536  0.0716  0.7603
  159OSM     O317796   1.367   2.260   2.238 -0.4955 -0.9457  0.6103
  159OSM    HO317797   1.357   2.174   2.198 -0.6039 -0.2852 -0.8438
  159OSM    C4S17798   1.334   2.320   2.483  0.0005 -0.7196  0.5778
  159OSM    H4S17799   1.256   2.339   2.559  0.0136 -0.1710  0.4603
  159OSM    C5S17800   1.464   2.309   2.517 -0.1437  0.2987 -0.1160
  159OSM    H5S17801   1.536   2.259   2.451  0.7697  2.1944 -0.6139
  159OSM    C6S17802   1.511   2.328   2.656 -0.0952  0.5645  0.3479
  159OSM    H6S17803   1.577   2.418   2.658 -0.4046  0.9000 -2.0157
  159OSM    H6T17804   1.590   2.257   2.689 -0.7394 -0.7013 -0.7926
  159OSM    C7S17805   1.401   2.343   2.767 -0.3896 -0.1150  0.4344
  159OSM    H7S17806   1.340   2.252   2.751 -0.8734  0.2876 -0.0292
  159OSM    H7T17807   1.335   2.430   2.748 -1.0702 -1.0246 -1.6224
  159OSM    C8S17808   1.441   2.333   2.910 -0.2402  0.9113  0.9567
  159OSM    H8S17809   1.496   2.429   2.921  0.5165  0.9086 -1.9987
  159OSM    H8T17810   1.509   2.246   2.923  0.8484  1.5696 -0.0898
  159OSM    C9S17811   1.315   2.329   2.999 -0.2408  0.0097  0.1688
  159OSM    H9S17812   1.250   2.241   2.978 -0.3520  0.4442 -1.4156
  159OSM    H9T17813   1.260   2.418   2.961 -0.1230 -0.1825 -0.4602
  159OSM   C10S17814   1.346   2.344   3.145 -0.1316  0.7246 -0.8291
  159OSM   H10S17815   1.396   2.436   3.181 -0.4354  0.9522 -0.9787
  159OSM   H10T17816   1.405   2.255   3.178  0.2474  0.8352 -1.2084
  159OSM   C11S17817   1.211   2.352   3.223  0.1122  0.5435 -0.1001
  159OSM   H11S17818   1.144   2.268   3.193 -0.7995  0.3730  2.2325
  159OSM   H11T17819   1.160   2.447   3.194  0.8681  1.3265  1.0487
  159OSM   C12S17820   1.217   2.351   3.384 -0.2096 -0.6921 -0.2923
  159OSM   H12S17821   1.296   2.278   3.410  2.4073  2.2541  0.5327
  159OSM   H12T17822   1.128   2.308   3.436 -0.8231  1.4766  0.5643
  159OSM   C13S17823   1.256   2.491   3.435  0.2578  0.7446 -0.3875
  159OSM   H13S17824   1.201   2.574   3.386 -2.1819 -1.6237 -1.9722
  159OSM   H13T17825   1.359   2.507   3.398 -0.3957  2.6371 -1.5488
  159OSM   C14S17826   1.252   2.494   3.597  0.1242  0.1990 -0.2614
  159OSM   H14S17827   1.301   2.401   3.632  0.3742  0.1559 -0.7183
  159OSM   H14T17828   1.146   2.491   3.632  0.4913  3.3538  1.5254
  159OSM   C15S17829   1.309   2.621   3.651  0.0635 -0.7606  0.6563
  159OSM   H15S17830   1.235   2.698   3.620  0.2065 -0.9813 -0.2769
  159OSM   H15T17831   1.410   2.640   3.609 -0.3733  0.8983  0.3094
  159OSM   C16S17832   1.343   2.616   3.807 -0.1191  0.0260 -0.2257
  159OSM   H16S17833   1.424   2.542   3.818 -1.2191 -1.0668  0.8385
  159OSM   H16T17834   1.254   2.569   3.855 -0.2419 -0.5389 -0.9943
  159OSM   C17S17835   1.390   2.741   3.882  0.3415 -0.9775  0.8478
  159OSM   H17S17836   1.296   2.797   3.901 -0.9640 -2.1853 -1.5763
  159OSM   H17T17837   1.455   2.799   3.813 -0.8775 -1.3716 -0.7194
  159OSM   C18S17838   1.465   2.708   4.011  0.3119  0.8100  0.4205
  159OSM   H18S17839   1.395   2.644   4.070 -0.6331  0.3010 -1.1724
  159OSM   H18T17840   1.487   2.794   4.077  0.8187 -1.1382  2.9442
  159OSM   H18U17841   1.560   2.652   4.001  0.1559  0.7100 -0.6379
  159OSM    C1F17842   1.042   2.057   2.553 -0.1180 -0.2868 -0.0121
  159OSM     OF17843   1.057   1.936   2.529 -0.3572  0.3852  0.3808
  159OSM    C2F17844   0.973   2.108   2.672 -0.6979 -0.2017 -0.0792
  159OSM    H2F17845   0.862   2.116   2.668 -0.8373 -0.9400  1.4606
  159OSM    H2G17846   1.005   2.213   2.689  0.3845 -0.3195 -1.2643
  159OSM    C3F17847   1.015   2.022   2.799  0.1892 -0.6859  0.1228
  159OSM    H3F17848   1.126   2.024   2.812  0.2261 -0.8672 -0.1507
  159OSM    H3G17849   0.990   1.915   2.785 -0.0014 -0.5874 -0.3171
  159OSM    C4F17850   0.966   2.080   2.933 -0.3072 -0.2016 -0.2406
  159OSM    H4F17851   0.855   2.081   2.929 -0.3337 -0.9062  0.1535
  159OSM    H4G17852   0.995   2.186   2.949 -0.5378 -0.3495  1.2889
  159OSM    C5F17853   1.007   2.000   3.052  0.2346 -0.1722 -0.1129
  159OSM    H5F17854   1.106   2.040   3.082  0.3503  0.5765 -1.4071
  159OSM    H5G17855   1.028   1.895   3.026 -1.0364 -0.8709  1.5135
  159OSM    C6F17856   0.913   2.030   3.168  0.4970  1.2735  0.7661
  159OSM    H6F17857   0.809   2.003   3.142  0.1191  2.5684  0.8613
  159OSM    H6G17858   0.917   2.140   3.182  3.2666  1.2261  1.0062
  159OSM    C7F17859   0.941   1.973   3.307  0.2305  0.2974 -0.4208
  159OSM    H7F17860   1.034   2.018   3.348 -0.4907  0.8022  0.7186
  159OSM    H7G17861   0.953   1.863   3.293  0.8600  0.5929 -2.5681
  159OSM    C8F17862   0.829   2.001   3.413 -0.3028  0.1839 -0.2477
  159OSM    H8F17863   0.743   1.945   3.372 -1.1057  0.6989  0.7119
  159OSM    H8G17864   0.799   2.107   3.426 -1.0183  0.1347 -1.4243
  159OSM    C9F17865   0.871   1.931   3.540 -0.4640 -0.1887 -0.9700
  159OSM    H9F17866   0.832   1.828   3.550 -1.2575  0.0676 -1.3239
  159OSM   C10F17867   0.913   1.990   3.650  0.0049 -0.7103 -0.2800
  159OSM   H10F17868   0.932   1.940   3.746  2.1634 -0.1819 -0.3788
  159OSM   C11F17869   0.938   2.139   3.665  1.2575 -0.1599 -0.0719
  159OSM   H11F17870   0.902   2.179   3.568  0.8395 -0.6667 -0.1288
  159OSM   H11G17871   1.047   2.159   3.672  0.7773  2.5028  0.6416
  159OSM   C12F17872   0.858   2.203   3.784 -0.3441  0.6661 -0.4238
  159OSM   H12F17873   0.752   2.168   3.790 -0.6207  1.6829  1.2869
  159OSM   H12G17874   0.850   2.313   3.773 -2.8531  0.5327 -0.5296
  159OSM   C13F17875   0.939   2.199   3.921 -0.3718 -0.1779 -0.4345
  159OSM   H13F17876   1.044   2.237   3.921 -0.2646 -0.3493  1.8176
  159OSM   H13G17877   0.941   2.089   3.937 -2.9273 -0.1727  0.3508
  159OSM   C14F17878   0.856   2.251   4.041  0.4337 -0.9478  0.1977
  159OSM   H14F17879   0.752   2.220   4.017  0.2300  0.1322 -0.3418
  159OSM   H14G17880   0.847   2.361   4.048  0.7740 -0.8965 -0.1365
  159OSM   C15F17881   0.883   2.171   4.175  0.2973 -0.1750  0.5818
  159OSM   H15F17882   0.990   2.176   4.202  0.4332 -0.3418  0.0853
  159OSM   H15G17883   0.851   2.070   4.142  0.9274  0.0554 -0.7779
  159OSM   C16F17884   0.797   2.213   4.290  0.3618  0.0767  0.5152
  159OSM   H16F17885   0.799   2.151   4.382  1.4716  0.9125  1.0697
  159OSM   H16G17886   0.691   2.219   4.257  0.5853 -1.8870 -0.7037
  159OSM   C17F17887   0.827   2.355   4.328 -0.2115 -0.0400  0.3096
  159OSM   H17F17888   0.800   2.423   4.245  0.2998 -0.6092 -0.3316
  159OSM   H17G17889   0.937   2.363   4.330 -0.0746 -0.5711 -2.2505
  159OSM   C18F17890   0.746   2.391   4.451  0.1773 -0.5114 -0.0333
  159OSM   H18F17891   0.771   2.496   4.476  0.6160 -0.4283 -0.7900
  159OSM   H18G17892   0.785   2.328   4.534 -1.0041  1.8292  2.4441
  159OSM   H18H17893   0.638   2.370   4.437  0.0908 -0.8924  1.0792
  160OSM      N17894   4.792   1.643   1.629  0.3816 -0.4197 -0.1768
  160OSM    C1517895   4.750   1.547   1.521  0.1105 -0.3905 -0.2328
  160OSM   H15A17896   4.798   1.455   1.552  1.8720  0.3025 -0.7670
  160OSM   H15B17897   4.786   1.567   1.421  2.7434 -0.7914  0.5583
  160OSM   H15C17898   4.650   1.510   1.535  0.9172 -2.2746  0.9551
  160OSM    C1417899   4.928   1.687   1.605  0.5438 -0.6156 -0.2197
  160OSM   H14A17900   4.924   1.735   1.509 -0.7784 -2.0632 -0.9204
  160OSM   H14B17901   4.997   1.604   1.608  2.5910  1.0280  1.5293
  160OSM   H14C17902   4.973   1.749   1.682 -1.9817  0.4729  0.4741
  160OSM    C1317903   4.702   1.764   1.620  0.2984  0.6125 -0.0183
  160OSM   H13A17904   4.704   1.812   1.524 -0.1487  1.4351  0.3757
  160OSM   H13B17905   4.727   1.828   1.703  0.5547  0.5576 -0.0519
  160OSM   H13C17906   4.596   1.741   1.627  0.2689 -0.0451 -2.0866
  160OSM    C1217907   4.780   1.586   1.775  1.3093 -0.5798 -0.2024
  160OSM   H12A17908   4.676   1.558   1.783  0.9873  0.7939  0.6249
  160OSM   H12B17909   4.783   1.664   1.849  0.4544  0.3902 -1.1485
  160OSM    C1117910   4.868   1.471   1.826  0.2579 -0.0885  0.3713
  160OSM   H11A17911   4.859   1.396   1.745  1.0063  0.0153  0.1871
  160OSM   H11B17912   4.838   1.424   1.922  1.4773 -1.3863  0.1570
  160OSM      P17913   5.061   1.615   1.935 -0.4431  0.0240  0.6526
  160OSM    O1317914   5.188   1.562   1.990  0.0517  0.7748 -0.1242
  160OSM    O1417915   5.073   1.743   1.860 -0.2039 -0.1610 -0.2705
  160OSM    O1117916   4.957   1.640   2.052 -0.3157  0.2748  0.5595
  160OSM    O1217917   5.004   1.505   1.836 -0.1398 -0.1726 -0.2124
  160OSM    C1S17918   4.993   1.731   2.161 -0.0903  0.1844 -0.3349
  160OSM    H1S17919   5.005   1.831   2.114  0.1518  0.8396  1.0679
  160OSM    H1T17920   5.083   1.694   2.215 -0.0630 -0.1312 -0.5927
  160OSM     NF17921   4.914   1.848   2.360 -0.1698 -0.4928 -0.6614
  160OSM    HNF17922   4.976   1.831   2.436 -0.8893  1.6481  0.5027
  160OSM    C2S17923   4.876   1.738   2.271  0.4261 -0.0403  0.1073
  160OSM    H2S17924   4.782   1.768   2.221 -0.0707 -0.6305  0.6682
  160OSM    C3S17925   4.837   1.614   2.338  1.0723  0.9613 -0.2309
  160OSM    H3S17926   4.924   1.564   2.386  0.4183 -0.8912 -0.8700
  160OSM     O317927   4.800   1.508   2.254  0.0928  0.5924  0.1052
  160OSM    HO317928   4.838   1.534   2.170  3.2076  2.1986  1.8528
  160OSM    C4S17929   4.730   1.629   2.450  0.6755 -0.1607  0.3200
  160OSM    H4S17930   4.783   1.631   2.546  0.9793 -1.4124  0.1952
  160OSM    C5S17931   4.598   1.632   2.431  0.0002 -0.0933 -0.5636
  160OSM    H5S17932   4.545   1.614   2.336 -4.6546  0.2982  1.6775
  160OSM    C6S17933   4.499   1.652   2.543  0.1755 -1.0386  0.2598
  160OSM    H6S17934   4.442   1.557   2.557 -1.0320 -0.4016 -0.2080
  160OSM    H6T17935   4.427   1.728   2.508  0.7294 -0.7140 -0.1934
  160OSM    C7S17936   4.568   1.674   2.682 -0.0679  0.4554 -0.4304
  160OSM    H7S17937   4.643   1.756   2.682 -0.5902  0.9353 -0.4362
  160OSM    H7T17938   4.611   1.577   2.714  1.9642  0.9828 -1.4310
  160OSM    C8S17939   4.462   1.696   2.789 -0.3832 -0.5760  0.2345
  160OSM    H8S17940   4.397   1.607   2.796 -0.2290 -0.6950  0.1395
  160OSM    H8T17941   4.402   1.784   2.758 -1.2678 -1.1389  0.3364
  160OSM    C9S17942   4.515   1.716   2.931  0.6087  0.4629 -0.3004
  160OSM    H9S17943   4.556   1.819   2.941 -0.3493  0.6582  2.3716
  160OSM    H9T17944   4.591   1.640   2.959 -0.0865 -0.1602 -0.0769
  160OSM   C10S17945   4.400   1.713   3.038 -0.5031 -0.5908  0.7142
  160OSM   H10S17946   4.359   1.609   3.039 -1.9672 -0.0470 -0.0539
  160OSM   H10T17947   4.322   1.782   3.001  0.7476  0.8119  0.5939
  160OSM   C11S17948   4.453   1.774   3.172 -0.2617 -0.9265 -0.4411
  160OSM   H11S17949   4.506   1.870   3.152 -0.8193 -0.3749  0.6578
  160OSM   H11T17950   4.534   1.713   3.217  0.2149 -0.3880 -0.5557
  160OSM   C12S17951   4.339   1.806   3.270  0.0169 -0.2865 -0.3232
  160OSM   H12S17952   4.277   1.718   3.298 -1.2521  0.6629 -0.0456
  160OSM   H12T17953   4.268   1.880   3.229 -0.3652 -0.9240 -0.8326
  160OSM   C13S17954   4.390   1.859   3.403 -0.6217 -0.2517 -0.5333
  160OSM   H13S17955   4.455   1.947   3.379 -0.4370 -0.8239 -2.2757
  160OSM   H13T17956   4.459   1.779   3.438  1.3126  2.8434  3.6415
  160OSM   C14S17957   4.284   1.896   3.509  0.3943  0.9568  0.3206
  160OSM   H14S17958   4.233   1.798   3.521  0.7230  0.7522  0.0593
  160OSM   H14T17959   4.210   1.961   3.459  0.1367  1.5034  1.3754
  160OSM   C15S17960   4.338   1.962   3.630  0.1185  0.0530  0.1428
  160OSM   H15S17961   4.406   2.045   3.601  1.5250 -1.4479 -1.1156
  160OSM   H15T17962   4.418   1.895   3.669 -2.1143 -3.1088 -0.3777
  160OSM   C16S17963   4.232   1.999   3.744 -0.8249 -0.3655  0.5174
  160OSM   H16S17964   4.184   1.904   3.774 -0.5082 -1.4438 -2.1237
  160OSM   H16T17965   4.160   2.075   3.705 -1.1350 -0.9805 -0.1333
  160OSM   C17S17966   4.310   2.062   3.859  0.3694 -0.7387  0.0758
  160OSM   H17S17967   4.402   2.111   3.821  1.2596 -1.3630  1.3558
  160OSM   H17T17968   4.344   1.978   3.922  1.0924 -1.0927 -0.7641
  160OSM   C18S17969   4.231   2.160   3.951 -0.3983 -0.0041  0.4648
  160OSM   H18S17970   4.189   2.237   3.884 -2.1827 -1.7765 -0.5411
  160OSM   H18T17971   4.292   2.205   4.033 -0.7041  0.1691  0.5972
  160OSM   H18U17972   4.151   2.095   3.994  1.6534 -2.2911  1.0936
  160OSM    C1F17973   4.910   1.971   2.312 -0.0597  0.1011 -0.2383
  160OSM     OF17974   4.832   2.006   2.226  0.1005 -0.3127 -0.0979
  160OSM    C2F17975   5.006   2.066   2.377 -0.1237  0.0619  0.1516
  160OSM    H2F17976   5.046   2.123   2.291 -0.6299  2.6093  1.5080
  160OSM    H2G17977   5.083   2.019   2.443  0.5617  0.1286 -0.5810
  160OSM    C3F17978   4.942   2.177   2.463  0.7565  0.2838 -0.4614
  160OSM    H3F17979   4.888   2.135   2.551 -0.2242  3.1128  0.4145
  160OSM    H3G17980   4.862   2.223   2.401  0.4761  0.2615 -0.1197
  160OSM    C4F17981   5.032   2.284   2.522  0.5446 -0.3687 -0.3967
  160OSM    H4F17982   5.083   2.337   2.438  0.2245  1.4551  0.5235
  160OSM    H4G17983   5.112   2.243   2.588  0.1629  1.5012  1.3038
  160OSM    C5F17984   4.965   2.392   2.608 -0.1144 -0.4845 -0.1230
  160OSM    H5F17985   4.884   2.450   2.558 -0.5348 -1.0172 -0.0664
  160OSM    H5G17986   5.045   2.460   2.643  0.0615 -0.5332 -0.4256
  160OSM    C6F17987   4.897   2.341   2.725 -0.0519 -0.6967  0.4257
  160OSM    H6F17988   4.959   2.288   2.801  0.1660  1.8277  2.1218
  160OSM    H6G17989   4.821   2.267   2.691 -0.5243 -0.5345  1.1157
  160OSM    C7F17990   4.811   2.447   2.791 -0.0514  0.1337 -0.3274
  160OSM    H7F17991   4.715   2.400   2.822 -0.1349 -0.5502 -1.5772
  160OSM    H7G17992   4.784   2.533   2.726 -1.5084  2.0462  2.5761
  160OSM    C8F17993   4.878   2.510   2.926  0.3352 -0.0917  0.7221
  160OSM    H8F17994   4.828   2.608   2.943 -0.0498 -0.2239  0.3565
  160OSM    H8G17995   4.978   2.541   2.888 -0.1054  0.5105  0.0211
  160OSM    C9F17996   4.875   2.425   3.048  0.2867  0.5669  0.2651
  160OSM    H9F17997   4.953   2.347   3.049  0.2318  0.5148  0.5706
  160OSM   C10F17998   4.810   2.439   3.163 -0.9941  0.2009  0.6105
  160OSM   H10F17999   4.842   2.367   3.239  0.2357 -0.1805 -0.2192
  160OSM   C11F18000   4.709   2.551   3.189  0.1149  0.1146  0.4287
  160OSM   H11F18001   4.603   2.520   3.187  0.0907  0.2184 -1.4167
  160OSM   H11G18002   4.724   2.635   3.118 -0.8683  0.1355  0.2418
  160OSM   C12F18003   4.741   2.609   3.327 -0.4534  0.0293  0.5117
  160OSM   H12F18004   4.666   2.691   3.333  0.7045  1.1758 -0.2486
  160OSM   H12G18005   4.839   2.662   3.333  0.4615 -1.4852 -0.5329
  160OSM   C13F18006   4.715   2.516   3.449 -0.6500  0.5052  0.3996
  160OSM   H13F18007   4.809   2.456   3.451  0.8588  2.7275  0.5159
  160OSM   H13G18008   4.627   2.452   3.429 -0.1171 -0.1245  0.0103
  160OSM   C14F18009   4.690   2.581   3.585  0.0070  0.5500 -0.1227
  160OSM   H14F18010   4.594   2.634   3.568 -0.7568 -0.9287 -0.6014
  160OSM   H14G18011   4.763   2.656   3.623 -0.6467  0.7741  0.7021
  160OSM   C15F18012   4.677   2.483   3.699 -0.1066 -0.1936  0.5711
  160OSM   H15F18013   4.774   2.442   3.735  0.7860 -0.4280 -1.9601
  160OSM   H15G18014   4.620   2.392   3.671  1.3461 -1.3879  1.3733
  160OSM   C16F18015   4.612   2.545   3.821  0.3661 -0.1329  0.0354
  160OSM   H16F18016   4.516   2.596   3.797  1.1360  1.1096 -0.4888
  160OSM   H16G18017   4.680   2.624   3.860 -0.0705  0.8470 -1.1340
  160OSM   C17F18018   4.592   2.441   3.924  0.0242  0.2762  0.6310
  160OSM   H17F18019   4.693   2.416   3.963  0.2239  1.6315  1.0275
  160OSM   H17G18020   4.544   2.360   3.865  0.7381  2.1504 -2.7466
  160OSM   C18F18021   4.497   2.488   4.042 -0.4897  0.1655  0.6374
  160OSM   H18F18022   4.412   2.553   4.013  0.0081  0.0494 -1.2265
  160OSM   H18G18023   4.553   2.546   4.118  0.5869  0.3616 -0.2725
  160OSM   H18H18024   4.461   2.402   4.102 -0.5760  0.5676  1.1705
  161OSM      N18025   2.587   6.107   1.812 -0.3642  0.2265  0.1903
  161OSM    C1518026   2.731   6.146   1.810  0.1785  0.0451  0.1021
  161OSM   H15A18027   2.758   6.159   1.706 -2.0103  2.5775 -0.2665
  161OSM   H15B18028   2.792   6.076   1.864  2.1871 -0.0781 -2.1503
  161OSM   H15C18029   2.733   6.245   1.854 -0.9494  0.2577 -0.2861
  161OSM    C1418030   2.571   5.975   1.734 -0.0849 -0.0879 -0.1601
  161OSM   H14A18031   2.632   5.895   1.772 -1.1369 -1.5215 -1.3968
  161OSM   H14B18032   2.597   5.995   1.632 -1.9396 -0.7879 -0.8052
  161OSM   H14C18033   2.467   5.946   1.741  0.1595 -0.7962  0.8635
  161OSM    C1318034   2.542   6.078   1.958 -0.2343  0.2226  0.6526
  161OSM   H13A18035   2.448   6.026   1.967 -0.4146 -0.3261 -2.9488
  161OSM   H13B18036   2.536   6.170   2.016 -1.7204 -0.0972  1.0567
  161OSM   H13C18037   2.606   6.004   2.004 -0.5935 -0.1026  0.6353
  161OSM    C1218038   2.500   6.213   1.758 -0.8187 -0.4137  0.4143
  161OSM   H12A18039   2.396   6.185   1.765 -1.5390  1.3562 -1.7922
  161OSM   H12B18040   2.519   6.222   1.652 -1.7498  1.3180  0.3592
  161OSM    C1118041   2.526   6.357   1.811  0.0883  0.4094 -0.1780
  161OSM   H11A18042   2.625   6.374   1.765  0.1936  1.3859  0.3987
  161OSM   H11B18043   2.530   6.357   1.922 -0.6389 -3.1899 -0.0346
  161OSM      P18044   2.277   6.439   1.786  0.1730  0.1957 -0.2581
  161OSM    O1318045   2.218   6.572   1.768 -0.4532 -0.6392  0.3301
  161OSM    O1418046   2.224   6.339   1.692 -0.1007 -0.1970 -0.7981
  161OSM    O1118047   2.265   6.392   1.932  0.1785  0.1484 -0.0206
  161OSM    O1218048   2.434   6.455   1.758  0.8155 -0.3148 -0.4241
  161OSM    C1S18049   2.295   6.487   2.038 -0.4672  0.6258  0.2619
  161OSM    H1S18050   2.263   6.590   2.010 -0.0542  0.6224 -0.2264
  161OSM    H1T18051   2.405   6.487   2.054 -0.2759 -0.6672 -0.9142
  161OSM     NF18052   2.250   6.544   2.274 -0.7644  0.1756 -0.3180
  161OSM    HNF18053   2.320   6.505   2.333  0.4188  0.4865 -1.4906
  161OSM    C2S18054   2.225   6.448   2.171 -0.4686  1.4298  0.3555
  161OSM    H2S18055   2.117   6.463   2.152 -0.6549 -0.7524 -0.5575
  161OSM    C3S18056   2.253   6.299   2.202 -0.0806  0.2248  0.3396
  161OSM    H3S18057   2.363   6.291   2.216  0.0802  0.5944 -0.6459
  161OSM     O318058   2.222   6.207   2.092 -0.0148 -0.2994  0.0735
  161OSM    HO318059   2.222   6.265   2.015 -2.1748  0.0674  0.2992
  161OSM    C4S18060   2.176   6.259   2.327  0.6005 -0.1404 -0.3313
  161OSM    H4S18061   2.078   6.309   2.333  0.1358 -0.9575 -0.8697
  161OSM    C5S18062   2.219   6.186   2.432 -0.0012  0.4878  0.0510
  161OSM    H5S18063   2.319   6.139   2.431 -0.3326 -0.2498  0.6322
  161OSM    C6S18064   2.140   6.157   2.559 -0.0982 -0.3166  1.0689
  161OSM    H6S18065   2.155   6.048   2.571 -2.0724 -0.6422  0.9387
  161OSM    H6T18066   2.034   6.181   2.534  1.2667  2.2647 -3.2702
  161OSM    C7S18067   2.181   6.229   2.692 -0.9747  0.2749  0.1493
  161OSM    H7S18068   2.184   6.339   2.678  1.5591  0.2526 -0.0435
  161OSM    H7T18069   2.288   6.204   2.713 -0.9675 -2.0319 -2.0842
  161OSM    C8S18070   2.095   6.180   2.812 -0.1475 -0.2656 -0.1099
  161OSM    H8S18071   2.099   6.069   2.806 -0.2781 -0.2191 -1.4722
  161OSM    H8T18072   1.991   6.219   2.809  0.1843  0.6320 -0.0328
  161OSM    C9S18073   2.157   6.222   2.946  0.0631  0.0028 -1.0046
  161OSM    H9S18074   2.159   6.333   2.956  1.8491 -0.1427  0.7851
  161OSM    H9T18075   2.262   6.187   2.951 -0.3828 -1.4335 -1.1541
  161OSM   C10S18076   2.083   6.165   3.073 -0.5710  0.2266  0.2848
  161OSM   H10S18077   2.079   6.054   3.072 -3.4383  0.2453 -2.1785
  161OSM   H10T18078   1.980   6.205   3.061 -0.8032 -0.2295  0.7610
  161OSM   C11S18079   2.146   6.204   3.207 -0.8459  0.4136 -0.8223
  161OSM   H11S18080   2.131   6.313   3.221 -0.2984  0.3528  0.3961
  161OSM   H11T18081   2.255   6.180   3.208 -0.8292  0.4974 -0.6959
  161OSM   C12S18082   2.081   6.130   3.324 -0.6539  0.9512  0.4621
  161OSM   H12S18083   2.109   6.025   3.302  0.4993  1.6349 -1.6428
  161OSM   H12T18084   1.972   6.148   3.320 -1.1288 -1.7282 -0.4582
  161OSM   C13S18085   2.136   6.172   3.463  0.1785  0.2890 -0.0642
  161OSM   H13S18086   2.246   6.165   3.454  0.3762  2.6556 -0.0401
  161OSM   H13T18087   2.102   6.102   3.542  1.5032 -0.0840  0.1908
  161OSM   C14S18088   2.101   6.318   3.497  1.1113 -0.1427 -0.0864
  161OSM   H14S18089   1.991   6.331   3.503  0.8061 -1.8192 -1.5853
  161OSM   H14T18090   2.140   6.385   3.418 -1.2297  1.2953 -0.1302
  161OSM   C15S18091   2.154   6.363   3.629 -0.4232  0.4315 -0.2293
  161OSM   H15S18092   2.178   6.471   3.634  1.5189  0.1693 -2.3130
  161OSM   H15T18093   2.253   6.312   3.635 -0.2391  0.9101  1.0371
  161OSM   C16S18094   2.073   6.325   3.753 -0.8029 -0.2382  0.6533
  161OSM   H16S18095   2.048   6.217   3.752 -0.5856 -0.2874  0.1609
  161OSM   H16T18096   1.975   6.375   3.766 -0.0419  1.2580  0.9284
  161OSM   C17S18097   2.158   6.359   3.873  1.0088 -0.7039  0.1686
  161OSM   H17S18098   2.090   6.361   3.961 -1.7317  0.5947 -1.8111
  161OSM   H17T18099   2.200   6.462   3.871  0.9042 -0.6723 -0.6789
  161OSM   C18S18100   2.264   6.253   3.907  0.0824  0.6534 -0.5135
  161OSM   H18S18101   2.322   6.290   3.994 -2.5200  1.5176  0.9717
  161OSM   H18T18102   2.334   6.249   3.821 -0.2028  1.6148 -0.8077
  161OSM   H18U18103   2.207   6.159   3.924  0.8808  0.1980 -0.2937
  161OSM    C1F18104   2.219   6.669   2.265 -0.6173 -0.4802  0.3831
  161OSM     OF18105   2.119   6.700   2.204  0.1160 -0.2538 -0.1930
  161OSM    C2F18106   2.319   6.765   2.335  0.1608 -0.0392  0.0816
  161OSM    H2F18107   2.417   6.762   2.283 -0.7075 -1.3972 -1.6066
  161OSM    H2G18108   2.336   6.729   2.439  2.9023  0.9047  0.0245
  161OSM    C3F18109   2.286   6.918   2.327 -0.1374 -0.2562  0.0228
  161OSM    H3F18110   2.182   6.948   2.352 -0.0748  0.3585 -0.4328
  161OSM    H3G18111   2.318   6.946   2.224  1.2904  1.3279  0.8578
  161OSM    C4F18112   2.373   6.993   2.428 -0.6510 -0.6466  0.3174
  161OSM    H4F18113   2.479   6.961   2.419 -0.6793 -0.2310 -1.7944
  161OSM    H4G18114   2.325   6.981   2.528 -0.3946 -1.5305  0.3390
  161OSM    C5F18115   2.379   7.146   2.392 -0.2563 -0.1723  0.0631
  161OSM    H5F18116   2.362   7.152   2.283 -0.8874  0.0823  0.1690
  161OSM    H5G18117   2.475   7.198   2.417 -1.3034  0.9614  2.0174
  161OSM    C6F18118   2.257   7.226   2.447 -0.8285  0.3428  0.6222
  161OSM    H6F18119   2.237   7.208   2.555  0.2612 -1.4689  0.5749
  161OSM    H6G18120   2.171   7.195   2.384  0.7346  0.2467 -1.5876
  161OSM    C7F18121   2.271   7.370   2.419  0.0901 -0.3821  0.4263
  161OSM    H7F18122   2.258   7.400   2.313  0.7794 -0.9483  0.1693
  161OSM    H7G18123   2.374   7.397   2.450  0.2632  0.4016 -0.7748
  161OSM    C8F18124   2.173   7.453   2.507  0.4020 -0.6205 -0.3287
  161OSM    H8F18125   2.199   7.561   2.510 -3.2658  0.4240 -1.3151
  161OSM    H8G18126   2.165   7.418   2.612 -1.4068 -0.4697 -0.3914
  161OSM    C9F18127   2.036   7.456   2.447  0.0345  0.2536  0.1715
  161OSM    H9F18128   2.041   7.482   2.340  0.7636  0.0328  0.1444
  161OSM   C10F18129   1.911   7.428   2.502  0.5035 -0.0198  0.7476
  161OSM   H10F18130   1.829   7.431   2.429  0.1340 -0.2589  1.1503
  161OSM   C11F18131   1.881   7.406   2.643 -0.5415  0.2701 -0.6459
  161OSM   H11F18132   1.967   7.391   2.712 -1.8231 -0.6853  0.8484
  161OSM   H11G18133   1.808   7.324   2.660 -1.7365  1.7397  1.9659
  161OSM   C12F18134   1.804   7.517   2.718 -0.3526  0.3969  0.1560
  161OSM   H12F18135   1.721   7.541   2.647  0.6880 -0.4951 -1.4266
  161OSM   H12G18136   1.870   7.607   2.714  0.8924 -0.5192 -0.3309
  161OSM   C13F18137   1.765   7.480   2.863  0.0805  0.6906 -0.1185
  161OSM   H13F18138   1.855   7.437   2.913 -1.5512 -0.3033  2.1327
  161OSM   H13G18139   1.698   7.392   2.861  0.4248  0.4438 -1.3521
  161OSM   C14F18140   1.700   7.596   2.936 -0.5802  0.6080 -0.1485
  161OSM   H14F18141   1.614   7.640   2.882 -1.4178  0.3410  0.9318
  161OSM   H14G18142   1.770   7.682   2.943  1.0285 -0.7761  4.2826
  161OSM   C15F18143   1.653   7.558   3.079  0.0634  0.1013  0.0350
  161OSM   H15F18144   1.734   7.493   3.120 -0.1161 -0.4523 -0.4824
  161OSM   H15G18145   1.557   7.502   3.082  0.2229 -0.1385  1.0229
  161OSM   C16F18146   1.637   7.677   3.176  0.1783  0.8472  0.6193
  161OSM   H16F18147   1.603   7.760   3.109  1.9384  0.4541 -0.8343
  161OSM   H16G18148   1.734   7.709   3.217  1.0720  0.4989 -1.1071
  161OSM   C17F18149   1.546   7.652   3.297  0.1601  0.1471  0.5722
  161OSM   H17F18150   1.445   7.610   3.279  0.9141 -1.8782  0.8236
  161OSM   H17G18151   1.522   7.747   3.350 -1.2282  0.6940 -0.9491
  161OSM   C18F18152   1.608   7.549   3.387 -0.4009  0.2456  0.2081
  161OSM   H18F18153   1.536   7.513   3.463 -0.0339  0.5817  0.7247
  161OSM   H18G18154   1.700   7.585   3.439 -0.7175  0.7352  0.4357
  161OSM   H18H18155   1.648   7.457   3.340  3.8909  1.6877  0.5928
  162OSM      N18156   3.684   0.605   2.247  0.0193 -0.1750 -0.0134
  162OSM    C1518157   3.661   0.476   2.316  1.3859  0.5383  0.0040
  162OSM   H15A18158   3.711   0.462   2.411  0.0739 -2.4668  0.3613
  162OSM   H15B18159   3.679   0.390   2.254  0.8414  0.0688  0.4827
  162OSM   H15C18160   3.556   0.475   2.341  0.3395  2.9575 -3.4941
  162OSM    C1418161   3.641   0.714   2.335 -0.1663 -0.0321 -0.6647
  162OSM   H14A18162   3.669   0.684   2.435 -0.6327 -0.3870 -0.6414
  162OSM   H14B18163   3.534   0.728   2.339 -0.3715 -0.5079 -3.0976
  162OSM   H14C18164   3.694   0.799   2.295  2.9003 -1.7888 -0.7063
  162OSM    C1318165   3.843   0.619   2.231  0.8392  0.8069 -0.0482
  162OSM   H13A18166   3.873   0.716   2.194 -1.7974  1.0554 -1.7977
  162OSM   H13B18167   3.881   0.545   2.162 -0.2803  0.2977 -0.1502
  162OSM   H13C18168   3.886   0.611   2.329  0.7163  0.3578 -0.0281
  162OSM    C1218169   3.613   0.605   2.109 -0.0507 -0.4241  0.2987
  162OSM   H12A18170   3.669   0.537   2.046 -0.6114 -0.7504  0.1452
  162OSM   H12B18171   3.620   0.702   2.061 -1.6495 -1.2667 -1.7852
  162OSM    C1118172   3.458   0.582   2.116 -0.3105 -0.3038  0.2665
  162OSM   H11A18173   3.442   0.480   2.156  0.2775  0.2858  2.1251
  162OSM   H11B18174   3.409   0.582   2.017 -1.2905  1.5940  0.7051
  162OSM      P18175   3.370   0.830   2.113  0.1532  0.4065 -0.0276
  162OSM    O1318176   3.455   0.833   1.989  0.0223 -0.5149 -0.2570
  162OSM    O1418177   3.225   0.864   2.102 -0.1717  0.1397 -0.2052
  162OSM    O1118178   3.441   0.917   2.223  0.4461  0.0601 -0.6429
  162OSM    O1218179   3.385   0.682   2.190 -0.1073 -0.5875 -1.0338
  162OSM    C1S18180   3.366   0.975   2.335  1.1194  0.0612 -0.4069
  162OSM    H1S18181   3.341   0.899   2.412 -2.7365  1.2456 -0.3229
  162OSM    H1T18182   3.274   1.024   2.297  1.2479 -1.0064 -2.2511
  162OSM     NF18183   3.373   1.131   2.523  0.3885 -0.3834 -0.8534
  162OSM    HNF18184   3.320   1.213   2.505  1.6050  0.3848 -1.0219
  162OSM    C2S18185   3.455   1.075   2.419  0.4007 -0.0093  0.4060
  162OSM    H2S18186   3.533   1.010   2.465  0.0395 -0.1996  0.7609
  162OSM    C3S18187   3.522   1.182   2.327  0.2716  0.0931  0.1215
  162OSM    H3S18188   3.445   1.227   2.262  0.9604 -0.6215 -1.2295
  162OSM     O318189   3.598   1.123   2.217  0.2388  0.4659 -0.3986
  162OSM    HO318190   3.571   1.031   2.210  0.1349  0.3573  1.1273
  162OSM    C4S18191   3.596   1.276   2.408 -0.7807 -0.6561  0.1958
  162OSM    H4S18192   3.690   1.242   2.452 -1.8406 -0.1021  3.0787
  162OSM    C5S18193   3.555   1.404   2.409  0.2049  0.0190  0.5574
  162OSM    H5S18194   3.466   1.436   2.353  2.3912  2.3950 -1.8589
  162OSM    C6S18195   3.619   1.519   2.487 -0.1227  0.1234  0.1328
  162OSM    H6S18196   3.537   1.587   2.520 -1.2638 -0.8328 -0.6426
  162OSM    H6T18197   3.692   1.573   2.423 -0.3455  0.0261 -0.2049
  162OSM    C7S18198   3.700   1.478   2.607 -0.3386  0.2506  0.0221
  162OSM    H7S18199   3.761   1.562   2.646  1.9054 -1.2306 -0.0371
  162OSM    H7T18200   3.774   1.400   2.576 -0.5936  0.7082 -1.8361
  162OSM    C8S18201   3.611   1.421   2.724  0.1618 -0.6523 -0.5527
  162OSM    H8S18202   3.629   1.312   2.709  3.4559 -0.6686  2.2733
  162OSM    H8T18203   3.501   1.439   2.719  0.0015 -0.2116  2.5546
  162OSM    C9S18204   3.661   1.463   2.861  0.8450 -0.4977 -0.5684
  162OSM    H9S18205   3.658   1.572   2.883 -0.9810 -1.0710  2.7365
  162OSM    H9T18206   3.764   1.423   2.868  0.0908 -2.5821 -0.7153
  162OSM   C10S18207   3.565   1.409   2.963  0.1332  0.3627 -0.1964
  162OSM   H10S18208   3.549   1.302   2.937  1.1128  0.0955  0.2886
  162OSM   H10T18209   3.468   1.462   2.951 -0.7052 -1.1290 -0.2787
  162OSM   C11S18210   3.616   1.422   3.108 -0.3046  0.6177  0.2214
  162OSM   H11S18211   3.726   1.410   3.102 -0.4851 -1.5441  0.4283
  162OSM   H11T18212   3.564   1.341   3.163 -0.0818  0.2457 -0.1065
  162OSM   C12S18213   3.570   1.554   3.182 -0.6209  0.4884  0.6466
  162OSM   H12S18214   3.465   1.575   3.154 -0.0720  1.9537 -0.4811
  162OSM   H12T18215   3.637   1.639   3.155  1.1197 -0.8451  0.5776
  162OSM   C13S18216   3.581   1.538   3.333 -0.8396  0.1926 -0.0297
  162OSM   H13S18217   3.688   1.513   3.346 -0.8903  0.1317  0.2884
  162OSM   H13T18218   3.529   1.445   3.365 -0.9492  0.9545  2.1958
  162OSM   C14S18219   3.552   1.666   3.411  0.1932 -0.6410 -0.4441
  162OSM   H14S18220   3.456   1.709   3.377 -0.0977  0.5060  1.6380
  162OSM   H14T18221   3.637   1.732   3.385  0.2507 -0.8160 -0.7090
  162OSM   C15S18222   3.543   1.645   3.562  0.0273 -0.3257 -0.4992
  162OSM   H15S18223   3.639   1.608   3.603 -0.3125 -0.3735  0.2688
  162OSM   H15T18224   3.464   1.582   3.609  0.6458  1.1323  2.7506
  162OSM   C16S18225   3.510   1.778   3.628  0.0130  0.4281 -0.3320
  162OSM   H16S18226   3.583   1.858   3.605  0.6929  0.6930  2.3549
  162OSM   H16T18227   3.531   1.752   3.734 -1.0737 -0.0347 -0.2143
  162OSM   C17S18228   3.368   1.834   3.620 -0.3766 -0.0082 -1.2526
  162OSM   H17S18229   3.294   1.765   3.575  1.5417 -1.3328 -2.5426
  162OSM   H17T18230   3.371   1.922   3.551  1.0317  0.0128 -1.2036
  162OSM   C18S18231   3.315   1.893   3.754 -0.3762  0.1042 -0.4234
  162OSM   H18S18232   3.349   1.997   3.769 -0.2632  0.2324 -1.4472
  162OSM   H18T18233   3.352   1.839   3.844 -2.2412 -1.1586 -0.3490
  162OSM   H18U18234   3.205   1.886   3.768 -0.3318  1.2143  0.5355
  162OSM    C1F18235   3.350   1.065   2.638  0.2342  0.1626  0.7908
  162OSM     OF18236   3.392   0.953   2.649  0.2178 -0.5450  0.7493
  162OSM    C2F18237   3.249   1.128   2.728  0.7281  0.0784 -0.5540
  162OSM    H2F18238   3.159   1.065   2.716  2.2653 -2.0728 -1.3910
  162OSM    H2G18239   3.206   1.226   2.698 -0.4932  0.2927  1.6799
  162OSM    C3F18240   3.296   1.109   2.874  0.1661 -0.4913 -0.4369
  162OSM    H3F18241   3.398   1.153   2.879  0.1140 -0.0961 -2.0962
  162OSM    H3G18242   3.304   1.003   2.907  1.6841  0.0106  0.9474
  162OSM    C4F18243   3.196   1.171   2.976 -0.1600 -0.7624  1.2929
  162OSM    H4F18244   3.101   1.119   2.952  0.5011 -0.2693 -3.1721
  162OSM    H4G18245   3.174   1.280   2.970  0.7247 -0.5534  1.6764
  162OSM    C5F18246   3.222   1.151   3.128  0.4923  0.4616  0.1455
  162OSM    H5F18247   3.318   1.190   3.167  0.5499  2.0123 -1.3988
  162OSM    H5G18248   3.235   1.042   3.146 -0.3341  0.0912 -1.2827
  162OSM    C6F18249   3.108   1.194   3.218 -0.1006  0.5122 -0.4096
  162OSM    H6F18250   3.025   1.121   3.211  1.7771 -1.6427 -1.2100
  162OSM    H6G18251   3.071   1.293   3.181 -1.3108 -0.0633 -0.8006
  162OSM    C7F18252   3.145   1.200   3.368  0.8425  0.2489 -0.5786
  162OSM    H7F18253   3.180   1.097   3.392  0.8120  0.2500 -0.5288
  162OSM    H7G18254   3.048   1.208   3.421  0.9135 -1.5984 -0.0888
  162OSM    C8F18255   3.243   1.306   3.423 -0.5098 -0.6613  0.0601
  162OSM    H8F18256   3.326   1.309   3.349  0.7256  3.3461  1.3527
  162OSM    H8G18257   3.289   1.262   3.514  2.5538  0.3604 -0.8763
  162OSM    C9F18258   3.189   1.445   3.443 -0.6448 -0.0882  0.2989
  162OSM    H9F18259   3.189   1.498   3.346  4.7204  0.0911  0.1325
  162OSM   C10F18260   3.139   1.495   3.558 -1.0201  0.2208  0.2575
  162OSM   H10F18261   3.092   1.595   3.560 -0.0115  0.7081  0.5016
  162OSM   C11F18262   3.130   1.415   3.691  0.0005 -0.3657  0.5160
  162OSM   H11F18263   3.123   1.305   3.679  0.6060 -0.4353  0.7618
  162OSM   H11G18264   3.047   1.462   3.747 -0.5787  0.1730 -0.7538
  162OSM   C12F18265   3.254   1.427   3.780 -0.0805 -0.4206  0.5412
  162OSM   H12F18266   3.281   1.534   3.793  1.4073 -0.3937 -2.1456
  162OSM   H12G18267   3.338   1.377   3.727 -0.4409 -2.7577  2.0244
  162OSM   C13F18268   3.257   1.365   3.919 -0.0856 -0.0430 -0.0832
  162OSM   H13F18269   3.234   1.257   3.906  1.0682 -0.1250 -1.8961
  162OSM   H13G18270   3.174   1.415   3.974 -0.5606 -0.6857 -0.2035
  162OSM   C14F18271   3.390   1.389   3.997  0.1890  0.5103  1.1753
  162OSM   H14F18272   3.410   1.498   3.985 -3.6345  1.2007 -0.3140
  162OSM   H14G18273   3.475   1.341   3.943  0.3151 -0.2209  2.0021
  162OSM   C15F18274   3.403   1.345   4.133  0.4421 -0.0296 -0.6703
  162OSM   H15F18275   3.431   1.239   4.147  0.9160  0.3689  1.9164
  162OSM   H15G18276   3.310   1.348   4.193  1.1742 -2.8390  0.7888
  162OSM   C16F18277   3.510   1.421   4.220  0.2871 -0.2057  0.4202
  162OSM   H16F18278   3.492   1.404   4.328 -0.6968 -1.2012  0.1159
  162OSM   H16G18279   3.492   1.530   4.207 -0.3508 -0.3372  0.1641
  162OSM   C17F18280   3.653   1.382   4.184 -0.5486  0.3233 -0.2416
  162OSM   H17F18281   3.729   1.425   4.252  0.2730  0.3909 -1.1913
  162OSM   H17G18282   3.665   1.434   4.087 -1.0624 -0.1980 -0.5914
  162OSM   C18F18283   3.689   1.233   4.163 -0.2884  0.6566 -0.1513
  162OSM   H18F18284   3.617   1.179   4.228  0.2814 -1.7731 -1.4341
  162OSM   H18G18285   3.790   1.206   4.201 -0.6529 -2.9401 -1.3710
  162OSM   H18H18286   3.670   1.204   4.058  2.8355 -1.7193 -0.2070
  163OSM      N18287   1.947   6.045   1.695 -0.2787  0.5670  0.3793
  163OSM    C1518288   2.086   6.080   1.666 -0.3195 -0.3909  0.0677
  163OSM   H15A18289   2.107   6.065   1.561 -0.1745  0.2215 -0.0003
  163OSM   H15B18290   2.157   6.012   1.710  0.0871  0.8404  1.4048
  163OSM   H15C18291   2.107   6.183   1.692 -0.8250 -0.0486 -0.8464
  163OSM    C1418292   1.851   6.116   1.608  0.0909 -0.2878 -0.2149
  163OSM   H14A18293   1.883   6.107   1.505  0.7562 -1.4004  0.0724
  163OSM   H14B18294   1.839   6.220   1.637 -0.1314 -0.5400  0.6165
  163OSM   H14C18295   1.753   6.072   1.616 -0.4568  0.9984  0.4759
  163OSM    C1318296   1.928   5.895   1.669 -0.1402  0.1265 -0.0456
  163OSM   H13A18297   1.916   5.864   1.566  0.5244 -1.6638  0.3707
  163OSM   H13B18298   1.833   5.863   1.711 -0.6942  2.1263  0.3176
  163OSM   H13C18299   1.996   5.838   1.730 -0.7031 -0.3438  0.1567
  163OSM    C1218300   1.908   6.063   1.841 -0.8490  0.5225  0.5010
  163OSM   H12A18301   1.994   6.019   1.889 -0.4710 -1.9473 -2.1660
  163OSM   H12B18302   1.819   6.004   1.856  1.0101 -2.4043  0.9777
  163OSM    C1118303   1.897   6.206   1.895 -0.0506  0.9366  0.1760
  163OSM   H11A18304   1.995   6.258   1.899  0.0025  0.9294 -0.7723
  163OSM   H11B18305   1.873   6.198   2.003  0.3820 -2.4226  0.1232
  163OSM      P18306   1.655   6.305   1.875 -0.1001  0.4107 -0.5383
  163OSM    O1318307   1.576   6.379   1.776 -0.2838  0.1286 -0.1796
  163OSM    O1418308   1.597   6.174   1.914 -0.5995  0.3405  0.5142
  163OSM    O1118309   1.664   6.386   2.010  0.1222 -0.0652 -0.4376
  163OSM    O1218310   1.807   6.292   1.824  0.0115  0.1802 -0.0033
  163OSM    C1S18311   1.738   6.507   2.008 -0.0344  0.3387 -0.2417
  163OSM    H1S18312   1.680   6.586   1.954 -0.6258  0.7345  0.9329
  163OSM    H1T18313   1.837   6.492   1.959 -0.6822 -1.2759 -1.1176
  163OSM     NF18314   1.820   6.698   2.153  0.0622 -1.2626 -0.3260
  163OSM    HNF18315   1.911   6.702   2.193 -0.8169  2.6940  1.7463
  163OSM    C2S18316   1.763   6.567   2.150 -0.2017  0.6046 -0.4240
  163OSM    H2S18317   1.661   6.583   2.190  0.2511  2.4881  0.0799
  163OSM    C3S18318   1.832   6.462   2.244 -0.3870  0.0392  0.2143
  163OSM    H3S18319   1.923   6.423   2.194  0.8424  2.8807  0.0631
  163OSM     O318320   1.757   6.343   2.256 -1.1708 -0.7799 -0.1094
  163OSM    HO318321   1.725   6.338   2.166  1.0684 -2.0933 -0.9104
  163OSM    C4S18322   1.861   6.524   2.376 -0.4926 -0.0697 -0.1636
  163OSM    H4S18323   1.931   6.609   2.379 -3.0928  2.3189  4.7273
  163OSM    C5S18324   1.815   6.506   2.501  0.2413 -0.0897 -0.2571
  163OSM    H5S18325   1.742   6.428   2.527  2.0762 -2.1659 -1.0098
  163OSM    C6S18326   1.862   6.592   2.616  0.0090 -0.5221  0.0714
  163OSM    H6S18327   1.776   6.611   2.683 -0.7618  0.8665 -1.2523
  163OSM    H6T18328   1.890   6.696   2.589 -0.1613  0.0544  1.9848
  163OSM    C7S18329   1.981   6.526   2.683  0.0595  0.2326  0.3414
  163OSM    H7S18330   2.056   6.516   2.602 -1.0867 -3.6466 -0.4491
  163OSM    H7T18331   1.953   6.423   2.714  0.2418 -0.1261 -0.6540
  163OSM    C8S18332   2.031   6.583   2.811 -0.2210  0.2568  0.0719
  163OSM    H8S18333   2.023   6.694   2.806  0.4316  0.3208  0.3750
  163OSM    H8T18334   2.132   6.549   2.844  0.5402  0.0590 -2.2563
  163OSM    C9S18335   1.934   6.527   2.930  0.0400 -0.7059  0.9637
  163OSM    H9S18336   1.933   6.419   2.904 -1.8652 -0.7230  0.9752
  163OSM    H9T18337   1.839   6.573   2.896 -0.2082 -2.6087 -1.1100
  163OSM   C10S18338   1.968   6.555   3.076  0.1149  0.4347 -0.0925
  163OSM   H10S18339   2.070   6.515   3.094  0.4423  1.2695 -0.0106
  163OSM   H10T18340   1.897   6.505   3.146 -0.0671 -0.1403 -0.6888
  163OSM   C11S18341   1.970   6.704   3.116 -0.3405 -0.3126  0.2905
  163OSM   H11S18342   1.876   6.750   3.079 -0.3986  0.4089  1.3000
  163OSM   H11T18343   2.046   6.766   3.065 -0.9041  1.3096  1.3571
  163OSM   C12S18344   1.997   6.723   3.266 -0.9126 -0.2427  0.3674
  163OSM   H12S18345   2.104   6.705   3.288 -1.0652 -2.0070 -0.1776
  163OSM   H12T18346   1.935   6.650   3.322 -0.3079 -0.9400  0.1259
  163OSM   C13S18347   1.964   6.864   3.309 -0.0193 -0.2419  0.4602
  163OSM   H13S18348   1.863   6.880   3.267 -0.2595 -1.7792  0.3777
  163OSM   H13T18349   2.031   6.935   3.256  1.4040 -2.1930 -0.5067
  163OSM   C14S18350   1.961   6.887   3.459  0.6582  0.2905 -0.5579
  163OSM   H14S18351   1.908   6.811   3.520  2.0604  1.2555  2.0028
  163OSM   H14T18352   1.916   6.986   3.481  1.6665  1.1279 -2.0358
  163OSM   C15S18353   2.108   6.903   3.518 -0.1837 -0.1298 -0.0067
  163OSM   H15S18354   2.139   7.000   3.473 -1.6620 -0.7775 -2.6271
  163OSM   H15T18355   2.172   6.822   3.478  0.2584 -0.0934  0.6104
  163OSM   C16S18356   2.115   6.914   3.671  0.1809  0.1101 -0.4564
  163OSM   H16S18357   2.008   6.902   3.698 -0.3264  1.1728 -1.8803
  163OSM   H16T18358   2.151   7.007   3.719  0.6097  0.4103 -1.3283
  163OSM   C17S18359   2.189   6.801   3.748  0.1897  0.5078  0.5996
  163OSM   H17S18360   2.156   6.698   3.720 -1.6711  1.6837 -1.8976
  163OSM   H17T18361   2.167   6.812   3.856  3.8378  0.5172  1.4821
  163OSM   C18S18362   2.336   6.816   3.719  0.2586 -0.0618 -0.5813
  163OSM   H18S18363   2.370   6.799   3.615 -0.2431  0.6094 -0.8632
  163OSM   H18T18364   2.393   6.755   3.793 -2.6473 -0.9212  1.0889
  163OSM   H18U18365   2.358   6.919   3.755  2.3404 -0.1675 -1.4284
  163OSM    C1F18366   1.762   6.810   2.111 -0.3609  0.1183 -0.1041
  163OSM     OF18367   1.649   6.819   2.070  0.8938  0.4394 -0.6027
  163OSM    C2F18368   1.853   6.931   2.127  0.6766 -0.0212  0.4471
  163OSM    H2F18369   1.849   6.985   2.030  2.1101 -0.2247  0.2418
  163OSM    H2G18370   1.956   6.889   2.117  0.5212 -0.0638 -1.3120
  163OSM    C3F18371   1.823   7.016   2.253 -0.4479 -0.1415 -0.2666
  163OSM    H3F18372   1.720   7.058   2.263 -0.6051 -0.5484 -0.1171
  163OSM    H3G18373   1.898   7.096   2.236 -0.2415 -0.5680 -1.4693
  163OSM    C4F18374   1.872   6.952   2.387  0.0542  0.4985  0.8435
  163OSM    H4F18375   1.954   6.880   2.367 -1.9170 -2.0334  1.3281
  163OSM    H4G18376   1.785   6.901   2.434  0.7187 -0.2465  1.2959
  163OSM    C5F18377   1.922   7.050   2.493  0.0599 -0.8028 -0.5891
  163OSM    H5F18378   1.836   7.111   2.529 -1.8967 -3.8286  0.2304
  163OSM    H5G18379   2.000   7.116   2.449 -0.4916  1.5786  1.7312
  163OSM    C6F18380   1.969   6.988   2.622 -0.0565 -0.6869  0.1408
  163OSM    H6F18381   2.057   6.927   2.591  0.6598  0.5992 -0.4554
  163OSM    H6G18382   1.900   6.916   2.671 -2.4475  0.9764 -0.5963
  163OSM    C7F18383   2.012   7.099   2.725 -0.6834 -0.8653  0.3700
  163OSM    H7F18384   1.928   7.161   2.763 -2.2572 -0.7191 -3.0800
  163OSM    H7G18385   2.064   7.172   2.660  3.5953 -3.2579  0.7031
  163OSM    C8F18386   2.114   7.057   2.836  0.0843 -0.0093  0.1550
  163OSM    H8F18387   2.180   6.988   2.779 -1.8278 -0.1250 -2.0680
  163OSM    H8G18388   2.063   6.998   2.915  1.8605 -0.5498  0.9534
  163OSM    C9F18389   2.179   7.183   2.882 -0.6475 -0.5430  0.0989
  163OSM    H9F18390   2.199   7.259   2.806  0.6696  0.2453  1.2071
  163OSM   C10F18391   2.187   7.237   3.008 -0.0660  0.0514  0.3796
  163OSM   H10F18392   2.227   7.339   3.025 -1.1421  0.2834  1.7402
  163OSM   C11F18393   2.148   7.164   3.135  0.0843  0.6107  0.2831
  163OSM   H11F18394   2.223   7.171   3.216  0.5678 -0.2755 -0.0720
  163OSM   H11G18395   2.147   7.058   3.102 -0.1151  0.5412  0.5090
  163OSM   C12F18396   2.017   7.206   3.199 -0.2097 -0.7946  0.2596
  163OSM   H12F18397   1.997   7.133   3.281  0.4996 -0.4842  0.7222
  163OSM   H12G18398   1.946   7.183   3.116  1.6077  1.1484 -1.9771
  163OSM   C13F18399   2.023   7.356   3.240  0.2441 -0.0314  0.2776
  163OSM   H13F18400   1.924   7.370   3.290  0.5737  0.4797  0.7988
  163OSM   H13G18401   2.026   7.414   3.145 -1.1310 -0.6553 -0.1781
  163OSM   C14F18402   2.142   7.399   3.325  0.4087  0.1737 -0.3167
  163OSM   H14F18403   2.112   7.504   3.342 -2.3472 -0.4483 -0.8373
  163OSM   H14G18404   2.241   7.390   3.275  0.2257  3.9203 -1.6143
  163OSM   C15F18405   2.129   7.338   3.468  0.1868 -0.1771 -0.0254
  163OSM   H15F18406   2.181   7.242   3.490 -0.0374 -0.4832 -0.8078
  163OSM   H15G18407   2.022   7.319   3.491 -0.8058  1.1470 -3.0849
  163OSM   C16F18408   2.199   7.433   3.567 -0.5474 -0.2875 -0.3539
  163OSM   H16F18409   2.153   7.533   3.555 -3.0707 -0.9639  2.4243
  163OSM   H16G18410   2.307   7.430   3.540 -0.8572 -0.4596 -1.6143
  163OSM   C17F18411   2.193   7.395   3.717  0.0842 -0.5101  0.9844
  163OSM   H17F18412   2.227   7.483   3.775 -1.7618 -0.0795  1.4559
  163OSM   H17G18413   2.269   7.318   3.743  1.8740  0.8222 -0.0461
  163OSM   C18F18414   2.057   7.353   3.767  0.0135  0.0181  0.6233
  163OSM   H18F18415   2.035   7.246   3.748  0.3266  0.4306 -2.6423
  163OSM   H18G18416   1.983   7.407   3.705 -0.2694 -0.4940  0.5129
  163OSM   H18H18417   2.044   7.374   3.876  2.3380  1.0153  0.7719
  164OSM      N18418   4.417   1.261   1.996 -0.0807  0.2803 -0.2227
  164OSM    C1518419   4.274   1.210   2.006  0.1433 -0.0563  1.1257
  164OSM   H15A18420   4.204   1.278   1.959  3.0745  2.5989  0.2799
  164OSM   H15B18421   4.234   1.199   2.106 -0.8948 -0.1990  0.7137
  164OSM   H15C18422   4.266   1.119   1.949  0.9408  0.5009  0.1031
  164OSM    C1418423   4.514   1.161   2.053  0.1238  0.0909 -0.3617
  164OSM   H14A18424   4.582   1.202   2.127  0.2186 -1.1447  0.2635
  164OSM   H14B18425   4.590   1.138   1.980 -0.3550  0.6133 -1.0334
  164OSM   H14C18426   4.471   1.071   2.095  3.3200 -0.9891  0.8961
  164OSM    C1318427   4.455   1.267   1.849 -0.0528 -0.0498  0.1896
  164OSM   H13A18428   4.546   1.324   1.840  0.9819 -1.0895  2.9346
  164OSM   H13B18429   4.385   1.322   1.788  0.8765  0.7803 -0.1704
  164OSM   H13C18430   4.462   1.166   1.814 -0.0751 -0.8890  2.4647
  164OSM    C1218431   4.430   1.395   2.060 -0.0962 -0.5404 -0.8468
  164OSM   H12A18432   4.423   1.380   2.166 -4.9743  0.3957 -0.8332
  164OSM   H12B18433   4.341   1.449   2.033  0.1417 -0.0178 -0.5974
  164OSM    C1118434   4.541   1.491   2.022 -0.3805  0.6413 -1.0018
  164OSM   H11A18435   4.630   1.425   2.017  0.6584  1.9202 -0.0259
  164OSM   H11B18436   4.565   1.563   2.103 -1.7183 -1.7223  1.6780
  164OSM      P18437   4.400   1.629   1.842 -0.1166 -0.3186 -0.1879
  164OSM    O1318438   4.426   1.685   1.710 -0.1244 -0.4009  0.1645
  164OSM    O1418439   4.278   1.551   1.864  0.2381 -0.1586  0.2823
  164OSM    O1118440   4.392   1.748   1.944 -0.0161 -0.1989  0.2149
  164OSM    O1218441   4.526   1.547   1.897  0.1418 -0.5121  0.1972
  164OSM    C1S18442   4.512   1.837   1.958  0.6402 -0.0511  0.6864
  164OSM    H1S18443   4.534   1.877   1.857  2.9287 -2.5986  0.0431
  164OSM    H1T18444   4.601   1.777   1.988 -0.2950 -2.2551 -0.6472
  164OSM     NF18445   4.604   2.048   2.057  0.0449 -0.6003  0.5529
  164OSM    HNF18446   4.676   2.043   2.125  0.5057 -0.2936  0.0908
  164OSM    C2S18447   4.494   1.951   2.057 -0.0133 -0.4610  1.0824
  164OSM    H2S18448   4.403   2.005   2.023  1.3627  1.0154 -0.4372
  164OSM    C3S18449   4.468   1.886   2.200  0.1719  0.4090  0.2391
  164OSM    H3S18450   4.566   1.838   2.215  0.7304  1.1304 -0.9204
  164OSM     O318451   4.371   1.776   2.196  0.0918  0.2670 -0.5141
  164OSM    HO318452   4.375   1.740   2.107 -1.5530 -0.2527 -0.3987
  164OSM    C4S18453   4.435   1.975   2.311 -0.0872  0.4959 -0.6641
  164OSM    H4S18454   4.338   2.024   2.300 -0.9001 -1.3061 -1.8896
  164OSM    C5S18455   4.527   2.005   2.408  0.0602  0.8513 -0.3286
  164OSM    H5S18456   4.621   1.948   2.402  0.5742  1.7902 -1.3881
  164OSM    C6S18457   4.513   2.106   2.516 -0.2438  0.1022  0.2077
  164OSM    H6S18458   4.441   2.185   2.484  2.7313  2.8794 -0.1745
  164OSM    H6T18459   4.605   2.167   2.530 -1.2394  1.7594 -0.1523
  164OSM    C7S18460   4.482   2.051   2.655 -0.8356  0.1169 -0.2249
  164OSM    H7S18461   4.565   1.981   2.680 -0.0649  1.1198  0.1102
  164OSM    H7T18462   4.390   1.991   2.667 -1.1012  0.8047  1.6853
  164OSM    C8S18463   4.473   2.168   2.762  0.2733 -0.0628 -0.0402
  164OSM    H8S18464   4.397   2.245   2.733  1.3806  0.8020 -0.7538
  164OSM    H8T18465   4.567   2.228   2.759  0.4380 -0.3019  0.3698
  164OSM    C9S18466   4.450   2.108   2.901 -0.2557  0.0460 -0.4047
  164OSM    H9S18467   4.532   2.038   2.925  0.3068  0.6647 -0.4806
  164OSM    H9T18468   4.350   2.060   2.905 -1.1460  1.8587  0.2824
  164OSM   C10S18469   4.449   2.214   3.015 -0.2207  0.8969  0.7764
  164OSM   H10S18470   4.381   2.295   2.985 -1.3193 -0.1588  0.3299
  164OSM   H10T18471   4.550   2.258   3.030  0.5195 -0.5822  0.4082
  164OSM   C11S18472   4.397   2.167   3.149 -0.3338 -0.5486  0.0854
  164OSM   H11S18473   4.465   2.086   3.185  0.0233 -0.0159  0.6257
  164OSM   H11T18474   4.297   2.121   3.140 -1.0232  1.1421 -1.5079
  164OSM   C12S18475   4.404   2.294   3.247 -0.7670  0.3097  0.7623
  164OSM   H12S18476   4.345   2.376   3.202 -0.9902 -0.7660 -0.9956
  164OSM   H12T18477   4.506   2.339   3.248 -0.8988  0.6288  0.2423
  164OSM   C13S18478   4.344   2.256   3.383 -0.1020  0.2606  0.1158
  164OSM   H13S18479   4.422   2.192   3.428  0.3060 -0.7100 -1.8931
  164OSM   H13T18480   4.253   2.192   3.376  0.3716 -0.4874  0.6988
  164OSM   C14S18481   4.321   2.386   3.464  0.5835  0.2308  0.3452
  164OSM   H14S18482   4.270   2.462   3.401 -2.4001 -0.8292  1.2868
  164OSM   H14T18483   4.420   2.431   3.487  0.8369 -0.7806  1.3490
  164OSM   C15S18484   4.220   2.369   3.584 -0.0635  0.3812  1.1897
  164OSM   H15S18485   4.245   2.290   3.658 -2.7828 -1.4831  0.2863
  164OSM   H15T18486   4.125   2.337   3.537  0.7369  1.1627 -1.0895
  164OSM   C16S18487   4.205   2.503   3.660  0.4856  1.0528 -0.4231
  164OSM   H16S18488   4.174   2.581   3.587 -0.5248 -1.1621 -2.5091
  164OSM   H16T18489   4.300   2.535   3.707 -0.3142  2.9440 -0.0314
  164OSM   C17S18490   4.096   2.512   3.769  0.0246  0.5510 -0.5290
  164OSM   H17S18491   4.118   2.438   3.849 -2.2416 -2.7068 -2.6613
  164OSM   H17T18492   3.996   2.480   3.734 -0.4569  0.8229  0.5505
  164OSM   C18S18493   4.091   2.643   3.840 -0.2544 -0.5670  0.3953
  164OSM   H18S18494   4.016   2.713   3.798 -0.6961  0.0075  2.0501
  164OSM   H18T18495   4.191   2.691   3.837 -1.6293  2.4996 -0.4169
  164OSM   H18U18496   4.050   2.629   3.943 -2.5645  1.8140 -0.0817
  164OSM    C1F18497   4.629   2.139   1.967 -0.3598 -0.6473  0.0448
  164OSM     OF18498   4.557   2.158   1.871 -0.0778 -0.1744 -0.5031
  164OSM    C2F18499   4.757   2.213   1.973 -0.0643 -0.8459  0.3575
  164OSM    H2F18500   4.831   2.176   1.899  1.6012 -0.2387  1.6320
  164OSM    H2G18501   4.800   2.185   2.072 -0.1674  1.8632  1.2525
  164OSM    C3F18502   4.742   2.368   1.946  0.3088 -0.1317 -0.4011
  164OSM    H3F18503   4.686   2.386   1.852  0.2076 -0.1475 -0.3447
  164OSM    H3G18504   4.846   2.403   1.928  0.2297  0.5259  0.3790
  164OSM    C4F18505   4.664   2.451   2.056 -0.6716  0.4174 -0.2011
  164OSM    H4F18506   4.555   2.430   2.048 -0.7339  1.2460 -2.2820
  164OSM    H4G18507   4.677   2.561   2.047  0.3715  0.4719  1.6398
  164OSM    C5F18508   4.714   2.411   2.199 -0.6456  0.3153 -0.1551
  164OSM    H5F18509   4.823   2.429   2.214 -0.4571  0.3329 -1.4038
  164OSM    H5G18510   4.692   2.303   2.211  0.8851  0.2178  2.5088
  164OSM    C6F18511   4.630   2.482   2.304 -0.9465 -0.1202 -0.2385
  164OSM    H6F18512   4.623   2.420   2.396  3.0644  0.9951  1.0369
  164OSM    H6G18513   4.529   2.508   2.266 -1.6522 -2.6198 -0.2449
  164OSM    C7F18514   4.700   2.608   2.347  0.3725  0.1045  0.1155
  164OSM    H7F18515   4.710   2.678   2.261 -2.1175 -0.6897 -0.9124
  164OSM    H7G18516   4.803   2.585   2.383 -0.6830  0.0217  3.3598
  164OSM    C8F18517   4.621   2.683   2.466 -0.3894  0.4123  0.0334
  164OSM    H8F18518   4.616   2.616   2.555  3.1010 -0.1151 -0.0288
  164OSM    H8G18519   4.516   2.701   2.436 -1.4808 -2.2142  1.9412
  164OSM    C9F18520   4.692   2.813   2.496 -0.0208  0.2275  0.0558
  164OSM    H9F18521   4.800   2.809   2.477 -0.0360  1.7952 -0.5003
  164OSM   C10F18522   4.641   2.930   2.534 -0.0408  0.7033 -0.0073
  164OSM   H10F18523   4.715   3.012   2.540 -0.9921  1.7250 -1.4948
  164OSM   C11F18524   4.501   2.979   2.562  0.1634  0.0886  0.0157
  164OSM   H11F18525   4.425   2.920   2.507 -0.9631  1.7111 -0.2102
  164OSM   H11G18526   4.481   3.081   2.524  1.4142  0.1807 -0.4552
  164OSM   C12F18527   4.481   2.988   2.713 -0.2027  0.1566 -0.0185
  164OSM   H12F18528   4.384   3.040   2.729 -0.1788 -0.1320  1.0781
  164OSM   H12G18529   4.559   3.056   2.751 -0.4764 -0.0463  0.9365
  164OSM   C13F18530   4.477   2.851   2.783 -0.4177  0.1493  0.2689
  164OSM   H13F18531   4.561   2.788   2.749 -1.3477 -2.1522  1.9483
  164OSM   H13G18532   4.390   2.789   2.752 -0.9085  1.5747 -1.4177
  164OSM   C14F18533   4.475   2.849   2.939  0.7039 -0.1240 -0.5009
  164OSM   H14F18534   4.565   2.908   2.965  0.4395 -0.1398  0.4921
  164OSM   H14G18535   4.497   2.748   2.980 -1.8122  0.2875  2.1998
  164OSM   C15F18536   4.349   2.906   3.000 -0.3451  0.6684 -0.7084
  164OSM   H15F18537   4.265   2.847   2.959  1.5530 -2.1119 -0.8712
  164OSM   H15G18538   4.349   3.014   2.975  3.9406  1.5350  1.9286
  164OSM   C16F18539   4.350   2.887   3.152 -0.2367 -0.1402 -0.3254
  164OSM   H16F18540   4.438   2.946   3.187 -0.8888  1.2224 -0.9288
  164OSM   H16G18541   4.382   2.783   3.172  2.9205  1.1625  2.3728
  164OSM   C17F18542   4.225   2.914   3.232  0.6248 -0.5585  1.1370
  164OSM   H17F18543   4.145   2.862   3.176 -1.4520  0.0565  3.3311
  164OSM   H17G18544   4.193   3.020   3.235  1.1502 -0.3748  0.3467
  164OSM   C18F18545   4.237   2.869   3.374  0.2591 -0.4681 -0.4545
  164OSM   H18F18546   4.304   2.946   3.419  2.7153 -2.5808 -0.2504
  164OSM   H18G18547   4.294   2.775   3.380  2.8659  1.0599  0.4528
  164OSM   H18H18548   4.140   2.859   3.428 -0.0827 -0.4316 -1.0559
  165SAPS     N18549   1.632   2.590   6.693 -0.5526  0.7372 -0.0319
  165SAPS   HN118550   1.677   2.541   6.613 -1.8875  0.3437 -0.5661
  165SAPS   HN218551   1.553   2.530   6.723 -1.2498  1.6848  0.0861
  165SAPS   HN318552   1.592   2.682   6.667  0.8415  1.1720 -0.7866
  165SAPS   C1218553   1.729   2.607   6.805  0.4482 -0.2541 -0.1988
  165SAPS  H12A18554   1.671   2.636   6.891 -1.9091  0.6533 -1.9742
  165SAPS   C1318555   1.802   2.480   6.844  0.5712  0.1079 -0.4907
  165SAPS  O13A18556   1.767   2.370   6.791 -0.2917  0.0921 -0.4186
  165SAPS  O13B18557   1.901   2.491   6.921 -0.0637  0.5012 -0.3626
  165SAPS   C1118558   1.832   2.725   6.768  0.1732 -0.2074  0.1773
  165SAPS  H11A18559   1.922   2.725   6.833  1.3062  0.5478 -1.3246
  165SAPS  H11B18560   1.778   2.822   6.770  0.1822 -0.2065  0.4281
  165SAPS     P18561   2.014   2.684   6.576 -0.4352 -0.3548  0.2483
  165SAPS   O1318562   2.108   2.694   6.689 -0.1036 -0.0451  0.0745
  165SAPS   O1418563   2.002   2.561   6.497 -0.2651  0.3749 -0.2901
  165SAPS   O1218564   1.867   2.719   6.632  0.1780 -0.0020  0.4856
  165SAPS   O1118565   2.047   2.804   6.476 -0.1002 -0.1766  0.1561
  165SAPS    C118566   2.178   2.806   6.412  0.2872  0.3912 -0.4758
  165SAPS    HA18567   2.219   2.909   6.422 -1.1378  1.0292 -0.9353
  165SAPS    HB18568   2.248   2.736   6.462 -0.7022  0.2778  0.8292
  165SAPS    C218569   2.170   2.781   6.256  0.4552 -0.2085  0.9043
  165SAPS    HS18570   2.124   2.873   6.214  0.0920 -1.8002 -2.5305
  165SAPS   O2118571   2.089   2.665   6.218 -0.0956  0.2109  0.0978
  165SAPS   C2118572   1.957   2.690   6.223  0.4556  0.1556  0.5039
  165SAPS   O2218573   1.901   2.797   6.239 -0.0996 -0.7233 -0.0590
  165SAPS   C2218574   1.871   2.561   6.211 -0.2419  0.3896 -0.1557
  165SAPS   H2R18575   1.904   2.498   6.126 -0.3036 -0.4969  0.4601
  165SAPS   H2S18576   1.889   2.506   6.306  0.8739 -1.9647 -1.6342
  165SAPS    C318577   2.307   2.757   6.199 -0.2603  0.1354  0.1775
  165SAPS    HX18578   2.358   2.668   6.241  0.1676 -0.1542 -0.9273
  165SAPS    HY18579   2.362   2.848   6.230  1.2613 -0.6372 -0.1753
  165SAPS   O3118580   2.296   2.731   6.056  0.1233  0.0911 -0.1671
  165SAPS   C3118581   2.369   2.807   5.980  0.0333  0.0539 -0.3001
  165SAPS   O3218582   2.449   2.891   6.023  0.2561  0.5579 -0.1319
  165SAPS   C3218583   2.322   2.784   5.831 -0.0968 -0.3016 -0.2379
  165SAPS   H2X18584   2.317   2.888   5.791 -2.2045  0.1965  1.1566
  165SAPS   H2Y18585   2.228   2.725   5.822  0.6553 -1.5958  0.1907
  165SAPS   C2318586   1.714   2.591   6.192  0.2270 -0.1218  1.0023
  165SAPS   H3R18587   1.679   2.673   6.257 -1.0410 -1.5932  2.2421
  165SAPS   H3S18588   1.651   2.505   6.224 -0.2913  0.3579  1.2838
  165SAPS   C2418589   1.670   2.608   6.046  0.2593  0.0686  0.4889
  165SAPS   H4R18590   1.564   2.577   6.038  0.0489  0.0889  2.6584
  165SAPS   H4S18591   1.718   2.536   5.976 -0.4589 -1.1689  1.2490
  165SAPS   C2518592   1.690   2.756   6.001  0.3832 -0.3010 -0.1907
  165SAPS   H5R18593   1.786   2.797   6.037  0.2485 -2.3534  2.8893
  165SAPS   C2618594   1.606   2.838   5.938  0.0991 -0.4360 -0.0396
  165SAPS   H6R18595   1.625   2.946   5.940 -0.5615 -0.3046 -0.3730
  165SAPS   C2718596   1.470   2.807   5.884  0.7451  0.4970  0.2338
  165SAPS   H7R18597   1.445   2.708   5.927 -0.7132 -0.8354 -3.3648
  165SAPS   H7S18598   1.475   2.796   5.774  1.3909 -0.1092  0.3180
  165SAPS   C2818599   1.359   2.897   5.938 -0.7925 -0.0416 -0.2826
  165SAPS   H8R18600   1.390   2.956   6.026 -1.8705  0.7220 -0.3970
  165SAPS   C2918601   1.240   2.923   5.880  0.2795 -0.7129 -0.5492
  165SAPS   H9R18602   1.174   2.997   5.927  1.7166  1.6935 -2.1371
  165SAPS  C21018603   1.189   2.856   5.760 -0.1394 -0.1950  1.0706
  165SAPS  H10R18604   1.264   2.831   5.682 -0.7023  1.7640 -0.1564
  165SAPS  H10S18605   1.127   2.926   5.701 -0.6757 -1.8322 -0.4125
  165SAPS  C21118606   1.109   2.732   5.788  0.2217  0.3254  0.1635
  165SAPS  H11R18607   1.109   2.693   5.891 -0.2781 -0.6977 -0.2126
  165SAPS  C21218608   1.039   2.661   5.706 -0.1689  0.1718  0.6945
  165SAPS  H12R18609   1.001   2.563   5.739 -2.0310  0.4416 -0.4871
  165SAPS  C21318610   1.025   2.676   5.556  0.4302 -0.6224 -1.2127
  165SAPS  H13R18611   1.107   2.628   5.500  0.9707  0.0086 -0.9746
  165SAPS  H13S18612   1.044   2.785   5.544  0.8155 -0.0809  2.7225
  165SAPS  C21418613   0.888   2.646   5.517 -0.1985  0.1949  0.5362
  165SAPS  H14R18614   0.817   2.618   5.596 -1.8586  0.3383 -0.8407
  165SAPS  C21518615   0.847   2.625   5.390  0.5055 -0.3189 -0.3729
  165SAPS  H15R18616   0.744   2.590   5.375  0.5009 -0.6270  0.3553
  165SAPS  C21618617   0.944   2.643   5.281  0.6183 -0.2099  0.9218
  165SAPS  H16R18618   0.977   2.541   5.252 -1.8990 -0.7811 -0.1917
  165SAPS  H16S18619   1.040   2.693   5.305  2.2008 -1.5377 -2.0919
  165SAPS  C21718620   0.891   2.703   5.155 -0.2575 -0.2390  0.4142
  165SAPS  H17R18621   0.889   2.813   5.170  2.6973  0.1086 -0.9704
  165SAPS  H17S18622   0.787   2.676   5.128 -0.0266 -1.2039  0.4546
  165SAPS  C21818623   0.968   2.670   5.027  0.2985 -0.0349  0.7789
  165SAPS  H18R18624   0.994   2.562   5.020 -1.0788 -0.2607 -3.4622
  165SAPS  H18S18625   1.072   2.706   5.024  0.1586  0.5637 -3.5135
  165SAPS  C21918626   0.895   2.711   4.892 -0.0500  0.0416  0.1490
  165SAPS  H19R18627   0.901   2.820   4.870 -2.7342 -0.0366 -1.4645
  165SAPS  H19S18628   0.787   2.685   4.896  0.7520 -4.0526 -0.4528
  165SAPS  C22018629   0.948   2.636   4.765  0.6905 -0.0924  0.1805
  165SAPS  H20R18630   1.052   2.671   4.748 -0.8636  3.5311 -3.6948
  165SAPS  H20S18631   0.890   2.651   4.671  1.3740  0.5798 -0.1407
  165SAPS  H20T18632   0.957   2.532   4.802  0.7638  0.8440  3.0368
  165SAPS   C3318633   2.435   2.717   5.750 -0.0085 -0.0376 -0.2834
  165SAPS   H3X18634   2.439   2.608   5.770 -0.3932  0.0248  0.1460
  165SAPS   H3Y18635   2.529   2.755   5.797  1.0846 -1.2626 -1.3963
  165SAPS   C3418636   2.430   2.738   5.596  0.1655 -0.3747 -0.4082
  165SAPS   H4X18637   2.526   2.698   5.557 -0.7564 -3.3525  0.1386
  165SAPS   H4Y18638   2.433   2.846   5.572 -0.2866 -0.4864 -1.0033
  165SAPS   C3518639   2.302   2.691   5.520 -0.2959  0.1666  0.2526
  165SAPS   H5X18640   2.215   2.747   5.560 -2.7589 -2.2899 -1.3408
  165SAPS   H5Y18641   2.282   2.582   5.522 -0.1910  0.0959 -1.4419
  165SAPS   C3618642   2.315   2.739   5.375 -0.2663  0.2246  0.1292
  165SAPS   H6X18643   2.312   2.849   5.363  2.3630  0.2650 -0.7215
  165SAPS   H6Y18644   2.225   2.698   5.325 -0.8535 -0.9460  2.0338
  165SAPS   C3718645   2.432   2.685   5.291  0.7896  0.4127 -0.5478
  165SAPS   H7X18646   2.433   2.574   5.297 -1.9053  0.2000 -2.5474
  165SAPS   H7Y18647   2.530   2.713   5.336  0.6885 -0.6642  0.3661
  165SAPS   C3818648   2.420   2.701   5.145  0.0768  0.1839 -0.6196
  165SAPS   H8X18649   2.316   2.718   5.112  0.1373  0.2229 -0.7932
  165SAPS   H8Y18650   2.460   2.609   5.096  0.1249 -0.4261  0.5491
  165SAPS   C3918651   2.498   2.822   5.091 -0.2638  0.9497 -0.1739
  165SAPS   H9X18652   2.604   2.803   5.117 -0.6047 -0.8665  0.0203
  165SAPS   H9Y18653   2.471   2.921   5.133 -1.2918  1.7813 -2.5920
  165SAPS  C31018654   2.498   2.822   4.938 -0.3149 -0.5497 -0.2680
  165SAPS  H10X18655   2.399   2.796   4.896  0.7490 -1.9093 -2.0796
  165SAPS  H10Y18656   2.570   2.748   4.898 -0.2135  0.3798 -1.9147
  165SAPS  C31118657   2.528   2.964   4.881  0.3847  1.0472  0.2739
  165SAPS  H11X18658   2.635   2.983   4.903  0.4482 -0.8854  1.9270
  165SAPS  H11Y18659   2.464   3.037   4.935 -2.2026 -0.1168 -1.0431
  165SAPS  C31218660   2.503   2.975   4.734 -0.7651  0.1199 -0.4461
  165SAPS  H12X18661   2.460   3.068   4.692 -0.9850 -0.8547 -2.4689
  165SAPS  H12Y18662   2.413   2.917   4.705 -1.4591  0.2577  1.2761
  165SAPS  C31318663   2.623   2.938   4.651 -0.3491  0.0994  1.1995
  165SAPS  H13X18664   2.668   2.840   4.678  0.1188 -0.2777 -0.7970
  165SAPS  H13Y18665   2.698   3.015   4.682 -1.1295  1.7473 -0.7756
  165SAPS  C31418666   2.587   2.935   4.502  0.0495 -0.0800 -1.1967
  165SAPS  H14X18667   2.535   3.031   4.480  0.5527  0.6303  0.5412
  165SAPS  H14Y18668   2.512   2.858   4.475 -0.7075  1.0681 -2.4690
  165SAPS  C31518669   2.703   2.910   4.404 -0.5095 -0.0962 -0.2491
  165SAPS  H15X18670   2.771   2.832   4.446  2.0338  1.9868 -0.2416
  165SAPS  H15Y18671   2.771   2.998   4.404 -0.3338 -0.2257  0.3429
  165SAPS  C31618672   2.665   2.887   4.260 -0.0438 -0.4638  0.2284
  165SAPS  H16X18673   2.756   2.843   4.214  0.9685 -0.8900  2.5098
  165SAPS  H16Y18674   2.628   2.978   4.208 -0.5471 -1.4917 -1.2828
  165SAPS  C31718675   2.551   2.784   4.240 -0.0898  0.3546 -0.4400
  165SAPS  H17X18676   2.543   2.755   4.133  0.3045 -1.7708  0.0507
  165SAPS  H17Y18677   2.451   2.826   4.265  0.0063 -0.0024  0.5942
  165SAPS  C31818678   2.574   2.654   4.314  0.4177 -0.6064  0.7998
  165SAPS  H18X18679   2.596   2.674   4.421  1.7695  2.2215  0.0814
  165SAPS  H18Y18680   2.654   2.594   4.266  0.1435  1.1764 -2.1230
  165SAPS  H18Z18681   2.483   2.589   4.313  1.0342 -1.4914  0.5366
  166SAPS     N18682   6.264   3.317   6.566 -0.2145 -0.0357  0.2892
  166SAPS   HN118683   6.194   3.240   6.573  0.8421 -1.4349 -2.6408
  166SAPS   HN218684   6.258   3.372   6.477  1.2521 -0.5187 -0.1346
  166SAPS   HN318685   6.357   3.271   6.564 -1.7622 -3.7155  3.0192
  166SAPS   C1218686   6.257   3.410   6.684 -0.1769 -0.2460  0.5363
  166SAPS  H12A18687   6.160   3.459   6.682 -0.8427 -1.4187  2.1734
  166SAPS   C1318688   6.257   3.354   6.827 -0.0783  0.0508 -0.2326
  166SAPS  O13A18689   6.275   3.232   6.848 -0.4931  0.5691  0.5689
  166SAPS  O13B18690   6.234   3.436   6.925  0.0365  0.5915 -0.7948
  166SAPS   C1118691   6.352   3.532   6.675  0.5693  0.4264 -0.1712
  166SAPS  H11A18692   6.457   3.499   6.658  0.8010  1.2553 -0.4064
  166SAPS  H11B18693   6.352   3.580   6.775  0.4786  0.4045 -0.1607
  166SAPS     P18694   6.392   3.729   6.501  0.2099 -0.1073  0.0795
  166SAPS   O1318695   6.328   3.754   6.371  0.0400  0.2581  0.4662
  166SAPS   O1418696   6.404   3.842   6.594  0.2052 -0.9847  0.9118
  166SAPS   O1218697   6.306   3.619   6.571  0.6192 -0.4116  0.1707
  166SAPS   O1118698   6.541   3.669   6.491 -0.3390 -0.3850  0.0770
  166SAPS    C118699   6.569   3.544   6.424  0.5364 -0.3216 -0.4256
  166SAPS    HA18700   6.660   3.497   6.466  2.2676  0.7738 -2.6881
  166SAPS    HB18701   6.485   3.472   6.430 -0.8794  1.3977  4.3338
  166SAPS    C218702   6.608   3.570   6.270  0.3268 -0.1941  0.5136
  166SAPS    HS18703   6.677   3.655   6.256  0.8654 -0.9187 -1.7973
  166SAPS   O2118704   6.482   3.593   6.199 -0.3153  0.9630 -0.7231
  166SAPS   C2118705   6.478   3.705   6.133 -0.1757 -0.2455 -0.0005
  166SAPS   O2218706   6.565   3.793   6.137 -0.2820  0.1717  0.4951
  166SAPS   C2218707   6.338   3.715   6.076 -0.1877 -0.0085 -0.1647
  166SAPS   H2R18708   6.286   3.621   6.105  0.9480 -1.4885 -2.5958
  166SAPS   H2S18709   6.292   3.808   6.116 -1.4398 -0.4007 -0.6566
  166SAPS    C318710   6.684   3.454   6.212 -0.2208  0.6920  0.9950
  166SAPS    HX18711   6.627   3.358   6.214  0.8558 -0.0007  0.0858
  166SAPS    HY18712   6.774   3.426   6.270 -0.6639 -1.7657  0.6115
  166SAPS   O3118713   6.706   3.487   6.075 -0.5002 -0.0736 -0.1846
  166SAPS   C3118714   6.825   3.558   6.051  0.2588 -0.7286 -0.5452
  166SAPS   O3218715   6.888   3.613   6.139  0.2837 -0.0057  0.7949
  166SAPS   C3218716   6.840   3.564   5.902 -1.0061 -0.2231 -0.6984
  166SAPS   H2X18717   6.831   3.466   5.852  0.6054  0.4494 -2.4061
  166SAPS   H2Y18718   6.943   3.600   5.883 -0.7764  0.1847  1.1273
  166SAPS   C2318719   6.331   3.732   5.926 -0.5067 -0.1847 -0.3394
  166SAPS   H3R18720   6.227   3.703   5.898 -0.2479  0.6731 -2.3722
  166SAPS   H3S18721   6.399   3.670   5.862  0.9074  1.4353 -0.4846
  166SAPS   C2418722   6.362   3.881   5.893 -0.2918 -0.3810  0.1596
  166SAPS   H4R18723   6.471   3.901   5.886 -0.0125 -2.0259 -0.6816
  166SAPS   H4S18724   6.325   3.945   5.976 -1.1365 -0.2278 -0.3235
  166SAPS   C2518725   6.286   3.915   5.769 -0.4511 -0.2457 -0.5421
  166SAPS   H5R18726   6.187   3.869   5.762  0.0306 -1.1706 -1.6773
  166SAPS   C2618727   6.333   3.997   5.675 -0.2921  0.0003 -0.4632
  166SAPS   H6R18728   6.276   4.011   5.582 -0.3613 -2.5132 -0.8590
  166SAPS   C2718729   6.470   4.063   5.668 -0.4561  0.2100 -0.4678
  166SAPS   H7R18730   6.512   4.070   5.566  2.9895  0.8808  0.8643
  166SAPS   H7S18731   6.552   4.008   5.720 -0.0256  1.1859 -0.0960
  166SAPS   C2818732   6.448   4.204   5.718 -0.0938  0.7814  0.0330
  166SAPS   H8R18733   6.370   4.255   5.661  0.1456  0.9053 -0.1847
  166SAPS   C2918734   6.540   4.266   5.791  0.4452  0.2967 -0.2466
  166SAPS   H9R18735   6.509   4.366   5.822 -0.9738 -0.3065  0.3805
  166SAPS  C21018736   6.667   4.207   5.848  0.6918  0.0962  0.0792
  166SAPS  H10R18737   6.704   4.129   5.779 -2.3647  0.2252 -1.9179
  166SAPS  H10S18738   6.638   4.169   5.949  1.8444 -0.6429  0.1387
  166SAPS  C21118739   6.780   4.311   5.869 -0.1338 -0.0787 -0.0150
  166SAPS  H11R18740   6.787   4.347   5.973 -1.8313  3.0560 -0.8473
  166SAPS  C21218741   6.880   4.351   5.785  0.3247 -0.1974  0.2975
  166SAPS  H12R18742   6.963   4.407   5.830  0.3993 -1.8782  2.4692
  166SAPS  C21318743   6.886   4.328   5.638 -0.9811  0.5034 -0.9107
  166SAPS  H13R18744   6.831   4.232   5.623 -1.8262  0.6290  1.0011
  166SAPS  H13S18745   6.992   4.316   5.610 -0.7421 -0.2986  0.2525
  166SAPS  C21418746   6.810   4.437   5.567 -0.4732 -0.0913  0.4135
  166SAPS  H14R18747   6.735   4.495   5.623  2.0389  1.5997  2.2333
  166SAPS  C21518748   6.828   4.472   5.434 -0.1226  0.0616 -0.0895
  166SAPS  H15R18749   6.760   4.548   5.394 -1.6317 -0.2934  1.6735
  166SAPS  C21618750   6.925   4.412   5.334  0.4479  0.3170  0.0198
  166SAPS  H16R18751   6.987   4.340   5.391 -0.5572 -0.1637  0.5279
  166SAPS  H16S18752   6.997   4.492   5.306 -0.9786  1.1676 -1.3570
  166SAPS  C21718753   6.856   4.346   5.213 -0.5294  0.2081  0.1532
  166SAPS  H17R18754   6.942   4.297   5.162 -0.6184  1.7829 -1.6280
  166SAPS  H17S18755   6.803   4.420   5.149 -0.1844  1.8550  1.6829
  166SAPS  C21818756   6.754   4.237   5.257  0.0914 -0.2760  0.3520
  166SAPS  H18R18757   6.663   4.299   5.269 -0.0719 -0.1381 -1.3382
  166SAPS  H18S18758   6.779   4.190   5.355 -0.9192  0.4436  0.9682
  166SAPS  C21918759   6.724   4.122   5.159  0.0473  1.1738 -0.1174
  166SAPS  H19R18760   6.683   4.032   5.210  2.2899 -0.9703 -1.8686
  166SAPS  H19S18761   6.808   4.065   5.115 -0.8240 -1.4899  1.4636
  166SAPS  C22018762   6.642   4.163   5.039  0.2146  0.4841 -0.7171
  166SAPS  H20R18763   6.543   4.194   5.080 -0.1759 -0.7442 -0.6936
  166SAPS  H20S18764   6.626   4.077   4.971  2.6661 -1.6245  1.1681
  166SAPS  H20T18765   6.688   4.248   4.985 -0.9874  1.5392 -0.1406
  166SAPS   C3318766   6.746   3.672   5.840  0.3408  0.3501  0.1995
  166SAPS   H3X18767   6.771   3.765   5.895  1.8661 -0.8694  1.6819
  166SAPS   H3Y18768   6.638   3.650   5.852  0.3770  0.3194  0.4682
  166SAPS   C3418769   6.782   3.690   5.685  0.3078  0.5099  0.6781
  166SAPS   H4X18770   6.747   3.599   5.630  4.1366 -0.8436  0.1557
  166SAPS   H4Y18771   6.893   3.700   5.678  0.2845  0.1467 -0.5496
  166SAPS   C3518772   6.726   3.823   5.628 -0.0798  0.7441  0.4290
  166SAPS   H5X18773   6.757   3.909   5.692  0.8625  0.7785 -0.0613
  166SAPS   H5Y18774   6.616   3.811   5.640 -0.0336  0.0792  0.2224
  166SAPS   C3618775   6.756   3.834   5.476  0.0795  0.0819  0.6540
  166SAPS   H6X18776   6.864   3.826   5.453 -0.0418  1.2743 -0.4515
  166SAPS   H6Y18777   6.724   3.933   5.436 -2.7194 -1.2648 -0.7290
  166SAPS   C3718778   6.674   3.730   5.392  0.1227 -0.7755 -0.1748
  166SAPS   H7X18779   6.568   3.763   5.388  0.3539 -0.1378 -1.4361
  166SAPS   H7Y18780   6.686   3.633   5.445 -0.8166 -0.7951  0.0191
  166SAPS   C3818781   6.708   3.710   5.239  0.1872  0.0820  0.0461
  166SAPS   H8X18782   6.817   3.686   5.232 -0.2658 -2.9764  1.4757
  166SAPS   H8Y18783   6.689   3.800   5.178  1.0371 -0.2835 -0.7975
  166SAPS   C3918784   6.624   3.592   5.185 -0.0746  0.1352  0.1472
  166SAPS   H9X18785   6.520   3.630   5.185  0.6556  2.4320 -1.9606
  166SAPS   H9Y18786   6.644   3.498   5.240  0.8387  0.2215 -0.0187
  166SAPS  C31018787   6.654   3.554   5.033  0.1082 -1.2882  0.2437
  166SAPS  H10X18788   6.569   3.494   4.993  1.0324 -1.4795 -1.5341
  166SAPS  H10Y18789   6.745   3.491   5.020  0.3596 -0.6324 -1.5356
  166SAPS  C31118790   6.678   3.675   4.936  0.0842 -0.0361 -0.0608
  166SAPS  H11X18791   6.780   3.716   4.925  0.0773 -0.0045 -0.0100
  166SAPS  H11Y18792   6.610   3.752   4.980 -0.1944  0.2825 -1.0129
  166SAPS  C31218793   6.640   3.643   4.795 -0.9733 -0.0761  0.1610
  166SAPS  H12X18794   6.634   3.734   4.731  0.6559 -0.1694 -0.1743
  166SAPS  H12Y18795   6.539   3.598   4.793 -0.6490 -1.0218  2.1925
  166SAPS  C31318796   6.744   3.550   4.717  0.4003  0.0581  0.2783
  166SAPS  H13X18797   6.764   3.452   4.765  0.7898 -0.2000 -0.4049
  166SAPS  H13Y18798   6.840   3.606   4.716 -0.9240  2.4206 -0.2620
  166SAPS  C31418799   6.708   3.526   4.574  0.0827 -0.2515 -0.0235
  166SAPS  H14X18800   6.597   3.522   4.568  0.0492  1.2353 -0.8722
  166SAPS  H14Y18801   6.741   3.425   4.541 -1.2816 -0.4280 -0.9446
  166SAPS  C31518802   6.738   3.648   4.476  0.5783  0.5692  0.3048
  166SAPS  H15X18803   6.849   3.649   4.469  0.5062  2.3066 -1.8934
  166SAPS  H15Y18804   6.704   3.749   4.508 -0.9802  0.1559  0.0120
  166SAPS  C31618805   6.687   3.629   4.333  0.2121  0.3042 -0.1093
  166SAPS  H16X18806   6.739   3.541   4.287  0.4377  0.4386 -0.1096
  166SAPS  H16Y18807   6.718   3.719   4.276  2.6275  0.1308  0.8301
  166SAPS  C31718808   6.534   3.613   4.318 -0.8303 -0.0481 -0.1866
  166SAPS  H17X18809   6.480   3.689   4.377 -1.3564  0.8526 -1.7748
  166SAPS  H17Y18810   6.506   3.514   4.361 -1.4448 -1.2649 -3.1092
  166SAPS  C31818811   6.486   3.606   4.175  0.0439 -0.4780 -0.9467
  166SAPS  H18X18812   6.485   3.702   4.119 -2.3514 -2.1394 -4.0722
  166SAPS  H18Y18813   6.385   3.562   4.184 -0.3861  0.8912  2.8733
  166SAPS  H18Z18814   6.542   3.535   4.110  1.2247 -0.0837 -0.4040
  167SAPS     N18815   2.197   3.690   6.879 -0.6449  0.4175  0.3427
  167SAPS   HN118816   2.231   3.767   6.941 -1.0732  1.9018 -1.2100
  167SAPS   HN218817   2.281   3.644   6.839  0.4683  0.3924  2.5239
  167SAPS   HN318818   2.156   3.744   6.800 -2.6292 -1.3100  0.1088
  167SAPS   C1218819   2.091   3.596   6.939  0.0152 -0.5931  0.0238
  167SAPS  H12A18820   2.134   3.528   7.011  0.8006  1.4273  1.5887
  167SAPS   C1318821   1.981   3.669   7.018 -0.6185  0.9945 -0.4143
  167SAPS  O13A18822   1.983   3.791   7.047 -0.1740 -0.0969 -0.1406
  167SAPS  O13B18823   1.892   3.595   7.063  0.2028  0.4970 -0.4147
  167SAPS   C1118824   2.033   3.520   6.819  0.2024  0.1888 -0.7514
  167SAPS  H11A18825   1.971   3.583   6.752  1.9805  0.9119 -1.7704
  167SAPS  H11B18826   1.972   3.440   6.867  1.2056  0.2731  0.7322
  167SAPS     P18827   2.104   3.387   6.606 -0.3800  0.1924 -0.1325
  167SAPS   O1318828   2.185   3.267   6.601 -0.0835  0.4852 -0.1128
  167SAPS   O1418829   1.959   3.377   6.580 -0.2482  0.2617  0.4550
  167SAPS   O1218830   2.138   3.458   6.747  0.1347 -0.4946 -0.9133
  167SAPS   O1118831   2.162   3.498   6.503  0.5488 -0.3865 -0.7806
  167SAPS    C118832   2.306   3.519   6.481 -0.2848 -0.3514 -0.5572
  167SAPS    HA18833   2.342   3.622   6.500 -1.4536  0.0415 -0.3877
  167SAPS    HB18834   2.375   3.445   6.529  0.4573  0.6193 -0.0983
  167SAPS    C218835   2.322   3.496   6.326  0.2663  0.1726  0.2958
  167SAPS    HS18836   2.259   3.563   6.264 -1.2975 -1.7723 -0.3176
  167SAPS   O2118837   2.302   3.353   6.294  0.3366 -0.1284 -0.5736
  167SAPS   C2118838   2.183   3.323   6.262  0.7787  0.4784  0.0288
  167SAPS   O2218839   2.086   3.396   6.251  0.4779  0.7045  0.4138
  167SAPS   C2218840   2.167   3.171   6.237  0.4233  0.3472 -0.3344
  167SAPS   H2R18841   2.242   3.133   6.310  0.4273  0.5028 -0.2557
  167SAPS   H2S18842   2.065   3.141   6.267  0.3445  0.0645 -0.8878
  167SAPS    C318843   2.467   3.522   6.283 -0.2540  0.9968  0.6148
  167SAPS    HX18844   2.528   3.453   6.345 -0.2083  0.7594  0.3052
  167SAPS    HY18845   2.501   3.625   6.308  2.0848  1.3595 -3.2950
  167SAPS   O3118846   2.488   3.503   6.134 -0.4274  0.3810  0.3379
  167SAPS   C3118847   2.562   3.397   6.101  0.3021  0.2365  0.3566
  167SAPS   O3218848   2.627   3.326   6.176 -0.3119  0.1899 -0.3776
  167SAPS   C3218849   2.581   3.407   5.952  0.3273 -0.5564  0.4473
  167SAPS   H2X18850   2.662   3.340   5.917  0.9605 -1.2641  3.0509
  167SAPS   H2Y18851   2.604   3.515   5.938  2.1457 -1.0694 -0.8621
  167SAPS   C2318852   2.193   3.144   6.087  0.5396 -0.5341  0.4619
  167SAPS   H3R18853   2.155   3.042   6.065 -2.8184  0.2331  2.0452
  167SAPS   H3S18854   2.303   3.138   6.075  0.8768  1.9325  1.7011
  167SAPS   C2418855   2.134   3.244   5.986  0.7154  0.2463 -0.3730
  167SAPS   H4R18856   2.193   3.221   5.894  0.1617  1.3130 -1.0162
  167SAPS   H4S18857   2.147   3.352   6.007  1.7569 -0.1007  0.8472
  167SAPS   C2518858   1.986   3.226   5.964 -0.2982  0.0571 -0.5221
  167SAPS   H5R18859   1.923   3.277   6.038 -2.7280  2.1987 -3.7578
  167SAPS   C2618860   1.938   3.143   5.877  0.7981  0.3888  0.1974
  167SAPS   H6R18861   1.829   3.127   5.885  0.9890 -1.7768 -0.7653
  167SAPS   C2718862   2.008   3.057   5.776  0.4320  0.1225 -0.1970
  167SAPS   H7R18863   2.116   3.046   5.802  0.5889  0.0780 -0.8465
  167SAPS   H7S18864   2.017   3.090   5.670  0.2931 -0.4627 -0.3926
  167SAPS   C2818865   1.951   2.915   5.776  0.0436  0.2567  0.0871
  167SAPS   H8R18866   1.982   2.843   5.853 -0.6791 -1.6341 -1.3031
  167SAPS   C2918867   1.861   2.870   5.684 -0.2813  0.1228  0.1414
  167SAPS   H9R18868   1.823   2.768   5.701 -1.5742  0.5072 -0.3120
  167SAPS  C21018869   1.808   2.945   5.570 -0.4978 -0.9239 -0.3186
  167SAPS  H10R18870   1.784   3.044   5.613 -1.0547 -2.0493  2.1240
  167SAPS  H10S18871   1.712   2.897   5.540 -0.5766 -0.9307 -0.0514
  167SAPS  C21118872   1.906   2.944   5.453 -0.0332  0.6497 -0.5712
  167SAPS  H11R18873   2.012   2.931   5.480 -0.3236 -1.7954 -0.3654
  167SAPS  C21218874   1.881   2.945   5.321 -0.0828 -0.4421  0.2737
  167SAPS  H12R18875   1.961   2.945   5.246 -2.8922  1.7054 -2.9844
  167SAPS  C21318876   1.745   2.938   5.262  0.5920 -0.2780 -0.1199
  167SAPS  H13R18877   1.709   3.034   5.219 -1.1885 -1.5915 -1.7461
  167SAPS  H13S18878   1.663   2.913   5.333 -0.5143  2.5404 -0.2673
  167SAPS  C21418879   1.751   2.834   5.151 -1.1638 -0.2435  0.6958
  167SAPS  H14R18880   1.811   2.745   5.173  0.1511  0.9456  2.1435
  167SAPS  C21518881   1.679   2.838   5.034  0.2899 -0.4552  0.1886
  167SAPS  H15R18882   1.709   2.763   4.960 -0.8635 -0.7437  0.0035
  167SAPS  C21618883   1.575   2.942   4.986 -0.1165  0.5559  0.1596
  167SAPS  H16R18884   1.544   3.003   5.074  0.1203 -1.7377  1.9338
  167SAPS  H16S18885   1.481   2.893   4.953 -0.0225 -0.8530  1.8285
  167SAPS  C21718886   1.631   3.031   4.871 -0.2046  0.3200 -0.3343
  167SAPS  H17R18887   1.714   3.091   4.914  1.3811 -1.0676 -1.3108
  167SAPS  H17S18888   1.546   3.094   4.838 -1.4782 -2.0665 -1.9577
  167SAPS  C21818889   1.651   2.949   4.743  0.0537 -0.6427  0.2858
  167SAPS  H18R18890   1.557   2.892   4.727  0.0697 -1.0865  1.6374
  167SAPS  H18S18891   1.729   2.870   4.745  1.2029  0.2885 -2.7351
  167SAPS  C21918892   1.676   3.034   4.614  0.2243  0.9462 -0.6023
  167SAPS  H19R18893   1.588   3.102   4.607 -1.4367 -1.0412 -0.1426
  167SAPS  H19S18894   1.684   2.966   4.526 -0.5741  1.2287 -0.9086
  167SAPS  C22018895   1.803   3.124   4.614  0.6236 -0.5338 -0.3276
  167SAPS  H20R18896   1.896   3.064   4.608  1.4145  0.7725 -1.5568
  167SAPS  H20S18897   1.799   3.180   4.710  0.4243 -0.3791 -0.4244
  167SAPS  H20T18898   1.789   3.187   4.524 -0.2026 -2.2396 -1.4337
  167SAPS   C3318899   2.446   3.368   5.884 -0.2573 -0.0140 -0.1609
  167SAPS   H3X18900   2.353   3.410   5.929  0.9261  2.9315 -0.2340
  167SAPS   H3Y18901   2.449   3.257   5.893  0.0301 -0.1720 -2.0113
  167SAPS   C3418902   2.440   3.406   5.737  0.4425  0.2096  0.5114
  167SAPS   H4X18903   2.541   3.395   5.692 -0.1811 -2.3643 -0.4455
  167SAPS   H4Y18904   2.406   3.510   5.714 -1.8618 -0.8147 -1.1747
  167SAPS   C3518905   2.340   3.316   5.663  0.1816  0.2042  0.1175
  167SAPS   H5X18906   2.235   3.329   5.698  0.3977 -1.2091  1.3915
  167SAPS   H5Y18907   2.364   3.212   5.696  1.0655  0.6037  0.7898
  167SAPS   C3618908   2.354   3.333   5.510 -0.2343 -0.9314 -0.1778
  167SAPS   H6X18909   2.461   3.341   5.480  0.3796 -1.2837  1.8028
  167SAPS   H6Y18910   2.306   3.433   5.500  0.8588 -0.6098 -3.7026
  167SAPS   C3718911   2.273   3.237   5.429 -0.9238  0.0382  0.5753
  167SAPS   H7X18912   2.168   3.229   5.464 -0.7105  0.2638  1.2884
  167SAPS   H7Y18913   2.331   3.142   5.435 -1.6230 -0.4864 -0.7440
  167SAPS   C3818914   2.261   3.273   5.277 -0.7882 -0.3851 -0.6199
  167SAPS   H8X18915   2.365   3.299   5.247 -0.5970 -0.3525  0.0528
  167SAPS   H8Y18916   2.200   3.362   5.253  1.3411  1.1114 -0.7618
  167SAPS   C3918917   2.207   3.161   5.187  0.0554 -0.2051  0.3241
  167SAPS   H9X18918   2.102   3.151   5.223 -0.0877  1.9446  0.6331
  167SAPS   H9Y18919   2.258   3.062   5.193 -2.1991 -1.4307  0.4546
  167SAPS  C31018920   2.205   3.211   5.042 -0.4120 -0.3521 -0.1146
  167SAPS  H10X18921   2.312   3.202   5.013 -0.2297  0.0274  0.4218
  167SAPS  H10Y18922   2.176   3.318   5.036 -2.3518 -0.8792 -6.2430
  167SAPS  C31118923   2.113   3.137   4.950 -0.2518 -0.2275  0.2662
  167SAPS  H11X18924   2.097   3.182   4.849 -0.6679 -1.6731 -0.3531
  167SAPS  H11Y18925   2.010   3.124   4.989 -0.5869  2.6726  0.5633
  167SAPS  C31218926   2.165   3.002   4.907 -0.5471 -0.3425 -0.0770
  167SAPS  H12X18927   2.159   2.952   5.006 -1.2759 -1.0318 -0.4653
  167SAPS  H12Y18928   2.272   3.001   4.878 -0.4447  1.9231  0.0634
  167SAPS  C31318929   2.078   2.918   4.823 -0.3640 -0.0397  0.1875
  167SAPS  H13X18930   2.128   2.935   4.725 -2.0373 -1.1463 -0.9077
  167SAPS  H13Y18931   1.970   2.946   4.828 -0.5891 -0.9484  0.7922
  167SAPS  C31418932   2.091   2.765   4.861 -0.0443 -0.0030  0.7804
  167SAPS  H14X18933   2.056   2.742   4.964  0.1020 -1.7071  0.4722
  167SAPS  H14Y18934   2.200   2.743   4.857 -0.0707 -0.0859  0.5276
  167SAPS  C31518935   2.021   2.680   4.758 -0.0991 -0.0201 -0.0273
  167SAPS  H15X18936   2.059   2.698   4.655  0.1019  1.2548  0.2566
  167SAPS  H15Y18937   1.914   2.709   4.751  0.1452  1.6908  2.1569
  167SAPS  C31618938   2.036   2.532   4.795 -0.3094 -0.1773  0.3792
  167SAPS  H16X18939   1.955   2.516   4.869 -0.4451 -2.3751 -0.1934
  167SAPS  H16Y18940   2.132   2.512   4.847 -0.0900 -0.1839 -0.0256
  167SAPS  C31718941   2.005   2.446   4.667  0.3359 -0.2202  0.1354
  167SAPS  H17X18942   2.000   2.338   4.694  0.8770 -0.0631  0.9210
  167SAPS  H17Y18943   2.088   2.455   4.594  0.4525  2.2962  0.4919
  167SAPS  C31818944   1.870   2.472   4.608  0.5970  0.2644 -0.2710
  167SAPS  H18X18945   1.824   2.380   4.565  2.0084  0.2881 -1.9368
  167SAPS  H18Y18946   1.876   2.548   4.527 -1.4899 -1.3639 -2.0928
  167SAPS  H18Z18947   1.805   2.506   4.691 -0.3623 -1.7080 -0.1577
  168SAPS     N18948   0.907   5.176   6.380 -0.5409  0.0563  0.2188
  168SAPS   HN118949   0.962   5.095   6.346  0.4546  0.4356  0.8716
  168SAPS   HN218950   0.812   5.171   6.340 -0.3384 -2.1001 -0.1010
  168SAPS   HN318951   0.958   5.257   6.340 -0.2229 -0.5342 -0.5974
  168SAPS   C1218952   0.908   5.190   6.532  0.6136 -0.1408 -0.4646
  168SAPS  H12A18953   0.825   5.130   6.565 -0.3072  1.2644 -0.1546
  168SAPS   C1318954   1.032   5.128   6.608 -0.5848  0.5304  0.5357
  168SAPS  O13A18955   1.116   5.065   6.541 -0.3174  0.3340 -0.3016
  168SAPS  O13B18956   1.036   5.133   6.735 -0.3548  0.4047 -0.3933
  168SAPS   C1118957   0.867   5.332   6.568 -1.9123 -0.4439 -0.5932
  168SAPS  H11A18958   0.943   5.395   6.515 -0.3199  1.0598  3.1396
  168SAPS  H11B18959   0.888   5.349   6.675 -1.8421  0.3787 -0.7341
  168SAPS     P18960   0.632   5.402   6.648  0.1558  0.0684 -0.3096
  168SAPS   O1318961   0.658   5.323   6.770  0.0702 -0.4593 -0.0782
  168SAPS   O1418962   0.618   5.544   6.653 -0.5062 -1.0223  0.4612
  168SAPS   O1218963   0.735   5.375   6.534 -0.0368 -0.9750  0.1987
  168SAPS   O1118964   0.505   5.347   6.576 -0.5444 -0.3911  0.2976
  168SAPS    C118965   0.507   5.202   6.542  0.3530 -0.3139 -0.2531
  168SAPS    HA18966   0.611   5.165   6.530  0.0965 -1.5960  1.2195
  168SAPS    HB18967   0.462   5.135   6.617 -0.5377  0.3907 -0.1460
  168SAPS    C218968   0.433   5.182   6.406  0.0421  0.4351 -0.7830
  168SAPS    HS18969   0.476   5.099   6.346  0.0953 -0.5740  0.6026
  168SAPS   O2118970   0.438   5.297   6.321 -0.1494  0.0620  0.1118
  168SAPS   C2118971   0.558   5.312   6.258  0.0245 -0.4235  0.5346
  168SAPS   O2218972   0.663   5.258   6.286 -0.2480  0.0391 -0.4536
  168SAPS   C2218973   0.521   5.388   6.123 -0.6345  0.1360 -0.0448
  168SAPS   H2R18974   0.423   5.365   6.077 -0.3149  0.5853 -0.9904
  168SAPS   H2S18975   0.508   5.492   6.160  0.8171  0.1369  0.5502
  168SAPS    C318976   0.291   5.122   6.419  0.1007  0.1712 -0.8319
  168SAPS    HX18977   0.244   5.197   6.486  1.0944  1.4115 -1.4727
  168SAPS    HY18978   0.283   5.026   6.474  1.0616 -0.8382 -2.3821
  168SAPS   O3118979   0.226   5.105   6.289  0.6881  0.2907  0.4513
  168SAPS   C3118980   0.242   4.981   6.235  0.2772 -0.3054  0.4716
  168SAPS   O3218981   0.280   4.888   6.300  0.1604 -0.2081 -0.2830
  168SAPS   C3218982   0.218   4.987   6.079  0.2073 -0.5265 -0.8601
  168SAPS   H2X18983   0.153   5.077   6.067  1.1415  0.0332 -1.9977
  168SAPS   H2Y18984   0.167   4.892   6.054 -0.5474 -0.3757  0.0460
  168SAPS   C2318985   0.630   5.407   6.007  0.1395 -0.8041  0.2204
  168SAPS   H3R18986   0.717   5.455   6.056  0.5166 -0.7654 -0.4752
  168SAPS   H3S18987   0.589   5.473   5.928  1.1247  0.4163  0.7020
  168SAPS   C2418988   0.677   5.268   5.949 -0.1854 -0.3805 -0.0830
  168SAPS   H4R18989   0.596   5.217   5.892 -1.9660 -2.1717  3.7321
  168SAPS   H4S18990   0.699   5.200   6.034 -1.0388  0.3890  0.7648
  168SAPS   C2518991   0.800   5.277   5.868  0.2157  0.2818  0.5567
  168SAPS   H5R18992   0.892   5.244   5.919  0.3630 -1.6780 -0.8592
  168SAPS   C2618993   0.799   5.305   5.736  0.3025 -0.2448 -0.1416
  168SAPS   H6R18994   0.900   5.297   5.693  0.3943  2.5086 -0.5906
  168SAPS   C2718995   0.680   5.322   5.643 -0.6240  0.5892  0.3840
  168SAPS   H7R18996   0.601   5.339   5.719  1.5477 -0.2810  2.9676
  168SAPS   H7S18997   0.661   5.232   5.580  1.0015  0.8372 -0.5172
  168SAPS   C2818998   0.702   5.433   5.535  0.5056 -0.0138  0.3930
  168SAPS   H8R18999   0.775   5.514   5.550  0.8238 -0.5475  1.9422
  168SAPS   C2919000   0.627   5.438   5.425  0.1872  0.4031  0.4179
  168SAPS   H9R19001   0.657   5.511   5.348 -0.4630  0.4886  0.2345
  168SAPS  C21019002   0.530   5.341   5.367  0.2050 -0.5753 -0.6671
  168SAPS  H10R19003   0.452   5.351   5.445  0.8403 -0.4585 -0.0320
  168SAPS  H10S19004   0.580   5.242   5.369  2.1564  0.3618  1.8936
  168SAPS  C21119005   0.467   5.373   5.233 -0.2073  0.2991  0.3056
  168SAPS  H11R19006   0.457   5.480   5.210  0.8531  0.2126 -0.6522
  168SAPS  C21219007   0.430   5.280   5.144 -0.9396 -0.0788  0.2051
  168SAPS  H12R19008   0.399   5.310   5.043  1.6313  0.0234 -0.6237
  168SAPS  C21319009   0.442   5.130   5.159  0.7513  0.0415  0.3557
  168SAPS  H13R19010   0.348   5.081   5.126 -0.2605  2.5034 -0.6852
  168SAPS  H13S19011   0.441   5.098   5.265  0.9692 -0.4101  0.2256
  168SAPS  C21419012   0.573   5.076   5.089  0.0764 -0.8964  0.1029
  168SAPS  H14R19013   0.659   5.067   5.157 -0.3493 -1.8125  0.5477
  168SAPS  C21519014   0.591   5.054   4.956  0.1648 -0.2153 -0.1210
  168SAPS  H15R19015   0.690   5.019   4.923  0.5439  2.2014 -1.7703
  168SAPS  C21619016   0.494   5.055   4.845  0.2157  0.3223  0.4187
  168SAPS  H16R19017   0.534   5.089   4.747 -0.3693 -0.4073 -0.0885
  168SAPS  H16S19018   0.407   5.122   4.862 -0.9477 -0.3264 -2.4878
  168SAPS  C21719019   0.431   4.913   4.820 -0.0522 -0.7363 -0.1100
  168SAPS  H17R19020   0.379   4.864   4.905  0.0708 -3.4258 -1.4899
  168SAPS  H17S19021   0.511   4.844   4.785 -2.2001 -2.6016 -1.6080
  168SAPS  C21819022   0.342   4.917   4.686  1.0400  0.0256  0.0836
  168SAPS  H18R19023   0.405   4.948   4.600 -0.5108  2.2577 -0.3048
  168SAPS  H18S19024   0.272   5.002   4.698 -1.3649 -1.7712 -0.4774
  168SAPS  C21919025   0.264   4.789   4.656 -0.0838 -0.2824  0.2076
  168SAPS  H19R19026   0.173   4.785   4.720  0.6176  0.1099  1.2654
  168SAPS  H19S19027   0.331   4.706   4.688  0.2634  0.7675  2.3627
  168SAPS  C22019028   0.212   4.780   4.509  0.5459 -0.6798  0.2328
  168SAPS  H20R19029   0.136   4.859   4.491 -1.7739 -3.0584 -1.0400
  168SAPS  H20S19030   0.163   4.682   4.491  0.7452 -0.4249 -1.9261
  168SAPS  H20T19031   0.297   4.794   4.439 -1.3126 -1.2773 -2.2900
  168SAPS   C3319032   0.349   4.998   5.997 -0.3523 -0.4448 -0.0806
  168SAPS   H3X19033   0.409   4.906   6.014  0.9533  0.5075  0.6943
  168SAPS   H3Y19034   0.406   5.082   6.043 -1.9483 -0.1138  1.3973
  168SAPS   C3419035   0.320   5.031   5.848  0.4958  0.6211 -0.1365
  168SAPS   H4X19036   0.413   5.070   5.801  0.6679 -1.0609 -1.2984
  168SAPS   H4Y19037   0.248   5.115   5.844  0.7205  0.8559  0.6043
  168SAPS   C3519038   0.264   4.910   5.759 -0.1014  0.1080 -0.4832
  168SAPS   H5X19039   0.172   4.863   5.800 -0.5576  1.5793  0.2083
  168SAPS   H5Y19040   0.339   4.830   5.741 -1.5160 -1.4544  0.2705
  168SAPS   C3619041   0.230   4.962   5.619 -0.1268 -0.0375  0.4038
  168SAPS   H6X19042   0.313   5.017   5.571  0.4361  0.4774  1.9156
  168SAPS   H6Y19043   0.150   5.038   5.632 -1.1215 -0.7423 -1.2360
  168SAPS   C3719044   0.189   4.858   5.513  0.2959 -0.5950 -0.2793
  168SAPS   H7X19045   0.086   4.826   5.537  0.1448  0.2031  0.1529
  168SAPS   H7Y19046   0.250   4.765   5.513  1.2330  0.0009  0.2412
  168SAPS   C3819047   0.184   4.914   5.370  0.1096 -0.4905 -0.1730
  168SAPS   H8X19048   0.286   4.931   5.331  0.1179 -0.7532 -0.2723
  168SAPS   H8Y19049   0.140   5.016   5.373  0.8137 -0.1849 -0.2634
  168SAPS   C3919050   0.106   4.820   5.280 -0.1572  0.2659  0.4463
  168SAPS   H9X19051   0.000   4.821   5.313  0.4598 -1.1105  2.6257
  168SAPS   H9Y19052   0.151   4.721   5.300  0.7929  0.4095 -0.7951
  168SAPS  C31019053   0.129   4.843   5.125  0.2261  1.0374 -0.2256
  168SAPS  H10X19054   0.239   4.828   5.117  0.0791  0.0836 -0.5423
  168SAPS  H10Y19055   0.105   4.946   5.089 -0.5659  1.4726  1.4526
  168SAPS  C31119056   0.062   4.741   5.038  0.3776 -0.0929 -0.5045
  168SAPS  H11X19057   0.072   4.637   5.075  0.6999 -0.1097 -0.6360
  168SAPS  H11Y19058   0.110   4.752   4.939  0.0351  0.1862 -0.6418
  168SAPS  C31219059  -0.087   4.778   5.037  0.5259  0.0542 -0.3463
  168SAPS  H12X19060  -0.099   4.884   5.006  1.3321 -0.0425 -1.0102
  168SAPS  H12Y19061  -0.130   4.765   5.139 -0.6627 -1.4816 -1.0021
  168SAPS  C31319062  -0.172   4.698   4.942 -0.0235 -0.0829 -0.5583
  168SAPS  H13X19063  -0.280   4.703   4.967 -0.3126 -1.3303 -1.4247
  168SAPS  H13Y19064  -0.130   4.595   4.945  1.7074  0.5017 -2.4232
  168SAPS  C31419065  -0.145   4.744   4.797  0.6244 -0.5844 -0.1577
  168SAPS  H14X19066  -0.038   4.754   4.768  0.6239 -3.8521 -1.7278
  168SAPS  H14Y19067  -0.195   4.843   4.792  2.7868  0.6980  1.6615
  168SAPS  C31519068  -0.208   4.655   4.689 -0.0033  0.3254  0.0982
  168SAPS  H15X19069  -0.319   4.661   4.688  0.0038  0.4042 -0.3136
  168SAPS  H15Y19070  -0.194   4.549   4.721  0.6445  0.2576 -0.4119
  168SAPS  C31619071  -0.156   4.697   4.551 -0.6300  0.2773 -0.1721
  168SAPS  H16X19072  -0.046   4.680   4.546 -0.5885  0.3086  0.4867
  168SAPS  H16Y19073  -0.157   4.806   4.532  0.5279  0.4027  0.4003
  168SAPS  C31719074  -0.244   4.620   4.450 -0.6725 -0.2769 -0.2306
  168SAPS  H17X19075  -0.242   4.672   4.352 -1.4607  0.1249 -0.0432
  168SAPS  H17Y19076  -0.351   4.634   4.476 -0.5530  1.0097 -0.3864
  168SAPS  C31819077  -0.208   4.475   4.432 -0.1557 -0.2671 -0.6865
  168SAPS  H18X19078  -0.200   4.419   4.528  2.2478 -0.4406 -0.9134
  168SAPS  H18Y19079  -0.106   4.465   4.387  0.9747 -0.0922  1.6810
  168SAPS  H18Z19080  -0.281   4.422   4.368 -1.2118 -1.3547  1.3099
  169SAPS     N19081   2.701   5.705   6.984 -0.3285 -0.1643  0.0994
  169SAPS   HN119082   2.678   5.690   7.084  1.1267 -1.9776  0.2220
  169SAPS   HN219083   2.647   5.788   6.951  1.1193  0.1581 -1.6213
  169SAPS   HN319084   2.674   5.611   6.950  2.2401 -1.0007  0.1290
  169SAPS   C1219085   2.846   5.744   6.979  0.1802  0.7865 -0.3284
  169SAPS  H12A19086   2.854   5.850   6.998 -2.2359  1.2093 -1.3108
  169SAPS   C1319087   2.939   5.666   7.070  0.5759 -0.0678  0.5824
  169SAPS  O13A19088   2.885   5.592   7.160 -0.1885  0.1981  0.2246
  169SAPS  O13B19089   3.058   5.700   7.083 -0.3490 -0.2009 -0.0747
  169SAPS   C1119090   2.892   5.730   6.830 -0.2144 -0.5585 -0.5569
  169SAPS  H11A19091   2.882   5.622   6.806 -0.9058 -0.2524 -1.7812
  169SAPS  H11B19092   2.998   5.761   6.826 -1.1116  3.1017  0.4769
  169SAPS     P19093   2.841   5.938   6.673 -0.5575  0.0796  0.2975
  169SAPS   O1319094   2.717   6.007   6.644 -0.3441  0.4027  0.3646
  169SAPS   O1419095   2.945   6.006   6.754  0.0457 -0.6883  0.1565
  169SAPS   O1219096   2.808   5.798   6.740 -0.4939  0.2429  0.2129
  169SAPS   O1119097   2.907   5.893   6.536 -0.4750 -0.3367  0.4784
  169SAPS    C119098   3.048   5.867   6.529  0.9190  0.8539  0.3273
  169SAPS    HA19099   3.100   5.961   6.501  1.6352  0.6755  1.0299
  169SAPS    HB19100   3.092   5.839   6.627  1.3514  0.3281 -0.0080
  169SAPS    C219101   3.086   5.744   6.437 -0.5567  0.0946 -0.5659
  169SAPS    HS19102   3.194   5.722   6.446 -0.9357 -1.4382  0.9575
  169SAPS   O2119103   3.052   5.772   6.298  0.3042 -0.4347 -0.3531
  169SAPS   C2119104   3.139   5.852   6.242 -0.9540  0.1718 -0.2240
  169SAPS   O2219105   3.238   5.897   6.297  0.0986 -0.1580  0.0711
  169SAPS   C2219106   3.104   5.872   6.094  0.0425  0.0245  0.8010
  169SAPS   H2R19107   3.186   5.821   6.041 -0.0244  0.9625 -0.2313
  169SAPS   H2S19108   3.004   5.825   6.087  0.4953 -0.8394  0.0112
  169SAPS    C319109   3.024   5.613   6.478  0.0426 -0.4970 -0.3101
  169SAPS    HX19110   2.915   5.620   6.495  0.4021 -0.9945  2.7496
  169SAPS    HY19111   3.057   5.591   6.582 -1.7133 -0.3239  0.3227
  169SAPS   O3119112   3.065   5.513   6.380 -0.4368 -0.4700  0.1597
  169SAPS   C3119113   3.011   5.391   6.393  0.2946 -0.6984  0.9055
  169SAPS   O3219114   2.955   5.355   6.490  0.1868  0.2320 -0.1667
  169SAPS   C3219115   3.031   5.304   6.267  0.4394 -0.5046 -0.6180
  169SAPS   H2X19116   3.138   5.276   6.276  0.9036  1.2527 -0.2787
  169SAPS   H2Y19117   3.018   5.363   6.175 -0.4770 -1.1553 -0.9233
  169SAPS   C2319118   3.085   6.021   6.048 -0.2694 -0.5245 -0.0325
  169SAPS   H3R19119   3.182   6.075   6.055  0.5191 -1.9682  0.6716
  169SAPS   H3S19120   3.014   6.085   6.105  1.8200 -0.3416  2.5825
  169SAPS   C2419121   3.060   6.023   5.894  0.5964 -0.6753  0.1265
  169SAPS   H4R19122   3.142   5.971   5.841 -0.0187 -1.2884 -0.2489
  169SAPS   H4S19123   3.063   6.133   5.879  0.2242 -0.5528  0.8922
  169SAPS   C2519124   2.923   5.979   5.846 -0.4161  0.2668 -0.1237
  169SAPS   H5R19125   2.841   6.018   5.908  1.0938  2.3417  0.7027
  169SAPS   C2619126   2.899   5.905   5.737  0.1017 -0.4975 -0.0533
  169SAPS   H6R19127   2.794   5.890   5.710 -0.5707 -0.4872  2.3571
  169SAPS   C2719128   3.002   5.847   5.643  0.5378 -0.1312 -0.2739
  169SAPS   H7R19129   3.099   5.900   5.637  0.5220 -0.2974 -3.3186
  169SAPS   H7S19130   2.952   5.850   5.544  1.1165 -1.1023 -0.6062
  169SAPS   C2819131   3.046   5.697   5.667  0.0624 -0.4094 -0.1993
  169SAPS   H8R19132   3.086   5.677   5.767 -1.7990  1.6902  1.0773
  169SAPS   C2919133   3.060   5.598   5.577 -0.6138 -0.1043  0.7006
  169SAPS   H9R19134   3.081   5.496   5.614  0.7956 -2.1106 -4.6205
  169SAPS  C21019135   3.036   5.600   5.426 -0.1321  0.3082  0.4922
  169SAPS  H10R19136   3.131   5.585   5.371  0.0684  0.8174  0.6928
  169SAPS  H10S19137   3.001   5.698   5.389  0.1294  0.4614  0.6465
  169SAPS  C21119138   2.931   5.492   5.409 -0.5492  0.1431 -0.4902
  169SAPS  H11R19139   2.922   5.408   5.480  4.0910 -1.7302 -1.7461
  169SAPS  C21219140   2.871   5.477   5.294 -1.0150 -0.7196 -0.3991
  169SAPS  H12R19141   2.800   5.397   5.270 -0.1793 -1.3150 -0.9413
  169SAPS  C21319142   2.896   5.557   5.171 -0.3814  0.2649  0.4975
  169SAPS  H13R19143   2.929   5.480   5.098 -3.4045 -1.2838  0.6260
  169SAPS  H13S19144   2.992   5.613   5.181  1.6183 -3.0937  1.8748
  169SAPS  C21419145   2.783   5.638   5.117  0.4067 -0.2666  0.4226
  169SAPS  H14R19146   2.766   5.733   5.169 -0.0993  0.1244 -0.4510
  169SAPS  C21519147   2.719   5.619   5.001  0.6864 -0.2321  0.3525
  169SAPS  H15R19148   2.639   5.685   4.964  0.5650 -0.4969  0.1333
  169SAPS  C21619149   2.749   5.511   4.912  0.2373  1.0027  0.1940
  169SAPS  H16R19150   2.665   5.481   4.845  1.0359 -0.7247 -0.1111
  169SAPS  H16S19151   2.767   5.418   4.971 -1.6146  1.3165  1.3369
  169SAPS  C21719152   2.855   5.536   4.812 -0.1976 -0.4461  0.2390
  169SAPS  H17R19153   2.869   5.443   4.753 -1.4528  0.4958 -1.6695
  169SAPS  H17S19154   2.953   5.552   4.862  0.2928 -0.6889 -0.6220
  169SAPS  C21819155   2.836   5.652   4.714 -0.0089  0.4196  0.1855
  169SAPS  H18R19156   2.926   5.650   4.649  0.4986 -0.7322  0.8862
  169SAPS  H18S19157   2.838   5.748   4.770 -0.0633  0.4092  0.2043
  169SAPS  C21919158   2.712   5.653   4.626 -0.0012  0.5594  0.1826
  169SAPS  H19R19159   2.624   5.636   4.691 -1.7653  1.3283 -1.9052
  169SAPS  H19S19160   2.719   5.566   4.557 -2.4431  0.7723 -0.3943
  169SAPS  C22019161   2.699   5.781   4.541  0.3534 -0.1988 -0.3381
  169SAPS  H20R19162   2.769   5.789   4.455  0.8501  4.5620  0.2328
  169SAPS  H20S19163   2.723   5.869   4.605 -0.9249  1.9655 -2.6464
  169SAPS  H20T19164   2.592   5.804   4.526  0.0017 -0.0539  1.9879
  169SAPS   C3319165   2.953   5.168   6.252  0.7118 -0.3935 -0.5267
  169SAPS   H3X19166   2.845   5.193   6.248  0.4402 -1.4835 -0.3504
  169SAPS   H3Y19167   2.979   5.112   6.345  0.3917 -0.7070 -0.6250
  169SAPS   C3419168   2.987   5.076   6.134 -0.1020  0.2154 -0.7245
  169SAPS   H4X19169   2.944   4.978   6.162 -0.1174  0.8220  1.5157
  169SAPS   H4Y19170   3.094   5.071   6.103  0.1035  2.1272 -0.4475
  169SAPS   C3519171   2.923   5.138   6.008  0.5478  0.0243 -0.0795
  169SAPS   H5X19172   2.968   5.239   5.999  1.3057  0.0156  2.6736
  169SAPS   H5Y19173   2.812   5.149   6.011  0.6818  1.6355 -0.3153
  169SAPS   C3619174   2.956   5.049   5.890 -0.1646 -0.6409 -0.1968
  169SAPS   H6X19175   2.911   4.948   5.878  0.5121 -1.0507  0.5766
  169SAPS   H6Y19176   3.065   5.029   5.905 -0.1635 -0.8693 -0.4850
  169SAPS   C3719177   2.936   5.125   5.754 -0.2404 -0.3347  0.1100
  169SAPS   H7X19178   2.982   5.226   5.749  0.8272 -0.7941  0.2662
  169SAPS   H7Y19179   2.826   5.141   5.749 -0.3465 -1.4482 -2.6560
  169SAPS   C3819180   2.976   5.041   5.635  0.3638 -0.0864  1.5641
  169SAPS   H8X19181   2.918   4.947   5.636 -1.9637  1.1683 -0.7899
  169SAPS   H8Y19182   3.083   5.014   5.628  0.2249 -0.2295 -1.6469
  169SAPS   C3919183   2.923   5.115   5.508  0.1246  0.3184 -0.1144
  169SAPS   H9X19184   3.005   5.188   5.493 -0.0171  0.2154 -1.4838
  169SAPS   H9Y19185   2.821   5.157   5.523 -0.3983 -1.3990  1.5345
  169SAPS  C31019186   2.934   5.033   5.381  0.1116 -0.4297  0.5027
  169SAPS  H10X19187   2.859   4.951   5.370  0.3384 -0.6906  0.8829
  169SAPS  H10Y19188   3.025   4.971   5.398  0.5671  0.2924  0.7450
  169SAPS  C31119189   2.934   5.117   5.252 -0.2463 -0.2714 -0.3950
  169SAPS  H11X19190   3.012   5.195   5.266  1.2164 -1.7640  0.2055
  169SAPS  H11Y19191   2.836   5.167   5.237  0.8561  2.1669  0.0137
  169SAPS  C31219192   2.990   5.029   5.141  0.0731 -0.4004  0.1486
  169SAPS  H12X19193   2.931   4.938   5.119 -3.4150  1.4260  1.3312
  169SAPS  H12Y19194   3.089   4.999   5.183 -0.1604  0.1277  1.1087
  169SAPS  C31319195   2.999   5.112   5.012  0.4404 -0.1771 -0.0568
  169SAPS  H13X19196   3.062   5.201   5.033  0.6970 -0.3715 -0.0049
  169SAPS  H13Y19197   2.893   5.138   4.989  1.4744  2.7468 -2.2584
  169SAPS  C31419198   3.043   5.038   4.881 -0.0390  0.1388 -0.5224
  169SAPS  H14X19199   2.975   4.952   4.861  2.2848 -1.1085 -3.7067
  169SAPS  H14Y19200   3.142   4.991   4.897 -0.4387 -1.6815 -2.8086
  169SAPS  C31519201   3.039   5.129   4.763 -0.0524  0.4203  0.4081
  169SAPS  H15X19202   3.105   5.213   4.794  0.6265 -0.6553  2.0051
  169SAPS  H15Y19203   2.936   5.170   4.751 -0.9713 -2.0555 -0.9501
  169SAPS  C31619204   3.079   5.059   4.631 -0.2460  0.4467 -0.6971
  169SAPS  H16X19205   3.004   4.978   4.619  1.1742 -0.8774 -0.9336
  169SAPS  H16Y19206   3.170   4.999   4.651 -1.2146 -0.8829 -0.1542
  169SAPS  C31719207   3.102   5.157   4.515  0.2922  0.0709  0.0661
  169SAPS  H17X19208   3.189   5.217   4.550 -0.4295  0.2167  1.7149
  169SAPS  H17Y19209   3.009   5.216   4.499 -0.0301 -0.0090  1.4697
  169SAPS  C31819210   3.145   5.078   4.392 -0.0067 -0.1570 -0.5720
  169SAPS  H18X19211   3.241   5.022   4.399 -0.5033 -0.8472  1.2589
  169SAPS  H18Y19212   3.149   5.148   4.306  0.3602  2.6981  1.6240
  169SAPS  H18Z19213   3.071   4.996   4.379 -0.1970  0.0418 -0.7409
  170SAPS     N19214   3.899   2.143   6.574  0.4827  0.2097 -0.5986
  170SAPS   HN119215   3.817   2.092   6.534  0.6497 -0.4621 -0.1060
  170SAPS   HN219216   3.876   2.233   6.619 -0.3624 -0.3907  0.2211
  170SAPS   HN319217   3.959   2.160   6.491  0.8421 -2.8686 -1.0906
  170SAPS   C1219218   3.978   2.050   6.658 -0.2957 -0.6442  0.1216
  170SAPS  H12A19219   4.073   2.043   6.608 -0.4476  0.0934 -0.2849
  170SAPS   C1319220   4.005   2.119   6.799  0.6405 -0.6205  0.2177
  170SAPS  O13A19221   3.963   2.237   6.815  0.4009 -0.4015  0.1375
  170SAPS  O13B19222   4.101   2.082   6.868  0.2827 -0.0817 -0.1156
  170SAPS   C1119223   3.908   1.909   6.671 -0.9605  0.1332 -0.0103
  170SAPS  H11A19224   3.816   1.932   6.729 -0.9489  0.3566 -0.0808
  170SAPS  H11B19225   3.974   1.840   6.728  1.8184  0.4986 -2.5613
  170SAPS     P19226   3.826   1.714   6.521 -0.0334  0.4950 -0.2402
  170SAPS   O1319227   3.882   1.624   6.627  0.1928 -0.2838 -0.3229
  170SAPS   O1419228   3.677   1.698   6.510  0.1381 -0.2721  0.5677
  170SAPS   O1219229   3.883   1.858   6.540 -0.5767  0.0320 -0.3506
  170SAPS   O1119230   3.901   1.685   6.388 -0.3496  0.4703  0.0983
  170SAPS    C119231   4.036   1.714   6.358  0.1071  0.1909  0.0647
  170SAPS    HA19232   4.103   1.718   6.447 -1.7360 -0.6705  1.5575
  170SAPS    HB19233   4.089   1.645   6.289  0.4972  0.8024 -0.2559
  170SAPS    C219234   4.044   1.853   6.288  0.4580  0.1545  0.0950
  170SAPS    HS19235   3.959   1.909   6.334  1.6984 -0.1306  2.9971
  170SAPS   O2119236   4.032   1.835   6.146 -0.8735 -0.4911 -0.2418
  170SAPS   C2119237   3.941   1.900   6.079  0.4331  0.7782 -0.1797
  170SAPS   O2219238   3.851   1.965   6.124  0.1656 -0.2576 -0.3202
  170SAPS   C2219239   3.968   1.879   5.928 -0.6483  0.2465 -1.3040
  170SAPS   H2R19240   4.077   1.898   5.921 -0.7108  0.9112 -0.5621
  170SAPS   H2S19241   3.932   1.778   5.901 -2.1625  0.4507 -0.1822
  170SAPS    C319242   4.164   1.927   6.333 -0.0326 -0.0713  0.1266
  170SAPS    HX19243   4.247   1.859   6.305 -0.2397  0.1539 -1.0884
  170SAPS    HY19244   4.177   1.958   6.439  2.0402  2.4252 -0.7392
  170SAPS   O3119245   4.179   2.036   6.239 -0.9488 -0.3334  1.1791
  170SAPS   C3119246   4.108   2.150   6.260  0.4269 -0.1183  0.1042
  170SAPS   O3219247   4.031   2.166   6.356 -0.9349  0.4479  0.1421
  170SAPS   C3219248   4.118   2.247   6.144  0.9793  0.0288 -0.5831
  170SAPS   H2X19249   4.114   2.203   6.042 -4.1164  1.8281 -1.4267
  170SAPS   H2Y19250   4.214   2.300   6.161  0.3998  1.4964 -1.7196
  170SAPS   C2319251   3.903   1.990   5.851  0.1117 -0.2604  0.3848
  170SAPS   H3R19252   3.918   2.090   5.895  0.9138  0.4792 -1.4483
  170SAPS   H3S19253   3.793   1.985   5.833  0.1909 -0.7160  0.0022
  170SAPS   C2419254   3.957   1.997   5.709 -0.2332  0.3242 -0.5081
  170SAPS   H4R19255   4.064   2.024   5.716 -0.4635  1.0023  0.6800
  170SAPS   H4S19256   3.891   2.066   5.653  1.6816  0.5874 -2.6105
  170SAPS   C2519257   3.943   1.870   5.631 -0.1802 -0.2966  0.6558
  170SAPS   H5R19258   3.969   1.776   5.683  2.0307 -0.7422 -1.1013
  170SAPS   C2619259   3.920   1.859   5.498  0.4151 -0.6849  1.1149
  170SAPS   H6R19260   3.919   1.762   5.446  0.0300 -0.2730  0.3233
  170SAPS   C2719261   3.894   1.967   5.398  0.2527 -0.0262 -0.6361
  170SAPS   H7R19262   3.846   2.056   5.446 -0.9970 -1.1248  0.2375
  170SAPS   H7S19263   3.816   1.942   5.322 -0.7574  1.6253 -0.2055
  170SAPS   C2819264   4.024   2.026   5.340 -0.3827 -0.0347  0.1960
  170SAPS   H8R19265   4.104   2.058   5.407  0.1252 -1.3717  0.2637
  170SAPS   C2919266   4.051   2.015   5.210  0.2849 -0.1967 -0.4916
  170SAPS   H9R19267   4.149   2.057   5.182  0.4012  0.2716  0.5685
  170SAPS  C21019268   3.963   1.955   5.097  0.2580 -0.5820 -0.4205
  170SAPS  H10R19269   3.855   1.968   5.121 -0.1803 -3.0416 -0.8347
  170SAPS  H10S19270   3.982   1.846   5.105  1.0889 -0.4110  0.0816
  170SAPS  C21119271   4.001   1.992   4.956 -0.1238 -0.1837  0.2713
  170SAPS  H11R19272   4.103   1.966   4.924 -0.9912 -1.2377 -1.8881
  170SAPS  C21219273   3.921   2.046   4.868  0.5248  0.1735  0.3820
  170SAPS  H12R19274   3.970   2.068   4.773  0.3268 -1.1656 -0.0482
  170SAPS  C21319275   3.776   2.083   4.899 -0.1781 -0.3033  0.1798
  170SAPS  H13R19276   3.775   2.185   4.942  0.8587 -0.0524 -0.3593
  170SAPS  H13S19277   3.732   2.011   4.972 -1.4414 -2.3357 -2.4120
  170SAPS  C21419278   3.670   2.087   4.792  0.2497 -0.4210  0.4149
  170SAPS  H14R19279   3.586   2.021   4.817  0.8801 -1.4373 -0.0361
  170SAPS  C21519280   3.678   2.150   4.670 -0.6567 -0.3958 -0.8241
  170SAPS  H15R19281   3.587   2.146   4.608  0.0757  2.4121 -2.2574
  170SAPS  C21619282   3.784   2.246   4.632 -0.3909  0.0810 -0.7051
  170SAPS  H16R19283   3.875   2.196   4.593 -1.5080 -0.6827 -2.4380
  170SAPS  H16S19284   3.810   2.314   4.716  0.5941 -0.9202 -0.1735
  170SAPS  C21719285   3.729   2.337   4.519  0.3328  0.1372  0.1611
  170SAPS  H17R19286   3.789   2.430   4.508 -1.2873  1.0923 -1.1793
  170SAPS  H17S19287   3.623   2.370   4.531 -0.2278 -0.8346 -1.6440
  170SAPS  C21819288   3.737   2.254   4.391  0.4322  0.5762  0.4669
  170SAPS  H18R19289   3.663   2.171   4.399  1.5755 -0.6005 -0.7042
  170SAPS  H18S19290   3.841   2.227   4.366  0.4862  0.6424  0.6190
  170SAPS  C21919291   3.704   2.340   4.266 -0.4408  0.1110 -0.1028
  170SAPS  H19R19292   3.724   2.269   4.183  0.3929  1.8308 -1.4395
  170SAPS  H19S19293   3.766   2.432   4.268 -2.7354  1.7719 -1.0311
  170SAPS  C22019294   3.555   2.378   4.255 -0.5417  0.5428 -0.5418
  170SAPS  H20R19295   3.513   2.337   4.161 -1.7539 -0.5692  0.4590
  170SAPS  H20S19296   3.543   2.489   4.256  2.9153  1.0429 -0.4776
  170SAPS  H20T19297   3.496   2.329   4.335  2.4547 -0.1361  1.4324
  170SAPS   C3319298   4.003   2.350   6.143  0.3601  0.2823  0.0324
  170SAPS   H3X19299   3.974   2.384   6.245  1.3424  0.0135  0.4160
  170SAPS   H3Y19300   3.921   2.278   6.122  1.7861 -1.3181 -0.2554
  170SAPS   C3419301   4.016   2.456   6.035  0.0801  0.0797 -0.3269
  170SAPS   H4X19302   4.075   2.541   6.076 -0.0575  0.4859 -0.9606
  170SAPS   H4Y19303   3.915   2.500   6.027  0.3071  0.9839  1.3131
  170SAPS   C3519304   4.075   2.413   5.900 -0.2216 -0.0856 -0.5465
  170SAPS   H5X19305   4.040   2.308   5.886  2.0485 -1.0761  0.6350
  170SAPS   H5Y19306   4.185   2.402   5.916 -0.1829 -2.4301 -1.9077
  170SAPS   C3619307   4.041   2.513   5.784 -0.0636  0.5378  0.0680
  170SAPS   H6X19308   4.088   2.611   5.806  1.4912  0.4950 -2.6064
  170SAPS   H6Y19309   3.933   2.536   5.792  0.1206  2.2624 -1.7215
  170SAPS   C3719310   4.075   2.454   5.643 -0.3109  0.0467  0.1528
  170SAPS   H7X19311   4.015   2.367   5.610  0.5051 -0.2721 -0.5166
  170SAPS   H7Y19312   4.184   2.438   5.639 -0.2216  0.2972  1.3018
  170SAPS   C3819313   4.049   2.565   5.536 -0.5267  0.5679 -0.1552
  170SAPS   H8X19314   4.104   2.654   5.574  0.3183  0.7101 -1.6535
  170SAPS   H8Y19315   3.939   2.579   5.535 -0.5031  0.8608 -1.7756
  170SAPS   C3919316   4.100   2.524   5.396 -0.7110  0.5665  0.0717
  170SAPS   H9X19317   4.069   2.419   5.375  2.8091 -0.2259 -1.8057
  170SAPS   H9Y19318   4.211   2.527   5.405 -0.8407  2.3046  2.1883
  170SAPS  C31019319   4.050   2.603   5.274 -0.3186 -0.3403  1.1730
  170SAPS  H10X19320   4.094   2.705   5.263 -0.3320 -0.1934  2.3396
  170SAPS  H10Y19321   3.939   2.608   5.270 -0.2652 -0.0175 -0.6988
  170SAPS  C31119322   4.096   2.535   5.136  0.1615  0.2905  0.3502
  170SAPS  H11X19323   4.078   2.428   5.155 -0.9236  0.4302  0.1491
  170SAPS  H11Y19324   4.207   2.537   5.139  0.2514 -1.1377 -0.8225
  170SAPS  C31219325   4.039   2.597   5.010  0.1156  0.3392  0.0374
  170SAPS  H12X19326   4.109   2.674   4.970  0.2007  0.5342  0.5512
  170SAPS  H12Y19327   3.940   2.643   5.033  0.8728  1.7880  0.5305
  170SAPS  C31319328   4.017   2.487   4.902 -0.7555  0.0415 -0.8670
  170SAPS  H13X19329   3.936   2.418   4.933  1.2337 -1.8709  0.4239
  170SAPS  H13Y19330   4.112   2.430   4.906 -1.7209 -1.5896 -0.0248
  170SAPS  C31419331   3.994   2.560   4.769  0.7207  0.3597  0.8229
  170SAPS  H14X19332   4.017   2.668   4.767  0.0841  0.5638 -2.9161
  170SAPS  H14Y19333   3.893   2.529   4.733  1.1070 -0.1194  0.1300
  170SAPS  C31519334   4.072   2.496   4.649 -0.0779  0.1186  0.0741
  170SAPS  H15X19335   4.029   2.515   4.548  0.4252 -0.1756 -0.2012
  170SAPS  H15Y19336   4.078   2.386   4.665 -1.6830  0.2699  2.0118
  170SAPS  C31619337   4.217   2.552   4.661 -0.6782  0.3739 -0.4394
  170SAPS  H16X19338   4.246   2.541   4.768 -2.0685 -1.3544 -0.1894
  170SAPS  H16Y19339   4.219   2.662   4.648  0.8771  0.3721 -0.3465
  170SAPS  C31719340   4.327   2.484   4.569 -0.0977  0.6949 -0.7609
  170SAPS  H17X19341   4.340   2.376   4.592  1.9560  1.2898  1.2255
  170SAPS  H17Y19342   4.431   2.515   4.596 -0.2605 -1.3304  2.8196
  170SAPS  C31819343   4.296   2.485   4.422 -1.0027  0.6413  0.5438
  170SAPS  H18X19344   4.284   2.592   4.394 -1.8262  0.1537 -1.0905
  170SAPS  H18Y19345   4.206   2.425   4.402  0.7742 -1.2410 -2.6329
  170SAPS  H18Z19346   4.383   2.447   4.363 -0.8108  0.8789  0.6674
  171SAPS     N19347   4.346   3.849   6.928  0.0387 -0.1263 -0.1619
  171SAPS   HN119348   4.398   3.936   6.907 -1.6564  1.4904  1.9910
  171SAPS   HN219349   4.276   3.883   6.996  1.1116 -1.6263  1.8055
  171SAPS   HN319350   4.400   3.770   6.970  1.8438  1.8430  1.4335
  171SAPS   C1219351   4.277   3.798   6.807  0.0815 -0.3202  0.6827
  171SAPS  H12A19352   4.356   3.774   6.738 -0.9552 -2.2407  0.0868
  171SAPS   C1319353   4.206   3.664   6.837  0.2099 -0.2168  0.2974
  171SAPS  O13A19354   4.209   3.623   6.958 -0.4346 -0.5324  0.0221
  171SAPS  O13B19355   4.155   3.600   6.743  0.3706  0.4453 -0.0087
  171SAPS   C1119356   4.166   3.888   6.756  0.3882 -0.0399  0.4941
  171SAPS  H11A19357   4.105   3.841   6.676  0.8670  1.1261 -0.5875
  171SAPS  H11B19358   4.218   3.976   6.712  0.2591 -0.9680 -1.6531
  171SAPS     P19359   3.978   4.050   6.829  0.3396  0.1193  0.1691
  171SAPS   O1319360   3.839   3.998   6.832  0.0077  0.1141  0.7375
  171SAPS   O1419361   4.014   4.165   6.916 -0.0174 -0.2930  0.8681
  171SAPS   O1219362   4.083   3.934   6.861  0.3246 -0.0533  0.5740
  171SAPS   O1119363   4.015   4.096   6.681  0.1216  0.0535  0.5509
  171SAPS    C119364   3.914   4.135   6.586 -0.0728 -0.6167  0.0650
  171SAPS    HA19365   3.835   4.201   6.627  0.9394  0.9208 -0.3818
  171SAPS    HB19366   3.959   4.204   6.512  0.6032 -0.6914  0.3952
  171SAPS    C219367   3.856   4.018   6.510 -0.0048  0.7590  0.4290
  171SAPS    HS19368   3.817   3.947   6.586  1.0358 -0.0528  0.2177
  171SAPS   O2119369   3.961   3.962   6.435  0.0513  0.3829 -0.0650
  171SAPS   C2119370   3.954   3.833   6.420 -0.7048 -0.0680  0.0109
  171SAPS   O2219371   3.876   3.758   6.475  0.6675  0.3583 -0.1939
  171SAPS   C2219372   4.075   3.795   6.326  0.3558  0.1442 -0.3249
  171SAPS   H2R19373   4.104   3.888   6.273  0.8345 -0.3528 -0.9740
  171SAPS   H2S19374   4.162   3.759   6.386 -0.3182  1.2674  1.3908
  171SAPS    C319375   3.750   4.074   6.412  0.7344  0.2734 -0.7712
  171SAPS    HX19376   3.806   4.162   6.374  1.1279 -0.5123 -2.1214
  171SAPS    HY19377   3.670   4.102   6.483  2.6566  0.3610  1.4779
  171SAPS   O3119378   3.708   3.994   6.299  0.0776 -0.0594  0.3748
  171SAPS   C3119379   3.595   4.030   6.246  0.3549  0.1962  0.4358
  171SAPS   O3219380   3.526   4.119   6.284 -0.0258 -0.6355 -0.6130
  171SAPS   C3219381   3.562   3.935   6.129 -0.6587 -0.4183  0.4543
  171SAPS   H2X19382   3.455   3.907   6.136 -0.1745 -2.4141  0.3685
  171SAPS   H2Y19383   3.606   3.834   6.145 -1.2155 -0.4464  1.9987
  171SAPS   C2319384   4.034   3.685   6.224  0.1895  0.4003 -0.3482
  171SAPS   H3R19385   3.969   3.714   6.139 -0.2742  1.2343  0.2757
  171SAPS   H3S19386   3.981   3.607   6.284  0.2762 -0.8499 -1.8292
  171SAPS   C2419387   4.163   3.631   6.167 -0.6659 -0.0334  0.0534
  171SAPS   H4R19388   4.131   3.539   6.113 -1.7574  0.7420 -0.6433
  171SAPS   H4S19389   4.233   3.588   6.242  3.5196 -0.0255 -3.4505
  171SAPS   C2519390   4.229   3.725   6.080  0.0500 -0.6979 -0.1667
  171SAPS   H5R19391   4.251   3.823   6.125  2.5746 -1.8817  1.3887
  171SAPS   C2619392   4.258   3.711   5.950  0.0223  0.9026  0.1696
  171SAPS   H6R19393   4.325   3.782   5.901  0.0349  0.9889  0.3120
  171SAPS   C2719394   4.234   3.587   5.873 -0.2810 -0.6140 -0.0713
  171SAPS   H7R19395   4.155   3.608   5.798  1.7499 -0.1924 -2.1943
  171SAPS   H7S19396   4.210   3.505   5.943 -3.0837  1.1138  1.1382
  171SAPS   C2819397   4.370   3.560   5.796 -0.1456 -0.0832 -0.5605
  171SAPS   H8R19398   4.452   3.520   5.857  1.4841  1.2004 -1.8345
  171SAPS   C2919399   4.396   3.576   5.665 -0.4696  0.3580 -0.1471
  171SAPS   H9R19400   4.494   3.548   5.625  0.0363  1.4531  0.3022
  171SAPS  C21019401   4.307   3.619   5.551 -0.3804 -0.0761  0.1816
  171SAPS  H10R19402   4.358   3.695   5.488 -2.0282 -0.9267 -2.3472
  171SAPS  H10S19403   4.218   3.670   5.593 -0.6008 -1.5610  1.6208
  171SAPS  C21119404   4.255   3.500   5.471  0.2553 -1.1739  0.3407
  171SAPS  H11R19405   4.183   3.431   5.516 -1.0130 -0.8233 -1.0590
  171SAPS  C21219406   4.270   3.488   5.338  0.3828 -0.0453  0.6161
  171SAPS  H12R19407   4.220   3.405   5.286 -0.3240  0.8637 -0.2040
  171SAPS  C21319408   4.335   3.586   5.237 -0.0701  0.3370 -0.4623
  171SAPS  H13R19409   4.410   3.658   5.277 -1.7636  4.5779 -4.0521
  171SAPS  H13S19410   4.263   3.654   5.188  0.0700 -0.2046 -1.4452
  171SAPS  C21419411   4.411   3.514   5.125 -0.2542 -1.3580  0.6024
  171SAPS  H14R19412   4.508   3.475   5.157 -0.1486 -1.0036  0.7189
  171SAPS  C21519413   4.362   3.488   5.003 -0.2230 -0.2627  0.6083
  171SAPS  H15R19414   4.426   3.435   4.930 -0.4958 -3.7899  2.7201
  171SAPS  C21619415   4.218   3.504   4.958  0.4656  0.6539  0.2227
  171SAPS  H16R19416   4.206   3.597   4.899 -1.9249  0.6579  0.6191
  171SAPS  H16S19417   4.146   3.497   5.042  0.1252 -0.9323 -0.1775
  171SAPS  C21719418   4.141   3.400   4.870 -0.5365 -0.5077 -0.0400
  171SAPS  H17R19419   4.148   3.299   4.916 -0.8007 -0.3126  0.4314
  171SAPS  H17S19420   4.201   3.391   4.777  1.5292  0.5404  1.1222
  171SAPS  C21819421   4.004   3.442   4.826  0.3957  0.4894  0.0210
  171SAPS  H18R19422   3.937   3.445   4.915  0.4714  2.7633  0.0506
  171SAPS  H18S19423   3.967   3.353   4.770 -0.3285  0.5877  0.3282
  171SAPS  C21919424   3.993   3.563   4.739  0.1886 -0.7219  0.6946
  171SAPS  H19R19425   4.038   3.551   4.638 -3.1512  0.0754 -1.0421
  171SAPS  H19S19426   4.047   3.649   4.785 -1.3856  0.6358  0.1096
  171SAPS  C22019427   3.844   3.601   4.714  0.2996  0.1027 -0.0273
  171SAPS  H20R19428   3.836   3.697   4.657 -0.7407 -0.5841 -1.0825
  171SAPS  H20S19429   3.776   3.605   4.802  1.4444  1.5328  0.8463
  171SAPS  H20T19430   3.794   3.523   4.653 -0.9021 -0.7768  1.9572
  171SAPS   C3319431   3.615   3.976   5.988  0.0102 -0.2715 -0.2234
  171SAPS   H3X19432   3.725   3.969   5.976  0.0681  0.8853 -0.5554
  171SAPS   H3Y19433   3.588   4.081   5.962  0.9574 -0.0593 -0.3755
  171SAPS   C3419434   3.544   3.898   5.875 -1.2404 -0.1528 -0.4074
  171SAPS   H4X19435   3.436   3.921   5.873 -1.3915 -0.6482  0.9261
  171SAPS   H4Y19436   3.557   3.792   5.906  0.5175  0.2424  0.3185
  171SAPS   C3519437   3.606   3.900   5.738 -0.4788  0.2352  0.1885
  171SAPS   H5X19438   3.709   3.860   5.735 -0.6891 -0.3111  0.0060
  171SAPS   H5Y19439   3.606   3.996   5.682 -0.7071  0.4909  0.6218
  171SAPS   C3619440   3.522   3.807   5.634  0.6301  0.5205 -0.5850
  171SAPS   H6X19441   3.416   3.813   5.665  0.5882 -1.1899 -0.2770
  171SAPS   H6Y19442   3.555   3.702   5.652 -0.8340  0.4520  2.2253
  171SAPS   C3719443   3.547   3.828   5.483  0.1983 -0.2641  0.7172
  171SAPS   H7X19444   3.655   3.807   5.467  0.2474 -0.1390  0.8787
  171SAPS   H7Y19445   3.536   3.937   5.463  1.7502 -0.3490 -0.8019
  171SAPS   C3819446   3.442   3.751   5.402  0.4142 -0.7311  0.3028
  171SAPS   H8X19447   3.348   3.766   5.460 -0.5899 -0.1347 -1.4065
  171SAPS   H8Y19448   3.457   3.641   5.396  1.3052 -0.6398  0.8142
  171SAPS   C3919449   3.408   3.804   5.265 -0.3964 -0.3382 -0.5895
  171SAPS   H9X19450   3.506   3.805   5.212  1.1216 -0.9917  1.9803
  171SAPS   H9Y19451   3.387   3.913   5.270  0.2274 -0.2474  0.4613
  171SAPS  C31019452   3.296   3.731   5.201  0.5242  0.1782 -0.2065
  171SAPS  H10X19453   3.207   3.711   5.265 -0.0692 -0.0821 -1.0838
  171SAPS  H10Y19454   3.344   3.634   5.177  2.9632  0.6462  2.2589
  171SAPS  C31119455   3.240   3.793   5.067  0.2449 -0.2272  0.5230
  171SAPS  H11X19456   3.323   3.832   5.004  1.2504  0.4492  2.2198
  171SAPS  H11Y19457   3.183   3.882   5.102 -0.9525 -1.0406  0.7081
  171SAPS  C31219458   3.155   3.693   4.989  0.5357 -0.9912 -0.1306
  171SAPS  H12X19459   3.076   3.655   5.058 -0.8345  1.0227 -0.5175
  171SAPS  H12Y19460   3.219   3.612   4.947  1.9030  0.2015 -0.4255
  171SAPS  C31319461   3.078   3.760   4.866  0.0390  0.1178 -0.0907
  171SAPS  H13X19462   3.028   3.843   4.919 -0.0918 -1.9401  3.3694
  171SAPS  H13Y19463   3.007   3.682   4.832  0.4520 -0.0223 -0.6524
  171SAPS  C31419464   3.161   3.818   4.756 -0.2005 -0.3782  0.0581
  171SAPS  H14X19465   3.236   3.742   4.724  2.5326  0.5466  3.6195
  171SAPS  H14Y19466   3.221   3.905   4.790 -0.4527 -0.5354  0.9281
  171SAPS  C31519467   3.070   3.864   4.635 -0.3426  0.3982  0.2864
  171SAPS  H15X19468   2.984   3.925   4.669  0.1041  0.2540  1.7333
  171SAPS  H15Y19469   3.022   3.773   4.591  2.1606 -2.6647  3.3029
  171SAPS  C31619470   3.144   3.946   4.529 -0.2813 -0.1148 -0.0934
  171SAPS  H16X19471   3.246   3.904   4.517 -0.6033 -1.3080  1.1450
  171SAPS  H16Y19472   3.158   4.053   4.558 -1.8461  0.4732 -1.3944
  171SAPS  C31719473   3.063   3.962   4.400  0.3712  0.0396  0.0713
  171SAPS  H17X19474   2.961   4.004   4.412 -0.4726 -2.2116  1.1891
  171SAPS  H17Y19475   3.045   3.860   4.362 -0.6875  0.4977 -0.7138
  171SAPS  C31819476   3.135   4.048   4.298  0.8785 -0.1263  0.9055
  171SAPS  H18X19477   3.237   4.012   4.273  1.9399  2.8012  0.7639
  171SAPS  H18Y19478   3.136   4.155   4.327  1.7721  0.2107 -0.2680
  171SAPS  H18Z19479   3.064   4.042   4.213  0.2866 -1.0282  1.4340
  172SAPS     N19480   4.308   4.794   6.615  0.4286 -0.5278  0.0966
  172SAPS   HN119481   4.212   4.819   6.583  0.6134 -2.2586 -2.0718
  172SAPS   HN219482   4.375   4.802   6.536  1.5340  3.1201  1.2285
  172SAPS   HN319483   4.303   4.695   6.648 -0.1762 -0.4220  0.3370
  172SAPS   C1219484   4.343   4.885   6.717  0.5714 -0.4776 -0.1753
  172SAPS  H12A19485   4.305   4.982   6.687 -0.5617 -0.9200 -0.1796
  172SAPS   C1319486   4.295   4.864   6.856  0.8398  0.2870 -0.1529
  172SAPS  O13A19487   4.227   4.767   6.894  0.1316 -0.0710 -0.0929
  172SAPS  O13B19488   4.342   4.942   6.945  0.4974 -0.4830  0.2392
  172SAPS   C1119489   4.501   4.901   6.727 -0.5365  0.5119 -0.3414
  172SAPS  H11A19490   4.545   4.810   6.773  0.9368  2.0840  1.5078
  172SAPS  H11B19491   4.529   4.979   6.801  1.6011 -0.7155  0.2473
  172SAPS     P19492   4.641   5.049   6.560 -0.1229  0.0930 -0.3041
  172SAPS   O1319493   4.540   5.157   6.566  0.1058 -0.2978  0.4613
  172SAPS   O1419494   4.762   5.062   6.646 -0.7599 -0.0612 -0.4621
  172SAPS   O1219495   4.562   4.920   6.602  0.5338  0.4427 -0.6288
  172SAPS   O1119496   4.682   5.026   6.411  0.5212  0.0265 -0.4785
  172SAPS    C119497   4.803   4.951   6.369  0.5423 -0.5168  0.9387
  172SAPS    HA19498   4.886   5.024   6.383  0.1897 -0.3016  2.0061
  172SAPS    HB19499   4.814   4.860   6.432 -0.1159 -2.3999 -1.5181
  172SAPS    C219500   4.792   4.905   6.220 -0.6981  0.0190  0.6821
  172SAPS    HS19501   4.867   4.829   6.190  0.0697  0.4361  1.5110
  172SAPS   O2119502   4.802   5.022   6.137  0.6875  0.5840  0.1415
  172SAPS   C2119503   4.926   5.058   6.103  0.1251  0.5271  0.7309
  172SAPS   O2219504   5.025   4.998   6.142 -0.7723 -0.0756 -0.1043
  172SAPS   C2219505   4.919   5.169   5.999 -0.4475  1.0570 -0.1971
  172SAPS   H2R19506   4.812   5.185   5.971 -0.9628  0.8583  1.5698
  172SAPS   H2S19507   4.947   5.267   6.044 -1.2399  0.3214  2.0518
  172SAPS    C319508   4.660   4.837   6.194 -0.3138  0.5320  0.3728
  172SAPS    HX19509   4.585   4.919   6.185  0.3782  0.9351 -3.3336
  172SAPS    HY19510   4.642   4.774   6.284  2.3377  0.7613  1.1487
  172SAPS   O3119511   4.670   4.760   6.064 -0.6225  0.2176 -0.2617
  172SAPS   C3119512   4.566   4.684   6.040 -0.3366 -0.5049 -0.7694
  172SAPS   O3219513   4.464   4.683   6.113  0.0145 -0.5560 -0.0926
  172SAPS   C3219514   4.587   4.581   5.933  0.2207 -0.1780  0.0210
  172SAPS   H2X19515   4.507   4.504   5.926 -1.0066  1.0073  0.5047
  172SAPS   H2Y19516   4.684   4.529   5.949 -0.0683 -0.5608  0.5532
  172SAPS   C2319517   5.014   5.147   5.878  0.2991 -0.1729  0.6310
  172SAPS   H3R19518   5.102   5.087   5.909  0.3724 -1.0099 -1.0657
  172SAPS   H3S19519   5.037   5.249   5.840 -0.6569 -0.8171 -1.8873
  172SAPS   C2419520   4.934   5.072   5.761 -0.2512 -0.4436 -0.3983
  172SAPS   H4R19521   4.860   5.150   5.736 -1.0263 -1.4573 -1.3916
  172SAPS   H4S19522   4.884   4.983   5.805 -0.0651 -0.1458  0.4293
  172SAPS   C2519523   5.024   5.034   5.647  0.2583 -0.1543  0.2507
  172SAPS   H5R19524   5.099   4.964   5.685 -0.8584 -0.7182  1.5173
  172SAPS   C2619525   5.026   5.076   5.521  0.0961  0.6446 -0.1965
  172SAPS   H6R19526   5.102   5.034   5.453  1.1327  0.9230  0.7419
  172SAPS   C2719527   4.945   5.188   5.463 -0.1470  0.0433  0.1323
  172SAPS   H7R19528   4.903   5.258   5.538 -1.2674 -1.0205  0.5452
  172SAPS   H7S19529   4.857   5.145   5.409  1.1034 -2.3305 -0.1587
  172SAPS   C2819530   5.037   5.270   5.375 -0.0553  0.9042 -0.1966
  172SAPS   H8R19531   5.098   5.334   5.440 -0.7416 -0.1603  1.5718
  172SAPS   C2919532   5.051   5.274   5.242  0.0266 -0.0253  0.0372
  172SAPS   H9R19533   5.119   5.347   5.194  0.9657 -1.3812 -0.7881
  172SAPS  C21019534   4.985   5.187   5.136  0.4234 -0.0398 -0.9872
  172SAPS  H10R19535   4.883   5.220   5.107 -0.0221 -0.5773 -0.0693
  172SAPS  H10S19536   4.970   5.090   5.189  1.4963 -0.1224 -0.8107
  172SAPS  C21119537   5.077   5.161   5.021  0.3885 -0.2228  0.4761
  172SAPS  H11R19538   5.171   5.217   5.016 -0.1399  0.7436  1.0771
  172SAPS  C21219539   5.042   5.074   4.915 -0.1661  0.1798 -0.3833
  172SAPS  H12R19540   5.121   5.060   4.839 -0.4143 -0.4730 -0.5253
  172SAPS  C21319541   4.910   5.005   4.884 -0.1741  0.3976  0.4130
  172SAPS  H13R19542   4.853   4.966   4.971 -1.3792 -1.1825 -1.0129
  172SAPS  H13S19543   4.938   4.919   4.819  0.0404  0.8065 -0.0358
  172SAPS  C21419544   4.824   5.097   4.808 -0.1121  0.0381 -0.5605
  172SAPS  H14R19545   4.746   5.146   4.869  0.6966 -0.4119  0.8953
  172SAPS  C21519546   4.819   5.118   4.678 -0.0080  0.6977 -0.1010
  172SAPS  H15R19547   4.743   5.187   4.638 -1.5952 -1.0902 -0.3258
  172SAPS  C21619548   4.899   5.042   4.576 -0.0350 -0.6467  0.2620
  172SAPS  H16R19549   4.857   4.941   4.554  0.3927 -0.7812  0.0523
  172SAPS  H16S19550   5.003   5.026   4.612 -0.2792  0.8873  1.7865
  172SAPS  C21719551   4.887   5.129   4.452  0.1088  1.0427  0.2336
  172SAPS  H17R19552   4.954   5.218   4.464  0.8434  0.5655 -0.2510
  172SAPS  H17S19553   4.783   5.164   4.436 -0.6160 -0.8323  0.6247
  172SAPS  C21819554   4.938   5.063   4.324 -0.5161 -0.1776 -0.0613
  172SAPS  H18R19555   4.938   5.138   4.242  0.6930  0.0432  0.1244
  172SAPS  H18S19556   4.860   4.989   4.297 -2.5775  1.0504  2.1647
  172SAPS  C21919557   5.082   5.014   4.326  0.1383 -0.1394 -0.0383
  172SAPS  H19R19558   5.102   4.976   4.224 -0.2240 -1.4052  0.3509
  172SAPS  H19S19559   5.090   4.929   4.397  1.8303 -1.3422 -1.5739
  172SAPS  C22019560   5.196   5.117   4.346 -0.2643  0.2255  0.0928
  172SAPS  H20R19561   5.213   5.142   4.453  0.9180 -0.5688  0.1092
  172SAPS  H20S19562   5.181   5.211   4.289  0.3239  1.4849  1.8928
  172SAPS  H20T19563   5.294   5.080   4.309  0.4427  1.1372  0.9876
  172SAPS   C3319564   4.609   4.653   5.792 -0.0971 -0.6337 -0.3319
  172SAPS   H3X19565   4.691   4.727   5.796  1.2921 -1.8651 -3.4651
  172SAPS   H3Y19566   4.515   4.708   5.766  0.0527  0.4902  1.3184
  172SAPS   C3419567   4.649   4.558   5.685  0.0069 -0.1375 -0.0724
  172SAPS   H4X19568   4.577   4.475   5.672 -0.0773 -0.4200  1.9832
  172SAPS   H4Y19569   4.745   4.506   5.708  1.0132  0.4934 -2.4409
  172SAPS   C3519570   4.659   4.621   5.544 -0.1616  0.2203  0.1406
  172SAPS   H5X19571   4.753   4.679   5.537 -0.4993  0.5436 -3.3721
  172SAPS   H5Y19572   4.562   4.667   5.516 -0.8598 -2.5007 -2.4762
  172SAPS   C3619573   4.669   4.509   5.432 -0.2267 -0.0635  0.1026
  172SAPS   H6X19574   4.593   4.432   5.459 -0.9499  0.5029 -0.2886
  172SAPS   H6Y19575   4.770   4.464   5.444 -0.4819 -0.1719  2.3937
  172SAPS   C3719576   4.643   4.564   5.295  0.5976  0.2125  0.3722
  172SAPS   H7X19577   4.692   4.662   5.282 -0.6004  0.7382 -0.3521
  172SAPS   H7Y19578   4.534   4.587   5.301  0.6106  0.1656  0.8749
  172SAPS   C3819579   4.685   4.469   5.182 -0.0455  0.3059 -0.6265
  172SAPS   H8X19580   4.654   4.372   5.226 -0.7546  0.8895  0.1983
  172SAPS   H8Y19581   4.794   4.467   5.163  0.8235 -2.2318  3.4790
  172SAPS   C3919582   4.602   4.506   5.055 -0.0958 -1.0288  0.1258
  172SAPS   H9X19583   4.601   4.612   5.024  5.8808 -0.8995 -0.7270
  172SAPS   H9Y19584   4.494   4.487   5.078 -0.5271 -0.3334 -1.1973
  172SAPS  C31019585   4.639   4.422   4.935 -0.0494  0.5723 -0.5030
  172SAPS  H10X19586   4.563   4.441   4.857 -1.4459 -1.1490  0.3812
  172SAPS  H10Y19587   4.644   4.313   4.955  2.4257  0.9160  1.4009
  172SAPS  C31119588   4.770   4.450   4.879 -0.6274  0.1099  0.6292
  172SAPS  H11X19589   4.788   4.379   4.796 -0.2495  0.7424  0.1641
  172SAPS  H11Y19590   4.849   4.432   4.956  0.1134 -2.2387 -0.5743
  172SAPS  C31219591   4.780   4.589   4.821  0.1087 -0.0851  0.1597
  172SAPS  H12X19592   4.748   4.668   4.892 -1.7756  0.1422 -0.8714
  172SAPS  H12Y19593   4.706   4.603   4.739 -0.1647  1.3502  0.6241
  172SAPS  C31319594   4.922   4.609   4.757  1.1473 -0.1536  0.3114
  172SAPS  H13X19595   4.904   4.693   4.687  0.7310  0.2810  0.9335
  172SAPS  H13Y19596   4.964   4.519   4.707 -0.3919 -0.2879 -0.7861
  172SAPS  C31419597   5.024   4.657   4.863 -0.0454 -0.2257 -0.4334
  172SAPS  H14X19598   5.047   4.573   4.933 -2.6946 -0.3581  0.3990
  172SAPS  H14Y19599   4.973   4.734   4.925 -1.8173 -1.0759 -0.7851
  172SAPS  C31519600   5.146   4.720   4.793 -0.1809 -0.3149  0.2294
  172SAPS  H15X19601   5.221   4.764   4.862  0.0177  1.0751 -0.8173
  172SAPS  H15Y19602   5.106   4.794   4.719  1.4964  1.3955  0.9433
  172SAPS  C31619603   5.220   4.627   4.700 -0.2386  0.2364  0.2188
  172SAPS  H16X19604   5.264   4.537   4.748 -0.5635  0.4443  0.9235
  172SAPS  H16Y19605   5.146   4.592   4.625  0.4539 -2.7510  0.7833
  172SAPS  C31719606   5.327   4.712   4.620 -0.0290 -0.5736 -0.4328
  172SAPS  H17X19607   5.276   4.809   4.603 -1.2342 -0.3042  3.6813
  172SAPS  H17Y19608   5.349   4.659   4.525  2.1661  2.8289 -2.0103
  172SAPS  C31819609   5.453   4.749   4.698  0.0174  0.6941  0.4111
  172SAPS  H18X19610   5.527   4.809   4.643  0.4169  1.1504  1.4143
  172SAPS  H18Y19611   5.497   4.647   4.707 -0.8133  0.1680 -1.0869
  172SAPS  H18Z19612   5.423   4.802   4.791 -0.0642 -0.9722  1.3895
  173SAPS     N19613   1.873   4.336   1.909  0.1445  0.1733 -0.2724
  173SAPS   HN119614   1.907   4.310   1.814  0.2865 -1.2834  0.1574
  173SAPS   HN219615   1.955   4.336   1.974 -1.4556  2.0456  1.8991
  173SAPS   HN319616   1.804   4.266   1.943  1.2382 -1.2218 -0.8071
  173SAPS   C1219617   1.824   4.473   1.908  0.2691 -0.0035  0.1014
  173SAPS  H12A19618   1.880   4.520   1.829 -1.5070  1.8486 -0.1548
  173SAPS   C1319619   1.675   4.488   1.875 -0.1477  0.2863  0.3113
  173SAPS  O13A19620   1.614   4.386   1.838  0.7788  0.2021 -0.4229
  173SAPS  O13B19621   1.609   4.593   1.893  0.0123 -0.0042 -0.3565
  173SAPS   C1119622   1.845   4.562   2.030 -1.1523 -0.3640 -0.1086
  173SAPS  H11A19623   1.782   4.529   2.116  0.8388 -0.0606  1.5626
  173SAPS  H11B19624   1.821   4.667   2.004  0.5255 -0.0666 -0.5860
  173SAPS     P19625   2.035   4.612   2.209 -0.0831  0.2265 -0.5106
  173SAPS   O1319626   2.166   4.546   2.221  0.1489 -0.7126  0.2955
  173SAPS   O1419627   2.022   4.762   2.220 -0.8253  0.2030 -0.4233
  173SAPS   O1219628   1.983   4.569   2.063 -0.4127  0.3006  0.1312
  173SAPS   O1119629   1.935   4.545   2.309 -0.3418  0.3814 -0.0796
  173SAPS    C119630   1.939   4.402   2.335  0.6752  0.1725  0.1579
  173SAPS    HA19631   1.832   4.371   2.330  0.9256 -0.5454 -1.2692
  173SAPS    HB19632   1.975   4.342   2.249 -0.8367 -0.0162 -0.3849
  173SAPS    C219633   2.004   4.363   2.471  0.2526 -0.0026 -0.0978
  173SAPS    HS19634   1.972   4.258   2.491  1.1472 -0.0856  1.0047
  173SAPS   O2119635   1.972   4.461   2.575  0.6569 -0.3603  0.5478
  173SAPS   C2119636   1.843   4.477   2.608 -0.0840 -0.0066  0.3982
  173SAPS   O2219637   1.752   4.402   2.572  0.2270  0.2782  0.1214
  173SAPS   C2219638   1.833   4.603   2.692 -0.1336  0.3615  0.0517
  173SAPS   H2R19639   1.778   4.579   2.785 -2.7889  0.1022 -1.4653
  173SAPS   H2S19640   1.937   4.631   2.718  0.4950 -4.2834  3.9685
  173SAPS    C319641   2.155   4.357   2.463  0.0360  0.6893 -1.0694
  173SAPS    HX19642   2.203   4.456   2.481  2.0518 -0.1600 -1.3967
  173SAPS    HY19643   2.193   4.336   2.360  0.0542  0.2784 -0.9792
  173SAPS   O3119644   2.200   4.256   2.559  0.4797 -0.7918  0.3319
  173SAPS   C3119645   2.323   4.252   2.603 -0.0462 -0.2809  0.7674
  173SAPS   O3219646   2.419   4.314   2.564 -0.1066  0.8102 -0.2232
  173SAPS   C3219647   2.325   4.150   2.724 -0.6168 -0.1485 -0.7518
  173SAPS   H2X19648   2.365   4.055   2.683 -1.1165 -1.2332  1.1497
  173SAPS   H2Y19649   2.228   4.124   2.772 -0.2138 -0.9486 -0.3308
  173SAPS   C2319650   1.762   4.727   2.632  0.2986 -0.3307 -0.3967
  173SAPS   H3R19651   1.652   4.717   2.624  0.0528  1.8828 -0.2960
  173SAPS   H3S19652   1.801   4.742   2.529  1.0615  2.4402  0.2288
  173SAPS   C2419653   1.767   4.861   2.708  0.2705  0.0852 -0.5787
  173SAPS   H4R19654   1.871   4.897   2.720  0.5421 -0.8818  0.1700
  173SAPS   H4S19655   1.745   4.848   2.816 -0.0579  1.5480 -0.4595
  173SAPS   C2519656   1.684   4.969   2.641 -0.2263  0.1243 -0.1559
  173SAPS   H5R19657   1.728   4.995   2.543  1.2614 -0.6657  0.2778
  173SAPS   C2619658   1.573   5.030   2.684  0.2608  0.8275 -0.5166
  173SAPS   H6R19659   1.532   5.112   2.623  1.7737  1.5326 -0.6336
  173SAPS   C2719660   1.511   5.014   2.816  1.1881 -0.1666 -0.8004
  173SAPS   H7R19661   1.564   5.071   2.895 -0.1762 -0.3849  0.2913
  173SAPS   H7S19662   1.492   4.910   2.849 -3.6082  1.4030  2.3129
  173SAPS   C2819663   1.375   5.084   2.808 -0.6215  0.9213  0.0122
  173SAPS   H8R19664   1.302   5.020   2.756  0.5899  0.2742 -0.9409
  173SAPS   C2919665   1.340   5.209   2.838 -0.3650  0.2860 -0.2189
  173SAPS   H9R19666   1.240   5.246   2.811 -1.5521 -2.4134  0.0850
  173SAPS  C21019667   1.424   5.317   2.898 -0.3768 -0.0116  0.3000
  173SAPS  H10R19668   1.515   5.274   2.945 -0.3567 -0.3251 -0.0214
  173SAPS  H10S19669   1.375   5.372   2.982  0.2363 -0.2526  0.8278
  173SAPS  C21119670   1.473   5.403   2.791 -0.4578 -0.4747  0.7593
  173SAPS  H11R19671   1.490   5.354   2.694  2.6499  0.9477  0.4609
  173SAPS  C21219672   1.508   5.537   2.799 -0.2322  0.4790  0.8006
  173SAPS  H12R19673   1.559   5.581   2.712 -1.8480 -2.7083 -1.9747
  173SAPS  C21319674   1.481   5.628   2.914 -0.1100 -0.2988  0.6235
  173SAPS  H13R19675   1.385   5.596   2.960 -0.3584 -1.0595 -0.3811
  173SAPS  H13S19676   1.464   5.729   2.873  1.9685  0.4045  1.3561
  173SAPS  C21419677   1.591   5.640   3.021  0.2797  0.0226  0.1715
  173SAPS  H14R19678   1.684   5.671   2.970 -0.3064  0.3098 -0.7444
  173SAPS  C21519679   1.568   5.634   3.158  0.8610  0.2859  0.5319
  173SAPS  H15R19680   1.654   5.629   3.227  1.6546 -1.2522 -0.5031
  173SAPS  C21619681   1.437   5.610   3.231  0.3019  0.9513  0.5836
  173SAPS  H16R19682   1.419   5.505   3.263 -0.9906  1.3977  1.4359
  173SAPS  H16S19683   1.346   5.629   3.169 -0.4099  0.6246  1.5003
  173SAPS  C21719684   1.432   5.698   3.360 -0.5207  0.2690  0.0983
  173SAPS  H17R19685   1.325   5.689   3.388 -1.0798  0.3922 -1.9081
  173SAPS  H17S19686   1.457   5.803   3.333 -1.7540  0.1585 -1.6067
  173SAPS  C21819687   1.517   5.644   3.475 -0.4391  0.4990  0.4837
  173SAPS  H18R19688   1.626   5.657   3.458 -0.4527 -1.8065 -2.0598
  173SAPS  H18S19689   1.510   5.533   3.479 -0.4591  0.4207 -1.1907
  173SAPS  C21919690   1.469   5.707   3.609 -0.5607  0.4561 -0.1798
  173SAPS  H19R19691   1.357   5.707   3.607 -0.5631  0.0674  0.0016
  173SAPS  H19S19692   1.513   5.805   3.636 -0.0467 -0.3908  2.2903
  173SAPS  C22019693   1.501   5.613   3.714  0.4450 -0.0215 -0.4760
  173SAPS  H20R19694   1.609   5.595   3.731  0.1533  0.7294  2.8071
  173SAPS  H20S19695   1.450   5.518   3.688  0.6603 -0.4059  0.4751
  173SAPS  H20T19696   1.471   5.635   3.819  1.5294 -3.5172  0.7068
  173SAPS   C3319697   2.417   4.206   2.837  0.0243  0.0339 -0.5579
  173SAPS   H3X19698   2.373   4.294   2.889  1.9178 -0.6554  2.4504
  173SAPS   H3Y19699   2.513   4.236   2.791 -0.4705  0.7994 -1.1184
  173SAPS   C3419700   2.435   4.111   2.953 -0.3334 -0.0244  0.3967
  173SAPS   H4X19701   2.500   4.025   2.926  0.0307  0.1214  0.7773
  173SAPS   H4Y19702   2.338   4.074   2.990  0.0831  0.0455  1.6184
  173SAPS   C3519703   2.498   4.182   3.071  0.4345  0.9621  0.3987
  173SAPS   H5X19704   2.422   4.256   3.105  0.3706  1.8441 -1.5251
  173SAPS   H5Y19705   2.588   4.244   3.050  0.9661 -0.1444 -0.6993
  173SAPS   C3619706   2.528   4.078   3.177  0.2401  0.2186 -0.8329
  173SAPS   H6X19707   2.605   4.011   3.132 -0.8760 -2.2248  0.6661
  173SAPS   H6Y19708   2.442   4.012   3.202  1.2711 -0.8435  0.0392
  173SAPS   C3719709   2.592   4.132   3.309 -0.1948  0.2853  0.4613
  173SAPS   H7X19710   2.541   4.227   3.335 -0.6766 -0.4063  2.2451
  173SAPS   H7Y19711   2.700   4.144   3.288 -0.5052 -0.0241 -1.4870
  173SAPS   C3819712   2.583   4.027   3.421 -0.5615  0.0092 -0.1458
  173SAPS   H8X19713   2.649   3.939   3.401 -2.2296 -2.7936  4.7211
  173SAPS   H8Y19714   2.479   3.989   3.427 -0.2206 -1.7048 -3.2577
  173SAPS   C3919715   2.623   4.089   3.557  0.5285  0.2526  0.1020
  173SAPS   H9X19716   2.536   4.156   3.571  0.6347  0.0836  1.7512
  173SAPS   H9Y19717   2.723   4.139   3.559 -0.1905  1.7322  0.0733
  173SAPS  C31019718   2.619   3.977   3.663 -0.0010 -0.5334 -1.1219
  173SAPS  H10X19719   2.697   3.905   3.631  0.7805  0.1856 -0.8598
  173SAPS  H10Y19720   2.525   3.917   3.670 -0.0444 -0.7357 -2.8658
  173SAPS  C31119721   2.659   4.026   3.808  0.4559  0.8629  0.3834
  173SAPS  H11X19722   2.610   4.126   3.811  0.5211  0.9716 -1.2301
  173SAPS  H11Y19723   2.768   4.038   3.826  0.5105  1.4308 -0.2538
  173SAPS  C31219724   2.595   3.939   3.916  0.4542 -0.3601 -0.9842
  173SAPS  H12X19725   2.600   3.832   3.886 -0.0199 -0.2908 -1.3134
  173SAPS  H12Y19726   2.488   3.967   3.917  0.6318  0.4354  1.1617
  173SAPS  C31319727   2.658   3.938   4.057 -0.3171  0.3402  0.1875
  173SAPS  H13X19728   2.620   4.032   4.103  1.5632  0.5241  1.4822
  173SAPS  H13Y19729   2.768   3.952   4.070 -0.0792 -1.4365  0.2898
  173SAPS  C31419730   2.605   3.818   4.136  0.3607  0.6999 -0.6363
  173SAPS  H14X19731   2.676   3.733   4.145 -0.5601 -0.0915 -0.5753
  173SAPS  H14Y19732   2.513   3.779   4.088 -0.6276  1.0790  0.8821
  173SAPS  C31519733   2.561   3.852   4.283 -0.0669 -0.1559  0.0520
  173SAPS  H15X19734   2.477   3.924   4.275 -0.6314 -0.7614  0.4442
  173SAPS  H15Y19735   2.643   3.897   4.343 -1.5336  0.3373  1.7689
  173SAPS  C31619736   2.502   3.740   4.356 -0.3876  0.3879  0.9554
  173SAPS  H16X19737   2.572   3.654   4.361 -0.1286  0.4524 -0.8372
  173SAPS  H16Y19738   2.412   3.697   4.307  0.5838 -0.9026  0.2392
  173SAPS  C31719739   2.463   3.782   4.498 -0.1763 -0.3846 -0.6460
  173SAPS  H17X19740   2.526   3.871   4.520  0.2506 -0.0796 -2.9091
  173SAPS  H17Y19741   2.493   3.698   4.565  0.4419 -1.1865 -1.8880
  173SAPS  C31819742   2.314   3.816   4.510  0.5994 -0.6022  0.5858
  173SAPS  H18X19743   2.301   3.901   4.440  1.7139 -1.6329 -0.9431
  173SAPS  H18Y19744   2.284   3.848   4.612  2.7717  2.2180  0.4784
  173SAPS  H18Z19745   2.250   3.733   4.472  1.3733 -0.4863 -1.0719
  174SAPS     N19746   5.350   3.364   2.005 -0.3690  0.1911  0.0307
  174SAPS   HN119747   5.273   3.348   1.937  0.7690  0.0450 -1.2645
  174SAPS   HN219748   5.442   3.337   1.964  0.3468 -1.8373  2.6745
  174SAPS   HN319749   5.341   3.304   2.090 -3.2555  2.6635  1.6450
  174SAPS   C1219750   5.349   3.505   2.048 -0.0811  0.8143  0.0324
  174SAPS  H12A19751   5.428   3.516   2.121  3.2352 -2.3434 -2.6894
  174SAPS   C1319752   5.390   3.590   1.920 -0.4489  0.4243 -0.1248
  174SAPS  O13A19753   5.395   3.539   1.807 -0.6483 -0.1274  0.4121
  174SAPS  O13B19754   5.392   3.718   1.942 -0.6660  0.0698  0.1628
  174SAPS   C1119755   5.211   3.539   2.100  0.4783 -0.3578 -0.1866
  174SAPS  H11A19756   5.231   3.632   2.158  5.5769 -2.2714  1.7590
  174SAPS  H11B19757   5.179   3.457   2.167 -0.5109  0.7006  0.6566
  174SAPS     P19758   4.969   3.593   2.031  0.3025 -0.1501  0.4423
  174SAPS   O1319759   4.963   3.738   2.044 -0.4878 -0.0072  0.4228
  174SAPS   O1419760   4.879   3.528   1.936 -0.2716  0.0444  0.2510
  174SAPS   O1219761   5.111   3.542   2.000  0.7101 -0.3945  0.0170
  174SAPS   O1119762   4.926   3.537   2.174 -0.2416  0.1102  0.3530
  174SAPS    C119763   4.785   3.566   2.213  0.2115  0.2530  0.4588
  174SAPS    HA19764   4.743   3.641   2.143  1.4364  0.6390  0.1222
  174SAPS    HB19765   4.722   3.474   2.214  0.2135  0.2497  0.3154
  174SAPS    C219766   4.794   3.635   2.348 -0.2404  0.0985 -0.6233
  174SAPS    HS19767   4.870   3.716   2.343 -0.6875  0.7036  1.3710
  174SAPS   O2119768   4.825   3.541   2.454 -0.0317 -0.2568  0.0749
  174SAPS   C2119769   4.918   3.566   2.539  0.4966 -0.7220  1.1396
  174SAPS   O2219770   4.993   3.666   2.535 -0.0600 -0.1288 -0.5909
  174SAPS   C2219771   4.929   3.439   2.633 -0.8914  0.6366  0.3196
  174SAPS   H2R19772   4.826   3.402   2.649 -2.0194  3.5547  0.4213
  174SAPS   H2S19773   4.983   3.366   2.569  0.8603  3.8794 -2.1937
  174SAPS    C319774   4.654   3.689   2.387  0.3889 -0.0372 -0.9994
  174SAPS    HX19775   4.592   3.598   2.402 -0.1443  0.4201 -0.2774
  174SAPS    HY19776   4.610   3.754   2.308  0.4006  2.1405  0.6800
  174SAPS   O3119777   4.644   3.759   2.520  0.2032  0.2187 -0.6213
  174SAPS   C3119778   4.702   3.877   2.535 -0.2830  0.4414  0.6369
  174SAPS   O3219779   4.753   3.941   2.445  0.1657  0.1724 -0.0501
  174SAPS   C3219780   4.705   3.912   2.681  0.1169  0.1586 -0.0118
  174SAPS   H2X19781   4.685   3.822   2.743 -0.8935  1.9451  2.3985
  174SAPS   H2Y19782   4.617   3.978   2.697 -0.0957 -0.7412  3.2854
  174SAPS   C2319783   5.021   3.465   2.752 -0.8648  0.4327 -0.2313
  174SAPS   H3R19784   5.120   3.504   2.721 -1.6977  0.6620 -2.8681
  174SAPS   H3S19785   5.026   3.362   2.791  0.4800  0.5412 -0.0710
  174SAPS   C2419786   4.967   3.558   2.867 -0.3207 -0.3659  0.3908
  174SAPS   H4R19787   4.976   3.666   2.841  0.7711  0.1212  2.5572
  174SAPS   H4S19788   5.037   3.560   2.954  0.4318  2.7909 -0.1506
  174SAPS   C2519789   4.824   3.538   2.904  0.5407 -0.5345  0.0994
  174SAPS   H5R19790   4.739   3.573   2.843 -1.2305 -1.0798  2.1418
  174SAPS   C2619791   4.787   3.486   3.023  0.7431 -0.1743 -0.2101
  174SAPS   H6R19792   4.679   3.486   3.040  0.1925 -0.9085 -3.1500
  174SAPS   C2719793   4.874   3.427   3.135 -0.4680  0.1155  0.7963
  174SAPS   H7R19794   4.972   3.398   3.091 -1.5929 -0.5914 -1.3970
  174SAPS   H7S19795   4.820   3.333   3.159 -1.3990  1.1303  2.9709
  174SAPS   C2819796   4.896   3.514   3.254  0.4308  0.3041  0.8192
  174SAPS   H8R19797   4.940   3.615   3.243  1.0691 -0.0298  0.2508
  174SAPS   C2919798   4.851   3.487   3.375 -0.1579 -0.2817  0.5000
  174SAPS   H9R19799   4.872   3.565   3.449  0.3257 -0.4370  0.5257
  174SAPS  C21019800   4.776   3.367   3.430  0.9501  0.4265  0.5682
  174SAPS  H10R19801   4.833   3.333   3.520  2.8617 -0.7549 -1.0083
  174SAPS  H10S19802   4.748   3.285   3.361  0.9910  0.8483  0.0447
  174SAPS  C21119803   4.641   3.426   3.475 -0.5289 -0.1036 -0.0500
  174SAPS  H11R19804   4.585   3.474   3.393  1.1152  1.3546 -0.3766
  174SAPS  C21219805   4.589   3.426   3.606 -0.9846 -0.9565 -0.8593
  174SAPS  H12R19806   4.487   3.463   3.623 -0.0841  0.6985  1.3576
  174SAPS  C21319807   4.659   3.370   3.730  0.7113 -0.3544  0.2520
  174SAPS  H13R19808   4.765   3.342   3.713  1.5134  2.9823 -1.0397
  174SAPS  H13S19809   4.610   3.278   3.768  0.4656  0.3990  1.8456
  174SAPS  C21419810   4.665   3.481   3.835  0.1984 -0.1716 -0.0928
  174SAPS  H14R19811   4.687   3.583   3.799  1.6217 -0.3563  0.2020
  174SAPS  C21519812   4.651   3.465   3.966  0.5929  0.6750  0.1218
  174SAPS  H15R19813   4.657   3.554   4.031 -1.3905 -0.5010  2.0016
  174SAPS  C21619814   4.630   3.342   4.050  0.0916  0.3788 -0.1504
  174SAPS  H16R19815   4.688   3.349   4.145  3.2554 -0.5632 -1.8688
  174SAPS  H16S19816   4.661   3.246   4.003  3.9658  0.7607  1.2612
  174SAPS  C21719817   4.480   3.333   4.093 -0.0168  0.2799 -0.7187
  174SAPS  H17R19818   4.476   3.242   4.156  0.6559  0.2231 -0.7518
  174SAPS  H17S19819   4.419   3.322   4.001 -1.1059  0.7640 -0.0755
  174SAPS  C21819820   4.436   3.452   4.177  0.3069  0.2723  0.0233
  174SAPS  H18R19821   4.402   3.524   4.100 -1.0061  2.2575  2.3316
  174SAPS  H18S19822   4.522   3.494   4.234 -0.1105  1.7853 -0.3983
  174SAPS  C21919823   4.318   3.418   4.271 -0.7946  1.0055 -0.6307
  174SAPS  H19R19824   4.358   3.345   4.345  0.8467  1.1963 -1.3080
  174SAPS  H19S19825   4.241   3.365   4.211 -0.4620  0.0532 -0.2387
  174SAPS  C22019826   4.258   3.528   4.350 -0.0313  0.4441 -0.2417
  174SAPS  H20R19827   4.231   3.618   4.292 -1.5162  0.0583 -0.2015
  174SAPS  H20S19828   4.323   3.549   4.438 -0.3888  0.4225  0.0315
  174SAPS  H20T19829   4.163   3.490   4.394 -1.5789  1.3544 -2.5937
  174SAPS   C3319830   4.849   3.952   2.726 -0.0591 -0.3409  0.1125
  174SAPS   H3X19831   4.879   4.030   2.652 -1.3677 -0.6203 -0.7520
  174SAPS   H3Y19832   4.926   3.873   2.721  1.5054  0.9647  1.9546
  174SAPS   C3419833   4.853   4.020   2.858 -0.1935 -0.1759  0.0213
  174SAPS   H4X19834   4.770   4.093   2.867 -1.1642 -0.9547 -2.1134
  174SAPS   H4Y19835   4.952   4.066   2.883 -0.3960  0.1250  0.2829
  174SAPS   C3519836   4.847   3.923   2.980  0.0300 -0.1581  0.2511
  174SAPS   H5X19837   4.933   3.852   2.987 -0.0648 -0.3171 -0.1617
  174SAPS   H5Y19838   4.760   3.855   2.967 -0.4233  0.7640 -1.7698
  174SAPS   C3619839   4.842   4.012   3.110  0.2971 -0.5381  0.0936
  174SAPS   H6X19840   4.753   4.077   3.111  2.2622  2.3560 -0.3125
  174SAPS   H6Y19841   4.921   4.090   3.115 -0.8979  0.6546  1.6964
  174SAPS   C3719842   4.840   3.923   3.236 -0.3898  0.6430  0.1401
  174SAPS   H7X19843   4.931   3.860   3.230  1.8936  3.3898  2.9595
  174SAPS   H7Y19844   4.758   3.849   3.228 -1.6326  2.1514 -2.5872
  174SAPS   C3819845   4.827   3.991   3.366 -0.2991  0.1511 -0.6004
  174SAPS   H8X19846   4.734   4.050   3.372 -1.4201 -1.4836 -1.2746
  174SAPS   H8Y19847   4.905   4.068   3.387 -1.0148  0.6722  0.1725
  174SAPS   C3919848   4.850   3.898   3.493 -0.5848 -0.8017 -0.0549
  174SAPS   H9X19849   4.955   3.864   3.481 -0.3742  0.4372 -2.0091
  174SAPS   H9Y19850   4.781   3.811   3.496  0.0806 -1.3518  2.4776
  174SAPS  C31019851   4.835   3.980   3.618  0.3683 -0.1781  0.0153
  174SAPS  H10X19852   4.742   4.041   3.609  0.3672  0.1732  1.9364
  174SAPS  H10Y19853   4.922   4.049   3.625  0.8353 -0.9114  1.8413
  174SAPS  C31119854   4.821   3.922   3.754  0.0612 -0.0413  0.6411
  174SAPS  H11X19855   4.741   3.845   3.764  0.4409 -0.4508  0.5465
  174SAPS  H11Y19856   4.802   3.999   3.831 -2.0622 -0.1767  0.3285
  174SAPS  C31219857   4.952   3.863   3.806 -0.1642 -0.2599 -0.1691
  174SAPS  H12X19858   4.956   3.856   3.917  2.4148  1.8843 -0.0310
  174SAPS  H12Y19859   5.032   3.939   3.795  0.0108 -0.4409 -0.1463
  174SAPS  C31319860   5.010   3.735   3.748  0.3527  0.1307 -0.1822
  174SAPS  H13X19861   5.007   3.743   3.637 -0.3643 -0.2295 -0.2012
  174SAPS  H13Y19862   4.938   3.653   3.772 -2.3129  2.3252 -0.1843
  174SAPS  C31419863   5.161   3.709   3.778 -0.2709 -0.2075 -0.4038
  174SAPS  H14X19864   5.226   3.789   3.736 -0.0602  0.6265  1.4189
  174SAPS  H14Y19865   5.195   3.619   3.722 -0.6089  1.4170 -3.4142
  174SAPS  C31519866   5.187   3.689   3.929  0.0617 -0.4168  0.0690
  174SAPS  H15X19867   5.134   3.770   3.983 -1.5141 -1.7886  0.6716
  174SAPS  H15Y19868   5.298   3.684   3.935  0.2455  1.7474 -0.8734
  174SAPS  C31619869   5.124   3.557   3.975 -0.0185  0.3508 -0.2296
  174SAPS  H16X19870   5.128   3.476   3.900 -0.0867  0.4256 -0.3136
  174SAPS  H16Y19871   5.017   3.580   3.997 -0.5421 -1.5720 -0.5176
  174SAPS  C31719872   5.192   3.517   4.110  0.1705  0.0562  0.0847
  174SAPS  H17X19873   5.303   3.523   4.108  0.2428 -1.1441 -1.8158
  174SAPS  H17Y19874   5.155   3.414   4.130 -1.1919  0.0269 -2.2985
  174SAPS  C31819875   5.154   3.607   4.229  0.7494 -0.6384 -0.3110
  174SAPS  H18X19876   5.066   3.673   4.217  0.5699 -0.8312 -0.0666
  174SAPS  H18Y19877   5.239   3.676   4.247  0.0085  0.1253  0.3372
  174SAPS  H18Z19878   5.153   3.551   4.325 -0.0327 -0.1101 -0.0113
  175SAPS     N19879   1.167   4.312   2.069  0.6533  0.2471 -0.0828
  175SAPS   HN119880   1.268   4.333   2.058  0.9361 -1.0464 -0.0931
  175SAPS   HN219881   1.107   4.392   2.041 -1.6688 -2.0563 -2.1796
  175SAPS   HN319882   1.145   4.298   2.170 -2.4508 -3.0246 -1.0183
  175SAPS   C1219883   1.144   4.198   1.989 -0.0856 -0.1641  0.3095
  175SAPS  H12A19884   1.039   4.177   1.980  0.6460 -4.4039 -0.1540
  175SAPS   C1319885   1.182   4.207   1.843  0.6645 -0.3914 -0.5784
  175SAPS  O13A19886   1.239   4.311   1.798 -0.0570 -0.3062  0.1900
  175SAPS  O13B19887   1.135   4.119   1.765  0.0512 -0.2739  0.3391
  175SAPS   C1119888   1.211   4.077   2.054  0.3529  0.4455 -0.5382
  175SAPS  H11A19889   1.186   3.988   1.993 -1.0744 -0.1069  0.7987
  175SAPS  H11B19890   1.165   4.066   2.155  2.3221  4.1044  0.9818
  175SAPS     P19891   1.430   4.062   2.193  0.1214 -0.4651 -0.0382
  175SAPS   O1319892   1.563   4.015   2.151 -0.1397  0.4339 -0.0795
  175SAPS   O1419893   1.417   4.187   2.265 -0.2024  0.1097 -0.9462
  175SAPS   O1219894   1.355   4.082   2.058 -0.5976  0.0159  0.0422
  175SAPS   O1119895   1.350   3.952   2.269 -0.1225 -0.3350  0.2257
  175SAPS    C119896   1.383   3.811   2.261 -0.3067 -0.1953  0.1975
  175SAPS    HA19897   1.302   3.754   2.209  0.3627 -0.9939  0.0039
  175SAPS    HB19898   1.463   3.788   2.187  0.4535 -1.9077  1.4835
  175SAPS    C219899   1.421   3.747   2.397  1.0980  0.3165 -0.3592
  175SAPS    HS19900   1.454   3.642   2.387 -0.7198 -0.5658  2.1345
  175SAPS   O2119901   1.298   3.761   2.475 -0.2665  0.4886  0.3296
  175SAPS   C2119902   1.270   3.652   2.543  0.7459  0.1000 -1.2997
  175SAPS   O2219903   1.343   3.555   2.564 -0.0538 -0.6446  0.7775
  175SAPS   C2219904   1.146   3.666   2.619  0.1619 -0.3262 -0.9915
  175SAPS   H2R19905   1.087   3.755   2.587  0.3655  0.6607  1.1454
  175SAPS   H2S19906   1.090   3.571   2.611 -1.8042  0.5390  1.1773
  175SAPS    C319907   1.543   3.813   2.467  0.3240 -0.5715 -0.2329
  175SAPS    HX19908   1.504   3.915   2.487 -3.2567 -1.9275  0.4894
  175SAPS    HY19909   1.633   3.822   2.403  0.6085  0.9368  0.3329
  175SAPS   O3119910   1.568   3.750   2.592 -0.6829  0.1349 -0.9290
  175SAPS   C3119911   1.633   3.630   2.587 -0.3005 -0.1036 -0.0406
  175SAPS   O3219912   1.687   3.580   2.493 -0.0730 -0.5307  0.1865
  175SAPS   C3219913   1.611   3.554   2.722 -0.2594  0.2929  0.3991
  175SAPS   H2X19914   1.557   3.460   2.696  0.6998 -0.6266  1.6272
  175SAPS   H2Y19915   1.551   3.611   2.795 -0.6140 -0.1330  0.4484
  175SAPS   C2319916   1.181   3.693   2.774 -0.1835  0.4179  0.7239
  175SAPS   H3R19917   1.236   3.604   2.811 -1.2062 -0.9327 -0.8502
  175SAPS   H3S19918   1.080   3.695   2.820 -1.1027  2.3854 -1.1942
  175SAPS   C2419919   1.269   3.817   2.807  0.0666 -0.3010  0.7194
  175SAPS   H4R19920   1.361   3.810   2.746 -0.1322 -2.7145  0.6319
  175SAPS   H4S19921   1.298   3.820   2.915 -1.6927 -1.8545  1.2877
  175SAPS   C2519922   1.195   3.940   2.768 -0.0309 -0.2141  0.0378
  175SAPS   H5R19923   1.196   3.954   2.659  0.7721 -1.3010 -0.1070
  175SAPS   C2619924   1.140   4.036   2.846 -0.1780  0.1237 -0.3171
  175SAPS   H6R19925   1.076   4.106   2.790 -0.4308 -1.2770 -1.8518
  175SAPS   C2719926   1.128   4.030   2.998  0.4310  0.1956  0.4283
  175SAPS   H7R19927   1.178   3.944   3.046  1.6083 -0.5393 -1.9571
  175SAPS   H7S19928   1.021   4.014   3.023  0.3762 -0.9581 -0.4380
  175SAPS   C2819929   1.177   4.157   3.063 -0.1560 -0.1834  0.1693
  175SAPS   H8R19930   1.190   4.240   2.992 -0.4084 -1.3712 -1.3182
  175SAPS   C2919931   1.180   4.173   3.199  0.8331 -0.4234 -0.2473
  175SAPS   H9R19932   1.217   4.269   3.237  1.5337 -1.0104  0.5989
  175SAPS  C21019933   1.147   4.076   3.306  0.1257  0.1112  0.0822
  175SAPS  H10R19934   1.237   4.071   3.371  0.6541 -0.9653 -0.6996
  175SAPS  H10S19935   1.145   3.973   3.264  2.6949  0.5661 -1.3679
  175SAPS  C21119936   1.028   4.112   3.390 -0.5196  0.4726  0.3587
  175SAPS  H11R19937   0.941   4.131   3.326 -0.5616 -1.4122 -0.2000
  175SAPS  C21219938   1.031   4.142   3.523  0.0610 -0.1843 -0.0041
  175SAPS  H12R19939   0.938   4.170   3.574 -0.3377  0.0368 -0.8314
  175SAPS  C21319940   1.136   4.118   3.631 -0.2359 -0.3688 -0.5298
  175SAPS  H13R19941   1.098   4.151   3.730  1.0941 -0.4293  0.0260
  175SAPS  H13S19942   1.235   4.166   3.617 -0.4194 -0.2665 -1.5658
  175SAPS  C21419943   1.148   3.969   3.650 -0.0731  0.0125 -0.4969
  175SAPS  H14R19944   1.114   3.897   3.573  0.4520  0.5696 -1.2593
  175SAPS  C21519945   1.222   3.924   3.753  0.8438  0.2316 -0.4437
  175SAPS  H15R19946   1.211   3.817   3.777 -3.2125  1.1457  2.9419
  175SAPS  C21619947   1.284   4.008   3.864 -0.1082  0.5664  0.4517
  175SAPS  H16R19948   1.221   4.094   3.894 -0.5646  0.8992 -1.3467
  175SAPS  H16S19949   1.370   4.056   3.813 -1.4060  0.5283 -1.8951
  175SAPS  C21719950   1.334   3.930   3.987 -0.7357 -0.4937  0.3038
  175SAPS  H17R19951   1.432   3.883   3.965 -0.9121 -0.1778 -1.2417
  175SAPS  H17S19952   1.275   3.837   4.002 -1.2084  0.1013  2.6002
  175SAPS  C21819953   1.337   4.005   4.122 -0.8177 -0.2524 -0.0989
  175SAPS  H18R19954   1.373   3.925   4.191 -1.3512 -0.2951  0.1414
  175SAPS  H18S19955   1.229   4.020   4.145 -1.9256 -4.0527 -1.9476
  175SAPS  C21919956   1.404   4.140   4.112 -0.0121  0.8252 -0.7951
  175SAPS  H19R19957   1.336   4.214   4.065 -2.5327 -1.4781 -1.0481
  175SAPS  H19S19958   1.505   4.129   4.068  1.6206  1.9090  2.3620
  175SAPS  C22019959   1.444   4.197   4.248  0.6529  0.0309  0.1314
  175SAPS  H20R19960   1.354   4.205   4.313  0.0581  2.6482 -0.8741
  175SAPS  H20S19961   1.495   4.295   4.240  1.6923 -0.2441  2.6261
  175SAPS  H20T19962   1.510   4.126   4.302  1.1090  1.6380  1.7765
  175SAPS   C3319963   1.734   3.500   2.798  0.1909 -0.2540 -0.2766
  175SAPS   H3X19964   1.802   3.441   2.732 -0.1391 -2.1873  1.0111
  175SAPS   H3Y19965   1.695   3.418   2.862  0.9912  0.0657  0.6445
  175SAPS   C3419966   1.798   3.604   2.882 -0.6739 -0.4746  0.5691
  175SAPS   H4X19967   1.828   3.690   2.818 -0.7393 -1.1140 -0.3351
  175SAPS   H4Y19968   1.899   3.569   2.913  0.6812  1.1127 -1.7354
  175SAPS   C3519969   1.717   3.661   2.999 -0.9647  0.3002 -0.1963
  175SAPS   H5X19970   1.667   3.576   3.050 -0.3997  0.8638  1.3474
  175SAPS   H5Y19971   1.640   3.726   2.953 -3.1332 -1.9442  0.0598
  175SAPS   C3619972   1.815   3.723   3.113  0.0755  0.3373  0.4485
  175SAPS   H6X19973   1.742   3.779   3.176 -0.5509 -1.0239  0.9514
  175SAPS   H6Y19974   1.881   3.798   3.064 -1.3503 -0.4787 -3.0886
  175SAPS   C3719975   1.897   3.615   3.192 -0.0286 -0.1718 -0.4619
  175SAPS   H7X19976   1.985   3.584   3.131 -0.8792 -2.6828 -0.5530
  175SAPS   H7Y19977   1.825   3.531   3.206  1.5541 -1.6507 -0.7444
  175SAPS   C3819978   1.937   3.661   3.334  0.3635  0.0218 -0.4202
  175SAPS   H8X19979   1.843   3.705   3.373  0.1686  0.7488 -1.6664
  175SAPS   H8Y19980   2.018   3.737   3.334 -0.1092  0.5283 -0.2319
  175SAPS   C3919981   1.983   3.544   3.423  0.1406 -0.2336  0.2279
  175SAPS   H9X19982   2.054   3.482   3.365 -2.3889 -2.4950 -0.7024
  175SAPS   H9Y19983   1.905   3.470   3.449  0.3476 -0.6957 -0.4540
  175SAPS  C31019984   2.057   3.592   3.546  0.3854 -0.0299  0.3924
  175SAPS  H10X19985   2.145   3.654   3.522  1.0390 -1.6854 -1.8577
  175SAPS  H10Y19986   2.097   3.498   3.591 -0.6757 -0.3438  0.7086
  175SAPS  C31119987   1.968   3.660   3.652 -0.1822  0.0679 -0.0608
  175SAPS  H11X19988   1.870   3.609   3.661  0.2118 -1.4753 -3.3180
  175SAPS  H11Y19989   1.945   3.764   3.621 -0.8037  0.1381  0.6041
  175SAPS  C31219990   2.044   3.651   3.789  0.0318 -0.8454 -0.5868
  175SAPS  H12X19991   2.146   3.687   3.764 -2.0516  6.0567 -1.4924
  175SAPS  H12Y19992   2.069   3.549   3.823  1.7180  0.3774  2.1960
  175SAPS  C31319993   1.981   3.748   3.885  0.5732 -0.1562 -0.2217
  175SAPS  H13X19994   1.886   3.700   3.918  0.9435 -2.3372 -2.0700
  175SAPS  H13Y19995   1.962   3.847   3.838 -0.4376 -0.3356 -0.2222
  175SAPS  C31419996   2.058   3.769   4.011 -0.1460  0.1781  0.2750
  175SAPS  H14X19997   2.149   3.827   3.987 -1.3705  2.6490  1.2230
  175SAPS  H14Y19998   2.101   3.670   4.039 -0.0474 -0.7178 -2.7063
  175SAPS  C31519999   1.992   3.855   4.125 -0.4227  0.5940  0.0526
  175SAPS  H15X20000   1.990   3.957   4.081 -0.1596 -0.5998 -3.0015
  175SAPS  H15Y20001   2.052   3.836   4.216  0.4037  0.4871 -0.5035
  175SAPS  C31620002   1.852   3.824   4.158  0.1545 -0.2154 -0.2974
  175SAPS  H16X20003   1.839   3.719   4.190  1.8023 -0.5845 -0.7501
  175SAPS  H16Y20004   1.784   3.836   4.071  2.2990 -0.2120 -2.0446
  175SAPS  C31720005   1.794   3.903   4.280  0.4222  0.2208  0.0661
  175SAPS  H17X20006   1.776   4.011   4.260 -0.8398  0.2217  1.0312
  175SAPS  H17Y20007   1.870   3.889   4.359 -0.1217 -0.0767  0.5454
  175SAPS  C31820008   1.664   3.847   4.323  0.2636 -0.3651 -0.0728
  175SAPS  H18X20009   1.589   3.842   4.241 -1.6865 -0.2956  1.6349
  175SAPS  H18Y20010   1.634   3.912   4.408  0.4264 -2.4012  1.6007
  175SAPS  H18Z20011   1.667   3.748   4.373 -0.5750 -0.3241  0.0639
  176SAPS     N20012   5.029   0.393   1.891  0.4839  0.4835 -0.2580
  176SAPS   HN120013   4.945   0.425   1.942  2.4588  3.5694  1.3638
  176SAPS   HN220014   5.047   0.292   1.906 -1.6624 -0.1802 -1.6830
  176SAPS   HN320015   5.103   0.450   1.938  1.3339 -2.0907  1.7482
  176SAPS   C1220016   5.001   0.409   1.748 -0.4597  0.0987  0.2500
  176SAPS  H12A20017   5.093   0.443   1.703 -0.5955 -0.4010 -0.4314
  176SAPS   C1320018   4.954   0.285   1.668  0.3132  0.1381 -0.1460
  176SAPS  O13A20019   4.954   0.174   1.727  0.4470  0.4657  0.5243
  176SAPS  O13B20020   4.913   0.296   1.549 -0.1640 -0.2721 -0.4028
  176SAPS   C1120021   4.895   0.524   1.729 -0.0443 -0.3415 -0.7557
  176SAPS  H11A20022   4.809   0.508   1.798 -1.0392 -0.1994 -1.9115
  176SAPS  H11B20023   4.847   0.516   1.629 -0.1967  0.9828 -0.7992
  176SAPS     P20024   4.856   0.777   1.731  0.0433 -0.1703  0.1587
  176SAPS   O1320025   4.903   0.861   1.619  0.1890  0.1430 -0.5841
  176SAPS   O1420026   4.709   0.741   1.729 -0.1001  0.0616 -0.3500
  176SAPS   O1220027   4.952   0.651   1.749  0.1507 -0.1862 -0.0732
  176SAPS   O1120028   4.883   0.861   1.857 -0.4625 -0.4260 -0.6036
  176SAPS    C120029   4.875   0.817   1.992  1.1533  0.6412 -0.1192
  176SAPS    HA20030   4.828   0.718   2.008  0.5237  1.0434  0.6227
  176SAPS    HB20031   4.976   0.795   2.034 -0.0694 -1.3179  2.0108
  176SAPS    C220032   4.798   0.917   2.083 -1.0691  0.4952 -0.2134
  176SAPS    HS20033   4.713   0.956   2.023 -2.3753 -3.0355 -0.8898
  176SAPS   O2120034   4.887   1.029   2.123  0.0127 -0.1234 -0.1410
  176SAPS   C2120035   4.891   1.139   2.050 -0.2089 -0.2020 -0.0599
  176SAPS   O2220036   4.829   1.155   1.948  0.5143 -0.4760  0.4651
  176SAPS   C2220037   4.987   1.232   2.107 -1.1819 -0.8928  0.9143
  176SAPS   H2R20038   5.062   1.251   2.028 -1.8278  0.1314  0.5337
  176SAPS   H2S20039   4.929   1.325   2.122 -0.7575 -0.5179  0.2314
  176SAPS    C320040   4.744   0.862   2.211  0.2241  0.6972 -0.4402
  176SAPS    HX20041   4.664   0.788   2.187  1.0066 -0.7922  1.3010
  176SAPS    HY20042   4.692   0.943   2.267  1.6780  1.1014  0.3624
  176SAPS   O3120043   4.843   0.796   2.284 -0.2482 -0.0524 -0.6261
  176SAPS   C3120044   4.894   0.861   2.387  0.5638  0.4880 -1.5481
  176SAPS   O3220045   4.869   0.973   2.426 -0.3413  0.3970 -0.3209
  176SAPS   C3220046   4.988   0.763   2.455  0.4080  1.2492 -0.5527
  176SAPS   H2X20047   5.075   0.742   2.389  0.8167  0.1663  0.2931
  176SAPS   H2Y20048   4.938   0.665   2.469  0.8698  0.9105 -1.2371
  176SAPS   C2320049   5.064   1.203   2.246 -0.3789 -0.2781  0.2767
  176SAPS   H3R20050   5.128   1.113   2.234  0.3591  0.1214  1.0844
  176SAPS   H3S20051   4.993   1.185   2.329 -1.9896 -0.9091 -1.1638
  176SAPS   C2420052   5.161   1.316   2.282  0.9258 -0.1770 -0.8912
  176SAPS   H4R20053   5.102   1.411   2.281  1.5153  0.2402  0.5196
  176SAPS   H4S20054   5.242   1.318   2.206  1.4488  0.2404 -0.3371
  176SAPS   C2520055   5.217   1.309   2.421 -0.2635 -0.4403 -0.0686
  176SAPS   H5R20056   5.325   1.292   2.431 -0.2782  0.4815  2.0851
  176SAPS   C2620057   5.158   1.308   2.540 -0.0657 -0.4407  0.1555
  176SAPS   H6R20058   5.221   1.303   2.630 -0.1024  2.1599  0.3857
  176SAPS   C2720059   5.011   1.327   2.567  0.0168 -0.4576  0.0522
  176SAPS   H7R20060   4.954   1.341   2.473 -0.5849  0.5395  0.5457
  176SAPS   H7S20061   4.999   1.425   2.619 -0.0308 -0.4009 -0.0653
  176SAPS   C2820062   4.950   1.211   2.637 -0.0604 -0.5607 -0.2920
  176SAPS   H8R20063   4.991   1.113   2.609 -2.2204 -1.9120  0.9758
  176SAPS   C2920064   4.846   1.209   2.720  0.7471  0.2684 -0.8918
  176SAPS   H9R20065   4.822   1.114   2.771  0.8949  1.9868  2.6728
  176SAPS  C21020066   4.768   1.330   2.750  0.3177 -0.2078 -0.3862
  176SAPS  H10R20067   4.768   1.408   2.671  1.2742 -1.0388 -1.2473
  176SAPS  H10S20068   4.810   1.385   2.837  0.7296  1.9382 -1.8792
  176SAPS  C21120069   4.627   1.286   2.790  0.4094 -0.3368 -0.0975
  176SAPS  H11R20070   4.566   1.258   2.704 -1.2156  0.4029  0.7680
  176SAPS  C21220071   4.577   1.301   2.913  0.8622 -0.8891 -0.4043
  176SAPS  H12R20072   4.471   1.276   2.924 -0.0032  0.5985 -4.0635
  176SAPS  C21320073   4.652   1.355   3.034  0.2844  0.3212 -0.8777
  176SAPS  H13R20074   4.569   1.349   3.107  1.0676 -0.6513 -0.0421
  176SAPS  H13S20075   4.681   1.460   3.011 -1.9296  0.9102 -1.2536
  176SAPS  C21420076   4.764   1.271   3.092 -0.0734  0.2162  0.0405
  176SAPS  H14R20077   4.775   1.183   3.028 -0.7318 -0.1934  0.4718
  176SAPS  C21520078   4.840   1.285   3.201 -0.6451  0.2773  0.2465
  176SAPS  H15R20079   4.910   1.205   3.231 -0.5612 -0.6388 -2.1946
  176SAPS  C21620080   4.830   1.389   3.309 -0.3050 -0.1232 -0.2482
  176SAPS  H16R20081   4.768   1.474   3.275 -0.0817  1.6166  3.2596
  176SAPS  H16S20082   4.923   1.448   3.324 -1.0567  0.7978  0.9863
  176SAPS  C21720083   4.777   1.331   3.445  0.2302 -0.0025 -0.2932
  176SAPS  H17R20084   4.855   1.287   3.511  0.0349 -1.1601 -0.8131
  176SAPS  H17S20085   4.702   1.256   3.412  0.4990 -0.3378 -0.1522
  176SAPS  C21820086   4.700   1.443   3.518 -0.2202  0.4151  0.1168
  176SAPS  H18R20087   4.639   1.504   3.448 -2.1285 -1.1264  0.3503
  176SAPS  H18S20088   4.758   1.511   3.584  0.4815 -1.4598  1.5310
  176SAPS  C21920089   4.598   1.378   3.617 -0.8958  0.7703 -0.4829
  176SAPS  H19R20090   4.640   1.293   3.675  0.8011  0.1301 -2.4953
  176SAPS  H19S20091   4.530   1.322   3.549  0.7674  0.1334 -1.7294
  176SAPS  C22020092   4.523   1.467   3.710 -0.3527 -0.3075  0.4887
  176SAPS  H20R20093   4.441   1.417   3.767 -0.7869 -1.4747 -1.1117
  176SAPS  H20S20094   4.465   1.539   3.649 -0.7559 -1.6568 -0.7569
  176SAPS  H20T20095   4.600   1.513   3.775 -1.2329 -0.5753  1.7601
  176SAPS   C3320096   5.027   0.803   2.602  0.3567 -0.5945  0.6051
  176SAPS   H3X20097   5.069   0.906   2.598 -1.4040  0.1373 -1.7971
  176SAPS   H3Y20098   5.107   0.733   2.634  1.7572  1.0222  0.7689
  176SAPS   C3420099   4.911   0.789   2.703  0.0178 -0.3816 -0.0495
  176SAPS   H4X20100   4.863   0.688   2.706  0.6023 -0.6414  1.1833
  176SAPS   H4Y20101   4.836   0.864   2.673  0.9493  0.3951 -0.4862
  176SAPS   C3520102   4.966   0.807   2.840 -0.1175  1.0087  0.1639
  176SAPS   H5X20103   5.025   0.902   2.843  0.1262  0.8824  4.0472
  176SAPS   H5Y20104   5.047   0.737   2.869  0.8747  1.4940 -1.3003
  176SAPS   C3620105   4.851   0.818   2.943  0.2552  0.3359 -1.0778
  176SAPS   H6X20106   4.774   0.739   2.933  0.6549 -0.1843 -0.2204
  176SAPS   H6Y20107   4.803   0.917   2.928  0.5482  0.7084  0.3202
  176SAPS   C3720108   4.911   0.814   3.086  0.0247  0.0468  0.2225
  176SAPS   H7X20109   5.003   0.876   3.088 -1.1617  1.8720 -0.2302
  176SAPS   H7Y20110   4.948   0.712   3.113  1.0344  0.4654  0.4829
  176SAPS   C3820111   4.820   0.861   3.197  0.3528 -0.9646 -1.1983
  176SAPS   H8X20112   4.721   0.809   3.197  0.5248 -1.2897 -0.9821
  176SAPS   H8Y20113   4.788   0.966   3.178 -0.2674 -1.1360 -1.1229
  176SAPS   C3920114   4.881   0.855   3.338  0.8910  0.2521 -0.0640
  176SAPS   H9X20115   4.979   0.905   3.348  1.3511 -0.8192  1.0911
  176SAPS   H9Y20116   4.902   0.749   3.366  3.2690  0.8052  0.4022
  176SAPS  C31020117   4.773   0.914   3.439  0.1806  0.1501 -0.6779
  176SAPS  H10X20118   4.670   0.910   3.396 -0.3791  0.8801  0.5442
  176SAPS  H10Y20119   4.791   1.022   3.456 -1.1060  0.0895  1.4271
  176SAPS  C31120120   4.771   0.841   3.571 -0.2327 -0.7143  0.0246
  176SAPS  H11X20121   4.875   0.821   3.603 -0.4234  0.0653  1.2019
  176SAPS  H11Y20122   4.719   0.743   3.563  0.2811 -1.1777  1.9100
  176SAPS  C31220123   4.702   0.929   3.683  0.9277  0.1099  0.1437
  176SAPS  H12X20124   4.596   0.961   3.670 -0.0351 -2.2161  1.6401
  176SAPS  H12Y20125   4.767   1.018   3.697 -1.5854  2.1155 -0.2548
  176SAPS  C31320126   4.700   0.857   3.820 -0.0194  0.0603  0.1125
  176SAPS  H13X20127   4.799   0.811   3.839 -0.2928 -0.1448  1.1527
  176SAPS  H13Y20128   4.616   0.784   3.825 -0.8350  0.8391 -1.4969
  176SAPS  C31420129   4.684   0.952   3.947 -0.2100 -0.2760  0.2181
  176SAPS  H14X20130   4.763   1.031   3.948 -2.6078  2.3223 -1.1229
  176SAPS  H14Y20131   4.690   0.890   4.039 -0.0038 -0.3883  0.1306
  176SAPS  C31520132   4.546   1.012   3.953  0.0167  0.9853  0.5988
  176SAPS  H15X20133   4.465   0.939   3.975 -1.3875  2.3837  0.2708
  176SAPS  H15Y20134   4.522   1.055   3.853 -2.5947 -2.9086 -0.6861
  176SAPS  C31620135   4.536   1.114   4.067  0.5246 -0.2885  0.3195
  176SAPS  H16X20136   4.582   1.074   4.159  0.3647 -3.0667 -0.7268
  176SAPS  H16Y20137   4.429   1.131   4.095  0.3416  0.4922 -0.7918
  176SAPS  C31720138   4.590   1.257   4.028 -0.8832 -0.2100  0.4491
  176SAPS  H17X20139   4.551   1.325   4.107 -1.8859 -1.2754  0.9047
  176SAPS  H17Y20140   4.536   1.300   3.942  2.7740  0.4806 -1.6894
  176SAPS  C31820141   4.737   1.274   4.007 -0.1762 -0.1018  0.2196
  176SAPS  H18X20142   4.769   1.379   4.023 -0.3923  0.2651 -1.5785
  176SAPS  H18Y20143   4.763   1.247   3.903 -1.0624  1.8498 -0.5420
  176SAPS  H18Z20144   4.796   1.212   4.078  1.6957  1.4052  0.0309
  177SAPS     N20145   3.952   5.744   1.850 -0.0089  0.5395  0.4267
  177SAPS   HN120146   3.876   5.687   1.892  1.1306  0.1110  2.0103
  177SAPS   HN220147   4.024   5.752   1.925 -1.3658 -0.2941  1.8917
  177SAPS   HN320148   3.923   5.843   1.837  1.2252  0.7505 -0.8921
  177SAPS   C1220149   4.006   5.686   1.724 -0.5350  0.1739  0.0624
  177SAPS  H12A20150   3.928   5.684   1.649  0.9625 -0.8396 -1.5469
  177SAPS   C1320151   4.132   5.746   1.668  0.5468  0.3867 -0.4048
  177SAPS  O13A20152   4.187   5.838   1.732 -0.4348 -0.8002  0.4919
  177SAPS  O13B20153   4.180   5.706   1.563 -0.0556  0.1054 -0.1295
  177SAPS   C1120154   4.024   5.539   1.763 -0.2616  0.3402 -0.3700
  177SAPS  H11A20155   4.059   5.479   1.676  2.2576  1.0667  0.0442
  177SAPS  H11B20156   3.926   5.492   1.784  0.1120 -0.1248  0.4021
  177SAPS     P20157   4.166   5.366   1.914 -0.0179 -0.3000 -0.1532
  177SAPS   O1320158   4.215   5.300   1.790 -0.4551 -0.2980 -0.0364
  177SAPS   O1420159   4.258   5.370   2.033  0.0951  0.1522 -0.9002
  177SAPS   O1220160   4.116   5.509   1.877 -0.1681 -0.1053  0.3142
  177SAPS   O1120161   4.033   5.292   1.955  0.3609  0.2213 -0.3531
  177SAPS    C120162   3.954   5.325   2.059  0.2879 -0.2315  0.3042
  177SAPS    HA20163   3.987   5.409   2.124 -0.3726 -0.1897  0.5986
  177SAPS    HB20164   3.859   5.368   2.021  0.7120 -1.7651 -2.8469
  177SAPS    C220165   3.937   5.195   2.153  0.1245 -0.1413 -0.1003
  177SAPS    HS20166   3.833   5.210   2.189 -0.1363  2.8754 -1.8009
  177SAPS   O2120167   4.045   5.192   2.251 -0.0365 -0.8971 -0.0622
  177SAPS   C2120168   4.008   5.169   2.373  0.0299  0.6409  0.3394
  177SAPS   O2220169   3.890   5.155   2.407 -0.3930  0.2792  0.5363
  177SAPS   C2220170   4.133   5.165   2.462 -0.2197 -0.7378 -0.0825
  177SAPS   H2R20171   4.181   5.065   2.463 -0.4596 -0.9214  3.4892
  177SAPS   H2S20172   4.209   5.233   2.419 -0.7765 -0.2946 -0.3895
  177SAPS    C320173   3.955   5.066   2.077 -0.4416  0.4482  0.3846
  177SAPS    HX20174   4.062   5.081   2.052 -0.7034  0.7953 -0.5977
  177SAPS    HY20175   3.891   5.066   1.986 -1.0769  0.9408  0.8189
  177SAPS   O3120176   3.914   4.949   2.158 -0.2959 -0.3972  0.4291
  177SAPS   C3120177   3.999   4.849   2.163 -0.1174  0.0183 -0.6510
  177SAPS   O3220178   4.110   4.853   2.108 -0.6784 -0.6313  0.4596
  177SAPS   C3220179   3.939   4.730   2.232 -0.3220  0.4035  0.0990
  177SAPS   H2X20180   3.916   4.658   2.151  0.4466 -0.9198  1.0244
  177SAPS   H2Y20181   3.849   4.761   2.289  0.5616 -0.3287  1.9794
  177SAPS   C2320182   4.090   5.185   2.608  0.4789  0.8028 -0.2483
  177SAPS   H3R20183   4.175   5.158   2.675 -0.1596 -1.6199 -0.3015
  177SAPS   H3S20184   4.015   5.105   2.627  0.0272  1.3469  0.3269
  177SAPS   C2420185   4.046   5.320   2.651  0.7171 -0.7592  0.0769
  177SAPS   H4R20186   4.004   5.327   2.754  0.5609  0.2316 -0.0402
  177SAPS   H4S20187   3.960   5.345   2.586  0.6696 -2.0494 -0.3740
  177SAPS   C2520188   4.155   5.424   2.640 -0.5216  0.5611  0.7331
  177SAPS   H5R20189   4.185   5.440   2.536 -1.2169  0.5058  0.5150
  177SAPS   C2620190   4.219   5.493   2.734 -0.7798  0.0071 -0.2119
  177SAPS   H6R20191   4.311   5.541   2.696 -1.5686  0.7567 -1.2194
  177SAPS   C2720192   4.195   5.490   2.884 -0.0115 -0.0444  0.2611
  177SAPS   H7R20193   4.280   5.426   2.917 -0.5762 -1.0101 -0.1122
  177SAPS   H7S20194   4.100   5.439   2.910  0.1399  0.0142  0.9310
  177SAPS   C2820195   4.197   5.618   2.971  0.2847 -0.3182  0.1907
  177SAPS   H8R20196   4.197   5.710   2.911 -0.1519  0.1766  0.9275
  177SAPS   C2920197   4.185   5.632   3.105 -0.0236 -1.0408  0.0586
  177SAPS   H9R20198   4.176   5.733   3.149 -0.3473 -1.6673  1.4536
  177SAPS  C21020199   4.181   5.522   3.209  0.9315 -0.4234 -0.4159
  177SAPS  H10R20200   4.238   5.561   3.296 -0.2432  0.7132 -0.1219
  177SAPS  H10S20201   4.232   5.434   3.165  0.4061 -0.9826  0.0881
  177SAPS  C21120202   4.042   5.484   3.250 -0.0454  0.4434 -0.4101
  177SAPS  H11R20203   4.011   5.384   3.218  0.5978  0.2334 -0.4064
  177SAPS  C21220204   3.954   5.553   3.327  0.0654 -0.0818  0.0996
  177SAPS  H12R20205   3.861   5.500   3.352 -1.0678  1.6209 -0.3715
  177SAPS  C21320206   3.992   5.687   3.392  0.8029 -0.4593  0.5145
  177SAPS  H13R20207   3.902   5.752   3.396 -0.4986 -2.0404 -1.2007
  177SAPS  H13S20208   4.066   5.752   3.342  1.1644  0.0314  1.6652
  177SAPS  C21420209   4.052   5.676   3.526 -0.6315 -0.9909  0.2077
  177SAPS  H14R20210   4.161   5.674   3.515 -0.7093  2.2275 -3.5417
  177SAPS  C21520211   3.983   5.666   3.644 -0.9116  0.1230 -0.3076
  177SAPS  H15R20212   4.039   5.676   3.738 -0.8299  2.2839 -0.5512
  177SAPS  C21620213   3.830   5.663   3.661 -0.4403 -0.0252  0.6590
  177SAPS  H16R20214   3.784   5.689   3.564 -0.2273 -0.7411  0.3601
  177SAPS  H16S20215   3.791   5.741   3.729 -0.2170  0.2751  0.4417
  177SAPS  C21720216   3.764   5.534   3.719  0.0658 -0.2528  0.6922
  177SAPS  H17R20217   3.775   5.460   3.637 -1.4387  0.3445 -0.0792
  177SAPS  H17S20218   3.655   5.552   3.732 -0.1209 -0.9830  0.2269
  177SAPS  C21820219   3.820   5.481   3.857  0.3184 -0.7112  0.6962
  177SAPS  H18R20220   3.931   5.480   3.848  0.4052  2.0167  0.4761
  177SAPS  H18S20221   3.770   5.383   3.870  0.1406 -0.5749  1.0629
  177SAPS  C21920222   3.783   5.567   3.976 -0.0104  0.2172 -0.2123
  177SAPS  H19R20223   3.675   5.592   3.985 -0.2757 -0.7062 -0.6854
  177SAPS  H19S20224   3.835   5.663   3.956  0.3792  0.1314  0.3512
  177SAPS  C22020225   3.833   5.507   4.101  0.8151 -0.4266  0.3455
  177SAPS  H20R20226   3.800   5.575   4.183 -0.9446 -1.0657  0.2104
  177SAPS  H20S20227   3.944   5.503   4.095  0.8112  0.2179 -0.3769
  177SAPS  H20T20228   3.786   5.412   4.131 -1.3482  1.1986  2.5358
  177SAPS   C3320229   4.042   4.669   2.330  0.0033  0.8394 -0.0117
  177SAPS   H3X20230   4.126   4.638   2.265 -1.3123 -0.5347 -1.1407
  177SAPS   H3Y20231   3.999   4.583   2.386  1.8953  0.4959  1.0244
  177SAPS   C3420232   4.086   4.758   2.445 -0.3643 -0.5407 -0.0044
  177SAPS   H4X20233   3.997   4.803   2.494 -1.1881 -0.8275 -1.2015
  177SAPS   H4Y20234   4.152   4.835   2.401 -0.1938  1.6012  3.5748
  177SAPS   C3520235   4.175   4.684   2.537 -0.4531 -0.5290 -0.3367
  177SAPS   H5X20236   4.253   4.638   2.472  0.2139  2.4193 -1.8121
  177SAPS   H5Y20237   4.121   4.601   2.588  1.3460 -1.6664 -0.2113
  177SAPS   C3620238   4.242   4.771   2.642 -0.1237 -0.0257  0.6764
  177SAPS   H6X20239   4.293   4.861   2.603 -0.0334 -0.4856 -0.2908
  177SAPS   H6Y20240   4.325   4.709   2.681  1.3541  1.7242  0.4255
  177SAPS   C3720241   4.154   4.808   2.762  0.5660 -0.0714 -0.1869
  177SAPS   H7X20242   4.085   4.723   2.785  0.0662 -0.0112 -1.4051
  177SAPS   H7Y20243   4.105   4.903   2.733  0.5747  0.1188  0.4052
  177SAPS   C3820244   4.238   4.835   2.889  0.3271  0.0245 -0.3643
  177SAPS   H8X20245   4.311   4.911   2.854 -0.1596  0.4523 -0.4680
  177SAPS   H8Y20246   4.290   4.746   2.930 -1.6239 -1.1461 -0.3379
  177SAPS   C3920247   4.144   4.897   2.987 -0.4937 -0.0270  0.1653
  177SAPS   H9X20248   4.101   4.817   3.051 -0.2956 -0.4629 -0.2488
  177SAPS   H9Y20249   4.068   4.952   2.928  0.7065 -0.3628 -1.7730
  177SAPS  C31020250   4.212   5.006   3.087  0.2228  0.6449  0.1308
  177SAPS  H10X20251   4.246   5.094   3.029  1.8030  0.2341  0.3887
  177SAPS  H10Y20252   4.309   4.962   3.119 -0.1659 -2.2157 -2.2610
  177SAPS  C31120253   4.121   5.046   3.198  0.6430 -0.3061  0.0213
  177SAPS  H11X20254   4.081   4.959   3.254  0.2097 -0.1190  0.0053
  177SAPS  H11Y20255   4.031   5.101   3.163  0.1277 -1.2169 -0.1250
  177SAPS  C31220256   4.199   5.122   3.306 -0.0139  0.0879  0.2287
  177SAPS  H12X20257   4.245   5.210   3.257  0.1675 -0.4654 -0.6135
  177SAPS  H12Y20258   4.292   5.066   3.334 -0.8199 -1.2629  0.3169
  177SAPS  C31320259   4.124   5.155   3.435 -0.5533  0.1521 -0.0252
  177SAPS  H13X20260   4.065   5.067   3.471 -2.4055  0.8271 -1.2314
  177SAPS  H13Y20261   4.050   5.233   3.405  2.1348  2.8235 -0.1199
  177SAPS  C31420262   4.220   5.207   3.549  0.2004  0.0296  0.0723
  177SAPS  H14X20263   4.280   5.283   3.495  0.4424 -2.2688 -3.1909
  177SAPS  H14Y20264   4.290   5.128   3.587 -2.3150 -0.8806  3.3225
  177SAPS  C31520265   4.144   5.258   3.676 -0.0198  0.7150 -0.3545
  177SAPS  H15X20266   4.066   5.326   3.635 -1.3047  0.9211  2.2417
  177SAPS  H15Y20267   4.213   5.306   3.750 -0.9077  0.5203  0.6225
  177SAPS  C31620268   4.093   5.138   3.761 -0.5183 -0.7837 -0.2442
  177SAPS  H16X20269   4.179   5.083   3.804  1.9784  2.0523 -1.2283
  177SAPS  H16Y20270   4.040   5.070   3.690  2.3548  1.3186 -4.9375
  177SAPS  C31720271   4.012   5.172   3.882  0.3460 -0.1775 -0.8131
  177SAPS  H17X20272   3.917   5.213   3.840  0.3420  0.5730 -0.0891
  177SAPS  H17Y20273   4.067   5.240   3.949  0.8183 -1.2320 -0.1215
  177SAPS  C31820274   3.974   5.042   3.969 -0.1410 -1.2425  0.8076
  177SAPS  H18X20275   3.885   5.073   4.028  1.5206  1.1643  2.2166
  177SAPS  H18Y20276   4.053   5.025   4.044 -1.5081 -0.2137  2.5735
  177SAPS  H18Z20277   3.951   4.957   3.901 -0.8451 -0.8385  0.5240
  178SAPS     N20278   0.562   6.283   2.165  0.6180 -0.2132 -0.1899
  178SAPS   HN120279   0.661   6.316   2.174  0.3162  0.1240  2.8937
  178SAPS   HN220280   0.491   6.356   2.185  1.7107  0.5901  0.8927
  178SAPS   HN320281   0.542   6.202   2.227  2.1205 -1.2473 -0.9980
  178SAPS   C1220282   0.534   6.229   2.023 -0.2186 -0.2612  0.3044
  178SAPS  H12A20283   0.538   6.317   1.961  3.0815 -2.0003 -2.2806
  178SAPS   C1320284   0.640   6.131   1.979  0.1547  0.3211 -0.0714
  178SAPS  O13A20285   0.725   6.090   2.063  0.5423  0.0103  0.3495
  178SAPS  O13B20286   0.646   6.100   1.862  0.2754  0.0124 -0.1701
  178SAPS   C1120287   0.402   6.146   2.021  0.2589  0.4182 -0.5410
  178SAPS  H11A20288   0.417   6.048   2.070  0.9716  1.4343  1.3947
  178SAPS  H11B20289   0.378   6.130   1.914  1.6996 -0.7863 -0.7071
  178SAPS     P20290   0.223   6.340   2.044 -0.0412  0.1929  0.1570
  178SAPS   O1320291   0.320   6.427   1.979 -0.2810 -0.6277  0.6459
  178SAPS   O1420292   0.099   6.310   1.967 -0.0764  0.3865  0.1739
  178SAPS   O1220293   0.299   6.217   2.096  0.0189 -0.0428 -0.1680
  178SAPS   O1120294   0.185   6.407   2.179 -0.0262  0.3866 -0.5282
  178SAPS    C120295   0.083   6.347   2.262 -0.1903 -0.3061  0.2813
  178SAPS    HA20296  -0.008   6.324   2.202 -1.8062  2.3758  1.5091
  178SAPS    HB20297   0.123   6.256   2.311  1.2137  1.5415  2.7877
  178SAPS    C220298   0.030   6.441   2.361  0.1424  0.7125 -0.1275
  178SAPS    HS20299  -0.024   6.524   2.310 -0.5313  0.3261 -0.0519
  178SAPS   O2120300   0.136   6.500   2.442  0.2056 -0.4640  0.3770
  178SAPS   C2120301   0.102   6.595   2.521 -0.6716 -0.0052  0.1018
  178SAPS   O2220302  -0.005   6.652   2.533  0.4256 -0.8216  0.0091
  178SAPS   C2220303   0.227   6.631   2.607  0.6235 -1.0129 -0.1920
  178SAPS   H2R20304   0.294   6.543   2.614  0.8818 -1.0414 -2.3034
  178SAPS   H2S20305   0.281   6.708   2.548  0.2783  1.1826  2.1589
  178SAPS    C320306  -0.075   6.359   2.445  0.1099 -0.1781  0.5159
  178SAPS    HX20307  -0.154   6.328   2.373  0.3821 -0.0468  0.1585
  178SAPS    HY20308  -0.132   6.420   2.518  0.6748  0.9024  0.0761
  178SAPS   O3120309  -0.036   6.231   2.502 -0.4513  0.0851 -0.3184
  178SAPS   C3120310  -0.021   6.230   2.636 -0.1909  0.1284  0.1486
  178SAPS   O3220311  -0.007   6.329   2.703  0.5311  0.0404 -0.2375
  178SAPS   C3220312   0.007   6.084   2.688 -0.0123 -0.0394 -0.3102
  178SAPS   H2X20313   0.101   6.086   2.748  0.2992  1.6553 -0.8080
  178SAPS   H2Y20314   0.036   6.023   2.600 -0.0575 -0.1335 -0.2597
  178SAPS   C2320315   0.193   6.693   2.750 -0.2783  0.1665  0.1401
  178SAPS   H3R20316   0.130   6.784   2.733  0.8650  0.9871  0.1670
  178SAPS   H3S20317   0.293   6.721   2.788 -0.4583  0.3255  0.5059
  178SAPS   C2420318   0.134   6.588   2.850 -0.5135 -0.1273  0.4338
  178SAPS   H4R20319   0.218   6.516   2.857 -1.0882 -0.8164  0.2223
  178SAPS   H4S20320   0.044   6.535   2.815 -1.3855  0.2379  2.0432
  178SAPS   C2520321   0.113   6.641   2.988  0.2724  0.4841 -0.5633
  178SAPS   H5R20322   0.178   6.727   3.009 -1.8016  2.7121 -2.5800
  178SAPS   C2620323   0.007   6.610   3.069  0.0736  0.3197  0.2774
  178SAPS   H6R20324  -0.005   6.656   3.168 -0.8129  0.3173  0.1830
  178SAPS   C2720325  -0.090   6.498   3.050 -0.3375 -0.2290  0.4378
  178SAPS   H7R20326  -0.136   6.525   2.952  1.2882  0.3791 -0.1977
  178SAPS   H7S20327  -0.168   6.509   3.127 -1.1414  0.2645 -0.4274
  178SAPS   C2820328  -0.031   6.361   3.047 -0.6827  0.3593  0.6839
  178SAPS   H8R20329  -0.027   6.302   2.955 -0.4274  0.9973  0.2794
  178SAPS   C2920330   0.007   6.294   3.161  0.9825  0.2772  0.2808
  178SAPS   H9R20331   0.064   6.201   3.154 -0.8581 -0.9557  0.9599
  178SAPS  C21020332  -0.008   6.349   3.299 -0.1186  0.1948 -0.0252
  178SAPS  H10R20333  -0.023   6.262   3.366  0.8768  0.4132  0.4941
  178SAPS  H10S20334  -0.090   6.423   3.312  0.2840  0.3182  2.0464
  178SAPS  C21120335   0.119   6.413   3.341 -0.2727 -0.0512  0.0357
  178SAPS  H11R20336   0.193   6.440   3.264  0.0293  2.2826  1.0687
  178SAPS  C21220337   0.156   6.431   3.471 -0.1856 -0.0925  1.1148
  178SAPS  H12R20338   0.246   6.494   3.483  0.2582 -0.6620  0.8668
  178SAPS  C21320339   0.055   6.415   3.583 -0.2005 -0.6809  0.1798
  178SAPS  H13R20340   0.006   6.316   3.580 -0.1209 -0.7647  1.1940
  178SAPS  H13S20341  -0.024   6.492   3.567  0.2659  0.1922  1.7536
  178SAPS  C21420342   0.123   6.441   3.721  0.5670  0.1529  0.4375
  178SAPS  H14R20343   0.113   6.353   3.786 -0.6458 -0.9070 -1.1061
  178SAPS  C21520344   0.173   6.556   3.772 -0.1406  0.0004 -0.2750
  178SAPS  H15R20345   0.210   6.552   3.875  0.3215  3.5488 -0.1957
  178SAPS  C21620346   0.187   6.691   3.705 -0.0946  0.5588  0.3549
  178SAPS  H16R20347   0.121   6.766   3.752 -0.8636 -0.6858  1.3375
  178SAPS  H16S20348   0.153   6.684   3.599  0.3756  2.0413  0.0818
  178SAPS  C21720349   0.338   6.733   3.702  0.2911  1.0175 -0.0706
  178SAPS  H17R20350   0.348   6.801   3.615 -0.6183  2.0330  0.5909
  178SAPS  H17S20351   0.400   6.647   3.670  1.0885 -0.4087  4.5096
  178SAPS  C21820352   0.394   6.816   3.819 -0.3234  0.2098  0.2806
  178SAPS  H18R20353   0.356   6.765   3.911 -2.5719 -1.4912 -1.4823
  178SAPS  H18S20354   0.351   6.917   3.826  0.5251  0.6564 -0.6805
  178SAPS  C21920355   0.546   6.836   3.815  0.3810 -1.0326 -0.1669
  178SAPS  H19R20356   0.571   6.896   3.725  1.1843  0.3968  0.9704
  178SAPS  H19S20357   0.595   6.738   3.797  0.0448 -1.7562  2.4323
  178SAPS  C22020358   0.590   6.895   3.945  1.0536 -0.4204  0.0092
  178SAPS  H20R20359   0.549   6.831   4.026 -1.0717  3.4936  2.3400
  178SAPS  H20S20360   0.545   6.996   3.957 -2.1308 -1.4360 -2.1596
  178SAPS  H20T20361   0.700   6.911   3.957  0.5772  1.3815  3.1819
  178SAPS   C3320362  -0.120   6.033   2.776 -0.3044 -0.1351  1.1315
  178SAPS   H3X20363  -0.217   6.050   2.725 -0.3212 -0.4360  1.0604
  178SAPS   H3Y20364  -0.123   6.102   2.862  0.3699  1.7739 -0.3122
  178SAPS   C3420365  -0.106   5.894   2.810  0.2572  0.1070 -0.2691
  178SAPS   H4X20366   0.002   5.880   2.828  0.2627 -0.6775 -0.8536
  178SAPS   H4Y20367  -0.122   5.821   2.727  2.6639 -1.1080  0.2626
  178SAPS   C3520368  -0.193   5.852   2.929  0.1646  0.1664 -0.1251
  178SAPS   H5X20369  -0.198   5.741   2.929 -1.6048  0.1888 -1.7996
  178SAPS   H5Y20370  -0.297   5.887   2.913  0.2743  2.7825  3.7900
  178SAPS   C3620371  -0.153   5.909   3.068 -0.3502 -0.0555  0.0878
  178SAPS   H6X20372  -0.117   6.014   3.053  5.6899 -2.0018 -2.3294
  178SAPS   H6Y20373  -0.064   5.857   3.109 -1.6490 -0.9056  1.9153
  178SAPS   C3720374  -0.259   5.899   3.174  0.5100  0.5475 -0.4244
  178SAPS   H7X20375  -0.292   5.794   3.190 -2.4402  1.5889  1.0298
  178SAPS   H7Y20376  -0.354   5.947   3.142 -0.0754 -1.5445 -2.0141
  178SAPS   C3820377  -0.216   5.963   3.315 -0.2438 -0.0605 -0.0140
  178SAPS   H8X20378  -0.191   6.070   3.300 -1.4314  0.0969 -1.0983
  178SAPS   H8Y20379  -0.122   5.920   3.354 -0.4083  0.1927  0.6668
  178SAPS   C3920380  -0.333   5.946   3.419 -0.1590 -0.6127 -0.2978
  178SAPS   H9X20381  -0.376   5.844   3.429  0.3282 -0.7002  1.1379
  178SAPS   H9Y20382  -0.416   6.014   3.391 -1.0431 -1.3282  0.5363
  178SAPS  C31020383  -0.285   5.971   3.566 -0.3304  0.7327 -0.1437
  178SAPS  H10X20384  -0.211   5.894   3.598  0.1746  0.7694 -1.1835
  178SAPS  H10Y20385  -0.375   5.949   3.628  0.2003  0.9615  0.7371
  178SAPS  C31120386  -0.228   6.112   3.592 -0.3601  0.4519 -0.2670
  178SAPS  H11X20387  -0.250   6.175   3.503 -0.2431 -0.2969 -0.8339
  178SAPS  H11Y20388  -0.119   6.096   3.607 -0.5092 -2.0072 -1.4340
  178SAPS  C31220389  -0.279   6.167   3.726  0.5996  0.0490  0.2661
  178SAPS  H12X20390  -0.294   6.083   3.797  0.1682 -0.9995 -1.0174
  178SAPS  H12Y20391  -0.381   6.206   3.705  0.8252  0.2828 -0.4448
  178SAPS  C31320392  -0.197   6.283   3.780 -0.0462  1.0231  0.2171
  178SAPS  H13X20393  -0.201   6.365   3.705  1.5753  0.3732 -0.6491
  178SAPS  H13Y20394  -0.095   6.240   3.796 -0.2454  0.5994  0.3724
  178SAPS  C31420395  -0.247   6.348   3.911 -0.2618 -0.6786 -0.5365
  178SAPS  H14X20396  -0.357   6.365   3.906 -0.1662 -0.4985 -3.2703
  178SAPS  H14Y20397  -0.207   6.451   3.913 -1.7606 -0.0171 -1.9790
  178SAPS  C31520398  -0.195   6.270   4.034 -0.2476 -0.1425  0.0098
  178SAPS  H15X20399  -0.086   6.271   4.016 -0.5629  0.7858 -2.1507
  178SAPS  H15Y20400  -0.228   6.165   4.025 -0.5025 -0.0690  0.0637
  178SAPS  C31620401  -0.234   6.316   4.173 -0.1784  0.2622 -0.1510
  178SAPS  H16X20402  -0.342   6.341   4.177 -0.0060  1.1731 -0.7923
  178SAPS  H16Y20403  -0.178   6.411   4.189 -2.2070  1.3542  0.9277
  178SAPS  C31720404  -0.184   6.225   4.285  1.2109  0.3839 -0.5439
  178SAPS  H17X20405  -0.238   6.128   4.280 -0.7663  1.4594 -1.3221
  178SAPS  H17Y20406  -0.220   6.258   4.385  1.3238 -3.3976  0.9343
  178SAPS  C31820407  -0.031   6.223   4.297 -0.4170  0.5750  0.6709
  178SAPS  H18X20408   0.014   6.167   4.212  1.8631  1.2639  1.3503
  178SAPS  H18Y20409   0.001   6.159   4.383 -0.3408  1.4874  1.3282
  178SAPS  H18Z20410   0.010   6.325   4.303 -0.4332  0.7484 -1.5351
  179SAPS     N20411   3.048   1.066   2.061  0.0929  0.3903 -0.4692
  179SAPS   HN120412   2.969   1.043   1.997  0.7260 -1.5932 -0.6043
  179SAPS   HN220413   3.104   0.978   2.068  1.5976  1.1198 -2.2884
  179SAPS   HN320414   3.011   1.104   2.150  0.5230 -1.9486  0.7915
  179SAPS   C1220415   3.136   1.167   2.001 -0.0924 -0.6235  0.6159
  179SAPS  H12A20416   3.221   1.178   2.067  1.0260  1.3918 -1.0599
  179SAPS   C1320417   3.189   1.140   1.859 -0.0908  0.2764 -0.5387
  179SAPS  O13A20418   3.139   1.040   1.797 -0.3626 -0.6284  0.3421
  179SAPS  O13B20419   3.292   1.200   1.807 -0.1006 -0.1959 -0.2155
  179SAPS   C1120420   3.059   1.301   1.999 -0.0051  0.8909  0.1673
  179SAPS  H11A20421   2.957   1.289   1.958 -0.8353  0.1547  2.3104
  179SAPS  H11B20422   3.117   1.376   1.941 -1.0750  1.0313 -0.7523
  179SAPS     P20423   2.943   1.453   2.179 -0.5616 -0.0814 -0.4119
  179SAPS   O1320424   2.819   1.438   2.097  0.5479 -0.4587  0.1685
  179SAPS   O1420425   2.929   1.443   2.326  0.2117  0.3511 -0.1375
  179SAPS   O1220426   3.052   1.350   2.133  0.6192 -0.0414  0.0373
  179SAPS   O1120427   3.002   1.590   2.141 -0.0140 -0.2322  0.5476
  179SAPS    C120428   3.138   1.631   2.161 -0.1176  0.1517  0.4505
  179SAPS    HA20429   3.206   1.545   2.145 -1.9901 -0.8243 -3.3461
  179SAPS    HB20430   3.169   1.711   2.091  1.5889  0.7244  1.7986
  179SAPS    C220431   3.147   1.697   2.296 -0.1884  0.4853 -0.0155
  179SAPS    HS20432   3.086   1.634   2.365 -0.5491 -0.1839 -0.9338
  179SAPS   O2120433   3.099   1.824   2.273  0.1060 -0.1878 -0.4969
  179SAPS   C2120434   3.038   1.877   2.381  0.1844 -0.3585 -0.2028
  179SAPS   O2220435   3.002   1.818   2.483 -0.5498 -0.6416 -0.2316
  179SAPS   C2220436   3.012   2.025   2.356 -0.5557  0.0833 -0.0783
  179SAPS   H2R20437   3.113   2.070   2.354 -0.0436 -1.0352  0.0428
  179SAPS   H2S20438   2.950   2.042   2.265 -0.6834 -1.0800 -0.2332
  179SAPS    C320439   3.289   1.706   2.348 -0.3597  0.1969 -0.1605
  179SAPS    HX20440   3.345   1.770   2.275  0.9803  1.3616  1.7968
  179SAPS    HY20441   3.332   1.604   2.346  0.4937  0.4646  1.7803
  179SAPS   O3120442   3.308   1.765   2.479 -0.1152  0.2405  0.7403
  179SAPS   C3120443   3.278   1.675   2.579  0.4848  0.2116 -0.0921
  179SAPS   O3220444   3.236   1.561   2.559 -0.2881  0.1932 -0.0445
  179SAPS   C3220445   3.320   1.732   2.713 -0.6811  0.5234  0.3572
  179SAPS   H2X20446   3.325   1.843   2.712  0.1794  0.4944 -0.1182
  179SAPS   H2Y20447   3.428   1.709   2.720 -1.4697 -4.0617  0.2462
  179SAPS   C2320448   2.916   2.076   2.466 -0.3035  0.2870 -0.4436
  179SAPS   H3R20449   2.969   2.062   2.563 -0.1316  0.0223 -0.5734
  179SAPS   H3S20450   2.828   2.009   2.463 -1.3760  1.6561 -0.4245
  179SAPS   C2420451   2.870   2.222   2.451 -0.5462 -0.6568 -0.1316
  179SAPS   H4R20452   2.771   2.244   2.496 -0.8531  1.9968 -1.8940
  179SAPS   H4S20453   2.864   2.229   2.340  2.0220  0.4109 -0.2580
  179SAPS   C2520454   2.970   2.326   2.487  0.4706 -1.0221  0.0639
  179SAPS   H5R20455   3.060   2.318   2.423  0.2600 -1.1965 -0.2144
  179SAPS   C2620456   2.956   2.416   2.590  0.4949  0.4883  0.9588
  179SAPS   H6R20457   3.033   2.494   2.598  3.1754 -1.9527  0.8586
  179SAPS   C2720458   2.845   2.428   2.693  0.5023  0.1345  0.1242
  179SAPS   H7R20459   2.899   2.443   2.789 -0.5863 -0.6829  0.8948
  179SAPS   H7S20460   2.808   2.324   2.700 -2.6139  1.0230 -1.0392
  179SAPS   C2820461   2.736   2.534   2.655 -0.6907 -0.2249 -0.1279
  179SAPS   H8R20462   2.662   2.502   2.581 -0.6342  1.3118 -0.8813
  179SAPS   C2920463   2.740   2.654   2.713  0.6997 -0.1932  0.7307
  179SAPS   H9R20464   2.664   2.726   2.680  0.1206 -1.5537 -1.0256
  179SAPS  C21020465   2.821   2.698   2.832 -0.2658  0.0821  0.8460
  179SAPS  H10R20466   2.899   2.627   2.866 -1.6076 -1.8786  0.0327
  179SAPS  H10S20467   2.750   2.715   2.916  0.0908 -1.2112  1.4385
  179SAPS  C21120468   2.883   2.830   2.810  1.1177  0.2219 -0.5124
  179SAPS  H11R20469   2.887   2.869   2.708 -1.7730 -1.3245 -1.3474
  179SAPS  C21220470   2.951   2.899   2.907 -0.4412 -0.1102 -0.6900
  179SAPS  H12R20471   3.001   2.996   2.890  0.4272 -0.4222 -0.0233
  179SAPS  C21320472   2.974   2.854   3.050 -0.2571 -0.2076  1.1178
  179SAPS  H13R20473   3.031   2.930   3.108 -1.4685  3.1155 -1.6633
  179SAPS  H13S20474   3.037   2.763   3.048  0.9790  0.6163  1.3952
  179SAPS  C21420475   2.849   2.837   3.134  0.5384  0.5606 -0.6242
  179SAPS  H14R20476   2.762   2.890   3.094 -0.9372 -0.2481  1.3105
  179SAPS  C21520477   2.833   2.753   3.238  0.3627 -0.4220  0.8260
  179SAPS  H15R20478   2.733   2.760   3.284  0.2317 -0.4409  0.5445
  179SAPS  C21620479   2.936   2.663   3.311 -0.4079  0.4977  0.2134
  179SAPS  H16R20480   2.960   2.708   3.409 -0.4452 -2.3783  1.6607
  179SAPS  H16S20481   3.025   2.637   3.250  1.9227  4.4281  1.6022
  179SAPS  C21720482   2.860   2.528   3.341 -0.1765 -0.4941 -1.1694
  179SAPS  H17R20483   2.774   2.556   3.406  0.0068  3.9229 -2.4980
  179SAPS  H17S20484   2.924   2.459   3.401  0.5202  2.1687  1.3667
  179SAPS  C21820485   2.815   2.447   3.222 -0.0454  0.6991 -0.2813
  179SAPS  H18R20486   2.902   2.409   3.165  0.8437  0.6265  1.0741
  179SAPS  H18S20487   2.761   2.511   3.149  0.3293  0.0277 -1.1526
  179SAPS  C21920488   2.739   2.315   3.243 -0.2540 -0.3251 -0.4930
  179SAPS  H19R20489   2.712   2.260   3.150  0.9056  0.9867 -1.6603
  179SAPS  H19S20490   2.647   2.349   3.296 -0.4204 -1.5240  0.0240
  179SAPS  C22020491   2.798   2.220   3.343  0.0880  0.9651  0.1062
  179SAPS  H20R20492   2.729   2.139   3.375  2.3431 -0.9496  0.3961
  179SAPS  H20S20493   2.831   2.275   3.433  3.1908  0.6586 -0.7024
  179SAPS  H20T20494   2.891   2.170   3.308  0.9229  2.4326  0.1526
  179SAPS   C3320495   3.233   1.674   2.826  0.5519  0.4446  0.2364
  179SAPS   H3X20496   3.239   1.563   2.824  1.2802  0.3989  2.3261
  179SAPS   H3Y20497   3.124   1.694   2.820  0.5248  0.7034  1.3178
  179SAPS   C3420498   3.261   1.735   2.965  0.1099 -0.5056  0.1724
  179SAPS   H4X20499   3.277   1.840   2.932  0.0710 -0.6827 -0.4313
  179SAPS   H4Y20500   3.359   1.704   3.006  0.8711  2.0337  0.4495
  179SAPS   C3520501   3.152   1.731   3.079  0.1138  0.4241  0.3004
  179SAPS   H5X20502   3.161   1.631   3.125 -0.0312  0.6979  0.9375
  179SAPS   H5Y20503   3.052   1.738   3.032 -0.4260 -0.5663  1.2508
  179SAPS   C3620504   3.164   1.834   3.194 -0.5661  0.4445  0.5614
  179SAPS   H6X20505   3.175   1.932   3.143  0.2927 -0.2695 -0.6734
  179SAPS   H6Y20506   3.256   1.818   3.253 -0.3358  1.5979  0.5481
  179SAPS   C3720507   3.037   1.815   3.277 -0.6793 -0.0505  0.3184
  179SAPS   H7X20508   3.010   1.711   3.306 -0.8596 -0.3056 -0.7176
  179SAPS   H7Y20509   2.959   1.866   3.217 -0.4798  0.0477  0.1431
  179SAPS   C3820510   3.034   1.883   3.408 -0.3440  0.3618  0.1735
  179SAPS   H8X20511   3.070   1.988   3.404  0.5687  0.0333 -2.5304
  179SAPS   H8Y20512   3.114   1.838   3.471  0.8363  2.8485  0.5618
  179SAPS   C3920513   2.904   1.875   3.491 -0.0760  0.1392 -0.4312
  179SAPS   H9X20514   2.853   1.777   3.474  1.0623 -0.4916 -0.3350
  179SAPS   H9Y20515   2.836   1.952   3.450 -1.3660  0.4263  2.0415
  179SAPS  C31020516   2.921   1.904   3.637 -0.2640  0.4145 -0.0752
  179SAPS  H10X20517   2.988   1.991   3.654  0.7375 -0.5547  1.0569
  179SAPS  H10Y20518   2.974   1.814   3.674 -1.9844 -0.7696 -0.3380
  179SAPS  C31120519   2.789   1.918   3.703  0.2893  0.2609  0.2927
  179SAPS  H11X20520   2.725   1.828   3.684  1.7272 -1.3834  2.7083
  179SAPS  H11Y20521   2.738   2.006   3.659 -1.3264 -1.0254 -0.5342
  179SAPS  C31220522   2.809   1.926   3.857  0.0569  0.0378 -0.0735
  179SAPS  H12X20523   2.708   1.943   3.901 -0.0940 -2.0983  0.5325
  179SAPS  H12Y20524   2.879   2.007   3.884 -0.6256  0.2614  1.0850
  179SAPS  C31320525   2.856   1.794   3.916  0.0187  0.0861 -0.4895
  179SAPS  H13X20526   2.956   1.771   3.873  1.7414  4.4315  0.6516
  179SAPS  H13Y20527   2.793   1.706   3.889 -0.4317  0.1915  0.2012
  179SAPS  C31420528   2.880   1.794   4.072  1.1751  0.4451 -0.1976
  179SAPS  H14X20529   2.780   1.816   4.115 -0.0068 -0.1681 -2.4832
  179SAPS  H14Y20530   2.953   1.871   4.105  0.9418  0.0427  1.3235
  179SAPS  C31520531   2.931   1.665   4.130 -0.3042  0.2634 -0.0433
  179SAPS  H15X20532   3.033   1.643   4.089 -0.0191 -2.2593  1.8049
  179SAPS  H15Y20533   2.853   1.588   4.115  1.6604 -2.1201  1.2152
  179SAPS  C31620534   2.944   1.676   4.287  0.5033  0.0832 -0.5060
  179SAPS  H16X20535   2.835   1.697   4.299 -0.0248  2.2582 -6.1979
  179SAPS  H16Y20536   3.001   1.763   4.327  0.3993  0.4110 -1.0720
  179SAPS  C31720537   2.989   1.551   4.355 -0.0431  0.5426  0.3629
  179SAPS  H17X20538   3.096   1.542   4.327 -0.1640  0.6193 -0.1413
  179SAPS  H17Y20539   2.929   1.472   4.305 -0.1040  2.2333 -2.4730
  179SAPS  C31820540   2.989   1.561   4.507 -0.4292 -0.0295  0.9018
  179SAPS  H18X20541   3.030   1.659   4.540  2.8794 -0.9400 -0.0556
  179SAPS  H18Y20542   3.063   1.495   4.558 -0.6780 -1.9569 -1.0802
  179SAPS  H18Z20543   2.889   1.554   4.555  0.3212 -0.9430  2.4246
  180SAPS     N20544   2.862   1.602   1.856  0.3660 -0.0787 -0.0744
  180SAPS   HN120545   2.837   1.546   1.940  1.3736 -0.5421 -0.0688
  180SAPS   HN220546   2.947   1.554   1.821  1.1891  2.2461 -1.4841
  180SAPS   HN320547   2.884   1.700   1.881  0.8140 -0.0858 -0.4356
  180SAPS   C1220548   2.743   1.589   1.764 -0.0961 -0.0260 -0.4608
  180SAPS  H12A20549   2.770   1.648   1.679  0.6916  0.1649 -0.0867
  180SAPS   C1320550   2.712   1.444   1.707 -0.7525  0.3495 -0.6503
  180SAPS  O13A20551   2.771   1.347   1.755  0.3836 -0.3201 -0.1672
  180SAPS  O13B20552   2.620   1.432   1.623 -0.0521 -0.5362 -0.4893
  180SAPS   C1120553   2.630   1.657   1.836  0.9892 -0.5239  0.1750
  180SAPS  H11A20554   2.553   1.684   1.760  0.5209 -0.3969  0.6926
  180SAPS  H11B20555   2.652   1.757   1.878 -0.9860 -0.1407  0.3906
  180SAPS     P20556   2.466   1.624   2.032  0.2709 -0.6618 -0.0029
  180SAPS   O1320557   2.348   1.656   1.947  0.0569 -0.0622 -0.0065
  180SAPS   O1420558   2.440   1.525   2.145  0.0821  0.3656  0.0547
  180SAPS   O1220559   2.578   1.577   1.939 -0.1848 -0.2809 -0.4347
  180SAPS   O1120560   2.529   1.755   2.098 -0.2091 -0.0455 -0.1574
  180SAPS    C120561   2.636   1.746   2.179 -0.3236 -0.0956  0.1028
  180SAPS    HA20562   2.696   1.656   2.151  0.3236  0.4468 -0.3043
  180SAPS    HB20563   2.704   1.832   2.160 -0.2295 -0.3041 -0.5409
  180SAPS    C220564   2.594   1.733   2.330  0.3276 -0.4398  0.0624
  180SAPS    HS20565   2.498   1.676   2.333  0.6634 -1.0071  0.2792
  180SAPS   O2120566   2.594   1.867   2.377 -0.5978 -0.1131 -0.4196
  180SAPS   C2120567   2.507   1.894   2.472  0.8274 -0.2125  0.1544
  180SAPS   O2220568   2.414   1.821   2.511 -0.3401 -0.6625  0.1476
  180SAPS   C2220569   2.530   2.038   2.525 -0.0317  0.1069  0.3590
  180SAPS   H2R20570   2.623   2.031   2.585  0.8616  1.5690 -0.7879
  180SAPS   H2S20571   2.556   2.106   2.441  0.1553 -0.7640 -0.3171
  180SAPS    C320572   2.688   1.645   2.415  0.4049  0.7562 -0.5337
  180SAPS    HX20573   2.788   1.692   2.407 -0.5064  2.7791 -0.6136
  180SAPS    HY20574   2.708   1.543   2.376  1.1725  0.2739  1.0419
  180SAPS   O3120575   2.643   1.636   2.552 -0.3354 -0.3299 -0.2878
  180SAPS   C3120576   2.550   1.536   2.584 -0.1728  0.6309  0.4163
  180SAPS   O3220577   2.513   1.450   2.506 -0.2372 -0.7100  0.0575
  180SAPS   C3220578   2.512   1.563   2.731 -0.8288 -0.6758  0.2941
  180SAPS   H2X20579   2.559   1.658   2.765  1.5142 -1.9434  0.8276
  180SAPS   H2Y20580   2.545   1.477   2.793  0.6367  0.1242  0.6806
  180SAPS   C2320581   2.415   2.106   2.600  0.0685  0.2983  0.6156
  180SAPS   H3R20582   2.374   2.037   2.676 -0.5800  1.2820  1.1726
  180SAPS   H3S20583   2.347   2.123   2.514  1.4433 -1.7599 -0.9842
  180SAPS   C2420584   2.454   2.246   2.660  0.5037 -0.1428  0.2346
  180SAPS   H4R20585   2.494   2.314   2.582  0.5285 -2.4530 -1.9326
  180SAPS   H4S20586   2.539   2.225   2.729  0.3386 -0.5470  0.3193
  180SAPS   C2520587   2.335   2.312   2.725  0.2482 -0.0399  0.4155
  180SAPS   H5R20588   2.275   2.375   2.658 -1.7746  0.0586  2.2051
  180SAPS   C2620589   2.278   2.283   2.845 -0.5898  0.1106 -0.0625
  180SAPS   H6R20590   2.190   2.339   2.879 -0.8278  2.0780 -3.5229
  180SAPS   C2720591   2.327   2.186   2.947  0.6377 -0.1787  0.0563
  180SAPS   H7R20592   2.402   2.114   2.908  1.6500 -1.0149  3.2770
  180SAPS   H7S20593   2.250   2.113   2.978 -0.1645  0.7940  0.4033
  180SAPS   C2820594   2.393   2.247   3.066  0.2385  0.7125  0.5812
  180SAPS   H8R20595   2.494   2.287   3.049  0.2436  0.1912 -0.7471
  180SAPS   C2920596   2.348   2.250   3.199  0.0299 -0.5041  0.2337
  180SAPS   H9R20597   2.418   2.284   3.276 -1.3525  0.2557  1.2019
  180SAPS  C21020598   2.218   2.195   3.246 -0.4263  0.3620  0.4618
  180SAPS  H10R20599   2.231   2.091   3.283 -0.8584  0.6255  1.4070
  180SAPS  H10S20600   2.147   2.189   3.160 -0.6025  1.1740  0.5419
  180SAPS  C21120601   2.158   2.272   3.362  0.0987 -0.0269  0.3687
  180SAPS  H11R20602   2.089   2.356   3.348 -1.1832 -1.1787 -0.4783
  180SAPS  C21220603   2.196   2.248   3.489 -0.0645  0.6739 -0.2973
  180SAPS  H12R20604   2.152   2.312   3.567 -0.8602 -0.1475 -0.0425
  180SAPS  C21320605   2.288   2.141   3.539 -0.7397  1.1291  0.3151
  180SAPS  H13R20606   2.314   2.060   3.468  0.9365  1.1299  0.8859
  180SAPS  H13S20607   2.246   2.090   3.629 -0.4494 -2.0546 -1.2191
  180SAPS  C21420608   2.425   2.205   3.563  0.5776  0.2015 -0.0477
  180SAPS  H14R20609   2.488   2.194   3.474  0.4580 -0.3434 -0.0662
  180SAPS  C21520610   2.471   2.263   3.677 -0.3614 -0.5193 -0.3921
  180SAPS  H15R20611   2.578   2.291   3.678 -0.4366 -0.2261 -0.5130
  180SAPS  C21620612   2.392   2.290   3.800 -0.1156  0.4917 -0.9201
  180SAPS  H16R20613   2.308   2.359   3.774  1.2505  1.8384 -1.9557
  180SAPS  H16S20614   2.459   2.354   3.862 -0.4167  0.8880 -0.9947
  180SAPS  C21720615   2.324   2.177   3.883  0.4959  0.8727 -0.3444
  180SAPS  H17R20616   2.394   2.095   3.910  0.2613  1.0487  0.8917
  180SAPS  H17S20617   2.238   2.131   3.832 -0.3186 -0.9715  2.4579
  180SAPS  C21820618   2.286   2.242   4.017 -0.5891  0.7250 -0.6970
  180SAPS  H18R20619   2.212   2.321   3.994 -0.1566  0.9311 -1.3884
  180SAPS  H18S20620   2.365   2.288   4.081 -0.6694  3.5818 -2.4684
  180SAPS  C21920621   2.212   2.138   4.116 -0.1276 -0.3760  0.9490
  180SAPS  H19R20622   2.189   2.195   4.209  0.2289  0.7975  0.3384
  180SAPS  H19S20623   2.292   2.063   4.130  2.3478  2.2645  1.9435
  180SAPS  C22020624   2.086   2.083   4.050  0.6350 -1.6058  0.2333
  180SAPS  H20R20625   2.028   2.165   4.001  1.1459  0.3207  2.6699
  180SAPS  H20S20626   2.104   2.001   3.977  1.0934 -1.0193 -0.3349
  180SAPS  H20T20627   2.025   2.045   4.134 -0.8349 -1.1103 -0.5844
  180SAPS   C3320628   2.358   1.579   2.737 -0.1583  0.0093 -0.5400
  180SAPS   H3X20629   2.313   1.489   2.689  0.0113 -0.2407 -0.2400
  180SAPS   H3Y20630   2.318   1.664   2.678 -1.6655 -1.4909 -1.7677
  180SAPS   C3420631   2.311   1.591   2.883  0.1789 -0.1308  0.3348
  180SAPS   H4X20632   2.368   1.677   2.922  0.6463  0.2831 -1.1927
  180SAPS   H4Y20633   2.339   1.501   2.942 -0.3937 -1.5336 -1.4263
  180SAPS   C3520634   2.155   1.632   2.891  0.2308 -0.0323  0.2359
  180SAPS   H5X20635   2.098   1.547   2.845 -0.3440 -0.0373  0.9421
  180SAPS   H5Y20636   2.143   1.702   2.806 -1.3886 -1.4385 -0.7677
  180SAPS   C3620637   2.089   1.686   3.022 -0.2245  0.2363  0.1391
  180SAPS   H6X20638   2.118   1.618   3.105  0.0165 -0.4574 -0.5015
  180SAPS   H6Y20639   1.979   1.671   3.011 -0.4270  0.5149  1.6262
  180SAPS   C3720640   2.121   1.830   3.048 -0.3015 -0.2090  0.1056
  180SAPS   H7X20641   2.087   1.890   2.961 -0.8966 -0.1007  0.4102
  180SAPS   H7Y20642   2.225   1.858   3.074 -0.5250  0.6688  0.0979
  180SAPS   C3820643   2.022   1.879   3.161 -0.2448 -0.2743  0.1995
  180SAPS   H8X20644   1.920   1.883   3.117 -0.2184 -0.1029  0.1483
  180SAPS   H8Y20645   2.037   1.988   3.181 -1.4289 -0.5688  3.1412
  180SAPS   C3920646   2.016   1.801   3.295 -1.0324 -0.6141  0.0446
  180SAPS   H9X20647   2.118   1.761   3.317 -1.8338 -2.9683 -0.1714
  180SAPS   H9Y20648   1.945   1.717   3.278  0.1324 -1.4462 -0.9150
  180SAPS  C31020649   1.965   1.890   3.406 -0.3003  0.0750  0.0625
  180SAPS  H10X20650   1.880   1.953   3.372 -0.9899 -0.8798 -0.0355
  180SAPS  H10Y20651   2.044   1.964   3.431 -0.3314  0.1960 -0.1958
  180SAPS  C31120652   1.929   1.809   3.536 -0.4914 -0.4754 -0.3839
  180SAPS  H11X20653   2.006   1.737   3.572 -2.6278 -2.8422 -0.2558
  180SAPS  H11Y20654   1.843   1.741   3.516 -0.4152 -0.5433 -0.4833
  180SAPS  C31220655   1.877   1.906   3.657 -0.4200  0.4194  0.7475
  180SAPS  H12X20656   1.780   1.939   3.615  0.3489  0.8212 -0.7747
  180SAPS  H12Y20657   1.956   1.979   3.683  1.6255 -1.4152  0.0391
  180SAPS  C31320658   1.857   1.836   3.784  0.3737 -0.1671  0.9416
  180SAPS  H13X20659   1.958   1.811   3.824  2.2688  1.7127 -2.1473
  180SAPS  H13Y20660   1.794   1.745   3.775  2.3434 -1.6571  1.3385
  180SAPS  C31420661   1.789   1.927   3.893 -0.5804  0.3088  0.5246
  180SAPS  H14X20662   1.688   1.965   3.865 -1.1796 -2.2977 -1.1939
  180SAPS  H14Y20663   1.849   2.016   3.920 -1.0339  0.2263  1.8880
  180SAPS  C31520664   1.776   1.858   4.028 -0.5440  0.0694 -0.4638
  180SAPS  H15X20665   1.880   1.830   4.055 -0.3286  0.7960 -0.5074
  180SAPS  H15Y20666   1.727   1.758   4.020  1.0208 -0.6612 -1.5140
  180SAPS  C31620667   1.706   1.943   4.141 -0.7283 -0.4641 -0.1943
  180SAPS  H16X20668   1.598   1.949   4.114 -0.4223 -1.3709 -1.7148
  180SAPS  H16Y20669   1.748   2.044   4.128 -0.2904 -0.8716 -2.3529
  180SAPS  C31720670   1.724   1.896   4.285  0.1321 -0.8648  0.2404
  180SAPS  H17X20671   1.669   1.800   4.294 -1.4155  0.0365  0.9859
  180SAPS  H17Y20672   1.664   1.959   4.354  1.9788  0.2889  0.8648
  180SAPS  C31820673   1.864   1.894   4.339 -0.0415  0.0973 -0.0663
  180SAPS  H18X20674   1.921   1.839   4.261  2.6375 -0.0706  1.8800
  180SAPS  H18Y20675   1.857   1.845   4.438  4.4175 -0.1205  0.3192
  180SAPS  H18Z20676   1.905   1.992   4.372  0.1251 -0.6670  2.1085
  181POPC     N20677   1.775   6.404   6.672  0.5035  0.2015  0.3896
  181POPC   C1220678   1.831   6.345   6.546 -0.4120 -0.4841 -0.0848
  181POPC  H12A20679   1.892   6.259   6.567 -2.5275 -1.9741  0.3534
  181POPC  H12B20680   1.901   6.414   6.501 -1.3237  1.8165  1.7869
  181POPC   C1320681   1.689   6.524   6.650 -0.6234  0.0049 -0.2366
  181POPC  H13A20682   1.595   6.499   6.603 -0.3600 -4.0484  0.9674
  181POPC  H13B20683   1.662   6.576   6.741 -2.5860 -0.3377 -0.5775
  181POPC  H13C20684   1.745   6.597   6.595 -0.8174  0.3143 -0.0310
  181POPC   C1420685   1.702   6.288   6.743  0.0111  0.0711 -0.3086
  181POPC  H14A20686   1.776   6.212   6.761  0.4321  0.9591  2.0141
  181POPC  H14B20687   1.661   6.314   6.839 -0.2774 -0.3626 -0.3134
  181POPC  H14C20688   1.624   6.248   6.680  0.0992  0.3458 -0.5982
  181POPC   C1520689   1.881   6.441   6.772 -0.0172  0.5731 -0.3515
  181POPC  H15A20690   1.845   6.502   6.854 -0.5922  2.0118 -1.6256
  181POPC  H15B20691   1.956   6.501   6.724 -0.5305 -0.3843 -2.4441
  181POPC  H15C20692   1.929   6.354   6.815  0.3993  1.4732  1.0856
  181POPC   C1120693   1.735   6.311   6.418  0.1195 -0.0443 -0.3735
  181POPC  H11A20694   1.654   6.250   6.463 -0.2191  0.3021 -0.5032
  181POPC  H11B20695   1.783   6.246   6.343  0.9031 -0.1287  0.1915
  181POPC     P20696   1.774   6.531   6.290 -0.3947  0.1636  0.0575
  181POPC   O1320697   1.886   6.455   6.224 -0.4836 -0.0894  0.8127
  181POPC   O1420698   1.810   6.639   6.385  0.0549  0.2156  0.3140
  181POPC   O1220699   1.681   6.429   6.357  0.0704  0.7803  0.5406
  181POPC   O1120700   1.683   6.609   6.184  0.3471 -0.2047  0.0941
  181POPC    C120701   1.571   6.549   6.133  0.3854  0.4162 -0.7604
  181POPC    HA20702   1.499   6.629   6.103  0.6977  1.3757  0.9137
  181POPC    HB20703   1.515   6.484   6.204  0.9292  2.5086  1.7405
  181POPC    C220704   1.624   6.475   6.008 -0.1757  0.1938  0.1970
  181POPC    HS20705   1.717   6.423   6.039  1.3580  1.9149 -1.2653
  181POPC   O2120706   1.659   6.566   5.907  0.6911  0.8327  0.7006
  181POPC   C2120707   1.762   6.523   5.818  0.1491  0.4286 -0.4278
  181POPC   O2220708   1.838   6.431   5.843  0.0003  0.0611  0.0660
  181POPC   C2220709   1.776   6.624   5.708  0.1566  0.0827 -0.5186
  181POPC   H2R20710   1.877   6.663   5.730 -0.3730  1.4669 -0.4662
  181POPC   H2S20711   1.707   6.710   5.715 -0.0905 -0.1887  0.7873
  181POPC    C320712   1.511   6.372   5.962 -0.1251  0.5358 -0.0292
  181POPC    HX20713   1.421   6.423   5.921 -0.5682 -0.4876 -0.3728
  181POPC    HY20714   1.472   6.324   6.054  0.7308  0.9687  0.5762
  181POPC   O3120715   1.548   6.284   5.850 -0.2717 -0.4931 -0.2689
  181POPC   C3120716   1.623   6.184   5.885 -0.3346 -0.0976  1.0475
  181POPC   O3220717   1.660   6.159   6.001  0.0684  0.0500 -0.1967
  181POPC   C3220718   1.650   6.095   5.761 -0.9524  0.4462 -0.5947
  181POPC   H2X20719   1.558   6.042   5.730 -0.8109  1.0320 -2.0952
  181POPC   H2Y20720   1.719   6.021   5.807 -1.8336  0.2991  0.5427
  181POPC   C2320721   1.794   6.565   5.562 -0.0583 -0.1978  0.1362
  181POPC   H3R20722   1.843   6.465   5.562  0.0931 -0.1257 -0.4945
  181POPC   H3S20723   1.854   6.628   5.494 -1.1744  1.2399  0.4214
  181POPC   C2420724   1.658   6.558   5.486 -0.4794  0.5162 -0.0813
  181POPC   H4R20725   1.609   6.658   5.493 -0.0195  0.6367  1.7073
  181POPC   H4S20726   1.589   6.492   5.542  2.5352 -1.7417  1.1997
  181POPC   C2520727   1.655   6.507   5.337 -0.5547 -0.3045 -1.0004
  181POPC   H5R20728   1.578   6.428   5.331 -1.5685  0.3813  1.6607
  181POPC   H5S20729   1.750   6.453   5.319  0.5298  1.5822 -1.2435
  181POPC   C2620730   1.652   6.623   5.237 -0.0164 -0.4370  0.0006
  181POPC   H6R20731   1.749   6.675   5.247  0.1341 -0.7522  0.1907
  181POPC   H6S20732   1.575   6.699   5.263  0.2826 -0.1451  0.0386
  181POPC   C2720733   1.621   6.560   5.100  0.2368  0.3192  0.3469
  181POPC   H7R20734   1.570   6.646   5.051  0.1993 -0.6600 -1.4147
  181POPC   H7S20735   1.541   6.483   5.106  0.1621  0.4711  1.5975
  181POPC   C2820736   1.750   6.509   5.030  0.1651 -0.2134 -0.5978
  181POPC   H8R20737   1.786   6.429   5.098  0.3409  1.3336  1.2138
  181POPC   H8S20738   1.824   6.592   5.029 -1.7751  1.6233 -1.3019
  181POPC   C2920739   1.727   6.461   4.891 -0.1177 -0.0283 -0.7666
  181POPC   H9120740   1.731   6.353   4.874  2.0121 -0.2513  0.8575
  181POPC  C21020741   1.706   6.546   4.790  1.0847  0.7349 -0.3058
  181POPC  H10120742   1.700   6.501   4.690  1.0528  0.4427 -0.1746
  181POPC  C21120743   1.687   6.692   4.794  0.3646 -0.1244  0.1821
  181POPC  H11R20744   1.686   6.726   4.899 -1.1362  2.2088 -0.5120
  181POPC  H11S20745   1.584   6.720   4.764 -0.0627 -1.3482  0.4458
  181POPC  C21220746   1.790   6.776   4.720 -0.4835  0.4190 -0.5757
  181POPC  H12R20747   1.892   6.761   4.760 -0.4493 -0.4549 -0.9810
  181POPC  H12S20748   1.777   6.886   4.729 -0.2329  0.2790  2.1024
  181POPC  C21320749   1.795   6.743   4.567  0.4606 -0.1610 -0.3139
  181POPC  H13R20750   1.697   6.778   4.528  0.4476 -1.4229 -1.5211
  181POPC  H13S20751   1.797   6.634   4.544  0.9690 -0.5851  1.5900
  181POPC  C21420752   1.910   6.826   4.503 -0.5777  0.1728 -0.4034
  181POPC  H14R20753   2.005   6.789   4.546  0.1800  2.3589 -0.0698
  181POPC  H14S20754   1.908   6.930   4.544  0.0239  0.4921 -1.1685
  181POPC  C21520755   1.909   6.842   4.351  0.1554 -0.5589 -0.1615
  181POPC  H15R20756   1.831   6.908   4.308  0.8454 -0.4022 -1.2230
  181POPC  H15S20757   1.905   6.740   4.306 -2.2547 -0.5663 -0.0619
  181POPC  C21620758   2.034   6.901   4.291 -0.8501 -0.1269  0.1432
  181POPC  H16R20759   2.127   6.855   4.331 -0.0089  1.6059  0.2893
  181POPC  H16S20760   2.035   7.004   4.334  0.9382  0.8018 -1.9258
  181POPC  C21720761   2.021   6.909   4.139  0.2115  0.5206 -0.3652
  181POPC  H17R20762   1.919   6.945   4.111  1.2603  2.1105 -2.3414
  181POPC  H17S20763   2.037   6.807   4.098 -1.5958 -0.5326  1.3602
  181POPC  C21820764   2.116   7.002   4.075 -0.2797 -0.3969  0.3700
  181POPC  H18R20765   2.119   6.982   3.966  0.2347 -0.1168  0.3297
  181POPC  H18S20766   2.219   6.990   4.116 -0.2186  0.6904  0.5646
  181POPC  H18T20767   2.087   7.106   4.099  0.9542  0.3438 -1.1461
  181POPC   C3320768   1.724   6.172   5.653 -0.2844  0.1042  1.1046
  181POPC   H3X20769   1.814   6.218   5.698  0.4087  2.5766 -2.3675
  181POPC   H3Y20770   1.656   6.246   5.606  2.9803  1.0134 -2.7552
  181POPC   C3420771   1.775   6.085   5.534 -0.4831 -0.2225  0.1096
  181POPC   H4X20772   1.689   6.029   5.492 -1.8277 -0.1944  2.6201
  181POPC   H4Y20773   1.857   6.017   5.568  0.8723 -0.2306 -2.8679
  181POPC   C3520774   1.849   6.168   5.427 -0.6266  0.4587  0.0609
  181POPC   H5X20775   1.935   6.227   5.464  0.8723 -0.8191 -1.2670
  181POPC   H5Y20776   1.771   6.231   5.380 -2.6128 -2.5480 -0.9922
  181POPC   C3620777   1.900   6.079   5.310 -0.1436  0.6067  0.6418
  181POPC   H6X20778   1.810   6.020   5.282  0.7327  0.6259 -2.6356
  181POPC   H6Y20779   1.981   6.011   5.345 -0.3495  0.2851  0.4978
  181POPC   C3720780   1.956   6.173   5.203 -0.3444 -0.0788  0.1516
  181POPC   H7X20781   2.061   6.184   5.235 -0.4278 -0.9698  0.7795
  181POPC   H7Y20782   1.898   6.268   5.200 -0.9768 -0.4556  0.0998
  181POPC   C3820783   1.962   6.121   5.055  0.2559  0.3060 -1.2072
  181POPC   H8X20784   1.857   6.113   5.019 -1.1543  0.5496  2.4152
  181POPC   H8Y20785   2.012   6.022   5.059  0.8930  0.6620  0.2292
  181POPC   C3920786   2.031   6.223   4.972 -0.3195  0.0406 -0.1241
  181POPC   H9X20787   2.139   6.232   4.998 -0.1329 -1.3516 -0.3473
  181POPC   H9Y20788   1.976   6.320   4.974 -1.7641 -0.7098 -1.2755
  181POPC  C31020789   2.027   6.180   4.821 -0.2928  0.0361  0.0120
  181POPC  H10X20790   1.917   6.176   4.802 -0.1414  1.0898 -1.3034
  181POPC  H10Y20791   2.079   6.082   4.816  1.6371  0.9591  0.9041
  181POPC  C31120792   2.095   6.273   4.720 -0.9486 -0.3632 -0.6602
  181POPC  H11X20793   2.201   6.282   4.753 -1.2821  0.9021  0.1564
  181POPC  H11Y20794   2.053   6.375   4.717 -1.8101 -0.6285  1.1283
  181POPC  C31220795   2.096   6.211   4.582 -0.0119 -0.6182  0.1147
  181POPC  H12X20796   2.011   6.142   4.567  0.4478 -1.1039 -0.3057
  181POPC  H12Y20797   2.187   6.148   4.584  1.3256  1.2290  1.2883
  181POPC  C31320798   2.109   6.325   4.470 -0.3268 -0.4722 -0.3792
  181POPC  H13X20799   2.026   6.399   4.472  0.4634  0.4375  1.2564
  181POPC  H13Y20800   2.111   6.276   4.370 -2.1850  0.7519 -1.0616
  181POPC  C31420801   2.247   6.410   4.479  0.4481  1.0822 -0.5713
  181POPC  H14X20802   2.341   6.359   4.447 -0.0489  0.8560 -1.7311
  181POPC  H14Y20803   2.253   6.433   4.587 -1.0550 -0.8705 -0.0046
  181POPC  C31520804   2.233   6.539   4.395 -0.1452 -1.0325 -0.3870
  181POPC  H15X20805   2.325   6.599   4.412 -0.0626  0.3683 -4.6512
  181POPC  H15Y20806   2.154   6.607   4.430  0.1542 -0.9845  0.2097
  181POPC  C31620807   2.231   6.528   4.245  0.7420 -0.0376  0.4579
  181POPC  H16X20808   2.285   6.437   4.212  2.9323  1.1255  0.5810
  181POPC  H16Y20809   2.267   6.625   4.203 -1.1107  0.3676 -0.2983
  181POPC  H16Z20810   2.127   6.534   4.208  0.7034 -0.2113  0.5380
  182POPC     N20811   4.839   5.790   6.999 -0.4917  0.0686 -1.0427
  182POPC   C1220812   4.919   5.913   7.051  0.0385  0.5166 -0.2750
  182POPC  H12A20813   4.847   5.989   7.076 -1.5024 -1.1449  0.6368
  182POPC  H12B20814   4.987   5.957   6.979  0.5817  1.2427  0.6521
  182POPC   C1320815   4.922   5.680   6.945  0.3346  0.5387  0.6678
  182POPC  H13A20816   4.866   5.592   6.919 -0.7270  0.6466  2.4793
  182POPC  H13B20817   4.969   5.710   6.852  1.3313 -1.6935  0.3947
  182POPC  H13C20818   5.000   5.648   7.013  0.6776  3.3365  1.7340
  182POPC   C1420819   4.754   5.735   7.108  0.1311  0.2509  0.3522
  182POPC  H14A20820   4.669   5.683   7.063 -0.2577 -1.3201  2.7385
  182POPC  H14B20821   4.798   5.669   7.181 -0.4101 -0.3162  0.1848
  182POPC  H14C20822   4.709   5.816   7.164 -0.2087 -0.1294  0.6410
  182POPC   C1520823   4.746   5.850   6.896  0.2361 -0.2834  0.5839
  182POPC  H15A20824   4.673   5.780   6.860 -0.3774  0.6068  0.0433
  182POPC  H15B20825   4.790   5.890   6.806  2.1757 -2.1853  0.6241
  182POPC  H15C20826   4.688   5.932   6.937  0.2057  0.8564 -1.5945
  182POPC   C1120827   5.007   5.895   7.172 -0.1462 -0.1161  0.1716
  182POPC  H11A20828   4.945   5.831   7.239 -2.0362  0.8755 -0.5336
  182POPC  H11B20829   5.027   5.996   7.214  1.2666 -0.4507  0.3455
  182POPC     P20830   5.248   5.876   7.078 -0.0771 -0.0740  0.4917
  182POPC   O1320831   5.354   5.772   7.060  0.4097 -0.2476  0.7284
  182POPC   O1420832   5.296   5.990   7.157 -0.6103 -0.5258  0.0184
  182POPC   O1220833   5.119   5.813   7.142  0.0511  0.1686 -0.5772
  182POPC   O1120834   5.190   5.928   6.938  0.4906 -0.4967 -0.2656
  182POPC    C120835   5.248   6.026   6.854 -0.1359  1.0437 -0.4150
  182POPC    HA20836   5.296   5.983   6.764  3.1764  1.0967  1.1984
  182POPC    HB20837   5.345   6.064   6.894  0.6856 -1.7855  0.4739
  182POPC    C220838   5.153   6.147   6.818 -1.2638  0.5358  0.0510
  182POPC    HS20839   5.107   6.190   6.910  0.9307  0.6520  1.1719
  182POPC   O2120840   5.048   6.099   6.735  0.0061 -0.1609 -0.1213
  182POPC   C2120841   4.969   6.178   6.676  0.1648 -0.8203  0.4302
  182POPC   O2220842   4.954   6.301   6.693  0.2855  1.0869  0.2880
  182POPC   C2220843   4.880   6.095   6.583  0.2740  0.1542  0.1930
  182POPC   H2R20844   4.784   6.064   6.632  0.4928  0.5231  0.8674
  182POPC   H2S20845   4.932   5.998   6.565  1.8246  1.3799 -2.4957
  182POPC    C320846   5.242   6.263   6.762  0.4141  0.3763  0.7135
  182POPC    HX20847   5.327   6.290   6.828  0.8528 -0.3098  0.4428
  182POPC    HY20848   5.175   6.352   6.764 -1.4698 -0.9244 -0.2499
  182POPC   O3120849   5.291   6.228   6.628 -0.2133  0.1514 -0.2803
  182POPC   C3120850   5.347   6.323   6.553  0.1375 -0.2197 -0.1685
  182POPC   O3220851   5.374   6.434   6.591 -0.0485  0.0703 -0.0025
  182POPC   C3220852   5.386   6.269   6.418  0.7947  0.4213  0.7012
  182POPC   H2X20853   5.297   6.218   6.376 -1.8996  2.8351  3.0275
  182POPC   H2Y20854   5.456   6.187   6.441  0.4086  0.0060  0.4242
  182POPC   C2320855   4.851   6.156   6.447 -0.0363 -0.0984 -0.3301
  182POPC   H3R20856   4.786   6.246   6.463  0.7026  0.4889 -0.5692
  182POPC   H3S20857   4.801   6.082   6.381 -2.4179  1.0251  0.0919
  182POPC   C2420858   4.979   6.204   6.367 -0.1602  0.4638 -0.2187
  182POPC   H4R20859   5.057   6.125   6.363  0.5955  0.7432  4.0794
  182POPC   H4S20860   5.024   6.286   6.427 -0.7100  0.6949 -0.1128
  182POPC   C2520861   4.944   6.268   6.231 -0.2683  0.3460 -0.4436
  182POPC   H5R20862   4.881   6.357   6.253  0.6742  1.0450 -0.5025
  182POPC   H5S20863   4.887   6.196   6.167  1.9697 -1.2543 -0.7455
  182POPC   C2620864   5.073   6.303   6.148  0.0540 -0.1929  0.2675
  182POPC   H6R20865   5.137   6.212   6.150 -1.4172 -1.3519 -1.6205
  182POPC   H6S20866   5.129   6.391   6.186 -1.1047  0.4557  0.5227
  182POPC   C2720867   5.046   6.320   5.995 -0.2248 -0.4229 -0.1373
  182POPC   H7R20868   4.987   6.412   5.974 -0.0178 -0.1302  0.5315
  182POPC   H7S20869   4.988   6.235   5.953 -2.3564  1.8307 -2.1311
  182POPC   C2820870   5.178   6.317   5.921 -0.4883 -1.0253 -0.4097
  182POPC   H8R20871   5.147   6.317   5.815 -1.2949  0.7273 -0.1995
  182POPC   H8S20872   5.244   6.228   5.928  1.9201  0.5092 -2.2305
  182POPC   C2920873   5.259   6.439   5.961 -0.1650 -0.7016  0.5274
  182POPC   H9120874   5.307   6.449   6.060  1.1739  0.5879 -0.2129
  182POPC  C21020875   5.272   6.553   5.885  0.1707  0.2162 -0.2497
  182POPC  H10120876   5.345   6.628   5.916  0.0609  0.7112 -1.1517
  182POPC  C21120877   5.211   6.571   5.753 -0.1090 -0.5247 -0.5109
  182POPC  H11R20878   5.193   6.677   5.725 -3.2488 -1.3316 -1.9864
  182POPC  H11S20879   5.108   6.531   5.759 -1.2215  2.3139  1.9109
  182POPC  C21220880   5.287   6.500   5.637  0.2176  0.4462 -0.6380
  182POPC  H12R20881   5.294   6.393   5.665 -0.4172  0.9795  1.7805
  182POPC  H12S20882   5.391   6.537   5.624  1.3506 -2.5025 -0.7523
  182POPC  C21320883   5.215   6.527   5.510  0.2695 -0.6812  0.1285
  182POPC  H13R20884   5.142   6.608   5.530 -0.8977 -1.5597 -0.4596
  182POPC  H13S20885   5.155   6.437   5.485  0.3622 -0.3118 -1.5762
  182POPC  C21420886   5.312   6.554   5.389 -0.1350  0.0669 -1.0122
  182POPC  H14R20887   5.397   6.482   5.388  1.0657  1.4339 -2.5090
  182POPC  H14S20888   5.358   6.655   5.400 -1.2028  0.4253  0.4889
  182POPC  C21520889   5.243   6.544   5.257 -0.4024 -0.3433  0.3187
  182POPC  H15R20890   5.179   6.634   5.249 -1.7468 -1.2178  0.9005
  182POPC  H15S20891   5.178   6.454   5.247  2.2346 -2.1715 -2.0312
  182POPC  C21620892   5.341   6.518   5.145  0.4609  0.2403  0.3920
  182POPC  H16R20893   5.375   6.413   5.152  1.8192  0.7300  1.5777
  182POPC  H16S20894   5.425   6.590   5.156 -0.3819  1.0588  1.7442
  182POPC  C21720895   5.279   6.551   5.012  0.8226  0.3601  0.3536
  182POPC  H17R20896   5.213   6.640   5.022  2.6466  1.7203  0.8817
  182POPC  H17S20897   5.209   6.467   4.993 -0.7559  1.4582  1.0930
  182POPC  C21820898   5.382   6.584   4.908  0.1825  0.3634  0.7959
  182POPC  H18R20899   5.429   6.680   4.939 -0.0975  0.7153  0.1584
  182POPC  H18S20900   5.326   6.606   4.815 -0.6849 -0.4274  1.1153
  182POPC  H18T20901   5.462   6.507   4.903 -0.0870  0.0891  0.6083
  182POPC   C3320902   5.456   6.362   6.324  0.0465  0.1006 -0.5735
  182POPC   H3X20903   5.537   6.416   6.378 -0.1553 -0.9177  0.8078
  182POPC   H3Y20904   5.378   6.440   6.309  0.0300  0.2209  0.1143
  182POPC   C3420905   5.497   6.296   6.192 -0.9298 -0.6067 -0.3995
  182POPC   H4X20906   5.534   6.377   6.125 -0.8908  0.1359  0.4886
  182POPC   H4Y20907   5.414   6.239   6.146 -0.6952  0.5620 -2.3735
  182POPC   C3520908   5.611   6.186   6.216  0.2528 -0.0832  0.0254
  182POPC   H5X20909   5.565   6.089   6.244  1.4788 -1.3958 -2.2406
  182POPC   H5Y20910   5.688   6.214   6.291  2.8263 -2.9169 -1.3494
  182POPC   C3620911   5.696   6.167   6.084 -0.5012  0.1337 -0.3819
  182POPC   H6X20912   5.779   6.097   6.109 -0.7887  0.1106  0.5220
  182POPC   H6Y20913   5.738   6.266   6.056  0.0157 -0.0581 -0.2947
  182POPC   C3720914   5.616   6.115   5.963 -0.3573 -0.6426 -0.5843
  182POPC   H7X20915   5.518   6.166   5.955  0.9561  2.0520 -0.8334
  182POPC   H7Y20916   5.601   6.006   5.978  1.8081 -0.8030  0.9481
  182POPC   C3820917   5.685   6.128   5.829  0.1679 -0.3252  0.0861
  182POPC   H8X20918   5.786   6.083   5.834  0.0872 -1.0030 -2.6611
  182POPC   H8Y20919   5.700   6.236   5.804  1.3479 -0.6286 -0.6096
  182POPC   C3920920   5.604   6.062   5.715 -0.2674  0.5696  0.3612
  182POPC   H9X20921   5.595   5.953   5.732  1.4608  0.4756  0.8966
  182POPC   H9Y20922   5.670   6.064   5.626 -1.4331  0.8157 -0.5175
  182POPC  C31020923   5.473   6.136   5.687 -0.1648 -0.1169  0.0300
  182POPC  H10X20924   5.500   6.242   5.707  0.0405 -0.4907  1.9933
  182POPC  H10Y20925   5.398   6.111   5.766 -0.5084  0.9166  0.0483
  182POPC  C31120926   5.414   6.124   5.541  0.2210 -0.1608 -0.4048
  182POPC  H11X20927   5.324   6.189   5.532  0.5995  0.3104 -0.8537
  182POPC  H11Y20928   5.379   6.020   5.525 -0.2974  0.3686 -3.2469
  182POPC  C31220929   5.515   6.158   5.431 -0.5045  0.3966 -0.1287
  182POPC  H12X20930   5.593   6.079   5.429 -1.7499 -0.8577 -1.5895
  182POPC  H12Y20931   5.562   6.255   5.456  0.8048 -0.2778  0.0961
  182POPC  C31320932   5.451   6.153   5.298  0.3924  0.5180  0.3957
  182POPC  H13X20933   5.389   6.242   5.272 -0.7700 -0.9018 -2.0003
  182POPC  H13Y20934   5.379   6.069   5.298  0.1675  0.6743  2.4065
  182POPC  C31420935   5.556   6.127   5.184 -0.5651  0.1811  0.2201
  182POPC  H14X20936   5.599   6.025   5.174  0.5610  0.4388  1.8691
  182POPC  H14Y20937   5.647   6.188   5.203  0.8617 -2.0249  0.8483
  182POPC  C31520938   5.503   6.164   5.043 -0.7128  0.2878 -0.6363
  182POPC  H15X20939   5.487   6.274   5.043 -1.1476  0.2511  0.9011
  182POPC  H15Y20940   5.398   6.128   5.033 -0.6769 -0.9337  2.3597
  182POPC  C31620941   5.595   6.123   4.929 -0.5922 -0.3844 -0.0601
  182POPC  H16X20942   5.546   6.158   4.836  0.5458  0.3210 -0.4044
  182POPC  H16Y20943   5.605   6.013   4.913 -1.4081 -0.5384  0.4118
  182POPC  H16Z20944   5.697   6.165   4.939 -1.0967  1.0632 -0.7952
  183POPC     N20945   0.754   4.069   7.003 -0.2243  0.5524 -0.3218
  183POPC   C1220946   0.703   4.023   6.866  0.3428  0.2919 -0.1743
  183POPC  H12A20947   0.629   3.946   6.883  0.5461  0.4658  1.6269
  183POPC  H12B20948   0.777   3.968   6.809  1.0784 -0.5694  1.5402
  183POPC   C1320949   0.845   4.188   6.990  0.4208  0.4675  0.4081
  183POPC  H13A20950   0.936   4.147   6.948  0.1752  0.4930 -0.1551
  183POPC  H13B20951   0.798   4.266   6.931  0.0434  1.0289  1.4185
  183POPC  H13C20952   0.869   4.230   7.086 -0.7889  0.2708  0.8119
  183POPC   C1420953   0.637   4.105   7.084  0.6190  0.3620 -0.1234
  183POPC  H14A20954   0.582   4.186   7.038 -1.7851 -1.0617  0.1318
  183POPC  H14B20955   0.571   4.022   7.099 -0.7333  1.0069 -2.0820
  183POPC  H14C20956   0.668   4.144   7.180 -2.2906 -0.2973  1.1752
  183POPC   C1520957   0.822   3.962   7.078  0.4796 -0.2217 -0.0366
  183POPC  H15A20958   0.899   3.903   7.031 -1.0017 -0.3251 -2.4847
  183POPC  H15B20959   0.758   3.880   7.105 -0.0882  0.0033 -0.6575
  183POPC  H15C20960   0.864   3.993   7.173  1.4315 -1.3281 -0.0756
  183POPC   C1120961   0.639   4.135   6.779 -0.7584  0.3129 -0.1123
  183POPC  H11A20962   0.553   4.189   6.824 -0.8791  0.9284 -1.0355
  183POPC  H11B20963   0.603   4.085   6.687  1.6279 -0.8285 -0.4959
  183POPC     P20964   0.806   4.244   6.606  0.0899 -0.6112  0.1879
  183POPC   O1320965   0.847   4.110   6.563 -0.5997 -0.3365  0.5097
  183POPC   O1420966   0.904   4.354   6.610 -0.9726 -0.5876 -0.4348
  183POPC   O1220967   0.728   4.246   6.744 -0.1631  0.0546  0.6207
  183POPC   O1120968   0.711   4.307   6.495 -0.1896 -0.1110 -0.1541
  183POPC    C120969   0.629   4.418   6.528 -0.3210  1.0161  0.2488
  183POPC    HA20970   0.663   4.465   6.623  1.7033  0.0084  0.0773
  183POPC    HB20971   0.524   4.382   6.542 -0.2696  1.3295  1.6536
  183POPC    C220972   0.634   4.514   6.410 -0.6396 -0.6126 -0.1010
  183POPC    HS20973   0.593   4.613   6.441  1.4755  0.2993 -0.0634
  183POPC   O2120974   0.557   4.464   6.300  0.6923 -0.5237  0.0498
  183POPC   C2120975   0.424   4.485   6.318  0.6031 -0.1539  0.2938
  183POPC   O2220976   0.373   4.546   6.408 -0.1144  0.2850  0.1057
  183POPC   C2220977   0.344   4.418   6.205 -0.3210 -0.5687  0.1675
  183POPC   H2R20978   0.241   4.394   6.238 -1.2998 -2.0155 -3.4397
  183POPC   H2S20979   0.386   4.322   6.169  1.4155  0.9424 -2.1809
  183POPC    C320980   0.773   4.559   6.364  0.1828  0.1763 -0.1923
  183POPC    HX20981   0.837   4.472   6.337  1.2065  0.8350  0.0438
  183POPC    HY20982   0.818   4.602   6.456  0.7065  1.1001 -0.8582
  183POPC   O3120983   0.764   4.662   6.256 -0.5072  0.0307  0.4250
  183POPC   C3120984   0.804   4.622   6.137  0.2476 -0.2595  0.2631
  183POPC   O3220985   0.852   4.510   6.108  0.6884 -0.5788 -0.1097
  183POPC   C3220986   0.784   4.750   6.039 -0.4909 -0.4556  0.2865
  183POPC   H2X20987   0.788   4.834   6.111 -0.7852  0.9715 -1.2979
  183POPC   H2Y20988   0.681   4.727   6.002 -0.7073 -0.2559  0.7628
  183POPC   C2320989   0.335   4.510   6.075 -0.7948 -0.1208 -0.1206
  183POPC   H3R20990   0.380   4.611   6.082 -0.3614 -0.4066  1.5354
  183POPC   H3S20991   0.228   4.524   6.047 -0.7679 -3.0795 -2.2279
  183POPC   C2420992   0.401   4.437   5.952  0.1676 -1.0240  0.2630
  183POPC   H4R20993   0.336   4.350   5.929  0.2037 -1.7063  2.5465
  183POPC   H4S20994   0.501   4.402   5.983 -0.1458 -1.3944  0.8875
  183POPC   C2520995   0.405   4.537   5.840  0.3741  0.2726  0.1513
  183POPC   H5R20996   0.466   4.626   5.866 -0.1790  1.0317 -1.0801
  183POPC   H5S20997   0.301   4.575   5.832  0.1716 -0.4252 -0.6350
  183POPC   C2620998   0.458   4.480   5.706 -0.3363 -1.2866 -0.4639
  183POPC   H6R20999   0.446   4.372   5.682 -2.4188 -1.5355  1.3671
  183POPC   H6S21000   0.568   4.497   5.706 -0.7324  1.9192  0.0789
  183POPC   C2721001   0.406   4.559   5.591 -0.4667  0.4376  0.5707
  183POPC   H7R21002   0.410   4.664   5.627 -2.8065  0.8459 -0.2078
  183POPC   H7S21003   0.300   4.530   5.574 -0.7438  1.4545  0.5057
  183POPC   C2821004   0.484   4.546   5.457  0.2614  0.1779 -0.2565
  183POPC   H8R21005   0.463   4.442   5.422 -2.5337  1.1449 -1.7486
  183POPC   H8S21006   0.592   4.548   5.483 -0.1428 -0.3467  1.6027
  183POPC   C2921007   0.450   4.641   5.346 -0.8739  0.1301  0.4365
  183POPC   H9121008   0.345   4.670   5.332 -0.7662 -0.3037 -1.6913
  183POPC  C21021009   0.521   4.652   5.231 -0.3553  0.1048 -0.2447
  183POPC  H10121010   0.493   4.721   5.150  0.0022 -0.9967 -1.3346
  183POPC  C21121011   0.656   4.594   5.197  0.2703  0.8480  0.6450
  183POPC  H11R21012   0.698   4.548   5.290 -0.7849  0.8005  1.1162
  183POPC  H11S21013   0.734   4.671   5.180  2.1995 -1.2514 -0.5663
  183POPC  C21221014   0.652   4.508   5.065  0.1769  0.4468  1.0718
  183POPC  H12R21015   0.590   4.566   4.993 -1.4518 -0.5289  1.6318
  183POPC  H12S21016   0.605   4.407   5.065  0.9099  0.0986  1.0809
  183POPC  C21321017   0.793   4.501   4.995  0.8378 -0.7047  0.5602
  183POPC  H13R21018   0.863   4.437   5.054  1.5269 -0.4526  0.0196
  183POPC  H13S21019   0.830   4.605   4.985  1.0657 -0.7733  0.6964
  183POPC  C21421020   0.779   4.448   4.851  0.0029 -0.5780 -0.0055
  183POPC  H14R21021   0.691   4.380   4.846 -1.2487  0.6410  3.0188
  183POPC  H14S21022   0.866   4.389   4.816 -0.6806 -2.4158  1.2358
  183POPC  C21521023   0.762   4.566   4.752  0.2790  0.1349  0.1449
  183POPC  H15R21024   0.853   4.626   4.770 -0.2065  1.4072 -1.3875
  183POPC  H15S21025   0.687   4.641   4.785  1.4098  1.0847  0.6085
  183POPC  C21621026   0.732   4.523   4.603 -0.2550  0.2754  0.8099
  183POPC  H16R21027   0.652   4.446   4.600  1.6160 -1.7384 -0.7929
  183POPC  H16S21028   0.824   4.472   4.567 -0.3598  1.3838 -1.1749
  183POPC  C21721029   0.697   4.642   4.517 -0.2433 -0.7647 -0.0448
  183POPC  H17R21030   0.602   4.687   4.553 -0.4848 -2.1740  1.2032
  183POPC  H17S21031   0.680   4.614   4.411  0.8393  1.2805 -0.8132
  183POPC  C21821032   0.812   4.748   4.514 -0.2712 -0.4128  0.1422
  183POPC  H18R21033   0.785   4.818   4.432  0.7216 -0.6523 -0.4173
  183POPC  H18S21034   0.918   4.714   4.503 -0.0451 -0.4419  2.0826
  183POPC  H18T21035   0.813   4.810   4.606 -0.3251  0.0182 -0.1443
  183POPC   C3321036   0.888   4.776   5.931 -0.3613  0.1219  0.1365
  183POPC   H3X21037   0.975   4.708   5.938  1.7129  2.7038  2.2168
  183POPC   H3Y21038   0.928   4.880   5.934  0.7292 -0.2909  0.0895
  183POPC   C3421039   0.839   4.736   5.795 -0.1811 -0.2385 -0.1015
  183POPC   H4X21040   0.794   4.635   5.803  0.6358 -0.5366  1.0645
  183POPC   H4Y21041   0.927   4.718   5.728  0.0486  1.7847 -0.4126
  183POPC   C3521042   0.740   4.844   5.746  0.0258  0.3573 -0.0588
  183POPC   H5X21043   0.770   4.949   5.726 -1.4250  0.9509  0.7122
  183POPC   H5Y21044   0.654   4.851   5.816  1.6921  0.5870  2.0479
  183POPC   C3621045   0.676   4.794   5.613 -0.0123  0.1380  0.5511
  183POPC   H6X21046   0.582   4.850   5.595 -0.6817 -0.9457  0.5783
  183POPC   H6Y21047   0.661   4.685   5.627 -0.6786  0.2972  1.1384
  183POPC   C3721048   0.773   4.808   5.493  0.0915  1.0771  0.8741
  183POPC   H7X21049   0.721   4.762   5.406  0.9815 -0.5841  1.1910
  183POPC   H7Y21050   0.870   4.754   5.506 -0.4991 -0.3621 -0.4200
  183POPC   C3821051   0.795   4.952   5.447  0.3469 -0.1436 -0.8527
  183POPC   H8X21052   0.824   5.008   5.539 -1.1687 -1.0782  0.2362
  183POPC   H8Y21053   0.697   4.989   5.410 -0.1082  0.2449  0.6781
  183POPC   C3921054   0.905   4.963   5.340 -0.4527 -0.1780  0.7200
  183POPC   H9X21055   0.883   4.899   5.251  0.2207  1.5481 -0.7365
  183POPC   H9Y21056   1.005   4.934   5.378 -0.1826  0.1017  0.2270
  183POPC  C31021057   0.918   5.109   5.283 -0.1771 -0.5193  0.0370
  183POPC  H10X21058   0.970   5.167   5.361 -0.7076  1.2380 -0.8696
  183POPC  H10Y21059   0.815   5.148   5.266 -0.2187 -0.6853 -0.1040
  183POPC  C31121060   0.994   5.124   5.153  0.0667  0.2952 -0.1171
  183POPC  H11X21061   1.075   5.050   5.169 -1.9993 -1.7789  1.5085
  183POPC  H11Y21062   1.055   5.216   5.143  1.2763 -0.5633 -0.9000
  183POPC  C31221063   0.933   5.086   5.023 -0.4843 -0.1091 -0.9382
  183POPC  H12X21064   0.859   5.166   5.005 -0.1334 -0.3711 -3.9292
  183POPC  H12Y21065   0.891   4.983   5.033 -0.1052 -0.0706  2.1866
  183POPC  C31321066   1.027   5.100   4.900  0.3511 -0.0522 -0.7671
  183POPC  H13X21067   1.107   5.024   4.910 -1.1488 -1.3665  3.7359
  183POPC  H13Y21068   1.061   5.205   4.901 -0.0793  0.0908 -0.5682
  183POPC  C31421069   0.951   5.064   4.768 -0.0079 -0.2300  0.6038
  183POPC  H14X21070   0.864   5.133   4.760 -1.2205 -1.4656  2.4598
  183POPC  H14Y21071   0.904   4.964   4.780  0.7274 -0.8219 -1.1282
  183POPC  C31521072   1.029   5.060   4.637 -0.1832  0.2525 -0.3372
  183POPC  H15X21073   0.956   5.039   4.555  0.6390  3.0642 -1.9338
  183POPC  H15Y21074   1.110   4.986   4.650  0.8609  1.6278  1.4027
  183POPC  C31621075   1.093   5.202   4.610  0.1311 -0.0509 -0.0816
  183POPC  H16X21076   1.176   5.216   4.683 -0.2469 -0.0230  0.3493
  183POPC  H16Y21077   1.012   5.278   4.617  2.0915  2.1681 -0.4409
  183POPC  H16Z21078   1.139   5.194   4.510 -0.1407 -1.2762 -0.1256
  184POPC     N21079   1.762   4.985   6.475  0.2116 -0.4812 -0.5045
  184POPC   C1221080   1.846   4.994   6.346  0.2895 -0.4008  0.0697
  184POPC  H12A21081   1.901   4.903   6.326 -0.9264 -0.8849 -1.3619
  184POPC  H12B21082   1.926   5.062   6.366 -0.9258  1.4275 -0.9664
  184POPC   C1321083   1.841   4.918   6.577 -0.1012 -0.6063 -0.1876
  184POPC  H13A21084   1.935   4.967   6.601  0.6819 -2.3057  0.3757
  184POPC  H13B21085   1.789   4.903   6.670  1.1218 -0.2582  0.5745
  184POPC  H13C21086   1.871   4.820   6.543  1.3414 -1.5733  3.3826
  184POPC   C1421087   1.717   5.118   6.518 -0.9624  0.9352  0.5442
  184POPC  H14A21088   1.671   5.112   6.616  2.8338 -2.6757  2.4168
  184POPC  H14B21089   1.808   5.176   6.526  1.6915 -2.4206 -2.0430
  184POPC  H14C21090   1.647   5.160   6.447 -0.8623 -1.1506 -0.8711
  184POPC   C1521091   1.638   4.905   6.453  0.3371  0.4564 -0.6859
  184POPC  H15A21092   1.567   4.943   6.382  0.0561  1.3441  0.0522
  184POPC  H15B21093   1.584   4.908   6.546 -0.5088  1.8355 -1.1910
  184POPC  H15C21094   1.657   4.803   6.424  1.8876  0.9277 -1.4587
  184POPC   C1121095   1.783   5.045   6.212  0.9002  0.8219  0.1166
  184POPC  H11A21096   1.703   4.981   6.169  1.2933  2.2905 -3.1159
  184POPC  H11B21097   1.864   5.047   6.136  0.7085  0.7471 -0.0892
  184POPC     P21098   1.609   5.243   6.190 -0.1228  0.3444 -0.1305
  184POPC   O1321099   1.609   5.384   6.223  0.5923  0.0270  0.4849
  184POPC   O1421100   1.517   5.150   6.254 -0.1996 -0.1818  0.4825
  184POPC   O1221101   1.756   5.182   6.228  0.1569  0.3533 -0.3025
  184POPC   O1121102   1.608   5.229   6.035  0.3607  0.0076 -0.2954
  184POPC    C121103   1.718   5.253   5.943  0.3000 -0.1313  0.6030
  184POPC    HA21104   1.692   5.199   5.849  0.5331 -2.0506  1.5977
  184POPC    HB21105   1.804   5.194   5.984  1.2131  1.0263  0.4047
  184POPC    C221106   1.771   5.390   5.912 -0.2212 -0.3130 -0.0366
  184POPC    HS21107   1.792   5.439   6.010  0.9103  1.8496 -1.2986
  184POPC   O2121108   1.665   5.465   5.850 -0.3034 -0.6391 -0.5420
  184POPC   C2121109   1.682   5.589   5.847 -0.0109 -0.1386 -0.1572
  184POPC   O2221110   1.778   5.654   5.889 -0.0333  0.1067 -1.0259
  184POPC   C2221111   1.561   5.648   5.771 -0.0795 -0.5190 -0.3284
  184POPC   H2R21112   1.573   5.758   5.773 -2.5120 -0.1752  2.2563
  184POPC   H2S21113   1.478   5.625   5.842 -0.1945 -1.8366 -0.8458
  184POPC    C321114   1.903   5.386   5.825 -0.3917 -0.3170 -0.0332
  184POPC    HX21115   1.983   5.349   5.893  0.9669 -0.0509 -1.4444
  184POPC    HY21116   1.928   5.492   5.803  1.7882 -0.4105  1.6696
  184POPC   O3121117   1.895   5.307   5.705  1.0702  0.2025 -0.2641
  184POPC   C3121118   1.995   5.309   5.627 -0.4330  0.7134 -0.1276
  184POPC   O3221119   2.102   5.363   5.655 -0.5033  0.2171  0.5644
  184POPC   C3221120   1.977   5.222   5.506  0.1521  0.5960  0.1526
  184POPC   H2X21121   1.882   5.239   5.452  0.0590 -2.8015 -1.0371
  184POPC   H2Y21122   1.966   5.121   5.550 -2.1065  0.1886 -1.1697
  184POPC   C2321123   1.552   5.599   5.632  0.4975 -0.9540 -0.3539
  184POPC   H3R21124   1.456   5.633   5.588 -0.8155 -3.0981  0.6720
  184POPC   H3S21125   1.543   5.488   5.634 -1.3783 -0.8336  0.0933
  184POPC   C2421126   1.670   5.641   5.546  0.4629 -0.3765  0.1839
  184POPC   H4R21127   1.755   5.590   5.598 -0.7652 -2.1773  0.5233
  184POPC   H4S21128   1.677   5.751   5.552  1.0350 -0.4076  0.1442
  184POPC   C2521129   1.666   5.594   5.398 -0.3475 -0.7703 -0.1892
  184POPC   H5R21130   1.574   5.639   5.355 -0.9036 -1.2081  0.5113
  184POPC   H5S21131   1.643   5.486   5.401 -1.0920 -0.7709 -3.2728
  184POPC   C2621132   1.782   5.641   5.309  1.1256 -0.4331 -0.4028
  184POPC   H6R21133   1.840   5.713   5.370 -0.3806 -0.1336  0.7397
  184POPC   H6S21134   1.737   5.695   5.223 -3.1848 -0.2728  1.6794
  184POPC   C2721135   1.879   5.529   5.266 -0.1282  0.2770 -0.2312
  184POPC   H7R21136   1.826   5.465   5.193 -1.2048 -1.2823  1.8114
  184POPC   H7S21137   1.881   5.479   5.365  0.7684 -0.5070 -0.6393
  184POPC   C2821138   2.023   5.576   5.228  0.5924  0.2991  0.1027
  184POPC   H8R21139   2.078   5.486   5.193  0.3895  0.7839 -1.5704
  184POPC   H8S21140   2.054   5.619   5.325 -1.6478  2.0047  0.1524
  184POPC   C2921141   2.028   5.663   5.108 -0.1241 -0.1246  0.7908
  184POPC   H9121142   2.053   5.765   5.142 -0.2580  0.8158 -1.6931
  184POPC  C21021143   1.995   5.647   4.981 -0.5911 -0.6822 -0.7594
  184POPC  H10121144   1.984   5.743   4.927 -0.6167 -0.1865  0.1005
  184POPC  C21121145   1.944   5.519   4.919  0.0357 -0.0435  0.0556
  184POPC  H11R21146   1.927   5.430   4.983 -2.2577  0.4384  0.1904
  184POPC  H11S21147   2.009   5.484   4.836 -0.8619 -1.0131 -0.2513
  184POPC  C21221148   1.805   5.547   4.856  0.7761 -0.2589 -0.1824
  184POPC  H12R21149   1.812   5.649   4.812 -0.5834  0.0990  0.3526
  184POPC  H12S21150   1.740   5.554   4.946  2.2786 -0.0538  0.9349
  184POPC  C21321151   1.754   5.445   4.752  0.0163  0.6933 -0.1893
  184POPC  H13R21152   1.643   5.447   4.762 -0.0045  1.0064 -0.4439
  184POPC  H13S21153   1.801   5.346   4.767  0.5201  0.8865 -0.4773
  184POPC  C21421154   1.783   5.502   4.615  0.3107 -0.7597 -0.5029
  184POPC  H14R21155   1.793   5.419   4.542  0.1740  1.1740 -2.8900
  184POPC  H14S21156   1.876   5.563   4.612  0.3768 -0.8132  0.3661
  184POPC  C21521157   1.665   5.588   4.567  0.2117  0.3678 -0.0515
  184POPC  H15R21158   1.697   5.673   4.503 -3.3448 -0.2121 -2.9256
  184POPC  H15S21159   1.617   5.632   4.657  0.0028  0.1086 -0.0371
  184POPC  C21621160   1.560   5.508   4.480  0.0989 -0.1657  0.2555
  184POPC  H16R21161   1.558   5.410   4.531  1.5532 -0.7835 -0.7979
  184POPC  H16S21162   1.607   5.489   4.381 -0.0192 -0.1651  0.2001
  184POPC  C21721163   1.425   5.570   4.490  0.4097  0.0965  0.3820
  184POPC  H17R21164   1.434   5.673   4.450  1.8296 -0.9981 -2.3600
  184POPC  H17S21165   1.403   5.578   4.599  2.1324  2.3874  0.6334
  184POPC  C21821166   1.318   5.485   4.414 -0.0686 -0.4864  0.1976
  184POPC  H18R21167   1.304   5.388   4.466  2.2560 -0.7409  0.4310
  184POPC  H18S21168   1.360   5.468   4.312  2.2885 -0.9824  1.1913
  184POPC  H18T21169   1.222   5.541   4.405 -0.1894 -0.5391  1.1157
  184POPC   C3321170   2.093   5.216   5.398 -0.7059 -0.2319  0.6767
  184POPC   H3X21171   2.196   5.189   5.430  0.6467  2.2640 -1.1534
  184POPC   H3Y21172   2.116   5.313   5.348 -2.2972 -0.7519 -1.1755
  184POPC   C3421173   2.059   5.117   5.284  0.4975  0.1639  1.1813
  184POPC   H4X21174   1.962   5.070   5.309 -0.5090  1.4915 -0.0269
  184POPC   H4Y21175   2.143   5.045   5.272 -0.1052 -0.2324 -1.4657
  184POPC   C3521176   2.056   5.195   5.148 -0.7334  0.2485 -0.1806
  184POPC   H5X21177   2.142   5.263   5.131  0.1523 -1.0662 -1.2856
  184POPC   H5Y21178   1.960   5.251   5.152 -0.8272  0.1415 -0.8214
  184POPC   C3621179   2.053   5.098   5.031 -0.3483 -0.5334  0.2632
  184POPC   H6X21180   1.993   5.008   5.055  0.3938 -1.1710 -0.2352
  184POPC   H6Y21181   2.157   5.062   5.022 -0.7754 -1.2185 -3.4158
  184POPC   C3721182   2.010   5.174   4.908  0.0271 -0.2240 -0.8692
  184POPC   H7X21183   2.074   5.264   4.892 -2.2456  1.7352  0.2320
  184POPC   H7Y21184   1.908   5.211   4.934 -0.1700 -2.1217  1.4099
  184POPC   C3821185   2.027   5.085   4.784  0.5463 -0.0715 -0.5972
  184POPC   H8X21186   1.990   5.140   4.695  0.9330  0.6075 -0.3477
  184POPC   H8Y21187   1.970   4.990   4.794  1.0549 -0.1713  2.1340
  184POPC   C3921188   2.170   5.038   4.756  0.4263 -0.2338  0.2675
  184POPC   H9X21189   2.196   4.963   4.834 -0.2536 -0.0914  0.6421
  184POPC   H9Y21190   2.239   5.125   4.766  0.0977  0.0692 -0.0780
  184POPC  C31021191   2.194   4.964   4.626  0.1470  1.1998  1.1811
  184POPC  H10X21192   2.294   4.917   4.631 -0.1631 -0.2035 -2.6206
  184POPC  H10Y21193   2.207   5.035   4.541  1.4575 -1.1788 -0.7507
  184POPC  C31121194   2.098   4.860   4.582  0.2542  0.3935 -0.4091
  184POPC  H11X21195   2.121   4.837   4.476 -0.6464  0.0313 -0.5374
  184POPC  H11Y21196   1.998   4.908   4.588 -0.1301 -0.2966 -1.1053
  184POPC  C31221197   2.098   4.730   4.666  0.0897 -0.0173  0.5251
  184POPC  H12X21198   2.073   4.749   4.773 -1.5328  1.4180 -0.0620
  184POPC  H12Y21199   2.200   4.687   4.661 -0.2858 -1.0424  1.3419
  184POPC  C31321200   2.003   4.616   4.603  0.5437 -0.1391 -0.2157
  184POPC  H13X21201   2.045   4.514   4.610 -0.5159 -0.6012 -0.4178
  184POPC  H13Y21202   1.989   4.623   4.493 -0.4185 -1.9384 -0.2338
  184POPC  C31421203   1.869   4.633   4.675 -0.2481 -0.4184  0.5776
  184POPC  H14X21204   1.833   4.737   4.658 -0.1897 -0.4616  0.1870
  184POPC  H14Y21205   1.874   4.609   4.784 -1.5770  0.7021  0.9211
  184POPC  C31521206   1.756   4.547   4.623  0.2024  0.9720  0.5291
  184POPC  H15X21207   1.793   4.444   4.605  0.8318  1.1653  0.6959
  184POPC  H15Y21208   1.729   4.583   4.521  2.4155  1.0794 -0.0650
  184POPC  C31621209   1.632   4.546   4.711 -0.0892  0.0375 -0.4002
  184POPC  H16X21210   1.544   4.500   4.662 -2.0940  1.8478  1.2566
  184POPC  H16Y21211   1.611   4.652   4.738 -1.3970 -0.7843  2.1422
  184POPC  H16Z21212   1.634   4.491   4.808 -1.4746 -0.5568 -0.6839
  185POPC     N21213   6.587   1.900   1.729  0.4339  0.5822  0.5009
  185POPC   C1221214   6.617   1.801   1.842  0.2809 -0.0317  0.2878
  185POPC  H12A21215   6.714   1.758   1.820  1.5895  0.9933  3.3726
  185POPC  H12B21216   6.543   1.722   1.840  0.1657  0.0772 -1.6319
  185POPC   C1321217   6.593   1.832   1.595  0.0963 -0.8323  0.1482
  185POPC  H13A21218   6.679   1.770   1.574 -0.5669 -1.5743 -0.4402
  185POPC  H13B21219   6.512   1.765   1.572 -0.4420  0.5902 -2.4813
  185POPC  H13C21220   6.588   1.913   1.524  0.4144 -1.4458 -0.5815
  185POPC   C1421221   6.449   1.944   1.738  0.2350  0.5023  0.3893
  185POPC  H14A21222   6.429   1.999   1.828 -3.3771 -0.1978  0.1661
  185POPC  H14B21223   6.425   2.009   1.655  0.5178  0.4294  0.2486
  185POPC  H14C21224   6.380   1.861   1.745  1.0765 -0.5034 -2.0712
  185POPC   C1521225   6.690   2.011   1.721 -0.3674  0.2950  0.1864
  185POPC  H15A21226   6.686   2.070   1.811  1.5915 -1.4923  1.5195
  185POPC  H15B21227   6.664   2.080   1.641  0.3070 -1.0819 -1.2786
  185POPC  H15C21228   6.792   1.982   1.701 -0.4458 -0.4854  0.8940
  185POPC   C1121229   6.629   1.845   1.992 -0.1637 -0.3572  0.2751
  185POPC  H11A21230   6.655   1.751   2.045 -1.5585 -0.8406  0.1403
  185POPC  H11B21231   6.527   1.863   2.031 -0.7688  2.7131 -2.2835
  185POPC     P21232   6.878   1.922   2.005 -0.4806 -0.0741 -0.0543
  185POPC   O1321233   6.932   2.031   1.925 -0.0144  0.3906  0.7922
  185POPC   O1421234   6.900   1.778   1.968 -0.0028 -0.6877  0.4206
  185POPC   O1221235   6.724   1.946   2.015 -0.1238  0.1459  0.3335
  185POPC   O1121236   6.936   1.942   2.156 -0.1269  0.1821  0.0031
  185POPC    C121237   6.867   1.989   2.272  0.2839  0.2266  0.2281
  185POPC    HA21238   6.880   1.914   2.353  1.8079  1.2089  0.9220
  185POPC    HB21239   6.756   1.994   2.261  0.0379 -2.1229  0.8934
  185POPC    C221240   6.928   2.120   2.318 -0.6659 -0.3385 -0.7764
  185POPC    HS21241   6.914   2.192   2.235 -1.1220  0.5684  0.0651
  185POPC   O2121242   7.068   2.094   2.347  0.5325 -0.3605 -0.3414
  185POPC   C2121243   7.155   2.190   2.297 -0.0591  0.4419 -0.0695
  185POPC   O2221244   7.124   2.284   2.231  0.1548  0.3038 -1.1375
  185POPC   C2221245   7.296   2.159   2.337  0.1959  0.6994 -0.1721
  185POPC   H2R21246   7.360   2.186   2.250 -2.3379  0.0323 -2.3865
  185POPC   H2S21247   7.309   2.050   2.355  2.1965  1.0713  0.9346
  185POPC    C321248   6.859   2.186   2.443  0.5241 -0.4364 -0.5944
  185POPC    HX21249   6.753   2.210   2.419  0.2599  0.0205  0.8796
  185POPC    HY21250   6.902   2.285   2.467 -1.0647 -0.2652  2.0087
  185POPC   O3121251   6.857   2.090   2.553 -0.4819 -0.3351  0.1872
  185POPC   C3121252   6.932   2.134   2.656 -0.4636  0.6192  0.2335
  185POPC   O3221253   7.001   2.232   2.656  0.1933 -0.1650 -0.2357
  185POPC   C3221254   6.916   2.039   2.777  0.9256  0.3441 -0.0587
  185POPC   H2X21255   7.004   1.971   2.777  1.5774  1.1560 -0.5505
  185POPC   H2Y21256   6.828   1.971   2.771  2.1219 -1.4177  1.4204
  185POPC   C2321257   7.334   2.255   2.447 -0.3380  0.4382  0.0666
  185POPC   H3R21258   7.254   2.252   2.524  0.0795 -0.5655  0.4777
  185POPC   H3S21259   7.346   2.355   2.400 -0.9171  0.6735  0.4045
  185POPC   C2421260   7.458   2.199   2.519 -0.2913 -0.2865 -0.1171
  185POPC   H4R21261   7.543   2.219   2.451 -1.6611  1.0823 -1.5090
  185POPC   H4S21262   7.450   2.090   2.541 -0.8225 -0.4334 -0.9732
  185POPC   C2521263   7.478   2.280   2.650 -0.2675  0.0045 -0.0889
  185POPC   H5R21264   7.448   2.383   2.622  0.0071 -0.4719 -2.3489
  185POPC   H5S21265   7.587   2.277   2.671 -0.2540 -1.4219 -0.2519
  185POPC   C2621266   7.394   2.226   2.771  0.0278  0.3111  0.3444
  185POPC   H6R21267   7.445   2.136   2.811  0.9309 -0.4088 -2.1785
  185POPC   H6S21268   7.286   2.209   2.754 -0.2140  2.0395  0.0066
  185POPC   C2721269   7.400   2.331   2.883 -0.0782  0.1330  0.0054
  185POPC   H7R21270   7.350   2.423   2.846  1.6693  1.7512  1.4424
  185POPC   H7S21271   7.505   2.365   2.895  0.7795 -2.8074  2.2124
  185POPC   C2821272   7.332   2.310   3.022 -0.8887  0.5341 -0.2243
  185POPC   H8R21273   7.242   2.246   3.013 -2.8547  3.1028  0.1044
  185POPC   H8S21274   7.306   2.413   3.053  0.5927  1.0117 -0.4605
  185POPC   C2921275   7.421   2.232   3.111 -0.8539  1.0056  0.7551
  185POPC   H9121276   7.462   2.137   3.075 -2.7493  0.9002 -1.3526
  185POPC  C21021277   7.486   2.278   3.220 -0.1686  0.4874  0.0738
  185POPC  H10121278   7.546   2.205   3.276 -0.9859 -0.0890  0.2110
  185POPC  C21121279   7.466   2.404   3.292  0.0485 -1.1070  0.7552
  185POPC  H11R21280   7.363   2.438   3.272  0.1568 -1.0675  0.2348
  185POPC  H11S21281   7.540   2.470   3.242  1.6926 -2.0275  1.8719
  185POPC  C21221282   7.506   2.402   3.436  0.0671 -0.1359 -0.0499
  185POPC  H12R21283   7.591   2.332   3.449 -1.0502 -1.9341 -1.9308
  185POPC  H12S21284   7.426   2.359   3.500  0.6712  1.9066  2.2666
  185POPC  C21321285   7.536   2.536   3.499 -0.7764 -0.4668  0.0910
  185POPC  H13R21286   7.528   2.540   3.610  0.5729 -0.0776  0.2013
  185POPC  H13S21287   7.465   2.612   3.460 -0.1842 -0.4167 -0.9183
  185POPC  C21421288   7.683   2.585   3.471  0.0649 -0.6818  0.2343
  185POPC  H14R21289   7.695   2.588   3.361  0.6765  0.5847  0.3197
  185POPC  H14S21290   7.751   2.510   3.517 -1.2447 -3.0794 -1.5359
  185POPC  C21521291   7.721   2.732   3.519 -0.0042  0.1034  0.9730
  185POPC  H15R21292   7.678   2.815   3.459  2.4159  0.5409 -0.2499
  185POPC  H15S21293   7.831   2.738   3.508  0.2235  1.7932  3.3318
  185POPC  C21621294   7.692   2.763   3.667 -0.1385 -0.0377  0.0465
  185POPC  H16R21295   7.585   2.741   3.688 -0.3688  1.2161  0.2748
  185POPC  H16S21296   7.708   2.869   3.698 -0.0310 -0.0019 -0.1289
  185POPC  C21721297   7.777   2.685   3.769 -0.9024  0.5610  0.4241
  185POPC  H17R21298   7.886   2.708   3.764 -0.6673 -0.7443 -2.0004
  185POPC  H17S21299   7.763   2.577   3.747 -1.8816  0.5737  0.9137
  185POPC  C21821300   7.725   2.711   3.911 -0.6898 -0.0740  0.1140
  185POPC  H18R21301   7.758   2.624   3.972 -0.4360 -0.2900 -0.3241
  185POPC  H18S21302   7.615   2.708   3.894 -0.5827  0.9787 -0.8943
  185POPC  H18T21303   7.755   2.812   3.945  0.9462 -0.4068 -0.2388
  185POPC   C3321304   6.922   2.101   2.911 -0.5985  0.1480 -0.9451
  185POPC   H3X21305   6.852   2.186   2.927 -0.4668  0.0618  0.1844
  185POPC   H3Y21306   7.021   2.147   2.929  0.6271 -2.9404  1.1349
  185POPC   C3421307   6.908   2.006   3.029  1.1290  0.8815 -0.7380
  185POPC   H4X21308   6.975   1.917   3.032 -0.6226 -0.5180  2.4838
  185POPC   H4Y21309   6.808   1.963   3.006  0.1472  2.8785 -0.4396
  185POPC   C3521310   6.898   2.075   3.164  0.2987 -0.1984 -1.1174
  185POPC   H5X21311   6.801   2.127   3.176 -1.4535 -3.8553  4.7274
  185POPC   H5Y21312   6.985   2.138   3.193 -0.3445 -0.0232  0.6080
  185POPC   C3621313   6.894   1.984   3.286  0.5899 -0.0107 -0.0593
  185POPC   H6X21314   6.978   1.911   3.276 -0.5645 -1.2197 -1.4246
  185POPC   H6Y21315   6.799   1.927   3.285  0.7423 -0.2948 -2.2447
  185POPC   C3721316   6.911   2.061   3.416  0.1337 -0.5734 -0.0391
  185POPC   H7X21317   6.997   2.131   3.407  0.6176 -0.2497  4.8028
  185POPC   H7Y21318   6.944   1.990   3.494 -2.0447 -0.9414  0.6059
  185POPC   C3821319   6.790   2.146   3.464  0.1753 -0.1154  0.3580
  185POPC   H8X21320   6.699   2.083   3.476  0.4915 -0.6790 -0.2187
  185POPC   H8Y21321   6.768   2.217   3.381 -3.0319 -0.3583  0.8523
  185POPC   C3921322   6.814   2.229   3.587  0.4634  0.4626  0.1416
  185POPC   H9X21323   6.724   2.291   3.610  0.1969  0.5449 -1.0631
  185POPC   H9Y21324   6.893   2.304   3.568  1.9642 -1.1477 -0.1713
  185POPC  C31021325   6.844   2.150   3.718  0.7791 -0.6544 -0.0437
  185POPC  H10X21326   6.847   2.224   3.801 -0.1762  1.1447 -1.5290
  185POPC  H10Y21327   6.951   2.120   3.711  0.1244 -3.1990 -0.0529
  185POPC  C31121328   6.742   2.048   3.756  0.4286  0.1074 -0.6784
  185POPC  H11X21329   6.764   1.960   3.692  0.3787 -0.5321  0.1674
  185POPC  H11Y21330   6.643   2.094   3.734  0.3979  0.4030  0.0614
  185POPC  C31221331   6.743   2.019   3.911 -0.2048 -0.2640  0.0954
  185POPC  H12X21332   6.663   2.074   3.964 -1.0077 -0.9884 -0.3293
  185POPC  H12Y21333   6.842   2.045   3.956  0.4377 -2.5074  0.0873
  185POPC  C31321334   6.737   1.870   3.950  0.6594  0.6552 -0.1471
  185POPC  H13X21335   6.760   1.861   4.058  1.3458 -0.8193 -0.4027
  185POPC  H13Y21336   6.804   1.811   3.884  0.1666 -0.4892  0.3496
  185POPC  C31421337   6.591   1.813   3.950  0.1979  0.2627  0.5779
  185POPC  H14X21338   6.546   1.810   3.848 -2.0966 -0.0318  1.5254
  185POPC  H14Y21339   6.514   1.881   3.992  0.6182  0.7059  0.6372
  185POPC  C31521340   6.591   1.667   3.993  0.0285 -0.2547 -0.2405
  185POPC  H15X21341   6.629   1.665   4.097 -0.3186 -2.0829 -0.1201
  185POPC  H15Y21342   6.656   1.603   3.929 -0.5095 -1.5187  0.4447
  185POPC  C31621343   6.450   1.605   3.977  0.3972  0.7835 -0.4179
  185POPC  H16X21344   6.452   1.500   4.012 -1.3160  1.4772  2.1119
  185POPC  H16Y21345   6.418   1.608   3.871  1.4725 -4.0744 -1.0992
  185POPC  H16Z21346   6.374   1.662   4.036 -1.7940 -1.5349 -0.8406
  186POPC     N21347   0.679   6.779   1.789 -0.5602 -0.4424  0.2037
  186POPC   C1221348   0.828   6.810   1.788  0.4799  0.5847 -0.4463
  186POPC  H12A21349   0.851   6.877   1.706  1.8523 -0.4378 -0.9248
  186POPC  H12B21350   0.881   6.718   1.770  1.6717  0.6921  2.0420
  186POPC   C1321351   0.633   6.687   1.897  0.3633 -0.2063 -0.3954
  186POPC  H13A21352   0.673   6.718   1.993 -2.4192  1.0056  0.4776
  186POPC  H13B21353   0.525   6.675   1.902  0.5789 -2.2287  0.6455
  186POPC  H13C21354   0.671   6.589   1.872 -0.2199 -0.3996 -0.5494
  186POPC   C1421355   0.603   6.905   1.811  0.5242 -0.0762 -0.3877
  186POPC  H14A21356   0.624   6.976   1.732  0.3921  1.5215  0.9574
  186POPC  H14B21357   0.499   6.881   1.799 -0.0685  1.8977  0.3999
  186POPC  H14C21358   0.631   6.949   1.905 -0.2655 -1.2751  0.4332
  186POPC   C1521359   0.637   6.729   1.654 -0.4161  0.8552  0.3444
  186POPC  H15A21360   0.650   6.807   1.581  0.0821  0.1636 -0.3232
  186POPC  H15B21361   0.533   6.703   1.644  0.2597 -1.5279 -1.3125
  186POPC  H15C21362   0.694   6.639   1.637  1.4401  2.1799 -0.8788
  186POPC   C1121363   0.893   6.873   1.920 -0.2789  0.2915 -0.2293
  186POPC  H11A21364   0.835   6.966   1.941  1.7407  1.6376 -0.3833
  186POPC  H11B21365   0.992   6.916   1.896 -0.5504  1.6771  0.9672
  186POPC     P21366   1.008   6.673   2.034  0.1726 -0.1364 -0.0133
  186POPC   O1321367   1.114   6.688   1.929  0.5499 -0.0647 -0.4334
  186POPC   O1421368   0.944   6.540   2.029 -0.3864  0.0092 -0.2264
  186POPC   O1221369   0.897   6.781   2.033  0.8407  0.1974 -0.0746
  186POPC   O1121370   1.072   6.691   2.174 -0.7915  0.1794 -0.6353
  186POPC    C121371   1.071   6.817   2.241 -0.6714 -0.2992 -0.4689
  186POPC    HA21372   0.986   6.883   2.211 -0.7107 -0.0202  0.2352
  186POPC    HB21373   1.170   6.856   2.211  1.6230 -1.6282  4.4669
  186POPC    C221374   1.075   6.794   2.395 -0.0277 -0.0470 -0.2295
  186POPC    HS21375   1.125   6.699   2.425 -0.5196 -0.2961 -0.1828
  186POPC   O2121376   0.940   6.779   2.439 -0.8739 -0.8876  0.5720
  186POPC   C2121377   0.888   6.656   2.427 -0.0183 -0.8189  0.6613
  186POPC   O2221378   0.953   6.557   2.394 -0.2388  0.2320  0.6257
  186POPC   C2221379   0.736   6.650   2.457 -0.1378  0.2097  0.3365
  186POPC   H2R21380   0.683   6.639   2.360  1.7043  0.7958 -0.7778
  186POPC   H2S21381   0.724   6.751   2.503  3.4822  0.1814  1.6528
  186POPC    C321382   1.145   6.906   2.475 -0.8254 -0.9269 -0.0690
  186POPC    HX21383   1.099   7.007   2.466  0.4337 -0.2506  0.7841
  186POPC    HY21384   1.246   6.904   2.428 -0.3129  0.7409  0.8742
  186POPC   O3121385   1.164   6.873   2.617  0.0087 -0.2180  0.3512
  186POPC   C3121386   1.059   6.904   2.688 -0.0010 -0.3031 -0.5913
  186POPC   O3221387   0.958   6.967   2.652  0.4220 -0.2621  0.3120
  186POPC   C3221388   1.071   6.833   2.829  0.1605 -0.1559  0.8582
  186POPC   H2X21389   1.055   6.728   2.796 -1.8558  0.8518 -1.7311
  186POPC   H2Y21390   0.989   6.862   2.898 -0.8395 -1.6580  0.3490
  186POPC   C2321391   0.702   6.536   2.551  0.0723 -0.5525 -0.0338
  186POPC   H3R21392   0.728   6.441   2.500  0.2672  0.5816 -2.1728
  186POPC   H3S21393   0.593   6.535   2.575  0.4158 -2.7187  1.7540
  186POPC   C2421394   0.777   6.549   2.686 -0.5245 -0.9369 -0.2955
  186POPC   H4R21395   0.885   6.561   2.661 -0.7898  0.8477 -0.7530
  186POPC   H4S21396   0.776   6.462   2.754 -1.3058  1.5555  3.1537
  186POPC   C2521397   0.732   6.662   2.776  0.2988 -0.1636 -0.6485
  186POPC   H5R21398   0.744   6.752   2.713  1.7418 -0.9472 -1.5438
  186POPC   H5S21399   0.797   6.676   2.865  0.2902 -0.6424 -0.5623
  186POPC   C2621400   0.590   6.634   2.833 -0.0028 -0.4877 -0.6398
  186POPC   H6R21401   0.520   6.568   2.778 -1.0886 -0.5737  0.7909
  186POPC   H6S21402   0.541   6.732   2.855 -0.4918 -0.8804  0.0436
  186POPC   C2721403   0.604   6.549   2.961 -0.5057  0.3201 -0.3466
  186POPC   H7R21404   0.680   6.582   3.034  0.3646 -3.2400  0.5816
  186POPC   H7S21405   0.636   6.445   2.938 -0.6158  0.1963  0.0545
  186POPC   C2821406   0.473   6.544   3.038  0.7168 -0.6379  0.2881
  186POPC   H8R21407   0.399   6.493   2.973 -0.8542  2.7771 -0.8413
  186POPC   H8S21408   0.442   6.651   3.041  3.5821  0.4248 -2.4534
  186POPC   C2921409   0.493   6.483   3.172  0.5187  0.7254  0.5206
  186POPC   H9121410   0.490   6.373   3.173 -0.5082  0.7334  2.4312
  186POPC  C21021411   0.506   6.544   3.296 -0.0584  0.2569  0.2732
  186POPC  H10121412   0.518   6.489   3.390  0.6235  1.9417  1.2231
  186POPC  C21121413   0.511   6.695   3.315  0.3827 -0.0898  0.0631
  186POPC  H11R21414   0.432   6.743   3.376  1.7375  1.4024  0.7169
  186POPC  H11S21415   0.510   6.740   3.213  0.5695 -1.5006 -0.5751
  186POPC  C21221416   0.645   6.753   3.383  0.3197  0.2220 -0.3456
  186POPC  H12R21417   0.633   6.725   3.490 -2.3293  0.6683 -0.4586
  186POPC  H12S21418   0.643   6.864   3.378  1.0732  0.1938 -2.8311
  186POPC  C21321419   0.775   6.698   3.321 -0.2291 -0.2339  0.6465
  186POPC  H13R21420   0.760   6.690   3.212 -3.1505  0.2664  0.9280
  186POPC  H13S21421   0.792   6.593   3.354  3.3963 -0.3005 -0.9563
  186POPC  C21421422   0.909   6.770   3.356 -1.0878 -0.1161 -0.0603
  186POPC  H14R21423   0.889   6.877   3.335 -3.6974 -0.3839  0.7304
  186POPC  H14S21424   0.995   6.728   3.299 -0.6570 -1.2675  1.3949
  186POPC  C21521425   0.946   6.750   3.510 -0.3510  0.2652  0.1345
  186POPC  H15R21426   0.936   6.643   3.537 -2.1078 -0.5981 -3.3164
  186POPC  H15S21427   0.876   6.809   3.572 -1.8793 -2.4999  1.2187
  186POPC  C21621428   1.086   6.796   3.536  0.3174 -0.2982  0.4620
  186POPC  H16R21429   1.100   6.898   3.495 -1.1266 -0.6708 -1.0398
  186POPC  H16S21430   1.157   6.729   3.483 -0.3127  0.1989 -1.0504
  186POPC  C21721431   1.115   6.797   3.687  0.4028  0.5425 -0.4765
  186POPC  H17R21432   1.199   6.865   3.713 -1.7167  2.4771  1.7239
  186POPC  H17S21433   1.137   6.692   3.719  1.9680  0.9311 -0.1829
  186POPC  C21821434   1.004   6.841   3.792  0.1822 -0.3280  0.5221
  186POPC  H18R21435   0.983   6.949   3.775  0.2681 -0.4922 -0.6911
  186POPC  H18S21436   0.909   6.785   3.788 -1.3158  1.9373  2.0184
  186POPC  H18T21437   1.051   6.830   3.892 -2.2493 -1.0365  1.6670
  186POPC   C3321438   1.197   6.856   2.913 -0.1499 -0.1229  0.2351
  186POPC   H3X21439   1.200   6.964   2.937  0.4519  0.2116 -1.2437
  186POPC   H3Y21440   1.290   6.831   2.858 -0.7553 -1.8369 -0.1039
  186POPC   C3421441   1.210   6.773   3.036  0.1632 -0.8020  0.0070
  186POPC   H4X21442   1.222   6.665   3.015 -0.0616 -1.4384  2.7700
  186POPC   H4Y21443   1.114   6.797   3.089  0.8096 -0.4250  1.0411
  186POPC   C3521444   1.332   6.825   3.115  1.0948 -0.3372 -0.0304
  186POPC   H5X21445   1.316   6.928   3.154 -2.8884 -0.6314 -0.4895
  186POPC   H5Y21446   1.418   6.819   3.045  0.6956  2.1945 -0.8329
  186POPC   C3621447   1.344   6.742   3.235 -0.9858  0.3578 -0.5253
  186POPC   H6X21448   1.370   6.637   3.209  1.7216  1.4227 -2.5653
  186POPC   H6Y21449   1.256   6.751   3.301 -0.2841 -1.6381  0.7799
  186POPC   C3721450   1.461   6.783   3.326 -0.4323  0.4777  0.2063
  186POPC   H7X21451   1.460   6.890   3.358  2.6438  0.2934  1.2647
  186POPC   H7Y21452   1.552   6.779   3.263 -0.9556  2.3283 -0.7440
  186POPC   C3821453   1.478   6.690   3.445  0.2962 -0.5130  0.3057
  186POPC   H8X21454   1.507   6.586   3.418  1.2536 -0.2711  0.3695
  186POPC   H8Y21455   1.390   6.685   3.511 -1.0293 -0.4920 -1.3941
  186POPC   C3921456   1.597   6.725   3.529  0.0725 -0.4463  0.8888
  186POPC   H9X21457   1.579   6.830   3.561  1.2873 -0.1431  0.6072
  186POPC   H9Y21458   1.683   6.725   3.459 -1.8626 -0.5082 -1.6396
  186POPC  C31021459   1.618   6.634   3.654  0.0201 -0.2319  0.7029
  186POPC  H10X21460   1.652   6.532   3.625  1.7910  0.2777  0.8736
  186POPC  H10Y21461   1.528   6.637   3.719 -0.9877  0.8653 -0.6466
  186POPC  C31121462   1.747   6.675   3.736  0.3757  0.2592 -0.5607
  186POPC  H11X21463   1.750   6.777   3.781 -0.3205 -0.0593  0.2471
  186POPC  H11Y21464   1.835   6.663   3.671  1.2135  0.9747  0.4048
  186POPC  C31221465   1.776   6.578   3.856  0.0511  0.4522 -0.9212
  186POPC  H12X21466   1.886   6.578   3.872 -0.0434  0.0175 -0.1901
  186POPC  H12Y21467   1.760   6.471   3.832 -0.3224  0.3881 -0.4000
  186POPC  C31321468   1.705   6.618   3.986 -0.4125  0.5200  0.4866
  186POPC  H13X21469   1.596   6.626   3.963 -1.0345 -0.8757  2.6787
  186POPC  H13Y21470   1.731   6.718   4.026  1.0347 -0.2677  1.6040
  186POPC  C31421471   1.721   6.525   4.099 -0.1691  0.0854  0.6772
  186POPC  H14X21472   1.823   6.532   4.143  0.0666 -1.7152  0.4858
  186POPC  H14Y21473   1.712   6.421   4.062 -0.5353  0.4984 -0.4544
  186POPC  C31521474   1.615   6.545   4.201  0.2053  0.5842  0.0617
  186POPC  H15X21475   1.518   6.531   4.149 -0.3440 -0.2260  1.2688
  186POPC  H15Y21476   1.615   6.651   4.234 -0.7769  0.4529  0.5207
  186POPC  C31621477   1.626   6.444   4.318 -0.1464 -0.4201  0.2755
  186POPC  H16X21478   1.635   6.344   4.271 -1.8801 -0.6047  0.2797
  186POPC  H16Y21479   1.540   6.454   4.388 -1.5074  1.5530 -1.5492
  186POPC  H16Z21480   1.726   6.471   4.360  0.4275 -0.2555 -1.1631
  187POPC     N21481   0.199   2.633   1.650 -0.1547  0.4595  0.1483
  187POPC   C1221482   0.173   2.777   1.669 -0.4640 -0.6452 -0.0893
  187POPC  H12A21483   0.066   2.793   1.675 -0.7759 -2.8143  0.9508
  187POPC  H12B21484   0.207   2.826   1.579  2.5182  1.9992  2.2578
  187POPC   C1321485   0.102   2.574   1.557 -0.1965  0.3337  0.8869
  187POPC  H13A21486   0.094   2.637   1.470  1.1200 -1.5169 -0.6369
  187POPC  H13B21487   0.114   2.468   1.541  2.6053  0.4174  1.9841
  187POPC  H13C21488   0.005   2.570   1.604 -0.8023 -0.6993 -0.3888
  187POPC   C1421489   0.343   2.609   1.601  0.0471 -0.7311  0.0939
  187POPC  H14A21490   0.353   2.655   1.503 -0.8346 -1.0229 -0.1498
  187POPC  H14B21491   0.415   2.646   1.671 -0.5809 -0.8525  0.8182
  187POPC  H14C21492   0.353   2.504   1.582  1.2366 -0.4000 -1.2449
  187POPC   C1521493   0.197   2.562   1.776 -0.1229  0.1811  0.6004
  187POPC  H15A21494   0.257   2.621   1.844  0.5836 -0.2890  0.3966
  187POPC  H15B21495   0.237   2.462   1.769 -0.6822  0.0472 -1.0659
  187POPC  H15C21496   0.100   2.563   1.823 -0.1771  1.1232  0.4860
  187POPC   C1121497   0.242   2.850   1.790  0.3400  0.3110  0.2357
  187POPC  H11A21498   0.232   2.960   1.776 -0.4925  0.0599 -1.2523
  187POPC  H11B21499   0.352   2.835   1.782  0.2217 -0.0495 -0.9073
  187POPC     P21500   0.081   2.887   2.001  0.1465 -0.0381 -0.2005
  187POPC   O1321501  -0.043   2.890   1.920  0.3565 -0.0624 -0.0629
  187POPC   O1421502   0.141   3.013   2.038 -0.5904 -0.1844 -0.1158
  187POPC   O1221503   0.186   2.803   1.917  0.0871 -0.0342 -0.7556
  187POPC   O1121504   0.035   2.806   2.135  0.8521  0.1190 -0.2640
  187POPC    C121505   0.039   2.661   2.151  0.0666 -0.5678  0.1573
  187POPC    HA21506   0.100   2.617   2.069 -0.2364  1.4240 -1.2298
  187POPC    HB21507  -0.062   2.618   2.140 -0.6204  1.1985 -0.9103
  187POPC    C221508   0.114   2.608   2.280  0.2844  0.1564  0.0082
  187POPC    HS21509   0.129   2.499   2.273 -1.9049 -0.2036  0.0516
  187POPC   O2121510   0.035   2.637   2.397 -0.1475  0.0223 -0.1816
  187POPC   C2121511  -0.061   2.557   2.417 -0.3428  0.0406  0.7104
  187POPC   O2221512  -0.093   2.460   2.352  0.5216  0.2405 -0.5650
  187POPC   C2221513  -0.117   2.597   2.553 -0.3355  0.0033 -0.5662
  187POPC   H2R21514  -0.197   2.520   2.564 -1.6586  1.4670  0.4151
  187POPC   H2S21515  -0.165   2.697   2.549 -0.3110 -0.0219 -1.5791
  187POPC    C321516   0.256   2.671   2.302  0.2461 -0.1191 -0.7869
  187POPC    HX21517   0.248   2.781   2.313  3.2552  0.0965  0.2029
  187POPC    HY21518   0.317   2.659   2.209  1.6456  2.6034 -0.3215
  187POPC   O3121519   0.327   2.606   2.411 -0.2071  0.3115 -0.2419
  187POPC   C3121520   0.340   2.683   2.522 -0.0289  0.6414  0.1272
  187POPC   O3221521   0.311   2.798   2.530  0.2190 -0.7714 -0.3068
  187POPC   C3221522   0.386   2.589   2.636  0.0426 -1.0692  0.4458
  187POPC   H2X21523   0.474   2.530   2.602  2.0078  0.0682  3.1905
  187POPC   H2Y21524   0.300   2.531   2.677  0.3679 -0.7632  1.6067
  187POPC   C2321525  -0.012   2.589   2.674  0.7137  0.2360  0.7238
  187POPC   H3R21526   0.062   2.671   2.661  1.9107 -0.6038  1.9638
  187POPC   H3S21527   0.038   2.490   2.666 -1.1041 -0.6044 -1.4056
  187POPC   C2421528  -0.091   2.592   2.808  0.4928 -0.3886  0.2467
  187POPC   H4R21529  -0.179   2.527   2.792  2.6684 -4.0259  1.7283
  187POPC   H4S21530  -0.128   2.694   2.835 -2.3128 -1.5616  1.1587
  187POPC   C2521531  -0.014   2.534   2.933 -0.1330  0.1550  0.7280
  187POPC   H5R21532   0.086   2.582   2.926 -0.9481  1.9788  1.1814
  187POPC   H5S21533  -0.008   2.424   2.917 -0.4745  0.3303 -0.7223
  187POPC   C2621534  -0.089   2.550   3.062  0.4742  0.1163 -0.4017
  187POPC   H6R21535  -0.195   2.517   3.056  0.4355  0.0474  0.4777
  187POPC   H6S21536  -0.097   2.658   3.089 -0.8412 -0.2855  0.9890
  187POPC   C2721537  -0.017   2.480   3.176 -0.0654  0.8326 -0.4427
  187POPC   H7R21538  -0.014   2.373   3.146 -0.8268  0.1449  1.7297
  187POPC   H7S21539  -0.086   2.469   3.262 -1.3150  0.7773 -1.4214
  187POPC   C2821540   0.115   2.536   3.210 -0.9167 -0.5993 -0.5374
  187POPC   H8R21541   0.100   2.645   3.225 -1.0819 -0.5715 -0.9143
  187POPC   H8S21542   0.184   2.526   3.124  1.8598 -3.1383  1.7381
  187POPC   C2921543   0.174   2.463   3.329 -0.6073 -0.0502  0.1827
  187POPC   H9121544   0.150   2.356   3.335 -1.5874  0.0403 -1.3226
  187POPC  C21021545   0.240   2.516   3.436 -0.1537 -0.4471 -0.1438
  187POPC  H10121546   0.279   2.453   3.517 -0.6125  0.4341  0.7770
  187POPC  C21121547   0.279   2.665   3.455  1.1123 -0.1922 -0.2620
  187POPC  H11R21548   0.257   2.730   3.367 -1.3047  3.5000  2.7372
  187POPC  H11S21549   0.384   2.669   3.491  0.6732  0.2738  1.0189
  187POPC  C21221550   0.197   2.729   3.570  0.1899 -0.2177  0.8798
  187POPC  H12R21551   0.089   2.725   3.543  0.5207  1.6336 -1.0537
  187POPC  H12S21552   0.220   2.838   3.565  1.8457 -0.6007 -1.2690
  187POPC  C21321553   0.227   2.685   3.712  0.0998 -0.3106  0.1960
  187POPC  H13R21554   0.334   2.667   3.732  0.1093  0.9382  1.4747
  187POPC  H13S21555   0.178   2.585   3.717 -0.6370  0.0883  1.8925
  187POPC  C21421556   0.172   2.783   3.819  0.3558 -0.5133 -0.0701
  187POPC  H14R21557   0.065   2.792   3.789 -0.3400 -2.4942  1.6115
  187POPC  H14S21558   0.230   2.877   3.805  1.9190 -1.0999  2.0133
  187POPC  C21521559   0.178   2.728   3.960 -0.2416 -0.4476 -0.3624
  187POPC  H15R21560   0.286   2.709   3.981 -0.0033  0.5420 -0.6271
  187POPC  H15S21561   0.131   2.629   3.980 -0.1646 -0.3985  0.0756
  187POPC  C21621562   0.145   2.830   4.074  0.9866 -0.5412 -0.7209
  187POPC  H16R21563   0.034   2.831   4.069  0.8930  0.2692  0.7946
  187POPC  H16S21564   0.175   2.935   4.052 -1.9461  0.4787 -0.2851
  187POPC  C21721565   0.201   2.795   4.207 -0.2220 -0.4376  0.1410
  187POPC  H17R21566   0.308   2.818   4.188 -0.2539 -0.1059  0.3546
  187POPC  H17S21567   0.182   2.689   4.232 -1.0701 -0.2850  0.1827
  187POPC  C21821568   0.140   2.885   4.317 -0.0290  0.0878  0.1745
  187POPC  H18R21569   0.144   2.992   4.287  3.2623 -0.3859 -1.5730
  187POPC  H18S21570   0.183   2.880   4.419 -0.8595 -2.3331  0.4652
  187POPC  H18T21571   0.030   2.874   4.320 -0.1875  1.1521 -0.8492
  187POPC   C3321572   0.431   2.666   2.758 -0.4673  0.0906  0.6742
  187POPC   H3X21573   0.399   2.609   2.848 -0.1743  2.3610  2.3326
  187POPC   H3Y21574   0.379   2.764   2.767  1.7554  1.5534 -1.2827
  187POPC   C3421575   0.585   2.697   2.755 -0.4650  0.4798 -0.5577
  187POPC   H4X21576   0.597   2.790   2.695 -0.7642  2.0161  1.6598
  187POPC   H4Y21577   0.644   2.613   2.711  3.2904  2.8246 -0.4511
  187POPC   C3521578   0.651   2.729   2.892 -0.1532  0.1874  0.3166
  187POPC   H5X21579   0.754   2.765   2.871 -0.0465 -0.4474 -0.2914
  187POPC   H5Y21580   0.652   2.634   2.950 -0.3127  0.1636  0.2799
  187POPC   C3621581   0.567   2.832   2.977 -0.6239  0.1631 -0.5720
  187POPC   H6X21582   0.467   2.784   2.981 -0.3074 -0.4736  2.2555
  187POPC   H6Y21583   0.554   2.932   2.932 -2.2978  0.1077 -0.2764
  187POPC   C3721584   0.621   2.854   3.123 -0.0103  0.3128  0.5973
  187POPC   H7X21585   0.704   2.924   3.102 -1.4376  1.3126 -2.3016
  187POPC   H7Y21586   0.650   2.756   3.168 -2.8703 -1.1721 -0.4761
  187POPC   C3821587   0.513   2.920   3.215 -0.9574  0.4301 -0.2776
  187POPC   H8X21588   0.443   2.837   3.239  0.1708 -0.8679 -1.2493
  187POPC   H8Y21589   0.466   3.009   3.169  0.5756  1.1434 -0.5158
  187POPC   C3921590   0.574   2.965   3.352 -0.4568  0.1412  0.1368
  187POPC   H9X21591   0.669   3.021   3.347 -0.2710 -0.2462 -0.9278
  187POPC   H9Y21592   0.604   2.866   3.393  0.8281  0.9993  1.3682
  187POPC  C31021593   0.474   3.026   3.447 -0.4467  0.7101  0.5954
  187POPC  H10X21594   0.373   2.982   3.436  0.2508 -0.4889 -1.4057
  187POPC  H10Y21595   0.459   3.131   3.414  2.1667  0.7195 -0.7940
  187POPC  C31121596   0.516   3.026   3.592 -0.6592 -0.0234 -0.6705
  187POPC  H11X21597   0.621   3.059   3.607 -0.3811 -0.8990 -0.6067
  187POPC  H11Y21598   0.513   2.928   3.644 -1.2570  1.1971  1.7635
  187POPC  C31221599   0.437   3.131   3.676  0.0770 -0.4015 -0.5772
  187POPC  H12X21600   0.329   3.105   3.675 -0.0926  0.2912 -1.9403
  187POPC  H12Y21601   0.454   3.228   3.624  0.6092 -0.7975 -1.1433
  187POPC  C31321602   0.490   3.145   3.817  0.2109  0.7892  0.0962
  187POPC  H13X21603   0.451   3.238   3.863  1.0798  0.6757  1.0917
  187POPC  H13Y21604   0.600   3.134   3.811  0.1962 -1.2457  2.2289
  187POPC  C31421605   0.449   3.029   3.904 -0.2452 -0.1302  0.0864
  187POPC  H14X21606   0.460   2.927   3.862 -3.2459 -0.3261 -0.4098
  187POPC  H14Y21607   0.339   3.040   3.915 -0.1290  0.7751  0.3965
  187POPC  C31521608   0.499   3.041   4.051 -0.2899 -0.0888 -0.3124
  187POPC  H15X21609   0.459   2.953   4.106  2.0923  0.4451  2.4531
  187POPC  H15Y21610   0.452   3.135   4.087  0.2899  0.8180 -1.7832
  187POPC  C31621611   0.653   3.039   4.075 -0.1694 -0.2352  0.5488
  187POPC  H16X21612   0.699   2.944   4.041  1.7074  1.1504 -1.0095
  187POPC  H16Y21613   0.672   3.056   4.183 -0.8443  0.3901  0.5820
  187POPC  H16Z21614   0.698   3.123   4.019  0.8378 -2.0074 -1.4303
  188POPC     N21615   4.470   5.702   1.958  0.2805 -0.1464 -0.5606
  188POPC   C1221616   4.363   5.710   2.069 -0.2446 -0.3752 -0.6273
  188POPC  H12A21617   4.368   5.624   2.134  1.5158  2.3453  3.2441
  188POPC  H12B21618   4.272   5.730   2.015  1.5412 -0.2977 -3.8371
  188POPC   C1321619   4.448   5.579   1.874 -0.2856  0.9528 -0.0293
  188POPC  H13A21620   4.520   5.570   1.793  0.0518 -3.7105  0.5010
  188POPC  H13B21621   4.454   5.495   1.941 -0.7284  0.8849 -0.0750
  188POPC  H13C21622   4.353   5.580   1.823  0.9723  0.1814 -2.5774
  188POPC   C1421623   4.446   5.818   1.868 -0.5744  0.4137 -0.3221
  188POPC  H14A21624   4.437   5.908   1.926  2.1330  1.1961 -0.9675
  188POPC  H14B21625   4.532   5.828   1.802  0.1263 -3.2382 -0.1553
  188POPC  H14C21626   4.356   5.799   1.812 -1.0190 -1.7856  1.0237
  188POPC   C1521627   4.605   5.706   2.023  0.4239  0.4502 -0.2518
  188POPC  H15A21628   4.628   5.809   2.047  0.9930 -0.2069  2.3330
  188POPC  H15B21629   4.684   5.654   1.972  0.5974  0.1490  0.3088
  188POPC  H15C21630   4.596   5.653   2.117  0.3683 -0.6684 -0.8711
  188POPC   C1121631   4.364   5.830   2.164  0.8138 -0.3174 -0.1635
  188POPC  H11A21632   4.470   5.849   2.189  1.3574 -0.4286 -2.2009
  188POPC  H11B21633   4.304   5.812   2.256 -2.2606  0.3811 -1.8759
  188POPC     P21634   4.163   5.968   2.077  0.0208 -0.1806 -0.1359
  188POPC   O1321635   4.105   5.834   2.041 -0.5531  0.1503 -0.1505
  188POPC   O1421636   4.139   6.073   1.977 -0.5091 -0.0524 -0.8310
  188POPC   O1221637   4.319   5.949   2.092  0.0894  0.0941  0.4475
  188POPC   O1121638   4.102   6.007   2.212  0.3459 -0.0984  0.1740
  188POPC    C121639   4.131   6.121   2.286  0.3445  0.0260  0.1239
  188POPC    HA21640   4.154   6.214   2.231  0.8782  0.8118  1.6115
  188POPC    HB21641   4.223   6.099   2.345 -0.2957  0.6179  1.3915
  188POPC    C221642   4.017   6.159   2.388 -0.3969 -0.1208 -0.0014
  188POPC    HS21643   4.058   6.243   2.447  1.1025  1.0756 -2.5802
  188POPC   O2121644   3.977   6.050   2.472  0.1386  0.4240  0.3233
  188POPC   C2121645   4.071   6.005   2.547  0.3069  0.1221  0.7828
  188POPC   O2221646   4.185   6.046   2.570 -0.3971 -0.4005  0.0781
  188POPC   C2221647   4.009   5.872   2.599  0.1512 -0.0021  0.1257
  188POPC   H2R21648   4.070   5.830   2.681  0.5495 -1.0176 -0.6683
  188POPC   H2S21649   4.000   5.799   2.515 -2.1261 -0.2666  0.5160
  188POPC    C321650   3.898   6.200   2.308  0.0673 -0.0444 -0.3688
  188POPC    HX21651   3.868   6.132   2.226  2.1223  0.4485 -1.6015
  188POPC    HY21652   3.922   6.290   2.247 -1.7930  0.2128 -0.7938
  188POPC   O3121653   3.785   6.233   2.402  0.0463  0.0045 -0.2945
  188POPC   C3121654   3.694   6.137   2.418  0.1956  0.1803 -0.0399
  188POPC   O3221655   3.697   6.027   2.372  0.3867  0.6464  0.2518
  188POPC   C3221656   3.575   6.200   2.497  0.7170 -0.2081  0.2481
  188POPC   H2X21657   3.485   6.152   2.453  0.3761 -0.6711  1.3884
  188POPC   H2Y21658   3.561   6.310   2.494 -0.2830 -0.3275  0.1054
  188POPC   C2321659   3.866   5.891   2.650 -0.1268  0.0406 -0.0598
  188POPC   H3R21660   3.832   5.786   2.662  0.5126  0.0424  2.0131
  188POPC   H3S21661   3.802   5.950   2.581 -0.9819 -0.5002  0.2456
  188POPC   C2421662   3.852   5.979   2.775  0.4344 -0.4056  0.7144
  188POPC   H4R21663   3.745   6.008   2.789  0.5956  0.8257 -0.4460
  188POPC   H4S21664   3.911   6.072   2.757 -0.7043  0.1458 -0.3698
  188POPC   C2521665   3.909   5.914   2.895 -0.3732  0.1980  0.2306
  188POPC   H5R21666   4.004   5.861   2.874 -1.3172 -0.7627 -1.9420
  188POPC   H5S21667   3.832   5.838   2.922  0.6634 -0.3657  1.7442
  188POPC   C2621668   3.928   6.009   3.012 -0.4264  1.0295  0.9736
  188POPC   H6R21669   3.863   6.097   2.991 -0.4954  0.6781 -0.4102
  188POPC   H6S21670   4.030   6.051   3.006 -0.8343  1.8569 -1.7930
  188POPC   C2721671   3.890   5.952   3.149  0.6882  0.0388  1.0642
  188POPC   H7R21672   3.933   5.850   3.158  0.9199 -0.1168 -1.2810
  188POPC   H7S21673   3.781   5.931   3.146  0.7166 -0.0052 -0.0128
  188POPC   C2821674   3.927   6.027   3.274 -0.2172  0.0927  0.1445
  188POPC   H8R21675   3.861   5.997   3.358  0.8868  1.3502  1.5287
  188POPC   H8S21676   3.897   6.132   3.255 -2.2195 -0.6621 -1.1943
  188POPC   C2921677   4.077   6.018   3.317  0.6629 -0.8277  0.3391
  188POPC   H9121678   4.137   5.950   3.255 -0.2433  0.1390 -1.6786
  188POPC  C21021679   4.148   6.076   3.414  0.2843 -0.1133  0.1238
  188POPC  H10121680   4.255   6.050   3.425 -0.1670 -2.5055 -0.5164
  188POPC  C21121681   4.089   6.173   3.512  0.7377 -0.1282  0.5359
  188POPC  H11R21682   3.979   6.160   3.523  0.3329  2.1502 -0.1890
  188POPC  H11S21683   4.118   6.274   3.476 -0.0014 -0.5703 -1.4314
  188POPC  C21221684   4.139   6.161   3.658  0.5513  0.0358  0.2440
  188POPC  H12R21685   4.095   6.247   3.715 -1.2583 -0.0901 -0.8917
  188POPC  H12S21686   4.250   6.163   3.663  0.5445  0.8264  4.3373
  188POPC  C21321687   4.110   6.029   3.733 -0.5646  0.7453  0.6693
  188POPC  H13R21688   4.151   5.949   3.668 -0.8067  0.5665  0.7387
  188POPC  H13S21689   4.000   6.016   3.739 -0.4641  0.0232  0.9849
  188POPC  C21421690   4.185   6.026   3.867 -0.1101 -0.0879  0.1845
  188POPC  H14R21691   4.153   6.125   3.907  0.7557  0.2884 -0.0155
  188POPC  H14S21692   4.292   6.053   3.848 -0.4325  0.4234 -0.9986
  188POPC  C21521693   4.157   5.899   3.942 -0.0036  0.3519  0.0611
  188POPC  H15R21694   4.050   5.870   3.932  0.1519 -0.2022 -0.0403
  188POPC  H15S21695   4.172   5.895   4.052  1.7964 -4.3548 -0.1175
  188POPC  C21621696   4.251   5.791   3.884 -0.4097  0.0982 -0.1738
  188POPC  H16R21697   4.358   5.815   3.899  0.0514 -1.0444 -1.3975
  188POPC  H16S21698   4.218   5.773   3.779 -0.0519 -1.5195 -0.0276
  188POPC  C21721699   4.222   5.659   3.955  1.1216 -0.5745 -0.8344
  188POPC  H17R21700   4.118   5.623   3.948  0.4149  1.6323 -3.3888
  188POPC  H17S21701   4.241   5.693   4.059 -0.3622  1.2348 -1.0960
  188POPC  C21821702   4.323   5.546   3.920  0.7872  0.8787  0.2986
  188POPC  H18R21703   4.426   5.586   3.911  1.2321 -0.4180 -0.6286
  188POPC  H18S21704   4.296   5.506   3.820  0.4113  2.0524 -0.0947
  188POPC  H18T21705   4.330   5.474   4.004  0.0064  0.4348 -0.0027
  188POPC   C3321706   3.559   6.150   2.647  0.3134  0.3128 -0.1903
  188POPC   H3X21707   3.626   6.217   2.704  1.1848 -1.6687  1.2571
  188POPC   H3Y21708   3.596   6.045   2.647 -0.9299 -0.1536  1.1410
  188POPC   C3421709   3.414   6.148   2.702 -1.0379 -0.1911  0.2230
  188POPC   H4X21710   3.350   6.100   2.625 -0.9786 -0.5932  0.4209
  188POPC   H4Y21711   3.389   6.256   2.715 -1.5600 -0.4112  1.0958
  188POPC   C3521712   3.406   6.079   2.839 -0.0449  0.1148  0.6327
  188POPC   H5X21713   3.443   5.974   2.844  2.7370  1.0660  2.7367
  188POPC   H5Y21714   3.298   6.065   2.863  0.0166 -0.5016  0.5654
  188POPC   C3621715   3.476   6.145   2.962 -0.1805  0.6591  0.8041
  188POPC   H6X21716   3.444   6.252   2.959  1.0141  1.0117 -0.1086
  188POPC   H6Y21717   3.585   6.145   2.942  0.0639 -0.0100  2.0282
  188POPC   C3721718   3.449   6.084   3.096  0.0644 -0.3048 -0.6119
  188POPC   H7X21719   3.468   5.975   3.088  1.6708  0.0560 -2.2553
  188POPC   H7Y21720   3.345   6.083   3.134  1.3690 -2.0559  3.6574
  188POPC   C3821721   3.533   6.152   3.210 -0.2480  0.1302  0.0171
  188POPC   H8X21722   3.500   6.258   3.216  0.7234  0.3584  2.2661
  188POPC   H8Y21723   3.641   6.139   3.185 -1.0591 -1.2609 -3.4068
  188POPC   C3921724   3.510   6.071   3.348  0.2707 -0.2229 -0.1784
  188POPC   H9X21725   3.545   5.966   3.349 -1.4554 -0.9260 -3.0561
  188POPC   H9Y21726   3.400   6.060   3.352  0.3170 -1.0785  4.4378
  188POPC  C31021727   3.549   6.140   3.477 -0.4200 -0.1922 -0.1022
  188POPC  H10X21728   3.659   6.153   3.482 -0.4001  0.2002 -1.2335
  188POPC  H10Y21729   3.515   6.070   3.556 -2.1722 -0.9103 -1.4089
  188POPC  C31121730   3.479   6.270   3.494 -0.0827 -0.0656 -0.0560
  188POPC  H11X21731   3.373   6.238   3.495  0.5158 -2.2802  0.9548
  188POPC  H11Y21732   3.481   6.334   3.404  0.2023 -0.4680 -0.3395
  188POPC  C31221733   3.508   6.346   3.625  0.1073 -0.4716 -1.0147
  188POPC  H12X21734   3.462   6.447   3.623 -1.1909 -1.0275 -0.5672
  188POPC  H12Y21735   3.619   6.354   3.630  0.0998 -0.9521  0.3100
  188POPC  C31321736   3.453   6.273   3.756  0.2060  0.6195  0.2012
  188POPC  H13X21737   3.497   6.173   3.774 -0.4164  0.5166  1.1835
  188POPC  H13Y21738   3.344   6.252   3.750  0.3697 -0.4048  0.7118
  188POPC  C31421739   3.480   6.352   3.882  0.6941  0.0074  0.1508
  188POPC  H14X21740   3.444   6.456   3.891 -1.7036 -0.3641 -3.2019
  188POPC  H14Y21741   3.591   6.348   3.894  0.6469 -1.4506  0.2748
  188POPC  C31521742   3.424   6.282   4.008  0.0547  0.4219 -0.4433
  188POPC  H15X21743   3.445   6.173   3.998  0.9920  0.4274  1.0820
  188POPC  H15Y21744   3.314   6.292   3.999  0.0959 -0.0890 -1.8485
  188POPC  C31621745   3.472   6.346   4.137 -0.4835  0.3976 -0.4927
  188POPC  H16X21746   3.408   6.321   4.224 -0.5315  1.5263 -0.2007
  188POPC  H16Y21747   3.484   6.455   4.125 -2.0704  0.8041  1.1211
  188POPC  H16Z21748   3.569   6.307   4.175 -1.8344 -2.2298  0.5393
  189SAPI   C1221749   0.768   6.680   6.568  0.7726  0.0881 -0.8359
  189SAPI    H221750   0.827   6.585   6.565 -0.8117 -0.9598 -0.3140
  189SAPI    O221751   0.749   6.709   6.434 -0.1102 -0.1821 -0.0111
  189SAPI   HO221752   0.816   6.672   6.376  0.0070  1.6272 -1.1258
  189SAPI   C1321753   0.640   6.645   6.636  0.5947  0.1719  0.6187
  189SAPI    H321754   0.672   6.591   6.728 -2.6432 -1.7318  0.7991
  189SAPI    O321755   0.564   6.548   6.571  0.2562  0.6308  0.6378
  189SAPI   HO321756   0.508   6.591   6.505 -0.6621  1.1327  1.6974
  189SAPI   C1421757   0.557   6.768   6.677 -0.3012  0.3449 -0.0197
  189SAPI    H421758   0.500   6.796   6.586  0.6524  0.4021 -0.6158
  189SAPI    O421759   0.452   6.736   6.772  0.0711 -0.2124  0.3231
  189SAPI   HO421760   0.391   6.809   6.759  0.5838 -0.0716 -1.7271
  189SAPI   C1521761   0.628   6.898   6.713  0.7153  0.2720 -0.1645
  189SAPI    H521762   0.633   6.882   6.823  0.3543 -0.3690 -0.2405
  189SAPI    O521763   0.549   7.019   6.685 -0.1544 -0.2415 -0.5935
  189SAPI   HO521764   0.613   7.088   6.669 -0.3441 -0.5093 -2.8357
  189SAPI   C1621765   0.767   6.913   6.660 -0.4069 -0.6732 -0.2175
  189SAPI    H621766   0.765   6.961   6.559  0.0267 -1.3010 -0.5299
  189SAPI    O621767   0.839   7.010   6.745 -0.5964 -0.5711  0.0532
  189SAPI   HO621768   0.830   7.102   6.719 -0.9216 -0.2718  1.1924
  189SAPI   C1121769   0.841   6.783   6.645 -0.6945  0.0662  0.0571
  189SAPI    H121770   0.843   6.742   6.748 -0.1943  0.6680  0.2974
  189SAPI     P21771   1.094   6.694   6.606  0.3492 -0.3926  0.0617
  189SAPI   O1321772   1.052   6.601   6.715 -0.6041 -0.3145 -0.3169
  189SAPI   O1421773   1.217   6.773   6.616  0.6300 -0.3528 -0.3439
  189SAPI   O1221774   0.975   6.802   6.592  0.5911  0.0723  0.0895
  189SAPI   O1121775   1.084   6.630   6.465 -0.5364  0.1557  0.0858
  189SAPI    C121776   1.159   6.683   6.358 -0.5257  0.1063  0.6153
  189SAPI    HA21777   1.182   6.792   6.364  0.0509  0.1062 -1.1908
  189SAPI    HB21778   1.250   6.623   6.338  0.2086  1.8914 -1.9057
  189SAPI    C221779   1.076   6.672   6.228  0.1286  0.3219  0.1786
  189SAPI    HS21780   0.986   6.732   6.251  1.0426  2.8236 -2.3071
  189SAPI   O2121781   1.060   6.530   6.210  0.2275  0.2022 -0.3967
  189SAPI   C2121782   0.933   6.496   6.190  0.4528 -0.0584  0.1644
  189SAPI   O2221783   0.839   6.574   6.205  0.6543 -0.9392  0.0302
  189SAPI   C2221784   0.930   6.357   6.143 -0.2513  0.3423  0.9618
  189SAPI   H2R21785   1.032   6.314   6.136 -1.3933 -2.4084 -0.7180
  189SAPI   H2S21786   0.882   6.301   6.226 -0.1332 -2.4134 -0.7096
  189SAPI    C321787   1.139   6.737   6.105 -0.8113 -0.1357 -0.6646
  189SAPI    HX21788   1.249   6.729   6.108 -0.8102 -0.0174  2.3803
  189SAPI    HY21789   1.102   6.842   6.105 -1.8535 -0.3743  2.7581
  189SAPI   O3121790   1.077   6.692   5.984 -0.2551  0.0300  0.0740
  189SAPI   C3121791   1.156   6.655   5.885  0.4443 -0.2839 -0.1240
  189SAPI   O3221792   1.276   6.664   5.877 -0.0952 -0.3498  0.1793
  189SAPI   C3221793   1.064   6.585   5.782  0.4189 -0.4840 -0.0711
  189SAPI   H2X21794   0.960   6.621   5.797  0.7913  2.2669 -3.1534
  189SAPI   H2Y21795   1.075   6.476   5.803 -0.0625 -0.2482  1.5440
  189SAPI   C2321796   0.840   6.331   6.025 -0.1601  0.1640 -0.6505
  189SAPI   H3R21797   0.842   6.418   5.955  0.5704  1.7481  1.2677
  189SAPI   H3S21798   0.736   6.340   6.064  0.2987 -0.1048  0.6823
  189SAPI   C2421799   0.867   6.186   5.959  0.1217  0.3657  0.0438
  189SAPI   H4R21800   0.787   6.169   5.884  0.2731  0.2083 -0.0829
  189SAPI   H4S21801   0.851   6.109   6.038  0.5228  0.6262  0.3892
  189SAPI   C2521802   1.007   6.159   5.888 -0.2506 -0.0776 -0.0737
  189SAPI   H5R21803   1.088   6.126   5.955  1.2195  1.2482 -1.1185
  189SAPI   C2621804   1.043   6.137   5.759 -0.4019  0.3460  1.0844
  189SAPI   H6R21805   1.149   6.129   5.733  0.2378 -0.5521  3.7034
  189SAPI   C2721806   0.959   6.168   5.636 -0.0338  0.3625 -0.2880
  189SAPI   H7R21807   1.013   6.242   5.572  0.7402 -1.1815 -1.4862
  189SAPI   H7S21808   0.861   6.191   5.682  0.8612 -1.2591  2.7393
  189SAPI   C2821809   0.935   6.036   5.553 -0.0174  0.1539  0.0154
  189SAPI   H8R21810   0.859   5.968   5.594  0.7869 -0.2263  0.9498
  189SAPI   C2921811   1.002   5.992   5.443 -0.8427  0.7098 -0.5257
  189SAPI   H9R21812   0.966   5.897   5.400 -1.1856  0.9528 -0.7767
  189SAPI  C21021813   1.114   6.060   5.368 -0.1058 -0.4087 -0.1612
  189SAPI  H10R21814   1.160   6.142   5.428  0.9093 -0.2159 -1.1638
  189SAPI  H10S21815   1.085   6.106   5.271 -2.5010  0.9726  1.1030
  189SAPI  C21121816   1.226   5.968   5.349  0.2636  0.0094  0.1474
  189SAPI  H11R21817   1.223   5.868   5.395  1.1712  0.7198  1.8266
  189SAPI  C21221818   1.328   5.997   5.262 -0.4527  0.0936 -0.0745
  189SAPI  H12R21819   1.408   5.927   5.235  1.0780  0.9842  1.9066
  189SAPI  C21321820   1.339   6.131   5.194 -0.1619 -0.6529 -0.2114
  189SAPI  H13R21821   1.283   6.207   5.253 -0.3750 -2.2629  1.7592
  189SAPI  H13S21822   1.290   6.120   5.095 -1.9125  1.6399  0.3077
  189SAPI  C21421823   1.487   6.177   5.189  0.5930 -0.4021 -0.0999
  189SAPI  H14R21824   1.537   6.202   5.284  1.9056 -1.3222 -0.5284
  189SAPI  C21521825   1.558   6.172   5.077  0.1839  0.1700 -0.5609
  189SAPI  H15R21826   1.659   6.215   5.079  0.7367 -1.0711  1.8364
  189SAPI  C21621827   1.505   6.138   4.937 -0.1758  1.0534  0.0168
  189SAPI  H16R21828   1.482   6.228   4.877  0.8720  2.2708  1.3684
  189SAPI  H16S21829   1.409   6.081   4.940  1.4888 -1.9750 -0.6867
  189SAPI  C21721830   1.602   6.039   4.865 -0.0910 -0.4235 -0.4027
  189SAPI  H17R21831   1.578   5.939   4.908 -3.2123  0.7260  0.7821
  189SAPI  H17S21832   1.710   6.065   4.878 -0.5219  1.3119 -0.0953
  189SAPI  C21821833   1.567   6.035   4.716 -0.4246  0.0739  0.6477
  189SAPI  H18R21834   1.550   6.139   4.679  0.8547 -0.1328 -0.5921
  189SAPI  H18S21835   1.467   5.990   4.698 -1.5178  2.0928  1.3274
  189SAPI  C21921836   1.666   5.969   4.622  0.5631 -0.3584  0.1481
  189SAPI  H19R21837   1.611   5.891   4.564  0.2854 -0.6026  0.7348
  189SAPI  H19S21838   1.752   5.920   4.671  0.0257 -0.6211  0.8360
  189SAPI  C22021839   1.712   6.059   4.505 -0.3866 -0.2356 -0.7923
  189SAPI  H20R21840   1.775   5.994   4.441 -0.1265 -1.6045  0.7933
  189SAPI  H20S21841   1.762   6.146   4.554 -1.9969  1.1390 -1.4728
  189SAPI  H20T21842   1.622   6.099   4.454 -1.6042 -0.9531  0.7164
  189SAPI   C3321843   1.106   6.629   5.640 -0.2167 -0.1359  0.0550
  189SAPI   H3X21844   1.102   6.740   5.643 -1.9863 -0.1732  0.9358
  189SAPI   H3Y21845   1.018   6.611   5.575 -0.8088  3.1714 -0.2216
  189SAPI   C3421846   1.234   6.564   5.579 -0.3562 -0.9062 -0.2972
  189SAPI   H4X21847   1.216   6.454   5.589 -0.2786 -1.0042 -1.1490
  189SAPI   H4Y21848   1.321   6.602   5.636 -2.2948 -1.0379  2.9873
  189SAPI   C3521849   1.254   6.608   5.431  0.3414 -0.0607  0.1811
  189SAPI   H5X21850   1.362   6.592   5.410  0.8586  1.5668  1.3746
  189SAPI   H5Y21851   1.245   6.719   5.430  0.3688 -0.0597 -0.6877
  189SAPI   C3621852   1.167   6.537   5.320  0.5563 -0.3010  0.1960
  189SAPI   H6X21853   1.060   6.559   5.341  1.1724  1.3773  1.8657
  189SAPI   H6Y21854   1.175   6.427   5.322 -0.3462 -0.6349 -3.9740
  189SAPI   C3721855   1.207   6.573   5.173 -0.0317  0.2097  0.7171
  189SAPI   H7X21856   1.315   6.580   5.145 -0.3287 -1.4565 -1.0837
  189SAPI   H7Y21857   1.165   6.670   5.139  0.6708 -0.4427 -2.3667
  189SAPI   C3821858   1.150   6.462   5.078  0.2828 -0.9415 -1.0007
  189SAPI   H8X21859   1.041   6.443   5.087  0.4545 -1.2522  0.8585
  189SAPI   H8Y21860   1.195   6.365   5.107  2.8335  0.2161 -0.8198
  189SAPI   C3921861   1.182   6.485   4.926 -0.0340 -0.0332 -0.2424
  189SAPI   H9X21862   1.288   6.517   4.923  0.2097 -0.7875  0.0002
  189SAPI   H9Y21863   1.119   6.565   4.881  0.0315  0.0752 -0.1417
  189SAPI  C31021864   1.174   6.359   4.851 -0.1034  0.5807  0.9970
  189SAPI  H10X21865   1.066   6.332   4.842  0.3107 -0.6126 -0.9373
  189SAPI  H10Y21866   1.231   6.280   4.905 -1.0683 -0.8921 -0.0792
  189SAPI  C31121867   1.233   6.377   4.713 -0.1149 -1.0472 -0.1414
  189SAPI  H11X21868   1.332   6.422   4.732 -0.4936  2.7409 -5.1279
  189SAPI  H11Y21869   1.187   6.460   4.655  1.0993 -1.1307 -1.2728
  189SAPI  C31221870   1.256   6.252   4.630 -0.2628  0.2281 -0.4441
  189SAPI  H12X21871   1.155   6.220   4.595 -0.3381  1.1954 -1.1608
  189SAPI  H12Y21872   1.308   6.166   4.677  1.0150  0.0673 -2.0628
  189SAPI  C31321873   1.329   6.284   4.499 -0.0331 -0.6025 -0.2328
  189SAPI  H13X21874   1.438   6.277   4.522  0.5575  3.3352 -1.0588
  189SAPI  H13Y21875   1.302   6.386   4.464 -2.9795 -1.9260 -2.2616
  189SAPI  C31421876   1.286   6.190   4.382  0.2891  0.4723 -1.2510
  189SAPI  H14X21877   1.341   6.218   4.289  0.1369  0.2505 -1.4069
  189SAPI  H14Y21878   1.175   6.188   4.377  0.2652 -1.3241 -0.6765
  189SAPI  C31521879   1.316   6.040   4.412 -0.2066 -0.5421  0.2536
  189SAPI  H15X21880   1.258   6.010   4.501 -0.6491  1.4574  0.6985
  189SAPI  H15Y21881   1.425   6.035   4.433 -0.0828 -0.4280 -0.3348
  189SAPI  C31621882   1.302   5.945   4.290 -0.6458 -0.8393  0.1138
  189SAPI  H16X21883   1.206   5.957   4.236 -0.6526 -1.6714 -0.0748
  189SAPI  H16Y21884   1.316   5.842   4.328 -0.9652 -0.5963  0.9186
  189SAPI  C31721885   1.417   5.972   4.189  0.4361 -0.2035  0.3832
  189SAPI  H17X21886   1.511   6.009   4.236  0.9208 -0.4918 -0.3359
  189SAPI  H17Y21887   1.388   6.055   4.121 -0.4149 -0.9858 -0.2254
  189SAPI  C31821888   1.460   5.853   4.107 -0.3661 -0.0146  0.1449
  189SAPI  H18X21889   1.517   5.778   4.165 -0.4744 -0.1378  0.0934
  189SAPI  H18Y21890   1.524   5.884   4.021 -0.6989  1.4323  0.4018
  189SAPI  H18Z21891   1.373   5.792   4.077 -0.3980 -0.2756  0.7537
  190SAPI   C1221892   2.392   5.040   6.801 -0.4244  0.4400 -0.1093
  190SAPI    H221893   2.317   5.106   6.753 -0.1548  1.5050  0.8852
  190SAPI    O221894   2.525   5.061   6.755  0.0841  0.0339 -0.0397
  190SAPI   HO221895   2.529   5.090   6.663  0.7683 -0.7404 -0.2622
  190SAPI   C1321896   2.378   5.066   6.961  0.0598 -0.0910  0.4344
  190SAPI    H321897   2.272   5.040   6.982 -0.4386 -0.0391 -1.8245
  190SAPI    O321898   2.399   5.204   6.995 -0.1334  0.5660  0.3166
  190SAPI   HO321899   2.337   5.212   7.068  0.8500 -0.6641  1.3654
  190SAPI   C1421900   2.452   4.970   7.044 -0.7418 -0.1549  0.2587
  190SAPI    H421901   2.557   5.002   7.030  0.3754 -1.4682  4.1630
  190SAPI    O421902   2.439   4.985   7.187  0.1550  0.0460  0.3575
  190SAPI   HO421903   2.517   4.965   7.239 -0.1453 -0.2013  0.7231
  190SAPI   C1521904   2.431   4.822   7.002  0.2234  0.1651  0.3144
  190SAPI    H521905   2.333   4.798   7.049  1.3489 -1.3073  2.0569
  190SAPI    O521906   2.533   4.737   7.067  0.0243  0.0259  0.9798
  190SAPI   HO521907   2.539   4.652   7.023  0.7273  0.2019  0.7252
  190SAPI   C1621908   2.420   4.793   6.855  0.2055 -0.0229  0.4350
  190SAPI    H621909   2.520   4.791   6.807 -0.1464 -0.6857 -0.2948
  190SAPI    O621910   2.360   4.666   6.829  0.4389  0.3416 -0.4676
  190SAPI   HO621911   2.328   4.668   6.738 -0.2992 -0.5469 -0.2463
  190SAPI   C1121912   2.339   4.897   6.777 -0.2670  0.2159  0.3220
  190SAPI    H121913   2.230   4.891   6.795 -0.7256  1.4732 -1.6952
  190SAPI     P21914   2.255   4.914   6.520  0.1285 -0.2071  0.7407
  190SAPI   O1321915   2.338   4.965   6.406  0.2841  0.2277  0.1218
  190SAPI   O1421916   2.143   4.995   6.566 -0.8572  0.4773 -0.2083
  190SAPI   O1221917   2.360   4.875   6.638 -0.1855 -0.4587 -0.0609
  190SAPI   O1121918   2.188   4.783   6.481  0.4056  0.7436  0.1984
  190SAPI    C121919   2.276   4.681   6.431 -0.7098  0.3897  0.9011
  190SAPI    HA21920   2.378   4.674   6.476 -0.2122 -2.3326 -0.4705
  190SAPI    HB21921   2.224   4.585   6.455 -1.0285  0.5906  1.0184
  190SAPI    C221922   2.288   4.692   6.270 -0.2671 -0.0641  0.6256
  190SAPI    HS21923   2.301   4.799   6.245  1.3445 -0.3071  0.3088
  190SAPI   O2121924   2.176   4.627   6.212 -0.1328  0.1481  0.2253
  190SAPI   C2121925   2.073   4.699   6.191  0.0971  0.4267 -0.7601
  190SAPI   O2221926   2.059   4.820   6.214 -0.7807  0.2760 -0.0823
  190SAPI   C2221927   1.961   4.616   6.130 -0.7126  0.9601  0.6852
  190SAPI   H2R21928   1.999   4.582   6.031 -1.5510  3.4575 -0.6138
  190SAPI   H2S21929   1.942   4.528   6.195 -0.7439  1.4519  1.3551
  190SAPI    C321930   2.413   4.625   6.205 -0.4335 -1.2459  0.1846
  190SAPI    HX21931   2.398   4.515   6.205 -0.9443 -1.1793  0.2611
  190SAPI    HY21932   2.502   4.652   6.265 -0.2032  0.2716 -0.7845
  190SAPI   O3121933   2.420   4.659   6.066 -0.5817 -0.8788 -0.3109
  190SAPI   C3121934   2.504   4.754   6.030 -0.0067 -0.4291  0.3129
  190SAPI   O3221935   2.564   4.834   6.101 -0.4320 -0.3388  0.1889
  190SAPI   C3221936   2.511   4.765   5.872 -0.0300 -0.3238 -0.0230
  190SAPI   H2X21937   2.411   4.760   5.825  0.8616  3.2801 -2.6867
  190SAPI   H2Y21938   2.585   4.689   5.840  0.8991  1.6472 -2.9728
  190SAPI   C2321939   1.838   4.702   6.113 -0.2440 -0.4786 -0.7344
  190SAPI   H3R21940   1.869   4.783   6.044  2.3322 -1.0282 -0.3199
  190SAPI   H3S21941   1.819   4.733   6.218 -0.3415 -1.7785 -0.3463
  190SAPI   C2421942   1.715   4.635   6.043 -0.4965 -0.2991  0.3923
  190SAPI   H4R21943   1.739   4.604   5.939  3.1052  0.6066  0.8235
  190SAPI   H4S21944   1.644   4.719   6.030 -0.8315 -0.5568  0.5321
  190SAPI   C2521945   1.652   4.519   6.120  0.1547 -0.1324 -0.8220
  190SAPI   H5R21946   1.659   4.536   6.229 -1.4734 -0.2660 -0.6669
  190SAPI   C2621947   1.595   4.409   6.076  0.9297  0.2655  0.1347
  190SAPI   H6R21948   1.548   4.344   6.152  0.6382  0.4354  0.1039
  190SAPI   C2721949   1.587   4.364   5.930 -0.1001  0.1946  0.5352
  190SAPI   H7R21950   1.671   4.292   5.919  0.4100  1.0199 -1.4367
  190SAPI   H7S21951   1.617   4.446   5.862 -1.2348  0.3532  0.2007
  190SAPI   C2821952   1.455   4.303   5.908 -0.0182 -0.6796  0.2032
  190SAPI   H8R21953   1.424   4.234   5.988  1.9868  1.7839  3.3270
  190SAPI   C2921954   1.373   4.332   5.806  0.9010  0.6500  0.0142
  190SAPI   H9R21955   1.272   4.290   5.813  1.0836  0.3536  1.0825
  190SAPI  C21021956   1.389   4.438   5.703 -0.9947 -0.5823  0.3702
  190SAPI  H10R21957   1.471   4.511   5.723 -1.1622  0.0451 -1.1364
  190SAPI  H10S21958   1.304   4.510   5.705 -1.4748 -1.0132 -2.1775
  190SAPI  C21121959   1.391   4.376   5.565  0.7114  0.0541 -0.1185
  190SAPI  H11R21960   1.441   4.279   5.554  1.6112  0.5738 -0.6671
  190SAPI  C21221961   1.363   4.429   5.446  0.5418 -0.1926  0.0020
  190SAPI  H12R21962   1.383   4.372   5.354 -0.5340  1.4360 -1.2955
  190SAPI  C21321963   1.306   4.569   5.425  0.3187  0.6534 -0.2376
  190SAPI  H13R21964   1.375   4.621   5.355  2.9963 -0.3603  1.4745
  190SAPI  H13S21965   1.305   4.632   5.516  0.4251 -0.2327  0.3954
  190SAPI  C21421966   1.167   4.576   5.382  1.0175 -0.5109 -0.4487
  190SAPI  H14R21967   1.096   4.535   5.455  1.5526 -0.3921  0.1417
  190SAPI  C21521968   1.116   4.627   5.266 -0.5432 -0.2158 -0.1618
  190SAPI  H15R21969   1.006   4.631   5.258 -0.5682  2.6399  0.5880
  190SAPI  C21621970   1.200   4.705   5.161  0.3592  0.0629  1.0238
  190SAPI  H16R21971   1.298   4.652   5.154 -0.4762 -1.4165 -0.3669
  190SAPI  H16S21972   1.219   4.810   5.189 -1.0054  0.0602  2.0533
  190SAPI  C21721973   1.129   4.700   5.023  0.2716 -0.2154 -0.1094
  190SAPI  H17R21974   1.039   4.765   5.021  0.6585  0.4405  1.8100
  190SAPI  H17S21975   1.086   4.598   5.013 -1.9543  0.8902 -3.6581
  190SAPI  C21821976   1.215   4.728   4.899 -0.0172 -0.0049  0.0573
  190SAPI  H18R21977   1.311   4.671   4.903  0.7485  1.0892 -1.7417
  190SAPI  H18S21978   1.232   4.837   4.898  0.6883 -0.0753  1.4373
  190SAPI  C21921979   1.156   4.682   4.767  1.0171 -0.0024 -0.6188
  190SAPI  H19R21980   1.051   4.717   4.758  0.5553 -1.4133 -0.9969
  190SAPI  H19S21981   1.144   4.572   4.769 -0.6457  0.1490 -0.8247
  190SAPI  C22021982   1.254   4.723   4.653  0.2886  0.1324 -0.5317
  190SAPI  H20R21983   1.360   4.697   4.671  0.2906  0.1502 -0.5167
  190SAPI  H20S21984   1.254   4.834   4.654 -0.4990  0.1367 -0.3888
  190SAPI  H20T21985   1.216   4.696   4.552  0.3394  1.1344 -0.8287
  190SAPI   C3321986   2.574   4.905   5.828 -0.4631 -0.4848  0.0295
  190SAPI   H3X21987   2.665   4.933   5.885 -0.3664 -1.2447  0.2489
  190SAPI   H3Y21988   2.501   4.987   5.847  0.7140  0.4049  0.8626
  190SAPI   C3421989   2.612   4.889   5.676 -0.4020  0.2375 -0.3486
  190SAPI   H4X21990   2.672   4.797   5.660  0.5158  0.1119  2.9309
  190SAPI   H4Y21991   2.671   4.980   5.654  1.2368 -0.5094  0.7636
  190SAPI   C3521992   2.487   4.906   5.587 -0.6348  0.1382  0.6842
  190SAPI   H5X21993   2.433   5.003   5.591  0.0925  0.6194 -0.8015
  190SAPI   H5Y21994   2.421   4.817   5.602 -0.2313 -0.2641  0.0822
  190SAPI   C3621995   2.527   4.906   5.436  0.1879  0.2279  0.3767
  190SAPI   H6X21996   2.580   4.817   5.396 -0.7241  0.5455 -1.6804
  190SAPI   H6Y21997   2.604   4.981   5.407  2.0310 -1.5964  0.3300
  190SAPI   C3721998   2.407   4.914   5.347  0.1703  0.0540  0.6910
  190SAPI   H7X21999   2.357   5.009   5.376  0.2585 -0.0027  1.0290
  190SAPI   H7Y22000   2.334   4.835   5.376  0.7890 -0.6572  0.3183
  190SAPI   C3822001   2.454   4.915   5.198  0.4884 -0.1866  0.1731
  190SAPI   H8X22002   2.360   4.896   5.140 -0.5626 -1.8179  2.2531
  190SAPI   H8Y22003   2.525   4.830   5.188  0.4056 -0.0334 -2.3897
  190SAPI   C3922004   2.523   5.043   5.145  0.3651  0.0631  0.7732
  190SAPI   H9X22005   2.594   5.090   5.217  0.2398  0.0947  0.8760
  190SAPI   H9Y22006   2.449   5.125   5.132  0.9467  0.6151  0.8660
  190SAPI  C31022007   2.605   5.021   5.017  0.4674 -0.5401  0.2932
  190SAPI  H10X22008   2.675   4.938   5.040  1.2026  0.0783  0.3441
  190SAPI  H10Y22009   2.662   5.113   4.993 -0.4660  0.3893  1.5444
  190SAPI  C31122010   2.521   4.991   4.893 -1.0393  0.4194  0.2288
  190SAPI  H11X22011   2.444   5.066   4.863 -1.9720 -1.0790 -1.3057
  190SAPI  H11Y22012   2.450   4.912   4.926 -0.3569 -1.2611 -2.0738
  190SAPI  C31222013   2.597   4.936   4.778 -0.0916 -0.6373  0.8969
  190SAPI  H12X22014   2.536   4.882   4.703  1.3097 -2.2724  0.8804
  190SAPI  H12Y22015   2.662   4.856   4.819  1.9192  0.6654  0.4134
  190SAPI  C31322016   2.690   5.044   4.719 -0.0754 -0.0070 -0.3047
  190SAPI  H13X22017   2.773   5.005   4.657  2.0962  1.0829  1.7315
  190SAPI  H13Y22018   2.726   5.093   4.812 -3.2461  0.7810  0.6254
  190SAPI  C31422019   2.613   5.154   4.644  0.1986 -0.0138 -0.9568
  190SAPI  H14X22020   2.553   5.209   4.720  1.1318  2.9652 -2.2186
  190SAPI  H14Y22021   2.541   5.106   4.574  0.1532 -1.6403  0.1351
  190SAPI  C31522022   2.695   5.239   4.551 -0.3304  0.7473 -0.4818
  190SAPI  H15X22023   2.756   5.167   4.494  0.7169 -1.0939  2.7166
  190SAPI  H15Y22024   2.763   5.298   4.617  0.9881 -1.3552  0.1221
  190SAPI  C31622025   2.608   5.321   4.460 -0.0177 -0.2366  0.3674
  190SAPI  H16X22026   2.654   5.419   4.434  1.5565 -1.4251 -1.6698
  190SAPI  H16Y22027   2.513   5.348   4.511  0.3715  2.2584 -0.1010
  190SAPI  C31722028   2.576   5.248   4.331  0.2175 -0.9481 -0.6590
  190SAPI  H17X22029   2.537   5.144   4.337 -0.3049 -0.6957  0.5035
  190SAPI  H17Y22030   2.676   5.238   4.282 -0.0344 -0.6626 -1.2281
  190SAPI  C31822031   2.491   5.324   4.236  0.4807 -0.2230  0.1853
  190SAPI  H18X22032   2.531   5.427   4.223 -0.2850 -0.1266 -1.7155
  190SAPI  H18Y22033   2.393   5.325   4.287  0.3439  0.0904 -0.0822
  190SAPI  H18Z22034   2.477   5.271   4.139 -0.1905  0.0428  0.1381
  191SAPI   C1222035   4.298   0.904   2.352 -0.1048  0.0608 -0.5542
  191SAPI    H222036   4.311   0.953   2.451  0.1608 -1.0675 -0.0160
  191SAPI    O222037   4.384   0.979   2.272 -0.4938  0.1027  0.2970
  191SAPI   HO222038   4.373   1.073   2.293 -0.4643  0.6340 -1.8662
  191SAPI   C1322039   4.346   0.762   2.365  0.6202  0.0584 -0.9912
  191SAPI    H322040   4.274   0.712   2.434  0.7007  0.8467 -0.3104
  191SAPI    O322041   4.479   0.752   2.428  0.5101 -0.4638 -0.0105
  191SAPI   HO322042   4.489   0.667   2.471  0.9106 -0.1611  0.5024
  191SAPI   C1422043   4.333   0.697   2.233 -0.2636  0.3079  0.2724
  191SAPI    H422044   4.397   0.757   2.166 -1.2107  1.3294  0.2514
  191SAPI    O422045   4.372   0.559   2.234 -0.1171 -0.5464 -0.6303
  191SAPI   HO422046   4.468   0.557   2.240  0.0097  2.2276 -0.2435
  191SAPI   C1522047   4.201   0.707   2.159  0.3273 -0.2139 -1.2236
  191SAPI    H522048   4.138   0.640   2.221  0.3184  0.1001 -0.8929
  191SAPI    O522049   4.202   0.677   2.020  0.4300  0.0977 -0.0240
  191SAPI   HO522050   4.134   0.610   2.010  0.2220  0.3288 -0.1821
  191SAPI   C1622051   4.138   0.850   2.170 -0.1393 -0.3365  0.7995
  191SAPI    H622052   4.201   0.915   2.105 -2.3300  2.1789  1.0117
  191SAPI    O622053   4.007   0.866   2.119  0.0012 -0.0072  0.3194
  191SAPI   HO622054   3.957   0.905   2.190  1.4508  2.3418  0.1719
  191SAPI   C1122055   4.157   0.916   2.310  0.1422 -0.5574 -0.3260
  191SAPI    H122056   4.095   0.865   2.387  1.4312 -1.9786 -0.1762
  191SAPI     P22057   3.986   1.125   2.343 -0.3752  0.3017  0.2641
  191SAPI   O1322058   3.880   1.049   2.267  0.1098  1.0083  0.6338
  191SAPI   O1422059   4.000   1.271   2.321  0.0162  0.0138  0.0597
  191SAPI   O1222060   4.134   1.060   2.313 -0.8256  0.2730 -0.2827
  191SAPI   O1122061   3.959   1.101   2.496 -0.3873 -0.5506 -0.0080
  191SAPI    C122062   4.047   1.082   2.598 -0.4496 -0.0776  0.0497
  191SAPI    HA22063   4.035   0.980   2.641 -2.2818 -0.1190 -0.4548
  191SAPI    HB22064   4.153   1.094   2.568 -0.8564 -1.4728 -2.1325
  191SAPI    C222065   4.011   1.182   2.712  0.1998  0.4035  0.1525
  191SAPI    HS22066   4.085   1.164   2.792  0.0004  3.2663  1.1174
  191SAPI   O2122067   3.876   1.172   2.763 -0.0007  0.7074 -0.0532
  191SAPI   C2122068   3.856   1.075   2.840 -0.2581 -0.4641 -0.3373
  191SAPI   O2222069   3.946   1.001   2.885 -0.3097  0.0278 -0.2097
  191SAPI   C2222070   3.714   1.073   2.876  1.5828 -0.7478  0.6710
  191SAPI   H2R22071   3.702   1.147   2.958  0.5459 -1.1654  0.9173
  191SAPI   H2S22072   3.656   1.092   2.784  0.1697  0.2167  1.7147
  191SAPI    C322073   4.040   1.331   2.664 -0.8487 -0.1740  0.1580
  191SAPI    HX22074   3.984   1.353   2.571 -1.5654 -0.3075  0.5488
  191SAPI    HY22075   4.149   1.331   2.643 -1.2667 -1.5951 -2.4335
  191SAPI   O3122076   3.997   1.435   2.764 -0.0028 -0.2837 -0.0996
  191SAPI   C3122077   4.083   1.452   2.864  0.5373 -0.2026 -0.2093
  191SAPI   O3222078   4.186   1.381   2.885  0.5732  0.2631  0.3991
  191SAPI   C3222079   4.034   1.566   2.959 -0.7202 -0.0136  0.1555
  191SAPI   H2X22080   3.926   1.582   2.941 -0.6690  1.4530  1.0301
  191SAPI   H2Y22081   4.090   1.658   2.932  1.1187 -0.8273  1.0187
  191SAPI   C2322082   3.655   0.942   2.934 -0.4454  0.0865 -0.0241
  191SAPI   H3R22083   3.713   0.858   2.890 -0.5294 -0.4509  0.8778
  191SAPI   H3S22084   3.548   0.940   2.904 -0.6596 -0.4278  0.7633
  191SAPI   C2422085   3.668   0.937   3.083  0.3231  0.4505  0.7221
  191SAPI   H4R22086   3.768   0.980   3.107  0.6662 -0.0023  0.1133
  191SAPI   H4S22087   3.664   0.832   3.117 -2.6838  0.2760  0.0797
  191SAPI   C2522088   3.566   1.017   3.164  0.1359  0.4935 -0.1864
  191SAPI   H5R22089   3.554   1.122   3.135 -0.3375  1.0250  1.7671
  191SAPI   C2622090   3.495   0.971   3.271  0.3525  1.0007 -0.1750
  191SAPI   H6R22091   3.425   1.039   3.322  0.5770  0.4278  0.9181
  191SAPI   C2722092   3.504   0.845   3.347 -0.0554 -0.0935 -0.5248
  191SAPI   H7R22093   3.507   0.758   3.277  0.0296  1.6060 -2.7444
  191SAPI   H7S22094   3.411   0.826   3.405  1.1596 -3.7092  0.5350
  191SAPI   C2822095   3.619   0.848   3.445 -0.2962  0.3849  0.0322
  191SAPI   H8R22096   3.687   0.934   3.433  0.4639 -0.1522  0.3578
  191SAPI   C2922097   3.627   0.762   3.548 -0.8197  0.5972  0.4190
  191SAPI   H9R22098   3.711   0.767   3.619 -0.6958 -1.6989  0.4975
  191SAPI  C21022099   3.528   0.653   3.574 -0.5107  0.0220  0.4232
  191SAPI  H10R22100   3.428   0.698   3.590 -0.9079 -1.2754  1.7468
  191SAPI  H10S22101   3.553   0.616   3.676 -0.7344  1.9792  1.2320
  191SAPI  C21122102   3.514   0.546   3.467  0.7065  0.3451 -0.4996
  191SAPI  H11R22103   3.567   0.558   3.372 -0.4767 -1.6139 -1.4488
  191SAPI  C21222104   3.434   0.439   3.473  0.3611  0.2388  0.1593
  191SAPI  H12R22105   3.429   0.370   3.388 -2.2125 -0.2396  0.6118
  191SAPI  C21322106   3.338   0.391   3.586 -0.6000  0.4592  1.0437
  191SAPI  H13R22107   3.403   0.419   3.672  2.7028 -1.4284 -0.6239
  191SAPI  H13S22108   3.318   0.282   3.592  0.6276  0.0918 -0.7089
  191SAPI  C21422109   3.211   0.470   3.578  0.0341  0.1783 -0.1459
  191SAPI  H14R22110   3.202   0.546   3.499  2.0800  0.3737 -0.2416
  191SAPI  C21522111   3.112   0.460   3.668 -0.0690  0.0406 -0.1130
  191SAPI  H15R22112   3.018   0.515   3.655 -0.0237  0.2220  0.3060
  191SAPI  C21622113   3.127   0.370   3.790  0.3168 -0.7404  0.3254
  191SAPI  H16R22114   3.172   0.272   3.762 -0.2928 -1.5579  2.0335
  191SAPI  H16S22115   3.023   0.335   3.813  0.5768 -0.8449  1.3660
  191SAPI  C21722116   3.194   0.443   3.908  0.2729 -0.3595 -0.3033
  191SAPI  H17R22117   3.123   0.516   3.954  0.4328 -0.9504  0.9198
  191SAPI  H17S22118   3.291   0.488   3.880  0.5091 -0.7323 -0.0935
  191SAPI  C21822119   3.218   0.349   4.026 -0.0273 -0.4967  0.4531
  191SAPI  H18R22120   3.283   0.267   3.989 -2.1412 -1.2326 -1.9027
  191SAPI  H18S22121   3.121   0.309   4.062  0.1695  0.2026  1.8187
  191SAPI  C21922122   3.305   0.413   4.124 -0.1166  0.0097  0.9551
  191SAPI  H19R22123   3.258   0.506   4.162 -1.4251 -0.3176  0.1979
  191SAPI  H19S22124   3.409   0.422   4.086 -0.2048  0.8666  0.8942
  191SAPI  C22022125   3.327   0.312   4.238  1.5017  0.4754  0.0494
  191SAPI  H20R22126   3.363   0.214   4.202  1.4515  0.4843 -0.0258
  191SAPI  H20S22127   3.232   0.287   4.290  2.2478 -3.0985 -0.0632
  191SAPI  H20T22128   3.393   0.353   4.318 -2.3139  2.7607  2.3453
  191SAPI   C3322129   4.059   1.535   3.113  0.3848  0.0038  0.3269
  191SAPI   H3X22130   4.165   1.561   3.130  0.4955 -0.0105 -0.3119
  191SAPI   H3Y22131   4.046   1.427   3.135  0.5695 -0.0072  0.3805
  191SAPI   C3422132   3.979   1.613   3.213  0.0899 -0.3325 -0.1809
  191SAPI   H4X22133   3.870   1.604   3.189  0.4260  0.9477 -2.5065
  191SAPI   H4Y22134   3.997   1.722   3.219 -3.0653  0.1988  2.2184
  191SAPI   C3522135   4.009   1.560   3.357 -0.2859 -0.9295  0.2537
  191SAPI   H5X22136   4.114   1.551   3.393  0.0219 -0.8666 -0.5993
  191SAPI   H5Y22137   3.975   1.455   3.370  2.0294 -1.8638 -0.5498
  191SAPI   C3622138   3.936   1.648   3.454 -0.2763 -0.1991 -0.5506
  191SAPI   H6X22139   3.828   1.653   3.432 -0.4481  1.1170  0.4553
  191SAPI   H6Y22140   3.970   1.753   3.446 -0.0574 -0.0117  2.1045
  191SAPI   C3722141   3.964   1.619   3.598  0.0750 -0.2379 -0.0576
  191SAPI   H7X22142   4.074   1.612   3.611  0.2936  0.4087 -1.4119
  191SAPI   H7Y22143   3.926   1.517   3.622 -0.9898 -0.1759 -1.3877
  191SAPI   C3822144   3.907   1.723   3.698  0.4644 -0.1182 -0.0898
  191SAPI   H8X22145   3.796   1.728   3.690  0.3772 -1.3733  0.1075
  191SAPI   H8Y22146   3.955   1.820   3.672 -0.4988  0.7232  1.1864
  191SAPI   C3922147   3.927   1.682   3.842 -0.5707  0.3684  0.3237
  191SAPI   H9X22148   4.035   1.664   3.863 -0.5886 -1.2350 -0.7221
  191SAPI   H9Y22149   3.877   1.583   3.842 -0.9192  0.4065 -3.3380
  191SAPI  C31022150   3.890   1.795   3.938 -0.2853  0.0767  0.0491
  191SAPI  H10X22151   3.794   1.835   3.899  0.2258  0.7893 -0.4995
  191SAPI  H10Y22152   3.969   1.872   3.935  3.1608 -3.2281 -1.3101
  191SAPI  C31122153   3.886   1.759   4.091 -0.3751 -0.0241  0.7672
  191SAPI  H11X22154   3.981   1.704   4.105 -1.0939 -1.5718 -0.1361
  191SAPI  H11Y22155   3.817   1.676   4.117 -1.1149 -0.3063 -1.7896
  191SAPI  C31222156   3.878   1.876   4.188  0.8904 -0.3825  0.2799
  191SAPI  H12X22157   3.779   1.915   4.154  1.4125  0.8566  0.1485
  191SAPI  H12Y22158   3.949   1.959   4.172  0.7067 -0.4127 -0.7934
  191SAPI  C31322159   3.868   1.841   4.337 -0.1233 -1.1178  0.1623
  191SAPI  H13X22160   3.848   1.941   4.381 -2.5230 -0.4515 -2.1448
  191SAPI  H13Y22161   3.960   1.795   4.378 -0.3474 -2.2969 -0.6160
  191SAPI  C31422162   3.762   1.743   4.368  0.0344  0.4764 -0.1012
  191SAPI  H14X22163   3.789   1.643   4.329 -0.1217  0.6124 -0.5636
  191SAPI  H14Y22164   3.674   1.782   4.313  0.1561  1.8346  0.6157
  191SAPI  C31522165   3.738   1.744   4.519  0.0466 -0.2691 -0.4736
  191SAPI  H15X22166   3.701   1.842   4.553  0.3412  0.6007 -2.4978
  191SAPI  H15Y22167   3.832   1.711   4.568  0.1993  1.5114  0.4770
  191SAPI  C31622168   3.633   1.640   4.560 -0.3041  0.1505  0.1178
  191SAPI  H16X22169   3.684   1.542   4.552  1.1304  0.9819 -1.6851
  191SAPI  H16Y22170   3.554   1.633   4.482  1.4771 -3.7151 -1.6520
  191SAPI  C31722171   3.562   1.673   4.693 -0.2308 -0.2937 -0.1225
  191SAPI  H17X22172   3.485   1.598   4.721 -1.3131  0.8793  0.1742
  191SAPI  H17Y22173   3.493   1.758   4.670 -0.9663 -0.5573  0.9902
  191SAPI  C31822174   3.638   1.713   4.821  0.3662 -0.4904 -0.4768
  191SAPI  H18X22175   3.687   1.620   4.858  1.0374  0.7807  2.0805
  191SAPI  H18Y22176   3.564   1.752   4.895 -1.3338 -1.6962 -1.4540
  191SAPI  H18Z22177   3.711   1.791   4.793 -1.0613  1.5732  1.1759
  192SAPI   C1222178   6.705   6.700   1.937 -0.4048  0.4748  1.5646
  192SAPI    H222179   6.596   6.700   1.957 -0.7035 -3.3684  0.6983
  192SAPI    O222180   6.756   6.644   2.054 -0.2565  0.0268  0.4611
  192SAPI   HO222181   6.758   6.719   2.114 -3.1138  0.0086  0.7289
  192SAPI   C1322182   6.758   6.621   1.818  0.2467 -0.5404  0.6915
  192SAPI    H322183   6.717   6.674   1.729  2.2305  1.9448  1.1302
  192SAPI    O322184   6.711   6.489   1.814  0.2353  0.1689  0.6389
  192SAPI   HO322185   6.772   6.437   1.867  1.0526 -1.4999 -1.7606
  192SAPI   C1422186   6.905   6.632   1.801  0.0688 -0.2546  0.3296
  192SAPI    H422187   6.952   6.577   1.885  0.3289 -0.5513 -0.0082
  192SAPI    O422188   6.954   6.565   1.683  0.2283 -0.7488 -0.2377
  192SAPI   HO422189   7.049   6.557   1.694  0.2993 -1.7799 -1.4278
  192SAPI   C1522190   6.960   6.768   1.810 -0.0444 -0.2870 -0.6384
  192SAPI    H522191   6.945   6.818   1.711  0.7802 -2.0778 -1.7268
  192SAPI    O522192   7.103   6.761   1.816  0.5393 -0.2641 -0.0917
  192SAPI   HO522193   7.118   6.744   1.909 -1.1172 -0.4437  0.1759
  192SAPI   C1622194   6.903   6.861   1.919  0.3163  0.6823  0.5625
  192SAPI    H622195   6.945   6.823   2.015 -0.9483 -1.9771  0.1647
  192SAPI    O622196   6.941   6.997   1.901 -0.7419 -0.3966  0.2153
  192SAPI   HO622197   6.990   7.023   1.979 -1.8194  2.1994  0.1162
  192SAPI   C1122198   6.755   6.847   1.940  0.5794  0.0092 -0.8723
  192SAPI    H122199   6.711   6.903   1.855  1.3110  0.8507 -0.7066
  192SAPI     P22200   6.569   6.967   2.116 -0.1409 -0.4262  0.2199
  192SAPI   O1322201   6.480   7.000   2.003 -0.0467 -0.4958  0.2699
  192SAPI   O1422202   6.583   7.068   2.221 -0.8785  0.5658 -0.2280
  192SAPI   O1222203   6.715   6.913   2.061 -0.0408  0.4192 -0.8729
  192SAPI   O1122204   6.517   6.830   2.194 -0.7077 -0.0859  0.3921
  192SAPI    C122205   6.571   6.781   2.313 -0.7174  0.1306  0.2289
  192SAPI    HA22206   6.586   6.671   2.309  0.9768  0.2448  2.0225
  192SAPI    HB22207   6.664   6.831   2.346 -0.1990 -0.6834  0.0376
  192SAPI    C222208   6.475   6.802   2.429 -0.3060  0.3082 -0.2259
  192SAPI    HS22209   6.457   6.912   2.438  1.0951  0.4932  0.6309
  192SAPI   O2122210   6.528   6.751   2.552  0.1016  0.2978 -0.1508
  192SAPI   C2122211   6.583   6.841   2.629  0.2361 -0.3228  0.3399
  192SAPI   O2222212   6.584   6.960   2.604 -0.4062 -0.5271 -0.3925
  192SAPI   C2222213   6.624   6.765   2.749 -0.1318 -0.0008 -0.5918
  192SAPI   H2R22214   6.637   6.656   2.730 -1.6257 -0.4296  0.6327
  192SAPI   H2S22215   6.714   6.812   2.795 -0.2848 -0.5649  0.3246
  192SAPI    C322216   6.341   6.738   2.398  0.7071  0.1628  0.3300
  192SAPI    HX22217   6.364   6.630   2.401 -1.4097 -0.3338  0.9092
  192SAPI    HY22218   6.318   6.771   2.294  1.3036 -0.2212  0.0714
  192SAPI   O3122219   6.234   6.770   2.496  0.6607  0.5175  0.8401
  192SAPI   C3122220   6.152   6.871   2.466  0.1838 -0.2104 -0.7295
  192SAPI   O3222221   6.180   6.969   2.398 -0.6123 -0.0295  0.2836
  192SAPI   C3222222   6.028   6.860   2.549  0.3283 -0.4614  0.0977
  192SAPI   H2X22223   6.023   6.762   2.602  0.0789 -0.6166 -0.2158
  192SAPI   H2Y22224   5.939   6.868   2.484  0.3124  3.2443  0.3794
  192SAPI   C2322225   6.511   6.769   2.857  0.3310 -0.0313  0.3009
  192SAPI   H3R22226   6.550   6.704   2.938 -0.0521 -2.2114 -1.1687
  192SAPI   H3S22227   6.409   6.747   2.820  0.1243 -0.7640  1.2794
  192SAPI   C2422228   6.497   6.910   2.931 -0.3877  0.3836  0.3625
  192SAPI   H4R22229   6.471   6.986   2.854 -1.1981 -1.2189 -0.9957
  192SAPI   H4S22230   6.600   6.932   2.966  0.1657 -0.3361 -0.7699
  192SAPI   C2522231   6.395   6.902   3.048 -0.3737  0.2585  0.7641
  192SAPI   H5R22232   6.296   6.949   3.035 -0.6508 -0.6347 -0.5365
  192SAPI   C2622233   6.430   6.858   3.167  0.5534  1.0193 -0.3028
  192SAPI   H6R22234   6.351   6.856   3.244 -0.0448  0.3865 -0.9220
  192SAPI   C2722235   6.565   6.795   3.216 -0.4729 -0.5895  0.1145
  192SAPI   H7R22236   6.638   6.776   3.135  1.1544  0.1424  1.3377
  192SAPI   H7S22237   6.540   6.695   3.259  0.0468 -1.0802 -0.7045
  192SAPI   C2822238   6.625   6.881   3.326 -0.1472 -0.0206 -0.4027
  192SAPI   H8R22239   6.685   6.964   3.288  1.9520  0.1590  2.9157
  192SAPI   C2922240   6.606   6.879   3.462 -0.2482 -0.0868  0.6500
  192SAPI   H9R22241   6.648   6.961   3.522 -0.7982 -0.7838  2.0149
  192SAPI  C21022242   6.531   6.779   3.545  0.6095 -1.0118 -0.7361
  192SAPI  H10R22243   6.484   6.706   3.476 -1.4932  0.0611 -0.5055
  192SAPI  H10S22244   6.450   6.833   3.597  3.4557  0.0642  3.0510
  192SAPI  C21122245   6.616   6.716   3.652 -0.2416 -0.1146  0.8416
  192SAPI  H11R22246   6.693   6.650   3.609  1.8750  3.2233 -0.9599
  192SAPI  C21222247   6.635   6.747   3.779  0.7436  0.5993  0.2676
  192SAPI  H12R22248   6.716   6.694   3.830  0.7620 -0.3062 -0.6695
  192SAPI  C21322249   6.559   6.848   3.857 -0.1147 -0.8555 -0.2173
  192SAPI  H13R22250   6.486   6.902   3.793 -0.0838 -1.4733 -0.7773
  192SAPI  H13S22251   6.638   6.918   3.890  0.7692 -1.8601 -0.1645
  192SAPI  C21422252   6.496   6.796   3.982 -0.6907 -0.5973  0.2124
  192SAPI  H14R22253   6.411   6.730   3.961 -0.0574 -0.5036 -3.2892
  192SAPI  C21522254   6.524   6.830   4.109  0.2311  0.6086  1.0039
  192SAPI  H15R22255   6.450   6.795   4.182  0.6934  0.3531  1.3535
  192SAPI  C21622256   6.636   6.921   4.160  0.0369 -0.0763 -0.1927
  192SAPI  H16R22257   6.588   7.001   4.220  1.6543  0.6851  0.1442
  192SAPI  H16S22258   6.703   6.962   4.081 -0.4981  0.8338 -0.1836
  192SAPI  C21722259   6.731   6.829   4.245  0.0160 -0.2289  0.0151
  192SAPI  H17R22260   6.672   6.794   4.333 -0.0480  1.2872  0.6025
  192SAPI  H17S22261   6.818   6.877   4.295 -0.2653  0.3261 -0.0184
  192SAPI  C21822262   6.780   6.708   4.164  0.1603  1.2320 -0.1729
  192SAPI  H18R22263   6.817   6.747   4.067  1.9925  0.9635  0.3897
  192SAPI  H18S22264   6.695   6.641   4.136  2.0386 -0.6989 -1.5777
  192SAPI  C21922265   6.869   6.612   4.247 -0.1962 -0.0160  0.0753
  192SAPI  H19R22266   6.810   6.553   4.320 -0.6555  1.6707  1.1066
  192SAPI  H19S22267   6.948   6.660   4.307  0.3113 -1.6536  0.7576
  192SAPI  C22022268   6.942   6.517   4.151 -0.0567 -0.2134  0.6171
  192SAPI  H20R22269   7.003   6.586   4.090  0.0860 -0.8653  0.0029
  192SAPI  H20S22270   6.866   6.478   4.080  1.2334  1.5044 -1.8541
  192SAPI  H20T22271   7.001   6.432   4.192  0.5572  0.2327  0.6560
  192SAPI   C3322272   6.012   6.970   2.656 -0.5993  0.3652  0.5511
  192SAPI   H3X22273   5.929   6.937   2.722 -0.8606 -0.3740 -0.1272
  192SAPI   H3Y22274   5.979   7.057   2.596  1.0249 -1.1677 -2.8232
  192SAPI   C3422275   6.134   7.005   2.740 -0.5578  0.2372 -0.8030
  192SAPI   H4X22276   6.220   7.059   2.695  1.4233  0.2353  2.6111
  192SAPI   H4Y22277   6.176   6.923   2.802  0.9518  1.5958  0.0440
  192SAPI   C3522278   6.095   7.117   2.842 -0.3665  0.1010  0.7013
  192SAPI   H5X22279   6.041   7.197   2.786  0.3953  0.9405  1.1272
  192SAPI   H5Y22280   6.190   7.155   2.884  0.8083 -1.0391 -0.8100
  192SAPI   C3622281   6.026   7.056   2.969  0.2046  0.0267  0.8478
  192SAPI   H6X22282   6.076   6.963   3.005  1.0844 -0.0841 -0.5858
  192SAPI   H6Y22283   5.920   7.033   2.943  0.5482  0.8869 -1.6183
  192SAPI   C3722284   6.028   7.159   3.086  0.0320  0.0991  0.2411
  192SAPI   H7X22285   5.967   7.247   3.057  1.6435  0.9349 -0.7548
  192SAPI   H7Y22286   6.125   7.202   3.117 -0.8248 -0.2115  3.8079
  192SAPI   C3822287   5.979   7.093   3.215  0.4361  0.5557 -0.4037
  192SAPI   H8X22288   6.061   7.029   3.255 -0.9057 -0.7321  0.3908
  192SAPI   H8Y22289   5.885   7.036   3.195  0.8338  0.4204 -2.0212
  192SAPI   C3922290   5.943   7.203   3.310 -0.1855 -0.4957  0.0377
  192SAPI   H9X22291   5.861   7.261   3.262  0.0645 -0.6348 -0.5749
  192SAPI   H9Y22292   6.019   7.281   3.331  0.2122 -0.7936 -0.2727
  192SAPI  C31022293   5.899   7.148   3.450 -0.4729  0.8067  0.7729
  192SAPI  H10X22294   5.986   7.098   3.498 -2.7342 -3.3854  0.9484
  192SAPI  H10Y22295   5.814   7.081   3.425 -0.5722  1.3979 -0.5817
  192SAPI  C31122296   5.866   7.250   3.558 -0.3428 -0.3245  0.0825
  192SAPI  H11X22297   5.786   7.321   3.528  0.8380  1.0234  0.0183
  192SAPI  H11Y22298   5.956   7.312   3.576 -1.4068  0.8951  1.4678
  192SAPI  C31222299   5.828   7.191   3.696 -0.5649  0.0789 -0.0968
  192SAPI  H12X22300   5.909   7.122   3.729 -0.9102 -0.7580 -0.9619
  192SAPI  H12Y22301   5.742   7.121   3.689 -0.5524 -0.2703  2.4266
  192SAPI  C31322302   5.815   7.307   3.791  0.1583 -0.0804  0.3089
  192SAPI  H13X22303   5.736   7.372   3.749  0.2015 -0.9142 -1.1369
  192SAPI  H13Y22304   5.904   7.373   3.799  0.1979 -0.2062  0.9884
  192SAPI  C31422305   5.783   7.259   3.939  0.1989  0.2048  0.4425
  192SAPI  H14X22306   5.864   7.203   3.989  0.3588 -2.2537 -2.2866
  192SAPI  H14Y22307   5.694   7.193   3.934 -0.6942  1.3631  0.5521
  192SAPI  C31522308   5.749   7.371   4.026  0.1452 -0.5872 -0.0676
  192SAPI  H15X22309   5.668   7.422   3.970 -1.4339 -1.3152  1.4564
  192SAPI  H15Y22310   5.832   7.443   4.037 -0.5236  0.1147  0.5305
  192SAPI  C31622311   5.707   7.339   4.171 -0.4865  0.7257  0.9661
  192SAPI  H16X22312   5.792   7.285   4.219 -1.3438 -1.4153  0.2126
  192SAPI  H16Y22313   5.628   7.261   4.168 -0.5473  0.8055 -0.0747
  192SAPI  C31722314   5.656   7.460   4.252  0.1755  1.0835  0.3259
  192SAPI  H17X22315   5.558   7.494   4.212 -0.5499 -0.0721  1.0725
  192SAPI  H17Y22316   5.735   7.538   4.246  1.4307 -0.2624 -2.2707
  192SAPI  C31822317   5.641   7.413   4.398  1.1236 -0.1812 -0.7472
  192SAPI  H18X22318   5.579   7.321   4.389 -1.2150  1.3772 -1.5831
  192SAPI  H18Y22319   5.578   7.475   4.466  0.7560 -0.1745 -1.0892
  192SAPI  H18Z22320   5.734   7.389   4.453  0.8825  1.3599  0.4141
  193SOD    SOD22321   2.297   3.219   1.511  0.2641 -0.4644  0.6282
  194SOD    SOD22322   5.209   3.723   7.927 -0.4510 -0.5730  0.3992
  195SOD    SOD22323   1.978   1.609   8.643 -0.1083 -0.5119  0.4280
  196SOD    SOD22324   2.540   4.619   8.022 -0.3058  0.2813 -0.2528
  197SOD    SOD22325   1.445   5.305   0.043  0.0552 -0.3259  0.5846
  198SOD    SOD22326   6.129   4.218   1.916 -0.2113 -0.1873  0.3838
  199SOD    SOD22327   0.887   6.310   6.873 -0.0913  0.4312 -0.6819
  200SOD    SOD22328   6.722   1.348   8.759  0.1842 -0.1106  0.0062
  201SOD    SOD22329   3.729   2.035   8.146 -0.2206  0.1252 -0.1978
  202SOD    SOD22330   6.784   5.698   8.469  0.0743  0.2016 -0.0583
  203SOD    SOD22331   2.560   0.715   7.910 -0.0803 -0.3074  0.1483
  204SOD    SOD22332   5.721   4.546   1.369  0.4623  0.0924 -0.1423
  205SOD    SOD22333   4.356   5.015   7.506 -0.1009  0.0873 -0.3344
  206SOD    SOD22334   1.831   3.903   0.368  0.1752 -0.3207  0.2154
  207SOD    SOD22335   0.259   5.982   1.369  0.3631 -0.4239  0.1360
  208SOD    SOD22336   3.471   0.151   8.862 -0.4296 -0.4842  0.2951
  209SOD    SOD22337   2.926   6.045   1.272  0.0359 -0.0736  0.4522
  210SOD    SOD22338   1.346   6.584   1.103  0.2700  0.8353 -0.2828
  211SOD    SOD22339   3.088   4.746   0.377 -0.1585  0.0077 -0.4364
  212SOD    SOD22340   2.570   2.162   7.085  0.5359 -0.0998  0.2763
  213SOD    SOD22341   4.295   5.109   1.721 -0.1829  0.0014 -0.5388
  214SOD    SOD22342   2.648   0.865   6.819  0.1943 -0.2173  0.1762
  215SOD    SOD22343   2.489   2.736   7.432 -0.4187  0.6280 -0.3290
  216SOD    SOD22344   3.785   1.144   2.090 -0.5318 -0.0851  0.1769
  217SOD    SOD22345   1.936   3.511   6.355 -0.8669  0.3519 -0.1046
  218SOD    SOD22346   5.536   4.055   2.187  0.5331  0.1799  0.0587
  219SOD    SOD22347   5.350   4.213   6.871 -0.1192  0.1787  0.2852
  220SOD    SOD22348   0.711   2.654   7.167 -0.3008 -0.4622  0.3464
  221SOD    SOD22349   1.656   1.733   1.695 -0.4423 -0.2707  0.3836
  222SOD    SOD22350   1.068   6.576   7.282 -0.1728  0.0537  0.6702
  223SOD    SOD22351   0.265   4.735   6.476 -1.2253  0.2185 -0.2497
  224SOD    SOD22352   5.910   1.919   0.127 -0.3334  0.1780 -0.0895
  225SOD    SOD22353   2.325   5.934   6.943  0.0935 -0.0178 -0.4958
  226SOD    SOD22354   6.540   3.820   7.047 -0.0075 -0.4200 -0.5243
  227SOD    SOD22355   2.178   2.883   0.213  0.0168 -0.0518 -0.5372
  228SOD    SOD22356   1.321   1.733   6.654 -0.2337 -0.3326  0.3107
  229SOD    SOD22357   1.071   1.024   0.586  0.1416 -0.3656 -0.2920
  230CLA    CLA22358   6.766   5.611   1.223 -0.4188 -0.0606  0.0825
  231CLA    CLA22359   0.634   0.379   1.048 -0.8716  0.0048 -0.0756
  232CLA    CLA22360   3.888   4.425   0.211  0.2390 -0.0154 -0.2111
  233CLA    CLA22361   5.009   0.011   7.876  0.0310  0.1123  0.0271
  234CLA    CLA22362   0.630   1.723   8.813  0.1041 -0.0262 -0.1960
  235CLA    CLA22363   3.775   2.964   8.373 -0.4810 -0.1422  0.0819
  236CLA    CLA22364   2.476   1.493   8.373  0.0364 -0.0583 -0.3633
  237CLA    CLA22365   0.491   1.813   7.293  0.3976  0.0499  0.5186
  238CLA    CLA22366   2.395   3.145   7.922 -0.2577  0.5296 -0.4514
  239CLA    CLA22367   0.716   4.807   6.736  0.0664  0.2788 -0.1424
  240CLA    CLA22368   2.867   3.848   0.694  0.1928 -0.1574  0.0492
  241CLA    CLA22369   2.323   0.185   8.543 -0.0128  0.4304 -0.0520
  242CLA    CLA22370   2.081   0.614   7.806  0.5974 -0.3143 -0.0398
  243CLA    CLA22371   4.424   2.078   0.775 -0.3647 -0.0144 -0.3255
  244CLA    CLA22372   1.539   4.200   7.922  0.2087 -0.0089  0.1817
  245CLA    CLA22373   2.622   6.072   0.283 -0.3288 -0.6864  0.3024
  246CLA    CLA22374   3.905   0.353   8.082  0.0078 -0.0240 -0.0983
  247TIP3   OH222375   6.378   4.214   1.913 -0.0069  0.3482 -0.1097
  247TIP3    H122376   6.397   4.120   1.909 -1.3370  0.0282  0.4325
  247TIP3    H222377   6.360   4.231   2.005 -0.7427  0.9149 -0.3423
  248TIP3   OH222378   5.766   2.685   0.023  0.1615  0.1429 -0.8544
  248TIP3    H122379   5.701   2.712  -0.042 -0.7333 -0.1192 -0.1092
  248TIP3    H222380   5.714   2.638   0.089  1.2049 -0.6019 -0.5362
  249TIP3   OH222381   1.773   6.268   7.267  0.6483 -0.0256  0.5115
  249TIP3    H122382   1.801   6.197   7.208  0.8188 -0.2365  0.8447
  249TIP3    H222383   1.837   6.266   7.338  0.5329  0.3313  0.6251
  250TIP3   OH222384   4.863   2.237   0.190 -0.5013  0.4301 -0.0108
  250TIP3    H122385   4.787   2.198   0.234 -2.2018  0.6496 -2.5446
  250TIP3    H222386   4.899   2.166   0.136  0.0152  0.8220 -0.1921
  251TIP3   OH222387   1.204   2.667   7.520  0.7664 -0.1933  0.0457
  251TIP3    H122388   1.158   2.750   7.531  1.1275  0.0188 -0.0168
  251TIP3    H222389   1.143   2.612   7.472  0.1222 -0.3079  0.9700
  252TIP3   OH222390   1.510   3.272   1.029  0.6350 -0.2198  0.3167
  252TIP3    H122391   1.485   3.287   1.120 -0.3485 -0.2142  0.0526
  252TIP3    H222392   1.459   3.336   0.979  0.0391 -1.2149 -0.3793
  253TIP3   OH222393   3.684   3.191   0.131  0.0798  0.5016 -0.7036
  253TIP3    H122394   3.722   3.132   0.066 -1.0210 -0.2182 -0.7250
  253TIP3    H222395   3.690   3.142   0.214  0.3971  0.9310 -0.4667
  254TIP3   OH222396   6.228   6.202   0.757 -0.0214 -0.0106 -0.3439
  254TIP3    H122397   6.146   6.250   0.749  0.0737  0.2666  0.2673
  254TIP3    H222398   6.213   6.142   0.830  0.5473  0.5270  0.2328
  255TIP3   OH222399   0.187   3.727   1.608 -0.3341 -0.0888  0.3306
  255TIP3    H122400   0.139   3.807   1.586  0.2565  0.5145  1.1377
  255TIP3    H222401   0.148   3.698   1.691 -0.6760 -0.7568 -0.0584
  256TIP3   OH222402   2.417   3.274   2.046  0.0656  0.2589 -0.1927
  256TIP3    H122403   2.362   3.224   1.985  0.6926  0.1750 -0.7028
  256TIP3    H222404   2.488   3.307   1.992  1.0681 -0.4628  0.6386
  257TIP3   OH222405   0.590   1.057   6.958 -0.1009 -0.1743 -0.2639
  257TIP3    H122406   0.559   1.038   6.869  0.1667  0.3923 -0.4879
  257TIP3    H222407   0.542   1.137   6.982  0.9320  0.5389 -0.4943
  258TIP3   OH222408   2.186   2.207   0.931 -0.1675  0.7850 -0.0981
  258TIP3    H122409   2.241   2.284   0.942 -0.0160  0.9486 -1.7597
  258TIP3    H222410   2.229   2.156   0.862 -0.6063 -0.4700  0.5200
  259TIP3   OH222411   6.756   0.265   1.387  0.3287 -0.1936 -0.4876
  259TIP3    H122412   6.706   0.213   1.324 -0.2636  1.6378 -1.5969
  259TIP3    H222413   6.847   0.253   1.359  0.5664 -2.9433  1.0945
  260TIP3   OH222414   6.168   4.366   1.740  0.3442 -0.0027 -0.7711
  260TIP3    H122415   6.227   4.347   1.667 -0.0337 -3.3775 -0.3546
  260TIP3    H222416   6.131   4.452   1.719  0.5289 -0.6291 -4.3536
  261TIP3   OH222417   2.986   1.027   1.577 -0.8207 -0.6176 -0.0988
  261TIP3    H122418   3.037   1.032   1.658 -0.6304 -3.0532  0.0029
  261TIP3    H222419   2.896   1.047   1.603 -0.3324  1.5178  0.1230
  262TIP3   OH222420   0.818   2.222   1.564  0.8382  0.1629 -0.1360
  262TIP3    H122421   0.866   2.305   1.559  1.0162  0.0621 -0.1100
  262TIP3    H222422   0.755   2.226   1.492  0.1497  0.7610  0.4842
  263TIP3   OH222423   4.739   5.428   1.473 -0.1729 -0.9894  0.2710
  263TIP3    H122424   4.680   5.504   1.467 -0.5999 -1.3722 -0.6296
  263TIP3    H222425   4.711   5.371   1.401  1.4133 -1.1037 -0.2896
  264TIP3   OH222426   0.031   6.235   7.924 -0.1420 -0.0521 -0.0453
  264TIP3    H122427   0.012   6.163   7.985 -2.6470  1.4402  1.1126
  264TIP3    H222428  -0.008   6.207   7.841 -1.2042 -0.0180  0.4267
  265TIP3   OH222429   5.499   3.041   7.490 -0.0895  1.1897 -0.3391
  265TIP3    H122430   5.578   2.989   7.480 -0.3659  0.8095 -0.5618
  265TIP3    H222431   5.527   3.119   7.538 -0.1712 -0.4196  2.5718
  266TIP3   OH222432   1.111   0.435   7.412  0.0028  0.2173 -0.1764
  266TIP3    H122433   1.084   0.411   7.323 -0.2420  2.5941 -0.8003
  266TIP3    H222434   1.201   0.465   7.402  0.9335 -1.9457  0.8921
  267TIP3   OH222435   4.072   0.470   8.544 -0.1621  0.7437  0.1565
  267TIP3    H122436   4.114   0.450   8.628  0.9774  3.2399  0.2655
  267TIP3    H222437   4.142   0.461   8.479 -0.5441  0.7370 -0.2621
  268TIP3   OH222438   3.965   0.809   7.014 -0.1706 -0.0121  0.3075
  268TIP3    H122439   3.959   0.769   6.927 -1.3712  0.2565  0.2480
  268TIP3    H222440   3.892   0.870   7.017  1.8360  2.5502  0.2460
  269TIP3   OH222441   0.631   0.855   1.575 -0.1440 -0.1077  0.0122
  269TIP3    H122442   0.574   0.820   1.507 -0.4258 -0.2946  0.3347
  269TIP3    H222443   0.600   0.944   1.590 -1.3425 -0.6739  1.2089
  270TIP3   OH222444   4.850   4.253   8.197 -0.3026 -0.6987  0.3232
  270TIP3    H122445   4.860   4.303   8.278 -1.5099 -0.2230  0.2003
  270TIP3    H222446   4.878   4.313   8.128 -0.4015 -0.6916  0.2897
  271TIP3   OH222447   3.397   5.720   8.863 -0.1485 -0.3667 -0.6684
  271TIP3    H122448   3.375   5.746   8.953 -1.0998  0.3467 -1.0924
  271TIP3    H222449   3.356   5.634   8.853  0.9402 -0.9860 -0.0629
  272TIP3   OH222450   1.215   0.853   0.265  0.7322 -0.0823 -0.0884
  272TIP3    H122451   1.308   0.866   0.280  1.0835 -1.1361 -1.1673
  272TIP3    H222452   1.178   0.836   0.352  1.6930 -0.5273  0.2404
  273TIP3   OH222453   5.692   2.858   7.555  0.0744 -0.1864  0.4863
  273TIP3    H122454   5.655   2.772   7.572  0.6570 -0.2631  1.3995
  273TIP3    H222455   5.748   2.845   7.478 -1.5514 -0.1190 -0.7745
  274TIP3   OH222456   6.657   2.303   0.653  0.5401 -0.4355  0.2539
  274TIP3    H122457   6.648   2.216   0.613 -1.3085 -0.5633  0.8321
  274TIP3    H222458   6.585   2.307   0.716 -0.4687  2.1165 -0.8971
  275TIP3   OH222459   2.075   1.788   7.216 -0.5511  0.4522  0.1193
  275TIP3    H122460   2.063   1.877   7.248  0.2047  0.3105  0.8648
  275TIP3    H222461   2.102   1.798   7.125  2.2667  1.1831  0.9147
  276TIP3   OH222462   0.233   3.074   1.532  0.4293  0.2106  0.1714
  276TIP3    H122463   0.273   3.161   1.526  0.9542 -0.1201 -2.0794
  276TIP3    H222464   0.289   3.018   1.479 -2.0783 -0.6185 -1.8497
  277TIP3   OH222465   6.512   4.959   0.692 -0.0160 -0.2502 -0.0741
  277TIP3    H122466   6.598   4.973   0.653  0.0436  1.6752  0.6123
  277TIP3    H222467   6.510   4.866   0.714  1.3121 -0.6257 -1.3920
  278TIP3   OH222468   1.174   0.315   6.160  0.4190 -0.0262  0.0101
  278TIP3    H122469   1.142   0.292   6.247  1.0683  0.9224  0.5252
  278TIP3    H222470   1.096   0.341   6.112  0.1234 -0.0169  0.4918
  279TIP3   OH222471   1.541   0.109   1.811 -0.0224 -0.0314  0.3984
  279TIP3    H122472   1.446   0.093   1.807 -0.2097  1.1464 -0.5956
  279TIP3    H222473   1.570   0.062   1.888 -1.5425  0.1131  1.1001
  280TIP3   OH222474   2.461   4.557   0.646 -0.1046  0.0194  0.5068
  280TIP3    H122475   2.512   4.637   0.659  0.2037 -0.2738  1.1411
  280TIP3    H222476   2.455   4.518   0.733  0.9372 -1.3587 -0.0113
  281TIP3   OH222477   2.510   6.077   1.014 -0.1851 -0.3576 -0.2367
  281TIP3    H122478   2.540   6.029   0.936  0.7957  0.0623 -0.1400
  281TIP3    H222479   2.426   6.037   1.037 -0.4472 -0.5372 -1.4631
  282TIP3   OH222480   2.538   6.643   6.146  0.4072  0.5196 -0.3301
  282TIP3    H122481   2.601   6.641   6.218 -0.4205  2.3703  0.5039
  282TIP3    H222482   2.568   6.716   6.091  0.1708  0.0722 -1.0590
  283TIP3   OH222483   5.007   4.927   8.860 -0.2883  0.1935 -0.0345
  283TIP3    H122484   4.981   4.895   8.946 -1.3850  0.1609 -0.3585
  283TIP3    H222485   4.995   5.022   8.865 -1.6015  0.0710 -0.5358
  284TIP3   OH222486   4.514   4.631   7.318 -0.5535 -0.6240 -0.3803
  284TIP3    H122487   4.602   4.663   7.295 -1.8947  2.0634 -2.2894
  284TIP3    H222488   4.461   4.651   7.241 -3.9671  2.5051  2.4669
  285TIP3   OH222489   6.225   0.309   2.075 -0.4851  0.1862  0.2869
  285TIP3    H122490   6.273   0.229   2.096 -0.5468  0.9364  3.8636
  285TIP3    H222491   6.288   0.379   2.087 -0.6510  0.8346 -2.0588
  286TIP3   OH222492   3.877   0.774   8.729  0.4763  0.4926 -0.3950
  286TIP3    H122493   3.971   0.781   8.714  0.2476  0.9137 -1.7810
  286TIP3    H222494   3.855   0.684   8.706  0.4912  0.4757 -0.3430
  287TIP3   OH222495   3.711   1.263   6.441  0.4512  0.2418  0.2435
  287TIP3    H122496   3.740   1.323   6.373  1.9623  0.1455  0.7716
  287TIP3    H222497   3.737   1.176   6.409  1.2294  0.2029  0.9707
  288TIP3   OH222498   6.294   3.200   1.530  0.3449  0.5955  0.2124
  288TIP3    H122499   6.272   3.289   1.501 -0.0206  0.6531  0.6554
  288TIP3    H222500   6.384   3.186   1.501  1.5370  2.2502  2.7497
  289TIP3   OH222501   0.073   6.127   8.368 -0.0201 -0.3785 -0.1981
  289TIP3    H122502   0.074   6.220   8.347 -1.7232 -0.1949  0.4185
  289TIP3    H222503   0.165   6.105   8.385  0.8897  0.4601 -3.2826
  290TIP3   OH222504   0.224   0.866   1.714 -0.1021 -0.4749 -0.5442
  290TIP3    H122505   0.285   0.801   1.680 -0.3045 -0.9720  0.0125
  290TIP3    H222506   0.155   0.814   1.756  0.8467  0.0944  1.8666
  291TIP3   OH222507   1.305   0.716   1.288 -0.2115 -0.1162  0.5945
  291TIP3    H122508   1.256   0.720   1.371 -1.8607  1.0738 -0.3802
  291TIP3    H222509   1.392   0.687   1.313 -0.5214  0.6894  2.8241
  292TIP3   OH222510   4.374   2.101   0.126 -0.2128 -0.8278 -0.5108
  292TIP3    H122511   4.315   2.073   0.197 -1.4531  0.9151 -0.7737
  292TIP3    H222512   4.455   2.124   0.170 -1.0277  0.4037  0.4265
  293TIP3   OH222513   4.324   1.497   8.380  0.5896  0.5735  0.0054
  293TIP3    H122514   4.385   1.451   8.323  0.5165 -0.1033  0.4579
  293TIP3    H222515   4.274   1.554   8.322 -1.8955 -2.5896 -1.2153
  294TIP3   OH222516   3.821   4.653   0.007  0.8068 -0.5281 -0.4841
  294TIP3    H122517   3.748   4.679   0.063  1.6516 -0.3478  0.5802
  294TIP3    H222518   3.845   4.566   0.037  1.3346 -0.3880 -0.4820
  295TIP3   OH222519   1.670   2.997   0.032  0.0643  0.0203  0.1860
  295TIP3    H122520   1.621   3.043  -0.037  2.0061  3.0755  0.6507
  295TIP3    H222521   1.609   2.991   0.105 -0.8914  0.0244 -0.5976
  296TIP3   OH222522   1.476   0.827   1.560  0.0675 -0.2854  0.1194
  296TIP3    H122523   1.399   0.779   1.590 -0.3574 -0.6703 -1.5022
  296TIP3    H222524   1.511   0.868   1.639 -1.6174 -0.3556  0.9370
  297TIP3   OH222525   3.893   1.718   1.864  0.4893  0.3536 -0.2379
  297TIP3    H122526   3.909   1.624   1.867 -0.3317  0.2260  1.0005
  297TIP3    H222527   3.896   1.741   1.771  0.0544 -1.0045 -0.5988
  298TIP3   OH222528   2.786   1.761   0.662 -0.7734 -0.0286  0.2705
  298TIP3    H122529   2.735   1.738   0.740 -0.7100  0.2696  0.3978
  298TIP3    H222530   2.801   1.855   0.670 -1.4856  0.1644 -0.5283
  299TIP3   OH222531   0.214   5.736   7.816 -0.2961 -0.0925  0.4640
  299TIP3    H122532   0.232   5.819   7.771 -1.8134  0.3526  0.6259
  299TIP3    H222533   0.277   5.674   7.779 -0.4585  0.6509 -1.1206
  300TIP3   OH222534   3.384   5.404   7.315 -0.3853 -0.1594 -0.8490
  300TIP3    H122535   3.385   5.390   7.220  0.4213 -0.8460 -0.7449
  300TIP3    H222536   3.450   5.345   7.349 -1.8296 -1.1781  0.3215
  301TIP3   OH222537   1.665   1.054   0.210 -0.0481 -0.0444 -0.0648
  301TIP3    H122538   1.659   1.060   0.115 -0.6100  1.2748  0.0299
  301TIP3    H222539   1.717   1.131   0.235  0.3207 -0.5237  0.6843
  302TIP3   OH222540   0.260   1.415   7.855 -0.2142  0.1176 -0.2441
  302TIP3    H122541   0.224   1.388   7.940  2.5053  1.2353  1.4022
  302TIP3    H222542   0.236   1.507   7.847 -0.5009  0.0059 -0.7613
  303TIP3   OH222543   1.338   2.652   0.745  0.0743 -0.4810 -0.0323
  303TIP3    H122544   1.327   2.688   0.656 -0.2568  0.1142  0.2431
  303TIP3    H222545   1.394   2.576   0.733  0.1554 -0.3196 -0.7390
  304TIP3   OH222546   0.506   0.856   2.454  0.1378  0.3716  0.2021
  304TIP3    H122547   0.601   0.847   2.452  0.1097  0.1566 -0.4632
  304TIP3    H222548   0.488   0.938   2.408  0.0884  1.3477  1.8650
  305TIP3   OH222549   1.959   6.508   7.593  0.5487 -0.5355  0.2111
  305TIP3    H122550   1.865   6.515   7.577  0.8475 -0.3968 -1.7930
  305TIP3    H222551   1.994   6.593   7.566  1.2886 -0.7101  0.6074
  306TIP3   OH222552   5.244   2.132   8.298 -0.1448 -0.4917  0.0015
  306TIP3    H122553   5.321   2.131   8.354  0.8951 -0.7216 -1.3647
  306TIP3    H222554   5.216   2.040   8.295 -0.2800 -0.4590  0.2397
  307TIP3   OH222555   5.462   2.741   7.934  0.0098 -0.1664  0.8785
  307TIP3    H122556   5.534   2.696   7.888 -1.5045  0.1762 -2.0867
  307TIP3    H222557   5.390   2.678   7.933 -1.3086  1.2352 -0.9902
  308TIP3   OH222558   6.120   2.788   1.521  1.2258 -0.2894 -0.0368
  308TIP3    H122559   6.115   2.873   1.478  0.0160 -0.0231  0.5821
  308TIP3    H222560   6.166   2.806   1.603 -0.3264  0.1063  0.7928
  309TIP3   OH222561   1.795   3.167   7.835  0.1594  0.7105  0.0802
  309TIP3    H122562   1.863   3.160   7.769  0.5825 -1.3440  0.6564
  309TIP3    H222563   1.730   3.102   7.809 -0.4712  1.0409  0.7905
  310TIP3   OH222564   3.170   0.804   7.335  0.1624 -0.2192  0.1188
  310TIP3    H122565   3.086   0.787   7.379 -0.7557  1.7751 -0.7677
  310TIP3    H222566   3.160   0.763   7.249 -1.1185  2.3822 -1.0954
  311TIP3   OH222567   0.833   5.996   0.241  0.5486  0.0534 -0.3957
  311TIP3    H122568   0.855   5.941   0.316 -0.2027 -1.5110 -1.2693
  311TIP3    H222569   0.738   6.005   0.245  0.6667  1.3541 -0.2445
  312TIP3   OH222570   4.194   1.776   0.681 -0.3745 -0.0534 -0.1008
  312TIP3    H122571   4.148   1.697   0.709 -0.4492  0.2243  0.5813
  312TIP3    H222572   4.283   1.766   0.715 -0.0517 -0.3604 -0.9921
  313TIP3   OH222573   6.446   6.804   1.692 -0.8135 -0.0500 -0.2343
  313TIP3    H122574   6.530   6.835   1.658 -0.6099  0.6202  0.8477
  313TIP3    H222575   6.468   6.727   1.744 -0.8355  0.2254  0.1901
  314TIP3   OH222576   0.274   5.998   8.221 -0.1240  0.0967  0.5318
  314TIP3    H122577   0.231   5.943   8.287 -0.6145 -0.2976 -0.1112
  314TIP3    H222578   0.358   5.955   8.206  0.4102  0.7167  1.5884
  315TIP3   OH222579   5.605   5.417   1.172  1.3937  0.3144  0.4342
  315TIP3    H122580   5.516   5.384   1.183  1.3461  0.0716 -0.6065
  315TIP3    H222581   5.627   5.399   1.081  2.7270 -0.1524  0.8236
  316TIP3   OH222582   5.419   1.178   0.400  0.4226  0.2520 -0.4793
  316TIP3    H122583   5.339   1.143   0.360  1.3733 -0.1623 -2.0767
  316TIP3    H222584   5.393   1.263   0.435 -0.6417  0.2504 -1.2340
  317TIP3   OH222585   3.348   3.777   1.712  0.6870 -0.1960 -0.6150
  317TIP3    H122586   3.416   3.826   1.665  1.4289 -0.7758 -0.1691
  317TIP3    H222587   3.366   3.685   1.692 -0.0559 -0.3552 -0.5965
  318TIP3   OH222588   1.422   1.035   7.518 -0.0190 -0.1376  0.1261
  318TIP3    H122589   1.474   1.018   7.440  2.1813  1.6088  1.1084
  318TIP3    H222590   1.383   0.950   7.540 -0.4213 -0.7429 -2.5987
  319TIP3   OH222591   2.366   0.705   7.789 -0.0218  0.2129 -0.3776
  319TIP3    H122592   2.274   0.686   7.808  0.0572 -1.7177 -1.6579
  319TIP3    H222593   2.364   0.756   7.707  0.0143  1.2586  0.2578
  320TIP3   OH222594   1.548   4.072   1.447 -0.4577  0.1903  0.1266
  320TIP3    H122595   1.537   4.141   1.512  0.5238  0.5194 -0.0365
  320TIP3    H222596   1.533   4.115   1.363 -0.9747 -0.0612  0.0858
  321TIP3   OH222597   5.010   5.470   8.710 -0.2978 -0.1488 -0.0433
  321TIP3    H122598   4.933   5.518   8.740  0.3534  1.2118 -0.4582
  321TIP3    H222599   4.991   5.451   8.618 -1.2449 -2.1555  0.5301
  322TIP3   OH222600   0.592   3.076   0.389 -0.2986 -0.2390  0.2619
  322TIP3    H122601   0.639   3.120   0.318  2.2600  1.7996  2.9629
  322TIP3    H222602   0.620   2.984   0.383  0.8233  0.1355 -0.6146
  323TIP3   OH222603   0.597   5.674   0.864 -0.4527  0.0894 -0.0837
  323TIP3    H122604   0.558   5.728   0.796  0.0388  1.1475  0.4524
  323TIP3    H222605   0.532   5.606   0.881  0.1001 -1.2767 -2.7980
  324TIP3   OH222606   6.655   1.116   8.863 -0.3166 -0.3684 -0.2916
  324TIP3    H122607   6.637   1.059   8.788 -0.7335 -0.5381 -0.0634
  324TIP3    H222608   6.596   1.086   8.931  1.8360 -1.9459  1.0197
  325TIP3   OH222609   6.347   1.372   0.616  0.0971  0.4940 -0.5402
  325TIP3    H122610   6.366   1.428   0.691  1.2066 -0.8637  0.2382
  325TIP3    H222611   6.251   1.372   0.610  0.0039  0.8952  0.6694
  326TIP3   OH222612   5.171   3.564   0.118  1.2437 -0.0811 -0.0073
  326TIP3    H122613   5.103   3.590   0.181  0.6625 -1.0616 -0.1962
  326TIP3    H222614   5.139   3.596   0.034 -1.0089 -3.7270 -0.7724
  327TIP3   OH222615   3.979   0.807   0.905 -0.2194  0.2025 -1.0009
  327TIP3    H122616   4.001   0.827   0.814 -0.0378 -0.6621 -1.1588
  327TIP3    H222617   4.005   0.715   0.916  3.6330  1.2890  1.0535
  328TIP3   OH222618   0.369   5.810   0.336  0.1474 -0.1512  0.1385
  328TIP3    H122619   0.437   5.778   0.395  2.4825  2.9640 -0.5940
  328TIP3    H222620   0.289   5.810   0.389  1.1720 -1.7192  1.7996
  329TIP3   OH222621   1.383   1.048   0.523 -0.1027  0.1552 -0.1186
  329TIP3    H122622   1.393   1.058   0.429 -1.0919 -0.7123 -0.3448
  329TIP3    H222623   1.461   0.999   0.550 -1.0725 -2.0400 -0.9823
  330TIP3   OH222624   5.636   6.278   1.768  0.3053  0.8148 -0.1112
  330TIP3    H122625   5.643   6.294   1.861 -1.5770 -0.1966  0.2731
  330TIP3    H222626   5.559   6.221   1.759 -0.2112  1.7382 -2.3641
  331TIP3   OH222627   6.276   5.834   0.506 -0.2289  0.3016 -0.0469
  331TIP3    H122628   6.339   5.762   0.501  1.8862  2.0724 -4.2028
  331TIP3    H222629   6.190   5.792   0.499  0.7820 -1.8879 -0.0830
  332TIP3   OH222630   1.036   6.101   8.555 -0.1672  0.3888  0.0826
  332TIP3    H122631   1.101   6.033   8.538 -1.5825 -1.3791  1.2640
  332TIP3    H222632   1.080   6.163   8.614  0.4795 -0.7764  0.8588
  333TIP3   OH222633   6.622   4.989   1.609 -0.5609 -0.3601  0.0116
  333TIP3    H122634   6.714   4.993   1.637 -0.7578 -1.1727  0.8188
  333TIP3    H222635   6.609   5.069   1.558 -0.2908  1.4084  2.5325
  334TIP3   OH222636   5.786   4.160   6.780  0.3055 -0.0722  0.4140
  334TIP3    H122637   5.728   4.165   6.703  0.7267 -1.5717 -0.0366
  334TIP3    H222638   5.776   4.244   6.823  1.3816  1.5364 -2.2518
  335TIP3   OH222639   3.792   4.494   7.998  0.5697  0.0263  0.6159
  335TIP3    H122640   3.864   4.527   8.053  0.8012  1.2736 -0.3993
  335TIP3    H222641   3.828   4.492   7.910  0.0511 -1.5182  0.4061
  336TIP3   OH222642   1.747   4.044   8.851  0.4968  0.5879  0.2904
  336TIP3    H122643   1.662   4.002   8.834  1.0948 -0.6386  0.2395
  336TIP3    H222644   1.808   3.971   8.861  1.3638  1.4331  1.3499
  337TIP3   OH222645   1.097   0.369   7.140  0.7029 -0.0525 -0.0337
  337TIP3    H122646   1.128   0.435   7.078 -2.1162  1.0509 -0.4427
  337TIP3    H222647   1.002   0.376   7.136  0.2764 -3.7135  0.4547
  338TIP3   OH222648   5.865   1.159   7.781 -0.0633 -0.9101  0.0650
  338TIP3    H122649   5.834   1.230   7.837  0.2333  0.0793 -0.9927
  338TIP3    H222650   5.933   1.200   7.727 -1.1719 -1.5044 -1.8693
  339TIP3   OH222651   2.783   1.445   8.729 -0.0341  0.0353 -0.2874
  339TIP3    H122652   2.740   1.370   8.688 -1.3649  0.3993  0.4047
  339TIP3    H222653   2.789   1.510   8.659 -0.7816  0.0409 -0.3521
  340TIP3   OH222654   2.371   6.094   8.490 -0.0336 -0.2450  0.0296
  340TIP3    H122655   2.321   6.029   8.540  1.1678  0.1702  1.8507
  340TIP3    H222656   2.348   6.178   8.530  0.8669  0.1089 -0.1738
  341TIP3   OH222657   2.217   4.853   0.701  0.2036  0.3953  0.0535
  341TIP3    H122658   2.185   4.766   0.726  0.9215  0.4169  1.1134
  341TIP3    H222659   2.240   4.895   0.784  2.8090  0.4287 -0.6072
  342TIP3   OH222660   0.725   2.807   2.473  0.0140  0.2628 -0.3315
  342TIP3    H122661   0.657   2.765   2.421  1.1101 -0.4189 -1.2516
  342TIP3    H222662   0.708   2.901   2.462 -0.8120  0.1077 -0.4871
  343TIP3   OH222663   3.474   3.853   1.189 -0.5744  0.2260 -0.0304
  343TIP3    H122664   3.387   3.857   1.227  0.4745  2.0351  2.4513
  343TIP3    H222665   3.525   3.800   1.251  0.1200 -0.9685 -1.5302
  344TIP3   OH222666   6.504   3.592   1.602 -0.8460 -0.0587  0.2845
  344TIP3    H122667   6.463   3.528   1.661 -0.9176  0.4357  0.7841
  344TIP3    H222668   6.484   3.677   1.642 -0.3776  0.2516 -0.1333
  345TIP3   OH222669   3.585   0.953   7.203  0.1515 -0.4522  0.1019
  345TIP3    H122670   3.498   0.971   7.239 -0.2913 -1.7719 -0.2641
  345TIP3    H222671   3.635   0.920   7.278  0.1458 -0.3110  0.1685
  346TIP3   OH222672   0.276   0.706   8.611 -0.4722  0.0138 -0.3919
  346TIP3    H122673   0.327   0.756   8.675  0.3345  0.8964 -1.6785
  346TIP3    H222674   0.196   0.681   8.658  0.1267  0.5772  0.9682
  347TIP3   OH222675   3.698   5.650   7.868  0.8988  0.0496 -0.1816
  347TIP3    H122676   3.730   5.689   7.950 -1.8006 -1.2339  1.6384
  347TIP3    H222677   3.707   5.556   7.882 -1.0923 -0.2412 -0.6389
  348TIP3   OH222678   6.519   1.254   1.939  0.6171 -0.0687 -0.0808
  348TIP3    H122679   6.484   1.227   1.854  0.7503 -0.1198 -0.1204
  348TIP3    H222680   6.514   1.175   1.993  1.3375 -0.2756 -0.3036
  349TIP3   OH222681   3.151   0.968   7.021 -0.0902  0.1847  0.7064
  349TIP3    H122682   3.107   1.022   7.086  0.0737  0.3895  0.6472
  349TIP3    H222683   3.113   0.881   7.032 -1.3930  0.6096 -0.1469
  350TIP3   OH222684   5.852   3.295   7.305  0.1172  0.4733 -0.1107
  350TIP3    H122685   5.909   3.372   7.296  0.3608  0.1942 -0.9808
  350TIP3    H222686   5.913   3.222   7.315 -0.1034  0.5060  1.9823
  351TIP3   OH222687   1.268   6.118   1.314  0.2915  0.3040 -0.5928
  351TIP3    H122688   1.323   6.040   1.305  0.7555  0.2902  1.7894
  351TIP3    H222689   1.256   6.127   1.408 -1.9359  1.6283 -0.9629
  352TIP3   OH222690   3.676   6.640   7.255  0.8635  0.1626 -0.1471
  352TIP3    H122691   3.724   6.704   7.307  0.4325  0.2793  0.1119
  352TIP3    H222692   3.638   6.581   7.320 -0.9285  1.1726 -0.2194
  353TIP3   OH222693   5.656   6.596   7.649 -0.3981  0.3167  0.4143
  353TIP3    H122694   5.675   6.562   7.561 -0.1351  0.0106  0.5884
  353TIP3    H222695   5.647   6.690   7.637  2.6287  0.6897  0.5431
  354TIP3   OH222696   5.463   4.171   0.030 -0.0965 -0.3547  0.0230
  354TIP3    H122697   5.418   4.123  -0.039 -1.2897  1.1332 -0.2916
  354TIP3    H222698   5.412   4.251   0.041  1.7532  0.8232  0.5701
  355TIP3   OH222699   1.116   3.923   8.775 -0.1258 -0.0983  0.0317
  355TIP3    H122700   1.029   3.963   8.780  0.0553  0.4254 -0.8762
  355TIP3    H222701   1.110   3.863   8.700  0.3338  0.0275 -0.1054
  356TIP3   OH222702   3.074   6.462   1.170  0.4274  0.0133  0.5276
  356TIP3    H122703   3.145   6.491   1.113  0.3411  0.5027  0.6652
  356TIP3    H222704   3.004   6.526   1.158 -0.6864 -1.4028 -0.8993
  357TIP3   OH222705   3.799   2.039   7.740 -0.1137  0.4755  0.3244
  357TIP3    H122706   3.819   2.123   7.782  0.0963  0.9456 -0.6879
  357TIP3    H222707   3.759   1.987   7.810 -0.5311  1.5171  0.8931
  358TIP3   OH222708   1.816   3.726   0.780  0.3802 -0.7892  0.1737
  358TIP3    H122709   1.749   3.793   0.793  0.5639 -0.1032 -2.0312
  358TIP3    H222710   1.871   3.731   0.858  0.3797  1.6407  0.0720
  359TIP3   OH222711   1.355   0.559   7.400 -0.1370 -1.2706 -0.1730
  359TIP3    H122712   1.429   0.530   7.454  0.0458 -2.0591 -0.8142
  359TIP3    H222713   1.391   0.562   7.311 -0.4211  0.0510 -0.2529
  360TIP3   OH222714   0.017   1.342   1.857  0.1040  0.4614  0.5778
  360TIP3    H122715   0.026   1.428   1.814 -1.1223  0.8268  1.0176
  360TIP3    H222716   0.073   1.284   1.805 -0.2891  1.1782 -0.6928
  361TIP3   OH222717   6.391   5.195   8.522  0.8721  0.2593  0.3178
  361TIP3    H122718   6.387   5.108   8.484 -2.7866  0.3186  0.2094
  361TIP3    H222719   6.396   5.180   8.616 -0.0129 -0.1234  0.3170
  362TIP3   OH222720   5.352   5.540   6.943  0.2326 -0.1900  0.3988
  362TIP3    H122721   5.346   5.621   6.994  1.0961  0.2528 -0.1794
  362TIP3    H222722   5.429   5.495   6.977  0.8834  0.1629 -0.5483
  363TIP3   OH222723   1.414   5.218   6.563 -0.7036  0.2761  0.4033
  363TIP3    H122724   1.415   5.122   6.567 -0.7407  0.3176  1.6671
  363TIP3    H222725   1.355   5.245   6.633  2.1413  1.3100  2.5948
  364TIP3   OH222726   5.990   0.771   7.168 -0.0791 -0.9306 -0.2209
  364TIP3    H122727   5.920   0.816   7.217  0.3917 -1.2073  0.7203
  364TIP3    H222728   5.943   0.722   7.100 -0.8252 -1.1959  0.4607
  365TIP3   OH222729   2.363   0.809   2.039 -0.1522 -0.3176 -0.5001
  365TIP3    H122730   2.373   0.854   2.124 -2.1292 -0.2817 -0.2260
  365TIP3    H222731   2.451   0.810   2.001  0.6046  0.4994  1.1346
  366TIP3   OH222732   3.704   2.065   6.362  0.2179 -0.0104  0.1186
  366TIP3    H122733   3.632   2.005   6.341  0.6463 -0.1792 -0.9528
  366TIP3    H222734   3.766   2.053   6.290 -0.1929  2.5324 -0.7402
  367TIP3   OH222735   4.390   1.125   7.754 -0.6476 -0.5073  0.3697
  367TIP3    H122736   4.381   1.151   7.662 -1.5845 -1.0394  0.2962
  367TIP3    H222737   4.335   1.048   7.762 -0.0928 -0.8226  1.2459
  368TIP3   OH222738   2.904   6.591   7.993  0.0258 -0.2981  0.2974
  368TIP3    H122739   2.932   6.532   8.063 -0.1308 -1.3267 -0.4730
  368TIP3    H222740   2.969   6.578   7.924  0.1424  0.6502  0.2273
  369TIP3   OH222741   1.704   0.412   8.392 -0.2446  0.3774 -0.2574
  369TIP3    H122742   1.692   0.336   8.448  1.0030  0.1697 -0.2481
  369TIP3    H222743   1.616   0.450   8.385 -0.7402 -0.5909  0.3881
  370TIP3   OH222744   6.553   0.515   0.821  0.3718 -0.2324  0.3786
  370TIP3    H122745   6.628   0.571   0.800 -1.0259  1.5975  0.0034
  370TIP3    H222746   6.582   0.427   0.797  2.2762  0.4424 -0.0500
  371TIP3   OH222747   2.959   2.599   0.162 -0.3529  0.1529  0.1919
  371TIP3    H122748   2.961   2.534   0.232  1.2124  0.6754  0.6762
  371TIP3    H222749   2.921   2.677   0.204 -0.9995 -0.0468 -0.0199
  372TIP3   OH222750   1.763   1.744   1.150  0.4390  0.0141  0.0472
  372TIP3    H122751   1.796   1.833   1.160  0.5498 -0.2017  2.1334
  372TIP3    H222752   1.672   1.749   1.179  0.5106 -0.5734  0.3921
  373TIP3   OH222753   1.081   4.835   8.459  0.0140  0.3764 -0.4825
  373TIP3    H122754   1.004   4.810   8.511  1.1272 -0.3780  0.8696
  373TIP3    H222755   1.046   4.890   8.390 -1.6976  0.3929  0.3434
  374TIP3   OH222756   5.543   3.131   1.373 -0.0675 -0.2213  0.3882
  374TIP3    H122757   5.551   3.225   1.392  0.5641 -0.6246  2.4386
  374TIP3    H222758   5.450   3.118   1.354 -0.0211  0.9303 -0.7681
  375TIP3   OH222759   2.612   6.257   7.091  0.3756 -0.6471 -0.1738
  375TIP3    H122760   2.592   6.207   7.171  2.0967  0.3776  0.9662
  375TIP3    H222761   2.535   6.245   7.035 -0.7781 -1.6010  1.5290
  376TIP3   OH222762   1.665   4.646   2.299 -0.5455 -0.3407  0.2734
  376TIP3    H122763   1.602   4.574   2.303 -0.7003 -0.4903 -2.4115
  376TIP3    H222764   1.750   4.603   2.307 -0.6920 -0.2428  3.0238
  377TIP3   OH222765   2.519   3.077   7.432 -0.3488  0.1484  0.4534
  377TIP3    H122766   2.467   3.155   7.448 -0.7439 -0.2293  1.0414
  377TIP3    H222767   2.607   3.100   7.462 -0.1797  0.7634 -0.4764
  378TIP3   OH222768   5.520   1.909   0.740  0.1607 -0.5531  0.4040
  378TIP3    H122769   5.565   1.970   0.681  0.1979  0.0850  1.0862
  378TIP3    H222770   5.433   1.945   0.751 -0.2682 -1.3525 -0.2572
  379TIP3   OH222771   0.797   5.573   0.633 -0.4095  0.2068 -0.1771
  379TIP3    H122772   0.765   5.488   0.662 -0.4402 -0.5026 -2.1504
  379TIP3    H222773   0.756   5.636   0.693  1.0919 -1.2191  2.5651
  380TIP3   OH222774   0.413   0.598   0.067 -0.4805  0.3414  0.0945
  380TIP3    H122775   0.320   0.618   0.078 -1.0799 -0.8587 -2.1606
  380TIP3    H222776   0.427   0.520   0.122 -0.7130  0.6969  0.6685
  381TIP3   OH222777   4.928   4.967   0.809  0.0531 -0.1643  0.0716
  381TIP3    H122778   4.929   4.915   0.890 -0.4900 -0.1426  0.0942
  381TIP3    H222779   5.014   5.009   0.807 -0.2286  0.4857  1.0615
  382TIP3   OH222780   0.552   3.341   6.104  0.5299  0.3115 -0.3892
  382TIP3    H122781   0.486   3.353   6.172 -1.1890  0.3797 -1.9946
  382TIP3    H222782   0.543   3.249   6.077  1.3831  0.2066 -0.3545
  383TIP3   OH222783   5.691   3.902   6.926 -0.5428 -0.0968  0.4717
  383TIP3    H122784   5.745   3.906   6.848 -0.1455  2.8906  0.7985
  383TIP3    H222785   5.747   3.862   6.992  0.6253  1.1963  0.2964
  384TIP3   OH222786   2.742   2.443   1.100  0.4741 -0.1615  0.1939
  384TIP3    H122787   2.831   2.478   1.102 -0.7645  3.3947  0.0781
  384TIP3    H222788   2.722   2.435   1.007  0.1208  0.7327  0.1836
  385TIP3   OH222789   3.790   4.748   7.657  0.5453 -0.3902 -0.0421
  385TIP3    H122790   3.872   4.698   7.650  0.7199 -0.0785 -0.2250
  385TIP3    H222791   3.753   4.746   7.569  1.5446  1.4872 -0.5568
  386TIP3   OH222792   5.353   2.454   6.690  0.6782 -0.3515 -0.3026
  386TIP3    H122793   5.380   2.488   6.605  2.0193 -0.1989  0.1622
  386TIP3    H222794   5.261   2.481   6.699  0.6280 -0.0622 -1.5300
  387TIP3   OH222795   6.132   5.419   2.187  0.2010 -0.0200  0.9003
  387TIP3    H122796   6.194   5.491   2.184 -1.8657  1.8428 -1.2492
  387TIP3    H222797   6.178   5.345   2.147  0.4973  1.9037 -2.7188
  388TIP3   OH222798   1.147   6.745   7.111  0.2990  0.1338 -0.2953
  388TIP3    H122799   1.097   6.818   7.074  0.5762  0.6047  0.2326
  388TIP3    H222800   1.238   6.761   7.085  0.3617 -0.0283 -0.1821
  389TIP3   OH222801   2.873   5.922   8.650  0.1603  0.3712 -0.2225
  389TIP3    H122802   2.866   5.985   8.722  0.0188 -0.6636  0.6864
  389TIP3    H222803   2.791   5.931   8.602 -1.6464 -1.7942  2.1686
  390TIP3   OH222804   5.519   1.282   0.686 -0.2078  0.0500 -0.1186
  390TIP3    H122805   5.595   1.337   0.701  2.2703 -2.9996 -0.3954
  390TIP3    H222806   5.490   1.257   0.774 -2.1872  2.5986  0.0807
  391TIP3   OH222807   6.359   4.697   2.208  0.3014  0.4086 -0.6023
  391TIP3    H122808   6.340   4.782   2.249  0.9948  0.5208 -0.5130
  391TIP3    H222809   6.355   4.634   2.280  0.7169  0.4954 -0.5017
  392TIP3   OH222810   5.539   3.345   8.257 -0.0257 -0.4841  0.0558
  392TIP3    H122811   5.619   3.354   8.309 -0.3012  1.5939  0.2097
  392TIP3    H222812   5.481   3.413   8.291 -1.6337 -1.5187 -0.4984
  393TIP3   OH222813   2.680   0.111   2.219  0.3867 -0.3217  0.0416
  393TIP3    H122814   2.745   0.108   2.289  1.1925  0.1095 -0.6808
  393TIP3    H222815   2.721   0.068   2.145 -0.0036  0.2885 -0.5428
  394TIP3   OH222816   1.224   2.072   1.241 -0.1403  0.4024 -0.5813
  394TIP3    H122817   1.296   2.124   1.204 -0.0448  1.0938  0.5096
  394TIP3    H222818   1.161   2.137   1.271 -0.3143 -0.1170  0.2350
  395TIP3   OH222819   5.825   5.327   6.868  0.1677  0.4082  0.1890
  395TIP3    H122820   5.854   5.370   6.948  0.4647  0.0732  0.2646
  395TIP3    H222821   5.736   5.297   6.887  0.2595  0.2796  0.4060
  396TIP3   OH222822   5.330   5.207   7.916  0.7522 -0.1244  0.0189
  396TIP3    H122823   5.380   5.246   7.844  0.9425  0.1428  0.2958
  396TIP3    H222824   5.254   5.264   7.927  1.5947  0.8293  1.1617
  397TIP3   OH222825   3.351   3.037   6.528  0.1401 -0.2133 -0.4075
  397TIP3    H122826   3.307   2.953   6.515 -0.1300  0.0009 -0.8951
  397TIP3    H222827   3.325   3.064   6.616  0.0605 -0.5398 -0.3281
  398TIP3   OH222828   3.865   0.625   1.827  0.1884  0.1123 -0.1607
  398TIP3    H122829   3.908   0.577   1.898  0.3494  1.3659  0.6211
  398TIP3    H222830   3.920   0.702   1.812  0.4664 -0.3989 -2.0625
  399TIP3   OH222831   0.137   1.861   0.389 -0.1213  0.2290 -0.7229
  399TIP3    H122832   0.104   1.949   0.408 -1.1976 -0.0941 -1.0271
  399TIP3    H222833   0.222   1.876   0.347  0.4581  1.0720  0.6499
  400TIP3   OH222834   4.039   3.567   8.405  0.6649 -0.0647 -0.0100
  400TIP3    H122835   3.980   3.627   8.450  1.1599  0.9131 -0.6401
  400TIP3    H222836   4.114   3.557   8.463  0.1262 -0.9212  0.5681
  401TIP3   OH222837   2.254   5.721   7.716 -0.0840 -0.8136  0.1632
  401TIP3    H122838   2.224   5.645   7.765 -1.7382  0.1235  0.6848
  401TIP3    H222839   2.264   5.689   7.626 -1.7285 -1.4432  0.1687
  402TIP3   OH222840   4.640   3.357   8.616 -0.0923 -0.2053 -0.5128
  402TIP3    H122841   4.629   3.323   8.705  1.1162 -0.0184 -0.2687
  402TIP3    H222842   4.710   3.421   8.624 -0.6890  0.5799 -1.4206
  403TIP3   OH222843   0.039   1.257   8.245 -0.2610  0.6494 -0.3460
  403TIP3    H122844   0.015   1.166   8.231 -1.7151  0.8178  0.8153
  403TIP3    H222845   0.044   1.294   8.156 -0.4984 -0.3417 -0.7909
  404TIP3   OH222846   6.808   2.524   6.940  0.3398  0.2758  0.0124
  404TIP3    H122847   6.822   2.493   6.850  0.3767 -3.9997  1.2768
  404TIP3    H222848   6.896   2.529   6.978  0.2462  1.0649  0.1530
  405TIP3   OH222849   3.278   1.773   1.635 -0.3951  0.4148  0.6368
  405TIP3    H122850   3.302   1.824   1.713  2.3292  0.1777  0.0543
  405TIP3    H222851   3.362   1.745   1.599 -1.5107  0.9264 -2.6638
  406TIP3   OH222852   5.676   2.625   7.814 -0.2409 -0.0418  0.2648
  406TIP3    H122853   5.692   2.588   7.727  1.9186 -0.9038  0.9465
  406TIP3    H222854   5.645   2.552   7.866  0.9541 -0.1827  0.8204
  407TIP3   OH222855   3.173   4.723   0.634  0.2335  0.1410  0.4068
  407TIP3    H122856   3.263   4.731   0.665  0.0641  0.9818  0.7039
  407TIP3    H222857   3.127   4.797   0.673 -0.5667 -0.2120  0.1669
  408TIP3   OH222858   4.281   0.863   7.809 -0.1722 -0.2928  0.7848
  408TIP3    H122859   4.299   0.870   7.902 -1.1389 -2.6704  1.2272
  408TIP3    H222860   4.349   0.803   7.776 -1.1732 -1.2688  0.4494
  409TIP3   OH222861   6.014   0.893   7.629 -0.4160 -0.4433 -0.6319
  409TIP3    H122862   5.969   0.891   7.714  0.5988  1.8827  0.0222
  409TIP3    H222863   5.949   0.859   7.568 -2.4585  1.1149  0.5513
  410TIP3   OH222864   4.449   1.016   6.905  0.4402  0.4118  0.4326
  410TIP3    H122865   4.485   1.098   6.871 -1.9053  0.6410 -1.7836
  410TIP3    H222866   4.445   0.958   6.828 -3.1486  0.2190  0.6192
  411TIP3   OH222867   6.257   5.444   0.301  0.8763  0.4233  0.2950
  411TIP3    H122868   6.187   5.385   0.328  1.9670 -1.4656 -0.8634
  411TIP3    H222869   6.305   5.463   0.381  2.2990 -2.7309  0.3168
  412TIP3   OH222870   0.744   0.740   7.534  0.6191  0.2638  0.4090
  412TIP3    H122871   0.828   0.709   7.501  0.5939  0.6231  0.0106
  412TIP3    H222872   0.763   0.826   7.571  0.3300  0.5487 -0.1091
  413TIP3   OH222873   6.058   4.578   0.210 -0.9002  0.5068 -0.4753
  413TIP3    H122874   6.061   4.516   0.137 -0.7700  0.6326 -0.5775
  413TIP3    H222875   6.098   4.531   0.283 -0.2837  0.6691 -0.7021
  414TIP3   OH222876   6.618   3.832   1.222  0.3471  0.3855 -0.4256
  414TIP3    H122877   6.613   3.887   1.144  0.9760 -0.5677 -1.1625
  414TIP3    H222878   6.677   3.761   1.198 -0.8117 -0.8957  0.3237
  415TIP3   OH222879   6.061   4.773   7.925 -0.1129 -0.6852  0.1339
  415TIP3    H122880   5.979   4.779   7.973 -0.4894  1.8225 -0.7037
  415TIP3    H222881   6.038   4.730   7.843 -0.7902  0.7696 -0.4547
  416TIP3   OH222882   6.403   3.495   7.754  0.3745  0.5717  0.1362
  416TIP3    H122883   6.308   3.493   7.768  0.3133  0.5866 -0.2649
  416TIP3    H222884   6.426   3.406   7.729  0.3198  0.7808 -0.6850
  417TIP3   OH222885   6.573   2.648   8.090  0.5918  0.2549 -0.2450
  417TIP3    H122886   6.649   2.592   8.073  1.1197  0.6568  0.7237
  417TIP3    H222887   6.498   2.592   8.072  1.1164 -0.4344 -0.3294
  418TIP3   OH222888   2.263   4.431   6.636  0.4536 -0.3432  0.0541
  418TIP3    H122889   2.346   4.426   6.589  0.9293 -2.8537  0.9823
  418TIP3    H222890   2.202   4.383   6.581 -0.3256  1.1515 -0.4310
  419TIP3   OH222891   4.181   4.904   0.484 -0.8090 -0.1681 -0.0654
  419TIP3    H122892   4.172   4.878   0.576 -2.6320  2.0665  0.5149
  419TIP3    H222893   4.130   4.839   0.436  0.6459 -1.7013  0.3880
  420TIP3   OH222894   6.204   0.515   0.983  0.4021  0.1472  0.3710
  420TIP3    H122895   6.270   0.583   0.975 -2.3200  2.9878  0.0703
  420TIP3    H222896   6.159   0.534   1.065 -1.5699 -0.1095 -0.5721
  421TIP3   OH222897   2.204   5.266   7.181 -0.2658  0.0153 -0.2056
  421TIP3    H122898   2.151   5.206   7.233 -1.5347 -1.1150 -2.6232
  421TIP3    H222899   2.140   5.317   7.131  0.8754  0.7160 -0.9931
  422TIP3   OH222900   4.106   4.325   7.195 -0.2439 -0.0058  0.1127
  422TIP3    H122901   4.160   4.340   7.273  2.4277  0.8468 -1.7405
  422TIP3    H222902   4.151   4.254   7.150 -1.6237 -0.3359 -0.7636
  423TIP3   OH222903   4.912   0.417   8.621 -1.1763 -0.1500  0.1335
  423TIP3    H122904   4.925   0.400   8.714 -1.9157  0.3706  0.3442
  423TIP3    H222905   4.838   0.478   8.618  0.0313  1.3447 -0.6894
  424TIP3   OH222906   6.785   0.457   8.523  0.1049 -0.0827  0.3563
  424TIP3    H122907   6.742   0.393   8.466  1.8486  0.0570 -1.2150
  424TIP3    H222908   6.859   0.410   8.560  1.3200  0.9339 -0.6981
  425TIP3   OH222909   4.086   5.621   7.457  0.6326  0.2453  0.3927
  425TIP3    H122910   4.112   5.713   7.471 -2.4156  1.5364 -1.4834
  425TIP3    H222911   4.029   5.602   7.531  1.5960 -0.3480  1.0078
  426TIP3   OH222912   4.959   1.789   8.462  0.0136 -0.3557  0.3285
  426TIP3    H122913   4.949   1.779   8.557  0.9591 -1.2202  0.3503
  426TIP3    H222914   4.900   1.862   8.440 -0.3917 -0.2840  1.5348
  427TIP3   OH222915   6.476   6.234   6.806  0.3235  0.4488 -0.6731
  427TIP3    H122916   6.520   6.251   6.889 -0.8058 -3.2430  0.8937
  427TIP3    H222917   6.486   6.140   6.792 -2.2603  0.3902 -3.0864
  428TIP3   OH222918   0.862   6.646   7.193  0.2284 -0.0021 -0.2520
  428TIP3    H122919   0.829   6.732   7.166  0.7189 -0.0685 -1.1010
  428TIP3    H222920   0.790   6.606   7.240 -0.6285  0.1938 -1.3533
  429TIP3   OH222921   0.926   4.301   2.520 -0.2074  0.0224 -0.3084
  429TIP3    H122922   0.876   4.237   2.469 -0.4353 -2.6129  2.8673
  429TIP3    H222923   0.860   4.362   2.553 -0.6757 -0.6655  0.0630
  430TIP3   OH222924   2.699   3.216   8.717  0.1847 -0.3488 -0.4240
  430TIP3    H122925   2.730   3.270   8.645  1.4151 -0.1225  0.2460
  430TIP3    H222926   2.681   3.130   8.677  0.2669 -0.0574 -1.0978
  431TIP3   OH222927   4.984   2.457   8.158 -0.3793  0.4962 -0.6263
  431TIP3    H122928   4.950   2.456   8.069  0.9789  0.1616 -1.1574
  431TIP3    H222929   5.054   2.523   8.156  1.2957 -1.2109 -0.4546
  432TIP3   OH222930   0.342   5.299   2.267 -0.4089  0.2873  0.0381
  432TIP3    H122931   0.322   5.380   2.220 -1.7058 -0.3089 -0.5108
  432TIP3    H222932   0.430   5.276   2.238 -1.0344  0.1225 -1.9210
  433TIP3   OH222933   4.692   4.429   1.603 -0.0312 -0.2949  0.1204
  433TIP3    H122934   4.740   4.378   1.670  2.2142  0.2726 -0.9585
  433TIP3    H222935   4.708   4.520   1.627  1.0840 -0.0847 -1.3501
  434TIP3   OH222936   5.467   6.312   0.305  0.0605 -0.1194 -0.0903
  434TIP3    H122937   5.470   6.323   0.209 -0.0279  2.6677  0.1291
  434TIP3    H222938   5.388   6.262   0.321 -0.4463  0.1966 -1.4503
  435TIP3   OH222939   1.973   6.371   0.640  0.2384 -0.3736 -0.7164
  435TIP3    H122940   1.909   6.311   0.600 -0.4403 -0.2535  0.1540
  435TIP3    H222941   2.056   6.348   0.599 -0.5146  0.1200 -2.5941
  436TIP3   OH222942   2.111   3.018   7.447 -0.2561 -0.2219 -0.3243
  436TIP3    H122943   2.173   2.947   7.462  0.3120  0.0111 -1.4185
  436TIP3    H222944   2.091   3.013   7.353 -0.1470  1.0835 -0.4355
  437TIP3   OH222945   0.558   0.958   7.531  0.3059 -1.0100 -0.3127
  437TIP3    H122946   0.600   0.910   7.460  0.0577  0.4472 -1.5059
  437TIP3    H222947   0.477   0.992   7.492  1.2401  1.7227 -0.0710
  438TIP3   OH222948   2.233   1.297   8.065 -0.3045  0.4391  0.5017
  438TIP3    H122949   2.286   1.303   8.144 -2.2527 -1.6815  2.1025
  438TIP3    H222950   2.290   1.255   8.001  0.5663 -0.0139  1.5491
  439TIP3   OH222951   2.971   5.881   2.103  0.6163 -0.8545 -0.3910
  439TIP3    H122952   3.017   5.853   2.182 -0.6574  0.1664  0.7485
  439TIP3    H222953   3.024   5.952   2.068 -1.3011  2.2383  2.4362
  440TIP3   OH222954   3.814   5.392   8.322 -0.8991 -0.3130  0.3439
  440TIP3    H122955   3.835   5.368   8.412  0.8775 -2.6235 -0.5722
  440TIP3    H222956   3.738   5.338   8.300 -0.0166 -1.4077 -0.1444
  441TIP3   OH222957   1.867   4.501   0.088  0.0885 -0.0628  0.5532
  441TIP3    H122958   1.901   4.439   0.153 -0.1630  0.5335  1.2628
  441TIP3    H222959   1.833   4.574   0.140  1.0729  1.0339 -0.2861
  442TIP3   OH222960   5.395   4.366   7.866  0.5681 -0.3234  0.0922
  442TIP3    H122961   5.463   4.301   7.851  1.1605  0.0747  0.9606
  442TIP3    H222962   5.383   4.366   7.961 -1.0116 -0.7533 -0.0813
  443TIP3   OH222963   0.391   4.660   8.879  0.2020 -0.0053 -0.1552
  443TIP3    H122964   0.469   4.676   8.826  0.9645 -0.2618  0.8658
  443TIP3    H222965   0.406   4.574   8.918  1.2968  1.5403  3.2035
  444TIP3   OH222966   5.018   3.326   1.016  0.0457  0.0130  0.1140
  444TIP3    H122967   4.991   3.409   1.057  0.4458 -0.3424  1.1471
  444TIP3    H222968   4.938   3.290   0.978 -0.4590  0.1269  1.0357
  445TIP3   OH222969   0.713   3.770   1.813 -0.1634  0.3776 -0.0441
  445TIP3    H122970   0.693   3.748   1.722 -1.9587  1.3513  0.0648
  445TIP3    H222971   0.781   3.837   1.807  0.9217 -0.7187 -0.5724
  446TIP3   OH222972   6.671   0.870   8.716  0.3209 -0.7969 -0.0388
  446TIP3    H122973   6.761   0.889   8.743  1.4619 -2.2615 -2.4105
  446TIP3    H222974   6.659   0.778   8.737 -0.1452 -0.9397 -0.8914
  447TIP3   OH222975   4.051   2.983   8.533  0.5047 -0.0168 -0.6811
  447TIP3    H122976   3.965   2.972   8.493  0.0016 -0.1987  0.4047
  447TIP3    H222977   4.054   3.076   8.557  0.1766 -0.2207  0.1984
  448TIP3   OH222978   1.386   3.366   6.935  0.0297 -0.0396  0.3209
  448TIP3    H122979   1.392   3.369   6.840 -1.3659  0.2944  0.2314
  448TIP3    H222980   1.475   3.343   6.964  0.0943 -1.8037 -1.1229
  449TIP3   OH222981   2.055   5.799   8.072 -0.3474 -0.0298  0.4041
  449TIP3    H122982   2.101   5.725   8.032 -0.2540  0.4180 -0.3436
  449TIP3    H222983   2.105   5.818   8.152  0.2125 -0.1482  0.0855
  450TIP3   OH222984   6.772   2.071   0.916  0.2230 -0.1643 -0.3782
  450TIP3    H122985   6.841   2.021   0.872  1.5789  0.6125  0.7817
  450TIP3    H222986   6.691   2.038   0.877  1.2724 -0.2999 -2.6367
  451TIP3   OH222987   4.773   1.612   8.729 -0.1019  0.0631 -0.3303
  451TIP3    H122988   4.765   1.548   8.800 -1.8742  0.1938 -0.3552
  451TIP3    H222989   4.838   1.674   8.760  0.9015 -1.1706  0.1413
  452TIP3   OH222990   5.168   4.594   8.492  0.4812 -0.3561 -0.3329
  452TIP3    H122991   5.255   4.631   8.510 -0.2188  1.8751 -1.1333
  452TIP3    H222992   5.146   4.628   8.405 -1.4183 -0.3624  0.1169
  453TIP3   OH222993   1.638   0.770   1.134  0.6545  0.7889  0.6435
  453TIP3    H122994   1.699   0.734   1.069 -0.7714  2.5336 -1.8368
  453TIP3    H222995   1.607   0.693   1.182  2.0832 -0.5547 -0.4644
  454TIP3   OH222996   0.571   1.300   8.070 -0.4944 -0.1935 -0.0052
  454TIP3    H122997   0.638   1.263   8.127 -0.4314 -0.3713 -0.1921
  454TIP3    H222998   0.614   1.374   8.027 -0.3527 -0.4276 -0.2740
  455TIP3   OH222999   6.405   3.196   8.181 -0.3832  0.0868  0.0581
  455TIP3    H123000   6.319   3.160   8.162  0.3516 -0.6055 -2.2216
  455TIP3    H223001   6.403   3.284   8.142  0.8060 -0.9772 -2.6413
  456TIP3   OH223002   4.811   2.883   7.529 -0.4643  0.3009  0.2851
  456TIP3    H123003   4.765   2.851   7.606 -2.7847  0.2801 -0.9885
  456TIP3    H223004   4.765   2.842   7.455  1.6953  0.2535 -1.1379
  457TIP3   OH223005   0.503   1.316   7.432  0.2913 -0.5487 -0.3559
  457TIP3    H123006   0.501   1.237   7.377  0.4695 -0.7024 -0.1432
  457TIP3    H223007   0.463   1.289   7.514 -3.8171  0.7391 -1.7304
  458TIP3   OH223008   4.447   6.291   8.655  0.3186  0.3100  0.5564
  458TIP3    H123009   4.476   6.204   8.683  0.3079  0.8866  2.5660
  458TIP3    H223010   4.391   6.275   8.579  1.5717 -1.2822 -0.0752
  459TIP3   OH223011   3.640   5.227   8.523 -0.2154  0.0443  0.1340
  459TIP3    H123012   3.681   5.153   8.479 -0.3182 -0.5741  1.0498
  459TIP3    H223013   3.693   5.241   8.601 -1.0927 -0.0678  0.7680
  460TIP3   OH223014   2.179   2.004   0.454  0.8247 -0.1870 -0.2354
  460TIP3    H123015   2.152   1.957   0.375  0.5644  0.5096 -0.5701
  460TIP3    H223016   2.269   1.975   0.470  1.3679  0.6646 -1.5777
  461TIP3   OH223017   6.488   6.165   1.914  0.1855  0.1165 -0.1809
  461TIP3    H123018   6.552   6.095   1.903  0.7340  0.4986  0.4991
  461TIP3    H223019   6.530   6.227   1.975 -2.0413 -1.1770  2.9648
  462TIP3   OH223020   2.223   4.456   1.440 -0.7377  0.1970 -0.1779
  462TIP3    H123021   2.273   4.391   1.488  2.5108  1.7647 -1.2043
  462TIP3    H223022   2.216   4.421   1.351  0.7351  1.0086 -0.6485
  463TIP3   OH223023   3.847   0.462   8.765  0.6326  0.2730 -0.2368
  463TIP3    H123024   3.932   0.435   8.800  1.7754  2.0841 -1.4593
  463TIP3    H223025   3.830   0.399   8.695  0.4385 -0.7172  0.6696
  464TIP3   OH223026   6.806   4.655   7.386 -0.5936  0.0904  0.2558
  464TIP3    H123027   6.818   4.572   7.433  0.6131  0.0050 -0.1572
  464TIP3    H223028   6.896   4.686   7.370 -1.0225  1.1360 -0.1895
  465TIP3   OH223029   4.110   0.949   8.165  0.3065  0.1887  0.6741
  465TIP3    H123030   4.196   0.989   8.173  0.1901  0.7642 -0.7764
  465TIP3    H223031   4.126   0.855   8.173  1.1781  0.2353 -0.3195
  466TIP3   OH223032   0.828   0.703   0.726 -0.7052  0.0228  0.1350
  466TIP3    H123033   0.839   0.642   0.800 -0.5779  1.2651  1.1830
  466TIP3    H223034   0.735   0.727   0.729 -0.3409  1.4554  1.0615
  467TIP3   OH223035   2.297   2.429   6.680  0.1473  0.4593 -0.4923
  467TIP3    H123036   2.223   2.418   6.740 -1.1379 -1.4634 -2.3044
  467TIP3    H223037   2.290   2.520   6.650 -2.1179  0.0877 -1.3318
  468TIP3   OH223038   2.788   1.169   7.950  0.3872  0.1062 -0.2254
  468TIP3    H123039   2.745   1.192   8.032  1.1989 -0.7311  0.4545
  468TIP3    H223040   2.881   1.173   7.970  0.6856  2.3241 -1.7925
  469TIP3   OH223041   3.213   5.041   2.394 -0.3878 -0.1092 -0.4188
  469TIP3    H123042   3.290   5.084   2.431 -1.9182  1.0660  1.6567
  469TIP3    H223043   3.163   5.013   2.471 -2.1900 -0.5154 -1.6942
  470TIP3   OH223044   1.615   0.406   7.454  0.0716  0.4165  0.4598
  470TIP3    H123045   1.573   0.374   7.374 -0.5320  2.6836 -0.1993
  470TIP3    H223046   1.696   0.356   7.460 -0.6691 -0.9768 -0.6496
  471TIP3   OH223047   0.158   5.177   2.442 -0.0204 -0.5286 -0.0869
  471TIP3    H123048   0.215   5.194   2.368 -0.3077 -0.4463 -0.2936
  471TIP3    H223049   0.217   5.166   2.516  0.2087  0.8138 -0.0422
  472TIP3   OH223050   5.153   5.540   7.272  0.9148  0.3504 -0.9247
  472TIP3    H123051   5.123   5.631   7.264  2.4523  1.1046  1.0036
  472TIP3    H223052   5.141   5.519   7.364  1.8820 -0.9225 -1.0691
  473TIP3   OH223053   6.479   1.735   7.877  0.1056  0.1882 -0.0096
  473TIP3    H123054   6.398   1.709   7.834  0.6253  0.5153 -1.2332
  473TIP3    H223055   6.482   1.682   7.957 -1.5282  0.4989  0.3063
  474TIP3   OH223056   1.895   0.693   1.895 -0.2597 -0.2478 -0.5500
  474TIP3    H123057   1.853   0.637   1.830 -1.6331  0.7092 -0.5438
  474TIP3    H223058   1.918   0.773   1.847 -0.2708  0.0278 -0.1060
  475TIP3   OH223059   2.366   2.248   1.267 -0.3307  0.1276  0.5428
  475TIP3    H123060   2.300   2.183   1.293  1.1022 -1.0850  1.3308
  475TIP3    H223061   2.441   2.196   1.239  0.6154  1.4488  0.5230
  476TIP3   OH223062   3.657   1.731   7.397 -0.1083  0.1275 -0.1108
  476TIP3    H123063   3.603   1.722   7.476 -0.8134  0.4513 -0.5428
  476TIP3    H223064   3.744   1.699   7.423 -0.3366  0.2092  0.7863
  477TIP3   OH223065   5.511   5.123   7.034  0.1261  0.0512 -0.3112
  477TIP3    H123066   5.571   5.093   6.966  1.4240 -2.5446  1.7851
  477TIP3    H223067   5.424   5.094   7.005  0.4186  0.4056 -1.5718
  478TIP3   OH223068   5.888   4.898   7.510  0.6751 -0.3024  0.2826
  478TIP3    H123069   5.964   4.950   7.482  0.3487  0.5506  0.9625
  478TIP3    H223070   5.832   4.960   7.555 -0.0131 -1.1299  0.5787
  479TIP3   OH223071   6.735   3.634   1.073 -0.7119 -0.2881 -0.1520
  479TIP3    H123072   6.685   3.552   1.070  0.5181 -1.0757 -0.0740
  479TIP3    H223073   6.753   3.654   0.981  0.3228 -0.9892 -0.1249
  480TIP3   OH223074   2.500   2.980   0.610 -0.1062 -0.7965  0.9994
  480TIP3    H123075   2.424   2.949   0.659 -1.0518 -1.6350 -0.8948
  480TIP3    H223076   2.494   3.075   0.612 -0.6473 -0.8420  1.6877
  481TIP3   OH223077   6.338   0.448   7.053 -0.3856 -0.0231 -0.4541
  481TIP3    H123078   6.286   0.519   7.091  0.2638  0.4920 -0.4955
  481TIP3    H223079   6.326   0.375   7.113  0.0696  0.5667  0.3822
  482TIP3   OH223080   6.286   3.510   0.825  0.4165  0.5821  0.6669
  482TIP3    H123081   6.316   3.419   0.835  0.8847  0.7525  0.8221
  482TIP3    H223082   6.252   3.534   0.911  0.0350  0.4595  0.5489
  483TIP3   OH223083   2.994   1.643   6.271 -0.4016  0.4765 -0.3174
  483TIP3    H123084   2.934   1.608   6.205  1.1470 -1.5632 -0.7681
  483TIP3    H223085   2.998   1.576   6.338  0.7736  0.9105  0.0745
  484TIP3   OH223086   0.066   5.906   0.010  0.3425 -0.7713  0.1060
  484TIP3    H123087  -0.020   5.946   0.023 -0.0402 -1.4614 -0.2169
  484TIP3    H223088   0.127   5.965   0.054 -0.1981  0.1477 -0.3535
  485TIP3   OH223089   3.394   6.251   8.094 -0.2157 -0.1879 -1.1937
  485TIP3    H123090   3.299   6.264   8.094 -0.3148 -0.8690 -0.4043
  485TIP3    H223091   3.429   6.339   8.082 -0.9306  0.4013  0.6168
  486TIP3   OH223092   1.254   5.222   1.282  0.4641 -0.0268  0.0776
  486TIP3    H123093   1.160   5.217   1.269  0.7885 -1.8475 -2.2627
  486TIP3    H223094   1.278   5.134   1.312  1.3700  0.5831  1.2055
  487TIP3   OH223095   4.372   0.022   7.397  0.5433 -0.4241  0.2164
  487TIP3    H123096   4.405   0.100   7.441  1.3981  0.2037 -1.4415
  487TIP3    H223097   4.446  -0.039   7.398 -0.1094 -1.2426  1.4728
  488TIP3   OH223098   1.191   1.532   7.272  0.0972 -0.2662  0.3912
  488TIP3    H123099   1.179   1.449   7.319 -1.2539 -0.3878 -0.1304
  488TIP3    H223100   1.192   1.507   7.180 -1.3859  0.3936  0.1828
  489TIP3   OH223101   5.687   6.187   0.730 -0.2623 -0.7590  0.2421
  489TIP3    H123102   5.599   6.214   0.702  0.0207  0.0982  0.1514
  489TIP3    H223103   5.700   6.101   0.690  0.5980  0.8527 -3.2984
  490TIP3   OH223104   3.307   2.798   6.356  0.6588  0.2290  0.2640
  490TIP3    H123105   3.270   2.723   6.310  1.9900 -0.3893  0.1548
  490TIP3    H223106   3.294   2.872   6.297 -0.9974  0.1899  0.5269
  491TIP3   OH223107   1.166   5.577   8.882 -0.2149 -0.0022 -0.2709
  491TIP3    H123108   1.255   5.545   8.891 -0.5696 -1.2333 -0.9795
  491TIP3    H223109   1.134   5.584   8.972  1.5506  3.4629  0.2620
  492TIP3   OH223110   1.679   4.780   7.195  0.4079  0.4427 -0.2535
  492TIP3    H123111   1.717   4.727   7.265 -1.7977  0.7783  1.2807
  492TIP3    H223112   1.640   4.716   7.136  1.2915  0.2088 -0.6010
  493TIP3   OH223113   0.670   3.710   7.104  0.1409  0.0968 -0.0241
  493TIP3    H123114   0.629   3.730   7.188  0.7743  2.3974 -0.1971
  493TIP3    H223115   0.719   3.629   7.120 -0.9542 -0.3264  1.3836
  494TIP3   OH223116   0.007   1.936   0.029  0.1676  0.4580  0.1234
  494TIP3    H123117   0.075   1.870   0.013 -0.0114  0.0360  1.0456
  494TIP3    H223118   0.046   1.997   0.091 -0.4514 -0.0520  1.0290
  495TIP3   OH223119   0.440   4.853   7.179 -0.1416  0.1335 -0.3509
  495TIP3    H123120   0.431   4.828   7.087  0.3322  0.6114 -0.5342
  495TIP3    H223121   0.452   4.948   7.177 -1.1536  0.2914  0.2747
  496TIP3   OH223122   1.056   2.116   7.436 -0.1090 -1.0683  0.2783
  496TIP3    H123123   1.052   2.177   7.510  1.9167 -0.8173  0.2356
  496TIP3    H223124   1.116   2.047   7.466 -1.0698 -2.1961 -0.2977
  497TIP3   OH223125   1.524   3.149   7.564 -0.4618 -0.3321 -0.9493
  497TIP3    H123126   1.565   3.229   7.530  0.4505 -0.6280 -0.5622
  497TIP3    H223127   1.579   3.078   7.531  1.4603 -0.5903  2.3191
  498TIP3   OH223128   4.796   0.808   0.928  0.2246 -0.2527  0.1020
  498TIP3    H123129   4.771   0.873   0.994  1.8433 -0.9378  1.4776
  498TIP3    H223130   4.727   0.811   0.863 -0.8541  1.2799  1.2591
  499TIP3   OH223131   4.472   6.665   1.376 -0.1557 -0.2371 -0.3572
  499TIP3    H123132   4.386   6.652   1.417 -1.6306  2.4027 -2.3041
  499TIP3    H223133   4.475   6.599   1.306 -1.2302  0.4683 -1.1044
  500TIP3   OH223134   1.967   0.037   1.442 -0.0200 -0.1337 -0.0177
  500TIP3    H123135   1.957  -0.047   1.397 -0.9823  0.6239 -1.3186
  500TIP3    H223136   2.047   0.028   1.494  0.0680 -1.7260 -0.3757
  501TIP3   OH223137   3.804   6.494   0.078 -0.1006 -0.1104 -0.3656
  501TIP3    H123138   3.831   6.536  -0.003  0.2115  3.7139  1.4609
  501TIP3    H223139   3.882   6.447   0.108  0.5438  0.4244 -1.1563
  502TIP3   OH223140   5.130   5.795   0.799 -0.0029  0.1354  0.1811
  502TIP3    H123141   5.050   5.820   0.754  0.5710  0.5641 -0.6222
  502TIP3    H223142   5.176   5.877   0.813  0.5470 -0.1613  0.1436
  503TIP3   OH223143   0.282   0.917   7.691 -0.1964  0.3321  0.2694
  503TIP3    H123144   0.214   0.881   7.749 -1.1281  2.6803  0.7624
  503TIP3    H223145   0.350   0.948   7.750  0.1982  0.1158 -0.0742
  504TIP3   OH223146   6.555   0.408   0.189 -0.0458 -0.6372  0.1984
  504TIP3    H123147   6.595   0.490   0.217 -1.3056  0.0773 -0.0395
  504TIP3    H223148   6.610   0.379   0.116  0.7640 -0.3282  0.6743
  505TIP3   OH223149   2.122   0.748   7.462 -0.0975 -0.0790 -0.0181
  505TIP3    H123150   2.112   0.693   7.540  0.6927  2.0057  1.6661
  505TIP3    H223151   2.038   0.743   7.417 -1.0467 -0.3016  1.7046
  506TIP3   OH223152   6.415   3.271   0.862 -0.0210  0.2819 -0.0877
  506TIP3    H123153   6.448   3.197   0.913  1.4731  1.0227  0.0742
  506TIP3    H223154   6.479   3.282   0.792  0.4119  2.1433  0.5726
  507TIP3   OH223155   6.773   1.174   1.592 -0.4797  0.3399  0.1670
  507TIP3    H123156   6.804   1.126   1.669 -0.0875 -0.3402 -0.4173
  507TIP3    H223157   6.688   1.210   1.620 -0.5224 -0.2248  0.7892
  508TIP3   OH223158   1.566   6.074   7.029  0.3359  0.2217 -1.0380
  508TIP3    H123159   1.523   6.020   6.962  0.0138 -1.4344  0.4312
  508TIP3    H223160   1.513   6.154   7.032 -0.7640 -0.4636 -1.4667
  509TIP3   OH223161   3.794   5.327   7.078 -0.3942  0.4816  0.4169
  509TIP3    H123162   3.802   5.364   6.990 -1.1189  1.8908  0.9182
  509TIP3    H223163   3.801   5.402   7.137  0.0286 -0.4324  1.5781
  510TIP3   OH223164   6.365   6.767   1.432 -0.0920 -0.0364  0.0313
  510TIP3    H123165   6.350   6.774   1.527  1.3330 -0.3285  0.2952
  510TIP3    H223166   6.428   6.836   1.413  0.9048 -1.0418 -0.3938
  511TIP3   OH223167   1.497   4.212   1.090 -0.2655  0.2524 -0.1981
  511TIP3    H123168   1.548   4.251   1.161  1.1106  0.6273 -1.3483
  511TIP3    H223169   1.450   4.139   1.131 -1.8685  2.2344  1.7285
  512TIP3   OH223170   2.462   2.238   0.291  0.5417 -0.1278 -0.0535
  512TIP3    H123171   2.530   2.175   0.267 -0.4485 -1.6926  1.1346
  512TIP3    H223172   2.399   2.234   0.219  0.6759 -0.1819 -0.1683
  513TIP3   OH223173   3.641   0.574   7.247 -0.4587  0.2671 -0.0456
  513TIP3    H123174   3.633   0.630   7.324 -0.5970  0.2303 -0.0324
  513TIP3    H223175   3.601   0.491   7.274  0.4760 -0.1105  0.2039
  514TIP3   OH223176   1.935   1.733   8.472  0.4349  0.9633 -0.2113
  514TIP3    H123177   1.840   1.742   8.462  0.4422  0.8011 -0.4398
  514TIP3    H223178   1.971   1.758   8.387  0.4308 -1.4645 -1.0144
  515TIP3   OH223179   0.367   0.939   8.789  0.3678 -0.1441  0.1342
  515TIP3    H123180   0.462   0.946   8.778  0.1223  2.4713 -0.8990
  515TIP3    H223181   0.330   0.995   8.721 -1.9004 -0.1888  1.2351
  516TIP3   OH223182   0.612   2.671   6.957 -0.3239 -0.3428 -0.0417
  516TIP3    H123183   0.653   2.614   6.892 -0.0509  0.1041 -0.2640
  516TIP3    H223184   0.562   2.735   6.906 -0.6857 -0.4231  0.2065
  517TIP3   OH223185   4.491   6.733   0.356 -0.0904  0.1237  0.0726
  517TIP3    H123186   4.487   6.766   0.445 -0.1899  1.1534 -0.3067
  517TIP3    H223187   4.404   6.748   0.321 -0.6724 -2.0868  0.4059
  518TIP3   OH223188   6.290   5.120   0.619 -0.3562  0.4430  0.3123
  518TIP3    H123189   6.353   5.191   0.632  0.0818 -0.1900  2.0020
  518TIP3    H223190   6.339   5.041   0.640 -1.6284 -0.0887  1.4095
  519TIP3   OH223191   4.948   5.368   6.279 -0.0819 -0.1750 -0.5300
  519TIP3    H123192   4.858   5.336   6.278 -0.2631  0.1271  1.3678
  519TIP3    H223193   4.944   5.449   6.330  1.3281 -0.4062  0.0050
  520TIP3   OH223194   5.809   6.637   1.225 -0.0441  0.0101  0.2706
  520TIP3    H123195   5.775   6.724   1.244  2.7789  1.1229  0.8516
  520TIP3    H223196   5.846   6.607   1.308  0.7839 -0.8681 -0.3867
  521TIP3   OH223197   0.368   2.705   1.239 -0.4938  0.5206 -0.0412
  521TIP3    H123198   0.373   2.712   1.143  1.9457 -0.8375 -0.0806
  521TIP3    H223199   0.426   2.774   1.271 -0.2696  0.1208  0.4165
  522TIP3   OH223200   4.242   4.637   8.288 -0.0021 -0.0019 -0.2227
  522TIP3    H123201   4.270   4.729   8.293 -0.4052  0.1405 -0.5284
  522TIP3    H223202   4.281   4.596   8.365 -0.3821  0.5832  0.2955
  523TIP3   OH223203   2.876   0.362   6.734  0.5042 -0.4201  0.5709
  523TIP3    H123204   2.813   0.351   6.663  1.2089 -0.2671 -0.0922
  523TIP3    H223205   2.938   0.427   6.701  0.2194  0.4981  1.7699
  524TIP3   OH223206   4.375   1.753   6.932  0.1430 -0.4671  0.6022
  524TIP3    H123207   4.327   1.730   6.853  0.6342 -1.6333  0.6316
  524TIP3    H223208   4.436   1.681   6.945  2.1863  1.1414  0.3632
  525TIP3   OH223209   5.436   5.966   8.164  0.3819 -1.0713 -0.2248
  525TIP3    H123210   5.514   5.982   8.110  0.7727  0.4876  0.7319
  525TIP3    H223211   5.366   5.950   8.101  1.4665 -2.6830 -1.1154
  526TIP3   OH223212   2.350   1.343   6.441 -0.4754 -0.0569  0.2284
  526TIP3    H123213   2.286   1.413   6.458  0.9935  0.9364  2.0284
  526TIP3    H223214   2.397   1.372   6.363 -0.5429  0.4773  0.3829
  527TIP3   OH223215   3.884   0.520   8.346  0.0974  0.2116  0.0637
  527TIP3    H123216   3.943   0.471   8.404 -0.7229 -1.4314 -0.4368
  527TIP3    H223217   3.877   0.465   8.268  0.6456  2.0549 -1.3554
  528TIP3   OH223218   3.283   1.770   8.621 -0.4554  0.6146  0.6386
  528TIP3    H123219   3.322   1.684   8.608  0.2142  0.4002  3.4361
  528TIP3    H223220   3.192   1.760   8.593 -0.0829 -0.6525 -0.1904
  529TIP3   OH223221   5.771   0.940   8.307  0.2438  0.2962  0.0528
  529TIP3    H123222   5.847   0.984   8.269  1.7268 -1.6191  0.6127
  529TIP3    H223223   5.807   0.886   8.378 -1.4584 -1.5325 -0.3673
  530TIP3   OH223224   0.026   4.579   0.255  0.1506  0.1847 -0.6352
  530TIP3    H123225   0.084   4.627   0.313 -0.5358  0.5371 -0.2249
  530TIP3    H223226   0.039   4.618   0.169  1.3463 -0.4965 -0.7790
  531TIP3   OH223227   1.016   1.643   2.133  0.1113  0.3423 -0.5767
  531TIP3    H123228   0.990   1.590   2.058 -1.2153  0.2899 -0.1075
  531TIP3    H223229   1.098   1.684   2.107  0.1374 -0.3959 -1.6968
  532TIP3   OH223230   5.817   5.636   0.923 -0.0627  0.3121  0.5194
  532TIP3    H123231   5.866   5.634   1.006  1.0209  0.8994 -0.0798
  532TIP3    H223232   5.726   5.646   0.949  0.0485 -1.3156  1.6890
  533TIP3   OH223233   4.484   3.027   8.496 -0.8001  0.1555  0.1523
  533TIP3    H123234   4.486   2.986   8.409 -1.1620  0.9179 -0.2230
  533TIP3    H223235   4.449   3.115   8.480 -0.6512  0.3807  1.0409
  534TIP3   OH223236   6.073   2.014   8.123 -0.5252 -0.5533  0.0629
  534TIP3    H123237   6.006   2.047   8.064 -1.1419 -0.8401  0.5949
  534TIP3    H223238   6.074   2.077   8.196  0.9935  0.4183 -0.7308
  535TIP3   OH223239   4.228   1.920   1.824  0.1684 -0.0304  0.3553
  535TIP3    H123240   4.156   1.916   1.887 -0.4945 -0.2403 -0.4086
  535TIP3    H223241   4.298   1.867   1.864 -0.1080  0.1395  1.0751
  536TIP3   OH223242   5.202   4.939   8.669 -0.1464 -0.3937  0.5544
  536TIP3    H123243   5.146   5.004   8.626  2.1032  0.4516 -1.2954
  536TIP3    H223244   5.148   4.905   8.740 -2.7977  0.7044 -0.7866
  537TIP3   OH223245   1.087   0.995   6.761 -0.0404 -0.1413 -0.0379
  537TIP3    H123246   1.095   0.930   6.831 -1.4004  0.0693  0.3377
  537TIP3    H223247   1.020   0.959   6.703 -1.0920  1.0984  0.3833
  538TIP3   OH223248   4.575   3.989   7.363 -0.0439 -0.4649  0.0068
  538TIP3    H123249   4.525   3.908   7.363 -0.0683 -0.5104  2.1997
  538TIP3    H223250   4.629   3.984   7.442  1.6424  0.6708 -1.0007
  539TIP3   OH223251   3.975   2.866   1.828 -0.3450  0.1275 -0.2550
  539TIP3    H123252   3.991   2.899   1.916 -1.3128  0.0536 -0.0387
  539TIP3    H223253   4.059   2.877   1.783  0.0099  0.6750  0.5057
  540TIP3   OH223254   4.657   0.194   1.187 -0.1466 -0.0617  0.5455
  540TIP3    H123255   4.733   0.135   1.185  1.7910  2.2677  0.3022
  540TIP3    H223256   4.609   0.169   1.265  0.6022 -1.9452  0.4438
  541TIP3   OH223257   5.636   6.179   1.096  1.0097  0.0092  0.1648
  541TIP3    H123258   5.607   6.265   1.065 -0.5322 -0.2091  0.9326
  541TIP3    H223259   5.728   6.193   1.121  1.5623  0.8036 -2.0166
  542TIP3   OH223260   6.080   1.394   0.526  0.6983 -0.0824 -0.1858
  542TIP3    H123261   6.079   1.306   0.489  0.2242  0.8997 -2.7147
  542TIP3    H223262   5.990   1.425   0.517  1.1096  1.0853 -0.4788
  543TIP3   OH223263   3.063   5.753   7.650 -0.0381  0.1821  0.7641
  543TIP3    H123264   2.985   5.719   7.693  0.0138 -0.3869  0.4233
  543TIP3    H223265   3.035   5.770   7.560  0.0633  0.5847  0.8082
  544TIP3   OH223266   2.857   0.504   7.583 -0.2398 -0.4498 -0.1868
  544TIP3    H123267   2.859   0.515   7.488  0.3436 -1.4270 -0.2929
  544TIP3    H223268   2.945   0.476   7.606  0.6111  2.7733  1.0568
  545TIP3   OH223269   3.033   0.368   8.281  0.3104  0.4018  0.4841
  545TIP3    H123270   3.016   0.350   8.373  1.1895  1.3044  0.8445
  545TIP3    H223271   2.948   0.395   8.246 -0.1287 -0.3950  0.9037
  546TIP3   OH223272   0.671   2.890   7.170 -0.3313  0.4996 -0.2346
  546TIP3    H123273   0.693   2.977   7.204 -2.6191  1.0951 -0.1572
  546TIP3    H223274   0.601   2.905   7.107 -2.7942 -1.4651  1.7749
  547TIP3   OH223275   6.484   4.942   1.134 -0.4862 -0.1478 -0.7029
  547TIP3    H123276   6.479   5.007   1.204  0.2589  0.4771 -1.2171
  547TIP3    H223277   6.454   4.988   1.056  2.0803  0.2661 -1.5139
  548TIP3   OH223278   6.078   4.895   1.913  0.0874 -0.0434  0.3620
  548TIP3    H123279   6.050   4.926   1.999  1.6478  0.6033  0.6717
  548TIP3    H223280   6.019   4.823   1.893 -3.1476  2.5035  0.0055
  549TIP3   OH223281   5.854   5.398   7.153 -0.0448  0.1573  0.6089
  549TIP3    H123282   5.941   5.437   7.158  0.4273 -0.8454  0.6165
  549TIP3    H223283   5.798   5.455   7.205  0.8275  0.2567  1.4486
  550TIP3   OH223284   1.996   1.424   8.336  0.6513 -0.6154  0.2656
  550TIP3    H123285   1.902   1.414   8.349  0.5746  0.1787  0.3595
  550TIP3    H223286   2.004   1.474   8.255  0.9119  1.3216  1.4201
  551TIP3   OH223287   1.727   5.368   0.046  0.4886 -0.0803 -0.3010
  551TIP3    H123288   1.740   5.424  -0.030  1.8375 -0.2062 -0.1806
  551TIP3    H223289   1.772   5.413   0.117  0.3312 -0.5962  0.1295
  552TIP3   OH223290   5.904   0.681   2.090  0.2004 -0.7100 -1.1806
  552TIP3    H123291   5.931   0.753   2.147 -1.2309 -1.3484  0.3807
  552TIP3    H223292   5.822   0.711   2.051  1.0661 -0.3584 -2.8335
  553TIP3   OH223293   0.519   2.527   6.372  0.3449  0.0443 -0.2037
  553TIP3    H123294   0.443   2.499   6.320  0.5403  0.6538 -0.8324
  553TIP3    H223295   0.507   2.621   6.382  1.6404  0.3517 -1.3492
  554TIP3   OH223296   0.926   3.632   7.905  0.2532 -0.1574 -0.2153
  554TIP3    H123297   0.987   3.680   7.849 -0.9181 -0.4104 -1.7561
  554TIP3    H223298   0.840   3.667   7.884 -0.1339  0.8409  2.5947
  555TIP3   OH223299   6.497   0.706   7.167  0.2453  0.6929 -0.0517
  555TIP3    H123300   6.480   0.707   7.261 -0.8730  1.1174 -0.2525
  555TIP3    H223301   6.459   0.623   7.137  0.4619  0.6333 -0.1640
  556TIP3   OH223302   5.089   0.684   7.150  0.6433  0.3255 -0.2639
  556TIP3    H123303   5.174   0.694   7.108  1.4752 -2.1191  0.7136
  556TIP3    H223304   5.106   0.697   7.243  0.0225 -0.5387 -0.0225
  557TIP3   OH223305   4.305   3.925   1.077  0.0333  0.2077  0.5882
  557TIP3    H123306   4.389   3.927   1.123 -0.3110  0.9667  1.1988
  557TIP3    H223307   4.301   3.837   1.039  0.4900 -0.3214  1.7100
  558TIP3   OH223308   5.145   3.806   7.652 -0.2460  0.3360  0.2130
  558TIP3    H123309   5.148   3.872   7.722  3.2888  0.6703 -0.1031
  558TIP3    H223310   5.143   3.857   7.571 -0.9857 -0.0338 -0.0126
  559TIP3   OH223311   4.689   4.048   2.054 -0.5242 -0.4889  0.2230
  559TIP3    H123312   4.644   4.121   2.011 -0.5824 -0.7111 -0.0975
  559TIP3    H223313   4.723   4.085   2.135 -0.6018 -0.1201  0.0883
  560TIP3   OH223314   2.532   4.865   1.370 -0.2961 -0.2262 -0.5246
  560TIP3    H123315   2.557   4.774   1.386  0.1306 -0.5146 -2.5451
  560TIP3    H223316   2.609   4.916   1.395 -0.3139 -0.4582  0.0265
  561TIP3   OH223317   5.701   6.770   1.720 -0.4482  0.3613  0.9020
  561TIP3    H123318   5.729   6.709   1.787 -1.2993 -0.2651  0.7003
  561TIP3    H223319   5.780   6.789   1.670 -0.2918 -1.0389  0.5967
  562TIP3   OH223320   4.553   1.649   6.650 -0.6597  0.3436  0.2997
  562TIP3    H123321   4.507   1.574   6.689 -1.9022  1.2004  0.5483
  562TIP3    H223322   4.645   1.631   6.666 -1.0261 -0.2339  2.0170
  563TIP3   OH223323   1.733   6.787   7.705  0.1652  0.0655 -0.0744
  563TIP3    H123324   1.775   6.855   7.653  3.4822  0.8370  3.2189
  563TIP3    H223325   1.715   6.828   7.789 -0.6313 -2.2811  0.9774
  564TIP3   OH223326   2.189   1.784   6.957 -0.0725  0.1832 -0.1454
  564TIP3    H123327   2.147   1.802   6.872 -0.7638 -0.0252  0.1471
  564TIP3    H223328   2.282   1.786   6.938 -0.2108  0.6011 -0.8248
  565TIP3   OH223329   3.041   6.088   1.764  0.0173  0.1404  0.0674
  565TIP3    H123330   3.075   6.048   1.844 -1.6517 -0.9264  0.2752
  565TIP3    H223331   3.018   6.015   1.708 -3.2094  0.6880  0.4925
  566TIP3   OH223332   1.501   3.334   8.278 -0.0170 -0.0108 -0.4924
  566TIP3    H123333   1.546   3.415   8.254 -0.8879  0.5680 -0.2121
  566TIP3    H223334   1.498   3.336   8.374  1.8585 -1.4395 -0.3460
  567TIP3   OH223335   4.019   4.538   1.161 -0.2376 -0.0605  0.4116
  567TIP3    H123336   4.112   4.561   1.164  0.0649 -1.3184  1.8128
  567TIP3    H223337   4.013   4.455   1.208 -2.1379  0.1793  0.6750
  568TIP3   OH223338   3.948   4.172   2.443 -0.1597  0.3675  0.1030
  568TIP3    H123339   3.930   4.259   2.480  0.9275  0.3259  0.7788
  568TIP3    H223340   3.878   4.158   2.380 -0.8336  1.3763  0.5997
  569TIP3   OH223341   0.785   1.443   8.761  0.3659 -0.0144 -0.5091
  569TIP3    H123342   0.812   1.474   8.848 -1.1795 -1.1972  0.4417
  569TIP3    H223343   0.719   1.506   8.732 -2.0924 -1.7036  1.0184
  570TIP3   OH223344   1.394   4.527   1.751  0.0040 -0.1074  0.1620
  570TIP3    H123345   1.464   4.507   1.813 -1.3055 -0.6602  1.5171
  570TIP3    H223346   1.336   4.452   1.755 -0.1448 -0.1394 -1.7472
  571TIP3   OH223347   0.020   1.563   8.042 -0.0906 -0.1897  0.1162
  571TIP3    H123348  -0.068   1.591   8.016  0.3358  1.5730  0.4988
  571TIP3    H223349   0.007   1.475   8.078 -1.4163 -0.6854 -1.4360
  572TIP3   OH223350   2.559   5.383   8.438 -0.5465  0.1082 -0.2136
  572TIP3    H123351   2.635   5.326   8.437 -1.5918 -1.3789  1.1378
  572TIP3    H223352   2.533   5.387   8.530 -1.0912  1.9940 -0.4049
  573TIP3   OH223353   2.422   1.496   8.688  0.4697 -0.4746  0.2612
  573TIP3    H123354   2.334   1.524   8.663  0.3983 -0.2072  0.8074
  573TIP3    H223355   2.461   1.465   8.606  0.6627  1.4728 -0.4362
  574TIP3   OH223356   6.552   4.372   1.814  0.2034  0.4464 -0.3642
  574TIP3    H123357   6.507   4.441   1.863  0.8767  0.2859  0.4900
  574TIP3    H223358   6.500   4.293   1.830  0.6848  0.2962  0.4866
  575TIP3   OH223359   2.073   0.709   1.230 -0.3669 -0.2103  0.3802
  575TIP3    H123360   2.002   0.686   1.289 -0.8836 -0.3120 -0.2799
  575TIP3    H223361   2.031   0.752   1.155  0.2369 -0.4540 -0.1163
  576TIP3   OH223362   3.662   4.346   7.652  0.2870 -0.3241 -0.2758
  576TIP3    H123363   3.631   4.437   7.647 -0.0088 -0.4829 -1.3928
  576TIP3    H223364   3.737   4.351   7.711  0.2437  0.6380 -0.2750
  577TIP3   OH223365   2.550   2.331   6.079 -0.0874  0.3836  0.4260
  577TIP3    H123366   2.598   2.275   6.140  0.7763 -2.8203 -2.8664
  577TIP3    H223367   2.585   2.419   6.095  2.9975 -0.9484  1.8235
  578TIP3   OH223368   6.801   2.756   6.677  0.3426  0.9871  0.2357
  578TIP3    H123369   6.741   2.685   6.699  2.4720 -0.2602  2.6210
  578TIP3    H223370   6.858   2.719   6.609  1.2679  0.4440  1.2723
  579TIP3   OH223371   3.951   1.756   0.986  0.6952 -0.2904  0.3546
  579TIP3    H123372   3.860   1.783   0.996  1.0638  1.5827 -0.9805
  579TIP3    H223373   3.951   1.700   0.908  0.7982  0.3146 -0.0824
  580TIP3   OH223374   5.197   1.549   1.426 -0.6604 -0.0247  0.0553
  580TIP3    H123375   5.150   1.623   1.388  0.6698  0.0674 -1.5576
  580TIP3    H223376   5.274   1.588   1.467 -1.7746 -0.1881  2.5072
  581TIP3   OH223377   6.749   1.442   7.773  0.2639  0.2319 -0.2770
  581TIP3    H123378   6.753   1.364   7.718 -0.1336  0.3069 -0.4153
  581TIP3    H223379   6.818   1.499   7.739  1.7986 -0.7777  0.9689
  582TIP3   OH223380   0.412   3.196   7.607 -0.0150 -0.3832 -0.4295
  582TIP3    H123381   0.388   3.228   7.693 -0.7271  0.2991 -0.8649
  582TIP3    H223382   0.483   3.134   7.623  1.1756  1.1371  0.4829
  583TIP3   OH223383   1.520   2.295   0.482  0.2704 -0.2376  0.2190
  583TIP3    H123384   1.567   2.378   0.477  1.1161 -0.3236  4.1432
  583TIP3    H223385   1.437   2.317   0.526 -0.2754 -1.2234 -0.2769
  584TIP3   OH223386   6.706   5.325   8.870 -0.1200  0.0855  0.6901
  584TIP3    H123387   6.797   5.338   8.842 -0.0966 -0.6318  0.4136
  584TIP3    H223388   6.664   5.410   8.854  0.1973  0.0574 -0.3919
  585TIP3   OH223389   3.038   4.206   8.285 -0.2675 -0.2763 -0.4386
  585TIP3    H123390   3.125   4.220   8.323 -0.6277  1.1068 -0.0301
  585TIP3    H223391   3.054   4.182   8.194  0.5434 -0.1930 -0.3212
  586TIP3   OH223392   4.125   2.845   8.797 -0.2697  0.2617  0.2640
  586TIP3    H123393   4.213   2.824   8.766 -0.6352 -0.7141 -0.1677
  586TIP3    H223394   4.071   2.846   8.718 -1.2639 -2.5396  0.7716
  587TIP3   OH223395   6.778   2.268   0.335  0.1095  0.0555  0.4620
  587TIP3    H123396   6.824   2.351   0.323 -1.1135  0.4908 -1.7297
  587TIP3    H223397   6.847   2.206   0.360  2.0692  0.6065 -2.9556
  588TIP3   OH223398   3.912   4.844   7.127  0.3385 -0.6223  0.4423
  588TIP3    H123399   3.821   4.840   7.158 -0.2349 -2.6724 -1.2022
  588TIP3    H223400   3.954   4.768   7.166 -0.1591 -2.7249 -2.7289
  589TIP3   OH223401   3.334   0.336   2.462  0.1493 -0.0129 -0.4535
  589TIP3    H123402   3.382   0.383   2.530 -0.5806 -0.8286  0.6646
  589TIP3    H223403   3.391   0.263   2.438 -0.7067 -1.3218  1.2919
  590TIP3   OH223404   4.737   6.694   6.850  0.5551 -0.0589 -0.4132
  590TIP3    H123405   4.734   6.729   6.761 -0.8189 -0.3695 -0.5149
  590TIP3    H223406   4.805   6.626   6.846 -0.9031 -1.5607 -1.8446
  591TIP3   OH223407   3.052   4.668   0.164 -0.3240 -0.1680 -0.3283
  591TIP3    H123408   3.009   4.683   0.080 -1.1238 -0.0779  0.0909
  591TIP3    H223409   3.034   4.576   0.183  1.9640 -0.9273 -1.4225
  592TIP3   OH223410   0.280   1.148   8.643 -0.0389  0.4866  0.2646
  592TIP3    H123411   0.319   1.190   8.566  0.3003 -0.9418 -0.3638
  592TIP3    H223412   0.317   1.197   8.717  0.8688  0.8637 -0.4175
  593TIP3   OH223413   3.308   5.310   8.845 -0.1262 -0.3178 -0.0935
  593TIP3    H123414   3.392   5.347   8.817  0.5840 -1.7443  0.0372
  593TIP3    H223415   3.265   5.380   8.893  2.1188 -0.2960  2.1002
  594TIP3   OH223416   6.643   5.511   6.470 -0.0342  0.2013 -0.9897
  594TIP3    H123417   6.608   5.534   6.384 -1.1286 -0.5954 -0.7826
  594TIP3    H223418   6.572   5.461   6.511  0.8805 -0.3278 -0.0374
  595TIP3   OH223419   5.944   2.948   2.149  0.0383  0.0207 -0.0102
  595TIP3    H123420   5.877   3.017   2.143 -0.2187 -0.3331 -2.1583
  595TIP3    H223421   6.025   2.996   2.169 -0.5529  0.6510  0.9432
  596TIP3   OH223422   2.382   3.731   8.278  0.6980 -0.7192 -0.4354
  596TIP3    H123423   2.331   3.687   8.210 -0.8464 -0.6791  0.6500
  596TIP3    H223424   2.473   3.718   8.251  0.2001 -2.3665 -1.4937
  597TIP3   OH223425   4.557   2.019   8.259 -0.2907 -0.4575  0.0224
  597TIP3    H123426   4.506   2.024   8.178 -0.5380 -0.8912  0.1482
  597TIP3    H223427   4.539   1.931   8.293 -0.2790 -0.2387  0.6062
  598TIP3   OH223428   6.342   0.025   7.002 -0.9838  0.3219  0.0084
  598TIP3    H123429   6.302  -0.022   7.075  0.7798  0.0078  0.8207
  598TIP3    H223430   6.343  -0.038   6.930 -1.7028  0.2577  0.0494
  599TIP3   OH223431   3.884   5.821   0.979 -0.7983 -0.7859 -0.6536
  599TIP3    H123432   3.831   5.897   0.954 -1.0800 -0.8013 -0.1016
  599TIP3    H223433   3.911   5.783   0.895  0.2015  0.5036 -0.9626
  600TIP3   OH223434   5.294   4.508   1.463  0.2371  0.4421  0.0446
  600TIP3    H123435   5.202   4.488   1.446  0.3314 -0.7377  0.8155
  600TIP3    H223436   5.334   4.423   1.483  1.3374  1.0324  0.4478
  601TIP3   OH223437   1.265   4.919   8.209 -0.0341 -0.9055 -0.6559
  601TIP3    H123438   1.215   4.913   8.291  1.3009 -0.3916  0.2209
  601TIP3    H223439   1.279   4.827   8.184  2.0358 -1.2037  1.2905
  602TIP3   OH223440   0.068   4.251   8.498  0.4166 -0.6790 -0.3300
  602TIP3    H123441   0.072   4.318   8.565 -0.5707  0.4141 -1.3172
  602TIP3    H223442   0.021   4.179   8.539 -0.0873 -0.0698  0.1845
  603TIP3   OH223443   6.108   4.336   0.441 -0.2604  0.1245 -0.0756
  603TIP3    H123444   6.128   4.393   0.515 -0.6125 -1.2690  1.1565
  603TIP3    H223445   6.151   4.253   0.463 -0.6876 -0.4347 -1.2693
  604TIP3   OH223446   3.108   5.791   8.224  0.6752  0.2178 -0.3759
  604TIP3    H123447   3.128   5.751   8.308  1.1814 -0.2393 -0.7065
  604TIP3    H223448   3.042   5.732   8.185 -0.0710  0.8014 -0.0092
  605TIP3   OH223449   2.008   4.443   0.506 -0.0215  0.6062 -0.1417
  605TIP3    H123450   1.945   4.515   0.505  1.0437  1.5851 -1.4401
  605TIP3    H223451   1.955   4.364   0.500 -1.1256  1.4432 -2.2191
  606TIP3   OH223452   1.906   2.443   7.975 -0.1203 -0.2915  0.0724
  606TIP3    H123453   1.870   2.478   8.057  0.2852 -0.9057  0.5274
  606TIP3    H223454   1.896   2.514   7.912  1.5925  1.0505  1.2004
  607TIP3   OH223455   4.847   4.485   7.323  0.0067  0.3357  0.5803
  607TIP3    H123456   4.939   4.461   7.315  0.2141 -0.3596  3.7695
  607TIP3    H223457   4.801   4.402   7.327 -0.6637  0.6720  0.0446
  608TIP3   OH223458   3.153   2.647   7.343 -0.0491  0.3502 -0.1226
  608TIP3    H123459   3.150   2.710   7.271  1.0185 -1.0541 -1.4559
  608TIP3    H223460   3.162   2.562   7.301  0.2816 -0.5514  1.6608
  609TIP3   OH223461   2.627   6.305   0.880  0.5972 -0.0471 -0.3188
  609TIP3    H123462   2.582   6.389   0.870  0.2623 -0.5159 -3.8661
  609TIP3    H223463   2.571   6.255   0.940 -1.3483  0.8747 -1.2964
  610TIP3   OH223464   5.152   5.303   0.016  0.9167 -0.0031  0.3948
  610TIP3    H123465   5.083   5.240   0.039  2.3662 -1.5574  0.6990
  610TIP3    H223466   5.109   5.365  -0.042 -0.2690 -2.1715 -1.2125
  611TIP3   OH223467   6.323   5.417   7.327 -0.7458 -0.2660 -0.8015
  611TIP3    H123468   6.299   5.418   7.419 -1.5748  1.4085 -0.9943
  611TIP3    H223469   6.410   5.375   7.325  0.1104  1.2767  0.9639
  612TIP3   OH223470   6.199   2.857   8.024 -0.3999 -0.3986  0.6070
  612TIP3    H123471   6.182   2.793   8.093 -1.7509  0.3920  1.0321
  612TIP3    H223472   6.200   2.941   8.068 -0.6289  0.0620 -0.2394
  613TIP3   OH223473   1.435   5.610   6.762  0.1834  0.7487  0.5613
  613TIP3    H123474   1.469   5.566   6.840  0.6581  0.9970  0.4990
  613TIP3    H223475   1.440   5.544   6.693  0.1222  0.6476  0.6528
  614TIP3   OH223476   6.315   2.045   0.611  0.0618  0.2923  0.0998
  614TIP3    H123477   6.408   2.048   0.591 -0.0435 -1.3601 -0.8377
  614TIP3    H223478   6.274   2.100   0.545  0.1119 -1.7317 -1.7433
  615TIP3   OH223479   3.407   2.966   0.169  0.2914 -0.5502  0.2795
  615TIP3    H123480   3.400   3.033   0.101  1.7464  0.9630  1.5319
  615TIP3    H223481   3.496   2.932   0.161  0.8078  0.2951  1.9347
  616TIP3   OH223482   5.633   5.915   0.557  0.3985 -0.1763  0.0637
  616TIP3    H123483   5.641   5.918   0.462  2.6629  0.7336  0.2195
  616TIP3    H223484   5.544   5.884   0.573 -0.1949  0.1221 -2.3378
  617TIP3   OH223485   2.119   5.892   5.549  0.1420 -0.0761 -0.2785
  617TIP3    H123486   2.117   5.798   5.566 -1.2006 -0.0802 -0.3726
  617TIP3    H223487   2.147   5.899   5.457  0.7521 -0.3457 -0.1181
  618TIP3   OH223488   5.187   3.361   7.258  0.1958 -0.0493 -0.1487
  618TIP3    H123489   5.155   3.306   7.187  0.3005  0.2638 -0.4392
  618TIP3    H223490   5.108   3.383   7.308  0.0110  0.3708 -0.6183
  619TIP3   OH223491   2.399   3.054   0.995  0.1864  0.1895  0.4374
  619TIP3    H123492   2.459   3.102   1.053 -1.5708  1.0653  1.6295
  619TIP3    H223493   2.450   2.979   0.964  0.8792 -1.0960  4.1630
  620TIP3   OH223494   3.405   4.683   8.305  0.2819 -0.0603 -0.2297
  620TIP3    H123495   3.429   4.636   8.385  0.5148 -0.5625 -0.5849
  620TIP3    H223496   3.478   4.667   8.245 -0.0733 -0.0270 -0.6760
  621TIP3   OH223497   3.188   3.936   0.435 -0.4429 -0.2427 -0.3019
  621TIP3    H123498   3.136   3.856   0.447  0.9367 -1.1607 -0.1820
  621TIP3    H223499   3.218   3.931   0.344 -0.3959  0.1720 -0.3082
  622TIP3   OH223500   5.229   4.678   7.627  0.0723  0.0239 -0.0899
  622TIP3    H123501   5.279   4.750   7.665 -2.8707  1.7339  0.8608
  622TIP3    H223502   5.235   4.693   7.532  0.3204  0.9217  0.0553
  623TIP3   OH223503   1.777   6.565   8.594 -0.2849  0.4833  0.1936
  623TIP3    H123504   1.809   6.513   8.521 -0.8442 -0.6618  0.7291
  623TIP3    H223505   1.682   6.571   8.580 -0.4502 -0.0555  0.9910
  624TIP3   OH223506   1.197   1.016   1.377  0.1029 -0.4221 -0.4424
  624TIP3    H123507   1.172   0.990   1.289  0.6792 -0.2002 -0.6733
  624TIP3    H223508   1.156   0.951   1.434 -1.7152  0.3971 -0.7451
  625TIP3   OH223509   2.642   0.698   0.171 -0.2131  0.1166 -0.0352
  625TIP3    H123510   2.619   0.615   0.131 -0.5756 -0.4388  1.2546
  625TIP3    H223511   2.735   0.710   0.152  0.0521 -1.0243  0.4802
  626TIP3   OH223512   2.390   1.499   0.977  0.2880 -0.2094 -0.7846
  626TIP3    H123513   2.479   1.490   1.010  0.3383  0.9377 -0.5526
  626TIP3    H223514   2.345   1.419   1.005 -0.0573  1.1558  3.2887
  627TIP3   OH223515   4.877   3.376   8.337  0.4615  0.0259 -0.1900
  627TIP3    H123516   4.847   3.467   8.338  1.1391  0.2831 -1.1716
  627TIP3    H223517   4.813   3.328   8.389  0.0497  1.0534  0.2660
  628TIP3   OH223518   2.737   6.084   7.473 -0.0437 -0.1609 -0.3376
  628TIP3    H123519   2.810   6.028   7.499  0.2172 -0.4175 -1.5821
  628TIP3    H223520   2.761   6.172   7.504  0.0370 -0.5164  0.6632
  629TIP3   OH223521   5.460   1.765   7.418  0.5434  0.1231  0.4831
  629TIP3    H123522   5.518   1.825   7.373 -1.2838  1.6223 -0.0189
  629TIP3    H223523   5.496   1.757   7.506  2.4021 -0.3415 -0.2881
  630TIP3   OH223524   5.013   4.191   0.411 -0.2382 -0.0480  0.1154
  630TIP3    H123525   4.934   4.198   0.465 -0.3561  0.2333 -0.0877
  630TIP3    H223526   5.029   4.280   0.381  1.1815  0.2113  1.5837
  631TIP3   OH223527   2.993   6.426   8.852 -0.1352  0.0763  0.4616
  631TIP3    H123528   3.027   6.360   8.792 -1.3841 -2.2672  2.1467
  631TIP3    H223529   2.900   6.432   8.829 -0.0902  1.0494  0.5213
  632TIP3   OH223530   6.657   2.155   6.465 -0.8674 -0.2731 -0.0724
  632TIP3    H123531   6.579   2.116   6.504 -1.0606  0.1051 -0.0733
  632TIP3    H223532   6.699   2.201   6.537 -2.0370  1.7301 -0.5828
  633TIP3   OH223533   3.933   3.228   8.424 -0.2444  0.5917 -0.0791
  633TIP3    H123534   3.873   3.174   8.372 -1.1302  1.6814 -0.2277
  633TIP3    H223535   3.985   3.275   8.359  2.6569 -2.1975 -0.0255
  634TIP3   OH223536   3.638   3.645   1.338 -0.0226  0.2527 -0.4722
  634TIP3    H123537   3.568   3.599   1.385  0.2193  0.4674  0.1039
  634TIP3    H223538   3.702   3.577   1.318  1.6317  0.6742  2.7112
  635TIP3   OH223539   5.920   2.345   8.148  0.2839 -0.2874 -0.3366
  635TIP3    H123540   5.846   2.325   8.091 -0.1372  1.9356 -0.6522
  635TIP3    H223541   5.988   2.375   8.089  0.2072  1.0300  0.2222
  636TIP3   OH223542   4.673   2.147   6.894 -0.8813 -0.3278 -0.0265
  636TIP3    H123543   4.633   2.089   6.829  1.4583  0.5975 -2.4376
  636TIP3    H223544   4.760   2.111   6.908 -0.6643  0.6029  1.2281
  637TIP3   OH223545   4.891   2.719   1.468  0.3054 -0.0187 -0.0842
  637TIP3    H123546   4.877   2.667   1.547 -2.8841 -0.7930 -1.0083
  637TIP3    H223547   4.823   2.690   1.407  0.6833  2.6957 -2.0120
  638TIP3   OH223548   2.110   2.741   8.265 -0.6040 -0.2774  0.2070
  638TIP3    H123549   2.126   2.807   8.197 -0.4434  1.6292  2.0191
  638TIP3    H223550   2.111   2.658   8.217 -1.8527  1.0508 -2.3608
  639TIP3   OH223551   0.901   3.283   0.620 -0.1510  0.2636  1.0316
  639TIP3    H123552   0.968   3.219   0.643  0.1377 -0.2358 -0.9838
  639TIP3    H223553   0.949   3.365   0.611 -0.0280  0.1793  0.9014
  640TIP3   OH223554   6.222   6.661   7.147  1.0152 -0.5458 -0.3965
  640TIP3    H123555   6.169   6.588   7.114 -0.6076  0.2520  0.3515
  640TIP3    H223556   6.220   6.651   7.242 -0.1998  1.0708 -0.2064
  641TIP3   OH223557   1.556   3.374   7.261  0.1909 -0.5084  0.2743
  641TIP3    H123558   1.553   3.288   7.219  1.9361 -0.1752 -0.6239
  641TIP3    H223559   1.578   3.434   7.190  0.7931  0.4154  1.2205
  642TIP3   OH223560   4.635   2.469   8.190  0.5540 -0.3978 -0.0388
  642TIP3    H123561   4.552   2.457   8.236  1.5369 -0.9458  1.6822
  642TIP3    H223562   4.700   2.430   8.248  1.9977 -0.2103 -1.4657
  643TIP3   OH223563   1.081   2.367   0.935 -0.1734  0.1253  0.1099
  643TIP3    H123564   1.048   2.306   0.869  0.6167 -0.4514  0.2287
  643TIP3    H223565   1.176   2.364   0.924 -0.0850  0.6734  0.7055
  644TIP3   OH223566   6.070   0.120   0.115 -0.0716  0.2869  0.2476
  644TIP3    H123567   6.114   0.183   0.173  0.9098 -0.0038 -0.1725
  644TIP3    H223568   6.080   0.036   0.159 -1.2492  0.3717  0.7300
  645TIP3   OH223569   3.791   6.687   7.709 -0.1931 -0.5821 -0.6272
  645TIP3    H123570   3.827   6.755   7.653  0.5119  0.7469  1.3255
  645TIP3    H223571   3.724   6.731   7.761 -2.1059 -2.1813 -1.5812
  646TIP3   OH223572   1.928   1.979   0.539 -0.1224 -0.8015 -0.3991
  646TIP3    H123573   2.016   2.004   0.510  0.0378 -1.6164 -0.6506
  646TIP3    H223574   1.889   2.060   0.571  1.0452 -0.5912  0.5598
  647TIP3   OH223575   6.802   3.426   7.974  0.6155 -0.2998  0.6657
  647TIP3    H123576   6.812   3.487   8.047 -0.0755 -1.1667  1.5155
  647TIP3    H223577   6.708   3.410   7.969  0.4838  0.8592 -1.3807
  648TIP3   OH223578   0.546   2.817   8.056  0.2206 -1.2909 -0.6138
  648TIP3    H123579   0.490   2.740   8.043 -0.2872 -0.8810 -0.8703
  648TIP3    H223580   0.559   2.821   8.150 -0.8854 -0.9100 -0.4584
  649TIP3   OH223581   3.955   3.355   8.794  0.0787  0.0271 -0.2767
  649TIP3    H123582   3.892   3.393   8.733 -0.2044  3.6568  1.9489
  649TIP3    H223583   4.032   3.336   8.740 -0.7751  1.3768 -2.0959
  650TIP3   OH223584   1.824   0.671   6.746  0.6804 -0.0107  0.5242
  650TIP3    H123585   1.767   0.724   6.801  0.7305  1.3608 -0.6956
  650TIP3    H223586   1.897   0.728   6.724  1.5820 -1.1331  0.5305
  651TIP3   OH223587   6.203   6.393   1.591 -0.0710 -0.3387  0.3520
  651TIP3    H123588   6.285   6.346   1.604  1.3872  1.6205 -1.2378
  651TIP3    H223589   6.201   6.458   1.661 -0.6927 -0.8998  0.8678
  652TIP3   OH223590   1.295   1.645   8.843 -0.2681 -0.0049  0.4115
  652TIP3    H123591   1.215   1.641   8.896  0.3821  0.0959  1.4382
  652TIP3    H223592   1.264   1.650   8.753 -1.4084 -0.4821  0.7600
  653TIP3   OH223593   4.870   6.095   1.511  0.2047 -0.5015 -0.2032
  653TIP3    H123594   4.881   6.005   1.541 -0.9784 -1.2396 -1.7991
  653TIP3    H223595   4.777   6.114   1.524  0.2092  0.0764 -0.9245
  654TIP3   OH223596   2.348   2.982   7.662  0.3893 -0.2019  0.2806
  654TIP3    H123597   2.388   3.019   7.740 -1.6189  1.4016  0.6207
  654TIP3    H223598   2.410   3.003   7.592  1.0492  0.5358  1.0599
  655TIP3   OH223599   0.407   1.970   1.541 -0.1499  0.5352 -0.4242
  655TIP3    H123600   0.353   2.017   1.604 -0.7304 -0.4404 -0.1763
  655TIP3    H223601   0.404   1.879   1.569 -0.3631  0.0892 -1.8032
  656TIP3   OH223602   0.561   1.215   0.816 -0.2645 -0.1285  0.1768
  656TIP3    H123603   0.582   1.307   0.802 -0.1518 -0.1611  0.1296
  656TIP3    H223604   0.467   1.214   0.834 -0.4804 -0.1092 -0.8562
  657TIP3   OH223605   1.347   6.155   7.786 -0.2500  0.1276 -0.0565
  657TIP3    H123606   1.376   6.172   7.876  0.7379 -2.3835  0.1739
  657TIP3    H223607   1.415   6.195   7.731  1.5634 -2.0319  0.4479
  658TIP3   OH223608   5.675   4.634   0.457  0.3381  0.0140 -0.5910
  658TIP3    H123609   5.684   4.588   0.374 -1.5315 -2.1090  0.2746
  658TIP3    H223610   5.588   4.674   0.453 -0.8446 -2.1206  1.1288
  659TIP3   OH223611   1.798   5.174   7.817  0.3619 -0.1597  0.0937
  659TIP3    H123612   1.842   5.181   7.902  1.9444  1.9118 -0.8123
  659TIP3    H223613   1.839   5.097   7.775  0.2177 -0.6493  0.8331
  660TIP3   OH223614   3.025   2.418   6.940 -0.1802 -0.5784  0.0840
  660TIP3    H123615   2.939   2.445   6.908  0.8271  1.7366 -0.9386
  660TIP3    H223616   3.052   2.347   6.882 -0.7556 -0.2323 -0.6157
  661TIP3   OH223617   1.874   0.975   7.263  0.1610  0.5315 -0.0290
  661TIP3    H123618   1.908   0.910   7.324 -0.4112  0.9236  0.7235
  661TIP3    H223619   1.844   0.924   7.188  0.5566  0.0129  0.1611
  662TIP3   OH223620   4.444   4.122   7.963  0.0861 -0.3432 -0.8584
  662TIP3    H123621   4.512   4.188   7.948 -0.0771  0.3121  1.0830
  662TIP3    H223622   4.484   4.040   7.935  0.4488  0.4633 -2.9200
  663TIP3   OH223623   6.751   0.128   8.145  0.1098 -0.4253 -0.4561
  663TIP3    H123624   6.726   0.217   8.122 -1.5940 -1.0411 -1.2194
  663TIP3    H223625   6.733   0.120   8.238 -1.1748 -0.3832 -0.6834
  664TIP3   OH223626   0.730   0.434   6.638  0.1485  0.3707 -0.3177
  664TIP3    H123627   0.800   0.460   6.577  1.1082 -1.2573  0.0362
  664TIP3    H223628   0.660   0.497   6.622  1.3222  1.4648 -1.3736
  665TIP3   OH223629   6.513   4.904   8.017 -0.2616  0.1602  0.3472
  665TIP3    H123630   6.446   4.964   8.051 -0.8623 -0.9772  1.2119
  665TIP3    H223631   6.574   4.893   8.089  1.4347  1.8829 -0.7012
  666TIP3   OH223632   6.073   2.218   1.675  0.5984 -0.2198  0.4106
  666TIP3    H123633   6.090   2.163   1.752  2.4236 -3.3946 -2.0384
  666TIP3    H223634   6.158   2.257   1.655  0.3655 -0.2101 -0.5728
  667TIP3   OH223635   0.980   5.560   0.215  0.4619 -0.3769 -0.5309
  667TIP3    H123636   0.898   5.588   0.174 -0.2017 -0.6452  0.5731
  667TIP3    H223637   0.984   5.466   0.199  1.2612 -0.1479 -1.7739
  668TIP3   OH223638   5.452   4.004   0.909 -0.1525  0.7840 -0.1450
  668TIP3    H123639   5.364   4.024   0.943  0.0590  0.9543  0.3098
  668TIP3    H223640   5.454   4.045   0.823 -1.9008 -2.4458 -1.8968
  669TIP3   OH223641   2.106   6.032   8.617  0.1253 -0.1820 -0.0678
  669TIP3    H123642   2.086   5.939   8.621 -0.3750 -0.0441  0.9873
  669TIP3    H223643   2.116   6.050   8.524  0.4075 -1.3169 -0.2758
  670TIP3   OH223644   1.337   5.256   7.040 -0.3894 -0.4013  0.2467
  670TIP3    H123645   1.340   5.162   7.058 -1.0380 -0.3344  0.7068
  670TIP3    H223646   1.336   5.298   7.126 -1.9935 -0.0437  0.0927
  671TIP3   OH223647   6.410   6.577   2.077  0.4014  0.3850  0.2837
  671TIP3    H123648   6.320   6.569   2.109  0.3004  1.3674  0.2616
  671TIP3    H223649   6.443   6.656   2.119  1.4306 -0.2332  0.6861
  672TIP3   OH223650   1.224   6.235   0.896 -0.3011  0.0035 -0.0047
  672TIP3    H123651   1.244   6.328   0.889 -0.3472  0.1203  1.2194
  672TIP3    H223652   1.148   6.230   0.953 -1.3316 -0.6983 -1.3845
  673TIP3   OH223653   4.815   0.165   7.196  0.1151  0.2703 -0.1821
  673TIP3    H123654   4.896   0.131   7.159 -1.2014 -2.0498 -1.1578
  673TIP3    H223655   4.805   0.252   7.157  0.7560 -0.5343 -2.2786
  674TIP3   OH223656   4.139   0.571   0.927 -0.0825 -0.1380  0.7121
  674TIP3    H123657   4.144   0.611   1.014  1.3461 -0.0827  0.6194
  674TIP3    H223658   4.213   0.511   0.923 -0.0754 -0.0825 -0.5086
  675TIP3   OH223659   3.708   1.685   0.590 -0.1446  0.4784  0.0442
  675TIP3    H123660   3.776   1.706   0.526  2.3214 -0.6815  2.1623
  675TIP3    H223661   3.626   1.708   0.545  1.5509  1.4941 -2.7805
  676TIP3   OH223662   3.332   4.386   8.178  0.0125  0.0572 -0.1361
  676TIP3    H123663   3.399   4.359   8.116  1.0155  2.2949 -0.1341
  676TIP3    H223664   3.259   4.414   8.123  0.5947  1.2770 -0.3248
  677TIP3   OH223665   4.368   5.455   6.773  0.3416 -0.2888  0.5637
  677TIP3    H123666   4.280   5.474   6.805 -0.1328  0.6446 -1.1498
  677TIP3    H223667   4.360   5.459   6.677  1.9206 -1.7131  0.3155
  678TIP3   OH223668   0.253   2.982   6.664 -0.3478  0.2845  0.2512
  678TIP3    H123669   0.272   3.071   6.696  0.6079  0.1097  0.2025
  678TIP3    H223670   0.233   2.932   6.743 -0.2005  0.3786  0.3486
  679TIP3   OH223671   5.306   4.140   7.713  0.0337 -0.3002 -0.9523
  679TIP3    H123672   5.311   4.194   7.792 -0.8480 -0.1175 -1.0086
  679TIP3    H223673   5.290   4.202   7.642  0.7236 -0.4749 -1.2665
  680TIP3   OH223674   0.678   5.896   1.450  0.0161  0.0053 -0.1352
  680TIP3    H123675   0.668   5.991   1.441 -0.3035 -0.1743 -2.3609
  680TIP3    H223676   0.744   5.885   1.519 -1.4718  1.7450  1.6737
  681TIP3   OH223677   2.701   0.004   7.371 -0.0098 -0.2950 -0.3877
  681TIP3    H123678   2.684  -0.012   7.278  0.4730  0.8755 -0.6866
  681TIP3    H223679   2.777  -0.051   7.391 -0.2038 -0.6629 -0.6413
  682TIP3   OH223680   5.285   4.399   7.577  0.1396 -0.2081  0.1973
  682TIP3    H123681   5.380   4.410   7.573  0.1959 -0.7489  0.0161
  682TIP3    H223682   5.252   4.485   7.601  0.7731 -0.3288  1.5681
  683TIP3   OH223683   5.783   3.534   1.914 -0.0397 -0.2092  0.8980
  683TIP3    H123684   5.752   3.465   1.972 -0.9753 -0.5638  0.0042
  683TIP3    H223685   5.742   3.516   1.829  0.5212  0.8457  0.3674
  684TIP3   OH223686   1.163   2.730   1.191 -0.6848 -0.1268  0.0282
  684TIP3    H123687   1.128   2.787   1.123  1.0547 -0.1791 -0.9785
  684TIP3    H223688   1.236   2.781   1.229 -0.4664 -0.8325  0.5789
  685TIP3   OH223689   1.703   2.013   1.009 -0.2473 -0.4075 -0.2943
  685TIP3    H123690   1.717   1.977   0.921 -0.7861  1.0599 -1.0046
  685TIP3    H223691   1.688   2.106   0.995 -2.3504 -0.4514  1.1496
  686TIP3   OH223692   1.575   5.115   8.839 -0.0339  0.3555  0.4940
  686TIP3    H123693   1.645   5.155   8.891  0.4365 -0.5084  0.5468
  686TIP3    H223694   1.600   5.130   8.748  0.7062 -0.7328  0.5004
  687TIP3   OH223695   5.455   6.452   8.179  0.8817  0.1352  0.6269
  687TIP3    H123696   5.477   6.496   8.097  0.5013 -0.4210  0.2163
  687TIP3    H223697   5.539   6.437   8.222  1.3586 -1.9424 -0.8942
  688TIP3   OH223698   6.770   3.021   6.698 -0.0037  0.3751  0.0154
  688TIP3    H123699   6.784   2.927   6.683  2.0938  0.7552 -0.6874
  688TIP3    H223700   6.719   3.025   6.779 -1.6294 -1.3997 -0.8297
  689TIP3   OH223701   0.739   0.026   8.794  0.0501 -0.5115  0.4834
  689TIP3    H123702   0.694  -0.055   8.771  1.0370 -0.7388 -0.7393
  689TIP3    H223703   0.761   0.015   8.887 -0.1696 -1.4835  0.4359
  690TIP3   OH223704   2.459   3.890   1.590 -0.6129  0.5167 -0.1498
  690TIP3    H123705   2.384   3.849   1.632 -0.3126  1.0228  0.9117
  690TIP3    H223706   2.483   3.962   1.648  0.6479  0.4172 -0.5121
  691TIP3   OH223707   6.291   2.815   8.471 -0.3224 -0.0579 -0.4964
  691TIP3    H123708   6.246   2.898   8.459  1.0649  0.9281  0.7079
  691TIP3    H223709   6.378   2.829   8.435  1.3569  0.5026  3.2879
  692TIP3   OH223710   1.570   4.086   8.377  0.6540  0.3265  0.4450
  692TIP3    H123711   1.498   4.145   8.396  0.3200 -0.1058  0.5240
  692TIP3    H223712   1.556   4.010   8.434 -0.7249 -1.2924 -1.8719
  693TIP3   OH223713   3.871   0.056   8.127  0.1817  0.0630  0.2617
  693TIP3    H123714   3.894   0.148   8.116  0.5981 -0.1260 -0.5090
  693TIP3    H223715   3.905   0.012   8.049  0.4114 -0.8325  0.8434
  694TIP3   OH223716   3.036   4.843   0.918  0.2412  0.0409  0.3798
  694TIP3    H123717   3.060   4.765   0.969  0.3931 -0.4948 -0.4941
  694TIP3    H223718   2.979   4.810   0.849  2.1416  0.2793 -1.4256
  695TIP3   OH223719   4.497   6.439   0.349 -0.0609  0.2539  0.1142
  695TIP3    H123720   4.481   6.533   0.351  0.5671  0.3482  1.4566
  695TIP3    H223721   4.590   6.430   0.328 -0.1259 -0.0706 -0.0465
  696TIP3   OH223722   2.877   1.346   0.115 -0.6712 -0.1609  0.5252
  696TIP3    H123723   2.908   1.293   0.188 -1.2806 -1.1571  0.0991
  696TIP3    H223724   2.839   1.282   0.054 -0.4336  0.6702 -0.5253
  697TIP3   OH223725   6.448   0.926   1.700 -0.3056  0.0858 -0.6422
  697TIP3    H123726   6.520   0.963   1.752 -1.2009  0.2938  0.4902
  697TIP3    H223727   6.492   0.884   1.626  0.9616  0.4926 -0.1590
  698TIP3   OH223728   0.260   5.301   1.548 -0.1527 -0.1106 -0.0991
  698TIP3    H123729   0.208   5.240   1.496  0.1157 -0.2843 -0.1668
  698TIP3    H223730   0.245   5.387   1.507  0.6103 -0.3458 -0.9125
  699TIP3   OH223731   4.957   3.577   0.764 -0.5483  0.5402  0.2113
  699TIP3    H123732   5.046   3.559   0.793 -0.1042  1.7317 -0.3593
  699TIP3    H223733   4.920   3.491   0.743  0.3518  0.0114  0.7353
  700TIP3   OH223734   1.526   3.548   0.717  0.4687 -0.3046 -0.0741
  700TIP3    H123735   1.580   3.621   0.745 -0.1163 -0.1985  0.8231
  700TIP3    H223736   1.479   3.521   0.796 -1.1263 -0.1031 -0.9131
  701TIP3   OH223737   4.026   2.941   0.161 -0.7406 -0.4868 -0.9601
  701TIP3    H123738   4.083   2.888   0.216 -0.4382  0.6682 -0.1338
  701TIP3    H223739   4.043   2.910   0.072 -2.4080 -3.5182 -0.3842
  702TIP3   OH223740   2.368   1.205   8.308  0.1823 -0.1489  0.5805
  702TIP3    H123741   2.288   1.181   8.355 -0.8798  0.1696 -0.9695
  702TIP3    H223742   2.401   1.281   8.354  0.9053 -1.6049  2.6245
  703TIP3   OH223743   1.780   2.228   8.400 -0.0652 -0.3843  0.0919
  703TIP3    H123744   1.758   2.155   8.459 -0.0210 -0.4433  0.0368
  703TIP3    H223745   1.728   2.211   8.321  0.3918 -0.6792 -0.1492
  704TIP3   OH223746   5.061   4.655   0.095  0.0964 -0.1326  0.4514
  704TIP3    H123747   5.060   4.688   0.185 -1.6009 -0.1575  0.4779
  704TIP3    H223748   4.970   4.662   0.066  0.3814 -1.2947 -0.8394
  705TIP3   OH223749   6.467   5.738   1.762  0.3666 -0.2842  0.3505
  705TIP3    H123750   6.466   5.833   1.755 -0.4562 -0.0936  2.4008
  705TIP3    H223751   6.480   5.707   1.672  2.4525  1.7545 -0.1573
  706TIP3   OH223752   4.193   4.749   1.397 -0.2549  0.1543  0.6620
  706TIP3    H123753   4.175   4.655   1.404  0.8937 -0.3803 -2.4478
  706TIP3    H223754   4.263   4.765   1.461  0.4920 -1.4035  0.2686
  707TIP3   OH223755   4.108   6.704   7.063  0.2810  0.4990  0.0041
  707TIP3    H123756   4.110   6.756   6.982 -0.0507 -0.7368 -0.8165
  707TIP3    H223757   4.021   6.665   7.064  0.0864  0.9160  1.2549
  708TIP3   OH223758   3.151   1.336   2.423  0.0878 -0.0003 -0.5528
  708TIP3    H123759   3.078   1.379   2.380  0.3327  1.5713  0.5548
  708TIP3    H223760   3.187   1.401   2.482 -0.6150 -2.2208  2.5837
  709TIP3   OH223761   2.023   0.126   7.829 -0.1492  0.1088  0.3747
  709TIP3    H123762   2.005   0.195   7.766  1.8596 -0.0684 -0.4778
  709TIP3    H223763   2.091   0.162   7.886  1.7341 -1.4282 -0.7387
  710TIP3   OH223764   4.487   2.589   8.687 -0.3617  0.5489  0.4335
  710TIP3    H123765   4.481   2.500   8.723  1.4713 -0.5162 -1.6258
  710TIP3    H223766   4.398   2.608   8.655 -0.6184 -0.8691  0.2387
  711TIP3   OH223767   3.540   1.316   7.767 -0.2941 -0.5896 -0.1633
  711TIP3    H123768   3.466   1.327   7.827 -0.9443  1.5470 -1.2578
  711TIP3    H223769   3.597   1.253   7.810 -0.8782  0.6249  2.5838
  712TIP3   OH223770   3.660   1.882   8.599  0.3681  0.3901 -0.7096
  712TIP3    H123771   3.748   1.847   8.608 -0.3784 -1.3469  0.2701
  712TIP3    H223772   3.617   1.862   8.682 -1.6078 -0.8308 -1.9431
  713TIP3   OH223773   5.990   4.743   0.801 -0.4769  0.0970 -0.3991
  713TIP3    H123774   5.989   4.696   0.718 -1.7027  1.0694 -0.9657
  713TIP3    H223775   6.083   4.754   0.821 -0.1734 -1.1902 -1.0149
  714TIP3   OH223776   6.083   3.701   7.657 -0.3421 -0.6496  0.6669
  714TIP3    H123777   6.023   3.774   7.670 -0.1082 -0.5874  1.4619
  714TIP3    H223778   6.169   3.737   7.681  0.1527 -0.5378 -1.0684
  715TIP3   OH223779   0.620   0.851   6.484  0.1958 -1.0782  0.4773
  715TIP3    H123780   0.556   0.860   6.413 -1.9488  1.4202  2.4955
  715TIP3    H223781   0.603   0.764   6.520  0.2574 -1.7546 -1.0260
  716TIP3   OH223782   4.850   4.905   1.474  0.1440  0.3775  0.2300
  716TIP3    H123783   4.860   4.810   1.463  2.1437  0.7853 -3.0309
  716TIP3    H223784   4.928   4.932   1.523 -0.1450  0.4118  0.6756
  717TIP3   OH223785   3.535   1.061   0.458 -0.1214 -0.0397  0.1587
  717TIP3    H123786   3.526   1.151   0.490  0.9704  0.1790 -0.0990
  717TIP3    H223787   3.611   1.026   0.505 -1.9302 -1.6729  2.0611
  718TIP3   OH223788   4.766   3.107   8.505  0.0877  0.3669 -0.5432
  718TIP3    H123789   4.676   3.136   8.516  0.1445  0.5392 -0.5205
  718TIP3    H223790   4.813   3.145   8.579 -0.1325 -1.1037  0.3928
  719TIP3   OH223791   5.797   1.450   0.771  0.2791  0.1494 -0.1662
  719TIP3    H123792   5.890   1.470   0.781  0.3391 -0.7962  1.5749
  719TIP3    H223793   5.795   1.366   0.726  0.3280 -0.3078  0.6566
  720TIP3   OH223794   1.619   5.269   8.208  0.3467 -0.5840 -0.1554
  720TIP3    H123795   1.525   5.270   8.229  0.2153  2.9311 -0.1675
  720TIP3    H223796   1.663   5.276   8.292  0.3809  0.9150 -0.2611
  721TIP3   OH223797   6.029   5.783   0.418  0.5037  0.0312  0.7256
  721TIP3    H123798   6.072   5.743   0.343 -0.9304 -0.0960 -0.0595
  721TIP3    H223799   5.948   5.820   0.383 -1.4436 -2.1319  2.5666
  722TIP3   OH223800   0.098   3.415   7.741  0.4276  0.1028 -0.7022
  722TIP3    H123801   0.107   3.509   7.729 -0.2688  0.2315 -0.3352
  722TIP3    H223802   0.067   3.406   7.831 -0.0555 -0.4376 -0.9168
  723TIP3   OH223803   4.938   4.560   8.630  0.4845  0.3052  0.1648
  723TIP3    H123804   4.911   4.645   8.667  1.1057  1.1645 -1.2843
  723TIP3    H223805   5.033   4.567   8.620  0.7469 -1.1345  1.3606
  724TIP3   OH223806   5.283   4.559   0.330  0.5736 -0.4251 -0.0782
  724TIP3    H123807   5.276   4.654   0.328  1.0920 -0.3919 -0.9900
  724TIP3    H223808   5.326   4.539   0.413  0.4776  0.1321  0.1083
  725TIP3   OH223809   3.093   0.457   1.767  0.0069 -0.0390  0.0939
  725TIP3    H123810   3.037   0.444   1.690  1.1038  1.2207 -0.9587
  725TIP3    H223811   3.093   0.551   1.782 -0.0167 -0.2462  1.5327
  726TIP3   OH223812   4.033   6.164   7.837 -0.3682 -0.2470 -0.2635
  726TIP3    H123813   3.987   6.116   7.768 -0.8700  0.5915 -0.5250
  726TIP3    H223814   3.963   6.202   7.890 -0.0449  2.2945 -1.5289
  727TIP3   OH223815   6.002   6.811   8.420  0.0505  0.4979 -0.4634
  727TIP3    H123816   6.004   6.882   8.356 -0.5692  0.3772 -0.6208
  727TIP3    H223817   5.953   6.741   8.377 -0.3097  0.3919  0.1161
  728TIP3   OH223818   0.378   1.667   1.296 -0.2452  0.5210  0.4796
  728TIP3    H123819   0.328   1.746   1.279 -1.6239 -0.5669 -0.8322
  728TIP3    H223820   0.316   1.609   1.341  0.3278 -0.2532  0.2921
  729TIP3   OH223821   1.152   4.065   0.148 -0.2546 -0.6622  0.0178
  729TIP3    H123822   1.165   4.015   0.068 -1.5755 -1.4516  0.2719
  729TIP3    H223823   1.066   4.105   0.139 -0.0571 -0.0608  0.6737
  730TIP3   OH223824   4.057   3.522   0.512  0.2815 -0.1722 -0.1875
  730TIP3    H123825   4.094   3.496   0.597 -0.2575 -1.2750 -0.2687
  730TIP3    H223826   3.985   3.580   0.534  0.0545 -0.5623  0.1315
  731TIP3   OH223827   2.375   1.427   6.180  0.5437  0.2200 -0.3992
  731TIP3    H123828   2.360   1.339   6.146 -2.2204  0.4969 -0.1391
  731TIP3    H223829   2.352   1.485   6.108 -0.1123  0.7185  0.1877
  732TIP3   OH223830   1.806   3.251   7.200 -0.0013  0.5224  0.1113
  732TIP3    H123831   1.724   3.293   7.171  1.0979  2.6278 -0.1554
  732TIP3    H223832   1.853   3.233   7.119  0.2032  0.1645  0.3085
  733TIP3   OH223833   1.009   0.668   7.944 -0.1014  0.4112  0.1003
  733TIP3    H123834   0.964   0.752   7.946  0.0868  0.5188 -0.1100
  733TIP3    H223835   1.055   0.667   7.860 -0.9555 -0.3563 -0.3858
  734TIP3   OH223836   4.737   6.606   1.346 -0.3236  0.1318  0.3478
  734TIP3    H123837   4.654   6.653   1.350 -1.8283 -2.2642 -0.2558
  734TIP3    H223838   4.780   6.639   1.268 -0.8223  1.2288  0.5209
  735TIP3   OH223839   1.049   3.827   2.256  0.3884 -0.7377  0.3225
  735TIP3    H123840   0.975   3.865   2.302  0.9519  0.1585  0.4997
  735TIP3    H223841   1.123   3.840   2.314  0.6984 -1.6429  0.1521
  736TIP3   OH223842   4.628   3.449   8.047  0.4575 -0.0788 -0.0885
  736TIP3    H123843   4.615   3.394   8.125 -1.5141 -1.7932 -1.5165
  736TIP3    H223844   4.594   3.535   8.073  1.4710 -0.0979  1.4639
  737TIP3   OH223845   4.401   6.774   7.989 -0.5513  0.1340 -0.3872
  737TIP3    H123846   4.413   6.679   7.991  0.5948  0.2468 -1.1571
  737TIP3    H223847   4.457   6.807   8.058  1.2461  0.4259 -1.9156
  738TIP3   OH223848   5.786   4.102   2.170  0.1359 -0.0149  0.3684
  738TIP3    H123849   5.809   4.023   2.220 -1.9439 -0.3635  0.8938
  738TIP3    H223850   5.813   4.175   2.226  0.8128 -0.3544  0.4995
  739TIP3   OH223851   0.846   2.726   8.805 -0.1053 -0.4112  0.1980
  739TIP3    H123852   0.824   2.635   8.823  1.1174 -0.5975  0.8649
  739TIP3    H223853   0.881   2.726   8.716  1.6695 -0.9524  0.8498
  740TIP3   OH223854   0.644   1.485   8.381  0.1216 -0.5511 -0.1699
  740TIP3    H123855   0.659   1.510   8.290  0.5689 -2.0840 -0.5586
  740TIP3    H223856   0.731   1.466   8.416  0.5456  4.2231  2.0201
  741TIP3   OH223857   4.184   4.510   8.655 -0.5048 -0.3307 -0.0685
  741TIP3    H123858   4.182   4.415   8.663 -0.8680 -0.3818 -0.6779
  741TIP3    H223859   4.260   4.527   8.598 -0.0324 -0.2045  0.5840
  742TIP3   OH223860   5.711   4.394   1.192 -0.0869 -0.6123 -0.0030
  742TIP3    H123861   5.732   4.303   1.215  0.6411 -0.8620 -1.5439
  742TIP3    H223862   5.762   4.411   1.113  1.0839  1.6794  1.1357
  743TIP3   OH223863   0.871   4.747   1.053 -0.0753  0.1468 -0.1749
  743TIP3    H123864   0.849   4.732   1.145  1.7516 -0.2392  0.2388
  743TIP3    H223865   0.900   4.838   1.050 -2.0580  0.8163 -0.8170
  744TIP3   OH223866   1.235   4.677   6.582 -0.2967  0.1976  0.2523
  744TIP3    H123867   1.153   4.724   6.569  0.4316  1.4160 -0.0831
  744TIP3    H223868   1.212   4.585   6.571 -1.7173  0.4806  0.7077
  745TIP3   OH223869   5.814   0.429   0.386 -0.6995  0.8244 -0.0859
  745TIP3    H123870   5.824   0.480   0.467  1.4900 -1.8922  1.5247
  745TIP3    H223871   5.897   0.440   0.340  0.5579 -2.3795  1.1343
  746TIP3   OH223872   2.849   1.820   8.329 -0.1064  0.4755 -0.0327
  746TIP3    H123873   2.779   1.884   8.336 -1.2119 -0.6755 -0.2481
  746TIP3    H223874   2.819   1.757   8.264  1.1681 -0.0058 -0.1961
  747TIP3   OH223875   1.585   6.268   7.640 -0.0655  0.1281 -0.4546
  747TIP3    H123876   1.535   6.325   7.581 -0.8833 -1.3170 -1.2106
  747TIP3    H223877   1.670   6.257   7.597  0.2592  1.0801 -0.0942
  748TIP3   OH223878   0.310   4.863   6.867 -0.0305 -0.2038  0.1534
  748TIP3    H123879   0.250   4.818   6.807  0.8263  0.0162 -0.9143
  748TIP3    H223880   0.376   4.797   6.888  0.7150  0.2577 -0.6744
  749TIP3   OH223881   2.605   6.707   0.659 -0.0398  0.3372  0.8468
  749TIP3    H123882   2.620   6.628   0.607  1.8661 -0.5700  2.6538
  749TIP3    H223883   2.626   6.779   0.598 -1.3145 -0.5207 -0.6676
  750TIP3   OH223884   4.385   6.597   8.522 -0.0922 -0.3975 -0.2680
  750TIP3    H123885   4.320   6.529   8.535 -0.4350 -0.6356 -2.6805
  750TIP3    H223886   4.366   6.662   8.589 -0.9784 -1.7609  0.8644
  751TIP3   OH223887   6.625   3.009   6.932  0.6336  0.1010 -0.6662
  751TIP3    H123888   6.552   3.056   6.972  0.2464 -0.8747 -0.1777
  751TIP3    H223889   6.682   2.987   7.006  0.8665 -0.0803 -0.8997
  752TIP3   OH223890   6.123   2.239   8.332 -0.3687 -0.1190 -0.6475
  752TIP3    H123891   6.180   2.283   8.394 -0.9486 -0.8384  0.4272
  752TIP3    H223892   6.093   2.308   8.273  1.0907  0.3738 -0.8506
  753TIP3   OH223893   5.299   3.738   1.072 -0.4480  0.9084  1.3309
  753TIP3    H123894   5.295   3.669   1.138  0.1638 -0.7922 -0.3445
  753TIP3    H223895   5.391   3.739   1.043 -0.8058  1.2587  0.1331
  754TIP3   OH223896   5.245   3.997   6.806 -0.1460 -0.0795  0.6085
  754TIP3    H123897   5.231   3.997   6.712  2.9197 -2.4440 -0.0219
  754TIP3    H223898   5.191   3.925   6.839 -1.5401  1.0096  0.7986
  755TIP3   OH223899   6.699   2.119   7.186  0.0024 -0.5042  0.0089
  755TIP3    H123900   6.670   2.185   7.123 -1.8197 -1.9958 -0.7987
  755TIP3    H223901   6.622   2.066   7.203  0.7845 -0.9553  2.5527
  756TIP3   OH223902   5.943   5.905   0.878  0.1291 -0.4695  0.4840
  756TIP3    H123903   5.919   5.941   0.792 -0.4872  1.6636  1.4919
  756TIP3    H223904   5.900   5.820   0.880 -1.5582  0.2983 -0.5579
  757TIP3   OH223905   1.022   2.064   8.703 -0.6255  0.3003  0.2607
  757TIP3    H123906   1.094   2.076   8.641  0.6174  0.7535  1.7345
  757TIP3    H223907   1.002   1.970   8.698 -2.1702  0.6651 -2.4805
  758TIP3   OH223908   6.016   5.998   7.505 -0.1787 -0.0619 -0.0654
  758TIP3    H123909   6.096   6.049   7.495  0.4616 -0.7495  1.2072
  758TIP3    H223910   5.987   6.017   7.595 -1.0228 -0.4150 -0.2521
  759TIP3   OH223911   1.893   0.668   7.336  0.7457  0.3400  0.4826
  759TIP3    H123912   1.874   0.623   7.253  1.8198 -1.0991  0.9727
  759TIP3    H223913   1.822   0.642   7.394  0.9201 -0.0709  0.5167
  760TIP3   OH223914   5.309   0.229   0.399  0.2437  0.2382 -0.0347
  760TIP3    H123915   5.336   0.198   0.312  0.5262 -0.5825  0.3350
  760TIP3    H223916   5.219   0.198   0.410  0.1314  0.5288 -0.1171
  761TIP3   OH223917   2.046   1.305   0.914 -0.3740  0.1629  0.0255
  761TIP3    H123918   2.000   1.312   0.830  0.0344  0.9542 -0.1380
  761TIP3    H223919   2.015   1.380   0.964  0.4016  0.4509  0.0826
  762TIP3   OH223920   5.055   1.019   7.442 -0.4097 -0.2100  0.0353
  762TIP3    H123921   5.145   1.041   7.463 -0.7949  0.4003  1.0963
  762TIP3    H223922   5.004   1.047   7.518 -1.3377 -1.7417  0.0260
  763TIP3   OH223923   6.816   3.815   7.466  0.5715 -0.0172 -0.0026
  763TIP3    H123924   6.865   3.849   7.541 -1.0535  0.8619  0.7061
  763TIP3    H223925   6.729   3.854   7.474  0.1171 -0.5236 -1.9247
  764TIP3   OH223926   3.170   1.604   0.675  0.1006 -0.2927 -0.0174
  764TIP3    H123927   3.259   1.570   0.661  0.0317  0.1737 -1.7683
  764TIP3    H223928   3.166   1.683   0.622 -1.5563 -0.6175 -0.4361
  765TIP3   OH223929   3.921   1.227   0.055  0.2932 -0.1320 -0.0326
  765TIP3    H123930   3.909   1.142   0.097 -0.5346  0.2474  0.5439
  765TIP3    H223931   3.947   1.206  -0.035  0.4708 -0.9821  0.2069
  766TIP3   OH223932   0.303   3.307   7.117 -0.4601  0.1487 -0.1374
  766TIP3    H123933   0.324   3.287   7.025 -0.8071 -2.2464  0.2222
  766TIP3    H223934   0.375   3.362   7.146  0.7514 -0.7297 -1.3139
  767TIP3   OH223935   2.945   0.599   8.644  0.3096 -0.6021 -0.3774
  767TIP3    H123936   3.008   0.541   8.688  0.2426 -0.2920  0.1359
  767TIP3    H223937   2.866   0.546   8.634 -0.3880 -0.0637  1.7612
  768TIP3   OH223938   6.629   5.978   8.637  0.2370  0.2324 -0.1054
  768TIP3    H123939   6.552   5.927   8.613  0.9587 -2.3318  2.4569
  768TIP3    H223940   6.691   5.964   8.565 -1.2901  1.6500 -1.7916
  769TIP3   OH223941   2.745   6.328   7.670  0.3469 -0.0541  0.1719
  769TIP3    H123942   2.779   6.263   7.733 -1.0155 -0.3820  0.5944
  769TIP3    H223943   2.691   6.386   7.723  0.1246  0.3639 -0.5100
  770TIP3   OH223944   2.727   0.385   6.974  0.0781  0.5796 -0.0683
  770TIP3    H123945   2.641   0.346   6.962 -1.2576  1.9240  3.7612
  770TIP3    H223946   2.767   0.381   6.887 -3.6284 -0.4485 -1.9466
  771TIP3   OH223947   1.734   4.082   0.262 -0.3440 -0.6305  0.1630
  771TIP3    H123948   1.749   4.097   0.169  0.4427  1.0684  0.5163
  771TIP3    H223949   1.721   4.170   0.299  0.3892 -1.1742  1.8224
  772TIP3   OH223950   4.273   5.664   0.474 -0.4472  0.0289  0.0137
  772TIP3    H123951   4.235   5.582   0.505 -0.4945  0.2013  0.4141
  772TIP3    H223952   4.197   5.721   0.459 -0.4034  0.0609 -0.0915
  773TIP3   OH223953   5.977   5.864   8.301 -0.3662 -0.0969  0.0229
  773TIP3    H123954   5.895   5.818   8.283 -0.4263 -0.2616  0.6793
  773TIP3    H223955   5.963   5.905   8.387  0.8123 -1.5085  0.9380
  774TIP3   OH223956   1.830   2.192   7.874  0.0013 -0.0580  0.1204
  774TIP3    H123957   1.899   2.136   7.908  0.5757  0.6322  0.1128
  774TIP3    H223958   1.848   2.278   7.912  0.0438  0.4822 -1.0877
  775TIP3   OH223959   5.336   5.065   1.775 -0.0151 -0.1624  0.0818
  775TIP3    H123960   5.278   5.137   1.800  0.5329  0.8334 -1.4081
  775TIP3    H223961   5.414   5.108   1.739  0.5856 -1.4966 -0.2766
  776TIP3   OH223962   3.260   4.873   8.533 -0.1320 -0.8136  0.0471
  776TIP3    H123963   3.333   4.928   8.506 -1.0286  0.7158  0.6231
  776TIP3    H223964   3.295   4.784   8.529  1.4204 -0.2124 -0.7247
  777TIP3   OH223965   5.617   5.887   0.272 -0.4290  0.1086  0.2306
  777TIP3    H123966   5.557   5.928   0.210 -0.3118 -0.1808 -0.0802
  777TIP3    H223967   5.672   5.830   0.218 -1.0453 -0.9991  0.7421
  778TIP3   OH223968   6.137   6.378   7.427  0.1557 -0.3786  0.6133
  778TIP3    H123969   6.104   6.467   7.438  0.8591 -0.2562  2.0557
  778TIP3    H223970   6.162   6.372   7.335  1.6422  1.4835  0.8492
  779TIP3   OH223971   0.612   2.026   1.040 -0.3075 -0.0939  0.2708
  779TIP3    H123972   0.706   2.030   1.022  0.1411 -0.8441  2.1507
  779TIP3    H223973   0.606   1.981   1.124 -2.3350  0.3690  0.4272
  780TIP3   OH223974   0.560   2.718   8.591  0.6033 -0.0817  0.5497
  780TIP3    H123975   0.529   2.632   8.561 -0.7301  0.8981 -1.0537
  780TIP3    H223976   0.525   2.726   8.680 -0.6500 -0.5605  0.1257
  781TIP3   OH223977   1.207   2.826   1.561 -0.4448 -0.3663  0.7715
  781TIP3    H123978   1.221   2.908   1.609 -0.7294 -0.2774  0.7026
  781TIP3    H223979   1.239   2.758   1.620 -1.3305 -0.3112  1.3363
  782TIP3   OH223980   0.776   3.210   6.666  0.1648  0.1901 -0.2615
  782TIP3    H123981   0.698   3.234   6.617 -0.5573 -0.8609  0.3470
  782TIP3    H223982   0.796   3.288   6.718 -0.2718  0.5860 -0.6770
  783TIP3   OH223983   3.408   6.730   6.651 -0.1745 -0.6795  0.4562
  783TIP3    H123984   3.445   6.755   6.567 -1.6663  1.0291  0.2426
  783TIP3    H223985   3.427   6.804   6.709 -3.8534  0.7746  0.0860
  784TIP3   OH223986   4.711   0.481   0.394  0.0081 -0.5530 -0.0405
  784TIP3    H123987   4.764   0.534   0.453  0.0631 -0.4206 -0.2093
  784TIP3    H223988   4.678   0.410   0.450  0.5139 -0.7453  0.0262
  785TIP3   OH223989   1.807   5.016   8.413  0.1615  0.0163  0.7474
  785TIP3    H123990   1.826   5.011   8.319  0.2744 -2.8379  0.8330
  785TIP3    H223991   1.886   5.055   8.451  0.9133 -0.5682 -0.1608
  786TIP3   OH223992   4.917   4.640   1.485  0.0388 -0.4977 -0.8319
  786TIP3    H123993   4.940   4.643   1.393  1.9994 -0.8780 -0.3942
  786TIP3    H223994   4.967   4.566   1.520  0.3112  0.3908  0.7737
  787TIP3   OH223995   1.478   2.091   0.699 -0.1274 -0.0817 -0.0006
  787TIP3    H123996   1.492   2.091   0.605 -0.0046 -0.8973  0.0129
  787TIP3    H223997   1.551   2.040   0.734  0.4119  1.0666  0.6359
  788TIP3   OH223998   3.760   1.500   7.913 -0.0477  0.4208  0.0809
  788TIP3    H123999   3.844   1.538   7.940 -0.7871  2.0738  0.2125
  788TIP3    H224000   3.763   1.501   7.817  0.9863 -1.7250  0.0453
  789TIP3   OH224001   5.052   4.188   2.461 -0.1533 -0.3111 -0.0258
  789TIP3    H124002   4.984   4.215   2.522 -0.0699  1.6741 -0.7318
  789TIP3    H224003   5.124   4.248   2.477  0.7314 -1.1908 -0.5651
  790TIP3   OH224004   3.283   6.233   2.069  0.5235 -0.3241  0.3108
  790TIP3    H124005   3.203   6.274   2.036 -0.0886 -1.5418  0.2125
  790TIP3    H224006   3.294   6.270   2.157 -0.1017 -0.0970  0.2978
  791TIP3   OH224007   0.388   2.383   0.855 -0.4189 -0.2732  0.1006
  791TIP3    H124008   0.299   2.357   0.879 -0.4548  0.7707  1.2093
  791TIP3    H224009   0.377   2.441   0.780 -0.9652  2.0837  1.9042
  792TIP3   OH224010   1.672   2.189   7.540 -0.2646 -0.1436 -0.0631
  792TIP3    H124011   1.646   2.196   7.448  0.2067 -0.7344 -0.2483
  792TIP3    H224012   1.764   2.218   7.541 -0.2103 -0.3207  0.1935
  793TIP3   OH224013   0.057   1.600   1.792 -0.3255 -0.3061  0.0075
  793TIP3    H124014   0.052   1.659   1.867 -1.9251 -1.8113  1.1543
  793TIP3    H224015   0.151   1.596   1.771 -0.1305  2.3079  0.0919
  794TIP3   OH224016   6.597   6.364   2.073 -0.0293  0.0515  0.3274
  794TIP3    H124017   6.683   6.400   2.052 -0.3969 -0.0437 -1.5462
  794TIP3    H224018   6.543   6.441   2.092  0.6794  0.0559  2.5802
  795TIP3   OH224019   4.649   4.246   7.782 -0.3349  0.4884 -0.2806
  795TIP3    H124020   4.618   4.198   7.705  0.6776  1.8525 -1.6195
  795TIP3    H224021   4.718   4.191   7.819 -2.1720 -1.1303  0.9234
  796TIP3   OH224022   0.950   3.889   8.205  0.8402 -0.6359 -0.2431
  796TIP3    H124023   0.972   3.982   8.208  1.7662 -0.8276 -0.7263
  796TIP3    H224024   0.864   3.886   8.163 -0.1687  0.1222  1.6291
  797TIP3   OH224025   3.451   4.893   6.928  0.4466 -0.5494 -0.2237
  797TIP3    H124026   3.425   4.985   6.931  1.1678 -0.2840 -1.4034
  797TIP3    H224027   3.371   4.845   6.951  0.2750  0.3808  1.1925
  798TIP3   OH224028   5.987   4.217   1.521 -0.4288 -0.0766  0.5217
  798TIP3    H124029   6.075   4.197   1.489 -0.8433 -1.6111  0.2795
  798TIP3    H224030   5.986   4.182   1.610 -0.4395  1.0024  0.9717
  799TIP3   OH224031   6.333   3.205   7.770 -0.2133 -0.0617 -0.2596
  799TIP3    H124032   6.366   3.147   7.702  0.9765 -0.2990  0.4758
  799TIP3    H224033   6.262   3.157   7.811  0.6385 -0.9449  0.2162
  800TIP3   OH224034   2.865   0.846   7.194  0.1352 -0.2391 -0.8935
  800TIP3    H124035   2.916   0.927   7.187  1.8387 -1.2009 -0.2767
  800TIP3    H224036   2.832   0.846   7.284  0.5649 -0.4643 -0.7340
  801TIP3   OH224037   4.013   1.599   7.982 -0.3494 -0.0429 -0.2550
  801TIP3    H124038   4.080   1.541   8.018  0.3185 -0.1741 -1.6621
  801TIP3    H224039   4.061   1.660   7.925 -1.4524 -0.4960 -1.7369
  802TIP3   OH224040   6.739   6.077   7.702  0.0004  0.4106  0.0953
  802TIP3    H124041   6.759   6.040   7.616  1.2431  2.1792 -0.4439
  802TIP3    H224042   6.653   6.119   7.691 -1.2521 -1.8653  0.6171
  803TIP3   OH224043   5.363   1.622   2.188 -0.2131 -0.8833  0.1973
  803TIP3    H124044   5.290   1.584   2.139 -0.3226 -2.2633  1.3520
  803TIP3    H224045   5.388   1.699   2.138 -0.3473 -2.1836 -2.0208
  804TIP3   OH224046   1.676   4.840   1.835 -0.4282  0.4636  0.2763
  804TIP3    H124047   1.636   4.758   1.864 -0.4710 -0.2468 -1.6145
  804TIP3    H224048   1.604   4.903   1.834 -0.4609  0.4658  1.4364
  805TIP3   OH224049   5.323   5.807   0.146  0.1162 -0.4322 -0.4224
  805TIP3    H124050   5.351   5.718   0.122 -0.5370 -0.7673  0.0329
  805TIP3    H224051   5.342   5.860   0.069  1.1652 -0.8245 -0.4576
  806TIP3   OH224052   2.229   6.593   1.348 -0.1203  0.2336  0.2643
  806TIP3    H124053   2.229   6.568   1.256  0.2772 -0.5986  0.4830
  806TIP3    H224054   2.314   6.634   1.362 -1.1871  2.8485 -0.3660
  807TIP3   OH224055   5.591   6.226   2.070  0.1856 -0.3952  0.3580
  807TIP3    H124056   5.530   6.181   2.012  0.7271 -1.6280  0.6949
  807TIP3    H224057   5.653   6.158   2.096  0.8204  0.4788  1.2070
  808TIP3   OH224058   2.501   6.752   8.694 -0.1232 -0.3299  0.6408
  808TIP3    H124059   2.465   6.834   8.661 -1.2002 -1.7323 -2.0127
  808TIP3    H224060   2.587   6.745   8.652 -0.8424 -1.3991 -0.7271
  809TIP3   OH224061   0.422   2.715   6.785  0.1543 -0.1942  0.1289
  809TIP3    H124062   0.335   2.746   6.810 -0.3976  0.5921 -2.4327
  809TIP3    H224063   0.410   2.621   6.767  0.2486 -0.4581  1.3883
  810TIP3   OH224064   4.051   6.295   2.750 -0.0951  0.2086 -0.4439
  810TIP3    H124065   3.968   6.343   2.757 -0.9936 -1.2522 -0.6507
  810TIP3    H224066   4.118   6.362   2.764 -1.2104  1.8277 -2.2806
  811TIP3   OH224067   0.928   4.999   0.983 -0.4220 -0.3107  0.1614
  811TIP3    H124068   0.859   5.065   0.976 -0.6751 -0.6248 -0.3195
  811TIP3    H224069   1.002   5.036   0.936 -0.4523 -0.2285  0.1779
  812TIP3   OH224070   3.441   3.337   1.021 -0.5271  0.1894 -0.0054
  812TIP3    H124071   3.458   3.432   1.021  0.8373 -0.0068  1.6551
  812TIP3    H224072   3.492   3.304   0.948  0.4500  0.5348  0.5032
  813TIP3   OH224073   2.002   3.397   1.211 -0.1610  0.2060  0.1464
  813TIP3    H124074   2.030   3.449   1.137  0.5544  0.0259  0.2866
  813TIP3    H224075   1.931   3.448   1.251  0.8102  1.2866  0.5358
  814TIP3   OH224076   6.695   2.417   1.913  0.1605  0.6057 -0.3089
  814TIP3    H124077   6.650   2.337   1.942  0.3590  0.9230  0.9445
  814TIP3    H224078   6.779   2.415   1.959  0.4066  1.2472 -0.7211
  815TIP3   OH224079   5.551   1.265   1.485  0.6913 -0.0329  0.3422
  815TIP3    H124080   5.636   1.278   1.527 -0.4227  0.8612  2.4762
  815TIP3    H224081   5.542   1.338   1.424  1.0850  0.3903  0.7809
  816TIP3   OH224082   1.707   4.332   8.827 -0.0941 -0.4901 -0.1289
  816TIP3    H124083   1.763   4.372   8.893  1.0097 -0.3616 -1.0982
  816TIP3    H224084   1.721   4.238   8.836 -2.1885 -0.7065  1.7126
  817TIP3   OH224085   0.607   5.061   6.892 -0.3252  0.0918 -0.1289
  817TIP3    H124086   0.617   5.147   6.852 -1.4971 -0.0753 -0.8423
  817TIP3    H224087   0.645   5.000   6.829 -0.8194 -0.0332 -0.3153
  818TIP3   OH224088   2.744   6.764   0.916 -0.0348 -0.6006 -0.0133
  818TIP3    H124089   2.827   6.810   0.910 -0.9845  1.4189  1.0643
  818TIP3    H224090   2.727   6.731   0.828  1.5500 -0.4464 -0.3915
  819TIP3   OH224091   3.860   4.424   2.513  0.2558  0.2732  0.2186
  819TIP3    H124092   3.795   4.422   2.583  0.0546 -0.0513  0.0241
  819TIP3    H224093   3.831   4.495   2.456 -1.8422 -1.9474 -1.6715
  820TIP3   OH224094   6.757   3.749   7.977  0.2202  0.2777  0.0241
  820TIP3    H124095   6.723   3.702   8.053  0.6022  0.4951  0.3270
  820TIP3    H224096   6.690   3.735   7.909  1.8837 -3.7916 -1.0850
  821TIP3   OH224097   2.109   5.396   6.932 -0.2804  0.0170 -0.0115
  821TIP3    H124098   2.041   5.459   6.905 -0.1868 -0.2685 -0.9418
  821TIP3    H224099   2.091   5.318   6.880  0.0618 -0.4657  0.5929
  822TIP3   OH224100   3.224   2.097   0.706 -0.2130  0.8013  0.1809
  822TIP3    H124101   3.247   2.006   0.722  0.7939  1.2607  1.4856
  822TIP3    H224102   3.129   2.097   0.695 -0.0647 -0.6092 -1.5028
  823TIP3   OH224103   5.601   5.058   7.877 -0.2288  0.2324  0.0726
  823TIP3    H124104   5.507   5.061   7.894 -0.1443  0.9531  0.4404
  823TIP3    H224105   5.642   5.063   7.963  0.1592  0.7180 -0.1325
  824TIP3   OH224106   6.503   1.149   7.622  0.2945  0.2146 -0.1655
  824TIP3    H124107   6.441   1.087   7.584 -0.1762  0.7599 -0.2917
  824TIP3    H224108   6.496   1.227   7.567 -0.9422  1.3072  1.4383
  825TIP3   OH224109   0.497   5.589   8.110 -0.5461  0.1671  0.2585
  825TIP3    H124110   0.543   5.532   8.172  0.9428  0.1535 -0.7948
  825TIP3    H224111   0.406   5.589   8.140 -0.2565 -1.4136  1.2699
  826TIP3   OH224112   1.524   3.117   1.405 -0.1143 -0.4765  0.1435
  826TIP3    H124113   1.461   3.189   1.397 -1.2534 -1.5653 -1.1774
  826TIP3    H224114   1.607   3.161   1.420 -0.6196  1.1948 -1.4751
  827TIP3   OH224115   3.680   0.955   6.942  0.0764 -0.6815  0.2444
  827TIP3    H124116   3.674   0.938   7.036 -0.2581 -0.0491  0.3470
  827TIP3    H224117   3.589   0.957   6.912  0.1376 -0.0711  0.0682
  828TIP3   OH224118   5.401   6.658   1.201 -0.5797  0.8053  0.0797
  828TIP3    H124119   5.315   6.687   1.230  0.4596  3.0476  1.1878
  828TIP3    H224120   5.452   6.651   1.282  0.7435  1.2001 -0.6925
  829TIP3   OH224121   2.698   1.878   0.085  0.0466  0.2151 -0.2310
  829TIP3    H124122   2.693   1.790   0.124  1.3808  0.5644  0.7975
  829TIP3    H224123   2.768   1.872   0.021 -0.5154  0.3007 -0.8712
  830TIP3   OH224124   4.454   3.088   0.554 -0.4528 -0.1246 -0.2601
  830TIP3    H124125   4.364   3.072   0.526 -1.1803 -2.0973  2.7785
  830TIP3    H224126   4.507   3.034   0.495 -1.3650  0.0176 -1.2377
  831TIP3   OH224127   0.771   1.126   8.221  0.1618  0.0546 -0.2729
  831TIP3    H124128   0.760   1.147   8.313 -2.7453 -0.3031 -0.4146
  831TIP3    H224129   0.863   1.142   8.202  0.7343  0.5468  2.5617
  832TIP3   OH224130   5.891   5.380   0.272 -0.7136  0.7744  0.1569
  832TIP3    H124131   5.863   5.319   0.341  1.7642  2.3323  2.7763
  832TIP3    H224132   5.979   5.351   0.250  0.1228  2.7020  0.7283
  833TIP3   OH224133   3.378   0.107   0.468 -0.5996 -0.8743  0.6044
  833TIP3    H124134   3.293   0.143   0.443 -1.0292 -0.9424  1.8567
  833TIP3    H224135   3.362   0.065   0.553  0.8957 -0.0084  1.3669
  834TIP3   OH224136   6.791   6.417   0.128 -0.4914  0.5037  0.1304
  834TIP3    H124137   6.860   6.415   0.062  0.7114 -2.9831  1.2467
  834TIP3    H224138   6.835   6.392   0.209 -2.9107 -1.2075  1.0405
  835TIP3   OH224139   4.443   2.093   7.108  0.3045  0.0602 -0.1150
  835TIP3    H124140   4.507   2.164   7.098  0.8311 -0.5367 -1.0902
  835TIP3    H224141   4.416   2.071   7.019  2.8886 -3.3995 -0.2402
  836TIP3   OH224142   1.451   5.250   0.557 -0.5349 -0.1495  0.0888
  836TIP3    H124143   1.366   5.241   0.599 -0.8871 -1.8478 -0.8956
  836TIP3    H224144   1.514   5.242   0.629 -1.1618  0.6889  0.7613
  837TIP3   OH224145   3.476   6.002   0.774  0.2156 -0.2202 -0.3023
  837TIP3    H124146   3.386   5.973   0.763 -0.6410 -0.5984  5.1364
  837TIP3    H224147   3.471   6.098   0.771 -0.7338 -0.1822  1.3186
  838TIP3   OH224148   1.013   0.128   6.965 -0.0307 -0.5341  0.5454
  838TIP3    H124149   0.980   0.146   6.877  1.4773 -2.8062 -0.5616
  838TIP3    H224150   1.020   0.215   7.006 -2.9732  0.4262 -0.6650
  839TIP3   OH224151   6.785   4.936   0.547 -0.2268 -0.0261 -0.3070
  839TIP3    H124152   6.829   4.857   0.579  0.5887  0.5972  0.1534
  839TIP3    H224153   6.798   4.934   0.452  1.0779  0.2862 -0.1520
  840TIP3   OH224154   4.620   4.914   0.536  0.5454 -0.1120 -0.7606
  840TIP3    H124155   4.621   4.982   0.602 -0.5765 -1.1966  0.4125
  840TIP3    H224156   4.707   4.875   0.540  1.7026  2.0727 -2.4128
  841TIP3   OH224157   5.442   6.027   7.384 -0.1752 -0.1446  0.8630
  841TIP3    H124158   5.510   6.071   7.333 -0.9965  1.4817  1.1063
  841TIP3    H224159   5.375   6.004   7.319  0.2280 -1.0240  0.7450
  842TIP3   OH224160   4.190   6.110   6.857 -0.0151 -0.2592  0.2069
  842TIP3    H124161   4.276   6.070   6.847  1.2718  2.0465  1.0605
  842TIP3    H224162   4.163   6.132   6.768 -0.5921 -2.5901 -0.2333
  843TIP3   OH224163   2.581   3.990   7.673 -0.4244  0.3499  0.2204
  843TIP3    H124164   2.569   4.053   7.602 -2.9344 -0.7921 -0.4669
  843TIP3    H224165   2.652   3.933   7.642  0.3052  1.4227 -0.1530
  844TIP3   OH224166   1.630   2.609   1.411  0.1840  0.5563 -0.3263
  844TIP3    H124167   1.544   2.571   1.391  0.1646  0.1060  0.5518
  844TIP3    H224168   1.685   2.533   1.429  0.7993  0.8415 -0.9864
  845TIP3   OH224169   6.111   4.467   2.391 -0.2189  0.2096 -0.1307
  845TIP3    H124170   6.150   4.545   2.431 -0.8606 -0.0286  0.9994
  845TIP3    H224171   6.184   4.406   2.381 -0.1028  0.1225  1.0861
  846TIP3   OH224172   0.996   6.695   0.291  0.1094 -0.2535  0.1630
  846TIP3    H124173   1.079   6.742   0.279 -0.6576  1.5988  1.6682
  846TIP3    H224174   0.983   6.692   0.386 -1.6126 -0.3812 -0.0459
  847TIP3   OH224175   1.484   1.706   1.181  0.2406 -0.1447 -0.3533
  847TIP3    H124176   1.437   1.690   1.263 -1.4211 -0.1136 -1.2445
  847TIP3    H224177   1.477   1.623   1.133  1.2237 -0.1712 -0.4651
  848TIP3   OH224178   4.394   6.509   7.538 -0.7355  0.5651 -0.0582
  848TIP3    H124179   4.475   6.548   7.506  0.0598 -1.7114 -1.0093
  848TIP3    H224180   4.332   6.518   7.466 -0.7463  0.6547 -0.0374
  849TIP3   OH224181   0.211   3.759   8.031  0.0961 -0.4204 -0.4069
  849TIP3    H124182   0.116   3.749   8.023  0.0983 -0.2378 -0.6622
  849TIP3    H224183   0.228   3.850   8.007  0.2400 -0.1913  0.5408
  850TIP3   OH224184   1.359   5.187   8.260  0.2995  0.3113 -0.4714
  850TIP3    H124185   1.347   5.134   8.338  1.0505 -1.7129 -1.6608
  850TIP3    H224186   1.302   5.147   8.194  0.8567  1.0066 -1.4020
  851TIP3   OH224187   1.707   6.691   0.580  0.5332 -0.0322 -0.7090
  851TIP3    H124188   1.779   6.719   0.637  0.0519 -1.6442  0.7644
  851TIP3    H224189   1.735   6.605   0.548 -1.1755 -1.2078  0.7961
  852TIP3   OH224190   1.666   4.548   0.908 -0.2972  0.0884  0.3715
  852TIP3    H124191   1.590   4.550   0.850 -1.4474 -2.4877  1.5816
  852TIP3    H224192   1.717   4.473   0.878 -1.0743 -1.4939  2.7035
  853TIP3   OH224193   0.924   5.863   6.939 -0.2617  0.1698 -0.1401
  853TIP3    H124194   0.868   5.785   6.937  0.9765 -0.8060  1.4258
  853TIP3    H224195   1.012   5.830   6.921  0.1580  1.3467 -0.3355
  854TIP3   OH224196   5.763   5.814   7.212 -0.3019  0.1287 -0.0586
  854TIP3    H124197   5.729   5.875   7.277 -0.1653  0.8233 -0.6292
  854TIP3    H224198   5.719   5.839   7.130  1.1854  0.7225 -0.7018
  855TIP3   OH224199   5.052   2.718   2.361  0.0674 -0.1573  0.1225
  855TIP3    H124200   5.026   2.676   2.279  0.0570 -2.9358  1.4091
  855TIP3    H224201   5.109   2.654   2.403 -0.1042  1.0669  2.3896
  856TIP3   OH224202   6.114   3.113   8.123  0.4437 -0.0036  0.0326
  856TIP3    H124203   6.069   3.082   8.201  0.0978  0.7897  0.1588
  856TIP3    H224204   6.083   3.203   8.112  3.5800  1.4142  1.4060
  857TIP3   OH224205   5.745   6.406   1.539 -0.2742 -0.4703 -0.6618
  857TIP3    H124206   5.700   6.367   1.614  1.6199 -3.3511 -0.8461
  857TIP3    H224207   5.690   6.480   1.513 -1.9697 -0.5375  2.3529
  858TIP3   OH224208   2.088   5.237   0.891 -0.1784  0.3496  0.5048
  858TIP3    H124209   2.070   5.178   0.964  1.2857  1.8804  2.2047
  858TIP3    H224210   2.043   5.198   0.816 -1.1164 -1.6780  2.0503
  859TIP3   OH224211   4.333   0.232   8.084 -0.5057  0.0895  0.1414
  859TIP3    H124212   4.252   0.181   8.088 -1.3817  1.5173  1.2484
  859TIP3    H224213   4.394   0.184   8.140 -0.9425 -0.3565  0.2480
  860TIP3   OH224214   1.885   2.244   7.275 -0.2691  0.8410  0.0100
  860TIP3    H124215   1.958   2.255   7.214 -1.6531 -1.5161 -2.3155
  860TIP3    H224216   1.822   2.310   7.248  0.5017  2.1444  1.2938
  861TIP3   OH224217   5.375   1.986   0.112  0.0021  0.3298 -0.3249
  861TIP3    H124218   5.396   2.020   0.199  0.6256  0.7728 -0.6358
  861TIP3    H224219   5.349   2.063   0.062  0.0112  0.1325 -0.6374
  862TIP3   OH224220   5.329   2.293   7.165 -0.5286  0.5411 -0.3115
  862TIP3    H124221   5.272   2.231   7.120 -0.2093 -0.7329  0.9710
  862TIP3    H224222   5.300   2.379   7.134 -2.0424 -0.1529 -0.9252
  863TIP3   OH224223   5.608   2.431   1.787 -0.0163 -0.1215 -0.6711
  863TIP3    H124224   5.608   2.439   1.883 -0.1697  1.5508 -0.7758
  863TIP3    H224225   5.700   2.430   1.763  0.0188  0.1005 -0.5451
  864TIP3   OH224226   6.086   6.463   8.248 -0.1534  0.2783 -0.5287
  864TIP3    H124227   6.181   6.460   8.261 -0.1239  2.7934  0.4072
  864TIP3    H224228   6.050   6.473   8.336 -1.3259 -0.6365 -0.8739
  865TIP3   OH224229   2.969   5.318   2.338 -0.2899  0.3063 -0.2903
  865TIP3    H124230   2.972   5.412   2.359  0.4886 -0.1585  1.9759
  865TIP3    H224231   2.881   5.290   2.363 -0.1660  0.2192  0.0455
  866TIP3   OH224232   3.988   4.200   8.016  0.3195 -0.4996 -0.3217
  866TIP3    H124233   4.022   4.142   8.083  1.1805 -0.3933 -0.6588
  866TIP3    H224234   3.893   4.196   8.026  0.4436 -0.0196  1.2963
  867TIP3   OH224235   0.639   4.287   8.195  0.6760 -0.2776  0.0641
  867TIP3    H124236   0.592   4.307   8.113  0.6352 -2.0818 -0.3974
  867TIP3    H224237   0.683   4.369   8.217 -1.3866  1.0367 -0.3454
  868TIP3   OH224238   4.001   5.975   1.205 -0.3299 -0.3985 -0.1631
  868TIP3    H124239   4.004   6.067   1.177  0.2725 -0.2934  0.2291
  868TIP3    H224240   4.009   5.925   1.124 -1.1399 -0.1125 -0.4312
  869TIP3   OH224241   4.952   4.789   7.748  0.5792  0.1183  0.4016
  869TIP3    H124242   4.972   4.863   7.690 -1.8914  2.8926  2.7611
  869TIP3    H224243   4.949   4.713   7.690  1.7962  2.0774 -2.4399
  870TIP3   OH224244   0.963   4.482   0.174  0.1068 -0.1290 -0.1909
  870TIP3    H124245   0.959   4.402   0.122  0.4695 -1.5508  1.8345
  870TIP3    H224246   1.032   4.534   0.133 -1.0699 -0.1573 -2.3808
  871TIP3   OH224247   2.724   2.667   8.163 -0.4873  0.7354  0.2964
  871TIP3    H124248   2.749   2.575   8.173 -1.7287  0.1337 -1.6544
  871TIP3    H224249   2.628   2.666   8.159 -0.4602  1.8485 -1.7449
  872TIP3   OH224250   4.497   5.058   7.329 -0.5682  0.8084  0.5891
  872TIP3    H124251   4.533   5.016   7.252  0.6240  0.4463  1.3137
  872TIP3    H224252   4.510   5.152   7.314 -0.6986  0.7638  0.1891
  873TIP3   OH224253   3.886   4.778   1.187  0.0038  0.0522  0.1288
  873TIP3    H124254   3.936   4.700   1.163  0.0209 -0.2932  1.2428
  873TIP3    H224255   3.795   4.754   1.175  0.0544  0.6120 -1.6949
  874TIP3   OH224256   2.684   0.776   0.652 -0.1612  0.2462 -0.5650
  874TIP3    H124257   2.696   0.865   0.685 -1.2956  0.2250 -0.0287
  874TIP3    H224258   2.772   0.746   0.629  0.8846 -0.0147  3.1565
  875TIP3   OH224259   1.577   2.301   1.483  0.0532 -0.0194  0.6234
  875TIP3    H124260   1.619   2.220   1.512  1.6636  0.5750  0.0464
  875TIP3    H224261   1.532   2.334   1.561  0.6817 -0.6772  1.2744
  876TIP3   OH224262   5.863   6.256   1.283  0.1966  0.1407 -0.4197
  876TIP3    H124263   5.938   6.290   1.234  0.1962  0.0551 -0.4808
  876TIP3    H224264   5.815   6.333   1.311  1.0550  0.2634  0.8183
  877TIP3   OH224265   0.946   0.344   6.034  0.2630 -0.1383 -0.6504
  877TIP3    H124266   0.875   0.315   5.977 -2.3336  1.5105  1.5010
  877TIP3    H224267   0.921   0.311   6.121  2.4724  0.0377  0.1195
  878TIP3   OH224268   4.254   2.593   8.478  0.2493  1.0774 -0.5121
  878TIP3    H124269   4.163   2.568   8.493  0.2091  2.6897  2.9136
  878TIP3    H224270   4.249   2.678   8.434 -0.1040  2.3056  1.7234
  879TIP3   OH224271   6.707   5.079   2.356 -0.5571  0.4686  0.3347
  879TIP3    H124272   6.641   5.105   2.421 -1.2881  0.7302 -0.4814
  879TIP3    H224273   6.783   5.134   2.375 -0.5177  0.0731  1.3708
  880TIP3   OH224274   3.357   5.175   8.575  0.0156  0.3112 -0.5047
  880TIP3    H124275   3.322   5.241   8.635 -2.7635  1.4170 -3.0905
  880TIP3    H224276   3.375   5.099   8.630 -1.0476  1.6864  1.8832
  881TIP3   OH224277   2.814   5.214   7.857 -0.6421  0.2480 -0.1500
  881TIP3    H124278   2.756   5.229   7.931 -1.1366  0.6217 -0.5993
  881TIP3    H224279   2.761   5.161   7.796 -0.8926  1.4354 -1.0073
  882TIP3   OH224280   0.682   3.033   7.960  0.1414  0.3051 -0.1702
  882TIP3    H124281   0.698   3.061   8.051  3.1954  1.1990 -0.8702
  882TIP3    H224282   0.632   2.952   7.969  1.2673 -0.2186  2.3851
  883TIP3   OH224283   6.517   5.426   8.599  0.2336  0.2938  0.0698
  883TIP3    H124284   6.522   5.388   8.686  0.7973  1.7048  0.6783
  883TIP3    H224285   6.510   5.351   8.540 -1.5649 -0.6565  1.3998
  884TIP3   OH224286   1.148   1.716   2.423 -0.1098  0.5189  0.7208
  884TIP3    H124287   1.108   1.781   2.481  1.8676  1.0693  1.5515
  884TIP3    H224288   1.116   1.739   2.336 -2.8760 -0.1098  1.4805
  885TIP3   OH224289   5.260   5.615   8.148 -0.1512 -0.1343 -0.1101
  885TIP3    H124290   5.323   5.633   8.078 -1.4146  2.5826 -0.6711
  885TIP3    H224291   5.206   5.544   8.114 -1.1101  1.5165 -2.2742
  886TIP3   OH224292   3.769   4.135   8.665  0.1730  0.1632  0.4887
  886TIP3    H124293   3.851   4.176   8.694  2.5167 -3.2230 -0.6891
  886TIP3    H224294   3.754   4.170   8.578  1.0358  0.0333  0.2744
  887TIP3   OH224295   4.383   4.938   8.022 -0.0182 -0.1124  0.2202
  887TIP3    H124296   4.390   4.879   7.948 -1.6059  0.2109 -0.2223
  887TIP3    H224297   4.389   5.026   7.984  1.4411  0.0419  0.7616
  888TIP3   OH224298   0.356   1.840   2.204 -0.0764  0.2722  0.1371
  888TIP3    H124299   0.277   1.893   2.199 -0.0826  0.1619 -1.3060
  888TIP3    H224300   0.333   1.758   2.162  1.2985  0.9072 -1.9996
  889TIP3   OH224301   3.963   1.186   1.951 -0.7075  0.5112 -0.0120
  889TIP3    H124302   3.975   1.281   1.953  2.3380  0.2407  0.8879
  889TIP3    H224303   3.970   1.162   1.859 -1.5452  1.1288 -0.2496
  890TIP3   OH224304   5.061   2.463   1.462  0.3195 -0.1805  0.4390
  890TIP3    H124305   5.071   2.443   1.556  0.4938  0.2345  0.5109
  890TIP3    H224306   5.090   2.554   1.454  0.2408 -0.1949 -0.0089
  891TIP3   OH224307   3.130   3.532   7.997 -0.1906  0.0279  0.2523
  891TIP3    H124308   3.095   3.564   7.914  1.3570 -0.2750 -0.5640
  891TIP3    H224309   3.166   3.610   8.039  0.8369 -0.1045 -0.3292
  892TIP3   OH224310   2.107   0.599   1.604  0.5713  0.3837 -0.4516
  892TIP3    H124311   2.060   0.528   1.559  1.0206 -0.0879 -0.1936
  892TIP3    H224312   2.038   0.660   1.631 -0.0163 -0.7208  0.6717
  893TIP3   OH224313   3.566   4.317   1.766 -1.0141 -0.4487  0.4479
  893TIP3    H124314   3.643   4.325   1.710 -0.5963  0.3692  1.1279
  893TIP3    H224315   3.497   4.365   1.719 -0.8858 -0.4568  0.2502
  894TIP3   OH224316   4.505   4.074   7.098  0.0058 -0.0439  0.5196
  894TIP3    H124317   4.509   4.041   7.188 -1.4846  0.5022  0.8020
  894TIP3    H224318   4.434   4.137   7.098 -0.4620 -0.5144 -1.2015
  895TIP3   OH224319   0.943   4.969   1.609  0.0750  0.1129 -0.3082
  895TIP3    H124320   0.849   4.967   1.624  0.3200 -0.3881  1.3242
  895TIP3    H224321   0.955   4.925   1.525 -1.0778 -0.6200 -0.1009
  896TIP3   OH224322   5.924   0.893   0.693  0.4753  0.1113  0.1683
  896TIP3    H124323   5.931   0.980   0.732 -0.3217  0.4858 -0.5045
  896TIP3    H224324   5.997   0.844   0.732  1.9655  1.5488 -0.6440
  897TIP3   OH224325   6.707   2.982   8.823 -0.8724  0.1892 -0.3329
  897TIP3    H124326   6.623   2.940   8.805 -2.3151  1.6889  2.2894
  897TIP3    H224327   6.770   2.910   8.825 -2.4714 -1.2631 -0.3376
  898TIP3   OH224328   0.336   4.314   8.061  0.3533  0.2365  0.1541
  898TIP3    H124329   0.307   4.352   7.978 -0.8135 -0.5886  0.1592
  898TIP3    H224330   0.351   4.390   8.118 -0.2831  0.7557 -0.3490
  899TIP3   OH224331   6.238   0.417   2.476 -0.1370  0.4471  1.0337
  899TIP3    H124332   6.322   0.433   2.433 -1.0583  2.5712 -0.1162
  899TIP3    H224333   6.205   0.337   2.434 -1.6474  3.1022 -3.6428
  900TIP3   OH224334   3.928   5.613   0.406  0.1277 -0.0521 -0.2588
  900TIP3    H124335   3.921   5.682   0.340 -1.0682 -1.3417 -1.5553
  900TIP3    H224336   3.839   5.605   0.441  0.7988  0.8546  1.8609
  901TIP3   OH224337   1.815   6.161   7.579  0.0988 -0.2262  0.0581
  901TIP3    H124338   1.866   6.171   7.499 -0.4368 -1.2243 -0.4359
  901TIP3    H224339   1.858   6.218   7.643 -0.0155  1.2979 -1.1858
  902TIP3   OH224340   1.392   2.214   6.885  0.2228  0.4273  0.4140
  902TIP3    H124341   1.454   2.142   6.893 -0.2903  0.1509  2.5157
  902TIP3    H224342   1.319   2.177   6.836  0.4215 -0.1682  0.5632
  903TIP3   OH224343   1.783   1.688   7.623 -0.4849  0.0319 -0.0682
  903TIP3    H124344   1.752   1.601   7.646  0.0896  0.1155  1.1242
  903TIP3    H224345   1.878   1.683   7.632 -0.4427  0.7781  0.0021
  904TIP3   OH224346   4.441   3.640   8.158 -0.5706 -0.0214  0.1557
  904TIP3    H124347   4.464   3.586   8.233 -1.2333 -0.3485  0.1355
  904TIP3    H224348   4.380   3.705   8.194  2.3348  2.5910  0.8130
  905TIP3   OH224349   1.258   1.744   8.264  0.0071 -0.3192  0.0645
  905TIP3    H124350   1.237   1.739   8.171  0.1128  1.0888 -0.0551
  905TIP3    H224351   1.176   1.773   8.305  0.6163  1.4499  0.0826
  906TIP3   OH224352   2.573   5.049   8.439  0.2907  0.1955 -0.1277
  906TIP3    H124353   2.636   5.121   8.434 -0.5273  1.0566  1.3596
  906TIP3    H224354   2.612   4.979   8.387  2.1283  0.9451  0.1767
  907TIP3   OH224355   2.984   3.639   7.780 -0.1315 -0.3004 -0.4913
  907TIP3    H124356   2.935   3.584   7.720 -0.4593 -1.0388  0.4252
  907TIP3    H224357   2.947   3.727   7.769 -0.0752 -0.3901 -1.4599
  908TIP3   OH224358   1.701   5.602   8.045  0.4764  0.3148 -0.4295
  908TIP3    H124359   1.699   5.521   7.993 -2.3596 -0.6971  1.0340
  908TIP3    H224360   1.637   5.659   8.002  2.4700  1.8822 -1.4626
  909TIP3   OH224361   3.887   2.669   8.350  0.8734 -0.3252 -0.0457
  909TIP3    H124362   3.859   2.760   8.351 -0.1633 -0.6152 -0.3971
  909TIP3    H224363   3.806   2.620   8.335  1.6225 -1.1968 -1.4981
  910TIP3   OH224364   5.729   5.123   7.320 -0.0902  0.6347 -0.5026
  910TIP3    H124365   5.774   5.136   7.403 -0.5351  2.7856 -0.5508
  910TIP3    H224366   5.793   5.147   7.254 -0.3565  0.8210 -0.6952
  911TIP3   OH224367   6.349   4.344   1.306 -0.1802 -0.5814 -0.0068
  911TIP3    H124368   6.425   4.345   1.248  0.0525 -0.7825  0.2888
  911TIP3    H224369   6.370   4.410   1.373  0.4569 -1.7354  0.9763
  912TIP3   OH224370   6.069   0.321   0.707  0.2835  0.8241  0.0851
  912TIP3    H124371   6.072   0.324   0.612 -1.2176 -1.2281 -0.0928
  912TIP3    H224372   6.153   0.283   0.733 -0.3384 -1.2015 -0.6651
  913TIP3   OH224373   4.783   6.048   1.015  0.1167 -0.3090 -0.0072
  913TIP3    H124374   4.792   5.966   0.967  0.2493  0.7232 -1.8416
  913TIP3    H224375   4.861   6.053   1.070 -1.0667 -2.5502  2.0668
  914TIP3   OH224376   4.619   0.529   8.689  0.0789 -0.5667  0.2029
  914TIP3    H124377   4.570   0.557   8.611 -1.6661  0.1348  1.4781
  914TIP3    H224378   4.647   0.611   8.730  1.4170 -0.9435  0.0862
  915TIP3   OH224379   0.225   2.665   8.202 -0.0202  0.2026 -0.1035
  915TIP3    H124380   0.275   2.654   8.121 -1.4362  0.8896 -1.1093
  915TIP3    H224381   0.206   2.758   8.205 -0.7775  0.0328  0.5283
  916TIP3   OH224382   0.002   2.860   8.114 -0.2344 -0.1290 -0.1070
  916TIP3    H124383   0.031   2.948   8.138  0.1801 -0.7297  1.7660
  916TIP3    H224384  -0.076   2.873   8.060  0.0279  1.3845 -0.1378
  917TIP3   OH224385   6.042   3.484   8.716 -0.2283 -0.6433 -0.1629
  917TIP3    H124386   6.008   3.410   8.665 -0.2865 -1.0972  0.5180
  917TIP3    H224387   6.054   3.449   8.804 -0.5746  0.2552  0.2551
  918TIP3   OH224388   4.146   1.995   8.168 -0.1391  0.2479  0.1122
  918TIP3    H124389   4.169   1.945   8.090  1.1933  0.2953  0.4563
  918TIP3    H224390   4.101   2.072   8.134  0.5837  0.3596 -0.6333
  919TIP3   OH224391   2.642   5.026   7.728 -0.1458  0.3851  0.3850
  919TIP3    H124392   2.549   5.008   7.740  0.0380  0.1051  1.5127
  919TIP3    H224393   2.672   4.958   7.668 -0.1423 -1.1402  2.0551
  920TIP3   OH224394   4.993   5.284   1.219  0.1947  0.5064 -0.3872
  920TIP3    H124395   5.040   5.298   1.137 -2.1865  0.5339 -1.8464
  920TIP3    H224396   4.996   5.369   1.263  1.9280  0.3556 -0.1620
  921TIP3   OH224397   6.622   3.649   8.721  0.0258 -0.0341 -0.4210
  921TIP3    H124398   6.705   3.604   8.734 -0.5488 -0.5929  1.5369
  921TIP3    H224399   6.555   3.582   8.739 -0.8427  1.0497  0.4753
  922TIP3   OH224400   0.682   4.037   1.445 -0.4172 -0.0800  0.0293
  922TIP3    H124401   0.692   4.057   1.539  0.0078 -1.9028  0.4083
  922TIP3    H224402   0.685   3.942   1.441 -0.9395 -0.0390 -1.8078
  923TIP3   OH224403   1.661   4.356   0.305 -0.5795  0.2508  0.1279
  923TIP3    H124404   1.572   4.391   0.295  0.0669  2.6652  1.9394
  923TIP3    H224405   1.670   4.342   0.400  0.6624 -0.9561 -0.1324
  924TIP3   OH224406   1.362   2.894   0.006 -0.2077 -0.2734 -0.5609
  924TIP3    H124407   1.296   2.838   0.046 -0.6377  0.0084 -0.8798
  924TIP3    H224408   1.322   2.980   0.001  0.9745  0.4507  1.3114
  925TIP3   OH224409   2.238   6.379   7.829  0.1489  0.0907  0.1931
  925TIP3    H124410   2.313   6.428   7.797 -0.7308  0.4350 -1.4589
  925TIP3    H224411   2.171   6.445   7.847 -0.0590 -0.2737  0.7865
  926TIP3   OH224412   1.387   2.473   6.735  0.5553  0.0717  0.5205
  926TIP3    H124413   1.344   2.543   6.785  0.4518 -0.8043  1.6996
  926TIP3    H224414   1.370   2.393   6.786  0.0964 -0.9270 -1.1464
  927TIP3   OH224415   6.178   4.362   2.095 -0.0605 -0.4408  0.1921
  927TIP3    H124416   6.259   4.390   2.052  0.2300 -3.2122 -1.3297
  927TIP3    H224417   6.204   4.345   2.186  0.4023  1.1687  0.3956
  928TIP3   OH224418   4.761   4.278   1.383  0.1962  0.2995 -0.1227
  928TIP3    H124419   4.726   4.189   1.385 -0.2251  0.4681  1.8495
  928TIP3    H224420   4.732   4.318   1.465  0.5471  2.2053 -0.8529
  929TIP3   OH224421   1.006   6.368   6.454 -0.0129  0.1799  0.5564
  929TIP3    H124422   1.056   6.448   6.441 -0.3319  0.1403 -1.1238
  929TIP3    H224423   1.071   6.299   6.465  0.2890  0.4017  0.1729
  930TIP3   OH224424   5.771   6.618   8.830  0.3318  1.1304  0.6937
  930TIP3    H124425   5.789   6.707   8.860  3.0682  0.8492  0.1538
  930TIP3    H224426   5.828   6.563   8.884  1.8582  0.1796 -1.7066
  931TIP3   OH224427   1.415   0.482   8.445 -0.2824  0.1817 -0.5118
  931TIP3    H124428   1.344   0.463   8.385 -0.2788  1.0119 -0.7826
  931TIP3    H224429   1.411   0.576   8.460 -0.0656  0.0472  0.5161
  932TIP3   OH224430   0.998   6.340   7.883 -0.3542 -0.3972  0.2823
  932TIP3    H124431   1.028   6.390   7.958 -0.8249 -0.9425  0.8487
  932TIP3    H224432   1.041   6.381   7.808 -1.0548  1.1055  0.6709
  933TIP3   OH224433   1.243   3.625   6.693 -0.0669 -0.4512 -0.4965
  933TIP3    H124434   1.301   3.697   6.665 -1.3808  0.5949 -0.6300
  933TIP3    H224435   1.296   3.546   6.681  1.5048  0.4991 -0.1459
  934TIP3   OH224436   3.089   1.627   7.207 -0.0158 -0.1644 -0.0112
  934TIP3    H124437   3.177   1.658   7.189  0.2027 -0.2078  0.9153
  934TIP3    H224438   3.036   1.660   7.134  0.7299  0.0021 -0.4825
  935TIP3   OH224439   0.563   5.652   6.403  0.4011  0.3108  0.0286
  935TIP3    H124440   0.577   5.624   6.494  0.6876  1.4674  0.3561
  935TIP3    H224441   0.637   5.615   6.355  0.4071 -0.0567  0.3079
  936TIP3   OH224442   0.238   4.119   1.671 -0.0026 -0.1328 -0.1006
  936TIP3    H124443   0.330   4.146   1.668 -0.1421  0.6744  1.5618
  936TIP3    H224444   0.234   4.056   1.743 -0.2732 -2.3877 -1.9700
  937TIP3   OH224445   0.457   6.050   1.245  0.4554  0.0674 -0.3330
  937TIP3    H124446   0.490   6.127   1.292 -1.6265  1.1045 -0.4324
  937TIP3    H224447   0.424   6.086   1.162 -3.0793 -0.3618  0.7247
  938TIP3   OH224448   2.886   2.077   5.984 -0.1647  0.4415  0.8971
  938TIP3    H124449   2.879   1.989   5.946  1.2951 -0.0010  1.5699
  938TIP3    H224450   2.839   2.072   6.067 -0.7020  0.5137  0.6003
  939TIP3   OH224451   4.196   1.421   8.867  0.7266  0.1412  0.0806
  939TIP3    H124452   4.216   1.329   8.886 -0.4260 -0.0660  0.3955
  939TIP3    H224453   4.232   1.469   8.942 -0.9729 -0.3500  1.2770
  940TIP3   OH224454   1.431   1.762   7.118 -0.0976 -0.0751  0.4308
  940TIP3    H124455   1.470   1.774   7.204  1.7466 -1.5425 -0.1295
  940TIP3    H224456   1.445   1.670   7.097 -0.9611  0.1199 -1.2279
  941TIP3   OH224457   5.843   6.018   6.726  0.3669  0.0595  0.2440
  941TIP3    H124458   5.820   6.102   6.765 -0.8114 -0.6780  1.2171
  941TIP3    H224459   5.778   6.004   6.657  0.9320  0.2063 -0.3350
  942TIP3   OH224460   2.660   3.788   0.445 -0.2761 -0.0241 -0.4907
  942TIP3    H124461   2.744   3.794   0.491 -0.1782 -1.5721 -0.4122
  942TIP3    H224462   2.684   3.788   0.352 -0.3221  1.1451 -0.5082
  943TIP3   OH224463   5.827   1.251   1.583  0.4091  0.6841  0.0836
  943TIP3    H124464   5.854   1.213   1.500 -0.6796 -0.3255  0.1651
  943TIP3    H224465   5.841   1.181   1.647 -2.8002 -0.1572  0.0544
  944TIP3   OH224466   4.469   3.111   7.867  0.2692 -0.2414  0.2269
  944TIP3    H124467   4.402   3.072   7.923 -0.4859 -2.1864 -1.8637
  944TIP3    H224468   4.552   3.090   7.910 -0.2950  3.0123  3.3545
  945TIP3   OH224469   4.443   1.081   1.575 -0.1795 -0.5034 -0.4437
  945TIP3    H124470   4.366   1.137   1.569  0.2255  0.0529 -0.5184
  945TIP3    H224471   4.414   0.996   1.541 -0.6974 -0.2422 -0.6588
  946TIP3   OH224472   5.626   3.909   1.807  0.0176 -0.4264  0.1745
  946TIP3    H124473   5.701   3.893   1.864  0.1437 -1.0786 -0.1708
  946TIP3    H224474   5.556   3.855   1.842 -0.4090  0.4497  0.7077
  947TIP3   OH224475   4.841   5.997   8.537 -0.0097 -0.2608  0.2196
  947TIP3    H124476   4.802   6.085   8.540  0.0782 -0.2116 -0.0645
  947TIP3    H224477   4.774   5.940   8.575 -0.5028 -0.2238 -0.5678
  948TIP3   OH224478   5.787   3.573   8.206 -0.1766 -0.1484 -0.5323
  948TIP3    H124479   5.769   3.654   8.254  2.3506  0.7584 -0.9368
  948TIP3    H224480   5.792   3.506   8.274  0.4702  0.5814  0.1623
  949TIP3   OH224481   1.102   2.081   0.874 -0.5559  0.2020 -0.1490
  949TIP3    H124482   1.128   1.999   0.916 -1.8624  1.2052  2.8959
  949TIP3    H224483   1.180   2.136   0.878  0.3648 -0.8665 -2.3223
  950TIP3   OH224484   4.777   5.117   1.655  0.1337 -0.3463 -0.2782
  950TIP3    H124485   4.804   5.191   1.710  2.1074 -1.5502  0.4772
  950TIP3    H224486   4.810   5.138   1.568  1.6589 -0.7680  0.1626
  951TIP3   OH224487   1.366   3.833   0.490  0.4429  0.1376  0.4315
  951TIP3    H124488   1.320   3.820   0.573 -0.5365  0.1017 -0.1104
  951TIP3    H224489   1.346   3.923   0.465 -1.4038 -0.6155 -1.0277
  952TIP3   OH224490   3.419   4.521   7.905 -0.0480  0.0576  0.4761
  952TIP3    H124491   3.435   4.587   7.972 -1.2839  0.8230  0.0397
  952TIP3    H224492   3.433   4.567   7.822  0.0782 -0.5061  0.1746
  953TIP3   OH224493   5.408   0.456   7.796  0.0043 -0.2466  0.3434
  953TIP3    H124494   5.464   0.457   7.874  0.6998 -1.0558 -0.1370
  953TIP3    H224495   5.464   0.489   7.726 -0.3431 -0.3714  0.0056
  954TIP3   OH224496   6.646   6.118   1.266 -0.1698  0.2570 -0.1354
  954TIP3    H124497   6.622   6.205   1.298  1.0366  0.0668  1.4027
  954TIP3    H224498   6.609   6.058   1.331  3.0968 -0.1053  1.5556
  955TIP3   OH224499   2.605   3.644   8.141 -0.0305 -0.8358  0.1066
  955TIP3    H124500   2.621   3.688   8.058  1.6961  1.6653  1.6334
  955TIP3    H224501   2.674   3.577   8.147  1.0762  0.2857  0.3238
  956TIP3   OH224502   5.443   3.123   6.712  0.1547  0.1314  0.3829
  956TIP3    H124503   5.462   3.099   6.622 -0.2335  0.9369  0.0768
  956TIP3    H224504   5.489   3.206   6.726 -1.5002  1.1402  0.2202
  957TIP3   OH224505   1.171   0.818   0.544 -0.3843 -0.4733  0.2930
  957TIP3    H124506   1.129   0.732   0.554 -0.2586 -0.4155  1.4431
  957TIP3    H224507   1.254   0.809   0.591 -0.5640  0.4169  0.7943
  958TIP3   OH224508   6.311   5.272   7.924  0.7171  0.7295  0.0068
  958TIP3    H124509   6.222   5.274   7.961  0.4316 -0.6233 -0.5549
  958TIP3    H224510   6.313   5.193   7.871  2.5527  0.2419  0.7320
  959TIP3   OH224511   1.172   2.151   6.681 -0.0161  0.1305 -0.3986
  959TIP3    H124512   1.117   2.217   6.638  1.0846  0.1860 -1.7858
  959TIP3    H224513   1.109   2.086   6.715 -1.0471  1.3338  0.0771
  960TIP3   OH224514   4.950   0.421   7.091 -0.2620 -0.3778  0.1054
  960TIP3    H124515   4.972   0.513   7.107 -1.9152  0.2563 -1.0042
  960TIP3    H224516   5.011   0.372   7.147  1.2465  1.3405  0.0653
  961TIP3   OH224517   3.392   0.279   8.683 -0.4355  0.1747  0.1370
  961TIP3    H124518   3.463   0.342   8.690 -0.4201  0.2294 -0.4596
  961TIP3    H224519   3.321   0.327   8.641 -0.8538  0.1438  0.7984
  962TIP3   OH224520   0.708   3.949   8.115 -0.3148 -0.5536  0.2480
  962TIP3    H124521   0.674   3.875   8.065  0.6384 -0.9407  0.1616
  962TIP3    H224522   0.668   4.026   8.073 -0.3191 -0.9379 -0.4621
  963TIP3   OH224523   4.757   6.695   2.337 -0.1515 -0.1320  0.2857
  963TIP3    H124524   4.717   6.658   2.415 -1.4589 -0.8902 -0.6956
  963TIP3    H224525   4.732   6.788   2.338  2.1400  0.5744  2.1332
  964TIP3   OH224526   0.471   5.012   8.640 -0.7220 -0.0302 -0.0738
  964TIP3    H124527   0.441   4.924   8.618 -2.1070  0.4373 -0.1442
  964TIP3    H224528   0.503   5.004   8.730 -1.3609 -0.4838  0.1181
  965TIP3   OH224529   4.020   1.352   1.214 -0.2960 -0.2665 -0.0929
  965TIP3    H124530   4.111   1.381   1.205 -0.8939  1.4466 -1.2897
  965TIP3    H224531   3.996   1.379   1.303 -1.2685  4.8249 -1.5411
  966TIP3   OH224532   5.603   1.527   0.148 -0.3286 -0.5570 -0.4300
  966TIP3    H124533   5.582   1.434   0.136 -0.3687 -1.0621  2.7683
  966TIP3    H224534   5.520   1.566   0.176  0.5123 -0.4779  2.2300
  967TIP3   OH224535   4.311   6.040   7.734 -0.2016 -0.1288  0.6040
  967TIP3    H124536   4.243   6.022   7.798 -0.9652  2.1691  0.5209
  967TIP3    H224537   4.330   6.133   7.744 -1.0377  0.5847 -3.1077
  968TIP3   OH224538   5.560   5.199   0.729 -0.2635 -0.1286 -0.6888
  968TIP3    H124539   5.590   5.199   0.638  1.9606  0.9704 -0.0328
  968TIP3    H224540   5.493   5.267   0.732  1.1681  1.3424 -1.0848
  969TIP3   OH224541   6.092   5.677   6.708 -0.6649  0.2519 -0.4903
  969TIP3    H124542   6.097   5.728   6.788  0.0409 -0.8065  0.1678
  969TIP3    H224543   6.150   5.723   6.647 -1.1915  1.0499 -0.4053
  970TIP3   OH224544   6.449   1.049   0.966  0.4276  0.0820 -0.0122
  970TIP3    H124545   6.359   1.070   0.991  0.5831  1.1999 -0.3363
  970TIP3    H224546   6.474   0.978   1.025 -1.1484 -1.2896 -0.9072
  971TIP3   OH224547   1.614   1.089   7.031  0.2261  0.4973  0.4785
  971TIP3    H124548   1.707   1.108   7.034  0.1777  0.7731  0.2942
  971TIP3    H224549   1.587   1.111   6.942 -0.0066  0.3862  0.5187
  972TIP3   OH224550   0.552   2.618   7.327 -0.0671 -0.7272  0.2659
  972TIP3    H124551   0.483   2.659   7.379 -0.0582  0.4691 -0.6144
  972TIP3    H224552   0.592   2.554   7.386  0.4842  1.1267  2.0420
  973TIP3   OH224553   4.557   0.932   1.205 -0.5055 -0.5390  0.4109
  973TIP3    H124554   4.462   0.943   1.208 -0.4668 -0.4777  1.6823
  973TIP3    H224555   4.570   0.837   1.208 -0.5449 -0.6196 -1.0940
  974TIP3   OH224556   2.637   1.159   0.277 -0.3874  0.3513 -0.4876
  974TIP3    H124557   2.572   1.225   0.254 -2.8426 -1.5803  0.3396
  974TIP3    H224558   2.585   1.082   0.301  2.1701 -0.7663  2.0828
  975TIP3   OH224559   5.712   5.089   7.638 -0.7110  1.0853 -0.5776
  975TIP3    H124560   5.644   5.082   7.704 -2.4173  0.6687 -2.2664
  975TIP3    H224561   5.713   5.182   7.614  0.3189  1.3475  0.3852
  976TIP3   OH224562   0.089   0.221   8.598 -0.1492 -0.5142  0.0289
  976TIP3    H124563   0.091   0.178   8.683  1.7818  1.1219  0.9115
  976TIP3    H224564   0.176   0.204   8.561  0.3128  1.6464 -0.0272
  977TIP3   OH224565   3.131   2.725   8.396  0.1587 -0.3436 -0.9275
  977TIP3    H124566   3.049   2.762   8.364 -0.1609 -0.8600 -0.7242
  977TIP3    H224567   3.160   2.786   8.464  0.5264  0.4313 -1.7650
  978TIP3   OH224568   6.097   6.358   1.229 -0.3432  0.2535 -0.2060
  978TIP3    H124569   6.081   6.452   1.241  0.3614  0.4510 -0.7346
  978TIP3    H224570   6.186   6.344   1.262 -1.3796 -0.7757  2.4109
  979TIP3   OH224571   6.340   4.175   7.128 -0.8154  0.0919 -0.0128
  979TIP3    H124572   6.298   4.225   7.058 -0.8568  0.5107  0.3067
  979TIP3    H224573   6.422   4.145   7.089 -0.1513  1.5492  0.1892
  980TIP3   OH224574   4.880   0.331   6.568  0.0651  0.1700  0.1499
  980TIP3    H124575   4.788   0.330   6.541 -0.0325  0.0784  0.4742
  980TIP3    H224576   4.877   0.364   6.658  0.4888  1.6245 -0.3405
  981TIP3   OH224577   4.939   6.658   0.617 -0.3413  0.5420 -0.0712
  981TIP3    H124578   5.013   6.713   0.642  0.4026 -0.7199  0.6419
  981TIP3    H224579   4.907   6.622   0.700 -1.0780  0.2431 -0.4766
  982TIP3   OH224580   5.905   6.636   0.971 -0.2162 -0.5274 -0.2975
  982TIP3    H124581   5.878   6.608   1.059  1.1671 -1.4066 -0.1054
  982TIP3    H224582   6.000   6.646   0.978  0.3228 -3.0441 -2.2565
  983TIP3   OH224583   1.970   5.536   1.539 -0.0551  0.3608 -0.2900
  983TIP3    H124584   1.904   5.496   1.596 -0.1230  0.3242 -0.3940
  983TIP3    H224585   2.052   5.524   1.586  0.3126 -2.1086 -1.3954
  984TIP3   OH224586   1.435   6.647   0.675 -0.4990 -0.8963  0.2424
  984TIP3    H124587   1.496   6.676   0.608 -2.1009 -0.3342 -1.0281
  984TIP3    H224588   1.429   6.552   0.663 -1.0894 -0.7483 -0.7034
  985TIP3   OH224589   4.159   2.028   1.585 -0.1270 -0.1982  0.0850
  985TIP3    H124590   4.192   1.984   1.663  0.9276  0.7678  0.2038
  985TIP3    H224591   4.126   2.112   1.616  0.6583  0.3624 -0.5389
  986TIP3   OH224592   4.559   4.861   2.454 -0.4559  0.2718  0.0938
  986TIP3    H124593   4.540   4.775   2.492  1.5262 -0.2936 -0.1014
  986TIP3    H224594   4.647   4.852   2.418 -0.8639  1.8946 -1.4296
  987TIP3   OH224595   4.214   3.270   8.690  0.0504  0.2121  0.1154
  987TIP3    H124596   4.275   3.247   8.760 -2.4848 -2.1516  1.7738
  987TIP3    H224597   4.240   3.215   8.616 -1.3558 -2.7122  1.6110
  988TIP3   OH224598   6.265   3.717   8.345  0.1206 -0.4447 -0.0884
  988TIP3    H124599   6.266   3.724   8.250 -1.6406  0.2194 -0.0977
  988TIP3    H224600   6.177   3.685   8.366 -1.0902  3.3087  1.4610
  989TIP3   OH224601   0.887   0.945   0.490 -0.0058 -0.0846 -0.5515
  989TIP3    H124602   0.840   1.022   0.456 -1.9804 -0.3939  1.2924
  989TIP3    H224603   0.852   0.872   0.440 -4.0754 -0.7638  2.7591
  990TIP3   OH224604   4.851   3.452   7.094  0.5499 -0.3028  0.1370
  990TIP3    H124605   4.927   3.507   7.074 -0.5594  1.0567 -0.5198
  990TIP3    H224606   4.793   3.510   7.144  0.1489 -1.4729  1.0716
  991TIP3   OH224607   4.156   0.684   8.224  0.2296 -0.6476 -0.2006
  991TIP3    H124608   4.063   0.693   8.244  0.6623  0.3465  1.5984
  991TIP3    H224609   4.176   0.592   8.244 -0.1975 -0.6483  0.2553
  992TIP3   OH224610   3.391   0.438   7.135  0.5167 -0.1375  0.4200
  992TIP3    H124611   3.418   0.524   7.102 -0.3052  1.1543  2.8381
  992TIP3    H224612   3.316   0.457   7.192  0.6243 -2.4027  1.4098
  993TIP3   OH224613   5.372   2.980   8.624  0.0735 -0.2169  0.1119
  993TIP3    H124614   5.280   2.967   8.649 -0.5755  2.6499 -0.4328
  993TIP3    H224615   5.370   2.988   8.529  0.9092 -0.2207  0.0881
  994TIP3   OH224616   1.891   2.817   1.823  0.4008  0.0219 -0.0823
  994TIP3    H124617   1.905   2.786   1.912  0.4610  1.6908  0.5170
  994TIP3    H224618   1.915   2.743   1.767  2.0070 -0.4784  1.2205
  995TIP3   OH224619   3.821   3.655   0.554  0.6624  0.1600 -0.1499
  995TIP3    H124620   3.776   3.573   0.537  0.3068  0.4947 -0.8441
  995TIP3    H224621   3.770   3.697   0.624  0.9385 -0.2741  0.3207
  996TIP3   OH224622   0.181   6.392   7.229 -0.0671  0.5093 -0.5984
  996TIP3    H124623   0.113   6.365   7.290 -0.6549  1.6566 -0.7360
  996TIP3    H224624   0.231   6.312   7.213 -0.3386  0.0286  0.8165
  997TIP3   OH224625   5.383   4.378   1.905  0.1018 -0.3224  0.2508
  997TIP3    H124626   5.319   4.429   1.856 -0.7193 -1.3940  0.1653
  997TIP3    H224627   5.403   4.432   1.982 -1.4162 -0.2365  0.6174
  998TIP3   OH224628   4.518   4.142   0.932 -0.1821  0.3487 -0.0166
  998TIP3    H124629   4.535   4.208   0.999 -2.2199  1.0427 -0.1085
  998TIP3    H224630   4.460   4.079   0.975 -1.5668  0.8350 -1.0989
  999TIP3   OH224631   3.391   1.249   0.936  0.0453 -0.1527  0.2774
  999TIP3    H124632   3.397   1.308   1.011 -2.2663 -1.6446  1.7555
  999TIP3    H224633   3.319   1.285   0.883  0.6563  0.0314 -0.4459
 1000TIP3   OH224634   2.428   4.167   7.909  0.2090 -0.4617  0.1704
 1000TIP3    H124635   2.452   4.090   7.858 -0.2287  0.0614 -0.8434
 1000TIP3    H224636   2.341   4.191   7.878  1.2741  1.8231 -1.2492
 1001TIP3   OH224637   5.813   1.292   6.587  0.3527 -0.2828 -0.2323
 1001TIP3    H124638   5.863   1.218   6.553 -0.5699 -0.7096 -0.7070
 1001TIP3    H224639   5.729   1.254   6.614  0.7613  0.1633  1.8756
 1002TIP3   OH224640   5.829   2.046   0.929 -0.0973 -0.3196  0.5849
 1002TIP3    H124641   5.776   2.057   0.850  0.4196 -2.6948 -0.1716
 1002TIP3    H224642   5.919   2.066   0.901  0.1622 -1.6566  0.3903
 1003TIP3   OH224643   1.461   5.537   0.083 -0.7806 -0.0597 -0.0365
 1003TIP3    H124644   1.492   5.565   0.169 -0.8636 -1.1807  0.3777
 1003TIP3    H224645   1.478   5.612   0.026 -3.0516  1.7181  1.4234
 1004TIP3   OH224646   2.787   0.147   0.209  0.6845  0.0006  0.3170
 1004TIP3    H124647   2.694   0.129   0.198  0.4001  2.3133 -2.2795
 1004TIP3    H224648   2.791   0.235   0.247  1.8683 -0.6359  1.7833
 1005TIP3   OH224649   4.800   0.456   1.323 -0.3454  0.0354 -0.0761
 1005TIP3    H124650   4.844   0.418   1.400 -0.8406  0.8388  0.6288
 1005TIP3    H224651   4.861   0.442   1.251  1.7536  2.3752  1.1209
 1006TIP3   OH224652   5.792   4.251   0.768 -0.0918 -0.0622  0.0426
 1006TIP3    H124653   5.727   4.248   0.838 -1.4903 -0.7679 -1.2276
 1006TIP3    H224654   5.780   4.169   0.721  0.8423  0.3771 -1.0009
 1007TIP3   OH224655   1.535   0.618   0.532 -0.0241  0.2931 -0.2286
 1007TIP3    H124656   1.480   0.655   0.601  0.2807  3.2108 -1.4454
 1007TIP3    H224657   1.477   0.609   0.457  0.3388 -0.0577 -0.4711
 1008TIP3   OH224658   1.439   5.886   6.060  0.2233 -0.3099 -0.5198
 1008TIP3    H124659   1.472   5.796   6.068  0.2472 -0.2023  0.8562
 1008TIP3    H224660   1.420   5.912   6.150  0.3702  1.1276 -0.8869
 1009TIP3   OH224661   5.024   5.045   2.010 -0.1994 -0.3684 -0.4005
 1009TIP3    H124662   4.952   5.069   2.069  0.1426  0.8404 -0.4359
 1009TIP3    H224663   5.060   4.965   2.047  1.3829  1.4399  2.3716
 1010TIP3   OH224664   2.631   6.621   7.963  0.7309  0.2578  0.1230
 1010TIP3    H124665   2.726   6.617   7.961  0.8441 -1.8189  3.2026
 1010TIP3    H224666   2.612   6.714   7.975  2.3617  0.6820 -0.2901
 1011TIP3   OH224667   4.871   6.635   1.612  0.3682  0.0446 -0.0282
 1011TIP3    H124668   4.814   6.594   1.547  0.7992 -0.2062 -0.2495
 1011TIP3    H224669   4.894   6.720   1.575 -0.8184  0.6614  0.5900
 1012TIP3   OH224670   3.995   4.703   8.540  0.4736  0.3178 -0.0603
 1012TIP3    H124671   4.047   4.632   8.578 -1.5276 -0.7532  0.8382
 1012TIP3    H224672   3.983   4.765   8.612 -1.4900 -0.6490  0.5066
 1013TIP3   OH224673   3.461   2.521   7.258  0.0113  0.0735 -0.2652
 1013TIP3    H124674   3.535   2.460   7.255 -0.1705 -0.1078 -1.4268
 1013TIP3    H224675   3.395   2.481   7.202 -1.2463 -0.0902  1.2506
 1014TIP3   OH224676   4.516   6.443   0.954  0.0076 -0.0890  0.4658
 1014TIP3    H124677   4.468   6.379   1.006 -0.2878  0.0819  0.4021
 1014TIP3    H224678   4.472   6.443   0.869  0.3252 -0.1752  0.2987
 1015TIP3   OH224679   2.125   3.712   0.678 -0.2920  0.3626  0.1902
 1015TIP3    H124680   2.031   3.726   0.682 -0.4329 -0.5259 -0.0068
 1015TIP3    H224681   2.136   3.622   0.647  0.6141  1.3932 -2.9243
 1016TIP3   OH224682   0.674   4.903   1.637  0.6049  0.4316 -0.5436
 1016TIP3    H124683   0.616   4.955   1.693 -0.5594  0.3552 -1.6388
 1016TIP3    H224684   0.629   4.819   1.627  1.3683  0.0242 -0.6549
 1017TIP3   OH224685   5.656   1.709   1.775 -0.5377 -0.1090 -0.5926
 1017TIP3    H124686   5.568   1.680   1.799 -1.1082  0.7927 -1.4632
 1017TIP3    H224687   5.677   1.660   1.696 -0.1350 -0.5277 -0.2294
 1018TIP3   OH224688   5.691   4.233   6.542 -0.6746  0.4996 -0.4956
 1018TIP3    H124689   5.719   4.142   6.535 -1.4587  0.2630 -0.6426
 1018TIP3    H224690   5.765   4.284   6.510 -0.3425 -0.1022 -0.6861
 1019TIP3   OH224691   6.158   0.227   1.434 -0.1027  0.3984 -0.0287
 1019TIP3    H124692   6.076   0.273   1.419 -1.3306 -1.5128  0.5100
 1019TIP3    H224693   6.147   0.143   1.390  1.8351  0.3296 -0.4863
 1020TIP3   OH224694   1.922   4.352   1.417 -0.1237 -0.2833 -0.0014
 1020TIP3    H124695   1.898   4.357   1.324 -1.3422 -0.7179  0.2784
 1020TIP3    H224696   1.843   4.378   1.464  0.6303  0.4039  0.9205
 1021TIP3   OH224697   4.102   3.593   0.090  0.5436 -0.7998  1.1289
 1021TIP3    H124698   4.055   3.665   0.133  2.0238 -0.4806  2.3212
 1021TIP3    H224699   4.034   3.546   0.042 -0.3553  1.8675 -0.4455
 1022TIP3   OH224700   4.984   6.289   0.945  0.2599 -0.0744 -0.0361
 1022TIP3    H124701   4.993   6.234   1.023  0.0803 -1.8778 -1.2319
 1022TIP3    H224702   5.063   6.343   0.946 -0.8422  1.6861  2.6307
 1023TIP3   OH224703   0.296   1.334   8.146 -0.6729 -0.7582 -0.1907
 1023TIP3    H124704   0.279   1.248   8.183  2.3828 -0.2023  3.0092
 1023TIP3    H224705   0.384   1.327   8.109 -0.3872  0.9485  0.0867
 1024TIP3   OH224706   6.563   4.307   8.454 -0.1706 -0.0319  0.2198
 1024TIP3    H124707   6.486   4.364   8.440  0.2910  1.9115  4.1459
 1024TIP3    H224708   6.526   4.227   8.491 -0.4606  1.0616  2.5157
 1025TIP3   OH224709   1.702   4.200   0.904 -0.4618  0.1015  0.0588
 1025TIP3    H124710   1.631   4.195   0.968 -0.2208 -0.3178  0.3022
 1025TIP3    H224711   1.782   4.202   0.957 -0.1677 -1.8920 -0.2019
 1026TIP3   OH224712   3.969   4.870   8.824 -0.4156 -0.4883 -0.8184
 1026TIP3    H124713   4.013   4.869   8.909 -1.8454  0.0745 -0.0393
 1026TIP3    H224714   3.904   4.800   8.830 -2.5573  1.4276 -0.2630
 1027TIP3   OH224715   4.566   3.233   2.211 -0.0513 -0.0555 -0.4461
 1027TIP3    H124716   4.525   3.299   2.266 -0.3151 -0.8289  0.3135
 1027TIP3    H224717   4.562   3.269   2.122 -0.6464  0.7076 -0.1165
 1028TIP3   OH224718   3.448   1.743   7.916 -0.1722  0.2547 -0.0625
 1028TIP3    H124719   3.449   1.650   7.938  1.0247 -0.7839 -3.6609
 1028TIP3    H224720   3.498   1.786   7.985 -0.2997 -1.8436  1.3946
 1029TIP3   OH224721   3.866   0.197   0.382 -0.3115 -0.2132 -0.0058
 1029TIP3    H124722   3.772   0.215   0.392 -0.0238  1.8758 -0.6466
 1029TIP3    H224723   3.880   0.195   0.287  0.2340 -0.9420  0.0804
 1030TIP3   OH224724   1.872   3.290   1.555  0.3638  0.3150  0.3416
 1030TIP3    H124725   1.941   3.305   1.490 -0.8330  1.5450 -0.7364
 1030TIP3    H224726   1.857   3.196   1.553  0.9303  0.2279 -0.5854
 1031TIP3   OH224727   6.189   5.673   0.194 -0.2718 -0.0265 -0.0400
 1031TIP3    H124728   6.208   5.586   0.229 -0.8011 -0.4778 -0.8503
 1031TIP3    H224729   6.166   5.658   0.102 -0.9627  0.8980 -0.0367
 1032TIP3   OH224730   4.695   3.181   7.663 -0.3055  0.1284 -0.2713
 1032TIP3    H124731   4.693   3.088   7.642  1.2482  0.1394 -0.5955
 1032TIP3    H224732   4.626   3.193   7.729 -0.4803 -1.2575 -0.1834
 1033TIP3   OH224733   2.925   1.782   5.967 -0.0763 -0.9234  0.7068
 1033TIP3    H124734   2.869   1.768   6.044  0.2468  1.6376  1.5002
 1033TIP3    H224735   3.014   1.784   6.003  0.1644 -0.7154  0.1101
 1034TIP3   OH224736   1.162   1.002   7.748 -0.2120 -0.8771  0.4692
 1034TIP3    H124737   1.100   1.071   7.725  0.4184  0.2173  1.9056
 1034TIP3    H224738   1.170   1.008   7.843  1.0070 -1.9434  0.4530
 1035TIP3   OH224739   1.829   6.061   7.118 -0.6998  0.4567  0.8487
 1035TIP3    H124740   1.741   6.058   7.080 -1.2845 -1.1369  2.2251
 1035TIP3    H224741   1.831   5.989   7.181  2.1701 -0.6893 -0.3642
 1036TIP3   OH224742   4.157   0.618   0.556 -0.2712 -0.1469 -0.0754
 1036TIP3    H124743   4.110   0.581   0.631 -0.2624  0.2958  0.1534
 1036TIP3    H224744   4.157   0.548   0.491 -2.0193  0.1042 -0.4154
 1037TIP3   OH224745   4.593   5.293   2.032 -0.4973 -0.1964  0.0838
 1037TIP3    H124746   4.512   5.281   2.082 -0.3163  3.9793  1.7664
 1037TIP3    H224747   4.650   5.341   2.091  2.0514 -0.2192 -2.1886
 1038TIP3   OH224748   1.800   5.497   0.300  0.4687 -0.4173  0.5812
 1038TIP3    H124749   1.790   5.440   0.376 -1.0366  0.4902  1.1191
 1038TIP3    H224750   1.730   5.562   0.309  1.1219  0.5559 -0.8499
 1039TIP3   OH224751   1.563   5.320   2.457 -0.1943  0.4813 -0.0152
 1039TIP3    H124752   1.549   5.242   2.403  1.0154  0.2006  0.0363
 1039TIP3    H224753   1.525   5.392   2.407 -0.4300  0.0010 -0.5319
 1040TIP3   OH224754   2.319   3.954   8.579  0.3318  0.4341 -0.0148
 1040TIP3    H124755   2.252   3.954   8.510 -0.5317 -0.0605  0.7827
 1040TIP3    H224756   2.395   3.911   8.539  0.6524  2.1416 -1.3452
 1041TIP3   OH224757   1.619   0.473   0.946  0.2675  0.2799  0.9170
 1041TIP3    H124758   1.669   0.483   1.027  1.3261  1.1112  0.1837
 1041TIP3    H224759   1.528   0.465   0.975  0.8948 -3.3869  2.4379
 1042TIP3   OH224760   4.536   0.361   6.689 -0.5890 -0.0789 -0.1402
 1042TIP3    H124761   4.454   0.322   6.660 -1.4056 -0.4550  2.4370
 1042TIP3    H224762   4.567   0.304   6.759  1.3501  0.6360 -0.3362
 1043TIP3   OH224763   6.232   2.465   7.084  0.5543  0.2663  0.1463
 1043TIP3    H124764   6.259   2.554   7.063 -1.8847  1.1324  0.3164
 1043TIP3    H224765   6.233   2.462   7.179 -0.1311  0.4073  0.1655
 1044TIP3   OH224766   4.193   5.699   8.685  0.3537  0.2715 -0.3615
 1044TIP3    H124767   4.188   5.759   8.759  0.1255 -0.3617  0.1470
 1044TIP3    H224768   4.104   5.696   8.650  0.4421  0.5019 -0.6139
 1045TIP3   OH224769   5.660   4.566   0.210  0.0992 -0.3075  0.1215
 1045TIP3    H124770   5.660   4.493   0.148  0.6250 -1.3764  1.3533
 1045TIP3    H224771   5.576   4.609   0.196  0.7249  0.3034 -2.2520
 1046TIP3   OH224772   1.868   5.511   7.410  0.1840 -0.5240  0.2306
 1046TIP3    H124773   1.800   5.469   7.357 -0.0657  1.8416 -1.4947
 1046TIP3    H224774   1.822   5.541   7.488 -1.0756  1.7375 -1.2539
 1047TIP3   OH224775   0.715   4.601   7.883  0.6432 -0.1688 -0.5213
 1047TIP3    H124776   0.725   4.692   7.910  0.3851  0.3136 -1.9769
 1047TIP3    H224777   0.644   4.603   7.819 -2.0522 -1.9532  2.1356
 1048TIP3   OH224778   0.005   4.093   1.896 -0.0912  0.1040  0.2281
 1048TIP3    H124779   0.056   4.172   1.911  0.9744 -1.0092  3.0129
 1048TIP3    H224780  -0.060   4.091   1.967  0.4303 -1.8739  0.7237
 1049TIP3   OH224781   0.816   4.376   1.897 -0.1509 -0.1723  0.1784
 1049TIP3    H124782   0.796   4.327   1.977 -0.3713 -0.0435  0.2012
 1049TIP3    H224783   0.872   4.447   1.926 -0.8281  0.3062  0.3324
 1050TIP3   OH224784   5.509   5.578   8.004 -0.4592 -0.0434  0.8670
 1050TIP3    H124785   5.572   5.527   7.953 -1.2543  0.3763 -0.5764
 1050TIP3    H224786   5.564   5.628   8.065  0.9591  2.1438 -1.9079
 1051TIP3   OH224787   4.749   4.494   7.858 -0.1380 -0.0037  0.2682
 1051TIP3    H124788   4.693   4.419   7.837  1.5125 -1.7699  1.8304
 1051TIP3    H224789   4.834   4.456   7.881  1.4122  2.4999 -0.8455
 1052TIP3   OH224790   6.432   5.553   0.506  0.1584  0.5704  0.1494
 1052TIP3    H124791   6.453   5.460   0.509 -0.8894  0.2155 -1.7911
 1052TIP3    H224792   6.383   5.569   0.586 -1.2497 -1.0159 -0.3382
 1053TIP3   OH224793   5.071   4.298   1.763  0.3625  0.0743  0.0344
 1053TIP3    H124794   5.097   4.228   1.823  1.1164  0.4995  0.2147
 1053TIP3    H224795   4.976   4.305   1.774  0.6968  1.4781  2.6591
 1054TIP3   OH224796   4.500   2.047   1.651 -0.0236 -0.6882 -0.0318
 1054TIP3    H124797   4.536   2.103   1.720 -1.4124  2.4110 -1.5979
 1054TIP3    H224798   4.425   2.003   1.692 -0.4434  0.6068  0.6481
 1055TIP3   OH224799   4.898   4.576   1.862 -0.7013  0.2708  0.0772
 1055TIP3    H124800   4.914   4.551   1.953 -0.9061  0.8781  0.2860
 1055TIP3    H224801   4.985   4.598   1.829 -0.1724 -2.6879 -0.7536
 1056TIP3   OH224802   6.669   4.037   1.664 -0.1403  0.0587 -0.5643
 1056TIP3    H124803   6.713   4.055   1.746 -1.2760 -0.2892  0.1549
 1056TIP3    H224804   6.738   4.007   1.605  0.3351 -2.6297  1.1791
 1057TIP3   OH224805   1.700   5.954   0.486 -0.2107  0.1681  0.1555
 1057TIP3    H124806   1.725   5.911   0.568 -0.6708  0.8390  0.6619
 1057TIP3    H224807   1.728   6.045   0.499  0.4014  0.1169 -0.7398
 1058TIP3   OH224808   6.356   4.845   1.978  0.4566 -0.3367  0.5459
 1058TIP3    H124809   6.265   4.866   1.957  0.5890 -0.5860 -0.3364
 1058TIP3    H224810   6.353   4.805   2.064 -0.3610 -0.9806  0.2290
 1059TIP3   OH224811   0.075   0.657   8.802  0.3994 -0.0014  0.0278
 1059TIP3    H124812   0.124   0.664   8.884  1.7688  1.5197 -0.8697
 1059TIP3    H224813   0.026   0.575   8.811  0.6756  0.0104  2.2540
 1060TIP3   OH224814   4.138   5.408   0.511 -0.3184  0.3288 -0.2466
 1060TIP3    H124815   4.042   5.411   0.512 -0.3097  0.7008 -0.5758
 1060TIP3    H224816   4.159   5.326   0.466 -0.4860 -0.6493  1.3655
 1061TIP3   OH224817   3.877   6.818   1.685  0.7674 -0.0678  0.0282
 1061TIP3    H124818   3.864   6.739   1.632  1.1304  1.1418 -1.9672
 1061TIP3    H224819   3.972   6.827   1.693  0.7247  0.0216  0.5086
 1062TIP3   OH224820   1.489   1.401   1.921 -0.3151  0.4361  0.1921
 1062TIP3    H124821   1.558   1.404   1.987  0.1845  2.2921 -0.3464
 1062TIP3    H224822   1.496   1.313   1.883  2.0720  0.6994 -0.1384
 1063TIP3   OH224823   5.493   1.755   8.603  0.5032 -0.4362 -0.1939
 1063TIP3    H124824   5.435   1.737   8.677  1.1939  0.3511  0.5661
 1063TIP3    H224825   5.536   1.838   8.626  1.1865 -0.4963 -1.1908
 1064TIP3   OH224826   2.047   2.222   8.732 -0.6255  0.3253 -0.0338
 1064TIP3    H124827   2.031   2.258   8.645  0.7146  0.2973 -0.3077
 1064TIP3    H224828   2.101   2.144   8.717 -2.3742 -1.1085  0.6562
 1065TIP3   OH224829   6.664   2.505   6.685 -0.4649 -0.5528  0.0955
 1065TIP3    H124830   6.729   2.440   6.657  0.6289  1.3112 -2.0040
 1065TIP3    H224831   6.596   2.500   6.618 -0.6573  0.0501  0.2450
 1066TIP3   OH224832   1.401   1.146   1.048 -0.6516  0.2909 -0.2055
 1066TIP3    H124833   1.314   1.117   1.020 -0.7535  0.6848 -0.3009
 1066TIP3    H224834   1.415   1.101   1.132 -0.1005 -1.3439 -1.1440
 1067TIP3   OH224835   5.750   5.444   1.418 -0.5351  0.4031  0.0117
 1067TIP3    H124836   5.802   5.365   1.406 -0.4068  0.8158 -2.6818
 1067TIP3    H224837   5.696   5.450   1.339 -0.7763  2.8292  0.2781
 1068TIP3   OH224838   5.649   0.537   1.634 -0.3195  0.2805 -0.1841
 1068TIP3    H124839   5.598   0.617   1.617 -1.0292  0.0559  0.7808
 1068TIP3    H224840   5.627   0.479   1.561  1.0845  1.3558 -1.5122
 1069TIP3   OH224841   1.845   1.222   7.595  0.4974 -0.2279 -0.4633
 1069TIP3    H124842   1.903   1.185   7.662  0.5894  0.4020 -0.1875
 1069TIP3    H224843   1.865   1.173   7.516  1.4360  0.0000 -0.3793
 1070TIP3   OH224844   2.338   2.060   0.751  0.2371 -0.0895  0.0975
 1070TIP3    H124845   2.282   1.983   0.745 -0.9996  0.7451  0.4464
 1070TIP3    H224846   2.375   2.070   0.663 -1.4835  0.2653 -0.6390
 1071TIP3   OH224847   1.987   5.327   6.273 -0.0194 -0.8978 -0.3587
 1071TIP3    H124848   2.034   5.244   6.269 -0.4642 -1.1373 -0.7790
 1071TIP3    H224849   1.905   5.310   6.228 -0.0993 -0.2174 -0.4858
 1072TIP3   OH224850   2.008   4.401   8.682 -0.0467 -0.9162  0.1602
 1072TIP3    H124851   1.964   4.456   8.617  0.5483  0.7306  1.0839
 1072TIP3    H224852   1.952   4.406   8.759 -0.4007 -2.3163  0.0254
 1073TIP3   OH224853   1.121   0.139   0.125  0.0450 -0.7064 -0.2951
 1073TIP3    H124854   1.074   0.152   0.207  0.5195  0.4408 -0.1818
 1073TIP3    H224855   1.186   0.209   0.123  2.0717 -2.4723 -0.2181
 1074TIP3   OH224856   1.195   5.706   8.345 -0.9134 -0.5583 -0.5026
 1074TIP3    H124857   1.229   5.630   8.297  1.0256  0.2936 -0.5914
 1074TIP3    H224858   1.201   5.680   8.437  1.4781  0.0633 -0.4192
 1075TIP3   OH224859   0.307   3.973   0.357 -0.3605 -0.4064 -0.2058
 1075TIP3    H124860   0.220   3.956   0.320 -0.3361 -1.7995  0.3129
 1075TIP3    H224861   0.352   3.889   0.353  1.1239  0.3717 -0.8136
 1076TIP3   OH224862   3.524   2.317   1.126 -0.5373 -0.3617  0.7618
 1076TIP3    H124863   3.494   2.299   1.037 -0.3736  0.6347  0.4896
 1076TIP3    H224864   3.573   2.399   1.119 -1.3211  0.2315  1.9338
 1077TIP3   OH224865   3.072   0.872   1.342 -0.0555  0.6817  0.6731
 1077TIP3    H124866   3.062   0.939   1.409 -1.2885  0.2043  0.9898
 1077TIP3    H224867   2.994   0.882   1.286 -0.2037 -0.4028  0.6667
 1078TIP3   OH224868   5.391   5.501   0.129  0.1296  0.2559  0.2238
 1078TIP3    H124869   5.368   5.516   0.221  0.1114  0.8903  0.1198
 1078TIP3    H224870   5.479   5.463   0.132 -0.3377 -0.8226  0.5528
 1079TIP3   OH224871   2.863   5.362   0.556 -0.1607  0.3831  0.1422
 1079TIP3    H124872   2.941   5.342   0.505 -0.7734  0.8313 -1.0212
 1079TIP3    H224873   2.820   5.433   0.507 -0.0037  1.9071  2.0817
 1080TIP3   OH224874   0.181   3.787   7.259 -0.4562 -0.5995  0.0136
 1080TIP3    H124875   0.187   3.878   7.232  1.2564 -0.3021  1.2135
 1080TIP3    H224876   0.120   3.788   7.333  1.9865  0.2063  2.1671
 1081TIP3   OH224877   0.964   3.855   1.425 -0.4732  0.1394 -0.1699
 1081TIP3    H124878   0.899   3.792   1.393 -1.2905  2.0701 -2.5892
 1081TIP3    H224879   0.996   3.899   1.346  0.8758  2.0011  1.3211
 1082TIP3   OH224880   1.274   1.817   6.882 -0.5195 -0.3879 -0.4866
 1082TIP3    H124881   1.357   1.811   6.929 -0.8330  2.0122  0.5290
 1082TIP3    H224882   1.213   1.856   6.945 -1.3882  1.4485 -2.3355
 1083TIP3   OH224883   1.020   3.342   1.124  0.2567  0.4879 -0.5581
 1083TIP3    H124884   1.061   3.302   1.047  0.2499 -0.2394 -0.1890
 1083TIP3    H224885   1.066   3.303   1.198 -0.1902  0.6856 -0.1749
 1084TIP3   OH224886   5.077   3.985   8.261 -0.5059 -0.3966  0.0691
 1084TIP3    H124887   4.996   3.990   8.210 -0.8950  0.6610  0.7544
 1084TIP3    H224888   5.060   3.918   8.327 -1.2729  0.5930  0.9226
 1085TIP3   OH224889   5.831   3.804   0.170  0.0342 -0.1793 -0.1690
 1085TIP3    H124890   5.795   3.856   0.098 -0.0240  1.6982  1.1344
 1085TIP3    H224891   5.823   3.861   0.246  1.3924 -1.5636  1.0642
 1086TIP3   OH224892   1.686   2.209   2.010  0.5076 -0.8610 -0.6581
 1086TIP3    H124893   1.634   2.289   1.997  0.2431 -1.4096 -3.7742
 1086TIP3    H224894   1.714   2.214   2.102 -1.2199  1.7372 -0.1327
 1087TIP3   OH224895   6.059   5.498   7.511  0.0614 -0.3641  0.5778
 1087TIP3    H124896   5.987   5.553   7.479  0.4259  0.3514  0.9604
 1087TIP3    H224897   6.022   5.451   7.585 -0.2670 -0.6694  0.2226
 1088TIP3   OH224898   2.023   0.847   0.985 -0.2035  0.2215 -0.4055
 1088TIP3    H124899   1.951   0.862   0.924 -1.1000  2.0379  0.9726
 1088TIP3    H224900   2.078   0.925   0.976 -0.1125  0.3074  0.7579
 1089TIP3   OH224901   5.917   6.646   6.676  0.0783  0.4862 -0.5324
 1089TIP3    H124902   5.860   6.607   6.609  0.7697  0.0130 -0.8509
 1089TIP3    H224903   6.001   6.659   6.632  0.6003 -0.0077  0.2951
 1090TIP3   OH224904   1.432   5.268   1.097 -0.3604  0.0197 -0.1750
 1090TIP3    H124905   1.407   5.346   1.047  0.5577  0.4131 -0.0393
 1090TIP3    H224906   1.349   5.235   1.132 -0.5442  2.3437  1.8548
 1091TIP3   OH224907   2.324   5.684   8.677 -0.3404  0.0593 -0.3226
 1091TIP3    H124908   2.286   5.699   8.763 -2.3490  0.8544 -1.2860
 1091TIP3    H224909   2.394   5.620   8.692  0.2164  1.1140  2.0585
 1092TIP3   OH224910   0.103   4.043   0.528 -0.3802 -0.1215 -0.1505
 1092TIP3    H124911   0.177   3.998   0.487 -0.4016 -0.7327  0.4545
 1092TIP3    H224912   0.124   4.136   0.521  1.2159 -0.3161  1.4013
 1093TIP3   OH224913   2.743   5.354   6.661  0.0247  0.1584 -0.0785
 1093TIP3    H124914   2.819   5.349   6.605  0.1948 -2.0086  0.2527
 1093TIP3    H224915   2.674   5.308   6.613 -0.2901 -0.2745  0.7559
 1094TIP3   OH224916   2.804   1.103   7.686 -0.1578  0.3993  0.1816
 1094TIP3    H124917   2.708   1.103   7.688 -0.3165  4.4148  1.7734
 1094TIP3    H224918   2.830   1.115   7.778  1.7388  1.3566 -0.4191
 1095TIP3   OH224919   1.939   5.008   8.685 -0.6251 -0.4840 -0.0700
 1095TIP3    H124920   1.912   5.077   8.745 -1.5003  0.8788 -1.9404
 1095TIP3    H224921   2.025   4.980   8.718  0.9843  3.2563 -0.5791
 1096TIP3   OH224922   4.261   4.069   0.275  0.3342 -0.2265 -0.3213
 1096TIP3    H124923   4.286   4.158   0.300  2.4525 -0.5227 -1.1971
 1096TIP3    H224924   4.314   4.013   0.332 -0.0621 -0.9140 -0.6232
 1097TIP3   OH224925   3.620   6.765   8.233 -0.0040 -0.4016  0.3388
 1097TIP3    H124926   3.539   6.815   8.238 -0.1480 -0.6562  0.5514
 1097TIP3    H224927   3.675   6.815   8.172 -0.5215 -0.5145 -0.2319
 1098TIP3   OH224928   1.245   6.582   8.684 -0.5984 -0.2144  0.7057
 1098TIP3    H124929   1.190   6.659   8.690 -0.7661 -0.2551 -0.1968
 1098TIP3    H224930   1.197   6.522   8.626  0.6194 -0.0393 -0.5291
 1099TIP3   OH224931   5.160   5.691   1.299  0.3151 -0.1378 -0.5689
 1099TIP3    H124932   5.223   5.627   1.268 -1.4763 -1.6295 -1.3473
 1099TIP3    H224933   5.125   5.732   1.220 -1.6354 -1.3277 -0.3916
 1100TIP3   OH224934   5.510   6.416   1.058  0.2431 -0.4545  0.1830
 1100TIP3    H124935   5.555   6.475   0.997 -0.6672 -0.5027 -0.5600
 1100TIP3    H224936   5.460   6.475   1.115 -0.0624 -0.4684 -0.0675
 1101TIP3   OH224937   5.374   3.274   8.814 -0.2570 -0.5622  0.1627
 1101TIP3    H124938   5.329   3.319   8.743 -1.3533 -0.8930  0.6074
 1101TIP3    H224939   5.354   3.181   8.799  0.0979 -0.6926  0.4942
 1102TIP3   OH224940   0.870   5.983   7.571 -0.4911  0.3620 -0.2810
 1102TIP3    H124941   0.962   5.969   7.593 -0.2264  0.3370 -1.3292
 1102TIP3    H224942   0.846   6.062   7.619 -0.5056 -0.7037  1.5444
 1103TIP3   OH224943   2.502   4.701   7.792  0.0859  0.5135  0.3051
 1103TIP3    H124944   2.542   4.711   7.705  0.4046 -0.7458  0.2903
 1103TIP3    H224945   2.432   4.637   7.778 -1.4216  2.0435  0.5107
 1104TIP3   OH224946   2.424   2.403   0.640  0.4791  0.1847 -0.1177
 1104TIP3    H124947   2.344   2.436   0.680  0.0292 -1.6056  0.5448
 1104TIP3    H224948   2.494   2.432   0.698  0.2323  0.9500 -0.1909
 1105TIP3   OH224949   4.384   3.382   7.690  0.6254 -0.1995 -0.2462
 1105TIP3    H124950   4.381   3.388   7.594  2.2715  1.0050 -0.2734
 1105TIP3    H224951   4.445   3.311   7.708  0.3132 -0.4289 -0.0732
 1106TIP3   OH224952   1.667   1.245   8.704 -0.2161  0.6376  0.0712
 1106TIP3    H124953   1.604   1.278   8.640 -1.0687  1.0540  1.0907
 1106TIP3    H224954   1.633   1.274   8.789  0.1869 -1.0031  0.8414
 1107TIP3   OH224955   0.631   0.949   8.732  0.4049  0.4402  0.7734
 1107TIP3    H124956   0.665   0.918   8.648  1.2875 -0.4895  1.4411
 1107TIP3    H224957   0.663   0.885   8.795  0.2216  1.4257  1.8961
 1108TIP3   OH224958   4.543   1.505   6.907  0.1697 -0.3179 -0.9080
 1108TIP3    H124959   4.472   1.467   6.855  0.4363 -0.9043 -0.8549
 1108TIP3    H224960   4.619   1.502   6.850 -0.2373  2.1126 -1.6858
 1109TIP3   OH224961   0.408   5.410   2.707 -0.1246 -0.9262 -0.0910
 1109TIP3    H124962   0.502   5.423   2.696 -0.1061 -1.5239 -0.7224
 1109TIP3    H224963   0.389   5.331   2.657 -0.7034 -1.6724  1.2615
 1110TIP3   OH224964   4.366   1.326   0.331  0.3053  0.6523  0.0800
 1110TIP3    H124965   4.343   1.399   0.274 -0.8487  0.3149  0.0922
 1110TIP3    H224966   4.378   1.366   0.417  0.1620  0.8912 -0.0107
 1111TIP3   OH224967   2.641   4.832   7.328  1.4532 -0.1380 -0.7373
 1111TIP3    H124968   2.618   4.770   7.259  1.2711 -0.4659 -0.3883
 1111TIP3    H224969   2.697   4.897   7.285  0.1847  0.4696 -1.5274
 1112TIP3   OH224970   2.243   5.391   6.548 -0.3903  0.3228 -0.1113
 1112TIP3    H124971   2.273   5.478   6.519 -0.6177 -0.5492 -3.2811
 1112TIP3    H224972   2.290   5.377   6.631  1.9192  2.2468 -0.9559
 1113TIP3   OH224973   3.838   5.595   1.168 -0.0152  0.0362  0.0982
 1113TIP3    H124974   3.869   5.675   1.125 -0.0025  0.3387  0.6609
 1113TIP3    H224975   3.903   5.578   1.236 -0.0793 -0.3955  0.0531
 1114TIP3   OH224976   6.380   1.908   6.307 -0.5993 -0.1277  0.4320
 1114TIP3    H124977   6.403   1.950   6.390 -1.7122  2.3573 -0.4041
 1114TIP3    H224978   6.460   1.911   6.255  0.0460 -1.5083  1.2839
 1115TIP3   OH224979   3.683   5.578   1.541  0.4519  0.3941  0.1780
 1115TIP3    H124980   3.751   5.517   1.514 -0.2270 -0.1582 -0.3233
 1115TIP3    H224981   3.709   5.662   1.501  0.9737  0.2544  0.2197
 1116TIP3   OH224982   0.089   5.776   7.224 -0.0137  0.1445 -0.0611
 1116TIP3    H124983   0.035   5.743   7.152  0.8135 -1.6087  0.0651
 1116TIP3    H224984   0.178   5.755   7.199  0.3437  0.1175  1.1628
 1117TIP3   OH224985   3.027   5.347   6.823 -0.3348  0.2935  0.4994
 1117TIP3    H124986   3.085   5.330   6.749 -0.5500  1.2998  0.0853
 1117TIP3    H224987   3.022   5.263   6.869  0.0678 -0.2581 -0.4320
 1118TIP3   OH224988   3.752   3.255   1.293  0.0319 -0.1711 -0.4670
 1118TIP3    H124989   3.674   3.216   1.253  0.2431  0.6023 -1.7229
 1118TIP3    H224990   3.804   3.181   1.322 -0.3075 -0.7814 -1.3494
 1119TIP3   OH224991   5.318   0.169   6.622  0.6910  0.6171  0.0794
 1119TIP3    H124992   5.397   0.217   6.649 -0.4010  1.3796  2.1331
 1119TIP3    H224993   5.328   0.083   6.662  1.2337  0.1053 -1.0954
 1120TIP3   OH224994   1.799   0.799   8.718 -0.1362  0.1664  0.0048
 1120TIP3    H124995   1.851   0.748   8.779 -0.2826 -0.5908 -0.4820
 1120TIP3    H224996   1.745   0.734   8.672 -0.0268  0.7034 -0.9266
 1121TIP3   OH224997   3.587   3.339   8.369 -0.3769 -0.2190  0.5833
 1121TIP3    H124998   3.515   3.395   8.398  0.2613 -0.1482  2.1346
 1121TIP3    H224999   3.545   3.260   8.337 -1.2616  0.8740 -1.0866
 1122TIP3   OH225000   5.151   2.906   1.988  0.0928 -0.3801  0.5215
 1122TIP3    H125001   5.226   2.870   2.035 -0.3515 -1.5790  0.3369
 1122TIP3    H225002   5.109   2.965   2.052 -0.2678 -1.6682  1.5159
 1123TIP3   OH225003   4.076   3.118   7.812  0.4734  0.1335  0.9232
 1123TIP3    H125004   4.011   3.162   7.866 -0.0559 -0.0437  0.4435
 1123TIP3    H225005   4.051   3.025   7.815  2.3905 -0.4169  3.0718
 1124TIP3   OH225006   3.622   4.847   1.267  0.3260  0.1663  0.1033
 1124TIP3    H125007   3.612   4.863   1.361  1.7559 -0.0195  0.3158
 1124TIP3    H225008   3.599   4.930   1.226 -1.5062 -0.0888  0.4958
 1125TIP3   OH225009   4.182   6.659   0.085  0.1535  0.8453 -0.0938
 1125TIP3    H125010   4.122   6.586   0.100  0.2010  0.3617 -1.9259
 1125TIP3    H225011   4.256   6.642   0.144 -1.3161  1.2872  1.9606
 1126TIP3   OH225012   1.525   0.264   1.363 -0.1231  0.5368 -0.0288
 1126TIP3    H125013   1.618   0.245   1.368 -0.1054  0.6811  0.1990
 1126TIP3    H225014   1.494   0.212   1.289 -0.6169 -2.6927  2.2236
 1127TIP3   OH225015   2.796   3.215   1.051  0.4689  0.4430  0.2119
 1127TIP3    H125016   2.738   3.239   1.122  0.6963 -1.9149  1.2940
 1127TIP3    H225017   2.867   3.166   1.093  1.6499  0.6596 -1.4125
 1128TIP3   OH225018   3.915   6.135   6.155  0.6165  0.0598 -0.0030
 1128TIP3    H125019   3.927   6.123   6.249  1.5509  2.9666  0.3344
 1128TIP3    H225020   3.993   6.094   6.115  0.6576 -0.3977  0.5362
 1129TIP3   OH225021   0.173   2.131   0.495  0.1578 -0.3260  0.1901
 1129TIP3    H125022   0.165   2.210   0.549 -1.7144 -0.8204  0.6802
 1129TIP3    H225023   0.243   2.081   0.537  0.6751  0.5993  0.4597
 1130TIP3   OH225024   4.007   4.179   7.502  0.0055 -0.5218  0.2775
 1130TIP3    H125025   4.098   4.151   7.503 -0.0643 -0.8316  2.1395
 1130TIP3    H225026   4.002   4.247   7.570 -1.5066 -1.8213  1.5571
 1131TIP3   OH225027   1.516   1.279   0.362 -0.3918 -0.7951  0.1069
 1131TIP3    H125028   1.476   1.365   0.346 -1.5024 -1.1806  0.7090
 1131TIP3    H225029   1.551   1.253   0.277 -1.0016 -0.2123 -0.3343
 1132TIP3   OH225030   0.757   4.252   0.700  0.3901  0.4657 -0.1203
 1132TIP3    H125031   0.703   4.255   0.779 -2.0940  1.1472 -1.7644
 1132TIP3    H225032   0.712   4.191   0.642  1.7079  0.6257 -1.3655
 1133TIP3   OH225033   4.614   4.505   0.906  0.2173  0.0624 -0.2353
 1133TIP3    H125034   4.641   4.582   0.957 -0.2947  1.4590 -1.9861
 1133TIP3    H225035   4.520   4.517   0.893  0.4620  0.1896 -2.1709
 1134TIP3   OH225036   5.241   1.695   6.830 -0.0280 -0.2166 -0.4698
 1134TIP3    H125037   5.238   1.697   6.926 -0.8874 -1.1930 -0.4666
 1134TIP3    H225038   5.151   1.678   6.804  0.3175 -0.5869 -1.4396
 1135TIP3   OH225039   0.658   3.212   0.964 -0.2975 -0.1296  0.2949
 1135TIP3    H125040   0.728   3.148   0.969 -0.7339 -0.7684 -1.1733
 1135TIP3    H225041   0.670   3.254   0.879 -1.1697  0.3826  0.4105
 1136TIP3   OH225042   6.633   5.015   8.242 -0.3553 -0.9232 -0.5731
 1136TIP3    H125043   6.541   5.011   8.268  0.3097 -0.0641  2.2276
 1136TIP3    H225044   6.666   5.096   8.281  1.9496 -1.9397 -0.2557
 1137TIP3   OH225045   0.005   5.018   6.938 -0.1537  0.1039  0.1941
 1137TIP3    H125046  -0.002   4.930   6.901 -0.4736  1.4051 -3.2505
 1137TIP3    H225047   0.099   5.036   6.939  0.0801 -0.9194  2.8455
 1138TIP3   OH225048   5.219   3.268   8.567 -0.1162 -0.4703  0.4397
 1138TIP3    H125049   5.228   3.336   8.501  2.4796 -1.4545 -0.3252
 1138TIP3    H225050   5.210   3.187   8.517 -2.2821 -0.8628  1.3409
 1139TIP3   OH225051   0.559   0.531   8.737  0.6199 -0.7334  0.2543
 1139TIP3    H125052   0.541   0.562   8.826  0.6754  1.4242 -0.4334
 1139TIP3    H225053   0.485   0.475   8.716 -0.8276  0.9562  0.6752
 1140TIP3   OH225054   0.287   2.029   0.051  0.2442  0.2075  0.3875
 1140TIP3    H125055   0.309   1.986  -0.031 -0.8357  1.0967 -0.4012
 1140TIP3    H225056   0.343   2.107   0.053  0.1723  0.2589  0.4211
 1141TIP3   OH225057   3.425   5.834   1.894 -0.4570 -0.3165  0.2601
 1141TIP3    H125058   3.430   5.765   1.959  0.3885 -0.3753  0.1383
 1141TIP3    H225059   3.470   5.908   1.934 -0.4777 -0.1550 -0.0119
 1142TIP3   OH225060   2.757   0.009   1.459 -0.0073 -0.8526 -0.5084
 1142TIP3    H125061   2.809   0.088   1.445 -1.1117 -0.1311 -0.6814
 1142TIP3    H225062   2.715  -0.008   1.375 -0.3035 -1.2366 -0.2909
 1143TIP3   OH225063   6.174   5.770   2.143  0.4715  0.2150  0.2608
 1143TIP3    H125064   6.179   5.853   2.095 -1.8059 -0.5790 -1.5269
 1143TIP3    H225065   6.202   5.704   2.080  1.2617 -0.4927  1.3316
 1144TIP3   OH225066   6.559   4.880   8.658  0.0562 -0.1563  0.1318
 1144TIP3    H125067   6.634   4.934   8.682 -0.8381  0.9699  0.4300
 1144TIP3    H225068   6.560   4.808   8.721  1.3577 -0.6287 -0.3814
 1145TIP3   OH225069   0.825   1.967   0.640  0.3024  0.4468  0.4135
 1145TIP3    H125070   0.920   1.960   0.643  0.2915 -0.2005 -0.3369
 1145TIP3    H225071   0.806   1.996   0.551 -0.2557 -0.7998  0.0963
 1146TIP3   OH225072   0.982   2.752   0.503  0.0547 -0.2702  0.6388
 1146TIP3    H125073   1.076   2.738   0.491  0.2499  0.2705  1.4377
 1146TIP3    H225074   0.967   2.840   0.468 -0.3116 -0.6639 -0.2195
 1147TIP3   OH225075   3.751   3.580   1.008  0.4131  0.3154  0.5133
 1147TIP3    H125076   3.655   3.578   1.005  0.4397 -1.0509  0.0344
 1147TIP3    H225077   3.774   3.663   0.965 -0.4858 -0.8698 -2.5264
 1148TIP3   OH225078   0.150   2.604   0.541 -0.1877 -0.2452  0.0064
 1148TIP3    H125079   0.144   2.558   0.458 -0.8178  2.1142 -1.3430
 1148TIP3    H225080   0.091   2.679   0.532  2.0892  1.8804  1.3271
 1149TIP3   OH225081   4.496   0.204   7.560  0.0191 -0.4087 -0.5604
 1149TIP3    H125082   4.547   0.126   7.579 -0.9193 -0.6848  1.0172
 1149TIP3    H225083   4.539   0.273   7.611 -0.4546 -0.3985 -0.1581
 1150TIP3   OH225084   4.779   6.402   0.394 -0.2426  0.2410  0.3336
 1150TIP3    H125085   4.759   6.317   0.435  2.5239 -1.1634 -0.9250
 1150TIP3    H225086   4.778   6.385   0.300 -1.0157  1.9954 -0.0123
 1151TIP3   OH225087   0.313   4.745   8.586 -0.1423 -0.1297  0.1369
 1151TIP3    H125088   0.222   4.720   8.601 -0.5960  0.9149 -0.7916
 1151TIP3    H225089   0.337   4.702   8.504 -0.3368  0.9254 -0.4861
 1152TIP3   OH225090   0.320   1.492   6.389  0.3466  0.2441 -0.4935
 1152TIP3    H125091   0.261   1.450   6.326 -2.2873 -1.8706  2.9840
 1152TIP3    H225092   0.392   1.430   6.399 -0.2527 -0.3916 -0.0239
 1153TIP3   OH225093   1.447   1.077   7.774 -0.3959  0.0871 -0.4072
 1153TIP3    H125094   1.357   1.048   7.760 -1.3474  2.6614 -0.1676
 1153TIP3    H225095   1.488   1.073   7.688 -0.0501 -2.9150 -0.2184
 1154TIP3   OH225096   5.251   0.913   0.614  0.5129 -0.1555  0.3254
 1154TIP3    H125097   5.301   0.920   0.696 -1.4924 -1.2070  1.7228
 1154TIP3    H225098   5.169   0.872   0.640 -1.3026  1.8908 -1.7679
 1155TIP3   OH225099   3.244   1.915   7.575 -0.0892 -0.3409  0.1182
 1155TIP3    H125100   3.223   1.826   7.604  0.0130  0.5611  3.3836
 1155TIP3    H225101   3.159   1.954   7.555 -0.1802 -0.9788 -0.7919
 1156TIP3   OH225102   0.602   4.641   8.448  0.2381 -0.7426  0.2366
 1156TIP3    H125103   0.530   4.604   8.398 -0.4113  1.9835 -1.0619
 1156TIP3    H225104   0.567   4.652   8.537 -0.9658  0.4291 -0.3502
 1157TIP3   OH225105   5.518   1.767   7.699 -0.2999  0.3559  0.1083
 1157TIP3    H125106   5.611   1.784   7.709 -0.3354  0.4979  0.1984
 1157TIP3    H225107   5.476   1.820   7.767 -0.3312 -1.0636  1.2524
 1158TIP3   OH225108   3.566   2.516   0.148 -0.1658  0.2354  0.1743
 1158TIP3    H125109   3.582   2.534   0.240 -1.1284  1.4815  0.1087
 1158TIP3    H225110   3.471   2.515   0.139 -0.0831  1.0632 -0.9731
 1159TIP3   OH225111   2.065   3.382   8.093 -0.2377  0.2324  0.3205
 1159TIP3    H125112   2.117   3.332   8.030 -0.3197  0.0718  0.3773
 1159TIP3    H225113   1.992   3.417   8.041 -1.3391 -1.4409  0.6599
 1160TIP3   OH225114   2.690   1.989   8.476  0.4033 -0.1519  0.7921
 1160TIP3    H125115   2.638   1.909   8.480  1.5908 -0.9196  1.5271
 1160TIP3    H225116   2.641   2.046   8.417  0.1058 -1.8213 -0.6585
 1161TIP3   OH225117   4.978   3.121   7.696  0.3753 -0.7409  0.7282
 1161TIP3    H125118   4.979   3.070   7.615  0.3104 -1.3064  1.0776
 1161TIP3    H225119   4.887   3.146   7.707  0.4168 -0.5018  0.5258
 1162TIP3   OH225120   4.197   0.817   6.282 -0.4433 -0.1767  0.2015
 1162TIP3    H125121   4.262   0.839   6.215 -0.0367 -0.1821  0.5950
 1162TIP3    H225122   4.236   0.746   6.332 -0.4251  0.3382  0.9254
 1163TIP3   OH225123   4.333   0.814   0.649  0.0290  0.0662 -0.0443
 1163TIP3    H125124   4.328   0.816   0.745 -0.0282  0.1237 -0.0492
 1163TIP3    H225125   4.327   0.721   0.627 -0.9310  0.1211 -0.0503
 1164TIP3   OH225126   1.515   4.391   8.641 -0.2168 -0.3564 -0.5527
 1164TIP3    H125127   1.585   4.354   8.695 -0.7237  1.1622  1.2702
 1164TIP3    H225128   1.555   4.406   8.556  1.0130 -1.5708 -0.2237
 1165TIP3   OH225129   6.806   2.992   7.151 -0.4826  0.1953 -0.1256
 1165TIP3    H125130   6.817   3.075   7.199  1.4352  1.2822 -2.2186
 1165TIP3    H225131   6.892   2.977   7.110 -0.4899 -3.3154  0.8303
 1166TIP3   OH225132   2.365   0.891   2.291 -0.2253  0.5949  0.3511
 1166TIP3    H125133   2.348   0.961   2.353 -1.5115 -0.3824  1.1745
 1166TIP3    H225134   2.395   0.818   2.345  1.1249  0.5105 -0.4922
 1167TIP3   OH225135   1.218   0.636   2.386  0.0135  0.2083  0.5741
 1167TIP3    H125136   1.220   0.732   2.385  1.3471  0.2247  1.5960
 1167TIP3    H225137   1.149   0.614   2.449 -1.3607  0.4474 -0.7948
 1168TIP3   OH225138   1.261   5.088   7.444 -0.0915 -0.3082 -0.4506
 1168TIP3    H125139   1.327   5.149   7.410  1.5312 -1.5224  0.3838
 1168TIP3    H225140   1.309   5.006   7.458 -1.3263 -0.6963  2.0224
 1169TIP3   OH225141   2.903   4.487   0.455  1.1055  0.6822 -0.4722
 1169TIP3    H125142   2.826   4.438   0.483  0.8912  1.3940  0.2112
 1169TIP3    H225143   2.966   4.419   0.430  0.6305  0.0643 -0.0377
 1170TIP3   OH225144   3.335   6.058   1.459  0.3010 -0.2390 -0.1042
 1170TIP3    H125145   3.248   6.040   1.422  0.2385  1.3474 -0.8112
 1170TIP3    H225146   3.391   6.071   1.382  0.9261 -0.1844  0.3570
 1171TIP3   OH225147   1.888   0.392   6.771  0.4471 -0.4109  0.1977
 1171TIP3    H125148   1.806   0.359   6.735  0.6734 -0.1930 -0.5213
 1171TIP3    H225149   1.886   0.486   6.753  0.7075 -0.3521  0.4709
 1172TIP3   OH225150   3.627   6.722   1.205  0.0583 -0.5602 -0.6704
 1172TIP3    H125151   3.670   6.643   1.173 -1.2848 -1.0541 -1.3073
 1172TIP3    H225152   3.578   6.694   1.282  2.4328  0.4158  1.3548
 1173TIP3   OH225153   6.402   6.443   8.745 -0.1844 -0.2960  0.4491
 1173TIP3    H125154   6.416   6.352   8.770  1.4730 -0.7314 -1.7692
 1173TIP3    H225155   6.383   6.440   8.651  1.8988  1.7109 -0.1397
 1174TIP3   OH225156   5.135   6.199   1.499 -0.3560 -0.4363  0.1336
 1174TIP3    H125157   5.129   6.272   1.437 -0.1285 -1.8643 -1.6455
 1174TIP3    H225158   5.057   6.146   1.481 -0.6293 -0.5430  1.5514
 1175TIP3   OH225159   2.089   2.928   2.329 -0.0181 -0.3183 -0.0033
 1175TIP3    H125160   2.182   2.950   2.332 -0.0806 -0.0541 -0.0697
 1175TIP3    H225161   2.073   2.882   2.412 -0.3280  1.5695  1.0251
 1176TIP3   OH225162   2.465   0.490   1.450  0.2793 -0.2117  0.5109
 1176TIP3    H125163   2.478   0.585   1.460  1.7289 -0.2348 -0.6842
 1176TIP3    H225164   2.425   0.463   1.532 -1.0519  1.5765  0.5145
 1177TIP3   OH225165   1.618   6.553   8.293  0.7644  0.0445  0.2148
 1177TIP3    H125166   1.573   6.583   8.214  0.4809 -0.4623  0.1793
 1177TIP3    H225167   1.710   6.579   8.280  0.9033 -0.8461 -0.6994
 1178TIP3   OH225168   4.770   0.586   7.605  0.3423 -0.0890 -0.0801
 1178TIP3    H125169   4.765   0.587   7.509 -1.2347  1.7988 -0.0353
 1178TIP3    H225170   4.720   0.509   7.631 -1.8614  1.0475 -0.7364
 1179TIP3   OH225171   4.402   4.620   0.319 -0.2965 -0.4408 -0.3694
 1179TIP3    H125172   4.457   4.575   0.383  0.0740 -0.2981 -0.5846
 1179TIP3    H225173   4.344   4.552   0.286 -0.3187 -0.5719 -0.0690
 1180TIP3   OH225174   1.451   1.489   7.017  0.4456 -0.5507  0.0200
 1180TIP3    H125175   1.471   1.430   7.091  0.4923  0.1542  0.5788
 1180TIP3    H225176   1.492   1.447   6.941 -0.7174 -1.9640  0.1348
 1181TIP3   OH225177   3.016   0.151   0.632  0.2951  0.1040  0.3383
 1181TIP3    H125178   3.038   0.064   0.601 -0.7038 -0.5503  1.3899
 1181TIP3    H225179   2.961   0.136   0.709 -1.6082  1.6412 -0.6551
 1182TIP3   OH225180   3.403   1.274   7.517  0.1581 -0.2317 -0.4616
 1182TIP3    H125181   3.449   1.315   7.591  1.3399  0.3364 -1.4690
 1182TIP3    H225182   3.412   1.180   7.533 -2.1081 -0.1878  1.5894
 1183TIP3   OH225183   5.435   1.899   7.930  0.2492  0.4377 -0.0960
 1183TIP3    H125184   5.401   1.983   7.961  2.2239  0.7012  1.6016
 1183TIP3    H225185   5.377   1.834   7.972 -1.1406  0.8974 -1.2284
 1184TIP3   OH225186   1.936   6.679   1.140  0.2698  0.9050 -0.2222
 1184TIP3    H125187   1.908   6.611   1.201  2.4283  0.5098  0.4026
 1184TIP3    H225188   1.858   6.734   1.127 -0.8930 -0.4121  0.9675
 1185TIP3   OH225189   0.571   6.525   7.701 -0.4267  0.5084  0.0235
 1185TIP3    H125190   0.641   6.566   7.651  0.5357 -0.0601  0.8641
 1185TIP3    H225191   0.574   6.567   7.787  0.3055 -0.9897  0.7652
 1186TIP3   OH225192   4.129   6.777   1.267 -0.2838 -0.4240 -0.4937
 1186TIP3    H125193   4.138   6.694   1.219  1.2355 -0.5356 -0.0834
 1186TIP3    H225194   4.035   6.793   1.270 -0.5943 -1.9752 -0.8509
 1187TIP3   OH225195   1.186   1.223   6.638 -0.2143  0.2472  0.8186
 1187TIP3    H125196   1.155   1.139   6.673  1.5533 -0.7291  0.1585
 1187TIP3    H225197   1.246   1.199   6.568 -2.1319  2.1171 -1.6564
 1188TIP3   OH225198   4.292   3.081   7.393  0.5617 -0.4100  0.0158
 1188TIP3    H125199   4.270   3.015   7.326 -0.6403 -0.4420  0.4237
 1188TIP3    H225200   4.338   3.031   7.461 -0.1004 -0.7880  0.1948
 1189TIP3   OH225201   3.876   3.934   8.494 -0.0417  0.4007  0.3649
 1189TIP3    H125202   3.915   3.852   8.523  0.1163  0.1557 -0.5173
 1189TIP3    H225203   3.783   3.925   8.517  0.1155  0.3031  0.9736
 1190TIP3   OH225204   0.439   2.921   2.042  0.0862 -0.2884  0.0151
 1190TIP3    H125205   0.370   2.887   1.986  0.8111 -0.3854 -0.8339
 1190TIP3    H225206   0.438   3.016   2.027 -0.8507 -0.0868  1.1548
 1191TIP3   OH225207   1.856   3.759   8.491 -0.4445  0.4744 -0.4408
 1191TIP3    H125208   1.877   3.852   8.499 -0.0408  0.2904  0.9129
 1191TIP3    H225209   1.905   3.730   8.414 -0.5486  1.3666 -0.8562
 1192TIP3   OH225210   6.028   6.755   1.912 -0.0611  0.1051 -0.3460
 1192TIP3    H125211   5.947   6.798   1.886  0.1295  0.5604 -0.1995
 1192TIP3    H225212   6.091   6.826   1.919 -0.0009 -0.0617  0.9500
 1193TIP3   OH225213   1.073   1.710   6.609 -0.2148  0.2652  0.5504
 1193TIP3    H125214   1.031   1.716   6.694  0.1610 -2.8191  1.0731
 1193TIP3    H225215   1.008   1.744   6.548 -2.7118 -2.1874  1.5865
 1194TIP3   OH225216   6.811   4.411   6.275 -0.2355 -0.2664 -0.5392
 1194TIP3    H125217   6.723   4.375   6.263 -0.3040 -0.0357 -0.7605
 1194TIP3    H225218   6.841   4.377   6.359  0.0290 -1.4813 -1.1098
 1195TIP3   OH225219   1.397   4.077   0.714 -0.0930  0.0238 -0.4724
 1195TIP3    H125220   1.352   4.089   0.631  2.2335  2.5918 -1.5204
 1195TIP3    H225221   1.365   4.148   0.770  1.2070  0.7383 -0.5989
 1196TIP3   OH225222   4.539   2.969   7.147 -0.0530 -0.2208  0.2405
 1196TIP3    H125223   4.608   3.022   7.109  0.5403 -1.3521 -0.3088
 1196TIP3    H225224   4.501   3.024   7.216  0.1814  1.0922 -0.6491
 1197TIP3   OH225225   2.012   1.667   1.906 -0.0656 -0.2805  0.2896
 1197TIP3    H125226   2.077   1.710   1.962 -1.5538  0.4843  1.5017
 1197TIP3    H225227   1.972   1.739   1.857  0.0815 -0.7624 -0.5636
 1198TIP3   OH225228   0.447   3.354   8.049 -0.0302  0.0036 -0.0760
 1198TIP3    H125229   0.537   3.376   8.073 -0.3377  2.0231 -0.5729
 1198TIP3    H225230   0.394   3.393   8.119 -0.5428 -1.2348  0.2503
 1199TIP3   OH225231   4.947   1.155   7.756  0.2798 -0.1402 -0.0931
 1199TIP3    H125232   4.976   1.074   7.798  1.7075 -0.2338 -1.1794
 1199TIP3    H225233   4.880   1.127   7.694 -0.7403 -0.1938  1.0068
 1200TIP3   OH225234   0.127   2.343   0.653  0.7373 -0.5235 -0.2119
 1200TIP3    H125235   0.031   2.339   0.647  0.7444 -2.1220  0.1185
 1200TIP3    H225236   0.151   2.423   0.607 -0.7752  0.0374 -0.0814
 1201TIP3   OH225237   0.165   1.597   7.484 -0.1783 -0.0559  0.0018
 1201TIP3    H125238   0.232   1.568   7.422  0.0879 -1.4091  0.8773
 1201TIP3    H225239   0.102   1.525   7.486 -0.7993  0.4854  0.4265
 1202TIP3   OH225240   2.903   2.304   7.461 -0.0041  0.0605  0.2819
 1202TIP3    H125241   2.896   2.399   7.461 -0.1838  0.0476  0.1793
 1202TIP3    H225242   2.821   2.274   7.502  0.5873 -0.0150  1.4578
 1203TIP3   OH225243   4.211   5.511   8.305  0.4789  0.7916 -0.3595
 1203TIP3    H125244   4.271   5.466   8.365 -0.0467 -2.1796 -1.8671
 1203TIP3    H225245   4.248   5.494   8.218 -0.9247  1.5315 -1.1242
 1204TIP3   OH225246   0.288   4.892   0.495 -0.3205  0.7550 -0.4825
 1204TIP3    H125247   0.279   4.797   0.501  0.5273  0.7517  1.7940
 1204TIP3    H225248   0.224   4.918   0.429  0.4076 -1.5048 -2.2124
 1205TIP3   OH225249   0.742   4.343   7.828  0.2782  0.2226  0.0335
 1205TIP3    H125250   0.758   4.434   7.850  2.4270  0.2777 -1.4458
 1205TIP3    H225251   0.823   4.298   7.850 -1.7346 -2.1097  3.8638
 1206TIP3   OH225252   5.546   0.013   8.675  0.0158  0.5145  0.6219
 1206TIP3    H125253   5.622  -0.002   8.617 -0.1761 -0.4752  0.6145
 1206TIP3    H225254   5.583   0.058   8.751  0.2115  2.2243 -0.4211
 1207TIP3   OH225255   2.154   3.027   6.705 -0.2724 -0.2494  0.6437
 1207TIP3    H125256   2.171   2.974   6.627 -0.8627  0.9021 -0.3167
 1207TIP3    H225257   2.134   3.114   6.670 -2.7873 -0.2166  1.9138
 1208TIP3   OH225258   2.526   5.179   1.303 -0.2722  0.3940  0.6769
 1208TIP3    H125259   2.598   5.241   1.289 -0.7065  0.7410 -0.0337
 1208TIP3    H225260   2.570   5.095   1.319  0.2907  0.1667 -1.7750
 1209TIP3   OH225261   3.021   2.732   7.741 -0.0775 -0.0189  0.0009
 1209TIP3    H125262   3.102   2.716   7.791  0.3480  1.0742 -0.3217
 1209TIP3    H225263   2.974   2.798   7.792 -0.6793 -0.4959  0.0769
 1210TIP3   OH225264   2.268   2.422   0.415 -0.2068  0.1041 -0.3265
 1210TIP3    H125265   2.294   2.410   0.507  0.7915  0.9328 -0.4803
 1210TIP3    H225266   2.316   2.354   0.368  1.0182  1.0409 -0.4884
 1211TIP3   OH225267   3.650   4.533   2.316 -0.5664 -0.5448  0.2731
 1211TIP3    H125268   3.586   4.463   2.299 -1.3544  0.6598 -2.0606
 1211TIP3    H225269   3.602   4.597   2.369 -0.6253 -0.6149  0.3045
 1212TIP3   OH225270   3.036   1.341   7.868 -0.5689  0.7205 -0.1437
 1212TIP3    H125271   3.019   1.389   7.787  1.1812  1.5183 -0.0785
 1212TIP3    H225272   3.123   1.304   7.856 -1.9136 -2.7952 -0.2966
 1213TIP3   OH225273   6.031   2.739   7.038 -0.2054 -0.1981 -0.2112
 1213TIP3    H125274   6.121   2.718   7.013 -0.1386 -0.4919  0.2452
 1213TIP3    H225275   5.978   2.671   6.996 -0.0732 -0.8188  0.5768
 1214TIP3   OH225276   1.368   4.161   8.546  0.0552 -0.5558 -0.0081
 1214TIP3    H125277   1.394   4.247   8.579 -0.6139  0.0508 -1.0048
 1214TIP3    H225278   1.349   4.110   8.624 -0.6545  0.5743  0.5900
 1215TIP3   OH225279   5.899   3.663   2.216  0.1377  0.3923 -0.0948
 1215TIP3    H125280   5.943   3.746   2.202 -1.6625  1.5190  0.5704
 1215TIP3    H225281   5.930   3.633   2.302 -0.6593  1.3829  0.5561
 1216TIP3   OH225282   2.246   2.370   7.780 -0.1770  0.1937  0.4998
 1216TIP3    H125283   2.248   2.277   7.756  1.1477  0.0583  1.0343
 1216TIP3    H225284   2.294   2.375   7.863 -0.4406  1.3226  0.6048
 1217TIP3   OH225285   2.466   0.527   0.781  0.0317  0.2367 -0.4918
 1217TIP3    H125286   2.507   0.492   0.860  1.6740  0.0066 -1.3901
 1217TIP3    H225287   2.472   0.622   0.790  1.3259  0.2105 -0.8460
 1218TIP3   OH225288   2.688   5.260   8.666 -0.3958 -0.5248  0.7537
 1218TIP3    H125289   2.608   5.244   8.717  0.3044 -0.7774  1.8088
 1218TIP3    H225290   2.749   5.193   8.696  0.3720 -0.0290  0.3229
 1219TIP3   OH225291   0.830   0.140   1.104  0.3960 -0.1596  0.4028
 1219TIP3    H125292   0.794   0.064   1.057 -1.1792  0.3663  0.6925
 1219TIP3    H225293   0.776   0.213   1.075  2.2788  0.9941 -0.3290
 1220TIP3   OH225294   3.640   1.837   7.078 -0.1134  0.5140 -0.0110
 1220TIP3    H125295   3.731   1.846   7.106 -0.0028  0.3496 -0.3176
 1220TIP3    H225296   3.619   1.745   7.093 -0.7093  0.8514  1.4852
 1221TIP3   OH225297   6.804   5.230   0.587 -0.4776  0.3243  0.8386
 1221TIP3    H125298   6.900   5.230   0.582 -0.4499  1.3866  1.0587
 1221TIP3    H225299   6.780   5.138   0.587  0.4531  0.0386 -0.8558
 1222TIP3   OH225300   5.356   5.160   0.160  0.1885  0.4449 -0.0345
 1222TIP3    H125301   5.356   5.214   0.238 -0.5183  0.2637  0.0899
 1222TIP3    H225302   5.301   5.206   0.097  1.7291  1.2241 -0.8845
 1223TIP3   OH225303   1.502   4.450   0.690 -0.4020  0.0084  0.0340
 1223TIP3    H125304   1.448   4.491   0.622 -1.5163  2.4989  2.2224
 1223TIP3    H225305   1.439   4.411   0.751  0.5010 -0.9303  0.4067
 1224TIP3   OH225306   2.612   0.944   7.940  0.0148 -0.5148  0.0988
 1224TIP3    H125307   2.677   1.001   7.898 -0.2217  0.6864  1.2886
 1224TIP3    H225308   2.587   0.991   8.020 -0.8184 -1.9169  0.6983
 1225TIP3   OH225309   6.527   0.770   8.364  0.1924 -0.7134 -0.0479
 1225TIP3    H125310   6.515   0.714   8.440 -3.0000  0.9894  0.9185
 1225TIP3    H225311   6.465   0.736   8.299  0.3176 -0.0740 -0.5149
 1226TIP3   OH225312   0.744   3.879   0.932 -0.0160 -0.1300 -0.0371
 1226TIP3    H125313   0.673   3.906   0.875  0.6168 -0.1180 -0.8342
 1226TIP3    H225314   0.720   3.914   1.018 -0.7929  0.1769 -0.3736
 1227TIP3   OH225315   0.397   5.143   1.961 -0.0137  0.5018 -0.0824
 1227TIP3    H125316   0.357   5.225   1.933  0.7084  1.4039  1.4314
 1227TIP3    H225317   0.430   5.161   2.050  0.4891 -1.3035  0.1349
 1228TIP3   OH225318   0.928   3.766   0.734 -0.3001  0.3879 -0.0936
 1228TIP3    H125319   0.934   3.838   0.796  0.7502 -0.1297  0.4316
 1228TIP3    H225320   0.860   3.708   0.770  0.2168  0.1522  0.5122
 1229TIP3   OH225321   5.020   2.052   0.070 -0.5625 -0.2790  0.7109
 1229TIP3    H125322   5.012   2.042  -0.025  2.4287 -0.4535  0.3858
 1229TIP3    H225323   5.010   1.964   0.105  1.8554 -0.8563  0.1392
 1230TIP3   OH225324   5.162   5.963   7.984  0.2865 -0.3376 -0.3957
 1230TIP3    H125325   5.087   5.945   8.041 -0.0018 -2.5287 -1.3706
 1230TIP3    H225326   5.187   5.877   7.950  3.1106  0.3544 -0.2984
 1231TIP3   OH225327   1.860   5.159   6.910 -0.2069 -0.0800 -0.4483
 1231TIP3    H125328   1.882   5.077   6.954  0.0009 -0.2560 -0.8698
 1231TIP3    H225329   1.928   5.170   6.844  0.2589  0.8779  0.1735
 1232TIP3   OH225330   3.256   2.543   1.041 -0.0257 -0.0617  0.1948
 1232TIP3    H125331   3.261   2.523   0.948 -0.0444 -1.7531  0.5321
 1232TIP3    H225332   3.301   2.470   1.085 -1.5775 -0.2505  1.5932
 1233TIP3   OH225333   2.923   1.626   0.108 -0.0135 -0.6562 -0.3810
 1233TIP3    H125334   2.988   1.598   0.172  0.4951  0.1756 -0.5235
 1233TIP3    H225335   2.878   1.545   0.083  1.2477 -1.3178 -0.5971
 1234TIP3   OH225336   4.940   6.313   0.129  0.6871  0.0715  0.5161
 1234TIP3    H125337   5.007   6.356   0.182  1.2541 -0.9259  0.6459
 1234TIP3    H225338   4.989   6.269   0.060  0.2296 -1.0750  0.8916
 1235TIP3   OH225339   1.550   3.388   7.856 -0.3114 -0.0529 -0.0471
 1235TIP3    H125340   1.560   3.439   7.776  1.1522  1.0659  0.7919
 1235TIP3    H225341   1.565   3.298   7.829 -0.8976  0.1834 -1.2043
 1236TIP3   OH225342   1.020   1.332   1.555 -0.2790 -0.0673  0.1343
 1236TIP3    H125343   0.947   1.337   1.617  0.1087  2.3440  0.5302
 1236TIP3    H225344   1.096   1.310   1.610 -0.5358 -1.6859 -0.1324
 1237TIP3   OH225345   4.059   4.618   7.236  0.0269 -0.5235 -0.3741
 1237TIP3    H125346   4.064   4.672   7.315 -0.4898  0.5327 -1.0396
 1237TIP3    H225347   4.101   4.535   7.261  1.5556  0.4391  0.4531
 1238TIP3   OH225348   0.748   3.439   1.082 -0.1245  0.2571 -0.1201
 1238TIP3    H125349   0.823   3.411   1.135  1.0522  1.7596 -0.9311
 1238TIP3    H225350   0.709   3.357   1.050 -0.0441 -0.6253  1.8948
 1239TIP3   OH225351   4.185   6.210   0.287  0.1295  0.0496 -0.1968
 1239TIP3    H125352   4.158   6.142   0.224 -1.2113  1.0340 -0.7414
 1239TIP3    H225353   4.242   6.164   0.349 -2.4328 -2.1261  0.7605
 1240TIP3   OH225354   5.020   5.013   1.226  0.1361  0.4770 -0.2864
 1240TIP3    H125355   4.969   4.993   1.304 -0.3846 -0.0777 -0.7559
 1240TIP3    H225356   5.021   5.109   1.222  0.3786  0.5175  0.5242
 1241TIP3   OH225357   5.061   6.212   8.768 -0.2762  0.1527 -0.0762
 1241TIP3    H125358   5.025   6.300   8.757 -1.6984 -0.5973 -2.0006
 1241TIP3    H225359   5.147   6.216   8.726 -1.2094  0.1600 -2.1301
 1242TIP3   OH225360   5.172   0.647   0.909 -0.5122  0.3349  0.0721
 1242TIP3    H125361   5.204   0.728   0.948 -0.1283  0.5692 -0.7128
 1242TIP3    H225362   5.244   0.585   0.920 -0.5041  0.3265 -0.0259
 1243TIP3   OH225363   6.220   1.499   1.924  0.3083  0.3261 -0.2664
 1243TIP3    H125364   6.303   1.478   1.880  1.2455  0.8372  1.1939
 1243TIP3    H225365   6.246   1.549   2.001 -1.5158  2.6066 -1.0227
 1244TIP3   OH225366   2.404   5.589   0.741  0.4428  0.5659 -0.4613
 1244TIP3    H125367   2.408   5.616   0.832  0.6398  0.5229 -0.4582
 1244TIP3    H225368   2.391   5.494   0.744 -3.1923  0.8927 -0.4095
 1245TIP3   OH225369   2.694   2.017   0.720  0.0237 -0.3886 -0.3932
 1245TIP3    H125370   2.627   2.058   0.666 -0.1794  0.0807  0.1952
 1245TIP3    H225371   2.647   1.986   0.797  0.5230  0.2693  0.1967
 1246TIP3   OH225372   2.280   2.240   8.119 -0.2319 -0.0698  0.1569
 1246TIP3    H125373   2.351   2.303   8.104 -0.3255 -0.1617 -0.7041
 1246TIP3    H225374   2.320   2.173   8.175 -0.5968  1.5699  2.5383
 1247TIP3   OH225375   6.381   1.908   0.188  0.3569 -0.1480  0.4194
 1247TIP3    H125376   6.443   1.932   0.257  2.8445 -0.9417 -1.4099
 1247TIP3    H225377   6.366   1.814   0.201  0.4526 -0.1972  0.1761
 1248TIP3   OH225378   6.034   5.024   6.863  0.1631 -0.0731 -0.0929
 1248TIP3    H125379   5.962   5.023   6.800  0.4349  2.5227 -0.5341
 1248TIP3    H225380   6.112   5.004   6.810  0.2848  1.3234 -0.4907
 1249TIP3   OH225381   0.646   2.805   8.328  0.0546  0.5926 -0.0522
 1249TIP3    H125382   0.721   2.751   8.304  0.4875  2.0800 -2.3896
 1249TIP3    H225383   0.642   2.800   8.424  1.9338 -1.0416  0.0022
 1250TIP3   OH225384   5.914   3.874   8.531  0.2124  0.5825  0.1578
 1250TIP3    H125385   5.957   3.959   8.524 -2.0029  1.7782  0.1167
 1250TIP3    H225386   5.880   3.856   8.443  1.7729 -1.0178 -0.1640
 1251TIP3   OH225387   4.587   2.618   7.884 -0.1168  0.6592  0.2453
 1251TIP3    H125388   4.632   2.540   7.853 -0.9694  0.2845 -0.0859
 1251TIP3    H225389   4.597   2.616   7.979 -1.2864 -0.5993  0.3742
 1252TIP3   OH225390   2.742   1.570   1.172 -0.3724  0.3773 -0.6925
 1252TIP3    H125391   2.710   1.514   1.101  1.3015 -0.3161 -0.9577
 1252TIP3    H225392   2.702   1.534   1.251  1.4845 -1.9943 -0.7120
 1253TIP3   OH225393   3.451   5.371   7.629 -0.2011  0.3553 -0.1549
 1253TIP3    H125394   3.373   5.324   7.602  0.3254 -1.3347  1.0600
 1253TIP3    H225395   3.425   5.418   7.709  0.2377 -1.0264  0.8350
 1254TIP3   OH225396   4.760   0.239   7.962  0.3683  0.1850 -0.2022
 1254TIP3    H125397   4.771   0.227   8.056 -1.0881 -0.4755 -0.0951
 1254TIP3    H225398   4.822   0.177   7.923  1.3607  0.8329  0.2839
 1255TIP3   OH225399   3.655   3.350   6.666 -0.4702 -0.0926 -0.1156
 1255TIP3    H125400   3.722   3.419   6.671 -0.1257 -0.3221 -1.3705
 1255TIP3    H225401   3.597   3.377   6.595  0.0892 -1.4371 -1.1249
 1256TIP3   OH225402   4.045   4.021   8.212  0.3428 -0.0771 -0.4438
 1256TIP3    H125403   3.978   4.020   8.281 -0.4183  0.1939 -1.1715
 1256TIP3    H225404   4.112   4.080   8.246  0.0249 -0.0245  0.1122
 1257TIP3   OH225405   1.852   0.392   7.213  0.1980 -0.0383  0.7922
 1257TIP3    H125406   1.821   0.454   7.147  1.5962 -1.3268 -1.2112
 1257TIP3    H225407   1.782   0.327   7.221  0.3013 -0.2641 -0.0196
 1258TIP3   OH225408   6.300   2.535   8.137 -0.3574 -0.5778  0.0037
 1258TIP3    H125409   6.337   2.515   8.224  2.2454  3.2265  0.0344
 1258TIP3    H225410   6.229   2.596   8.155  1.7174  2.1520 -0.4393
 1259TIP3   OH225411   4.339   1.555   0.184 -0.2588  0.1873 -0.4573
 1259TIP3    H125412   4.308   1.632   0.232  0.0953 -0.5211  0.9534
 1259TIP3    H225413   4.420   1.584   0.142  0.8727  0.1125  1.5629
 1260TIP3   OH225414   5.340   6.452   8.451  0.2487  0.1296 -0.3928
 1260TIP3    H125415   5.391   6.495   8.383  0.2820 -0.0029 -0.4505
 1260TIP3    H225416   5.275   6.400   8.404  0.3183 -0.0194 -0.3250
 1261TIP3   OH225417   0.394   3.581   7.887 -0.2945  0.3554  0.1126
 1261TIP3    H125418   0.401   3.488   7.910 -2.7552 -0.2966 -1.4714
 1261TIP3    H225419   0.366   3.623   7.968  1.1058 -0.1970  0.9231
 1262TIP3   OH225420   5.546   5.717   1.585  0.2242 -0.2614 -0.3593
 1262TIP3    H125421   5.632   5.746   1.553  0.6583  0.1334  1.0932
 1262TIP3    H225422   5.507   5.797   1.621 -0.3918 -0.6268 -0.2130
 1263TIP3   OH225423   4.628   0.808   0.708  0.0263 -0.1025  0.2801
 1263TIP3    H125424   4.616   0.814   0.614  2.4615  0.0430 -0.0881
 1263TIP3    H225425   4.540   0.807   0.744 -0.9753  1.9086 -1.8641
 1264TIP3   OH225426   0.089   4.917   0.299 -0.3316  0.0022 -0.2653
 1264TIP3    H125427   0.088   4.873   0.214 -0.1573  0.3604 -0.4542
 1264TIP3    H225428   0.064   5.007   0.280  1.1577  0.4739 -0.1628
 1265TIP3   OH225429   0.096   6.743   6.428 -0.1069 -0.5161 -0.1674
 1265TIP3    H125430   0.080   6.834   6.406  0.9175  0.1341  1.5868
 1265TIP3    H225431   0.045   6.728   6.507 -1.3113 -1.8787 -1.1518
 1266TIP3   OH225432   0.219   4.399   0.848  0.2594  0.0550  0.1676
 1266TIP3    H125433   0.144   4.432   0.898 -0.4254 -1.7468  0.3897
 1266TIP3    H225434   0.260   4.334   0.904  1.3757  0.2445 -0.3869
 1267TIP3   OH225435   1.679   6.175   8.076  0.0564 -0.1556  0.3053
 1267TIP3    H125436   1.685   6.088   8.115  0.1190  1.2834  3.8429
 1267TIP3    H225437   1.765   6.214   8.091  0.0410  0.5630 -1.2677
 1268TIP3   OH225438   3.905   6.036   0.448  0.3582 -0.4016  0.0831
 1268TIP3    H125439   3.892   6.090   0.370  1.3704  1.4829  1.1307
 1268TIP3    H225440   3.823   6.043   0.496  0.8296  1.1849  0.7312
 1269TIP3   OH225441   3.941   5.957   6.888  0.0530  0.5453 -0.1691
 1269TIP3    H125442   3.997   6.029   6.918  0.8048  0.2763 -0.9022
 1269TIP3    H225443   3.972   5.938   6.799  0.7773 -1.5845  0.4752
 1270TIP3   OH225444   5.002   1.304   0.195 -0.1116 -0.0499  0.0473
 1270TIP3    H125445   4.916   1.304   0.154  0.4993 -1.6751 -1.3751
 1270TIP3    H225446   4.999   1.232   0.258 -0.0881  0.5190  0.7113
 1271TIP3   OH225447   4.667   1.272   1.015 -0.4980 -0.2626  0.2722
 1271TIP3    H125448   4.641   1.360   0.989 -2.0410 -0.4591  1.0004
 1271TIP3    H225449   4.588   1.219   1.002 -0.2336 -1.0873  1.8119
 1272TIP3   OH225450   2.044   1.690   7.747  0.5413 -0.8329  0.2066
 1272TIP3    H125451   2.003   1.744   7.814 -0.7760 -0.1097 -1.1281
 1272TIP3    H225452   2.047   1.602   7.787  0.4429 -0.2966  1.4563
 1273TIP3   OH225453   3.282   6.127   7.109 -0.3256  0.2204 -0.4259
 1273TIP3    H125454   3.249   6.107   7.021 -0.6009  0.6261 -0.4180
 1273TIP3    H225455   3.323   6.213   7.101 -3.7994  2.1850  0.6467
 1274TIP3   OH225456   3.658   1.757   2.014  0.1133 -0.1817 -0.0211
 1274TIP3    H125457   3.711   1.736   1.937 -1.0336  0.1621 -0.9328
 1274TIP3    H225458   3.701   1.834   2.052 -0.1099  0.5106 -1.1390
 1275TIP3   OH225459   1.002   3.007   1.015  0.3200  0.8046 -0.0886
 1275TIP3    H125460   1.081   3.060   1.009  0.3560  0.5705 -2.2974
 1275TIP3    H225461   1.008   2.945   0.942 -0.8078 -0.7591  1.0579
 1276TIP3   OH225462   4.146   3.961   1.900  0.4284 -0.4032 -0.3734
 1276TIP3    H125463   4.189   3.931   1.980  1.5840  2.1567  0.0640
 1276TIP3    H225464   4.218   3.976   1.839 -0.1605  0.4873 -0.8716
 1277TIP3   OH225465   4.201   2.554   0.762  0.4279  0.4317 -0.3036
 1277TIP3    H125466   4.181   2.468   0.799  2.2424 -0.1353 -0.5416
 1277TIP3    H225467   4.129   2.570   0.701  1.1049 -1.8942 -1.8400
 1278TIP3   OH225468   3.195   0.443   2.239  0.0202 -0.2341  0.1546
 1278TIP3    H125469   3.256   0.417   2.308 -0.7828  0.1973  1.0507
 1278TIP3    H225470   3.219   0.533   2.218 -1.3356  0.5331  1.7052
 1279TIP3   OH225471   4.558   3.076   1.521  0.0255 -0.0884  0.0458
 1279TIP3    H125472   4.507   3.001   1.554  1.2242 -0.6958  0.5632
 1279TIP3    H225473   4.496   3.123   1.465 -1.1018 -0.8194  0.6190
 1280TIP3   OH225474   1.971   1.167   2.391 -0.1294  0.1232  0.2971
 1280TIP3    H125475   1.912   1.145   2.319 -2.6392 -0.3815  2.3390
 1280TIP3    H225476   1.923   1.233   2.442  1.5168  0.4285  1.5467
 1281TIP3   OH225477   3.153   5.135   1.255 -0.5769 -0.1052 -0.0959
 1281TIP3    H125478   3.222   5.148   1.190 -0.4163 -1.1443 -0.1438
 1281TIP3    H225479   3.198   5.103   1.333 -1.0435 -1.2945 -0.2958
 1282TIP3   OH225480   1.570   6.276   8.355 -0.2011  0.0565  0.3271
 1282TIP3    H125481   1.528   6.209   8.300 -0.8244 -0.2744  1.1849
 1282TIP3    H225482   1.572   6.354   8.300 -2.7875  0.3534  0.5311
 1283TIP3   OH225483   5.319   1.136   1.548  0.4664  0.1917  0.1619
 1283TIP3    H125484   5.260   1.199   1.591  0.4812 -0.8248  1.7587
 1283TIP3    H225485   5.399   1.187   1.532 -0.8858  1.7012 -2.4006
 1284TIP3   OH225486   2.160   2.573   6.898 -0.2764  0.0855 -0.1383
 1284TIP3    H125487   2.141   2.638   6.831  0.3233  0.7612  0.3398
 1284TIP3    H225488   2.086   2.512   6.894  0.5514 -0.8694 -2.5687
 1285TIP3   OH225489   5.697   6.459   8.567 -0.0875 -0.2448  0.8155
 1285TIP3    H125490   5.778   6.417   8.593 -0.0759 -1.0761 -0.4825
 1285TIP3    H225491   5.694   6.540   8.617  1.8469  0.0928  0.4374
 1286TIP3   OH225492   1.367   4.291   0.869  0.1681 -0.0711 -0.0980
 1286TIP3    H125493   1.433   4.267   0.935  1.1422  0.7069 -0.7654
 1286TIP3    H225494   1.289   4.312   0.921  0.8804  0.4244  0.8266
 1287TIP3   OH225495   2.874   2.042   7.803  0.4933 -0.4769  0.2088
 1287TIP3    H125496   2.940   2.073   7.865 -0.2512 -0.3400  0.9623
 1287TIP3    H225497   2.919   1.976   7.750  1.0279 -0.9520  1.2287
 1288TIP3   OH225498   6.680   0.660   1.287 -0.0973  0.4411  1.0537
 1288TIP3    H125499   6.718   0.639   1.372  1.4238  1.9530  0.7988
 1288TIP3    H225500   6.731   0.609   1.224  1.1810  2.0093  0.7659
 1289TIP3   OH225501   2.131   5.729   0.744 -0.4341  0.8696  0.2421
 1289TIP3    H125502   2.197   5.673   0.702 -0.3582  0.2043  1.2270
 1289TIP3    H225503   2.142   5.814   0.702 -1.6023 -0.1878 -2.4550
 1290TIP3   OH225504   0.406   5.259   8.196  0.0191 -0.2843  0.1952
 1290TIP3    H125505   0.450   5.193   8.250  0.4416 -0.2906 -0.1502
 1290TIP3    H225506   0.378   5.211   8.118  0.6152  0.0032 -0.2045
 1291TIP3   OH225507   4.408   3.014   1.090 -0.1334  0.4948 -0.1254
 1291TIP3    H125508   4.407   3.001   0.995  0.3681 -0.8002  0.0300
 1291TIP3    H225509   4.492   2.978   1.119 -0.8035 -0.2787  0.9425
 1292TIP3   OH225510   5.374   5.388   0.768 -0.5768 -0.0984 -1.0531
 1292TIP3    H125511   5.289   5.431   0.769 -0.3030  0.4815  0.2193
 1292TIP3    H225512   5.437   5.460   0.770 -0.0883 -0.5284 -0.3625
 1293TIP3   OH225513   4.101   3.533   7.559 -0.1522  0.0023 -0.3303
 1293TIP3    H125514   4.085   3.448   7.518  1.5216  0.1477 -1.3615
 1293TIP3    H225515   4.035   3.538   7.629 -3.5267 -0.0489 -3.2325
 1294TIP3   OH225516   5.228   0.621   1.978  0.4486 -0.1655 -0.3194
 1294TIP3    H125517   5.181   0.631   2.060  1.8824 -2.3464  0.8780
 1294TIP3    H225518   5.320   0.610   2.004  1.0697 -0.0999 -2.2711
 1295TIP3   OH225519   4.406   5.005   0.359  0.0992 -0.3092  0.0285
 1295TIP3    H125520   4.481   4.959   0.397  1.4353  0.6539 -1.3525
 1295TIP3    H225521   4.331   4.973   0.409  1.4300 -1.1936  1.5504
 1296TIP3   OH225522   3.575   4.689   8.078 -0.5850  0.0961 -0.3061
 1296TIP3    H125523   3.634   4.628   8.035 -0.0338  0.8339 -0.6205
 1296TIP3    H225524   3.630   4.765   8.099 -1.6635  1.3403 -1.7398
 1297TIP3   OH225525   5.041   3.301   0.021 -0.2942 -0.3444 -0.1897
 1297TIP3    H125526   5.068   3.385   0.058 -0.4806 -0.5888  0.5316
 1297TIP3    H225527   5.063   3.237   0.089  0.5678 -0.9859 -1.0437
 1298TIP3   OH225528   5.865   6.688   2.249  0.0722  0.4893  0.0586
 1298TIP3    H125529   5.782   6.657   2.213 -0.4288  1.0561  0.7055
 1298TIP3    H225530   5.903   6.741   2.179 -0.5978  1.0648  0.1167
 1299TIP3   OH225531   5.106   6.477   7.651 -0.0243 -0.4574 -0.8299
 1299TIP3    H125532   5.168   6.423   7.602  0.3913  1.5851 -2.6963
 1299TIP3    H225533   5.054   6.522   7.583 -1.0923  0.6284  0.6398
 1300TIP3   OH225534   4.666   5.864   8.020 -0.2755 -0.2942 -0.0270
 1300TIP3    H125535   4.700   5.829   8.102 -0.9143 -0.4190  0.1879
 1300TIP3    H225536   4.741   5.907   7.979 -0.2759  1.0616  1.3156
 1301TIP3   OH225537   3.964   2.569   8.587  0.1823 -0.8531 -0.0808
 1301TIP3    H125538   3.886   2.564   8.643 -0.0730 -0.4361 -0.3944
 1301TIP3    H225539   3.934   2.616   8.509  0.6959 -0.8836 -0.2948
 1302TIP3   OH225540   4.630   5.294   7.746 -0.3893 -0.4371  0.6764
 1302TIP3    H125541   4.650   5.387   7.760  1.7025 -0.9283  1.2176
 1302TIP3    H225542   4.622   5.287   7.650 -0.3602  0.2601  0.6125
 1303TIP3   OH225543   1.322   6.549   7.969 -0.2445 -0.5046  0.1270
 1303TIP3    H125544   1.393   6.609   7.991  0.0621 -0.6774 -0.3688
 1303TIP3    H225545   1.247   6.605   7.951  0.5500 -0.0930 -2.3582
 1304TIP3   OH225546   0.811   2.188   7.290  0.1776 -0.5716 -0.7407
 1304TIP3    H125547   0.741   2.145   7.338 -0.8716 -0.0297 -1.7507
 1304TIP3    H225548   0.889   2.174   7.344 -0.7779 -0.8010  0.6270
 1305TIP3   OH225549   2.555   3.266   0.664  0.0083  0.0259  0.5383
 1305TIP3    H125550   2.633   3.267   0.608  0.3862  1.0067  1.0724
 1305TIP3    H225551   2.482   3.277   0.602  0.3011 -0.5306  0.0760
 1306TIP3   OH225552   0.404   6.109   0.988 -0.2002 -0.3983  0.1394
 1306TIP3    H125553   0.317   6.144   0.965  0.9319  2.8052  0.2256
 1306TIP3    H225554   0.443   6.085   0.904 -0.4680 -0.0733 -0.0803
 1307TIP3   OH225555   0.969   5.451   1.367  0.1646 -0.4192  0.1089
 1307TIP3    H125556   0.892   5.497   1.332 -0.0053 -2.3366 -2.3226
 1307TIP3    H225557   0.934   5.371   1.405  0.8382 -0.6903  0.1728
 1308TIP3   OH225558   4.748   1.247   2.330  0.3179  0.3982  0.0128
 1308TIP3    H125559   4.815   1.208   2.385  1.3129  0.4183 -1.1458
 1308TIP3    H225560   4.785   1.330   2.302  1.2424 -0.9235 -3.1751
 1309TIP3   OH225561   3.989   6.147   8.843 -0.4837  0.0142  0.2856
 1309TIP3    H125562   4.003   6.076   8.781 -0.6453  0.5439 -0.3691
 1309TIP3    H225563   4.034   6.222   8.805  0.8336 -0.0501  1.6166
 1310TIP3   OH225564   4.344   5.733   6.899 -0.7569 -0.3419  0.5818
 1310TIP3    H125565   4.283   5.743   6.826  0.0568  1.2606  0.0719
 1310TIP3    H225566   4.415   5.679   6.864 -1.6321 -1.8311  1.0399
 1311TIP3   OH225567   0.040   4.684   8.627 -0.1123 -0.2400 -0.4459
 1311TIP3    H125568  -0.023   4.619   8.659 -0.6543 -0.2575 -1.5096
 1311TIP3    H225569  -0.002   4.723   8.551  0.9240  0.1648 -0.8269
 1312TIP3   OH225570   3.984   3.810   0.831  0.0109 -0.1907 -0.3766
 1312TIP3    H125571   4.029   3.885   0.793 -0.4047  0.9796  1.3111
 1312TIP3    H225572   3.896   3.843   0.852 -0.7194 -1.6179 -1.0668
 1313TIP3   OH225573   3.762   5.837   8.052 -0.0527 -0.2230  0.0164
 1313TIP3    H125574   3.754   5.784   8.131 -0.2014 -1.7424 -0.9743
 1313TIP3    H225575   3.819   5.909   8.077  0.6228 -1.1616  1.2711
 1314TIP3   OH225576   1.808   3.307   8.212  0.2251  0.4127  0.4711
 1314TIP3    H125577   1.899   3.331   8.195  0.2888 -0.7907 -1.0972
 1314TIP3    H225578   1.757   3.382   8.181  0.5653 -0.1105 -1.4460
 1315TIP3   OH225579   4.628   2.831   7.756 -0.1249 -0.0025  0.3443
 1315TIP3    H125580   4.595   2.753   7.800 -1.6948  0.3630 -0.0903
 1315TIP3    H225581   4.659   2.887   7.827 -0.4026 -0.4026  0.7887
 1316TIP3   OH225582   5.547   0.946   1.100  0.4516 -0.7067 -0.0205
 1316TIP3    H125583   5.514   0.874   1.154 -1.0909 -0.5889 -0.7502
 1316TIP3    H225584   5.624   0.909   1.056  0.7681 -1.3061  1.0151
 1317TIP3   OH225585   3.168   2.584   8.051 -0.1075  0.3401  0.3665
 1317TIP3    H125586   3.092   2.557   8.102  1.2413 -1.8586  1.3485
 1317TIP3    H225587   3.228   2.623   8.116  0.6016 -0.2064  0.0541
 1318TIP3   OH225588   3.231   6.521   1.737 -0.6462  0.3055  0.1095
 1318TIP3    H125589   3.239   6.614   1.755  0.0085 -0.0620  1.8560
 1318TIP3    H225590   3.261   6.511   1.646  2.6510  1.3596  0.9566
 1319TIP3   OH225591   3.657   2.094   1.094 -0.5031  1.0192  0.2016
 1319TIP3    H125592   3.666   2.114   1.001 -0.9078 -1.5521 -0.4776
 1319TIP3    H225593   3.601   2.163   1.129 -0.0768  2.2137 -1.3721
 1320TIP3   OH225594   5.632   3.642   0.390  0.1638  0.1298 -0.4154
 1320TIP3    H125595   5.552   3.692   0.377  0.5044  0.9053  0.3823
 1320TIP3    H225596   5.684   3.695   0.450  1.5578 -0.0364 -1.4286
 1321TIP3   OH225597   5.426   0.729   0.627 -0.0024  0.4853  0.2808
 1321TIP3    H125598   5.494   0.796   0.631 -0.8243  1.3666  0.0613
 1321TIP3    H225599   5.344   0.779   0.620 -0.6368 -0.5462  0.1172
 1322TIP3   OH225600   1.213   5.712   8.646 -0.0400 -0.3947 -0.1267
 1322TIP3    H125601   1.193   5.642   8.708 -1.0975 -0.3051 -0.3319
 1322TIP3    H225602   1.127   5.741   8.615  0.4524 -1.0284 -2.2933
 1323TIP3   OH225603   3.891   4.271   1.103 -0.6122 -0.0442  0.2501
 1323TIP3    H125604   3.833   4.290   1.030 -1.0867 -1.8950  0.0909
 1323TIP3    H225605   3.970   4.235   1.062 -0.2687  0.3270  0.5773
 1324TIP3   OH225606   1.308   0.256   2.163  0.2415 -0.2068 -0.0951
 1324TIP3    H125607   1.365   0.322   2.203  1.9454 -1.8754  0.3636
 1324TIP3    H225608   1.249   0.307   2.107  1.8371  1.6596 -0.1899
 1325TIP3   OH225609   3.323   3.084   2.087  0.0637 -0.0514 -0.2479
 1325TIP3    H125610   3.326   3.154   2.152  0.4174  0.8748 -1.2402
 1325TIP3    H225611   3.380   3.016   2.123  2.9728  1.7730 -1.0706
 1326TIP3   OH225612   6.424   2.882   6.777  0.1720 -0.4313  0.1815
 1326TIP3    H125613   6.366   2.957   6.761 -1.5440 -1.0536  2.8188
 1326TIP3    H225614   6.498   2.919   6.825 -1.0410 -0.4106  2.1726
 1327TIP3   OH225615   6.749   1.905   1.166  0.3116 -0.6096 -0.1298
 1327TIP3    H125616   6.658   1.928   1.186 -0.4516 -0.9646 -2.7955
 1327TIP3    H225617   6.772   1.963   1.093  2.6002  0.1309  1.0902
 1328TIP3   OH225618   3.174   4.213   0.007  0.0796 -0.3387  0.4501
 1328TIP3    H125619   3.090   4.180   0.039  0.4991 -1.4821  0.4173
 1328TIP3    H225620   3.161   4.224  -0.088 -0.7090  1.6512  0.7517
 1329TIP3   OH225621   6.394   6.373   0.497 -0.1233 -0.0033  0.4647
 1329TIP3    H125622   6.321   6.403   0.444  0.4277 -0.0341 -0.3226
 1329TIP3    H225623   6.413   6.285   0.466 -1.7414 -1.2810  2.7710
 1330TIP3   OH225624   6.230   2.187   0.368 -0.4600  0.4168  0.6450
 1330TIP3    H125625   6.211   2.243   0.293  0.1257 -1.6934 -1.1494
 1330TIP3    H225626   6.326   2.181   0.369 -0.5470 -1.3505  0.1691
 1331TIP3   OH225627   4.221   0.785   7.097 -0.5479  0.1672  0.1240
 1331TIP3    H125628   4.130   0.759   7.083 -0.0332 -0.5551 -2.5150
 1331TIP3    H225629   4.218   0.881   7.101 -1.5465  0.1019  1.4839
 1332TIP3   OH225630   6.380   6.495   8.470  0.0343  0.0265 -0.6410
 1332TIP3    H125631   6.407   6.571   8.417  0.5581 -1.7706 -3.1416
 1332TIP3    H225632   6.429   6.422   8.433 -0.9727 -1.6904  1.2308
 1333TIP3   OH225633   1.326   4.050   7.769  0.3444  0.0521  0.3085
 1333TIP3    H125634   1.381   4.100   7.829  0.3492  0.3193  0.0831
 1333TIP3    H225635   1.359   4.072   7.682 -0.0169  0.0878  0.1792
 1334TIP3   OH225636   6.431   6.119   7.073 -0.2017  0.4402  0.1501
 1334TIP3    H125637   6.459   6.195   7.124  0.5126 -0.4975  1.2071
 1334TIP3    H225638   6.500   6.054   7.086 -1.0372 -0.5797 -0.3171
 1335TIP3   OH225639   2.274   3.606   8.064 -0.7399  0.1542 -0.2591
 1335TIP3    H125640   2.292   3.530   8.008  1.2168  1.3641 -1.3776
 1335TIP3    H225641   2.206   3.655   8.017 -1.9329 -0.7909  0.4152
 1336TIP3   OH225642   1.998   2.962   0.324  0.2781  0.1457 -0.1860
 1336TIP3    H125643   1.966   2.924   0.406 -0.2848 -2.0440 -1.3542
 1336TIP3    H225644   1.929   3.023   0.298 -0.3691 -0.4465  0.1051
 1337TIP3   OH225645   0.807   6.350   7.582 -0.3761 -0.3736  0.2554
 1337TIP3    H125646   0.715   6.350   7.554 -0.3446 -0.7305  0.1590
 1337TIP3    H225647   0.809   6.291   7.658 -0.0853 -0.9440 -0.1929
 1338TIP3   OH225648   4.218   2.394   6.822 -0.2018 -1.1199 -0.0665
 1338TIP3    H125649   4.256   2.371   6.907 -1.2524 -1.4651  0.3216
 1338TIP3    H225650   4.168   2.317   6.796  0.1598 -1.0426 -1.0482
 1339TIP3   OH225651   1.893   1.531   7.255  0.2496  0.7014  0.3464
 1339TIP3    H125652   1.951   1.557   7.326  0.5427  0.7654  0.0814
 1339TIP3    H225653   1.829   1.603   7.249 -0.5993  0.0861  1.4367
 1340TIP3   OH225654   5.170   1.391   1.658 -0.5766 -0.3118 -0.1857
 1340TIP3    H125655   5.164   1.437   1.574  0.7486 -1.0085 -0.6881
 1340TIP3    H225656   5.091   1.418   1.706 -0.4343  1.5566 -0.9041
 1341TIP3   OH225657   5.299   0.440   8.139  0.2723 -0.1966 -0.1112
 1341TIP3    H125658   5.392   0.420   8.127  0.5902  1.2095 -0.2153
 1341TIP3    H225659   5.254   0.392   8.070  0.7632 -1.9502  0.7448
 1342TIP3   OH225660   3.278   4.009   8.699  0.2899  0.1985 -0.5113
 1342TIP3    H125661   3.307   3.958   8.774 -0.0713 -1.7603 -1.6206
 1342TIP3    H225662   3.249   3.943   8.635 -2.5098  1.8529 -1.1394
 1343TIP3   OH225663   1.264   2.927   7.863 -0.5614  0.2760 -0.2589
 1343TIP3    H125664   1.313   2.876   7.799 -1.5215 -1.3099  0.1978
 1343TIP3    H225665   1.172   2.911   7.841 -0.8985  0.3270  1.0235
 1344TIP3   OH225666   3.151   6.058   0.315  0.1378  0.6153 -0.0567
 1344TIP3    H125667   3.101   6.087   0.238 -3.0795 -0.0625  1.5918
 1344TIP3    H225668   3.153   6.135   0.371  0.4408  0.4566  0.1488
 1345TIP3   OH225669   0.429   4.921   0.730 -0.0780  0.6353 -0.7786
 1345TIP3    H125670   0.386   4.892   0.649 -0.9938 -3.0443  0.8316
 1345TIP3    H225671   0.504   4.863   0.739  0.9831  2.1003  0.2208
 1346TIP3   OH225672   0.805   4.446   8.648  0.2387  0.0945  0.3658
 1346TIP3    H125673   0.817   4.475   8.557  0.4767  0.1607  0.4167
 1346TIP3    H225674   0.811   4.351   8.644  1.5979  0.1481  0.4918
 1347TIP3   OH225675   2.494   5.712   0.966 -0.4159 -0.2666  0.1456
 1347TIP3    H125676   2.517   5.784   0.908 -0.9654 -0.6895 -0.6079
 1347TIP3    H225677   2.464   5.755   1.047 -1.0552  0.3599 -0.4146
 1348TIP3   OH225678   5.129   2.273   1.768 -0.6260  0.2725  0.5368
 1348TIP3    H125679   5.190   2.308   1.833 -1.9297  1.4471  1.1729
 1348TIP3    H225680   5.179   2.271   1.687  0.1922  1.4380  0.9865
 1349TIP3   OH225681   0.988   4.111   6.347  0.5171  0.5175 -0.1590
 1349TIP3    H125682   0.939   4.120   6.428  0.3536  0.0456 -0.2012
 1349TIP3    H225683   0.930   4.146   6.279  0.5431  0.6549 -0.1113
 1350TIP3   OH225684   5.356   5.341   1.971 -0.1902  0.1879  0.2077
 1350TIP3    H125685   5.294   5.334   1.899  1.7540 -0.5104 -1.4902
 1350TIP3    H225686   5.323   5.414   2.024 -2.0739  0.2430 -0.9484
 1351TIP3   OH225687   1.664   6.474   0.817  0.0864  0.1698 -0.3692
 1351TIP3    H125688   1.739   6.480   0.759  0.2241 -0.3061 -0.2445
 1351TIP3    H225689   1.590   6.454   0.759 -0.1088  1.4906 -0.5993
 1352TIP3   OH225690   2.193   5.702   0.056  0.0691 -0.0920 -0.0107
 1352TIP3    H125691   2.247   5.769   0.098 -0.3591  0.0107  0.3731
 1352TIP3    H225692   2.176   5.638   0.124 -0.7657  0.1592  0.0255
 1353TIP3   OH225693   2.130   5.635   8.452  0.0686  0.5152  0.1981
 1353TIP3    H125694   2.162   5.665   8.367 -0.1887  0.7807  0.1953
 1353TIP3    H225695   2.158   5.702   8.514 -1.2601  1.2309  0.0639
 1354TIP3   OH225696   3.226   1.024   0.951 -0.8792  0.2472 -0.9465
 1354TIP3    H125697   3.282   1.099   0.932 -1.6232  1.4768  1.3258
 1354TIP3    H225698   3.253   0.995   1.038 -0.6860 -2.1081 -1.7197
 1355TIP3   OH225699   2.361   2.054   0.078  0.0805  0.2515  0.4611
 1355TIP3    H125700   2.456   2.049   0.068  0.1812  1.1909  0.7935
 1355TIP3    H225701   2.341   2.147   0.066 -0.6659  0.2342  1.4105
 1356TIP3   OH225702   3.183   0.837   6.737 -0.6192  0.5573  0.2156
 1356TIP3    H125703   3.183   0.845   6.833  1.9574 -0.7520  0.3890
 1356TIP3    H225704   3.205   0.924   6.706 -0.7743  0.8288  0.8428
 1357TIP3   OH225705   0.253   3.567   7.493 -0.0276  0.1278  0.0343
 1357TIP3    H125706   0.333   3.560   7.545 -0.9733 -0.7026  1.4257
 1357TIP3    H225707   0.192   3.615   7.548 -1.2003 -1.1616 -0.0855
 1358TIP3   OH225708   4.856   4.331   0.902 -0.1962  0.1092 -0.0725
 1358TIP3    H125709   4.773   4.366   0.936  0.8212  3.4062 -0.6617
 1358TIP3    H225710   4.912   4.325   0.979 -0.7462 -1.6793  0.2469
 1359TIP3   OH225711   2.506   4.915   8.721 -0.4088  0.2933  0.5012
 1359TIP3    H125712   2.508   4.900   8.626  1.1014 -1.9994  0.8106
 1359TIP3    H225713   2.424   4.876   8.750 -0.8797  1.0067  0.1842
 1360TIP3   OH225714   4.592   4.970   0.871 -0.3346 -0.5549  0.0605
 1360TIP3    H125715   4.646   4.956   0.949  2.6796  2.2857 -1.2909
 1360TIP3    H225716   4.622   4.905   0.809 -1.7766 -1.9253  0.7386
 1361TIP3   OH225717   5.664   5.157   8.841  0.0656  0.2822 -0.0495
 1361TIP3    H125718   5.693   5.167   8.751 -1.8028  2.3523 -0.5229
 1361TIP3    H225719   5.737   5.115   8.887  1.1542 -0.5573 -2.4295
 1362TIP3   OH225720   0.038   4.912   1.375 -0.5586  0.4421  0.0004
 1362TIP3    H125721   0.044   4.871   1.288 -1.5799  1.2010 -0.4594
 1362TIP3    H225722  -0.003   4.846   1.430 -1.5486  0.5659 -0.5588
 1363TIP3   OH225723   4.359   6.266   2.540  0.0806  0.0796  0.6294
 1363TIP3    H125724   4.340   6.174   2.521  3.4973 -0.3995 -1.1040
 1363TIP3    H225725   4.292   6.290   2.605 -1.5809 -3.2709  0.4199
 1364TIP3   OH225726   3.696   4.249   8.063 -0.6809  0.0712 -0.0476
 1364TIP3    H125727   3.727   4.334   8.030  0.6942 -0.0376  0.9088
 1364TIP3    H225728   3.615   4.233   8.014  0.7315  0.3754 -2.6856
 1365TIP3   OH225729   1.901   3.346   8.498 -0.4627 -0.1057 -0.0356
 1365TIP3    H125730   1.964   3.275   8.511  2.0228  2.0307  0.3752
 1365TIP3    H225731   1.896   3.357   8.403 -0.1808 -0.2787 -0.0718
 1366TIP3   OH225732   5.650   4.567   8.714  0.1517 -0.1513 -0.0631
 1366TIP3    H125733   5.715   4.632   8.738  0.4424 -0.9207  1.3131
 1366TIP3    H225734   5.675   4.488   8.762 -2.6093 -0.0505  1.7781
 1367TIP3   OH225735   6.719   4.499   7.890  0.4794 -0.1877  0.4396
 1367TIP3    H125736   6.725   4.581   7.939  0.1091 -0.1388  0.4016
 1367TIP3    H225737   6.627   4.493   7.864  0.8037  0.1435 -0.8619
 1368TIP3   OH225738   3.254   0.278   8.086  0.1089  0.0257  0.0956
 1368TIP3    H125739   3.209   0.319   8.160 -1.6692  1.5512 -1.7089
 1368TIP3    H225740   3.196   0.207   8.060  0.6561 -0.4171  0.0817
 1369TIP3   OH225741   4.187   4.486   0.201  0.5660 -0.9194 -0.0302
 1369TIP3    H125742   4.227   4.419   0.145 -0.0605 -0.2849 -1.2817
 1369TIP3    H225743   4.099   4.453   0.219  0.6871 -1.0132  0.3857
 1370TIP3   OH225744   1.711   4.904   2.303 -0.4282 -0.1296  0.2222
 1370TIP3    H125745   1.713   4.809   2.291  0.7029  0.0056 -0.8222
 1370TIP3    H225746   1.791   4.924   2.352 -0.1643  0.3837 -0.4068
 1371TIP3   OH225747   2.783   3.795   7.582  0.0535 -0.7003  0.2412
 1371TIP3    H125748   2.843   3.795   7.508 -1.9759  0.4835 -1.5044
 1371TIP3    H225749   2.710   3.740   7.554 -1.2762  0.6783  0.8644
 1372TIP3   OH225750   3.154   1.239   6.863  0.2126  0.4785  0.1632
 1372TIP3    H125751   3.228   1.240   6.923  0.4499  1.4481 -0.1239
 1372TIP3    H225752   3.132   1.332   6.851  0.6864  0.3620 -1.8766
 1373TIP3   OH225753   6.669   0.967   6.851 -0.2245  0.4392 -0.3754
 1373TIP3    H125754   6.650   0.933   6.763 -4.6759  0.2159  0.4617
 1373TIP3    H225755   6.643   1.059   6.847  1.8378  1.0994  0.1745
 1374TIP3   OH225756   3.841   6.014   8.263  0.1350 -0.9295 -0.3252
 1374TIP3    H125757   3.917   6.020   8.321  0.4037 -0.3366 -0.7365
 1374TIP3    H225758   3.798   6.099   8.271 -0.0889 -1.0116 -0.6446
 1375TIP3   OH225759   5.820   0.473   7.292  0.5422 -0.3932  0.6074
 1375TIP3    H125760   5.779   0.497   7.209  1.9094  1.0408  0.3000
 1375TIP3    H225761   5.825   0.378   7.290  1.2004 -0.3640 -1.2947
 1376TIP3   OH225762   3.512   4.808   0.396  0.0491 -0.2794 -0.4692
 1376TIP3    H125763   3.516   4.760   0.313 -3.2083  1.7384 -2.0601
 1376TIP3    H225764   3.479   4.745   0.460  0.0513 -1.2424 -1.3990
 1377TIP3   OH225765   3.415   4.424   1.567  0.4132  0.1311  0.1085
 1377TIP3    H125766   3.376   4.498   1.615  0.8405  1.2869 -1.2533
 1377TIP3    H225767   3.467   4.465   1.498  0.5093 -1.4572 -0.8133
 1378TIP3   OH225768   0.196   3.060   8.764  0.1446 -0.2424  0.5167
 1378TIP3    H125769   0.132   3.124   8.794  0.9494  1.7036 -1.5631
 1378TIP3    H225770   0.170   3.040   8.674  0.8503 -1.5927  0.5928
 1379TIP3   OH225771   3.610   5.403   1.265 -0.2580 -0.0405 -0.0448
 1379TIP3    H125772   3.697   5.429   1.297 -0.4743  0.6201  0.0378
 1379TIP3    H225773   3.583   5.476   1.209 -0.4027 -0.6293 -0.7554
 1380TIP3   OH225774   0.730   4.118   1.717 -0.0987  0.3749  0.0358
 1380TIP3    H125775   0.803   4.058   1.728  0.5252  1.1201  0.1030
 1380TIP3    H225776   0.761   4.200   1.756 -0.8829  0.7670 -0.1465
 1381TIP3   OH225777   2.356   3.025   2.283 -0.1492  0.1214 -0.5369
 1381TIP3    H125778   2.352   3.119   2.300  0.2109  0.6579 -3.0094
 1381TIP3    H225779   2.425   3.015   2.217 -1.4011 -1.6446 -1.6760
 1382TIP3   OH225780   5.843   4.657   7.699  0.0360  0.4696 -0.5818
 1382TIP3    H125781   5.862   4.736   7.650 -0.9472  0.9860 -0.1710
 1382TIP3    H225782   5.752   4.668   7.727  0.6140  0.3100  1.5509
 1383TIP3   OH225783   4.950   5.900   8.882  0.6911 -0.0820  0.7071
 1383TIP3    H125784   4.961   5.992   8.904 -1.2819  0.8751 -1.7176
 1383TIP3    H225785   4.998   5.889   8.800 -1.2429 -0.4186 -0.4544
 1384TIP3   OH225786   2.042   5.759   7.200  1.0154 -0.4391  0.4051
 1384TIP3    H125787   1.967   5.759   7.260  2.5179  1.6735  2.4713
 1384TIP3    H225788   2.032   5.840   7.149  1.4437 -0.6008  0.0559
 1385TIP3   OH225789   1.599   5.869   0.906  0.0198 -0.0333  0.6570
 1385TIP3    H125790   1.603   5.807   0.979 -1.1101  0.0842  0.8391
 1385TIP3    H225791   1.565   5.950   0.944  0.7464  0.4674  0.2647
 1386TIP3   OH225792   5.108   1.415   8.197 -0.0399 -0.3649  0.4211
 1386TIP3    H125793   5.192   1.383   8.162  0.4447 -0.1037  1.3113
 1386TIP3    H225794   5.098   1.369   8.280 -1.5034 -1.4807 -0.3166
 1387TIP3   OH225795   3.862   0.904   7.349 -0.7294  0.2965  0.1251
 1387TIP3    H125796   3.887   0.943   7.432 -0.1233 -1.2082  0.6915
 1387TIP3    H225797   3.903   0.959   7.283  0.1921  0.5602  0.8940
 1388TIP3   OH225798   3.509   6.190   6.718  0.1585 -0.5996 -0.0752
 1388TIP3    H125799   3.477   6.100   6.711  2.1218 -1.2990 -0.7165
 1388TIP3    H225800   3.550   6.208   6.633  0.2889  0.7176  0.2347
 1389TIP3   OH225801   2.459   0.629   8.105  0.6474  0.1985 -0.3424
 1389TIP3    H125802   2.368   0.606   8.127  0.5789  0.0559 -0.7638
 1389TIP3    H225803   2.504   0.631   8.189  0.6739 -1.5636 -0.2747
 1390TIP3   OH225804   2.127   1.649   8.823 -0.3248 -0.3734 -0.4535
 1390TIP3    H125805   2.192   1.693   8.767 -0.4674 -0.2758 -0.5424
 1390TIP3    H225806   2.166   1.651   8.910 -0.4329  0.1383 -0.4151
 1391TIP3   OH225807   2.334   0.461   6.816 -0.4376  0.5209  0.2777
 1391TIP3    H125808   2.258   0.405   6.834  0.7880 -0.8638  1.3571
 1391TIP3    H225809   2.357   0.498   6.901 -0.3605  1.5657 -0.1815
 1392TIP3   OH225810   2.956   1.678   6.680 -0.2097  0.1760  0.5576
 1392TIP3    H125811   2.967   1.728   6.600 -2.0008  1.8580  1.2895
 1392TIP3    H225812   2.901   1.604   6.655  0.5011 -0.1640 -0.0455
 1393TIP3   OH225813   0.779   3.503   7.566  0.5756  0.0929 -0.2558
 1393TIP3    H125814   0.788   3.467   7.478  1.3812 -2.0643  0.6270
 1393TIP3    H225815   0.799   3.429   7.624 -1.4476  1.0060  1.7647
 1394TIP3   OH225816   5.493   0.690   1.117  0.4129  0.3537  0.7794
 1394TIP3    H125817   5.517   0.695   1.024  2.3879 -2.2027  1.0422
 1394TIP3    H225818   5.472   0.598   1.131 -0.0849  0.7400  2.8201
 1395TIP3   OH225819   1.147   6.364   8.232  0.3884  0.3712 -0.0994
 1395TIP3    H125820   1.215   6.407   8.284  0.1627  1.3096 -0.5640
 1395TIP3    H225821   1.192   6.332   8.154  1.0812 -2.5211  1.3439
 1396TIP3   OH225822   1.969   4.629   6.533 -0.9354  0.5658  0.4867
 1396TIP3    H125823   1.993   4.537   6.519 -1.7421  0.5046 -0.6252
 1396TIP3    H225824   2.051   4.677   6.524 -0.9565  0.2621 -2.1379
 1397TIP3   OH225825   6.436   6.164   2.540  0.0740  0.0927  0.0468
 1397TIP3    H125826   6.452   6.246   2.587  0.4524  0.4040 -0.6171
 1397TIP3    H225827   6.386   6.189   2.463  0.2841 -0.2875 -0.2151
 1398TIP3   OH225828   3.731   1.438   1.232  0.0181 -0.1443  0.1095
 1398TIP3    H125829   3.811   1.386   1.230 -0.3608 -0.8307  1.3526
 1398TIP3    H225830   3.744   1.499   1.305 -2.2021 -3.1626  3.3836
 1399TIP3   OH225831   4.532   5.873   0.507 -0.4230 -0.4748 -0.0638
 1399TIP3    H125832   4.547   5.807   0.439  0.5747 -0.6655  0.3176
 1399TIP3    H225833   4.438   5.871   0.523 -0.4236 -1.7277 -0.1388
 1400TIP3   OH225834   0.605   4.261   7.361 -0.0803  0.3684  0.1248
 1400TIP3    H125835   0.585   4.338   7.308 -4.0472  0.7902  1.8052
 1400TIP3    H225836   0.661   4.294   7.431  2.1374  0.5926 -1.6759
 1401TIP3   OH225837   3.526   6.222   0.260 -0.0954 -0.9309  0.0492
 1401TIP3    H125838   3.542   6.128   0.268 -0.9022 -0.9686  1.9847
 1401TIP3    H225839   3.437   6.229   0.226  0.4858 -0.8138 -1.5380
 1402TIP3   OH225840   4.566   5.522   8.533 -0.5062  0.3931 -0.3603
 1402TIP3    H125841   4.483   5.508   8.578 -0.3841  0.5170 -0.0935
 1402TIP3    H225842   4.627   5.461   8.574 -0.2680  0.8614 -0.0001
 1403TIP3   OH225843   1.301   1.446   0.572 -0.6699 -0.0530 -0.0685
 1403TIP3    H125844   1.391   1.451   0.540 -0.3409  1.0682  0.9752
 1403TIP3    H225845   1.258   1.523   0.535 -1.1102 -0.3804 -0.2511
 1404TIP3   OH225846   5.863   0.689   1.712 -0.0289  0.1353 -0.2319
 1404TIP3    H125847   5.794   0.627   1.687 -0.3887 -0.0741  1.1709
 1404TIP3    H225848   5.847   0.705   1.805  0.8493  1.3437 -0.2719
 1405TIP3   OH225849   2.550   4.763   0.411  0.2202  0.2978  0.3235
 1405TIP3    H125850   2.484   4.751   0.343  1.5029 -0.0999 -0.8841
 1405TIP3    H225851   2.500   4.766   0.493 -1.6288  3.4464 -0.7689
 1406TIP3   OH225852   0.955   4.898   1.348 -0.3706  0.4091  0.6732
 1406TIP3    H125853   1.005   4.889   1.267 -0.2609 -1.4212  0.9042
 1406TIP3    H225854   0.867   4.867   1.325 -0.4135  0.1483  1.1653
 1407TIP3   OH225855   6.796   3.806   0.483  0.5496 -0.2757 -0.8068
 1407TIP3    H125856   6.827   3.896   0.494  0.9840 -0.5761  0.5816
 1407TIP3    H225857   6.712   3.815   0.438 -0.4945  0.9743  1.2571
 1408TIP3   OH225858   1.370   4.272   0.061 -0.3882  0.1092 -0.2296
 1408TIP3    H125859   1.391   4.197   0.005 -1.7853  0.8304 -1.7761
 1408TIP3    H225860   1.288   4.247   0.104 -0.5723  0.5259 -0.3385
 1409TIP3   OH225861   1.016   6.789   7.661 -0.5313 -0.0222 -0.0615
 1409TIP3    H125862   0.981   6.877   7.652  0.0016  0.1091 -0.9272
 1409TIP3    H225863   0.951   6.743   7.714 -0.1840  1.2428  1.5675
 1410TIP3   OH225864   4.230   0.092   1.934 -0.1060 -0.3140  0.6013
 1410TIP3    H125865   4.188   0.021   1.884  1.1272 -0.6606  0.0335
 1410TIP3    H225866   4.157   0.148   1.962 -1.1084 -1.8123  1.0933
 1411TIP3   OH225867   2.384   3.354   6.862 -0.0905  0.4852  0.2752
 1411TIP3    H125868   2.413   3.263   6.860 -1.0044  0.1740 -1.5397
 1411TIP3    H225869   2.307   3.355   6.804 -0.2261  2.3631  0.4416
 1412TIP3   OH225870   1.727   0.801   6.466  0.2287  0.3085 -0.0257
 1412TIP3    H125871   1.782   0.858   6.412  0.2463 -0.0962 -0.4424
 1412TIP3    H225872   1.712   0.851   6.546  0.0700  0.9930 -0.4696
 1413TIP3   OH225873   2.714   3.522   8.786 -0.6673 -0.4599  0.7728
 1413TIP3    H125874   2.640   3.465   8.809 -1.7881 -0.3096 -2.0570
 1413TIP3    H225875   2.790   3.464   8.789 -1.3121 -1.3222  0.9624
 1414TIP3   OH225876   4.322   3.663   0.497  0.4133  0.3460  0.2247
 1414TIP3    H125877   4.395   3.654   0.435 -1.0616  0.2990 -1.6092
 1414TIP3    H225878   4.258   3.598   0.467 -0.9550  1.3514  0.8996
 1415TIP3   OH225879   2.817   6.011   0.014 -0.8077 -0.4641 -0.1460
 1415TIP3    H125880   2.742   5.957  -0.010 -1.5656 -0.1643  1.4524
 1415TIP3    H225881   2.799   6.039   0.103  0.6737  0.5518 -0.1349
 1416TIP3   OH225882   0.217   5.590   8.071 -0.2793 -0.0664  0.0332
 1416TIP3    H125883   0.270   5.515   8.042  1.2672  1.1617 -0.4567
 1416TIP3    H225884   0.196   5.637   7.991  1.2353  1.5726  0.5421
 1417TIP3   OH225885   1.766   2.863   8.600 -0.4125 -0.3899 -0.2072
 1417TIP3    H125886   1.750   2.928   8.532 -0.7897 -1.3498 -1.0505
 1417TIP3    H225887   1.679   2.830   8.623 -0.4432  0.8958  1.7601
 1418TIP3   OH225888   2.196   4.562   0.246 -0.8316  0.5520  0.8599
 1418TIP3    H125889   2.229   4.524   0.328 -0.7735 -0.5603  0.3368
 1418TIP3    H225890   2.175   4.652   0.269  2.6079  1.4056  1.2009
 1419TIP3   OH225891   0.664   0.913   1.160  0.0644 -0.6023 -0.3593
 1419TIP3    H125892   0.652   0.852   1.233 -1.3106  0.9450  0.7896
 1419TIP3    H225893   0.595   0.890   1.098 -1.2753  0.4746  0.6425
 1420TIP3   OH225894   0.186   3.559   7.101 -0.1463  0.5270 -0.6205
 1420TIP3    H125895   0.206   3.625   7.168 -0.6869  0.0010  0.0597
 1420TIP3    H225896   0.232   3.480   7.130 -2.6338 -0.5393  0.6630
 1421TIP3   OH225897   1.344   4.671   6.050  0.6385 -0.3638  0.4773
 1421TIP3    H125898   1.267   4.675   5.994  0.9179  0.0435  0.1171
 1421TIP3    H225899   1.349   4.580   6.078  2.1440 -1.3034 -2.4952
 1422TIP3   OH225900   4.518   5.268   0.583 -0.1276 -0.3130 -0.0895
 1422TIP3    H125901   4.564   5.208   0.640  0.7877  0.7779  0.3699
 1422TIP3    H225902   4.426   5.259   0.606  0.1097 -0.7935  0.6773
 1423TIP3   OH225903   3.664   0.971   8.428 -0.1771 -0.1914 -0.6381
 1423TIP3    H125904   3.746   0.922   8.433 -0.6726 -0.9845  0.2123
 1423TIP3    H225905   3.618   0.948   8.509 -0.0913  2.3647  0.1985
 1424TIP3   OH225906   6.025   3.563   2.440  0.3347  0.2365 -0.0315
 1424TIP3    H125907   6.001   3.470   2.436 -1.8080  0.2685  4.9702
 1424TIP3    H225908   6.116   3.563   2.471  0.0724 -0.2440  0.7603
 1425TIP3   OH225909   3.023   4.961   8.073 -0.1089  0.1828  0.1850
 1425TIP3    H125910   2.946   4.915   8.041 -0.3409  0.3815  0.4441
 1425TIP3    H225911   3.063   5.000   7.996  0.0386 -0.3753 -0.0226
 1426TIP3   OH225912   0.870   4.995   0.155 -0.2474  0.0371  0.1725
 1426TIP3    H125913   0.948   4.986   0.101 -1.9187  3.5018 -3.2897
 1426TIP3    H225914   0.819   4.916   0.136  0.2633  0.0806 -1.5195
 1427TIP3   OH225915   4.654   1.176   0.701  0.5277  0.3147  0.4868
 1427TIP3    H125916   4.658   1.101   0.759  1.5619 -0.3557 -0.3933
 1427TIP3    H225917   4.585   1.231   0.736  1.0535 -0.1069  2.2737
 1428TIP3   OH225918   4.797   4.570   1.247 -0.1028  0.1348 -0.3913
 1428TIP3    H125919   4.824   4.484   1.278 -0.2996  0.1286 -0.2367
 1428TIP3    H225920   4.877   4.609   1.211  0.1041  0.0925  0.0146
 1429TIP3   OH225921   5.260   0.891   1.423  0.2321  0.3245 -0.4072
 1429TIP3    H125922   5.221   0.892   1.336  0.0160  0.9101 -0.3047
 1429TIP3    H225923   5.275   0.983   1.445 -0.9359  0.2784  0.6983
 1430TIP3   OH225924   2.834   5.968   6.273 -0.2417 -0.1025 -0.4148
 1430TIP3    H125925   2.772   5.900   6.248  2.5368 -2.9105 -0.2725
 1430TIP3    H225926   2.871   5.937   6.356 -0.8001  3.0612  1.1896
 1431TIP3   OH225927   5.221   3.620   0.424 -0.9698  0.4484 -0.2048
 1431TIP3    H125928   5.128   3.638   0.412 -1.6869 -2.3403  0.3524
 1431TIP3    H225929   5.248   3.680   0.494 -2.2461  1.4965 -0.5656
 1432TIP3   OH225930   6.043   6.574   8.642 -0.1914 -0.3384 -0.8220
 1432TIP3    H125931   6.038   6.557   8.737  0.7372 -2.1130 -1.0421
 1432TIP3    H225932   6.061   6.668   8.635 -0.9627 -0.0402  0.7266
 1433TIP3   OH225933   1.710   5.058   2.079  0.5004  0.5856  0.2598
 1433TIP3    H125934   1.702   4.996   2.152 -1.4612 -0.6229 -0.9001
 1433TIP3    H225935   1.628   5.107   2.081  1.0051  1.4663 -0.3322
 1434TIP3   OH225936   1.724   0.092   7.952 -0.1361  0.1828 -0.0007
 1434TIP3    H125937   1.675   0.172   7.935  0.8308  0.6097 -0.8771
 1434TIP3    H225938   1.815   0.120   7.955  0.4553 -1.1536 -2.5370
 1435TIP3   OH225939   5.329   2.816   6.636 -0.2851 -0.3881 -0.3352
 1435TIP3    H125940   5.344   2.884   6.701 -0.5053  0.5213 -1.2235
 1435TIP3    H225941   5.259   2.762   6.674 -2.1860  1.5841 -0.8536
 1436TIP3   OH225942   5.704   2.323   8.319  0.0434 -0.0061 -0.1457
 1436TIP3    H125943   5.783   2.319   8.265  0.0473 -0.0075 -0.1401
 1436TIP3    H225944   5.640   2.269   8.272  0.3405 -0.7891  0.3343
 1437TIP3   OH225945   3.897   3.172   8.027  0.4330  0.3623  0.0643
 1437TIP3    H125946   3.954   3.153   8.102  0.1647  1.3022  0.5219
 1437TIP3    H225947   3.900   3.267   8.019 -0.1348  0.3223 -0.6591
 1438TIP3   OH225948   3.768   2.911   8.780 -0.2243 -0.0247 -0.0220
 1438TIP3    H125949   3.790   3.004   8.772  2.0596 -0.6008 -1.4424
 1438TIP3    H225950   3.708   2.894   8.707 -0.4506  0.2551  0.0944
 1439TIP3   OH225951   0.993   5.787   0.397 -0.1594  0.1489 -0.0312
 1439TIP3    H125952   0.916   5.794   0.454 -0.1351  0.1964 -0.0035
 1439TIP3    H225953   0.977   5.709   0.344 -0.2941  0.2425 -0.1283
 1440TIP3   OH225954   4.268   4.607   1.064  0.5636  0.5438  0.5556
 1440TIP3    H125955   4.348   4.650   1.032  1.8257 -2.5144 -0.8172
 1440TIP3    H225956   4.233   4.561   0.988  0.6516 -2.6621  2.2480
 1441TIP3   OH225957   0.344   0.318   1.461 -1.1593  0.3717 -0.1107
 1441TIP3    H125958   0.275   0.254   1.474 -1.3192  0.6710  0.5342
 1441TIP3    H225959   0.384   0.329   1.547  0.4804 -0.6736 -0.6716
 1442TIP3   OH225960   1.042   0.166   0.413 -0.2542 -0.5813 -0.6664
 1442TIP3    H125961   1.017   0.210   0.494  1.5212 -0.1472 -0.3022
 1442TIP3    H225962   0.976   0.099   0.400 -1.1241 -0.0049  0.6101
 1443TIP3   OH225963   0.750   3.843   6.492  0.2574  0.1362 -0.1827
 1443TIP3    H125964   0.786   3.931   6.484 -0.0826  0.2956  0.0243
 1443TIP3    H225965   0.765   3.819   6.584 -0.6108  0.4049  0.0394
 1444TIP3   OH225966   1.006   0.245   6.365 -0.2935 -0.3488 -0.1356
 1444TIP3    H125967   0.927   0.191   6.355 -0.2116 -0.4512 -0.2412
 1444TIP3    H225968   0.974   0.333   6.383 -0.4818  0.0649 -2.2322
 1445TIP3   OH225969   6.502   1.471   2.318  0.5510  0.3398 -0.2456
 1445TIP3    H125970   6.578   1.490   2.372  0.0875 -0.7078  0.8229
 1445TIP3    H225971   6.427   1.494   2.373  0.0207 -2.3461  0.3077
 1446TIP3   OH225972   3.427   5.584   1.574 -0.1035  0.0280  0.2013
 1446TIP3    H125973   3.518   5.562   1.551  0.5784  1.1896  1.6354
 1446TIP3    H225974   3.430   5.676   1.600 -1.6867  0.0614  0.3661
 1447TIP3   OH225975   5.079   4.611   1.252  0.2961  0.7139 -0.0392
 1447TIP3    H125976   5.144   4.562   1.203 -0.4573  0.9948 -1.3655
 1447TIP3    H225977   5.124   4.690   1.280  0.5620  0.8541 -0.8492
 1448TIP3   OH225978   6.602   3.687   7.758 -0.1087 -0.4378 -0.4642
 1448TIP3    H125979   6.538   3.618   7.744 -0.8732  0.6276 -2.6860
 1448TIP3    H225980   6.612   3.729   7.673  1.9251  0.8530  0.3160
 1449TIP3   OH225981   0.064   6.716   8.226  0.3686  0.0742  0.3480
 1449TIP3    H125982   0.034   6.655   8.294 -0.1141 -0.4184 -0.2996
 1449TIP3    H225983  -0.012   6.769   8.205  0.3226 -0.2430 -0.3049
 1450TIP3   OH225984   2.904   4.574   7.750  0.7162  0.6334 -0.0195
 1450TIP3    H125985   2.991   4.544   7.777  1.1922  0.0137 -2.0342
 1450TIP3    H225986   2.913   4.668   7.738  0.8883  0.6896  0.5287
 1451TIP3   OH225987   3.233   3.832   2.187  0.1283 -0.4737  0.0914
 1451TIP3    H125988   3.234   3.783   2.105  0.0506  0.6523 -0.5994
 1451TIP3    H225989   3.206   3.768   2.253  0.2645 -1.4090 -0.7455
 1452TIP3   OH225990   2.630   1.265   8.127 -0.1770 -0.0410 -0.0664
 1452TIP3    H125991   2.584   1.240   8.207  1.5560  1.0630  1.3593
 1452TIP3    H225992   2.578   1.337   8.091  0.1798  0.9931  1.3553
 1453TIP3   OH225993   4.802   4.204   1.759 -0.4538  0.4187  0.1154
 1453TIP3    H125994   4.741   4.131   1.745  1.4395 -1.4067  0.8136
 1453TIP3    H225995   4.808   4.213   1.854  1.6019 -0.6657  0.1585
 1454TIP3   OH225996   4.055   6.320   1.999  0.0109 -0.3098 -0.3338
 1454TIP3    H125997   3.960   6.318   2.005  0.0143  0.7849  0.3737
 1454TIP3    H225998   4.083   6.231   2.019 -0.8257 -0.4571  0.2121
 1455TIP3   OH225999   4.267   1.865   7.180 -0.2438  0.6824  0.1743
 1455TIP3    H126000   4.273   1.825   7.093  0.0165  2.2295 -0.5589
 1455TIP3    H226001   4.300   1.954   7.167 -0.5201  1.0478  1.8007
 1456TIP3   OH226002   1.818   3.160   0.252  0.2850  0.2161 -0.4099
 1456TIP3    H126003   1.766   3.151   0.172 -0.7916  0.5359  0.2221
 1456TIP3    H226004   1.841   3.253   0.255 -0.5152  0.4117  0.1273
 1457TIP3   OH226005   4.196   6.067   1.627  0.0240 -0.2482  0.3115
 1457TIP3    H126006   4.197   5.982   1.673  0.2755  0.2270  1.2163
 1457TIP3    H226007   4.111   6.069   1.583  0.9480 -2.0019 -1.7696
 1458TIP3   OH226008   5.256   1.945   7.377  0.0166 -0.2155  0.3338
 1458TIP3    H126009   5.311   2.013   7.416 -1.0350 -0.5004  2.4216
 1458TIP3    H226010   5.308   1.864   7.387 -0.0619 -0.2157  0.7646
 1459TIP3   OH226011   2.268   0.001   8.294  0.0686  0.1810  0.5246
 1459TIP3    H126012   2.216   0.051   8.231  1.4403  0.2501 -0.6057
 1459TIP3    H226013   2.279   0.060   8.369 -0.0519  0.8044  0.0600
 1460TIP3   OH226014   4.661   0.173   1.631 -0.4367  0.2203 -0.0852
 1460TIP3    H126015   4.753   0.200   1.622 -0.4536  0.1960 -0.3404
 1460TIP3    H226016   4.627   0.174   1.541 -0.3395 -0.9878 -0.1545
 1461TIP3   OH226017   5.965   3.968   7.743 -0.1128  0.2982  0.6425
 1461TIP3    H126018   5.908   4.042   7.720 -1.0003 -0.3132  0.8525
 1461TIP3    H226019   6.054   4.001   7.727 -0.3707  1.9981  2.3398
 1462TIP3   OH226020   5.244   2.585   1.870 -0.3531 -0.0658  0.2540
 1462TIP3    H126021   5.276   2.650   1.933  1.5504 -0.1368 -0.5720
 1462TIP3    H226022   5.272   2.501   1.906  1.3159 -0.0682 -0.9189
 1463TIP3   OH226023   4.159   3.988   0.684  0.9893  0.0193  0.0504
 1463TIP3    H126024   4.224   3.937   0.732  1.6761  1.5491  0.8228
 1463TIP3    H226025   4.178   3.971   0.592  3.6767  1.7716  0.1786
 1464TIP3   OH226026   2.366   1.234   1.069  0.1196 -0.1348  0.1206
 1464TIP3    H126027   2.409   1.154   1.038 -0.7141 -0.7810  0.6129
 1464TIP3    H226028   2.273   1.212   1.072 -0.2869  1.2448 -0.9243
 1465TIP3   OH226029   3.413   1.000   6.924 -0.8123 -0.2842 -0.1707
 1465TIP3    H126030   3.447   1.089   6.936 -0.9076 -0.2962  0.2023
 1465TIP3    H226031   3.324   1.004   6.959 -0.5966 -0.6861  0.4202
 1466TIP3   OH226032   1.424   1.749   7.901  0.0168  0.5424 -0.1069
 1466TIP3    H126033   1.352   1.704   7.859  0.3957  0.0254 -0.2123
 1466TIP3    H226034   1.388   1.834   7.925 -0.7998  0.0783  0.3701
 1467TIP3   OH226035   1.369   0.359   8.731  0.5054  0.1730 -0.6865
 1467TIP3    H126036   1.393   0.388   8.643  0.0385  0.0699 -0.8465
 1467TIP3    H226037   1.400   0.268   8.734 -1.3725 -0.5361 -1.5017
 1468TIP3   OH226038   2.188   2.756   1.316  0.5257 -0.0832  0.3791
 1468TIP3    H126039   2.229   2.676   1.349 -1.5466 -1.0374  0.7885
 1468TIP3    H226040   2.113   2.725   1.266  0.1601  1.6030 -0.1686
 1469TIP3   OH226041   4.152   0.415   8.270 -0.1523  0.2680 -0.4692
 1469TIP3    H126042   4.112   0.395   8.186  1.1171  0.3879 -1.1336
 1469TIP3    H226043   4.194   0.333   8.297  2.5227  1.0754 -1.7639
 1470TIP3   OH226044   4.658   3.538   1.256  0.1838  0.3124 -0.0439
 1470TIP3    H126045   4.669   3.579   1.170  0.9491 -1.8613 -1.0509
 1470TIP3    H226046   4.712   3.591   1.315  2.0570  0.1098 -1.5043
 1471TIP3   OH226047   5.434   3.977   7.504  0.5267  0.0178 -0.1212
 1471TIP3    H126048   5.524   4.009   7.516 -0.0953  2.3570 -1.1291
 1471TIP3    H226049   5.390   4.001   7.586  0.5005  0.1086 -0.1612
 1472TIP3   OH226050   2.588   3.385   8.499 -0.6146 -0.2095  0.0141
 1472TIP3    H126051   2.544   3.440   8.433  1.9791  1.6084 -0.3753
 1472TIP3    H226052   2.665   3.349   8.453 -0.4665 -1.5049  1.2066
 1473TIP3   OH226053   3.196   6.523   0.897  0.1493  0.5998  0.8246
 1473TIP3    H126054   3.239   6.523   0.811  2.3604  0.1762  1.8621
 1473TIP3    H226055   3.104   6.504   0.877  1.1565 -3.2062 -1.2335
 1474TIP3   OH226056   1.514   5.360   7.979 -0.6477 -0.0798  0.1468
 1474TIP3    H126057   1.457   5.290   7.946 -1.1406 -0.1958  1.1661
 1474TIP3    H226058   1.559   5.320   8.054 -1.6064  0.9290  1.3028
 1475TIP3   OH226059   4.240   6.061   7.272  0.1233  0.2739 -0.0181
 1475TIP3    H126060   4.193   5.980   7.292 -2.1028  1.3039 -0.8430
 1475TIP3    H226061   4.328   6.046   7.309 -1.3185 -1.0032  3.3839
 1476TIP3   OH226062   5.066   3.695   8.783  0.2994  0.1273  0.1693
 1476TIP3    H126063   5.011   3.767   8.814 -1.0903 -1.2094  0.9357
 1476TIP3    H226064   5.013   3.652   8.716  0.2036 -1.4058  1.1804
 1477TIP3   OH226065   3.940   6.716   6.561 -0.7077  0.1030 -0.7552
 1477TIP3    H126066   4.020   6.701   6.511 -0.6552 -1.2533 -0.3105
 1477TIP3    H226067   3.877   6.750   6.498  0.7872  3.2836 -0.7163
 1478TIP3   OH226068   2.174   2.342   1.643 -0.1722  0.1890 -0.2889
 1478TIP3    H126069   2.165   2.248   1.630 -0.4914  0.0467  0.8825
 1478TIP3    H226070   2.234   2.351   1.717  0.3560  0.9320 -0.7842
 1479TIP3   OH226071   5.347   5.248   6.536  0.3062  0.0233 -0.2820
 1479TIP3    H126072   5.309   5.248   6.448  0.8719 -1.3650 -0.5541
 1479TIP3    H226073   5.281   5.206   6.591 -0.6709  2.1747  0.2950
 1480TIP3   OH226074   0.113   5.204   0.987  0.3571  0.2320 -0.0704
 1480TIP3    H126075   0.112   5.276   0.924 -0.0099 -0.8757 -1.3896
 1480TIP3    H226076   0.123   5.125   0.933  0.3946 -0.7372  1.2972
 1481TIP3   OH226077   5.854   6.652   8.247  0.3349 -0.3656  0.1215
 1481TIP3    H126078   5.932   6.602   8.224  0.3737  0.1433 -0.8995
 1481TIP3    H226079   5.835   6.705   8.169  0.2134  1.0992  1.0961
 1482TIP3   OH226080   4.026   1.713   0.151 -0.0823 -0.2091  0.2566
 1482TIP3    H126081   4.053   1.680   0.066 -1.9071  0.5006 -0.6567
 1482TIP3    H226082   4.038   1.638   0.210 -2.0950 -1.9256 -1.3279
 1483TIP3   OH226083   1.362   2.862   1.348 -0.6655  0.2736 -0.2657
 1483TIP3    H126084   1.354   2.856   1.443 -0.9735  0.7587 -0.2578
 1483TIP3    H226085   1.400   2.948   1.332 -0.3411  0.0760 -0.5681
 1484TIP3   OH226086   2.340   2.957   8.757  0.4738 -0.7634  0.0229
 1484TIP3    H126087   2.260   2.967   8.810  0.8084  1.0369  0.2397
 1484TIP3    H226088   2.389   2.888   8.801 -2.1680 -4.0822 -1.7176
 1485TIP3   OH226089   3.057   3.382   7.236  0.1284  0.3058 -0.0018
 1485TIP3    H126090   3.117   3.456   7.225  0.5727 -0.2441 -1.5172
 1485TIP3    H226091   2.980   3.404   7.184  0.4933 -0.5195 -0.9229
 1486TIP3   OH226092   1.748   3.892   1.033 -0.5804  0.1349  0.3068
 1486TIP3    H126093   1.737   3.810   1.081 -0.7123 -0.6057 -0.9411
 1486TIP3    H226094   1.660   3.914   1.002 -0.4146  0.3175 -0.0433
 1487TIP3   OH226095   2.167   4.715   8.514 -0.0281  0.3060 -0.1988
 1487TIP3    H126096   2.134   4.633   8.477 -0.4561 -0.5371  1.9061
 1487TIP3    H226097   2.153   4.780   8.445 -2.2519 -0.8437 -0.9317
 1488TIP3   OH226098   2.418   5.909   5.743  0.1695  0.4702  0.0447
 1488TIP3    H126099   2.383   5.821   5.759  2.1217 -0.1847  0.9295
 1488TIP3    H226100   2.472   5.928   5.819  3.4290  0.5365 -2.1113
 1489TIP3   OH226101   6.209   5.997   1.986 -0.7253  0.0602  0.1243
 1489TIP3    H126102   6.276   6.061   1.962  0.4592 -0.4856  1.8657
 1489TIP3    H226103   6.151   6.044   2.045 -0.1094 -0.3109  1.0467
 1490TIP3   OH226104   2.435   3.052   1.624 -0.4136  0.2168  0.6770
 1490TIP3    H126105   2.491   3.110   1.674  1.0126 -0.6320  0.1153
 1490TIP3    H226106   2.437   2.969   1.673  0.1361 -0.2964 -0.1948
 1491TIP3   OH226107   0.768   5.609   1.850  0.3145  0.0703 -0.0423
 1491TIP3    H126108   0.782   5.696   1.887  0.7732  0.0667 -0.2062
 1491TIP3    H226109   0.689   5.577   1.894 -1.4183  1.5966 -1.8352
 1492TIP3   OH226110   5.330   6.096   1.097  0.4734 -0.6448 -0.7942
 1492TIP3    H126111   5.399   6.049   1.050  2.3387  1.9085 -0.7717
 1492TIP3    H226112   5.375   6.147   1.163 -1.5219  0.5368 -0.2400
 1493TIP3   OH226113   5.966   5.356   0.851 -0.1352  0.3050 -0.0261
 1493TIP3    H126114   5.980   5.413   0.777  1.6114 -0.4744 -0.3380
 1493TIP3    H226115   5.976   5.412   0.928 -2.2286  1.1720 -0.3202
 1494TIP3   OH226116   6.577   5.674   8.557  0.4441 -0.0201  0.2088
 1494TIP3    H126117   6.516   5.714   8.496  1.7722  0.2857 -0.9580
 1494TIP3    H226118   6.547   5.583   8.565  0.8495 -0.3771 -1.7663
 1495TIP3   OH226119   3.062   0.887   8.846  0.0484 -0.0761  0.0154
 1495TIP3    H126120   3.152   0.857   8.833  0.6896  1.9532 -0.6253
 1495TIP3    H226121   3.037   0.925   8.762 -0.5630  1.3918  0.8165
 1496TIP3   OH226122   2.517   2.164   8.316 -0.1219  0.7109  0.1756
 1496TIP3    H126123   2.556   2.246   8.347 -0.2025  0.4606  0.9641
 1496TIP3    H226124   2.432   2.160   8.360  0.8972 -0.9951  2.2005
 1497TIP3   OH226125   3.768   3.034   1.745  0.2048 -0.7332 -0.5519
 1497TIP3    H126126   3.830   2.974   1.786 -1.9614 -1.6128  1.6870
 1497TIP3    H226127   3.701   3.050   1.812 -1.3931  1.0766 -2.4175
 1498TIP3   OH226128   5.807   2.228   0.354 -0.1716 -1.0715 -0.5045
 1498TIP3    H126129   5.866   2.211   0.428 -0.7717  0.1387  0.2728
 1498TIP3    H226130   5.847   2.302   0.308 -1.5609  0.4388  0.6191
 1499TIP3   OH226131   0.059   1.039   6.349 -0.5250  0.6427 -0.4277
 1499TIP3    H126132   0.012   0.982   6.287 -0.5945 -0.7356  0.8388
 1499TIP3    H226133  -0.007   1.061   6.415 -0.0017  0.6678  0.0872
 1500TIP3   OH226134   6.775   5.589   7.021 -0.3282  0.4342 -0.5483
 1500TIP3    H126135   6.845   5.524   7.021 -1.3479 -0.7144  0.3568
 1500TIP3    H226136   6.807   5.659   6.963  0.8140 -0.8448 -1.5301
 1501TIP3   OH226137   5.337   0.876   7.637 -0.7239  0.0259 -0.0851
 1501TIP3    H126138   5.365   0.967   7.631 -0.9478  0.1052  0.0410
 1501TIP3    H226139   5.351   0.853   7.729 -0.5368 -0.1107 -0.1467
 1502TIP3   OH226140   0.943   5.730   8.671  0.2209 -0.0008 -0.5265
 1502TIP3    H126141   0.944   5.801   8.735 -1.8262  0.0681 -0.4969
 1502TIP3    H226142   0.876   5.669   8.703 -1.5746  0.5075 -3.0137
 1503TIP3   OH226143   3.710   0.917   7.821  0.4654  0.3105 -0.2028
 1503TIP3    H126144   3.669   0.841   7.781  0.2925  0.5248 -0.4351
 1503TIP3    H226145   3.750   0.884   7.901 -0.4737  0.1645  0.2244
 1504TIP3   OH226146   0.127   2.994   2.596  0.1881  0.0538  0.0873
 1504TIP3    H126147   0.120   3.029   2.685  3.3039 -0.0481  0.4901
 1504TIP3    H226148   0.205   2.938   2.598  0.1161 -0.2959 -2.6100
 1505TIP3   OH226149   2.909   4.336   1.628 -0.1581  0.0891 -0.1092
 1505TIP3    H126150   2.825   4.305   1.660  0.0400  2.0540  2.6707
 1505TIP3    H226151   2.972   4.273   1.663 -0.1862  0.7526  1.1948
 1506TIP3   OH226152   2.123   6.161   7.686  0.5521  0.0439 -0.7293
 1506TIP3    H126153   2.084   6.112   7.759  2.2400 -0.6728 -0.2555
 1506TIP3    H226154   2.100   6.252   7.703 -1.9181 -0.4250 -1.1586
 1507TIP3   OH226155   3.680   1.416   7.357  0.4277 -0.5367 -0.6586
 1507TIP3    H126156   3.667   1.323   7.375 -0.7489 -0.2660  0.0125
 1507TIP3    H226157   3.713   1.452   7.440  0.2657 -0.2407 -0.7219
 1508TIP3   OH226158   1.280   6.023   7.006  0.2339 -0.0027  0.0419
 1508TIP3    H126159   1.336   6.048   6.933 -0.6361  0.1167 -0.5962
 1508TIP3    H226160   1.231   5.947   6.974 -0.6284  0.4540  0.2731
 1509TIP3   OH226161   2.566   5.315   7.486 -0.1222 -0.0340 -0.2228
 1509TIP3    H126162   2.563   5.277   7.398 -0.5187  0.3324 -0.3718
 1509TIP3    H226163   2.659   5.335   7.500 -0.0202 -0.3426 -0.4494
 1510TIP3   OH226164   5.176   1.186   7.231  0.4272  0.2657  0.4318
 1510TIP3    H126165   5.132   1.182   7.316  3.5767 -1.5258  2.2018
 1510TIP3    H226166   5.255   1.239   7.248  1.5316 -0.7867 -1.1395
 1511TIP3   OH226167   5.248   5.301   7.443 -1.2774  0.0852 -0.0877
 1511TIP3    H126168   5.276   5.228   7.499 -0.4205 -0.0169 -0.6302
 1511TIP3    H226169   5.302   5.293   7.364 -0.8308  1.5803  0.0376
 1512TIP3   OH226170   0.004   4.397   1.490 -0.2354  0.2239  0.3574
 1512TIP3    H126171  -0.007   4.485   1.526  0.6105  0.3008  0.4342
 1512TIP3    H226172   0.028   4.411   1.398 -1.7370  0.0355 -0.0875
 1513TIP3   OH226173   5.728   5.942   1.875 -0.2634  0.4396  0.6021
 1513TIP3    H126174   5.763   5.946   1.964 -1.2576 -0.2754  1.0492
 1513TIP3    H226175   5.791   5.991   1.822  1.1361 -0.3532  1.4427
 1514TIP3   OH226176   4.779   1.289   8.331 -0.0649 -0.1675 -0.1405
 1514TIP3    H126177   4.755   1.377   8.303  0.8106  0.1934  0.2167
 1514TIP3    H226178   4.873   1.294   8.349 -0.0143 -1.1623 -0.0729
 1515TIP3   OH226179   4.181   4.201   8.667  0.6208  0.3008 -0.0652
 1515TIP3    H126180   4.178   4.123   8.722  0.7669  0.9764  0.9323
 1515TIP3    H226181   4.272   4.207   8.637  0.2937 -0.7072 -1.3733
 1516TIP3   OH226182   5.913   3.346   6.358  0.9112 -0.1912 -0.2228
 1516TIP3    H126183   5.909   3.290   6.435  0.0509 -0.1121 -0.1951
 1516TIP3    H226184   5.926   3.285   6.285 -1.8579 -0.7023 -0.4207
 1517TIP3   OH226185   0.213   1.115   2.059 -0.2856  0.2578  0.2042
 1517TIP3    H126186   0.257   1.171   2.123 -0.0232 -0.9355  1.1004
 1517TIP3    H226187   0.119   1.129   2.074 -0.2369  1.2615 -0.3289
 1518TIP3   OH226188   2.864   1.224   0.938  0.5839 -0.1346 -0.2286
 1518TIP3    H126189   2.936   1.171   0.971  2.8361  2.8914  0.1921
 1518TIP3    H226190   2.890   1.248   0.849 -1.0334 -0.7562 -0.9196
 1519TIP3   OH226191   1.039   6.733   8.774  0.3151  0.5604 -0.3101
 1519TIP3    H126192   1.068   6.818   8.807  0.6895  0.5973 -0.7243
 1519TIP3    H226193   0.944   6.742   8.767  0.2106  0.4928  0.9028
 1520TIP3   OH226194   6.539   2.174   6.918  0.6471 -0.2035  0.2991
 1520TIP3    H126195   6.451   2.142   6.898  0.1476  2.0416 -1.5492
 1520TIP3    H226196   6.598   2.113   6.873  0.0922 -1.6393  1.4271
 1521TIP3   OH226197   4.505   2.238   8.418 -0.9371 -0.1106 -0.1429
 1521TIP3    H126198   4.537   2.168   8.361  0.0178  0.6682 -0.5962
 1521TIP3    H226199   4.411   2.223   8.426 -0.7512 -1.4048 -0.2746
 1522TIP3   OH226200   5.987   2.452   0.589 -0.8313 -0.0642  0.2460
 1522TIP3    H126201   6.028   2.440   0.503  0.1939  0.7687  0.5953
 1522TIP3    H226202   6.020   2.536   0.619 -0.8895 -0.5092  1.6100
 1523TIP3   OH226203   1.103   3.427   1.613  0.3252 -0.1403  0.0872
 1523TIP3    H126204   1.150   3.343   1.618 -0.3911 -0.5785 -0.2935
 1523TIP3    H226205   1.172   3.492   1.597  0.7377 -0.8687 -1.3127
 1524TIP3   OH226206   0.269   4.679   7.312 -0.1032 -0.2913  0.0164
 1524TIP3    H126207   0.294   4.696   7.403  0.8982  0.2690 -0.3583
 1524TIP3    H226208   0.311   4.748   7.261 -2.8749  1.0907 -0.6075
 1525TIP3   OH226209   6.343   3.232   8.698 -0.5984  0.1407 -0.3390
 1525TIP3    H126210   6.417   3.185   8.661 -0.9785  0.7456 -1.9427
 1525TIP3    H226211   6.306   3.172   8.762  0.1705 -0.9006 -0.8485
 1526TIP3   OH226212   6.538   4.423   1.110  0.7182  0.2580  0.2090
 1526TIP3    H126213   6.583   4.508   1.106 -0.7563  1.0251 -2.2351
 1526TIP3    H226214   6.554   4.384   1.024 -0.5500 -0.9230  0.4792
 1527TIP3   OH226215   0.208   1.868   7.399 -0.2406  0.4122  0.3615
 1527TIP3    H126216   0.173   1.780   7.413 -0.4522  0.1681 -1.4848
 1527TIP3    H226217   0.290   1.854   7.350  0.2422  1.2011  0.9121
 1528TIP3   OH226218   1.441   1.341   7.850 -0.6879  0.7901 -0.7258
 1528TIP3    H126219   1.515   1.324   7.792  0.7776  1.0418  0.9933
 1528TIP3    H226220   1.392   1.259   7.852  1.5264 -0.5962  0.8077
 1529TIP3   OH226221   5.199   2.167   8.790  0.3735  0.1041 -0.1834
 1529TIP3    H126222   5.142   2.132   8.858  0.2373 -0.3015 -0.5043
 1529TIP3    H226223   5.159   2.251   8.766  0.2244  0.0810 -0.0163
 1530TIP3   OH226224   3.663   2.019   0.516 -0.1216  0.5775 -0.1293
 1530TIP3    H126225   3.713   2.069   0.451  0.0227  0.3838 -0.1703
 1530TIP3    H226226   3.598   1.972   0.465  1.6669 -1.6838 -0.5123
 1531TIP3   OH226227   1.010   0.965   0.812 -0.7099  0.8543 -0.3652
 1531TIP3    H126228   0.988   0.873   0.800  0.7121  0.3673  0.6202
 1531TIP3    H226229   0.939   1.000   0.865 -0.7813  0.0985  0.0454
 1532TIP3   OH226230   3.023   5.282   7.646 -0.0791  0.7279  0.3061
 1532TIP3    H126231   3.043   5.347   7.713  1.5175  0.6827 -0.0677
 1532TIP3    H226232   2.952   5.229   7.682 -0.0178  1.4238  1.4649
 1533TIP3   OH226233   3.275   2.508   0.777 -0.0912  0.2182 -0.2940
 1533TIP3    H126234   3.296   2.593   0.737  0.9599  0.3937  0.6130
 1533TIP3    H226235   3.254   2.452   0.702 -0.6586  1.2158 -0.9227
 1534TIP3   OH226236   5.702   6.056   7.357 -0.1175 -0.4977  0.4937
 1534TIP3    H126237   5.785   6.101   7.347 -0.8914  0.7519 -0.6777
 1534TIP3    H226238   5.665   6.091   7.438  0.3249 -0.7914  0.8271
 1535TIP3   OH226239   0.727   5.206   0.960  0.1479  0.2228 -0.0878
 1535TIP3    H126240   0.704   5.237   1.048  1.8204  0.2339  0.3831
 1535TIP3    H226241   0.665   5.136   0.942 -0.7854  0.8158  0.7276
 1536TIP3   OH226242   0.052   3.961   7.674  0.3201  0.0237 -0.7239
 1536TIP3    H126243  -0.028   3.947   7.724  0.5069  0.8580 -0.1564
 1536TIP3    H226244   0.106   4.017   7.731  1.0104  0.0539 -1.3873
 1537TIP3   OH226245   3.118   1.321   8.286  0.0945 -1.0439 -0.8458
 1537TIP3    H126246   3.185   1.282   8.341 -0.0766  2.0762  1.8977
 1537TIP3    H226247   3.035   1.291   8.322 -0.0025 -0.6863 -0.7610
 1538TIP3   OH226248   3.668   0.399   0.857 -0.0446 -0.2795  0.4817
 1538TIP3    H126249   3.680   0.394   0.952  4.4249  0.7988  0.1925
 1538TIP3    H226250   3.685   0.491   0.836  0.0312 -0.7062 -1.4652
 1539TIP3   OH226251   0.733   2.006   0.386 -0.1176  0.2268  0.2906
 1539TIP3    H126252   0.696   1.923   0.356  1.1630 -0.3791  0.3473
 1539TIP3    H226253   0.760   2.051   0.306  1.3571 -0.4606  0.3878
 1540TIP3   OH226254   3.845   0.948   8.096  0.0762 -0.0265 -0.1081
 1540TIP3    H126255   3.934   0.952   8.130 -0.1333  0.6214  0.3761
 1540TIP3    H226256   3.816   0.858   8.116 -0.4197  0.6207  2.4885
 1541TIP3   OH226257   6.686   1.559   1.070  0.5062 -0.3899  1.0367
 1541TIP3    H126258   6.774   1.556   1.106  0.3101 -1.0269  1.4651
 1541TIP3    H226259   6.677   1.478   1.021  1.1775  0.9268 -1.4626
 1542TIP3   OH226260   4.428   5.737   7.746  0.4835 -0.4648 -0.0740
 1542TIP3    H126261   4.383   5.655   7.725 -1.4119  0.2799  0.8608
 1542TIP3    H226262   4.360   5.804   7.740  1.3345  0.6572  1.9395
 1543TIP3   OH226263   1.658   3.561   2.206 -0.7396 -0.0688  0.0825
 1543TIP3    H126264   1.692   3.644   2.173  1.5676 -1.3635 -1.0492
 1543TIP3    H226265   1.681   3.560   2.298  0.3646  0.0291 -0.1797
 1544TIP3   OH226266   1.389   5.192   1.675  0.4928  0.6496  0.0426
 1544TIP3    H126267   1.479   5.225   1.669  0.5494  0.7802  1.4553
 1544TIP3    H226268   1.337   5.269   1.697  0.2491  0.2953  0.7291
 1545TIP3   OH226269   0.206   5.139   8.628 -0.0828  0.2761  0.2921
 1545TIP3    H126270   0.275   5.073   8.634 -0.8473 -0.5196  0.3832
 1545TIP3    H226271   0.169   5.128   8.541 -1.0638 -0.2870  0.7637
 1546TIP3   OH226272   0.345   6.678   2.064  0.5387 -0.2192 -0.0414
 1546TIP3    H126273   0.318   6.586   2.054  0.3211 -0.0762 -0.8653
 1546TIP3    H226274   0.394   6.680   2.146  0.7122 -1.1194 -0.1116
 1547TIP3   OH226275   5.412   5.834   8.445  0.1268 -0.2240  0.2060
 1547TIP3    H126276   5.435   5.876   8.362 -1.9491  0.3397 -0.1602
 1547TIP3    H226277   5.328   5.791   8.428 -0.4348  0.0375  2.0287
 1548TIP3   OH226278   6.535   6.712   0.292 -0.5530  0.1789 -0.0882
 1548TIP3    H126279   6.483   6.653   0.237  0.8221 -0.6293 -0.5804
 1548TIP3    H226280   6.586   6.654   0.348 -0.2344  0.9466  0.4333
 1549TIP3   OH226281   1.721   0.720   7.548 -0.4273 -0.0806 -0.3509
 1549TIP3    H126282   1.627   0.720   7.567 -0.0563 -0.9942  1.7475
 1549TIP3    H226283   1.760   0.768   7.621  0.7742  0.0854 -1.0767
 1550TIP3   OH226284   4.931   2.549   7.289 -0.3073  0.2301  0.1228
 1550TIP3    H126285   4.863   2.589   7.343  1.1087  1.8798  0.8206
 1550TIP3    H226286   4.984   2.624   7.259  0.6551 -0.9069 -1.1456
 1551TIP3   OH226287   3.618   3.005   7.297 -0.0394 -0.5166 -0.0355
 1551TIP3    H126288   3.649   2.964   7.217  2.1739  1.1490 -0.1487
 1551TIP3    H226289   3.698   3.022   7.348 -0.7989  2.8820  0.3009
 1552TIP3   OH226290   4.134   2.066   1.323 -0.1293 -0.3143 -0.1415
 1552TIP3    H126291   4.122   1.975   1.295 -0.9590 -0.6043  1.0782
 1552TIP3    H226292   4.155   2.060   1.416  1.6328  0.6614 -0.4400
 1553TIP3   OH226293   3.691   5.638   1.808 -0.1417 -0.0396  0.3662
 1553TIP3    H126294   3.619   5.593   1.853 -0.2724 -0.8823 -0.6354
 1553TIP3    H226295   3.686   5.606   1.718 -0.7750  2.6420 -0.6394
 1554TIP3   OH226296   1.168   1.957   1.469 -0.1380 -0.6604  0.6272
 1554TIP3    H126297   1.204   1.978   1.383 -0.5199 -1.1336  0.3450
 1554TIP3    H226298   1.227   1.890   1.504 -1.6812 -2.7841 -0.5981
 1555TIP3   OH226299   0.818   5.376   8.158 -1.1440  0.1521 -0.0351
 1555TIP3    H126300   0.880   5.323   8.208 -1.2482 -1.3409 -1.4238
 1555TIP3    H226301   0.740   5.322   8.152 -1.6747  0.9590 -0.5008
 1556TIP3   OH226302   2.124   4.252   2.011  0.1808  0.7121  0.0174
 1556TIP3    H126303   2.090   4.168   2.044 -0.9660  1.0535 -0.2387
 1556TIP3    H226304   2.217   4.235   1.995  0.0817 -0.3675  0.4293
 1557TIP3   OH226305   3.043   2.044   0.001 -0.0668  0.1558  0.1641
 1557TIP3    H126306   3.039   2.020   0.094  1.6807 -0.6230  0.0730
 1557TIP3    H226307   2.995   1.975  -0.044  1.5840 -1.1327  0.2708
 1558TIP3   OH226308   4.070   0.941   6.499  0.0388 -0.3887 -0.5078
 1558TIP3    H126309   4.103   0.895   6.422 -0.0075  1.0049 -1.3929
 1558TIP3    H226310   3.980   0.964   6.476 -0.2597 -0.7102  0.3140
 1559TIP3   OH226311   0.604   3.298   7.360 -0.1112 -0.1281 -0.4786
 1559TIP3    H126312   0.697   3.281   7.376 -0.2386  0.4722  1.0932
 1559TIP3    H226313   0.560   3.254   7.433 -1.0293  0.0248 -0.9364
 1560TIP3   OH226314   4.016   5.421   8.123  0.7427 -0.3502 -0.2038
 1560TIP3    H126315   3.932   5.402   8.163  2.0872 -2.4521  1.8838
 1560TIP3    H226316   4.061   5.476   8.187  0.7471  1.4101 -1.6383
 1561TIP3   OH226317   2.941   5.516   8.347 -0.4339 -0.2964 -0.2493
 1561TIP3    H126318   2.891   5.530   8.428  2.7644  0.9074  1.7050
 1561TIP3    H226319   2.897   5.570   8.282 -1.7403  0.6011  1.2915
 1562TIP3   OH226320   3.160   5.818   1.634  0.1555 -0.0348  0.3704
 1562TIP3    H126321   3.166   5.815   1.538  0.9511 -0.2545  0.4218
 1562TIP3    H226322   3.066   5.821   1.652 -0.1160 -2.1641 -0.3645
 1563TIP3   OH226323   6.077   1.388   0.196  0.3220 -0.1720 -0.1064
 1563TIP3    H126324   5.983   1.381   0.214  0.0928 -2.0780 -1.6195
 1563TIP3    H226325   6.102   1.473   0.231 -2.1559  0.7718 -0.3896
 1564TIP3   OH226326   3.593   0.272   7.047  0.2142  0.2402  0.8030
 1564TIP3    H126327   3.522   0.329   7.077 -0.1786  0.6899 -0.8743
 1564TIP3    H226328   3.672   0.310   7.084 -0.2573  0.6420  1.4179
 1565TIP3   OH226329   5.248   1.299   0.068 -0.7675  0.0534 -0.0141
 1565TIP3    H126330   5.175   1.295   0.130 -2.1233 -0.9121 -1.5801
 1565TIP3    H226331   5.225   1.370   0.009  0.0036  0.3004 -0.0282
 1566TIP3   OH226332   3.607   3.990   8.305  0.3247 -0.1502 -0.0552
 1566TIP3    H126333   3.609   3.941   8.387 -0.8339  0.1231  0.1578
 1566TIP3    H226334   3.645   4.075   8.327 -1.0259  0.3384  0.5211
 1567TIP3   OH226335   2.298   0.137   6.600 -0.4571 -0.2954 -0.1672
 1567TIP3    H126336   2.301   0.085   6.521 -2.4506 -0.9247  0.1163
 1567TIP3    H226337   2.212   0.178   6.599 -0.4967 -0.2362  1.6162
 1568TIP3   OH226338   6.370   4.536   2.458  0.3294 -0.1945 -0.0632
 1568TIP3    H126339   6.425   4.474   2.507  2.6045  2.7062  1.3435
 1568TIP3    H226340   6.321   4.583   2.526 -2.1344 -0.9975 -1.1700
 1569TIP3   OH226341   2.363   5.494   1.212 -0.2899 -0.4195 -0.3723
 1569TIP3    H126342   2.352   5.406   1.176 -0.5478  0.6985 -3.2580
 1569TIP3    H226343   2.289   5.505   1.272 -2.0343 -1.1370 -2.2672
 1570TIP3   OH226344   6.346   6.214   8.486 -0.4197 -0.2518 -0.1391
 1570TIP3    H126345   6.263   6.247   8.521 -0.3777 -1.4588  1.2056
 1570TIP3    H226346   6.334   6.119   8.484  1.6836 -0.6812  2.2685
 1571TIP3   OH226347   1.151   3.226   7.417 -0.0700 -0.4627  0.4338
 1571TIP3    H126348   1.221   3.291   7.428 -0.8374  0.8067 -1.4884
 1571TIP3    H226349   1.176   3.177   7.338 -1.4597  0.2759 -0.5207
 1572TIP3   OH226350   0.319   2.520   7.460  0.3600  0.2633 -0.0975
 1572TIP3    H126351   0.368   2.502   7.541 -0.8487 -2.6924  0.0898
 1572TIP3    H226352   0.368   2.473   7.392 -0.9175 -0.8521 -0.2828
 1573TIP3   OH226353   4.298   4.884   0.101  0.3261  0.0882 -0.1646
 1573TIP3    H126354   4.233   4.820   0.072  0.1965  0.1818 -0.0872
 1573TIP3    H226355   4.333   4.848   0.183 -0.9591  0.8959  0.7934
 1574TIP3   OH226356   2.810   2.438   7.211 -0.4385  1.1290  0.2817
 1574TIP3    H126357   2.903   2.447   7.194 -0.4729  0.0368 -0.5809
 1574TIP3    H226358   2.776   2.528   7.209  0.2320  1.3844 -1.5963
 1575TIP3   OH226359   5.475   3.188   0.411 -0.3967 -0.0229  0.1484
 1575TIP3    H126360   5.518   3.194   0.325 -0.2532 -0.5833  0.1811
 1575TIP3    H226361   5.441   3.277   0.426  0.5177  0.3621  0.0048
 1576TIP3   OH226362   2.754   0.689   8.036  0.0570  0.3527 -0.1401
 1576TIP3    H126363   2.843   0.663   8.060  0.2462  1.5642  0.5305
 1576TIP3    H226364   2.742   0.776   8.074 -1.3043  0.3594 -0.4983
 1577TIP3   OH226365   1.128   3.323   0.351  0.1522 -0.2574  0.7833
 1577TIP3    H126366   1.167   3.405   0.381  1.7857 -0.2172 -1.1961
 1577TIP3    H226367   1.201   3.261   0.350  0.6393  0.0312 -3.8394
 1578TIP3   OH226368   5.573   4.254   2.279 -0.3896 -0.0404 -0.2592
 1578TIP3    H126369   5.632   4.315   2.235 -1.7249  1.9894  0.6049
 1578TIP3    H226370   5.597   4.259   2.372 -2.1634  1.2021  0.1780
 1579TIP3   OH226371   2.460   4.033   0.364 -0.4198 -0.4856  0.0237
 1579TIP3    H126372   2.392   4.012   0.300  0.7251  0.2122 -1.4860
 1579TIP3    H226373   2.494   3.948   0.392 -0.0647 -0.7937 -1.2919
 1580TIP3   OH226374   2.257   4.355   0.813 -0.2440  0.2592 -0.4035
 1580TIP3    H126375   2.310   4.355   0.893 -0.5341 -1.0366 -0.1846
 1580TIP3    H226376   2.237   4.263   0.798  1.6230  0.1742 -3.1839
 1581TIP3   OH226377   1.798   0.206   0.551  0.0428  0.0759  0.3244
 1581TIP3    H126378   1.707   0.230   0.566 -0.4941 -1.4719 -0.3319
 1581TIP3    H226379   1.801   0.177   0.460  0.7049 -1.9425  0.9434
 1582TIP3   OH226380   3.471   2.549   0.411  0.0669 -0.0055  0.7181
 1582TIP3    H126381   3.412   2.547   0.335 -0.5875  1.0468  1.1733
 1582TIP3    H226382   3.441   2.624   0.462  1.2262 -0.0160  1.4429
 1583TIP3   OH226383   5.952   2.810   1.200 -0.3017  0.2079  0.1138
 1583TIP3    H126384   5.910   2.883   1.246 -0.4650  0.7052 -0.8042
 1583TIP3    H226385   5.887   2.781   1.136 -0.1808 -0.6518  0.3691
 1584TIP3   OH226386   0.999   2.209   0.074  0.2062  0.3494 -0.1809
 1584TIP3    H126387   1.023   2.168  -0.009 -1.4211  0.7963 -0.9192
 1584TIP3    H226388   1.036   2.151   0.141  0.3214 -0.8100 -1.2077
 1585TIP3   OH226389   5.674   5.466   6.584  1.1864 -0.3894  0.3649
 1585TIP3    H126390   5.631   5.493   6.665  0.0411 -0.0126 -0.3485
 1585TIP3    H226391   5.765   5.492   6.596  0.3815  2.9803  0.1387
 1586TIP3   OH226392   5.867   5.751   6.558 -0.2599 -0.1520 -0.8588
 1586TIP3    H126393   5.945   5.722   6.606 -0.6483 -1.0873 -0.7731
 1586TIP3    H226394   5.880   5.845   6.546  1.2820 -0.4276 -1.5729
 1587TIP3   OH226395   6.172   1.198   7.728 -0.3134 -0.4280  0.4441
 1587TIP3    H126396   6.193   1.281   7.686  1.5683  0.3916  2.7453
 1587TIP3    H226397   6.219   1.133   7.676 -1.6975 -0.0895 -1.3055
 1588TIP3   OH226398   1.604   0.016   1.203 -0.6224  0.2971 -0.2551
 1588TIP3    H126399   1.664   0.079   1.241 -0.6811 -0.4258  1.1156
 1588TIP3    H226400   1.644  -0.009   1.119  0.7745  0.1429  0.4294
 1589TIP3   OH226401   0.776   1.335   7.252  0.1364  0.5960 -0.4590
 1589TIP3    H126402   0.749   1.407   7.195 -2.0935 -0.8741 -1.4116
 1589TIP3    H226403   0.695   1.306   7.293  0.9432 -1.4454 -0.2218
 1590TIP3   OH226404   1.143   5.279   2.580  0.2669  0.0108  0.2565
 1590TIP3    H126405   1.080   5.230   2.633  0.2636 -0.9231 -0.5825
 1590TIP3    H226406   1.208   5.214   2.555  1.2015  0.8215  0.5421
 1591TIP3   OH226407   2.320   0.489   1.692 -0.3629 -0.5301 -0.0023
 1591TIP3    H126408   2.249   0.544   1.658 -1.1972 -0.4378  1.7262
 1591TIP3    H226409   2.276   0.412   1.727  0.5356 -1.0714 -0.0366
 1592TIP3   OH226410   4.303   1.903   8.418  0.2677  0.7578 -0.7650
 1592TIP3    H126411   4.283   1.994   8.441 -1.8516  0.0828  0.3295
 1592TIP3    H226412   4.255   1.888   8.337  1.4034  0.8729 -1.4741
 1593TIP3   OH226413   2.026   1.971   0.887 -0.5529 -0.1534 -0.1658
 1593TIP3    H126414   2.087   2.044   0.897  0.1300 -0.6345 -0.7059
 1593TIP3    H226415   2.061   1.921   0.813 -0.8882 -1.1539  0.3390
 1594TIP3   OH226416   1.082   3.821   7.418  0.1254 -0.4385  0.0015
 1594TIP3    H126417   1.080   3.812   7.514  1.1015 -0.3024  0.0393
 1594TIP3    H226418   0.993   3.849   7.396  0.5349  2.0669  1.1376
 1595TIP3   OH226419   1.960   5.096   0.698 -0.1853  0.0971 -0.1198
 1595TIP3    H126420   1.949   5.015   0.748  0.6884 -0.8209 -1.3577
 1595TIP3    H226421   1.955   5.069   0.607  0.4033  1.3944 -0.5616
 1596TIP3   OH226422   4.869   5.645   0.135  0.9573  0.1332 -0.3055
 1596TIP3    H126423   4.861   5.609   0.047  0.0183  0.5663 -0.4078
 1596TIP3    H226424   4.873   5.740   0.122 -1.0103  0.3366  0.1795
 1597TIP3   OH226425   5.546   3.260   0.944 -0.3263  0.1708 -0.4284
 1597TIP3    H126426   5.565   3.300   0.860 -1.6072  3.2589  0.6264
 1597TIP3    H226427   5.472   3.202   0.927  0.4067 -0.4472 -1.6605
 1598TIP3   OH226428   4.142   6.551   8.131 -0.2583 -0.0599 -0.7365
 1598TIP3    H126429   4.164   6.487   8.063 -1.8338 -0.1972 -1.1584
 1598TIP3    H226430   4.150   6.503   8.213  1.0977 -0.0542 -0.8488
 1599TIP3   OH226431   2.112   3.075   1.656  0.2951  0.3229 -0.4736
 1599TIP3    H126432   2.023   3.078   1.691  0.4436  0.1031 -0.0657
 1599TIP3    H226433   2.123   2.984   1.628  0.0026  0.6137 -1.5708
 1600TIP3   OH226434   5.633   5.051   6.812 -0.5027 -0.1769 -0.3116
 1600TIP3    H126435   5.649   5.093   6.727  1.1531  2.0353  1.0058
 1600TIP3    H226436   5.553   5.001   6.799 -0.7858  0.8046 -2.9254
 1601TIP3   OH226437   3.026   5.278   0.169  0.3951 -0.7369 -0.1973
 1601TIP3    H126438   2.932   5.291   0.155  0.2825 -1.5679 -0.2778
 1601TIP3    H226439   3.035   5.184   0.185  1.2251 -0.6802 -0.2808
 1602TIP3   OH226440   1.020   1.696   7.603 -0.5914  0.1434  0.2530
 1602TIP3    H126441   1.000   1.780   7.644 -1.6134  0.8132 -1.5113
 1602TIP3    H226442   1.047   1.718   7.514 -0.2286 -1.3648 -0.0463
 1603TIP3   OH226443   1.549   5.005   1.044 -0.9538  0.1525 -0.3804
 1603TIP3    H126444   1.478   4.942   1.052 -0.5316 -0.1875  0.9237
 1603TIP3    H226445   1.510   5.089   1.070 -1.4767  0.4389 -1.9781
 1604TIP3   OH226446   1.133   0.060   8.405 -0.0592 -0.0147  0.4684
 1604TIP3    H126447   1.222   0.029   8.388  1.4497  2.6005  2.8072
 1604TIP3    H226448   1.086  -0.017   8.433  1.5645 -1.4001 -0.4006
 1605TIP3   OH226449   1.618   6.484   7.845  0.2948 -0.1356  0.0451
 1605TIP3    H126450   1.556   6.486   7.772  0.0288  1.0786  0.2920
 1605TIP3    H226451   1.670   6.405   7.829  0.6418  0.4123 -1.7793
 1606TIP3   OH226452   0.074   5.011   7.558  0.2593 -0.2313  0.1304
 1606TIP3    H126453   0.091   5.001   7.651  1.1324 -1.3759 -0.1193
 1606TIP3    H226454   0.072   5.106   7.543 -1.6230 -0.0083  1.5834
 1607TIP3   OH226455   3.855   5.397   1.423 -0.6572  0.3777  0.0266
 1607TIP3    H126456   3.917   5.457   1.382 -0.1459  0.9120  1.5162
 1607TIP3    H226457   3.902   5.314   1.430  0.1743  0.9513  1.7370
 1608TIP3   OH226458   3.456   1.264   7.003 -0.3810 -0.2457  0.6843
 1608TIP3    H126459   3.528   1.254   7.064  0.3450  0.3037 -0.0619
 1608TIP3    H226460   3.410   1.343   7.033 -0.8637 -0.7664  1.3383
 1609TIP3   OH226461   3.008   0.348   7.874  0.1870  0.5320 -0.2573
 1609TIP3    H126462   3.040   0.280   7.934  0.3393  1.6109  0.9226
 1609TIP3    H226463   2.931   0.384   7.918 -0.0907  0.9029 -1.0310
 1610TIP3   OH226464   0.945   3.378   7.788  0.1866  0.1799  0.2289
 1610TIP3    H126465   0.951   3.461   7.834 -1.8344 -0.1781  1.2513
 1610TIP3    H226466   1.016   3.380   7.725 -0.9241  3.5051 -1.1205
 1611TIP3   OH226467   6.776   5.241   1.795 -0.2363 -0.4355  1.0400
 1611TIP3    H126468   6.794   5.249   1.889 -0.0914 -2.6784  1.2705
 1611TIP3    H226469   6.849   5.189   1.762 -0.3554  0.2308 -0.3037
 1612TIP3   OH226470   1.259   1.299   1.731  0.3283 -0.2542  0.5193
 1612TIP3    H126471   1.319   1.327   1.800  0.7376 -1.1775  0.5563
 1612TIP3    H226472   1.317   1.271   1.660 -0.0378 -1.5534  0.7128
 1613TIP3   OH226473   3.116   3.778   7.556 -0.0713  0.2240  0.4943
 1613TIP3    H126474   3.207   3.795   7.532 -0.5421  0.4758 -1.3042
 1613TIP3    H226475   3.121   3.712   7.625  1.4471 -1.3873 -1.0394
 1614TIP3   OH226476   2.045   3.102   7.722  0.6083  0.2556 -0.2302
 1614TIP3    H126477   2.127   3.079   7.765 -0.4133 -1.9197  0.6847
 1614TIP3    H226478   2.058   3.078   7.630  0.8197 -0.5644  0.0131
 1615TIP3   OH226479   6.489   3.932   0.647 -0.3003  0.3742  0.0575
 1615TIP3    H126480   6.463   3.842   0.625 -0.3366  0.4343 -0.1522
 1615TIP3    H226481   6.462   3.943   0.738  0.1807 -0.0006  0.2449
 1616TIP3   OH226482   6.473   3.854   1.729  0.3548  0.4195 -0.5137
 1616TIP3    H126483   6.554   3.879   1.684  1.7859  0.0604  1.6649
 1616TIP3    H226484   6.484   3.889   1.818 -0.5598 -2.1110  0.6811
 1617TIP3   OH226485   5.870   4.799   8.473  0.5405 -0.3439 -0.7650
 1617TIP3    H126486   5.777   4.820   8.479  0.6615  0.0752 -0.2241
 1617TIP3    H226487   5.872   4.711   8.435 -0.1233 -0.7677  0.1325
 1618TIP3   OH226488   2.160   1.000   1.259  0.4351  0.7432 -0.4126
 1618TIP3    H126489   2.245   0.961   1.240  0.3725 -1.7338  3.4506
 1618TIP3    H226490   2.096   0.938   1.223  0.0920  2.4889 -3.1104
 1619TIP3   OH226491   3.611   1.980   0.765 -0.3384 -0.0885  0.6932
 1619TIP3    H126492   3.601   2.069   0.800  0.0303 -0.6396  2.2850
 1619TIP3    H226493   3.627   1.992   0.672 -1.4469  1.4651  0.6697
 1620TIP3   OH226494   2.813   1.392   6.910  0.1278 -0.3850 -0.1877
 1620TIP3    H126495   2.889   1.408   6.853  0.9141 -1.4696  0.5062
 1620TIP3    H226496   2.842   1.322   6.969 -1.6765 -1.3484 -0.3801
 1621TIP3   OH226497   6.763   4.256   7.996 -0.3245 -0.0134  0.0302
 1621TIP3    H126498   6.784   4.266   8.089 -0.3462 -0.8877  0.1408
 1621TIP3    H226499   6.777   4.343   7.959 -1.0159  0.5288  0.9886
 1622TIP3   OH226500   4.876   5.470   7.632  0.2767  0.2236  0.1866
 1622TIP3    H126501   4.839   5.382   7.625  0.2153  0.2756 -0.1461
 1622TIP3    H226502   4.966   5.456   7.659  0.8085 -0.0343 -1.6106
 1623TIP3   OH226503   1.777   5.786   2.024 -0.5475 -0.5590  0.4090
 1623TIP3    H126504   1.729   5.736   1.959 -1.5279 -0.4797  1.0523
 1623TIP3    H226505   1.713   5.848   2.058  0.9226  2.0906 -1.2847
 1624TIP3   OH226506   4.637   3.409   1.647 -0.2504  0.6527  1.0270
 1624TIP3    H126507   4.629   3.346   1.575  0.4802  0.3664  1.1907
 1624TIP3    H226508   4.610   3.361   1.725 -1.7210  1.1673  0.8616
 1625TIP3   OH226509   2.756   3.303   0.463  0.4214  0.2627  0.5066
 1625TIP3    H126510   2.809   3.233   0.426 -1.8435 -1.3591  0.1804
 1625TIP3    H226511   2.708   3.340   0.389 -2.8527 -1.8723  1.3755
 1626TIP3   OH226512   3.408   2.976   1.647 -0.1422 -0.0308 -0.0174
 1626TIP3    H126513   3.455   2.931   1.718 -1.0547 -0.7957  0.1150
 1626TIP3    H226514   3.416   3.069   1.669  0.3962 -0.2076  0.5775
 1627TIP3   OH226515   4.089   1.127   8.720  0.1166 -0.0077 -0.0049
 1627TIP3    H126516   4.073   1.057   8.656  2.0925 -0.8364  0.3414
 1627TIP3    H226517   4.136   1.194   8.671 -0.3485  0.3546  0.0461
 1628TIP3   OH226518   4.385   4.876   8.317  0.1432  0.5921  0.1837
 1628TIP3    H126519   4.466   4.858   8.365  0.6347 -0.3348 -0.9178
 1628TIP3    H226520   4.414   4.893   8.227 -0.8768  0.2097 -0.2378
 1629TIP3   OH226521   1.229   1.432   8.304 -0.3562 -0.1966  0.6260
 1629TIP3    H126522   1.263   1.342   8.305 -0.2259 -0.1457  0.7222
 1629TIP3    H226523   1.272   1.473   8.230  0.8070  0.2615  1.5312
 1630TIP3   OH226524   0.548   2.285   7.865  0.6251 -0.2146 -0.1297
 1630TIP3    H126525   0.603   2.338   7.808  1.3828 -0.9165 -0.0726
 1630TIP3    H226526   0.594   2.201   7.871 -0.9293 -1.1571 -0.8561
 1631TIP3   OH226527   3.805   0.542   0.543 -0.2936  0.2762  0.2140
 1631TIP3    H126528   3.740   0.585   0.600 -1.8738 -0.1996 -1.1501
 1631TIP3    H226529   3.874   0.515   0.603 -2.2171 -0.8660  2.0895
 1632TIP3   OH226530   5.831   4.746   8.130 -0.0177  0.5013  0.1809
 1632TIP3    H126531   5.806   4.659   8.098  1.5649  0.2893 -0.5577
 1632TIP3    H226532   5.751   4.798   8.122 -0.5754 -0.4706 -0.8877
 1633TIP3   OH226533   5.686   0.087   0.650 -0.1061  0.1129  0.0572
 1633TIP3    H126534   5.641   0.160   0.608 -1.9038 -2.1063 -2.2060
 1633TIP3    H226535   5.713   0.121   0.735 -1.9635  3.0067 -0.3675
 1634TIP3   OH226536   5.894   4.576   0.599  0.1848  0.1675 -0.4867
 1634TIP3    H126537   5.829   4.603   0.534  1.1849 -0.1855 -1.6774
 1634TIP3    H226538   5.847   4.519   0.659 -1.5000  2.8074  0.9016
 1635TIP3   OH226539   0.771   6.795   0.182  0.3521  0.3867 -0.0872
 1635TIP3    H126540   0.852   6.757   0.217 -0.3057  0.7640  1.9845
 1635TIP3    H226541   0.736   6.847   0.254 -1.7189  0.2602 -0.9399
 1636TIP3   OH226542   1.356   3.600   1.560 -0.5932 -0.1480  0.5855
 1636TIP3    H126543   1.441   3.556   1.563 -1.1752 -1.2490  2.6323
 1636TIP3    H226544   1.340   3.628   1.650 -2.1953  0.4381  0.1456
 1637TIP3   OH226545   4.704   1.534   7.589  0.0509  0.2366  0.6320
 1637TIP3    H126546   4.726   1.584   7.668  0.3488 -0.7561  1.1922
 1637TIP3    H226547   4.641   1.469   7.619 -0.2413  0.1927 -0.0634
 1638TIP3   OH226548   4.363   6.158   1.817 -0.3290 -0.2553  0.1404
 1638TIP3    H126549   4.299   6.125   1.881  0.2015 -0.9004  0.3494
 1638TIP3    H226550   4.350   6.104   1.739 -0.2161 -0.2135  0.0926
 1639TIP3   OH226551   6.684   4.030   7.864  0.1825 -0.4798 -0.4367
 1639TIP3    H126552   6.710   4.113   7.901 -2.3009  0.7754 -1.2846
 1639TIP3    H226553   6.660   3.976   7.939 -2.0657  1.0328  0.0318
 1640TIP3   OH226554   5.909   3.357   0.105  0.4116 -0.6228 -0.0081
 1640TIP3    H126555   5.865   3.348   0.189  1.2794  0.0546  0.5317
 1640TIP3    H226556   5.860   3.427   0.060  0.9673  0.1753  0.6158
 1641TIP3   OH226557   6.559   6.567   1.454 -0.3983 -0.4706 -0.1642
 1641TIP3    H126558   6.507   6.486   1.454 -1.7556  0.2830  1.9901
 1641TIP3    H226559   6.495   6.636   1.474  0.9667  0.9193 -0.4271
 1642TIP3   OH226560   1.710   4.317   0.569  0.3540 -0.4596  0.1268
 1642TIP3    H126561   1.763   4.318   0.649 -0.3152  0.4307  0.5778
 1642TIP3    H226562   1.620   4.307   0.601  0.3208 -4.0903 -0.7057
 1643TIP3   OH226563   0.378   1.920   0.276  0.1794  0.3683 -0.0126
 1643TIP3    H126564   0.330   1.943   0.196 -2.3225  0.2330  1.3567
 1643TIP3    H226565   0.393   2.003   0.320  1.2923  0.4093 -0.4205
 1644TIP3   OH226566   1.135   0.325   1.967 -0.1379  0.1915 -0.8608
 1644TIP3    H126567   1.202   0.378   1.923 -1.6953  2.3063 -0.8580
 1644TIP3    H226568   1.052   0.366   1.942 -1.3706 -1.5445  0.1716
 1645TIP3   OH226569   5.267   1.313   8.002 -0.4195  0.0719 -0.1385
 1645TIP3    H126570   5.342   1.367   8.029 -1.6850  1.2317  1.1601
 1645TIP3    H226571   5.251   1.339   7.911 -0.5416  1.3842  0.2328
 1646TIP3   OH226572   3.892   6.010   1.831  0.0342 -0.0469 -0.4507
 1646TIP3    H126573   3.983   6.029   1.855 -0.2779 -0.0069  0.7726
 1646TIP3    H226574   3.866   6.085   1.777 -0.7666  2.6033  3.2109
 1647TIP3   OH226575   1.997   1.370   2.212  0.7877 -0.2942 -0.5707
 1647TIP3    H126576   2.050   1.319   2.273  1.1985 -0.7601 -1.2921
 1647TIP3    H226577   2.043   1.455   2.207  1.0588 -0.4421 -0.6378
 1648TIP3   OH226578   2.739   0.891   8.776 -0.0380  0.2015  0.0352
 1648TIP3    H126579   2.801   0.839   8.827 -0.9720  0.1894  1.2077
 1648TIP3    H226580   2.736   0.976   8.821 -0.9070  0.1785  0.0381
 1649TIP3   OH226581   4.461   3.877   2.005 -0.2679 -0.3644  0.5034
 1649TIP3    H126582   4.393   3.919   2.059 -0.8397 -0.8744  0.1921
 1649TIP3    H226583   4.542   3.922   2.029 -0.8727  0.9832  0.1158
 1650TIP3   OH226584   2.329   0.623   7.324  0.5158  0.2815 -0.0042
 1650TIP3    H126585   2.362   0.565   7.392 -0.8597  1.4199  1.7132
 1650TIP3    H226586   2.249   0.660   7.360  0.3008  1.7525 -1.8258
 1651TIP3   OH226587   0.049   5.539   0.637  0.3608  0.0632  0.3511
 1651TIP3    H126588   0.081   5.516   0.549  0.5348  0.5865  0.2711
 1651TIP3    H226589   0.109   5.496   0.697 -0.9877 -2.0882  0.2693
 1652TIP3   OH226590   2.011   2.271   6.782  0.4540  0.4531 -0.7190
 1652TIP3    H126591   1.973   2.186   6.761  0.0202  0.6779 -0.8564
 1652TIP3    H226592   1.936   2.325   6.807  0.6503  0.9717 -1.2240
 1653TIP3   OH226593   1.391   0.225   8.247 -0.3389 -0.5957  0.0301
 1653TIP3    H126594   1.316   0.214   8.188 -0.4564  0.8554 -0.1202
 1653TIP3    H226595   1.411   0.137   8.277 -0.6366 -1.3186 -1.7462
 1654TIP3   OH226596   5.095   1.374   7.760  0.4243 -0.1068 -0.1240
 1654TIP3    H126597   5.046   1.411   7.834  1.0966  2.1609 -0.7388
 1654TIP3    H226598   5.061   1.285   7.751 -1.3199  0.3354  1.4544
 1655TIP3   OH226599   3.580   5.226   7.337 -0.2809 -0.0436  0.3808
 1655TIP3    H126600   3.628   5.182   7.408 -0.8504 -1.5538 -0.1426
 1655TIP3    H226601   3.613   5.185   7.257 -0.2211  1.0974 -0.1940
 1656TIP3   OH226602   0.226   3.002   7.408 -0.3747  0.7578 -0.6324
 1656TIP3    H126603   0.318   2.992   7.433 -0.8250 -2.7576  0.1008
 1656TIP3    H226604   0.201   3.086   7.447  1.5308  0.0222  2.6388
 1657TIP3   OH226605   0.346   0.870   8.378 -0.1582 -0.1212  0.5558
 1657TIP3    H126606   0.283   0.850   8.447  0.9081  1.2568  1.9919
 1657TIP3    H226607   0.421   0.814   8.396  0.1188  0.2262  0.4969
 1658TIP3   OH226608   5.218   1.904   1.728  0.7018 -0.0703 -0.0201
 1658TIP3    H126609   5.153   1.968   1.759  1.4736  1.6248 -1.6642
 1658TIP3    H226610   5.186   1.820   1.761 -2.5049  0.6168 -0.9341
 1659TIP3   OH226611   5.224   6.299   2.403 -0.4419 -0.3137  0.0460
 1659TIP3    H126612   5.157   6.367   2.411 -1.5722 -1.3198 -0.4913
 1659TIP3    H226613   5.178   6.225   2.363 -0.2142 -2.6803  3.7006
 1660TIP3   OH226614   1.090   5.861   7.906 -0.0460 -0.2798 -0.0104
 1660TIP3    H126615   1.050   5.817   7.980 -1.6390  1.3323  0.1699
 1660TIP3    H226616   1.067   5.807   7.830 -1.8329  0.1124  0.2141
 1661TIP3   OH226617   6.481   6.193   7.690  0.0774  0.1083  0.3259
 1661TIP3    H126618   6.389   6.178   7.668 -0.1597  2.0949 -0.1795
 1661TIP3    H226619   6.509   6.265   7.634  1.2772  1.0966  2.0683
 1662TIP3   OH226620   5.760   1.270   8.535  0.2189  0.1784  0.4231
 1662TIP3    H126621   5.819   1.269   8.610 -1.6445 -0.3400  1.9824
 1662TIP3    H226622   5.709   1.351   8.545 -0.3152 -0.0886 -0.0428
 1663TIP3   OH226623   1.702   1.006   8.827  0.0635  0.0553  0.1469
 1663TIP3    H126624   1.727   0.929   8.778 -0.6283  0.4716 -0.8943
 1663TIP3    H226625   1.704   1.078   8.763 -0.7811  0.6197  0.7195
 1664TIP3   OH226626   3.065   6.475   7.807  0.1882 -0.1535  0.1389
 1664TIP3    H126627   3.040   6.463   7.716 -2.3044  0.4044  0.6763
 1664TIP3    H226628   3.138   6.414   7.821  0.3709 -0.5042 -2.0922
 1665TIP3   OH226629   2.947   2.080   0.400  0.0606  0.1782  0.2200
 1665TIP3    H126630   2.972   2.012   0.337 -0.8815 -0.7833  0.8493
 1665TIP3    H226631   2.852   2.087   0.390  0.2313  2.0043 -0.4009
 1666TIP3   OH226632   1.355   6.114   8.213 -0.1913 -0.0720  0.0876
 1666TIP3    H126633   1.270   6.084   8.180 -0.0826 -1.0445  0.6402
 1666TIP3    H226634   1.385   6.177   8.149 -0.3365 -1.3278 -1.2578
 1667TIP3   OH226635   6.740   5.717   7.721 -0.5236 -0.5547  0.2525
 1667TIP3    H126636   6.759   5.677   7.636 -0.4478 -1.7290  0.8087
 1667TIP3    H226637   6.801   5.791   7.726 -1.0873  0.0411 -1.0474
 1668TIP3   OH226638   1.670   0.228   6.976  0.1500 -0.3578 -0.3269
 1668TIP3    H126639   1.759   0.264   6.976  0.0737 -0.1534  0.2212
 1668TIP3    H226640   1.648   0.219   7.069  0.4733 -2.6432 -0.4272
 1669TIP3   OH226641   1.306   4.313   6.450 -0.2105  0.7807  0.1969
 1669TIP3    H126642   1.244   4.384   6.460 -1.3319 -0.2330  0.6867
 1669TIP3    H226643   1.284   4.272   6.367  0.7444  1.2925 -0.3163
 1670TIP3   OH226644   1.690   3.545   8.124  0.4485  0.4651  0.1452
 1670TIP3    H126645   1.752   3.546   8.051  0.0001  1.3003 -0.2400
 1670TIP3    H226646   1.604   3.553   8.083 -0.0078 -1.4438  0.6279
 1671TIP3   OH226647   4.605   1.175   0.256 -0.0339  0.2825  0.7239
 1671TIP3    H126648   4.596   1.165   0.161  2.6211  0.4031  0.4071
 1671TIP3    H226649   4.552   1.253   0.276  0.2074  0.8821 -0.8238
 1672TIP3   OH226650   4.941   0.348   0.305 -0.0366 -0.1821  0.3770
 1672TIP3    H126651   4.967   0.290   0.377 -1.3527  0.3224  1.3080
 1672TIP3    H226652   4.861   0.390   0.336 -0.4762  0.2863 -1.2825
 1673TIP3   OH226653   2.133   0.754   7.043 -0.3545 -0.1582 -0.0772
 1673TIP3    H126654   2.181   0.836   7.034  0.4331 -0.2326  2.5386
 1673TIP3    H226655   2.194   0.687   7.010  0.6944 -0.0521  1.5169
 1674TIP3   OH226656   1.284   3.627   7.836 -0.5365 -0.0797  0.1749
 1674TIP3    H126657   1.356   3.591   7.785 -0.2911  0.8404 -0.1485
 1674TIP3    H226658   1.230   3.551   7.858  0.6963 -0.8350  0.7124
 1675TIP3   OH226659   4.541   0.567   7.090 -0.2175 -1.4968  0.1165
 1675TIP3    H126660   4.564   0.554   6.998 -0.3879 -2.6265  0.2160
 1675TIP3    H226661   4.619   0.605   7.130 -1.1503  2.0740 -1.1065
 1676TIP3   OH226662   2.123   4.991   7.935 -0.4145 -0.0714  0.0932
 1676TIP3    H126663   2.098   4.934   7.862 -0.1597 -0.1835  0.0904
 1676TIP3    H226664   2.117   5.080   7.899  0.1025 -0.1472 -0.1879
 1677TIP3   OH226665   4.138   2.274   7.806  0.5511 -0.5011  0.2700
 1677TIP3    H126666   4.228   2.242   7.793 -0.0843 -2.1382 -0.3448
 1677TIP3    H226667   4.102   2.279   7.717 -0.5591 -1.7164  0.6255
 1678TIP3   OH226668   4.515   5.153   1.762 -0.2666 -0.2948 -0.2964
 1678TIP3    H126669   4.555   5.196   1.838 -0.2703  1.2920 -1.1443
 1678TIP3    H226670   4.588   5.114   1.715 -0.3932 -2.4789  1.1722
 1679TIP3   OH226671   0.715   4.728   0.133 -0.3743 -0.1168  0.1164
 1679TIP3    H126672   0.733   4.634   0.138 -0.6388 -0.2654 -1.3730
 1679TIP3    H226673   0.639   4.741   0.189  0.0005 -0.6940  0.7724
 1680TIP3   OH226674   6.526   4.011   8.489 -0.4871 -0.3385  0.0562
 1680TIP3    H126675   6.466   3.960   8.544 -0.5016 -0.0696  0.2884
 1680TIP3    H226676   6.476   4.027   8.409 -0.5549 -0.5223  0.0615
 1681TIP3   OH226677   0.839   0.864   7.850 -0.4511  0.3750 -0.3910
 1681TIP3    H126678   0.763   0.882   7.906  0.8185 -0.2346  1.6093
 1681TIP3    H226679   0.875   0.950   7.830  0.6689  0.5454  2.0849
 1682TIP3   OH226680   2.858   4.553   8.863 -0.2996  0.1908  0.3363
 1682TIP3    H126681   2.780   4.500   8.880 -1.0447  0.7872 -1.1157
 1682TIP3    H226682   2.825   4.642   8.849  0.7133  0.5831  0.3139
 1683TIP3   OH226683   4.812   3.753   1.338 -0.1248 -0.1887  0.3719
 1683TIP3    H126684   4.851   3.805   1.268  0.8890  0.4924  1.4225
 1683TIP3    H226685   4.886   3.714   1.383 -0.6130  1.0120  2.3283
 1684TIP3   OH226686   6.654   2.658   0.244 -0.1102 -0.0887  0.0582
 1684TIP3    H126687   6.679   2.749   0.228  0.5600  0.0626  1.7896
 1684TIP3    H226688   6.571   2.647   0.197  0.5434  0.9511 -1.4191
 1685TIP3   OH226689   5.961   3.707   0.807 -0.2563 -0.4581 -0.2480
 1685TIP3    H126690   5.894   3.772   0.788  1.0429  0.4827 -1.9981
 1685TIP3    H226691   6.015   3.747   0.875 -1.0177 -0.9131  0.6460
 1686TIP3   OH226692   1.151   3.153   1.645 -0.1878 -0.8007 -0.3334
 1686TIP3    H126693   1.241   3.121   1.652  1.9922  4.2858 -0.3220
 1686TIP3    H226694   1.124   3.170   1.735 -1.5422 -2.8072 -0.2891
 1687TIP3   OH226695   4.810   4.319   2.014 -0.3449  0.0742 -0.0480
 1687TIP3    H126696   4.717   4.308   2.037 -0.6888 -0.2776 -1.4711
 1687TIP3    H226697   4.823   4.413   2.014 -0.7847  0.1389 -0.1279
 1688TIP3   OH226698   0.316   2.523   0.117 -0.2040  0.3524  0.0322
 1688TIP3    H126699   0.355   2.481   0.194  2.0513  1.0771 -0.6480
 1688TIP3    H226700   0.320   2.457   0.048  1.6879  1.0041 -0.5488
 1689TIP3   OH226701   5.325   3.127   8.241  0.0504  0.3980 -0.0627
 1689TIP3    H126702   5.377   3.057   8.202 -0.3944 -0.0900  0.2103
 1689TIP3    H226703   5.389   3.190   8.273  0.4335  0.6018 -1.1894
 1690TIP3   OH226704   6.679   5.919   0.652 -0.1843 -0.7155 -0.2762
 1690TIP3    H126705   6.654   5.896   0.562  0.6516 -1.4368 -0.3440
 1690TIP3    H226706   6.673   5.836   0.700  0.7761 -0.6450 -0.0073
 1691TIP3   OH226707   5.807   6.382   0.435  0.5174  0.0536 -0.2055
 1691TIP3    H126708   5.771   6.443   0.371 -0.4350  0.9517  1.1190
 1691TIP3    H226709   5.793   6.295   0.396 -1.2135  0.4965 -0.6710
 1692TIP3   OH226710   5.091   5.303   2.375  0.2194 -0.3007 -0.1951
 1692TIP3    H126711   5.187   5.308   2.381  0.1836  0.0591  0.1131
 1692TIP3    H226712   5.060   5.384   2.416 -0.2341 -0.7165  0.2986
 1693TIP3   OH226713   6.206   4.669   1.255 -0.0662 -0.1298  0.3762
 1693TIP3    H126714   6.248   4.649   1.339 -0.0087  2.4218  1.0579
 1693TIP3    H226715   6.179   4.761   1.264 -0.3791  0.1016 -2.2703
 1694TIP3   OH226716   2.291   5.601   1.888 -0.2447 -0.6242  0.5006
 1694TIP3    H126717   2.275   5.549   1.810 -0.3477  3.8378 -2.7893
 1694TIP3    H226718   2.204   5.619   1.924 -0.3392 -1.0814  0.5041
 1695TIP3   OH226719   2.130   4.612   0.752 -0.2199  0.0068  0.3241
 1695TIP3    H126720   2.183   4.538   0.782  2.3349  1.2749 -0.7485
 1695TIP3    H226721   2.084   4.579   0.675 -0.7279 -1.0219  1.0453
 1696TIP3   OH226722   4.992   6.126   0.609  0.4959 -0.1206  0.2440
 1696TIP3    H126723   4.994   6.030   0.607  0.7006 -0.1491  1.2351
 1696TIP3    H226724   4.900   6.149   0.611  0.4595 -0.3397  1.2240
 1697TIP3   OH226725   3.561   4.257   7.006  0.1754 -0.2987  0.1434
 1697TIP3    H126726   3.642   4.308   7.009  0.6094 -0.9836  0.3440
 1697TIP3    H226727   3.491   4.322   7.010  0.7196  0.2517  0.8757
 1698TIP3   OH226728   1.651   6.593   7.016  0.2149 -0.0711  0.0665
 1698TIP3    H126729   1.735   6.561   7.047  1.3242  0.6254 -1.9948
 1698TIP3    H226730   1.673   6.661   6.952 -1.8707 -0.4048 -1.1215
 1699TIP3   OH226731   2.138   3.393   1.457 -0.2789  0.3729 -0.2911
 1699TIP3    H126732   2.099   3.409   1.370  1.2930  0.3355 -1.0355
 1699TIP3    H226733   2.131   3.478   1.502 -0.0990  0.7030 -0.8701
 1700TIP3   OH226734   2.241   1.409   7.317  0.0574  0.1269  0.6888
 1700TIP3    H126735   2.185   1.341   7.278  0.9690  0.0987 -0.6034
 1700TIP3    H226736   2.182   1.457   7.375 -1.2151 -0.1901 -0.2941
 1701TIP3   OH226737   5.701   6.358   7.866  0.1403 -0.0218  0.0927
 1701TIP3    H126738   5.765   6.389   7.931 -0.2478  1.5443 -0.2097
 1701TIP3    H226739   5.665   6.439   7.829  0.0258 -0.8830 -1.7539
 1702TIP3   OH226740   3.851   3.075   7.429  0.4302  0.0388  0.5624
 1702TIP3    H126741   3.889   3.160   7.450  0.4849 -0.7191  4.1886
 1702TIP3    H226742   3.926   3.018   7.413  0.4619  0.2405 -0.0338
 1703TIP3   OH226743   2.198   6.171   6.540 -0.1431  0.3071  0.3683
 1703TIP3    H126744   2.272   6.130   6.584  0.5864  1.2949  0.1000
 1703TIP3    H226745   2.121   6.143   6.591  0.5670  0.5424  1.6253
 1704TIP3   OH226746   4.103   1.628   6.754  0.5594  0.2570  0.4930
 1704TIP3    H126747   4.153   1.607   6.675  3.1587  0.6550  1.9489
 1704TIP3    H226748   4.016   1.651   6.721  1.3216 -0.3337 -2.1760
 1705TIP3   OH226749   6.736   5.991   6.388 -0.1832 -0.3133 -0.4034
 1705TIP3    H126750   6.795   6.067   6.390  1.8009 -1.7895  0.3591
 1705TIP3    H226751   6.749   5.953   6.302  0.5351 -1.0218  0.0027
 1706TIP3   OH226752   6.673   2.117   6.193 -0.5660  1.3714  1.0027
 1706TIP3    H126753   6.655   2.141   6.284 -1.3560  0.9071  0.9758
 1706TIP3    H226754   6.644   2.027   6.185 -0.0392  1.2433  0.4110
 1707TIP3   OH226755   3.619   5.635   8.705 -0.1246  0.5309 -0.6684
 1707TIP3    H126756   3.676   5.697   8.749  0.5327  0.7449 -1.7759
 1707TIP3    H226757   3.531   5.669   8.720  0.0819  0.5787  0.4731
 1708TIP3   OH226758   2.701   5.977   7.186  0.0783  0.2118 -0.2457
 1708TIP3    H126759   2.697   5.886   7.215  0.0699 -0.1340 -1.2866
 1708TIP3    H226760   2.648   6.025   7.249  0.5596 -0.4097  0.6517
 1709TIP3   OH226761   2.466   5.331   1.737  0.0832 -0.0296 -0.6205
 1709TIP3    H126762   2.545   5.280   1.753  1.0736  2.4748  4.0751
 1709TIP3    H226763   2.411   5.317   1.814 -0.6359  3.9113 -0.1782
 1710TIP3   OH226764   3.706   5.183   0.339  0.2658 -0.1545 -0.2778
 1710TIP3    H126765   3.775   5.239   0.374  1.6258 -2.5774  1.3052
 1710TIP3    H226766   3.648   5.241   0.291  1.2291  2.6364  1.7062
 1711TIP3   OH226767   0.501   2.470   2.140 -0.5235 -0.1539  0.4502
 1711TIP3    H126768   0.431   2.408   2.156 -1.8167  0.9665 -0.6140
 1711TIP3    H226769   0.581   2.417   2.138 -1.3927 -1.5230  1.1856
 1712TIP3   OH226770   4.627   0.780   0.420  0.3863 -0.2090  0.6045
 1712TIP3    H126771   4.700   0.736   0.463  0.6016  0.4745  0.9513
 1712TIP3    H226772   4.563   0.710   0.404  1.5616 -1.0520 -0.7472
 1713TIP3   OH226773   2.863   5.171   1.610  0.2934 -0.3936  0.2351
 1713TIP3    H126774   2.835   5.102   1.550  1.3748  0.7575 -1.7071
 1713TIP3    H226775   2.797   5.171   1.679 -1.4395 -1.3169 -1.3200
 1714TIP3   OH226776   4.821   3.074   2.240  0.2363  0.6950 -0.0057
 1714TIP3    H126777   4.735   3.108   2.265 -0.5523  1.9944 -3.8151
 1714TIP3    H226778   4.881   3.147   2.255  0.3627  0.4343  0.8285
 1715TIP3   OH226779   1.005   4.744   8.039  0.1262  0.0233 -0.3085
 1715TIP3    H126780   1.028   4.652   8.027 -0.4346 -0.1360 -0.1942
 1715TIP3    H226781   1.085   4.792   8.016  1.2401 -0.5919  2.0106
 1716TIP3   OH226782   5.465   2.464   7.477  0.3136 -0.2543 -0.2358
 1716TIP3    H126783   5.437   2.552   7.451  0.8903 -0.3468 -1.2582
 1716TIP3    H226784   5.387   2.409   7.466  0.6152 -0.3727 -2.3313
 1717TIP3   OH226785   5.475   6.727   6.948 -0.0538  0.0053  0.0928
 1717TIP3    H126786   5.467   6.809   6.899 -0.8107 -0.7912 -1.1808
 1717TIP3    H226787   5.385   6.699   6.963  0.1539 -1.6709 -1.4245
 1718TIP3   OH226788   0.537   3.666   8.219 -0.1369 -0.4761 -0.0627
 1718TIP3    H126789   0.582   3.634   8.140 -0.7387 -1.3194 -0.0790
 1718TIP3    H226790   0.573   3.613   8.290 -2.2419 -2.3554 -0.2943
 1719TIP3   OH226791   1.427   3.791   6.953  0.1022 -0.0118 -0.1329
 1719TIP3    H126792   1.441   3.723   6.887 -0.9082 -0.5699  0.2077
 1719TIP3    H226793   1.515   3.824   6.973  0.6721 -1.5388  0.0227
 1720TIP3   OH226794   3.003   5.766   7.362  0.7890  0.2887  0.5166
 1720TIP3    H126795   3.049   5.839   7.321  0.1770  0.1851 -0.3857
 1720TIP3    H226796   2.986   5.705   7.290  2.6459 -1.4941  1.4696
 1721TIP3   OH226797   3.557   2.103   7.154  0.5144  0.2456  0.5374
 1721TIP3    H126798   3.566   2.028   7.095  0.2251  0.9911 -0.4888
 1721TIP3    H226799   3.498   2.073   7.223 -1.0795  0.0704 -0.8294
 1722TIP3   OH226800   0.903   5.613   8.034  0.0262  0.1993 -0.4583
 1722TIP3    H126801   0.863   5.542   8.084 -0.9686 -0.0954 -1.6084
 1722TIP3    H226802   0.900   5.689   8.092  0.3450 -0.4947  0.4853
 1723TIP3   OH226803   3.986   5.338   8.558  0.4938  0.2234  0.6833
 1723TIP3    H126804   3.984   5.243   8.569  0.3453 -0.0628 -1.4104
 1723TIP3    H226805   4.075   5.357   8.528  0.7374  0.8499  1.7623
 1724TIP3   OH226806   4.396   0.997   8.792  0.2436 -0.5535 -0.2645
 1724TIP3    H126807   4.342   1.051   8.849 -1.3123  0.8426 -2.9029
 1724TIP3    H226808   4.348   0.915   8.784 -0.5620 -0.0185 -1.0838
 1725TIP3   OH226809   4.768   2.649   1.126  0.4952 -0.2370 -0.2860
 1725TIP3    H126810   4.843   2.614   1.079  1.3674  1.2322 -0.0660
 1725TIP3    H226811   4.758   2.591   1.201  1.4300 -0.4571 -0.3150
 1726TIP3   OH226812   6.169   0.809   1.165 -0.2991  0.5873  0.0159
 1726TIP3    H126813   6.214   0.874   1.219 -0.9879  1.6293 -0.6339
 1726TIP3    H226814   6.167   0.848   1.078  2.6178 -1.9084 -1.3646
 1727TIP3   OH226815   6.294   2.556   0.419  0.7004 -0.4363  0.3205
 1727TIP3    H126816   6.381   2.540   0.456  1.0277 -2.2629 -1.0769
 1727TIP3    H226817   6.308   2.555   0.324 -0.6696  0.5064  0.0782
 1728TIP3   OH226818   3.065   2.052   7.416 -0.3998  0.2980 -0.1985
 1728TIP3    H126819   3.041   2.141   7.441  0.2190  0.1134  1.1657
 1728TIP3    H226820   3.037   2.043   7.325 -2.5672  1.1061  0.3407
 1729TIP3   OH226821   6.216   5.827   7.772 -0.4865 -0.9116  0.0108
 1729TIP3    H126822   6.153   5.894   7.800  0.4505  0.3300 -0.7239
 1729TIP3    H226823   6.257   5.797   7.853  1.5353  1.9558  0.1995
 1730TIP3   OH226824   3.430   4.225   8.672 -0.3702 -0.3036  0.1198
 1730TIP3    H126825   3.486   4.224   8.750 -1.2819  0.2133  0.7859
 1730TIP3    H226826   3.360   4.163   8.693 -2.6402  2.4498  1.2516
 1731TIP3   OH226827   5.104   4.705   0.691 -0.0092  0.3919  0.0027
 1731TIP3    H126828   5.141   4.723   0.778  0.4213  0.1100 -0.1197
 1731TIP3    H226829   5.088   4.611   0.691  1.5544  0.1004 -0.8148
 1732TIP3   OH226830   6.137   1.716   7.087  0.5385  0.0287  0.1274
 1732TIP3    H126831   6.129   1.796   7.035  1.5815 -1.7221 -3.0081
 1732TIP3    H226832   6.094   1.649   7.035  0.5955 -1.6937  2.1545
 1733TIP3   OH226833   0.518   4.113   7.999 -0.7372  0.4650 -0.3979
 1733TIP3    H126834   0.450   4.170   8.037 -0.7154 -0.9136  1.8809
 1733TIP3    H226835   0.470   4.037   7.967 -0.3718 -0.3531  0.9006
 1734TIP3   OH226836   1.798   5.907   8.074 -0.0138  0.2427 -0.3253
 1734TIP3    H126837   1.730   5.866   8.020  1.1513 -0.1881 -1.5299
 1734TIP3    H226838   1.880   5.868   8.043  0.9380  1.8620  0.0342
 1735TIP3   OH226839   1.169   4.737   6.293  0.4153  0.1175  0.0058
 1735TIP3    H126840   1.232   4.804   6.267 -2.1553  2.1262 -1.6301
 1735TIP3    H226841   1.179   4.667   6.229  2.1175 -0.4389  0.8343
 1736TIP3   OH226842   2.403   1.273   7.478 -0.0988 -0.5148 -0.6305
 1736TIP3    H126843   2.340   1.294   7.547 -0.4659 -1.4656 -0.6620
 1736TIP3    H226844   2.375   1.325   7.403  0.8076  1.2003  0.1565
 1737TIP3   OH226845   1.397   6.509   6.487 -0.9256  0.2325 -0.3496
 1737TIP3    H126846   1.381   6.456   6.409 -2.9156  1.0865 -0.5964
 1737TIP3    H226847   1.456   6.579   6.457 -0.5188 -0.2648 -0.7167
 1738TIP3   OH226848   6.277   3.559   0.432  0.4749  0.0559  0.3275
 1738TIP3    H126849   6.317   3.607   0.359 -0.7011  0.8005  0.1441
 1738TIP3    H226850   6.244   3.628   0.490  0.2727 -0.5350  0.9198
 1739TIP3   OH226851   1.511   0.833   6.809 -0.0006  0.0542 -0.5399
 1739TIP3    H126852   1.442   0.839   6.743 -0.3075  2.1305 -0.1135
 1739TIP3    H226853   1.562   0.913   6.796  0.1072  0.3535  1.5353
 1740TIP3   OH226854   6.531   3.015   0.502  0.2003 -0.2154 -0.4100
 1740TIP3    H126855   6.533   3.067   0.422  0.3598  0.2847 -0.0881
 1740TIP3    H226856   6.615   3.034   0.544  0.1205 -0.4816 -0.1343
 1741TIP3   OH226857   0.879   1.996   1.319  0.8255 -0.1737 -0.6141
 1741TIP3    H126858   0.950   2.009   1.381  1.0605  1.0563 -1.1287
 1741TIP3    H226859   0.799   2.008   1.372  0.9960  3.1586 -0.9180
 1742TIP3   OH226860   1.099   6.438   8.523 -0.0659  0.7883  0.0560
 1742TIP3    H126861   1.025   6.494   8.499 -1.8583 -1.6580 -0.5959
 1742TIP3    H226862   1.116   6.386   8.444  0.4394 -0.6427  1.0579
 1743TIP3   OH226863   6.515   3.033   0.960  0.3946 -0.4256 -0.0272
 1743TIP3    H126864   6.474   2.947   0.966 -0.9367  0.2335  0.7041
 1743TIP3    H226865   6.609   3.015   0.962  0.1490 -1.7570  2.0210
 1744TIP3   OH226866   2.599   2.299   1.697 -0.2510  0.1481 -0.1383
 1744TIP3    H126867   2.551   2.230   1.742 -0.9158 -2.7041 -4.5465
 1744TIP3    H226868   2.676   2.315   1.752 -1.9545 -1.2980  2.9312
 1745TIP3   OH226869   4.073   4.062   1.022 -0.3709 -0.1621  0.0912
 1745TIP3    H126870   4.008   3.999   1.051 -0.7533 -0.2030 -0.8118
 1745TIP3    H226871   4.157   4.021   1.041 -0.6140 -0.4594  0.5225
 1746TIP3   OH226872   2.428   2.845   1.815  0.3499  0.1330  0.0989
 1746TIP3    H126873   2.518   2.820   1.834 -0.0161 -1.8579 -0.5309
 1746TIP3    H226874   2.386   2.764   1.788 -1.3298  1.2517 -0.8341
 1747TIP3   OH226875   6.438   4.990   7.233 -0.2572 -0.6793 -0.2407
 1747TIP3    H126876   6.416   4.915   7.288  0.0809 -0.6204 -0.0201
 1747TIP3    H226877   6.466   4.951   7.150  0.3432 -0.8235  0.0229
 1748TIP3   OH226878   0.772   0.789   2.465  0.2458  0.3411 -0.1239
 1748TIP3    H126879   0.815   0.708   2.493  1.4777  1.0268  0.0332
 1748TIP3    H226880   0.821   0.858   2.509 -0.9603  1.1624 -0.0529
 1749TIP3   OH226881   3.862   2.671   7.989 -0.3082  0.4377 -0.4780
 1749TIP3    H126882   3.772   2.639   7.984  0.0543 -0.7101  0.1590
 1749TIP3    H226883   3.862   2.749   7.933 -1.7079  0.4937 -0.4399
 1750TIP3   OH226884   5.018   3.063   1.713  0.0783  0.1015 -0.1902
 1750TIP3    H126885   5.009   3.004   1.788 -1.4824  0.2042 -0.2714
 1750TIP3    H226886   4.932   3.061   1.671  0.4903  1.2079 -1.1144
 1751TIP3   OH226887   4.921   5.556   7.875 -0.3569  0.4848  0.0617
 1751TIP3    H126888   4.969   5.635   7.851 -1.0142  1.5569  2.0359
 1751TIP3    H226889   4.849   5.552   7.812  0.7023  0.3976 -1.1932
 1752TIP3   OH226890   2.117   2.439   8.227 -0.1715 -0.0036 -0.1535
 1752TIP3    H126891   2.182   2.371   8.213 -1.0364 -0.2479 -3.8783
 1752TIP3    H226892   2.048   2.422   8.163 -1.8382  2.7322  0.6924
 1753TIP3   OH226893   0.296   2.037   7.952 -0.3074  0.2375 -0.6325
 1753TIP3    H126894   0.292   2.019   7.858  2.3227 -1.0116 -0.5832
 1753TIP3    H226895   0.337   1.959   7.990 -0.0192  1.2871  1.3639
 1754TIP3   OH226896   5.907   2.356   0.128  0.4416  0.8487  0.2999
 1754TIP3    H126897   5.929   2.444   0.159  0.6226  0.8875  0.0612
 1754TIP3    H226898   5.813   2.358   0.114  0.6134  1.3837 -0.9008
 1755TIP3   OH226899   1.228   0.175   1.201  0.3268  0.0798  0.4064
 1755TIP3    H126900   1.144   0.220   1.205 -1.8395 -3.6045  0.6627
 1755TIP3    H226901   1.207   0.086   1.173  4.4644 -0.4566 -1.8988
 1756TIP3   OH226902   5.645   1.392   7.067  0.5041 -0.7480 -0.0191
 1756TIP3    H126903   5.689   1.335   7.003  1.6002 -1.0784  0.9955
 1756TIP3    H226904   5.620   1.333   7.138  2.1902  0.0744  1.3314
 1757TIP3   OH226905   1.696   0.408   1.882  0.2136  0.1025 -0.3283
 1757TIP3    H126906   1.683   0.479   1.819  0.1946 -0.0725 -0.5237
 1757TIP3    H226907   1.649   0.333   1.844  0.4316 -0.0805 -0.2414
 1758TIP3   OH226908   6.520   4.427   1.527 -0.5654 -0.3220 -0.1793
 1758TIP3    H126909   6.542   4.414   1.619  0.4456 -0.1917 -0.3929
 1758TIP3    H226910   6.604   4.440   1.484 -0.8968 -1.9067 -1.3792
 1759TIP3   OH226911   3.573   1.634   8.317  0.6238 -0.1001  0.1889
 1759TIP3    H126912   3.650   1.587   8.350  1.0669 -0.7223 -1.6209
 1759TIP3    H226913   3.514   1.640   8.393  2.0839 -0.3622  1.3825
 1760TIP3   OH226914   0.802   0.485   6.246  0.4020  0.0135  0.2964
 1760TIP3    H126915   0.758   0.474   6.330  1.0675 -0.3258  0.6089
 1760TIP3    H226916   0.880   0.538   6.266  1.4568 -1.4558  0.1996
 1761TIP3   OH226917   4.993   6.137   8.211  0.4309  0.1661  0.3616
 1761TIP3    H126918   5.061   6.196   8.180  0.9470 -0.4039  0.3806
 1761TIP3    H226919   4.977   6.163   8.301  1.2002 -0.2045  0.6121
 1762TIP3   OH226920   0.590   4.123   0.124 -0.0549  0.3227  0.3039
 1762TIP3    H126921   0.618   4.036   0.151 -1.2905 -0.2094 -0.0327
 1762TIP3    H226922   0.537   4.108   0.045 -2.5706  1.0613  1.7396
 1763TIP3   OH226923   0.546   0.485   6.993  0.1679 -0.0248 -0.1650
 1763TIP3    H126924   0.620   0.438   7.031 -0.0606  0.1068  0.4503
 1763TIP3    H226925   0.498   0.418   6.944  1.8310  0.2739 -2.3684
 1764TIP3   OH226926   2.352   1.798   8.707 -0.7259  0.3560 -0.0458
 1764TIP3    H126927   2.405   1.787   8.786 -0.5969  0.9951 -0.0352
 1764TIP3    H226928   2.409   1.773   8.635 -1.2318 -1.4447  0.1229
 1765TIP3   OH226929   3.198   6.085   7.578  0.0920  0.0735 -0.0299
 1765TIP3    H126930   3.136   6.013   7.582  0.2278 -0.0245  0.3906
 1765TIP3    H226931   3.246   6.080   7.661  0.0921  0.6566  0.0082
 1766TIP3   OH226932   2.889   0.213   6.349 -0.6428 -0.0082  0.5561
 1766TIP3    H126933   2.886   0.130   6.396 -0.7582  0.9631  2.3203
 1766TIP3    H226934   2.919   0.189   6.261 -0.1656 -1.8421  1.1756
 1767TIP3   OH226935   6.224   6.255   1.912  0.1126 -0.8290  0.0694
 1767TIP3    H126936   6.319   6.243   1.912  0.2837  0.3087  0.8677
 1767TIP3    H226937   6.212   6.346   1.885 -0.7643 -1.0601 -0.3255
 1768TIP3   OH226938   2.231   4.258   6.838 -0.1890  0.3122  0.1843
 1768TIP3    H126939   2.270   4.331   6.790  0.4637  0.7236  1.3001
 1768TIP3    H226940   2.204   4.196   6.771 -0.1291  1.2762 -0.7484
 1769TIP3   OH226941   1.960   1.312   0.648 -0.6091 -0.5131 -0.1461
 1769TIP3    H126942   1.876   1.285   0.611  0.4761 -2.6835 -1.1984
 1769TIP3    H226943   1.970   1.404   0.621 -2.9655  0.0464  0.6994
 1770TIP3   OH226944   2.659   2.719   7.777  0.2873  0.3787 -0.6148
 1770TIP3    H126945   2.736   2.713   7.834 -0.0016  1.9720 -0.0191
 1770TIP3    H226946   2.651   2.812   7.757 -2.4264  0.5178  0.6586
 1771TIP3   OH226947   6.506   4.045   8.870 -0.2598 -0.2980  0.0860
 1771TIP3    H126948   6.426   3.991   8.865 -0.3319 -0.0933 -1.2069
 1771TIP3    H226949   6.490   4.103   8.944 -0.5223 -1.5008  1.0095
 1772TIP3   OH226950   4.650   5.226   8.140 -0.0988 -0.4794 -0.0347
 1772TIP3    H126951   4.627   5.314   8.169  0.7017 -0.2229 -0.1692
 1772TIP3    H226952   4.616   5.169   8.210 -0.5937 -0.0721  0.0652
 1773TIP3   OH226953   4.830   2.720   8.720 -0.6017 -0.7667 -0.1853
 1773TIP3    H126954   4.804   2.628   8.730 -2.2123 -0.2820  0.5274
 1773TIP3    H226955   4.795   2.746   8.635 -0.4278 -0.7339 -0.2461
 1774TIP3   OH226956   4.285   6.491   1.467  0.0357  0.0863  0.2886
 1774TIP3    H126957   4.317   6.465   1.554 -2.3619  2.0905  1.9371
 1774TIP3    H226958   4.302   6.416   1.411  4.9937 -0.0417  1.4785
 1775TIP3   OH226959   2.775   5.014   1.334  0.2119 -0.3241 -0.2202
 1775TIP3    H126960   2.840   4.987   1.398 -0.0510  0.2821  0.3170
 1775TIP3    H226961   2.812   4.989   1.249  0.3108 -1.6588  0.1920
 1776TIP3   OH226962   2.943   6.612   7.379 -0.2496  0.0385  0.4676
 1776TIP3    H126963   2.898   6.570   7.306 -0.7911  2.0272 -0.4074
 1776TIP3    H226964   3.030   6.631   7.346 -0.1206 -0.0805  0.7397
 1777TIP3   OH226965   0.350   0.678   1.575  0.1644  0.2659 -0.0405
 1777TIP3    H126966   0.399   0.721   1.505 -0.6875  0.1571 -0.7177
 1777TIP3    H226967   0.390   0.591   1.582 -0.1282  0.0530 -0.8270
 1778TIP3   OH226968   2.026   0.991   0.102  0.1187 -0.0199  0.2002
 1778TIP3    H126969   2.020   0.932   0.028  2.4161  0.6769 -0.6156
 1778TIP3    H226970   1.983   1.072   0.072  1.4797  0.4322 -0.6013
 1779TIP3   OH226971   0.674   3.814   6.002 -0.1506 -0.8440  0.3326
 1779TIP3    H126972   0.739   3.790   6.068 -1.3245 -2.9957  0.7934
 1779TIP3    H226973   0.635   3.731   5.975 -0.8082  0.1339 -1.9471
 1780TIP3   OH226974   4.439   4.165   8.575 -0.4089  0.2699  0.1250
 1780TIP3    H126975   4.499   4.091   8.569 -0.6179  0.0894  0.2187
 1780TIP3    H226976   4.489   4.240   8.544 -0.7096 -0.1887 -1.5690
 1781TIP3   OH226977   0.648   5.667   7.126  0.0712  0.4423 -0.0581
 1781TIP3    H126978   0.704   5.704   7.195  1.0302  0.2432 -0.7016
 1781TIP3    H226979   0.710   5.628   7.064 -0.8313 -3.3431  1.1419
 1782TIP3   OH226980   3.113   1.526   6.874  0.0879 -0.1844 -0.6166
 1782TIP3    H126981   3.042   1.567   6.825 -0.8050 -1.6472 -0.6216
 1782TIP3    H226982   3.181   1.593   6.880 -1.1621  1.1419 -0.8946
 1783TIP3   OH226983   1.188   0.918   2.409 -0.0466  0.1914  0.4044
 1783TIP3    H126984   1.122   0.941   2.344  1.1372  1.3640 -0.4178
 1783TIP3    H226985   1.271   0.950   2.373  1.2892 -2.6688  0.6004
 1784TIP3   OH226986   0.557   0.014   1.380 -0.1783 -0.3185  0.3675
 1784TIP3    H126987   0.565   0.109   1.369 -1.1090 -0.3130 -0.4788
 1784TIP3    H226988   0.471   0.002   1.420  0.1299 -0.7838  0.8959
 1785TIP3   OH226989   5.276   3.177   1.041  0.0385  0.5278  0.3054
 1785TIP3    H126990   5.300   3.093   1.080 -1.5468 -0.5351 -0.8512
 1785TIP3    H226991   5.183   3.186   1.062 -0.3103  0.9671 -1.3447
 1786TIP3   OH226992   0.601   6.582   1.240 -0.2445 -0.0520 -0.4341
 1786TIP3    H126993   0.601   6.663   1.292 -0.4153 -0.2249 -0.1617
 1786TIP3    H226994   0.509   6.563   1.225 -0.2312 -0.6062  0.1485
 1787TIP3   OH226995   5.459   5.263   7.674 -0.1440  0.3841  0.4291
 1787TIP3    H126996   5.444   5.173   7.645 -0.5761  0.4652  0.3887
 1787TIP3    H226997   5.529   5.296   7.619  0.9229 -0.3484  1.3059
 1788TIP3   OH226998   5.592   6.232   8.416  0.1967  0.1025  0.2448
 1788TIP3    H126999   5.632   6.315   8.389  0.1208 -0.5061 -1.9581
 1788TIP3    H227000   5.499   6.243   8.395  0.0606 -0.2968  0.6124
 1789TIP3   OH227001   6.721   5.506   1.678  0.2756 -0.7352 -0.5724
 1789TIP3    H127002   6.650   5.494   1.614  0.8743 -1.4179 -1.1269
 1789TIP3    H227003   6.725   5.423   1.726  0.1000 -0.3714  0.0827
 1790TIP3   OH227004   0.364   1.805   8.076  0.6943 -0.0309  0.3414
 1790TIP3    H127005   0.382   1.732   8.136 -0.9271 -0.9088 -0.1801
 1790TIP3    H227006   0.323   1.763   8.000 -1.7896  1.5542  0.7000
 1791TIP3   OH227007   0.995   2.305   0.546  0.5497  0.1852  0.6739
 1791TIP3    H127008   0.958   2.384   0.507 -0.8947 -1.3114 -1.1831
 1791TIP3    H227009   0.927   2.273   0.604  0.1338 -0.9142 -0.3782
 1792TIP3   OH227010   4.035   4.345   8.438 -0.2620  0.2696  0.1610
 1792TIP3    H127011   4.074   4.335   8.525  0.2517 -0.5347 -0.1455
 1792TIP3    H227012   4.087   4.287   8.382 -1.2088  0.0121 -0.4823
 1793TIP3   OH227013   3.346   6.610   1.140 -0.0865  0.4931 -0.1246
 1793TIP3    H127014   3.342   6.610   1.044  1.5403  0.8120 -0.2263
 1793TIP3    H227015   3.268   6.658   1.167 -0.5939  0.3621 -1.2836
 1794TIP3   OH227016   4.631   4.470   6.347  0.4562  0.1106  0.4865
 1794TIP3    H127017   4.601   4.543   6.403  0.5979 -0.3139  1.1266
 1794TIP3    H227018   4.636   4.395   6.407  1.3743 -0.1682  0.0686
 1795TIP3   OH227019   2.123   6.480   6.469 -0.5409 -0.1696 -0.2696
 1795TIP3    H127020   2.201   6.523   6.434 -1.5700  0.4513 -1.9209
 1795TIP3    H227021   2.130   6.390   6.437  0.9018 -0.9739  2.0209
 1796TIP3   OH227022   0.377   4.955   1.361 -0.3272  0.4313 -0.3849
 1796TIP3    H127023   0.328   5.030   1.326  0.6796  2.2625  1.8666
 1796TIP3    H227024   0.318   4.914   1.424 -0.6611 -0.3597 -1.1876
 1797TIP3   OH227025   0.551   5.869   6.821  0.3435 -0.1211  0.0973
 1797TIP3    H127026   0.645   5.856   6.811  0.4741  1.3918 -0.9533
 1797TIP3    H227027   0.540   5.964   6.826 -1.1018 -0.2873  0.5263
 1798TIP3   OH227028   6.508   1.924   7.230 -0.0518 -0.1848  0.1511
 1798TIP3    H127029   6.454   1.931   7.152  0.3948 -0.2654 -0.1745
 1798TIP3    H227030   6.454   1.957   7.301  0.1769  1.6004 -0.4751
 1799TIP3   OH227031   0.150   6.087   0.808  0.3555  0.1119 -0.0384
 1799TIP3    H127032   0.059   6.113   0.795  0.4708  2.6874  3.1810
 1799TIP3    H227033   0.197   6.126   0.734 -0.7984  1.1349 -0.2622
 1800TIP3   OH227034   1.930   1.990   1.439 -0.5355 -0.4030  0.3546
 1800TIP3    H127035   1.920   1.971   1.345 -0.3401  0.0333  0.2435
 1800TIP3    H227036   2.015   2.034   1.445 -0.2038 -1.0934  0.8368
 1801TIP3   OH227037   0.018   4.287   1.089 -0.3145 -0.2043 -0.5475
 1801TIP3    H127038  -0.074   4.312   1.084 -0.1710  0.3330 -0.5336
 1801TIP3    H227039   0.045   4.311   1.177 -0.5372 -1.7133 -0.0272
 1802TIP3   OH227040   3.253   2.349   8.777 -0.0329  0.1359 -0.3958
 1802TIP3    H127041   3.292   2.436   8.782 -2.1845  1.2741 -1.8168
 1802TIP3    H227042   3.284   2.313   8.695  1.4166 -0.7832  0.5179
 1803TIP3   OH227043   5.477   2.287   0.156 -0.5394 -0.0680 -0.3181
 1803TIP3    H127044   5.544   2.312   0.092  0.8331 -0.5173  0.8650
 1803TIP3    H227045   5.527   2.250   0.229 -2.0526  0.2072  0.9207
 1804TIP3   OH227046   0.174   1.347   8.458  0.0397  0.0715  0.1307
 1804TIP3    H127047   0.137   1.327   8.372 -1.5533 -1.2404  1.0609
 1804TIP3    H227048   0.115   1.305   8.520  2.3668 -0.9352  1.8133
 1805TIP3   OH227049   5.468   5.216   8.439 -0.5521  0.1914  0.1114
 1805TIP3    H127050   5.508   5.297   8.468 -1.3047  0.2949  0.9014
 1805TIP3    H227051   5.478   5.156   8.513 -0.1199 -0.3974 -0.4112
 1806TIP3   OH227052   2.499   0.692   6.745  0.5177 -0.0982  0.3682
 1806TIP3    H127053   2.427   0.747   6.714 -0.2526 -0.7759  0.9194
 1806TIP3    H227054   2.464   0.603   6.743  1.5430 -0.5032  0.0840
 1807TIP3   OH227055   0.332   2.191   1.167  0.0129  0.0951 -0.3311
 1807TIP3    H127056   0.283   2.273   1.164  0.7105  0.5336 -0.1068
 1807TIP3    H227057   0.419   2.215   1.135  0.9759  0.0179  2.0324
 1808TIP3   OH227058   6.415   3.245   1.205 -0.3544 -0.2151 -0.6030
 1808TIP3    H127059   6.413   3.182   1.276  0.3127 -0.6300 -0.9373
 1808TIP3    H227060   6.324   3.268   1.190 -0.4211  2.8559  2.9689
 1809TIP3   OH227061   6.199   5.911   1.210 -0.5364 -0.0617  0.3717
 1809TIP3    H127062   6.104   5.920   1.217 -0.4794  0.5827  0.4103
 1809TIP3    H227063   6.213   5.863   1.128 -0.8830  0.0691  0.2347
 1810TIP3   OH227064   3.163   6.394   0.226  0.2993  0.1790  0.0122
 1810TIP3    H127065   3.174   6.316   0.172 -1.0280  0.8649 -1.2941
 1810TIP3    H227066   3.112   6.364   0.302 -0.3859 -0.1917 -0.5871
 1811TIP3   OH227067   5.905   1.083   0.883 -0.8519  0.2805 -0.0916
 1811TIP3    H127068   5.894   1.152   0.948 -2.2925 -0.2666  0.2871
 1811TIP3    H227069   5.851   1.010   0.916  0.2667 -0.8691 -0.7023
 1812TIP3   OH227070   2.330   5.177   1.088 -0.0496  0.5388 -0.6493
 1812TIP3    H127071   2.369   5.170   1.176 -2.1228 -0.5076  0.2454
 1812TIP3    H227072   2.391   5.128   1.032 -0.2362 -1.4739  0.7767
 1813TIP3   OH227073   1.942   0.389   8.779 -0.2908  0.6358 -0.0088
 1813TIP3    H127074   1.971   0.393   8.688 -1.6921  0.2840 -0.5070
 1813TIP3    H227075   2.018   0.358   8.828  0.4416  0.6971 -1.0844
 1814TIP3   OH227076   2.206   2.020   1.312 -0.1609 -0.3760 -0.2295
 1814TIP3    H127077   2.292   1.980   1.325 -0.4009  0.0123  4.2440
 1814TIP3    H227078   2.149   1.948   1.288  0.9349 -1.1524 -0.5582
 1815TIP3   OH227079   3.986   1.534   7.692  0.1522 -0.0629  0.3060
 1815TIP3    H127080   3.968   1.627   7.707 -0.2134 -0.1365  0.3420
 1815TIP3    H227081   4.079   1.524   7.713 -0.2329 -0.0713  2.1816
 1816TIP3   OH227082   0.153   1.272   0.489  0.4957 -0.5559  0.2913
 1816TIP3    H127083   0.096   1.307   0.557 -0.8922 -0.2140 -1.0077
 1816TIP3    H227084   0.175   1.183   0.519  1.5061  0.2468  2.0804
 1817TIP3   OH227085   0.609   3.277   7.066 -0.4352 -0.2959 -0.1383
 1817TIP3    H127086   0.596   3.192   7.024 -2.2513  0.2189 -0.6963
 1817TIP3    H227087   0.562   3.270   7.149  0.6065 -0.2829  0.4753
 1818TIP3   OH227088   0.730   4.408   1.061  0.0983 -0.0479 -0.4389
 1818TIP3    H127089   0.731   4.358   1.143 -0.6922 -0.7739 -0.8571
 1818TIP3    H227090   0.707   4.344   0.994 -1.8725  1.0257 -0.8719
 1819TIP3   OH227091   3.808   6.057   8.559  0.4340  0.0875 -0.3739
 1819TIP3    H127092   3.805   6.058   8.655 -0.7002  0.6279 -0.4066
 1819TIP3    H227093   3.721   6.031   8.532  0.6270  0.3414 -1.2723
 1820TIP3   OH227094   4.086   0.480   7.558 -0.2448 -0.0369  0.1699
 1820TIP3    H127095   4.048   0.566   7.574  2.0531  1.1387 -0.2631
 1820TIP3    H227096   4.085   0.436   7.643 -1.7799  0.2174  0.3163
 1821TIP3   OH227097   3.697   3.556   7.295  0.4048  0.0887  0.2434
 1821TIP3    H127098   3.610   3.516   7.301 -0.4485  2.1082  2.9625
 1821TIP3    H227099   3.681   3.650   7.296  2.6393  0.5260  1.4165
 1822TIP3   OH227100   1.371   0.157   8.538  0.2151  0.3086 -0.3396
 1822TIP3    H127101   1.330   0.125   8.618 -1.0576 -0.9872 -1.4329
 1822TIP3    H227102   1.305   0.215   8.499  0.6683  0.6407 -0.6306
 1823TIP3   OH227103   3.146   6.216   0.927 -0.7254  0.0556 -0.3640
 1823TIP3    H127104   3.235   6.250   0.931 -0.4991 -0.6280  0.6472
 1823TIP3    H227105   3.154   6.133   0.881 -0.7907 -0.1579  0.0073
 1824TIP3   OH227106   0.084   4.532   1.225  0.1178 -0.3799 -0.3106
 1824TIP3    H127107   0.076   4.620   1.187 -0.0407 -0.3288 -0.1584
 1824TIP3    H227108   0.153   4.490   1.174  0.1413 -0.1920 -0.4332
 1825TIP3   OH227109   1.837   0.536   1.109  0.3354  0.1379 -0.0696
 1825TIP3    H127110   1.914   0.479   1.104  0.5346  0.4068 -0.0874
 1825TIP3    H227111   1.836   0.568   1.199  0.8941  1.0259 -0.3672
 1826TIP3   OH227112   2.928   0.362   1.561  0.2949  0.1229  0.2468
 1826TIP3    H127113   2.933   0.449   1.520  0.2908  0.3096  0.6416
 1826TIP3    H227114   2.841   0.330   1.537  1.0711 -0.6862 -1.7194
 1827TIP3   OH227115   4.837   2.446   1.284 -0.0192 -0.4489  0.2228
 1827TIP3    H127116   4.928   2.424   1.303  0.2016  0.7303  0.6231
 1827TIP3    H227117   4.793   2.362   1.276  1.2637 -1.0653 -0.8085
 1828TIP3   OH227118   1.015   3.555   0.563  0.4855 -0.0692  0.1195
 1828TIP3    H127119   1.086   3.577   0.502 -2.1260  2.3688 -2.3297
 1828TIP3    H227120   1.000   3.635   0.613 -1.8375  0.2369 -0.9329
 1829TIP3   OH227121   1.935   5.441   8.171 -0.2596  0.0282  0.3788
 1829TIP3    H127122   2.026   5.466   8.157 -0.2319 -1.2083 -2.2054
 1829TIP3    H227123   1.884   5.514   8.134 -0.2689 -0.2429 -0.1560
 1830TIP3   OH227124   1.555   4.536   7.109 -0.5580  0.3224  0.1625
 1830TIP3    H127125   1.574   4.477   7.182  0.0931  0.1799 -0.1177
 1830TIP3    H227126   1.626   4.520   7.047 -1.1905  0.3315 -0.5717
 1831TIP3   OH227127   3.784   3.418   8.569 -0.0791 -0.2260  0.3173
 1831TIP3    H127128   3.704   3.409   8.518  0.9254 -1.3131 -1.1375
 1831TIP3    H227129   3.854   3.388   8.511  1.5308  1.6155  1.1902
 1832TIP3   OH227130   0.648   0.598   8.346  0.4900 -0.4440 -0.0476
 1832TIP3    H127131   0.565   0.553   8.357 -0.8785  1.5308 -1.5679
 1832TIP3    H227132   0.661   0.601   8.251  0.0943  2.9334 -0.1115
 1833TIP3   OH227133   2.053   6.266   6.175  0.3144 -0.1618 -0.3562
 1833TIP3    H127134   1.985   6.331   6.194 -0.2746 -0.6465 -0.7265
 1833TIP3    H227135   2.061   6.267   6.080  0.3681 -0.5619 -0.3578
 1834TIP3   OH227136   4.752   3.722   7.576 -0.5216  0.1663  0.0564
 1834TIP3    H127137   4.749   3.631   7.604  3.4722 -0.3455 -0.5431
 1834TIP3    H227138   4.762   3.718   7.481 -0.7023  1.2555 -0.0283
 1835TIP3   OH227139   4.938   1.841   7.668  0.4365  0.5115 -0.2162
 1835TIP3    H127140   5.002   1.771   7.657 -1.0561 -0.8140 -0.9545
 1835TIP3    H227141   4.875   1.806   7.731 -0.9882  0.6646 -1.4979
 1836TIP3   OH227142   2.841   5.669   8.149  0.1273 -0.1888  0.2936
 1836TIP3    H127143   2.752   5.647   8.174  0.1792 -0.6430  0.0814
 1836TIP3    H227144   2.831   5.714   8.065  0.0029  0.8249  0.8347
 1837TIP3   OH227145   6.743   4.406   6.857 -0.0807  0.3336 -0.3489
 1837TIP3    H127146   6.723   4.314   6.842  2.3938 -0.0706 -1.7344
 1837TIP3    H227147   6.695   4.453   6.788  0.5106 -0.1814 -1.1260
 1838TIP3   OH227148   1.975   1.364   6.095 -0.2031 -0.7788  0.1630
 1838TIP3    H127149   1.886   1.364   6.130  0.1572 -2.2096  1.2020
 1838TIP3    H227150   2.022   1.301   6.151  1.8717  1.0914  0.6728
 1839TIP3   OH227151   0.742   0.742   0.376  0.6159 -0.2078  0.5087
 1839TIP3    H127152   0.657   0.754   0.335  0.4948  0.4030  0.9311
 1839TIP3    H227153   0.791   0.688   0.313 -0.6744 -2.1493  1.0777
 1840TIP3   OH227154   0.346   0.026   7.786  0.3563 -0.1251 -0.0123
 1840TIP3    H127155   0.311   0.063   7.867 -0.0974  0.0678 -0.3007
 1840TIP3    H227156   0.415   0.087   7.760  0.9944 -0.5625  0.6113
 1841TIP3   OH227157   1.647   3.971   0.763 -0.0968  0.2767  0.5827
 1841TIP3    H127158   1.687   4.043   0.810  0.5889  0.0372  0.3714
 1841TIP3    H227159   1.553   3.989   0.768  0.1034  1.7649 -0.3706
 1842TIP3   OH227160   5.472   1.830   8.309  0.5547 -0.2283 -0.2720
 1842TIP3    H127161   5.407   1.762   8.289  0.8462 -1.3643  2.1738
 1842TIP3    H227162   5.487   1.820   8.403  1.1724  2.8029  0.0326
 1843TIP3   OH227163   5.438   5.649   0.861 -0.0002  0.3901  0.6596
 1843TIP3    H127164   5.404   5.734   0.834 -0.2405 -0.0331 -0.4201
 1843TIP3    H227165   5.486   5.667   0.942 -1.7988  1.1969  1.5978
 1844TIP3   OH227166   6.706   4.348   0.074  0.1615  0.9316 -0.5479
 1844TIP3    H127167   6.723   4.261   0.111 -1.6067  0.9084  0.3219
 1844TIP3    H227168   6.790   4.393   0.080  0.5049  0.1687  1.4929
 1845TIP3   OH227169   4.568   0.995   0.939  0.3615 -0.0768  0.8956
 1845TIP3    H127170   4.486   0.948   0.920  0.5986  0.0089 -0.4354
 1845TIP3    H227171   4.569   1.002   1.035 -1.8579  1.1224  0.9063
 1846TIP3   OH227172   6.472   6.240   0.884 -0.3495 -0.5078  0.0491
 1846TIP3    H127173   6.463   6.330   0.916  0.2880 -0.2180 -0.5746
 1846TIP3    H227174   6.398   6.230   0.824  1.4557  0.7851 -2.5524
 1847TIP3   OH227175   4.734   4.843   7.448 -0.1586 -0.1853 -0.3511
 1847TIP3    H127176   4.825   4.872   7.443 -1.0707  3.0123 -0.5693
 1847TIP3    H227177   4.710   4.826   7.357  0.3863 -1.8899 -0.2197
 1848TIP3   OH227178   5.589   6.620   6.614 -0.0053 -0.0429  0.2673
 1848TIP3    H127179   5.654   6.563   6.573 -0.5809 -1.0107  0.6702
 1848TIP3    H227180   5.505   6.582   6.590 -0.4125  0.7186  0.4414
 1849TIP3   OH227181   1.428   6.730   0.930 -0.1869  0.1657  0.3008
 1849TIP3    H127182   1.423   6.686   0.845 -0.0613 -0.2294  0.4932
 1849TIP3    H227183   1.520   6.720   0.957 -0.1178  0.6962  0.2704
 1850TIP3   OH227184   0.181   4.427   8.320 -0.0993  0.5257 -0.0053
 1850TIP3    H127185   0.153   4.377   8.397 -0.9798  1.4485  0.2948
 1850TIP3    H227186   0.108   4.419   8.258  0.2188  0.5380 -0.3855
 1851TIP3   OH227187   4.698   4.263   7.333 -0.0281  0.3329  0.1004
 1851TIP3    H127188   4.727   4.173   7.342  0.8415  0.6992  1.1378
 1851TIP3    H227189   4.608   4.263   7.366  0.4698  0.1197  1.4956
 1852TIP3   OH227190   1.409   4.898   6.215 -0.4318  0.2397  0.6520
 1852TIP3    H127191   1.462   4.977   6.216 -0.3798  0.2240 -0.2172
 1852TIP3    H227192   1.383   4.887   6.124 -5.2409  2.4453  1.4163
 1853TIP3   OH227193   5.418   6.490   0.498 -0.3441 -0.3758  0.1884
 1853TIP3    H127194   5.440   6.419   0.439 -2.7325 -0.4615 -0.7266
 1853TIP3    H227195   5.356   6.544   0.448 -0.8144  0.7271  1.8752
 1854TIP3   OH227196   5.343   0.890   0.872 -0.3435  0.3495 -0.0580
 1854TIP3    H127197   5.274   0.951   0.897  0.8517  1.5219  0.5046
 1854TIP3    H227198   5.398   0.882   0.950  0.5126 -0.0546 -0.6834
 1855TIP3   OH227199   3.592   2.341   8.838  0.5220 -0.0218  0.1123
 1855TIP3    H127200   3.584   2.420   8.890  2.3583  0.6826 -0.5706
 1855TIP3    H227201   3.681   2.309   8.856  0.3181 -1.1307 -0.6926
 1856TIP3   OH227202   6.371   1.399   1.037  0.0379 -0.5916  0.1312
 1856TIP3    H127203   6.436   1.364   0.976 -0.2876 -1.3415  0.2048
 1856TIP3    H227204   6.290   1.355   1.013  0.0558 -1.5095  1.5932
 1857TIP3   OH227205   1.393   3.456   2.111  0.4988 -0.2376  0.0875
 1857TIP3    H127206   1.471   3.480   2.163 -0.5011  0.8213  1.1660
 1857TIP3    H227207   1.320   3.465   2.172 -0.5617 -0.5950 -1.0838
 1858TIP3   OH227208   6.371   0.681   8.099 -0.0407 -0.4332  0.5225
 1858TIP3    H127209   6.305   0.728   8.049  1.5276  0.8516 -0.4492
 1858TIP3    H227210   6.452   0.691   8.048  1.4128  0.0280  2.7368
 1859TIP3   OH227211   1.574   4.843   1.340 -0.3788 -0.8974  0.3971
 1859TIP3    H127212   1.623   4.767   1.309  1.3529  0.8228 -1.2943
 1859TIP3    H227213   1.638   4.913   1.345 -2.4883  1.3246 -1.3841
 1860TIP3   OH227214   2.491   1.738   7.736 -0.8659 -0.3773 -0.7030
 1860TIP3    H127215   2.552   1.791   7.787 -0.4023 -2.0124  0.5164
 1860TIP3    H227216   2.518   1.648   7.752 -0.5463 -1.0101 -4.0519
 1861TIP3   OH227217   4.416   1.147   8.512 -0.3204  0.2592 -0.0149
 1861TIP3    H127218   4.509   1.167   8.520  0.3424 -2.1602 -0.6910
 1861TIP3    H227219   4.396   1.089   8.586 -0.6956 -0.9918 -1.0480
 1862TIP3   OH227220   3.993   1.992   8.839 -0.0118  0.0464 -0.5944
 1862TIP3    H127221   4.013   1.959   8.926 -2.8257 -0.7937 -0.1566
 1862TIP3    H227222   4.073   2.035   8.810  1.0346  0.2646  2.3467
 1863TIP3   OH227223   5.701   0.507   8.275  0.5669 -0.5174 -0.0764
 1863TIP3    H127224   5.620   0.489   8.227  0.8647  0.7068 -1.0808
 1863TIP3    H227225   5.673   0.551   8.355  0.1344 -1.7818  0.5092
 1864TIP3   OH227226   2.953   3.693   7.370 -0.2796 -0.0626  0.2492
 1864TIP3    H127227   3.018   3.726   7.433  1.8697  1.6093 -2.5942
 1864TIP3    H227228   3.004   3.643   7.307 -1.7432  1.1622 -2.0315
 1865TIP3   OH227229   5.096   0.020   8.769 -0.2865 -0.3563 -0.4269
 1865TIP3    H127230   5.013   0.045   8.730 -0.2330  0.5219 -0.0024
 1865TIP3    H227231   5.073  -0.031   8.847 -0.4124 -0.7317 -0.7082
 1866TIP3   OH227232   5.389   6.690   1.638  0.0884 -0.0103 -0.2755
 1866TIP3    H127233   5.298   6.718   1.650 -0.3293 -0.4643 -2.1061
 1866TIP3    H227234   5.440   6.751   1.692 -1.2530  0.6046  0.3470
 1867TIP3   OH227235   1.962   3.717   0.421  0.1915 -0.2323  0.4890
 1867TIP3    H127236   1.929   3.651   0.482  0.0282 -1.2026 -0.6205
 1867TIP3    H227237   2.005   3.667   0.352  3.7973  0.9219  1.6398
 1868TIP3   OH227238   4.980   2.592   0.936  0.6846  0.9236  0.0985
 1868TIP3    H127239   4.904   2.535   0.922 -0.5877  2.7917 -1.0584
 1868TIP3    H227240   5.053   2.542   0.900  0.0043 -0.8542  1.0721
 1869TIP3   OH227241   1.636   1.582   2.554 -0.5980  0.1245 -0.6694
 1869TIP3    H127242   1.541   1.591   2.561 -0.6401 -1.3340  4.0295
 1869TIP3    H227243   1.671   1.656   2.603  0.6188 -0.3948 -0.7225
 1870TIP3   OH227244   3.103   4.136   1.685  0.3141  0.2024 -0.2954
 1870TIP3    H127245   3.125   4.044   1.668  1.4787  0.3531  0.2935
 1870TIP3    H227246   3.113   4.145   1.780 -1.2007  0.5979 -0.1474
 1871TIP3   OH227247   2.039   4.171   7.998  0.3188  0.3185 -0.4139
 1871TIP3    H127248   2.089   4.111   8.052 -1.0080  0.7428  1.3722
 1871TIP3    H227249   1.955   4.127   7.983 -1.1426  2.0912  1.9296
 1872TIP3   OH227250   2.937   1.501   0.569 -0.2780  0.3520  0.6993
 1872TIP3    H127251   2.875   1.574   0.570  0.7826  1.3829 -1.6873
 1872TIP3    H227252   3.023   1.542   0.573  0.3624 -1.0142  2.9325
 1873TIP3   OH227253   1.844   2.129   2.367 -0.0081  0.6663 -0.3021
 1873TIP3    H127254   1.772   2.188   2.350 -0.5549 -0.2621 -1.3739
 1873TIP3    H227255   1.911   2.153   2.303 -0.5429 -0.3447 -1.2766
 1874TIP3   OH227256   0.879   6.049   7.281  0.1973 -0.5591  0.6055
 1874TIP3    H127257   0.879   6.023   7.373  0.6776  0.1458  0.8156
 1874TIP3    H227258   0.970   6.039   7.253  0.2576  0.1911  0.5021
 1875TIP3   OH227259   4.551   1.196   6.440 -0.4154  0.1177  0.2161
 1875TIP3    H127260   4.600   1.265   6.485  0.2156 -0.2406  0.0890
 1875TIP3    H227261   4.465   1.234   6.425  0.0668  1.0613 -0.2655
 1876TIP3   OH227262   4.240   0.151   0.551 -0.2362  0.2020  0.6064
 1876TIP3    H127263   4.154   0.135   0.591 -0.9723  1.5273 -0.3964
 1876TIP3    H227264   4.283   0.065   0.553 -1.7619 -0.5964  0.6860
 1877TIP3   OH227265   5.695   3.941   7.623  0.1818 -0.4502 -0.3186
 1877TIP3    H127266   5.716   3.925   7.715  0.4812  0.9552 -0.1080
 1877TIP3    H227267   5.658   3.859   7.592 -1.5889 -0.4371  1.5370
 1878TIP3   OH227268   5.920   4.193   0.042  0.7164  0.7236 -0.1784
 1878TIP3    H127269   5.974   4.186   0.121 -0.9397  2.1782  1.1334
 1878TIP3    H227270   5.865   4.114   0.043 -1.4964  2.1728  1.8989
 1879TIP3   OH227271   2.708   6.099   1.206  0.1214  0.2844  0.2653
 1879TIP3    H127272   2.652   6.097   1.128 -0.1214 -2.7380  0.4004
 1879TIP3    H227273   2.650   6.131   1.275 -1.1900 -1.5797  0.1305
 1880TIP3   OH227274   6.721   0.243   1.049  0.1011  0.2237  0.1231
 1880TIP3    H127275   6.642   0.209   1.092  1.4480 -0.1058  2.4941
 1880TIP3    H227276   6.704   0.337   1.039 -0.7935  0.0698  0.1066
 1881TIP3   OH227277   5.927   2.773   8.487  0.0798  0.3265 -0.6534
 1881TIP3    H127278   5.855   2.724   8.448  0.2296 -1.1790  0.8451
 1881TIP3    H227279   5.929   2.744   8.579  2.3318  0.6101 -0.5496
 1882TIP3   OH227280   2.914   6.370   1.669 -0.0259 -0.4486 -0.1195
 1882TIP3    H127281   2.897   6.461   1.695 -2.5288 -1.3555  1.7759
 1882TIP3    H227282   2.950   6.329   1.747  0.8213 -1.1655 -0.8763
 1883TIP3   OH227283   5.823   4.877   0.466 -0.1151 -0.4258 -0.2107
 1883TIP3    H127284   5.822   4.878   0.562  2.4791  0.7734 -0.1128
 1883TIP3    H227285   5.772   4.799   0.443 -0.8545 -0.7267  2.1227
 1884TIP3   OH227286   5.192   3.301   8.063 -0.0551 -0.1035 -0.4509
 1884TIP3    H127287   5.221   3.318   7.973 -1.8473  2.8410 -0.6048
 1884TIP3    H227288   5.260   3.245   8.100  1.1164 -0.8288 -3.3836
 1885TIP3   OH227289   2.689   0.840   6.386  0.0925  0.2479 -0.2259
 1885TIP3    H127290   2.644   0.810   6.307  0.2346 -0.6634  0.0305
 1885TIP3    H227291   2.731   0.922   6.360 -0.9617  0.6487 -0.7187
 1886TIP3   OH227292   5.918   4.682   7.353 -0.3660 -0.3435 -0.2476
 1886TIP3    H127293   5.936   4.707   7.262  1.8898 -1.3539 -0.1457
 1886TIP3    H227294   5.912   4.765   7.400 -2.5686  0.2436 -1.4248
 1887TIP3   OH227295   2.056   3.800   7.296  0.0344  0.1856  0.2415
 1887TIP3    H127296   2.030   3.816   7.206  3.3191  0.8870 -0.7124
 1887TIP3    H227297   2.074   3.707   7.300  0.4585  0.2530 -0.0242
 1888TIP3   OH227298   4.488   1.888   7.699  0.1461  0.0373 -0.8895
 1888TIP3    H127299   4.552   1.956   7.678  1.3488 -1.4051 -2.1561
 1888TIP3    H227300   4.441   1.873   7.617  0.4001 -1.1478 -0.8312
 1889TIP3   OH227301   6.376   4.144   0.207 -0.1557  0.2991  0.2805
 1889TIP3    H127302   6.294   4.095   0.198 -0.0722  0.0564  0.7837
 1889TIP3    H227303   6.390   4.148   0.302 -0.1585  1.2872  0.2499
 1890TIP3   OH227304   5.385   0.092   7.280 -0.5163 -0.5468  0.3505
 1890TIP3    H127305   5.340   0.045   7.350 -1.6603 -2.6685 -1.6707
 1890TIP3    H227306   5.445   0.028   7.242  1.1669  1.0007  0.2618
 1891TIP3   OH227307   5.953   4.940   6.449  0.6518 -0.2000  0.0690
 1891TIP3    H127308   6.025   4.878   6.433  1.9138  0.6861  2.0077
 1891TIP3    H227309   5.993   5.012   6.497 -0.9325  1.8409 -1.4647
 1892TIP3   OH227310   2.338   5.846   2.140 -0.0256  0.6969  0.3465
 1892TIP3    H127311   2.279   5.771   2.148  1.1378 -0.0573  3.2323
 1892TIP3    H227312   2.420   5.808   2.105  0.7477  0.4234  2.3328
 1893TIP3   OH227313   5.220   4.678   7.349  0.6290  0.2002 -0.3687
 1893TIP3    H127314   5.296   4.682   7.291  0.3422  0.3104 -0.7440
 1893TIP3    H227315   5.174   4.599   7.323  0.3930  0.3554 -0.4301
 1894TIP3   OH227316   2.586   0.579   1.852  0.3756  0.3341  0.0885
 1894TIP3    H127317   2.644   0.633   1.906  2.2311 -1.1775 -0.2801
 1894TIP3    H227318   2.603   0.607   1.762 -0.4955  0.7969  0.0558
 1895TIP3   OH227319   1.047   3.743   1.667 -0.2301 -0.2705  0.1912
 1895TIP3    H127320   1.020   3.651   1.671  1.2013 -0.6814  2.3853
 1895TIP3    H227321   1.065   3.758   1.575  0.0686 -2.3866 -0.1603
 1896TIP3   OH227322   3.515   0.137   1.117 -0.2067  0.0286  0.2285
 1896TIP3    H127323   3.572   0.064   1.141  0.9407  0.3697 -1.2335
 1896TIP3    H227324   3.553   0.170   1.035 -1.5837  1.3090  0.0642
 1897TIP3   OH227325   5.083   3.175   2.051 -0.6312 -0.2186 -0.6142
 1897TIP3    H127326   5.021   3.208   1.986  0.4696  0.1738 -1.4879
 1897TIP3    H227327   5.055   3.216   2.133 -1.6309 -0.1910 -0.9586
 1898TIP3   OH227328   2.994   2.281   0.940  0.6579  0.1503  0.1116
 1898TIP3    H127329   3.036   2.227   0.873 -0.7221 -2.1416  0.9762
 1898TIP3    H227330   3.032   2.251   1.022 -0.8610 -0.2482  0.6999
 1899TIP3   OH227331   2.113   6.291   0.126  0.1312  0.0577 -0.0891
 1899TIP3    H127332   2.026   6.328   0.139  0.9661  2.3273 -0.3265
 1899TIP3    H227333   2.147   6.277   0.214 -0.1699 -0.0229  0.0123
 1900TIP3   OH227334   1.135   2.697   0.173  0.1817 -0.1125 -0.3397
 1900TIP3    H127335   1.094   2.783   0.157  2.1673  0.6110 -1.9427
 1900TIP3    H227336   1.095   2.639   0.109  1.0304  0.3941 -1.3518
 1901TIP3   OH227337   6.077   4.834   1.501  0.3573  0.5078 -0.2020
 1901TIP3    H127338   6.070   4.891   1.424  0.9012  0.9368  0.0657
 1901TIP3    H227339   6.167   4.801   1.498 -0.4138 -1.7708 -1.3536
 1902TIP3   OH227340   0.020   1.033   1.144 -0.1488  0.3417  0.3872
 1902TIP3    H127341   0.024   1.123   1.111  0.4483 -0.3485 -1.5543
 1902TIP3    H227342   0.036   1.041   1.238  1.6295  2.1225 -0.0006
 1903TIP3   OH227343   3.199   5.065   7.764 -0.3998  0.0166  0.0003
 1903TIP3    H127344   3.214   5.122   7.839  0.3005 -1.1359  0.7557
 1903TIP3    H227345   3.133   5.111   7.712 -1.0326  0.7416  1.3998
 1904TIP3   OH227346   2.008   1.953   8.206  1.0448 -0.0408 -0.8159
 1904TIP3    H127347   2.045   2.004   8.134  1.3013 -0.9885 -1.3635
 1904TIP3    H227348   2.074   1.957   8.275  2.0345 -1.3765 -1.6342
 1905TIP3   OH227349   6.689   6.537   0.443 -0.1273  0.5035 -0.0480
 1905TIP3    H127350   6.682   6.480   0.366  2.0835 -0.4866  0.4308
 1905TIP3    H227351   6.657   6.483   0.515 -1.4956  1.1817 -0.1122
 1906TIP3   OH227352   0.331   6.592   6.338  0.3135  0.1840 -0.6384
 1906TIP3    H127353   0.308   6.499   6.334 -0.2190  0.1661  1.4191
 1906TIP3    H227354   0.248   6.636   6.358  0.9418  0.8201  0.6747
 1907TIP3   OH227355   2.612   2.279   1.419  0.4476 -0.3183  0.3463
 1907TIP3    H127356   2.603   2.283   1.514 -1.8197 -0.9013  0.1964
 1907TIP3    H227357   2.574   2.195   1.394  0.2392  0.1909 -1.1490
 1908TIP3   OH227358   1.741   5.713   1.490 -0.2011 -0.5868  0.4137
 1908TIP3    H127359   1.649   5.691   1.474  0.0804 -1.3306 -0.2441
 1908TIP3    H227360   1.789   5.635   1.464  0.7273  0.2856 -0.5571
 1909TIP3   OH227361   2.280   0.314   7.127 -0.3408  0.2545 -0.9908
 1909TIP3    H127362   2.319   0.401   7.119 -0.5345  0.3863 -0.5476
 1909TIP3    H227363   2.243   0.297   7.041 -1.2176  1.0674 -0.7973
 1910TIP3   OH227364   1.933   4.756   8.228  0.5056  0.2323  0.6503
 1910TIP3    H127365   1.880   4.836   8.217  1.0704  0.3330 -2.2196
 1910TIP3    H227366   1.898   4.715   8.307 -1.2947  2.1923  0.9754
 1911TIP3   OH227367   1.508   3.681   7.394  0.0894  0.0353 -0.6725
 1911TIP3    H127368   1.448   3.754   7.378  0.0666 -0.0719 -1.0629
 1911TIP3    H227369   1.595   3.720   7.389  0.0486  0.4347  1.0341
 1912TIP3   OH227370   4.375   2.533   0.206  0.1389  0.2281 -0.1728
 1912TIP3    H127371   4.325   2.521   0.125  1.7805 -0.7452 -1.0923
 1912TIP3    H227372   4.398   2.444   0.233 -2.2582  0.3128  2.6712
 1913TIP3   OH227373   4.748   0.475   0.722 -0.3313  0.1647 -0.4130
 1913TIP3    H127374   4.697   0.449   0.799 -0.6473 -0.5474 -0.8508
 1913TIP3    H227375   4.724   0.567   0.707 -0.2037  0.3334  0.3812
 1914TIP3   OH227376   1.439   3.046   8.056  0.5466  0.4372  0.3051
 1914TIP3    H127377   1.374   3.013   7.994  0.7963  1.4037 -0.5004
 1914TIP3    H227378   1.419   3.138   8.066 -0.2495  0.0832  2.6643
 1915TIP3   OH227379   5.675   0.724   7.798  0.5627 -0.9077  0.6064
 1915TIP3    H127380   5.730   0.785   7.847  0.6863  0.3741 -1.0375
 1915TIP3    H227381   5.588   0.732   7.838  0.0679  1.9366 -0.7798
 1916TIP3   OH227382   5.845   1.597   7.333  0.6777  0.5887 -0.0732
 1916TIP3    H127383   5.924   1.652   7.337  0.8759  0.2464  0.8663
 1916TIP3    H227384   5.875   1.514   7.296  0.9511  0.1540  1.0845
 1917TIP3   OH227385   6.123   1.569   1.090 -0.5912  0.4832 -0.1094
 1917TIP3    H127386   6.214   1.549   1.068 -0.9841  0.2202 -1.6596
 1917TIP3    H227387   6.125   1.594   1.182  0.5992 -2.7013  0.8908
 1918TIP3   OH227388   6.718   1.508   8.337  0.2889  0.1058  0.0528
 1918TIP3    H127389   6.737   1.414   8.337 -1.2185 -0.2568  2.0419
 1918TIP3    H227390   6.660   1.521   8.412  0.4062  2.6319 -0.2107
 1919TIP3   OH227391   5.967   2.043   6.761 -0.1094 -0.4351  0.1475
 1919TIP3    H127392   6.023   2.041   6.683  0.4817 -0.1194  0.5569
 1919TIP3    H227393   5.979   2.131   6.796 -2.2982  0.3037 -0.7846
 1920TIP3   OH227394   3.126   0.463   6.109 -0.1884  0.1021  0.9043
 1920TIP3    H127395   3.104   0.370   6.113 -3.0543  0.5373 -1.4873
 1920TIP3    H227396   3.063   0.504   6.168  0.8224  0.6137  1.6613
 1921TIP3   OH227397   0.685   5.219   7.629 -0.0914  0.0173  0.1133
 1921TIP3    H127398   0.725   5.195   7.713 -0.2432 -2.0044 -0.3445
 1921TIP3    H227399   0.745   5.283   7.591  1.4537 -1.1252  0.5300
 1922TIP3   OH227400   4.562   3.687   6.624 -0.4070  0.3750  0.4198
 1922TIP3    H127401   4.599   3.628   6.690  1.5894  0.6275 -0.3987
 1922TIP3    H227402   4.517   3.630   6.563 -0.9538 -0.0020  1.1534
 1923TIP3   OH227403   5.387   5.049   7.543 -0.5840  0.2473  0.6442
 1923TIP3    H127404   5.364   4.988   7.614  0.4668  0.0821  0.8707
 1923TIP3    H227405   5.378   4.997   7.463 -3.1046  0.8104  0.4756
 1924TIP3   OH227406   0.929   0.208   8.052  0.3491  0.2498 -0.0261
 1924TIP3    H127407   0.858   0.194   7.989 -0.5051  1.9030  0.5098
 1924TIP3    H227408   0.909   0.292   8.093  3.4687  1.6391 -0.9966
 1925TIP3   OH227409   6.625   3.134   8.359  0.5794  0.2206  0.8352
 1925TIP3    H127410   6.704   3.151   8.307  1.0577  2.1436  2.0764
 1925TIP3    H227411   6.556   3.180   8.311  0.6225  0.2868  0.8358
 1926TIP3   OH227412   6.329   3.758   0.218  0.3027  0.3719  0.3744
 1926TIP3    H127413   6.336   3.775   0.124  1.7230  0.4737  0.4770
 1926TIP3    H227414   6.250   3.805   0.245 -1.3674 -1.4289 -1.1363
 1927TIP3   OH227415   6.117   2.685   0.676 -0.1907 -0.6131 -0.4027
 1927TIP3    H127416   6.189   2.710   0.617  0.3736  0.1774  0.5938
 1927TIP3    H227417   6.118   2.751   0.745 -0.0244 -2.1652  1.1793
 1928TIP3   OH227418   2.935   3.342   8.844  0.3678 -0.4534  0.5394
 1928TIP3    H127419   3.018   3.301   8.818  1.0478 -0.0644  1.9802
 1928TIP3    H227420   2.874   3.269   8.854  0.7010 -0.8014  0.0652
 1929TIP3   OH227421   0.896   3.715   8.691  0.4672 -0.0206 -0.4774
 1929TIP3    H127422   0.915   3.765   8.611 -0.7183  0.3778 -0.5233
 1929TIP3    H227423   0.813   3.671   8.674  0.7945 -0.9048  0.0999
 1930TIP3   OH227424   2.169   4.202   1.303  0.1924 -0.2141 -0.3764
 1930TIP3    H127425   2.080   4.228   1.330 -0.2743  0.0297 -2.0423
 1930TIP3    H227426   2.162   4.108   1.287  0.4026 -0.3075  0.0569
 1931TIP3   OH227427   5.947   6.274   0.799 -0.1574  0.4548  0.3419
 1931TIP3    H127428   5.949   6.359   0.755 -0.7909  0.2341 -0.1245
 1931TIP3    H227429   5.857   6.242   0.787  0.4563 -0.9712 -0.8399
 1932TIP3   OH227430   1.549   3.433   0.160 -0.1229  0.2791 -0.2442
 1932TIP3    H127431   1.554   3.480   0.244  0.2915  0.1069 -0.1694
 1932TIP3    H227432   1.630   3.457   0.115  1.4066 -2.3826  0.8602
 1933TIP3   OH227433   3.338   6.398   7.215  0.5791  0.3156  0.0288
 1933TIP3    H127434   3.419   6.404   7.266 -0.5764 -0.1856  2.0132
 1933TIP3    H227435   3.271   6.376   7.279 -0.9236 -0.5813 -1.7762
 1934TIP3   OH227436   4.375   4.881   1.239 -0.0388  0.6988 -0.0511
 1934TIP3    H127437   4.401   4.886   1.331 -0.2925 -2.4711  0.3268
 1934TIP3    H227438   4.301   4.820   1.239  2.9013 -3.4114 -2.7040
 1935TIP3   OH227439   6.529   5.856   7.315 -0.0246 -0.6599 -0.3507
 1935TIP3    H127440   6.511   5.765   7.292 -0.7226 -0.3265 -1.1803
 1935TIP3    H227441   6.446   5.889   7.351  0.1357 -0.2768 -0.3216
 1936TIP3   OH227442   4.316   2.328   1.262 -0.1307 -0.3662 -0.1734
 1936TIP3    H127443   4.401   2.340   1.221  0.0170 -0.3585  0.1307
 1936TIP3    H227444   4.284   2.245   1.229 -0.3091 -0.0455 -0.8186
 1937TIP3   OH227445   2.566   0.980   8.553 -0.3806  0.4050  0.3173
 1937TIP3    H127446   2.597   0.940   8.634 -1.1914  1.3277  1.1117
 1937TIP3    H227447   2.471   0.978   8.560 -0.5067 -0.7314 -1.2448
 1938TIP3   OH227448   6.473   5.653   1.128 -0.3544 -0.3761  0.1840
 1938TIP3    H127449   6.461   5.622   1.038 -0.7902  1.1886 -0.3359
 1938TIP3    H227450   6.568   5.647   1.143 -0.0547  0.8362 -0.9933
 1939TIP3   OH227451   4.800   0.834   8.144 -0.2230  0.1996  0.1564
 1939TIP3    H127452   4.730   0.777   8.112 -0.8015  2.1038 -2.3132
 1939TIP3    H227453   4.758   0.919   8.156  1.5200  1.3013 -0.9856
 1940TIP3   OH227454   2.466   1.015   6.793 -0.1661 -0.3798 -0.3224
 1940TIP3    H127455   2.485   1.095   6.841  1.3263 -1.1956  0.5092
 1940TIP3    H227456   2.455   1.044   6.702 -0.9286  0.8990  0.1421
 1941TIP3   OH227457   6.756   5.942   7.422  0.4354  0.1255  0.1160
 1941TIP3    H127458   6.669   5.925   7.386  0.6248 -0.3993 -0.1054
 1941TIP3    H227459   6.815   5.894   7.365  0.8366  0.1624  0.4963
 1942TIP3   OH227460   2.977   2.400   1.517 -0.8188 -0.3281  0.4259
 1942TIP3    H127461   2.905   2.459   1.497 -1.1678 -1.2025 -1.0122
 1942TIP3    H227462   2.946   2.348   1.591 -0.3078  1.5700  2.0520
 1943TIP3   OH227463   4.063   6.427   0.143 -0.0612  0.0842 -0.2631
 1943TIP3    H127464   4.109   6.398   0.222 -0.7107  0.3887  0.2372
 1943TIP3    H227465   4.103   6.376   0.072 -0.5088 -1.3317  0.4607
 1944TIP3   OH227466   0.635   2.934   6.717 -0.5279 -0.5004  0.2203
 1944TIP3    H127467   0.675   2.987   6.648 -1.3742  1.5654  1.2350
 1944TIP3    H227468   0.647   2.843   6.688 -2.1341  0.2630 -3.3841
 1945TIP3   OH227469   3.379   4.916   2.187  0.0024  0.5259 -0.3241
 1945TIP3    H127470   3.459   4.918   2.239 -0.3551 -1.5746  0.4025
 1945TIP3    H227471   3.309   4.911   2.251 -0.5092 -0.8918 -0.9521
 1946TIP3   OH227472   6.246   1.288   6.989 -0.3799  0.0087  0.4016
 1946TIP3    H127473   6.205   1.370   7.019  1.3853  1.0221  0.2156
 1946TIP3    H227474   6.239   1.291   6.894  0.8462  0.6370  0.3069
 1947TIP3   OH227475   3.173   4.846   1.621 -0.1624 -0.2769 -0.9094
 1947TIP3    H127476   3.256   4.891   1.606 -0.6547  0.4702 -1.4736
 1947TIP3    H227477   3.193   4.753   1.611  1.1827 -0.3620  1.6579
 1948TIP3   OH227478   5.834   1.207   0.633 -0.5003 -0.4409  0.0042
 1948TIP3    H127479   5.819   1.121   0.672  0.0107 -0.0465  1.1145
 1948TIP3    H227480   5.929   1.211   0.621 -0.4376  0.2458  0.6459
 1949TIP3   OH227481   0.673   0.094   0.409  0.0322 -1.0751 -0.0209
 1949TIP3    H127482   0.588   0.127   0.439  0.8943  0.7954  0.5280
 1949TIP3    H227483   0.727   0.090   0.487  1.1027 -0.0244 -0.6604
 1950TIP3   OH227484   0.250   0.941   7.426 -0.0831  0.3019 -0.0692
 1950TIP3    H127485   0.247   0.957   7.520 -0.6086  0.4965 -0.1149
 1950TIP3    H227486   0.171   0.983   7.392 -0.3487 -0.5138 -0.4864
 1951TIP3   OH227487   3.204   2.131   7.162  0.1737 -0.4017  0.6706
 1951TIP3    H127488   3.114   2.102   7.173 -0.2564  0.5482 -0.1115
 1951TIP3    H227489   3.256   2.073   7.218 -0.9718 -0.6515  1.5031
 1952TIP3   OH227490   1.480   0.824   0.211  0.3045  0.4382 -0.0036
 1952TIP3    H127491   1.528   0.906   0.224  2.6482 -1.0470  1.2337
 1952TIP3    H227492   1.545   0.756   0.219 -1.6421 -1.6324 -0.6824
 1953TIP3   OH227493   2.964   2.589   0.483  0.5548  0.0864  0.5042
 1953TIP3    H127494   2.973   2.561   0.574  2.0790  2.7491  1.2910
 1953TIP3    H227495   2.957   2.508   0.433 -0.9190 -1.4519  3.0105
 1954TIP3   OH227496   6.805   0.514   1.499  0.1204 -0.5960  0.3810
 1954TIP3    H127497   6.878   0.484   1.553  0.5667 -0.2047  0.0010
 1954TIP3    H227498   6.763   0.433   1.468  0.5540 -0.8231  0.3778
 1955TIP3   OH227499   5.117   1.956   8.008 -0.2332 -0.3256  0.3036
 1955TIP3    H127500   5.175   2.030   7.987 -2.4147  1.9629  1.7934
 1955TIP3    H227501   5.103   1.962   8.102 -1.6364 -1.7784  0.2272
 1956TIP3   OH227502   0.296   5.362   7.886 -0.7864  0.1352 -0.3689
 1956TIP3    H127503   0.206   5.341   7.911 -0.4981  0.7776  1.4064
 1956TIP3    H227504   0.328   5.284   7.841 -1.5393 -0.9773  0.9404
 1957TIP3   OH227505   5.579   0.326   1.160 -0.4006  0.0790 -0.0240
 1957TIP3    H127506   5.551   0.309   1.250  3.6651 -0.8151  1.2668
 1957TIP3    H227507   5.655   0.384   1.169 -0.3229  0.5949 -2.9850
 1958TIP3   OH227508   2.413   4.103   7.219 -0.1537  0.1380  0.1230
 1958TIP3    H127509   2.422   4.177   7.278  0.3445 -0.0734  0.3126
 1958TIP3    H227510   2.502   4.085   7.188 -0.2088 -0.6026  0.3548
 1959TIP3   OH227511   6.074   3.935   8.230  0.4908 -0.1809  0.8058
 1959TIP3    H127512   6.083   3.981   8.146  0.8806  0.6419  1.2914
 1959TIP3    H227513   6.163   3.917   8.257  0.3605 -0.5658  0.9900
 1960TIP3   OH227514   1.025   4.857   7.427 -0.1370  0.2314 -0.3492
 1960TIP3    H127515   0.999   4.948   7.411  0.6898  0.5166 -0.0919
 1960TIP3    H227516   1.116   4.853   7.399  0.3136 -0.1116  1.1307
 1961TIP3   OH227517   5.483   4.477   2.544  0.6258  0.0844  0.0979
 1961TIP3    H127518   5.518   4.562   2.520  0.2000 -0.5126 -3.1022
 1961TIP3    H227519   5.553   4.415   2.523  0.1253 -0.5479  0.2476
 1962TIP3   OH227520   2.249   0.270   8.223  0.6523  0.0710 -0.1615
 1962TIP3    H127521   2.160   0.237   8.229  0.8613 -0.2956  1.6413
 1962TIP3    H227522   2.275   0.284   8.314  1.9547  1.4977 -0.7157
 1963TIP3   OH227523   5.320   2.657   0.979 -0.0966 -0.0634  0.4505
 1963TIP3    H127524   5.268   2.591   0.934 -0.4832  0.3189  0.3200
 1963TIP3    H227525   5.365   2.610   1.049 -0.1081 -0.5183  0.1516
 1964TIP3   OH227526   6.670   6.404   8.098  0.6218  0.0338 -0.1979
 1964TIP3    H127527   6.684   6.335   8.033  2.0651 -1.2547  1.3677
 1964TIP3    H227528   6.678   6.485   8.049  1.6974 -0.8759 -1.6187
 1965TIP3   OH227529   3.110   4.271   0.337  0.2840  0.4563 -0.4703
 1965TIP3    H127530   3.096   4.273   0.242 -0.6312  0.9042 -0.3347
 1965TIP3    H227531   3.200   4.241   0.347  0.3423  0.2562 -1.4786
 1966TIP3   OH227532   5.137   4.138   0.794  0.5044 -0.3702 -0.0831
 1966TIP3    H127533   5.161   4.089   0.873 -1.0535 -1.0368  0.0225
 1966TIP3    H227534   5.114   4.070   0.730  2.4550  0.1270 -1.3986
 1967TIP3   OH227535   1.417   2.074   0.402  0.2620 -0.2907  0.1904
 1967TIP3    H127536   1.334   2.113   0.374  0.6276  0.3326 -0.0200
 1967TIP3    H227537   1.478   2.147   0.408  0.9710 -0.8260 -0.2818
 1968TIP3   OH227538   4.897   4.114   7.470 -0.6144 -0.6323  0.1969
 1968TIP3    H127539   4.899   4.204   7.502 -0.4627 -0.1726 -1.0590
 1968TIP3    H227540   4.838   4.068   7.531  0.1100  0.0545  1.4580
 1969TIP3   OH227541   4.191   0.493   6.300 -0.3085 -0.1544 -0.0537
 1969TIP3    H127542   4.262   0.513   6.361 -1.7153  0.7695  1.3616
 1969TIP3    H227543   4.146   0.419   6.341 -1.5008  0.7240  0.2632
 1970TIP3   OH227544   1.749   6.327   8.793 -0.4998 -0.1736 -0.2072
 1970TIP3    H127545   1.716   6.346   8.705 -1.1848 -1.1666 -0.1857
 1970TIP3    H227546   1.677   6.349   8.851  0.6184  2.4036  0.3506
 1971TIP3   OH227547   2.478   6.496   7.772 -0.9209 -0.2087 -0.5719
 1971TIP3    H127548   2.535   6.545   7.832 -1.7380 -0.1271  0.1636
 1971TIP3    H227549   2.427   6.564   7.728 -0.7576 -0.3046 -0.9111
 1972TIP3   OH227550   2.565   0.430   0.029 -0.3134 -0.1709  0.0911
 1972TIP3    H127551   2.492   0.369   0.026 -1.2653  0.8792  0.8331
 1972TIP3    H227552   2.600   0.423   0.118  1.2820 -1.5141 -0.5947
 1973TIP3   OH227553   6.324   1.617   0.188 -0.1402 -0.0952  0.0033
 1973TIP3    H127554   6.417   1.629   0.168 -0.4837  2.1904 -0.4180
 1973TIP3    H227555   6.300   1.536   0.143  1.4137 -0.1966 -0.6929
 1974TIP3   OH227556   0.626   6.178   6.338 -0.2453 -0.3341  0.9743
 1974TIP3    H127557   0.630   6.121   6.262 -0.2815 -1.5926  1.8815
 1974TIP3    H227558   0.584   6.258   6.306 -2.1492 -1.5982  0.1131
 1975TIP3   OH227559   2.428   3.473   8.761 -0.0865  0.1073 -0.1356
 1975TIP3    H127560   2.342   3.448   8.725 -0.6752 -0.1585  1.3916
 1975TIP3    H227561   2.490   3.448   8.692 -1.0567 -1.6037 -0.4660
 1976TIP3   OH227562   2.052   5.755   1.999  0.0557 -0.1368  0.0901
 1976TIP3    H127563   2.048   5.662   2.020 -0.2266  0.0287  0.8252
 1976TIP3    H227564   1.963   5.786   2.015 -0.1284  0.0578 -1.1922
 1977TIP3   OH227565   1.029   3.542   6.524 -0.0928  0.4184  0.2504
 1977TIP3    H127566   0.959   3.572   6.465 -0.1165  1.9120  1.0073
 1977TIP3    H227567   1.107   3.537   6.469 -0.4409  0.2991 -0.2400
 1978TIP3   OH227568   1.846   0.428   0.245  0.4453 -0.1509 -0.2566
 1978TIP3    H127569   1.860   0.333   0.241  1.5458  0.0355 -2.2305
 1978TIP3    H227570   1.897   0.457   0.320  1.7643 -0.8979 -0.8362
 1979TIP3   OH227571   5.145   6.483   0.350  0.5370  0.0247  0.2071
 1979TIP3    H127572   5.193   6.559   0.318  0.0663  0.3095  0.1567
 1979TIP3    H227573   5.056   6.516   0.366  0.5116 -0.3393  0.8746
 1980TIP3   OH227574   3.499   2.804   6.553  0.4977 -0.2277 -0.6174
 1980TIP3    H127575   3.501   2.713   6.583  0.5337 -0.4833 -1.3827
 1980TIP3    H227576   3.464   2.800   6.464  1.3283  0.4095 -0.9946
 1981TIP3   OH227577   4.635   5.540   6.862 -0.2902 -0.4632 -0.0980
 1981TIP3    H127578   4.677   5.524   6.778  1.1593 -2.0979  0.8784
 1981TIP3    H227579   4.549   5.497   6.855 -0.7917  0.6662 -1.2054
 1982TIP3   OH227580   0.840   3.791   7.625 -0.1992 -0.0490  0.1778
 1982TIP3    H127581   0.769   3.834   7.576 -1.1122 -2.2188 -0.5340
 1982TIP3    H227582   0.813   3.699   7.629  2.5980 -0.9646 -0.1440
 1983TIP3   OH227583   5.396   6.425   1.611  0.0017 -0.0349 -0.2708
 1983TIP3    H127584   5.394   6.517   1.582 -2.2173 -0.3589 -1.4005
 1983TIP3    H227585   5.416   6.430   1.704  0.1856  1.5868 -0.3554
 1984TIP3   OH227586   5.151   5.167   6.333  0.0560 -0.1371 -0.4087
 1984TIP3    H127587   5.078   5.226   6.314  0.8323  0.7463 -0.7003
 1984TIP3    H227588   5.130   5.087   6.285 -2.1828 -1.0136  1.8415
 1985TIP3   OH227589   4.467   3.883   0.405  0.4357 -0.4806 -0.5804
 1985TIP3    H127590   4.446   3.869   0.497 -0.9466 -0.0524 -0.8116
 1985TIP3    H227591   4.486   3.796   0.371  1.1324 -0.6252  0.1300
 1986TIP3   OH227592   5.949   5.570   0.704 -0.1552 -0.0292 -0.3462
 1986TIP3    H127593   5.926   5.619   0.625  1.0566  1.5872  0.2556
 1986TIP3    H227594   5.891   5.605   0.772  0.4298  0.2826 -0.0051
 1987TIP3   OH227595   3.367   3.170   0.500 -0.8685  0.1069  0.2914
 1987TIP3    H127596   3.361   3.162   0.595 -0.1178  0.0657  0.3419
 1987TIP3    H227597   3.458   3.149   0.480 -0.6147  1.5748 -0.2708
 1988TIP3   OH227598   4.836   4.465   6.165 -0.1037 -0.0108  0.0698
 1988TIP3    H127599   4.780   4.511   6.227 -1.5740 -2.3530  0.5925
 1988TIP3    H227600   4.829   4.373   6.189 -0.5430 -1.0209 -3.3936
 1989TIP3   OH227601   0.543   2.195   6.536  0.1374 -0.2085 -0.6932
 1989TIP3    H127602   0.490   2.150   6.471  1.3478 -1.5507 -0.7983
 1989TIP3    H227603   0.563   2.128   6.601 -1.6898  1.2455  1.5698
 1990TIP3   OH227604   3.381   6.704   7.939 -0.3660 -0.9151 -0.8821
 1990TIP3    H127605   3.331   6.762   7.882 -1.6966  0.0238  1.1490
 1990TIP3    H227606   3.315   6.650   7.983  0.5029 -0.7490  0.6996
 1991TIP3   OH227607   0.649   3.723   7.908  0.1725  0.0079  0.2065
 1991TIP3    H127608   0.620   3.783   7.839  0.3692  0.9632  0.9273
 1991TIP3    H227609   0.581   3.656   7.913 -0.1742  0.3101 -0.4495
 1992TIP3   OH227610   6.642   5.210   6.926  0.1233 -0.3919  0.5009
 1992TIP3    H127611   6.710   5.153   6.960  1.0937  0.8432  0.7290
 1992TIP3    H227612   6.682   5.250   6.848 -0.5708 -0.1155  0.2817
 1993TIP3   OH227613   1.389   3.517   0.956 -0.3433  1.1203 -0.2393
 1993TIP3    H127614   1.308   3.506   0.907 -0.4350 -1.7938  0.3604
 1993TIP3    H227615   1.362   3.561   1.037 -1.3858  0.1719 -0.0395
 1994TIP3   OH227616   3.895   4.453   7.752  0.4113  0.2734  0.2568
 1994TIP3    H127617   3.973   4.450   7.808 -0.6409  0.3946  1.7847
 1994TIP3    H227618   3.913   4.524   7.690  1.3867  0.5220  0.7956
 1995TIP3   OH227619   5.992   0.553   0.032 -0.4515 -0.1996 -0.6513
 1995TIP3    H127620   5.978   0.557   0.126 -1.5003 -0.7234 -0.7773
 1995TIP3    H227621   6.008   0.644   0.006  1.5753 -0.2454  0.2600
 1996TIP3   OH227622   3.465   4.255   7.949 -0.7480  0.2214 -0.6330
 1996TIP3    H127623   3.474   4.348   7.929  0.0874  0.2943  0.0139
 1996TIP3    H227624   3.433   4.216   7.868 -1.3858  1.1141 -0.8206
 1997TIP3   OH227625   4.649   1.076   7.869  0.3919  0.4708  0.0313
 1997TIP3    H127626   4.672   0.997   7.821 -0.6892  1.2801 -1.9735
 1997TIP3    H227627   4.553   1.076   7.872  0.3964  1.2980  0.6992
 1998TIP3   OH227628   6.268   1.576   2.421 -0.3477 -0.2198  0.3319
 1998TIP3    H127629   6.201   1.564   2.354  0.2037 -1.5626 -0.0048
 1998TIP3    H227630   6.257   1.666   2.451 -3.9186 -1.0216  1.9949
 1999TIP3   OH227631   1.653   4.825   6.850  0.2565  0.2092 -0.1266
 1999TIP3    H127632   1.715   4.758   6.880  1.0729 -0.0429 -2.2076
 1999TIP3    H227633   1.580   4.775   6.814 -0.3058  0.4915  0.6040
 2000TIP3   OH227634   6.560   2.459   0.416  0.2467  0.3137  0.1613
 2000TIP3    H127635   6.626   2.395   0.444  0.6748  0.7319  0.1126
 2000TIP3    H227636   6.608   2.520   0.360 -0.5623 -0.4417 -1.4143
 2001TIP3   OH227637   5.977   4.527   1.444 -0.2273 -0.8576  0.2131
 2001TIP3    H127638   5.986   4.450   1.501  1.1878  0.2964  1.6738
 2001TIP3    H227639   6.012   4.599   1.497  0.1533  0.4775 -1.7598
 2002TIP3   OH227640   3.814   2.703   0.114  0.3875 -0.6464 -0.8619
 2002TIP3    H127641   3.826   2.763   0.041 -0.1072  1.5109  0.7293
 2002TIP3    H227642   3.748   2.641   0.084 -0.9767  1.1346 -1.7395
 2003TIP3   OH227643   5.875   2.888   0.655 -0.0884  0.0334  0.9105
 2003TIP3    H127644   5.948   2.947   0.635 -0.9156  0.4088 -1.2983
 2003TIP3    H227645   5.799   2.946   0.662 -0.3911 -0.4724  1.8864
 2004TIP3   OH227646   3.997   4.803   8.272  0.0854  0.4873 -0.1338
 2004TIP3    H127647   3.996   4.758   8.357  1.5678 -1.4313 -1.0514
 2004TIP3    H227648   4.026   4.892   8.293  0.0619  0.1608  1.4089
 2005TIP3   OH227649   0.035   1.249   7.973  0.5131  0.4046  0.1966
 2005TIP3    H127650   0.024   1.161   7.939 -0.8392  0.4265  0.5478
 2005TIP3    H227651   0.014   1.307   7.900  1.1955  0.4558  0.0281
 2006TIP3   OH227652   2.502   4.494   8.677  0.0301  0.4808  0.1665
 2006TIP3    H127653   2.432   4.437   8.710 -0.6653  0.0102 -1.9747
 2006TIP3    H227654   2.578   4.437   8.672 -0.0883  0.3281  0.1027
 2007TIP3   OH227655   1.261   2.378   0.601  0.3745  0.4539  0.8945
 2007TIP3    H127656   1.176   2.367   0.559  1.0676  0.6592 -0.6253
 2007TIP3    H227657   1.255   2.326   0.681 -0.8360 -0.3399  0.3122
 2008TIP3   OH227658   2.914   4.126   0.105  0.4075  0.3019  0.2026
 2008TIP3    H127659   2.883   4.116   0.194  2.0445  1.6610  0.9896
 2008TIP3    H227660   2.842   4.168   0.058  0.5149  2.2653  1.6635
 2009TIP3   OH227661   2.761   6.639   2.424  0.4016 -0.2091 -0.4501
 2009TIP3    H127662   2.842   6.635   2.374  0.3622 -1.1976 -0.4408
 2009TIP3    H227663   2.757   6.730   2.455  1.8049 -0.2954  0.0525
 2010TIP3   OH227664   3.543   4.968   8.636 -0.6754  0.2304 -0.4818
 2010TIP3    H127665   3.563   5.051   8.592 -0.8429 -0.6591 -2.2984
 2010TIP3    H227666   3.604   4.965   8.710 -0.4248  1.8001 -0.5982
 2011TIP3   OH227667   6.447   5.650   6.298 -0.3111  0.7809  0.3233
 2011TIP3    H127668   6.465   5.734   6.255  1.8628 -0.7687 -2.1305
 2011TIP3    H227669   6.382   5.607   6.242  0.2069 -0.0166  0.3089
 2012TIP3   OH227670   3.496   1.103   8.836  0.8569  0.4657 -0.6976
 2012TIP3    H127671   3.537   1.177   8.880  1.5791 -0.7964  0.8141
 2012TIP3    H227672   3.460   1.049   8.907  0.4740 -0.7139 -1.7469
 2013TIP3   OH227673   5.554   6.629   7.994  0.3990 -0.4332 -0.6967
 2013TIP3    H127674   5.480   6.650   7.937  1.6078 -0.1936 -2.2573
 2013TIP3    H227675   5.580   6.714   8.030  0.5166 -0.3634 -0.9389
 2014TIP3   OH227676   5.216   3.413   0.869  0.0435  0.2575 -0.1940
 2014TIP3    H127677   5.143   3.386   0.925  0.0649 -0.3922 -0.4744
 2014TIP3    H227678   5.293   3.369   0.906 -0.2698 -2.0418 -2.0054
 2015TIP3   OH227679   5.576   1.974   0.381  0.3508  0.3247  0.0103
 2015TIP3    H127680   5.481   1.984   0.381  0.3409  0.2528  0.2550
 2015TIP3    H227681   5.603   2.014   0.464  0.3839 -1.0527  0.6934
 2016TIP3   OH227682   3.157   1.432   0.187 -0.1892  0.9244 -0.2380
 2016TIP3    H127683   3.171   1.376   0.263  1.7141  0.7308 -0.6782
 2016TIP3    H227684   3.075   1.401   0.149 -0.6667  0.3859  1.1746
 2017TIP3   OH227685   6.189   1.785   8.376  0.4527  0.5745  0.3034
 2017TIP3    H127686   6.282   1.796   8.358 -0.0085  2.5492 -1.1750
 2017TIP3    H227687   6.171   1.694   8.353  1.8749  0.3491 -0.0139
 2018TIP3   OH227688   3.232   5.519   1.082  0.9031 -0.5063  0.0271
 2018TIP3    H127689   3.276   5.435   1.075  0.0056 -0.9724 -0.1707
 2018TIP3    H227690   3.218   5.531   1.176  0.0653 -1.1025 -0.0131
 2019TIP3   OH227691   4.448   5.066   8.831 -0.1321  0.2535 -0.4940
 2019TIP3    H127692   4.542   5.058   8.850  0.2422  0.0966 -2.1567
 2019TIP3    H227693   4.406   5.000   8.886  0.5447  1.3031  1.3458
 2020TIP3   OH227694   0.977   0.730   7.195  0.1216  0.3624 -0.6243
 2020TIP3    H127695   1.047   0.692   7.141 -1.5178 -2.6832 -0.8379
 2020TIP3    H227696   0.919   0.774   7.133  0.4753  0.6116 -0.7805
 2021TIP3   OH227697   3.208   0.949   7.761 -0.2717 -0.9330  0.4777
 2021TIP3    H127698   3.227   0.855   7.750  1.9803 -0.5099  0.2020
 2021TIP3    H227699   3.243   0.989   7.681 -1.3074  0.1501  0.5479
 2022TIP3   OH227700   3.341   1.194   8.410 -0.4962 -0.2900 -0.3702
 2022TIP3    H127701   3.299   1.130   8.468  1.7427 -2.1880 -0.7256
 2022TIP3    H227702   3.416   1.225   8.459 -0.3210  0.4286 -1.0733
 2023TIP3   OH227703   3.180   1.271   0.401  0.4273  0.2397  0.2135
 2023TIP3    H127704   3.246   1.260   0.469 -0.7350  0.6405  1.4587
 2023TIP3    H227705   3.106   1.217   0.429  0.1619 -0.1116 -1.0816
 2024TIP3   OH227706   0.645   4.853   8.265 -0.1660  0.0250  0.7964
 2024TIP3    H127707   0.633   4.770   8.311  1.5079  0.2400  1.6986
 2024TIP3    H227708   0.557   4.878   8.237 -0.7557 -1.8400  0.8548
 2025TIP3   OH227709   4.105   6.692   1.804 -0.0403 -0.4936 -0.5312
 2025TIP3    H127710   4.161   6.632   1.853 -1.4662 -0.8098  0.8245
 2025TIP3    H227711   4.078   6.642   1.727  0.0578 -1.0303 -0.2251
 2026TIP3   OH227712   1.397   1.692   2.497 -0.2362  0.3549  0.1255
 2026TIP3    H127713   1.437   1.753   2.435  0.6271 -0.6601 -0.3431
 2026TIP3    H227714   1.303   1.698   2.479 -0.1333  1.2768 -0.1532
 2027TIP3   OH227715   4.976   2.995   0.561 -0.3751  0.0569  0.0773
 2027TIP3    H127716   4.894   2.956   0.591 -0.7705  1.9418  1.6098
 2027TIP3    H227717   5.039   2.973   0.630  1.1495 -3.2992 -2.0742
 2028TIP3   OH227718   3.486   1.638   1.336 -0.5192 -0.0862 -0.2491
 2028TIP3    H127719   3.484   1.725   1.374 -2.7918 -0.5418  0.8388
 2028TIP3    H227720   3.579   1.616   1.331  0.0214  1.6756  1.1048
 2029TIP3   OH227721   6.438   0.108   7.580 -0.3468 -0.4378 -0.2575
 2029TIP3    H127722   6.361   0.080   7.530 -2.1230 -2.5211  3.2408
 2029TIP3    H227723   6.402   0.140   7.663  2.4798  1.4815  0.3508
 2030TIP3   OH227724   0.854   1.483   7.686  0.3950  0.0484  0.2148
 2030TIP3    H127725   0.913   1.557   7.702 -2.4029  2.4572  0.1322
 2030TIP3    H227726   0.824   1.495   7.596 -0.2874 -1.0756  0.2838
 2031TIP3   OH227727   5.205   5.256   1.479 -0.0549 -0.1628 -0.2200
 2031TIP3    H127728   5.120   5.276   1.518 -0.1993 -1.3527  0.0948
 2031TIP3    H227729   5.260   5.330   1.503 -1.2219  1.0675 -1.1718
 2032TIP3   OH227730   0.184   3.675   1.910 -0.4673 -0.0385  0.3889
 2032TIP3    H127731   0.267   3.629   1.924  0.3203  1.0963 -0.3884
 2032TIP3    H227732   0.147   3.686   1.998 -0.0362 -0.9732  0.6968
 2033TIP3   OH227733   0.058   6.084   7.058  0.0986  0.4432 -0.0385
 2033TIP3    H127734   0.140   6.043   7.085 -0.1468  0.1362  0.2546
 2033TIP3    H227735   0.052   6.163   7.113  0.4680  0.7632 -0.4553
 2034TIP3   OH227736   0.801   5.739   6.668  0.3622  0.7683  0.0338
 2034TIP3    H127737   0.746   5.661   6.675  0.3982  0.8832  2.4921
 2034TIP3    H227738   0.883   5.707   6.631  0.6266 -0.5591  1.6455
 2035TIP3   OH227739   1.226   5.484   2.297 -0.0342 -0.5753  0.0425
 2035TIP3    H127740   1.217   5.519   2.385  0.6501  0.1436 -0.1664
 2035TIP3    H227741   1.309   5.520   2.264 -0.7865  0.0103 -1.2797
 2036TIP3   OH227742   4.928   2.758   0.241  0.2814  0.0862  0.7007
 2036TIP3    H127743   4.923   2.667   0.211  0.7034  0.5430 -0.8566
 2036TIP3    H227744   5.001   2.759   0.302  2.4055 -0.0508 -1.6834
 2037TIP3   OH227745   0.815   3.156   7.753 -0.2638  0.1080  0.2737
 2037TIP3    H127746   0.865   3.229   7.788  0.0742 -0.5800  1.2918
 2037TIP3    H227747   0.780   3.112   7.831 -0.0544 -1.0882 -0.2797
 2038TIP3   OH227748   5.779   6.459   6.468  0.2831  0.1414 -1.4964
 2038TIP3    H127749   5.815   6.499   6.389  2.4109  1.1394 -0.0992
 2038TIP3    H227750   5.791   6.365   6.454 -1.4034  0.1300 -3.2456
 2039TIP3   OH227751   6.300   6.183   1.160 -0.2918 -1.1224 -0.1064
 2039TIP3    H127752   6.228   6.207   1.102 -1.2355 -0.1334  1.4011
 2039TIP3    H227753   6.298   6.087   1.163 -0.4272 -1.1771 -1.4112
 2040TIP3   OH227754   6.535   0.752   2.005  0.0488 -0.1179 -0.1296
 2040TIP3    H127755   6.614   0.714   2.043 -0.8715  0.0082  2.0614
 2040TIP3    H227756   6.565   0.834   1.966  1.1678 -0.5453 -0.2069
 2041TIP3   OH227757   4.641   5.581   7.834 -0.3217 -0.0512 -0.3923
 2041TIP3    H127758   4.677   5.637   7.902  0.1544 -0.1479 -0.5578
 2041TIP3    H227759   4.606   5.642   7.769  1.9941  0.1593 -1.5615
 2042TIP3   OH227760   1.288   2.606   7.229  0.6514  0.1719 -0.6193
 2042TIP3    H127761   1.330   2.521   7.218  1.1939  0.0648  1.8343
 2042TIP3    H227762   1.217   2.606   7.164  1.7700 -1.3755 -1.9126
 2043TIP3   OH227763   4.728   2.835   8.491 -0.5154  0.0542  0.3347
 2043TIP3    H127764   4.741   2.928   8.508 -0.9102  0.0026  1.0124
 2043TIP3    H227765   4.750   2.823   8.399 -1.5627  1.0381 -0.0735
 2044TIP3   OH227766   6.377   2.071   8.191  0.2100 -0.0966  0.1857
 2044TIP3    H127767   6.299   2.018   8.170  0.5726 -0.4543 -0.2933
 2044TIP3    H227768   6.366   2.151   8.140  1.9339 -1.6722 -2.9468
 2045TIP3   OH227769   0.780   6.535   8.274 -0.9558 -0.1116  0.1543
 2045TIP3    H127770   0.745   6.468   8.333 -0.2094  0.4424  1.2779
 2045TIP3    H227771   0.705   6.592   8.256 -1.1076 -0.0341  0.9616
 2046TIP3   OH227772   6.092   5.583   8.831  0.4247 -0.7093  0.1981
 2046TIP3    H127773   6.158   5.558   8.767  1.0389 -1.2712  1.0217
 2046TIP3    H227774   6.043   5.503   8.847 -0.0364 -0.4538  0.0836
 2047TIP3   OH227775   2.139   1.186   7.185  0.4362  0.0408  0.6004
 2047TIP3    H127776   2.217   1.148   7.145 -0.8453 -3.1255  0.8276
 2047TIP3    H227777   2.106   1.118   7.244 -3.3709  0.4972 -0.6872
 2048TIP3   OH227778   0.511   0.841   0.246  0.3966 -0.2002  0.3104
 2048TIP3    H127779   0.489   0.809   0.158 -1.2570  0.7848  0.3161
 2048TIP3    H227780   0.541   0.931   0.231 -0.2429  0.0971  0.7689
 2049TIP3   OH227781   0.345   3.056   0.501 -0.6209 -0.8624  0.2196
 2049TIP3    H127782   0.436   3.069   0.476 -0.1168 -1.8721  1.4460
 2049TIP3    H227783   0.336   3.098   0.586 -1.9353  1.2413 -0.8754
 2050TIP3   OH227784   0.010   4.562   0.884 -0.6575  0.2817 -0.5144
 2050TIP3    H127785  -0.058   4.503   0.851 -0.1175 -1.5852  1.4407
 2050TIP3    H227786  -0.038   4.626   0.937 -0.9668 -1.0309  0.8631
 2051TIP3   OH227787   3.089   6.182   8.391 -0.3747 -0.0619  0.3749
 2051TIP3    H127788   3.106   6.132   8.312 -0.8415 -0.8267  0.7404
 2051TIP3    H227789   2.993   6.182   8.399 -0.3021 -0.8356  1.4529
 2052TIP3   OH227790   3.581   2.257   1.782  0.9233  0.3226  0.5991
 2052TIP3    H127791   3.573   2.331   1.721  1.0316 -0.3269 -0.2109
 2052TIP3    H227792   3.674   2.234   1.780  0.5249 -1.3299 -0.9627
 2053TIP3   OH227793   5.722   4.206   7.174  0.4457 -0.2485  0.0198
 2053TIP3    H127794   5.796   4.167   7.128  1.1870  0.3076  0.7160
 2053TIP3    H227795   5.749   4.296   7.192  0.0160 -0.3296  1.1694
 2054TIP3   OH227796   2.999   2.494   0.769  0.0982  0.3310  0.0753
 2054TIP3    H127797   2.961   2.428   0.827 -0.4563 -0.3416 -1.0242
 2054TIP3    H227798   3.092   2.471   0.765  0.1326  0.3426  0.6154
 2055TIP3   OH227799   2.353   5.976   6.728  0.2628 -0.5083  0.9397
 2055TIP3    H127800   2.417   6.001   6.662 -0.0541 -2.0103  0.0021
 2055TIP3    H227801   2.292   5.918   6.682 -1.4751  0.4418  1.9377
 2056TIP3   OH227802   0.380   5.612   0.694  0.4030 -0.3007  0.2037
 2056TIP3    H127803   0.295   5.637   0.731 -1.4321 -2.1816 -2.4061
 2056TIP3    H227804   0.380   5.516   0.696  1.5792 -0.3841 -1.6542
 2057TIP3   OH227805   2.537   1.991   7.593  0.0898  0.3797 -0.5545
 2057TIP3    H127806   2.536   1.998   7.497  1.3873 -2.2398 -0.8298
 2057TIP3    H227807   2.472   1.924   7.613  1.1585 -0.4526  0.2215
 2058TIP3   OH227808   0.864   0.173   8.498 -0.3061 -0.3345 -0.5288
 2058TIP3    H127809   0.950   0.197   8.465 -0.0397  0.1068  0.4565
 2058TIP3    H227810   0.853   0.224   8.578 -0.9893 -1.2549 -0.0065
 2059TIP3   OH227811   4.915   4.197   6.245  0.0800 -0.5082 -0.2598
 2059TIP3    H127812   4.870   4.148   6.315 -0.0813 -0.5370 -0.3850
 2059TIP3    H227813   5.007   4.196   6.272  0.4086 -2.5417 -1.1970
 2060TIP3   OH227814   5.203   3.744   8.148 -0.4196  0.3743 -0.5050
 2060TIP3    H127815   5.171   3.814   8.205  0.4618  1.3254 -1.1331
 2060TIP3    H227816   5.263   3.693   8.203 -1.8875 -0.5904  0.2745
 2061TIP3   OH227817   6.112   0.566   7.671 -0.0698  0.2056 -0.8458
 2061TIP3    H127818   6.084   0.555   7.762 -0.6926 -0.5491 -1.1169
 2061TIP3    H227819   6.051   0.631   7.635  0.4172  0.7898 -0.6254
 2062TIP3   OH227820   0.114   5.976   1.566  0.3652 -0.4291  0.3139
 2062TIP3    H127821   0.029   6.012   1.590 -0.8021 -2.1526 -1.0110
 2062TIP3    H227822   0.154   5.950   1.649 -1.0684 -0.9872  0.8598
 2063TIP3   OH227823   2.630   3.298   6.548 -0.4018 -0.0399  0.3077
 2063TIP3    H127824   2.679   3.261   6.474  0.3402  0.0832  0.7294
 2063TIP3    H227825   2.556   3.238   6.560  0.9706 -1.6585  1.2077
 2064TIP3   OH227826   4.389   2.130   1.092 -0.3199 -0.4390 -0.0705
 2064TIP3    H127827   4.401   2.129   0.997  0.1773  1.4652 -0.0751
 2064TIP3    H227828   4.388   2.038   1.117 -1.8883 -1.0215 -2.0684
 2065TIP3   OH227829   3.704   4.761   8.523 -0.3286 -0.2915 -0.6449
 2065TIP3    H127830   3.796   4.734   8.521 -0.9090 -2.4917 -0.4375
 2065TIP3    H227831   3.656   4.680   8.507 -2.2756  0.6170  0.3797
 2066TIP3   OH227832   2.274   6.358   0.576  0.3366  0.1404 -0.1072
 2066TIP3    H127833   2.282   6.443   0.621 -1.8407  0.7124 -0.6911
 2066TIP3    H227834   2.339   6.303   0.619  0.3251  1.4849  1.7950
 2067TIP3   OH227835   2.684   5.213   0.774  0.2241 -0.0844 -0.0203
 2067TIP3    H127836   2.691   5.210   0.679  0.3301 -2.9026 -0.0206
 2067TIP3    H227837   2.771   5.243   0.804  0.4499  0.0369 -0.7810
 2068TIP3   OH227838   4.645   2.465   8.485 -0.6850  0.0325  0.0381
 2068TIP3    H127839   4.596   2.511   8.553 -0.3508  0.0804  0.2442
 2068TIP3    H227840   4.593   2.387   8.468 -0.0601 -0.6948  1.3367
 2069TIP3   OH227841   6.661   5.370   0.818 -0.4115 -0.4623  0.2995
 2069TIP3    H127842   6.715   5.423   0.876  0.5570 -0.4054 -0.6172
 2069TIP3    H227843   6.714   5.360   0.739 -0.2778 -3.3200  0.6415
 2070TIP3   OH227844   4.808   3.197   1.564 -0.0917  0.8311  0.4944
 2070TIP3    H127845   4.728   3.147   1.547  0.5162  0.1837 -0.5169
 2070TIP3    H227846   4.847   3.211   1.478  1.9072 -0.5784  1.0949
 2071TIP3   OH227847   0.612   0.274   1.348  0.3219  0.1518 -0.1318
 2071TIP3    H127848   0.633   0.276   1.255 -2.7425 -2.8250 -1.0781
 2071TIP3    H227849   0.530   0.323   1.355 -0.0795 -0.6160  0.7627
 2072TIP3   OH227850   4.477   6.791   0.622  0.4164 -0.0364  0.2089
 2072TIP3    H127851   4.472   6.697   0.643  1.4043 -0.8423 -2.6042
 2072TIP3    H227852   4.569   6.813   0.637  0.9551 -0.4314 -2.0877
 2073TIP3   OH227853   1.217   3.445   0.747 -0.1378  0.5198  0.0316
 2073TIP3    H127854   1.181   3.439   0.659 -0.3525  0.2210  0.1351
 2073TIP3    H227855   1.141   3.437   0.805  0.0803 -0.0531  0.2526
 2074TIP3   OH227856   3.848   4.103   1.668 -0.0711  0.2330 -0.2194
 2074TIP3    H127857   3.847   4.189   1.626 -0.1611  0.9609  1.1910
 2074TIP3    H227858   3.873   4.121   1.759  1.2442 -1.4017 -0.2121
 2075TIP3   OH227859   5.209   2.945   7.871 -0.6912  0.0941 -0.7209
 2075TIP3    H127860   5.242   2.888   7.802  0.9361  0.7766 -0.5421
 2075TIP3    H227861   5.283   2.999   7.896 -1.8418  1.4053  0.0263
 2076TIP3   OH227862   2.127   6.730   8.602 -0.2501 -0.3242  0.4920
 2076TIP3    H127863   2.175   6.801   8.560  0.9348 -0.0068  2.2575
 2076TIP3    H227864   2.101   6.672   8.530  0.2099  1.0178 -0.8070
 2077TIP3   OH227865   1.352   2.509   1.011  0.4768  0.3612 -0.3142
 2077TIP3    H127866   1.280   2.552   0.964 -0.5537 -0.1145  0.7793
 2077TIP3    H227867   1.396   2.581   1.056 -0.7486  0.4109  0.8659
 2078TIP3   OH227868   5.309   3.479   1.546 -0.2031  0.4886 -0.4585
 2078TIP3    H127869   5.330   3.480   1.639  0.9459  1.6874 -0.7092
 2078TIP3    H227870   5.221   3.515   1.540 -0.7313 -0.6357  0.2422
 2079TIP3   OH227871   0.743   0.900   7.292  0.5928 -0.1507 -0.2018
 2079TIP3    H127872   0.793   0.937   7.364 -0.8166  1.5875 -0.0548
 2079TIP3    H227873   0.779   0.941   7.214  0.9926 -0.7513 -0.3406
 2080TIP3   OH227874   2.625   4.136   8.112 -0.0687  0.0579  0.3198
 2080TIP3    H127875   2.636   4.230   8.127 -1.6572  0.6267 -1.6314
 2080TIP3    H227876   2.571   4.131   8.033 -2.1268 -2.4907  1.7428
 2081TIP3   OH227877   6.138   2.053   7.332  0.0205 -0.2467  0.0235
 2081TIP3    H127878   6.065   2.037   7.273  0.4975 -0.9234 -0.3863
 2081TIP3    H227879   6.208   2.086   7.276 -0.0350  0.6623  0.4535
 2082TIP3   OH227880   1.012   1.358   1.158 -0.0507 -0.1032  0.3673
 2082TIP3    H127881   0.983   1.308   1.235 -0.1878  0.0857  0.4375
 2082TIP3    H227882   1.030   1.291   1.092 -1.0814 -0.1941  0.1680
 2083TIP3   OH227883   4.576   4.972   7.066  0.0010 -0.2182 -0.3309
 2083TIP3    H127884   4.618   5.039   7.012  0.2740  0.7104  0.9866
 2083TIP3    H227885   4.485   4.970   7.036 -0.5094  2.1168  0.8290
 2084TIP3   OH227886   3.552   5.410   8.832  0.3860 -0.0823  0.5388
 2084TIP3    H127887   3.564   5.496   8.791 -0.5111 -0.5583 -0.7873
 2084TIP3    H227888   3.630   5.361   8.805  0.3699 -0.0230  0.3785
 2085TIP3   OH227889   4.211   6.474   6.844  0.4589 -0.9670 -0.0704
 2085TIP3    H127890   4.192   6.534   6.916  0.1493 -2.1377  0.8685
 2085TIP3    H227891   4.304   6.453   6.853  1.5908  2.1325 -2.6260
 2086TIP3   OH227892   2.363   0.254   8.874  0.0211 -0.2872  0.4364
 2086TIP3    H127893   2.340   0.250   8.781 -1.2831 -0.6392  0.7554
 2086TIP3    H227894   2.290   0.301   8.915 -0.2182 -1.5606  1.5210
 2087TIP3   OH227895   3.772   6.334   8.283 -0.4172 -0.0512 -0.2093
 2087TIP3    H127896   3.790   6.423   8.251 -0.9909 -0.0799 -0.6219
 2087TIP3    H227897   3.687   6.340   8.325  0.1792 -0.0920  1.0484
 2088TIP3   OH227898   1.566   1.726   0.692  0.2012  0.4788 -0.0059
 2088TIP3    H127899   1.566   1.731   0.597  1.2205  1.3591  0.0152
 2088TIP3    H227900   1.656   1.748   0.717 -0.5730  2.6120  1.2241
 2089TIP3   OH227901   2.690   2.816   7.476  0.0256  0.0292  0.1955
 2089TIP3    H127902   2.749   2.876   7.522 -0.4250 -0.0669  0.9132
 2089TIP3    H227903   2.747   2.770   7.414  0.5209  0.6238  0.1959
 2090TIP3   OH227904   4.308   3.189   6.972 -0.3473 -0.2388  0.0940
 2090TIP3    H127905   4.375   3.246   6.935 -0.0921 -0.1187  0.7376
 2090TIP3    H227906   4.316   3.108   6.923  1.5008 -0.8816  1.3500
 2091TIP3   OH227907   0.768   2.259   0.720 -0.4125  0.5779  0.4146
 2091TIP3    H127908   0.810   2.179   0.752  1.2415  1.3936  0.3551
 2091TIP3    H227909   0.773   2.320   0.794 -1.2276  0.8105  0.2935
 2092TIP3   OH227910   6.550   1.608   8.114 -0.1301 -0.4860 -0.5758
 2092TIP3    H127911   6.613   1.632   8.183 -0.1001  2.3381 -1.4505
 2092TIP3    H227912   6.485   1.554   8.159 -0.9310  2.4019  2.1697
 2093TIP3   OH227913   2.282   1.324   0.617 -0.0313 -0.1605 -0.5771
 2093TIP3    H127914   2.186   1.325   0.623 -0.0309  0.8753 -0.6321
 2093TIP3    H227915   2.304   1.405   0.571  1.0295  1.0450  1.8861
 2094TIP3   OH227916   2.445   3.301   7.138 -0.0616 -0.4299 -0.0383
 2094TIP3    H127917   2.442   3.341   7.051  1.4186  1.4715  0.6960
 2094TIP3    H227918   2.486   3.216   7.124 -0.7033 -0.5509 -1.3089
 2095TIP3   OH227919   3.164   1.325   7.148 -0.1768 -0.2958  0.1015
 2095TIP3    H127920   3.116   1.408   7.139 -0.5869 -0.3542  1.4212
 2095TIP3    H227921   3.237   1.346   7.207  0.0613 -0.7393 -0.0299
 2096TIP3   OH227922   6.699   6.245   8.623  0.3048  0.2321  0.6673
 2096TIP3    H127923   6.650   6.263   8.542  0.5058  1.7368  0.8560
 2096TIP3    H227924   6.720   6.152   8.618 -0.2467  0.1596 -0.7098
 2097TIP3   OH227925   6.670   2.742   8.323 -0.1835 -0.1437  0.2741
 2097TIP3    H127926   6.602   2.746   8.256 -1.2208 -0.9128  1.2218
 2097TIP3    H227927   6.752   2.743   8.275 -0.8266  1.6906 -0.8710
 2098TIP3   OH227928   1.406   2.572   0.186  0.3732 -0.0298  0.1317
 2098TIP3    H127929   1.316   2.582   0.157  0.5035  2.1564  0.3623
 2098TIP3    H227930   1.444   2.509   0.124 -1.2403 -0.8735 -0.0536
 2099TIP3   OH227931   3.840   6.647   1.945  0.6523 -0.5532  0.9089
 2099TIP3    H127932   3.827   6.696   1.864  0.1201 -0.6622  0.9254
 2099TIP3    H227933   3.935   6.639   1.953  0.7116 -2.1115 -0.6577
 2100TIP3   OH227934   5.369   3.354   2.694 -0.5604 -0.4300  0.1746
 2100TIP3    H127935   5.356   3.273   2.745 -0.3860 -0.7945 -0.3496
 2100TIP3    H227936   5.463   3.373   2.703 -0.5052 -0.5673 -0.1199
 2101TIP3   OH227937   1.832   1.962   7.668 -0.8073 -0.1987 -0.0538
 2101TIP3    H127938   1.756   2.015   7.646 -1.0653 -1.2929 -2.0137
 2101TIP3    H227939   1.808   1.873   7.641  0.1438 -1.0865  1.8222
 2102TIP3   OH227940   2.482   6.196   0.660  0.1716  0.7983 -0.0122
 2102TIP3    H127941   2.536   6.118   0.643  0.1069  0.5387  0.9346
 2102TIP3    H227942   2.538   6.254   0.710  0.5002  1.7437 -1.4199
 2103TIP3   OH227943   0.948   6.669   8.443  0.0950  0.2998 -0.3122
 2103TIP3    H127944   0.894   6.628   8.376  0.1894  0.9018 -0.7628
 2103TIP3    H227945   0.885   6.698   8.510 -0.2694  1.9203 -1.3182
 2104TIP3   OH227946   3.397   3.651   6.677  0.1745  0.0910  0.2113
 2104TIP3    H127947   3.444   3.621   6.754  0.5241 -1.3082 -0.5061
 2104TIP3    H227948   3.466   3.682   6.618  0.0221 -0.0018 -0.0175
 2105TIP3   OH227949   3.628   0.928   1.138  0.0728  0.2116 -0.2201
 2105TIP3    H127950   3.619   0.994   1.069  0.8821  0.7597  0.1773
 2105TIP3    H227951   3.563   0.861   1.117  1.5653 -0.6095 -2.6517
 2106TIP3   OH227952   5.228   1.959   8.614 -0.0032  0.8942  0.2443
 2106TIP3    H127953   5.317   1.962   8.578 -0.3411  1.2576 -0.5761
 2106TIP3    H227954   5.235   2.006   8.697  0.7789  0.0725  0.6667
 2107TIP3   OH227955   1.407   4.871   7.452 -0.3140  0.2434  0.0303
 2107TIP3    H127956   1.411   4.861   7.547 -2.4874 -2.6356 -0.0373
 2107TIP3    H227957   1.487   4.830   7.420 -0.9136 -1.4150  0.5660
 2108TIP3   OH227958   0.069   1.724   8.384  0.2016  0.8590 -0.7036
 2108TIP3    H127959  -0.005   1.783   8.371 -1.0563 -0.5948 -0.4452
 2108TIP3    H227960   0.037   1.639   8.355  2.0185  0.3173 -1.2337
 2109TIP3   OH227961   5.642   1.117   6.681 -0.0906 -0.0888 -0.3565
 2109TIP3    H127962   5.605   1.068   6.754 -0.5783  0.2759 -0.3592
 2109TIP3    H227963   5.730   1.080   6.670 -0.1760 -0.4434  0.1273
 2110TIP3   OH227964   2.504   5.219   6.489  0.1771 -0.2395 -0.7067
 2110TIP3    H127965   2.447   5.281   6.443  1.2334  0.2818 -1.3522
 2110TIP3    H227966   2.541   5.165   6.419  1.5984  0.3922 -0.4608
 2111TIP3   OH227967   5.216   0.779   8.808  0.1729 -0.0436  0.2803
 2111TIP3    H127968   5.278   0.796   8.737  2.2142  0.0337  1.9599
 2111TIP3    H227969   5.228   0.853   8.868 -1.3989 -0.1732  0.7878
 2112TIP3   OH227970   5.352   0.164   0.132 -0.2746  0.3531  0.1801
 2112TIP3    H127971   5.420   0.098   0.121 -1.1857 -0.4614 -0.7051
 2112TIP3    H227972   5.337   0.198   0.044 -0.8679  0.6858  0.4058
 2113TIP3   OH227973   0.100   0.229   0.847  0.1695  0.2450  0.4292
 2113TIP3    H127974   0.140   0.315   0.860 -0.3782  0.7822 -1.2257
 2113TIP3    H227975   0.035   0.222   0.917  2.0818 -0.0366  2.2677
 2114TIP3   OH227976   2.642   1.485   0.678  0.0887  0.1199 -0.1282
 2114TIP3    H127977   2.634   1.483   0.582 -1.3771 -1.2436 -0.0159
 2114TIP3    H227978   2.605   1.402   0.707  0.1100  0.6972  1.6679
 2115TIP3   OH227979   1.378   2.244   8.820  0.6095 -0.2684 -0.2574
 2115TIP3    H127980   1.442   2.304   8.859 -0.6168  1.4763 -0.7677
 2115TIP3    H227981   1.404   2.236   8.729  0.7297 -0.4228 -0.2080
 2116TIP3   OH227982   1.609   0.404   0.691 -0.2908  0.3036 -0.3904
 2116TIP3    H127983   1.618   0.427   0.783 -0.7902  0.7069 -0.4330
 2116TIP3    H227984   1.597   0.488   0.647  2.4779  0.3551 -1.1684
 2117TIP3   OH227985   5.783   3.003   1.351  0.9049 -0.4589  0.0079
 2117TIP3    H127986   5.838   3.077   1.378  0.8362  0.0056 -1.0628
 2117TIP3    H227987   5.696   3.042   1.337  0.0674 -1.3099  2.3819
 2118TIP3   OH227988   2.781   0.788   1.287  0.0575 -0.0533  0.8119
 2118TIP3    H127989   2.751   0.791   1.378  1.2744 -1.6312  1.3195
 2118TIP3    H227990   2.803   0.696   1.272 -0.0115  0.1970 -1.0600
 2119TIP3   OH227991   4.345   4.043   1.734 -0.0336 -0.1154  0.5005
 2119TIP3    H127992   4.436   4.016   1.745 -0.4968 -2.1232 -0.1109
 2119TIP3    H227993   4.347   4.139   1.740  2.1035 -0.1123  0.4868
 2120TIP3   OH227994   0.354   3.807   1.085  0.1220  0.6432 -0.0699
 2120TIP3    H127995   0.448   3.790   1.082  0.5590  2.9527 -1.9385
 2120TIP3    H227996   0.315   3.727   1.049  1.5047  0.3767 -1.0779
 2121TIP3   OH227997   3.265   1.632   7.642  0.4704  0.5282 -0.5446
 2121TIP3    H127998   3.251   1.641   7.737 -0.2278 -1.0975 -0.4643
 2121TIP3    H227999   3.359   1.648   7.630  0.5918  0.6058  0.4388
 2122TIP3   OH228000   5.610   5.322   1.927  0.0289  0.1269  0.3273
 2122TIP3    H128001   5.514   5.321   1.923  0.0196 -2.9892 -2.0541
 2122TIP3    H228002   5.636   5.388   1.863 -0.5929 -0.8919 -1.0294
 2123TIP3   OH228003   2.387   4.390   2.198 -0.6006  0.0124  0.3105
 2123TIP3    H128004   2.375   4.321   2.132  0.5635 -1.3012  1.4246
 2123TIP3    H228005   2.302   4.434   2.202 -1.0140 -0.5671 -1.2861
 2124TIP3   OH228006   1.062   1.496   7.981 -0.0444 -0.0089  0.6927
 2124TIP3    H128007   1.132   1.529   7.925  0.5220 -1.2809  0.6307
 2124TIP3    H228008   1.064   1.401   7.970 -0.9089 -0.1693  1.7168
 2125TIP3   OH228009   2.204   0.739   0.417  0.5549  0.3816 -0.7430
 2125TIP3    H128010   2.257   0.660   0.410  0.9856  0.6877 -1.0051
 2125TIP3    H228011   2.193   0.752   0.511 -1.9786 -1.5976 -0.6704
 2126TIP3   OH228012   5.688   5.758   6.340  0.4326  0.6556  0.0927
 2126TIP3    H128013   5.691   5.671   6.300 -1.0403  0.1877  0.9173
 2126TIP3    H228014   5.770   5.765   6.389 -0.2684 -1.0764  1.5946
 2127TIP3   OH228015   6.787   0.372   7.387 -0.0160  0.2460  0.5169
 2127TIP3    H128016   6.854   0.437   7.407 -0.2479  0.0012  2.3100
 2127TIP3    H228017   6.826   0.316   7.321  1.4027  0.3334  1.2517
 2128TIP3   OH228018   6.067   2.255   7.063 -0.4454 -0.0180 -0.0560
 2128TIP3    H128019   6.011   2.280   6.990 -2.2720  1.4308  1.7018
 2128TIP3    H228020   6.131   2.325   7.069  1.0102 -1.1648 -1.4433
 2129TIP3   OH228021   6.026   1.267   8.421 -0.4751  0.2594  0.0463
 2129TIP3    H128022   5.957   1.260   8.487 -0.3298 -0.7954  0.0946
 2129TIP3    H228023   5.981   1.295   8.341 -0.5275  2.5360  0.7860
 2130TIP3   OH228024   1.918   1.147   7.020  0.3084 -0.2416  0.0748
 2130TIP3    H128025   1.983   1.172   7.085 -1.4237  0.4883  1.6413
 2130TIP3    H228026   1.854   1.218   7.022 -0.3668 -0.7453 -1.6548
 2131TIP3   OH228027   5.981   5.750   1.697 -0.1875  0.0039 -0.3503
 2131TIP3    H128028   5.947   5.828   1.740 -0.2223  0.2526 -0.8160
 2131TIP3    H228029   6.041   5.784   1.631 -0.8702 -0.3149 -1.1536
 2132TIP3   OH228030   4.189   0.095   7.213 -0.0410  0.2021  0.0987
 2132TIP3    H128031   4.175   0.027   7.148  1.1936 -0.6663  0.6939
 2132TIP3    H228032   4.267   0.066   7.261 -2.2335 -0.5423  3.6145
 2133TIP3   OH228033   5.176   6.218   0.403  0.7073 -0.1126  0.4215
 2133TIP3    H128034   5.152   6.307   0.375 -1.4591 -1.1575 -1.3435
 2133TIP3    H228035   5.137   6.209   0.490 -2.3810 -0.5012 -0.8924
 2134TIP3   OH228036   0.419   0.155   1.086  0.1545 -0.4187 -0.4861
 2134TIP3    H128037   0.475   0.229   1.062  0.9015 -0.7559  0.1741
 2134TIP3    H228038   0.404   0.165   1.179 -0.8851 -0.3485 -0.6513
 2135TIP3   OH228039   1.908   2.827   0.541  0.2723  0.0412  0.2074
 2135TIP3    H128040   1.831   2.845   0.595 -0.6551  1.0319 -1.3602
 2135TIP3    H228041   1.874   2.774   0.469  1.0879  0.3399 -0.4096
 2136TIP3   OH228042   6.679   5.722   6.665 -0.0201 -0.2259 -0.0177
 2136TIP3    H128043   6.775   5.720   6.655  0.0190  1.9469 -0.6325
 2136TIP3    H228044   6.648   5.650   6.610  1.2166 -0.1329 -0.8851
 2137TIP3   OH228045   0.825   2.083   7.045 -0.3140 -0.9057  0.0743
 2137TIP3    H128046   0.821   2.141   7.121 -1.1668  1.6932 -1.7788
 2137TIP3    H228047   0.749   2.027   7.052 -1.1388  0.2280  0.5033
 2138TIP3   OH228048   0.678   0.662   6.822  0.2860 -0.3464 -0.6179
 2138TIP3    H128049   0.636   0.644   6.738 -0.7415  0.0802 -0.2065
 2138TIP3    H228050   0.630   0.610   6.886  0.5406 -0.0522 -0.1730
 2139TIP3   OH228051   1.030   6.284   8.804 -0.2866 -0.1766  0.9556
 2139TIP3    H128052   1.047   6.316   8.892 -0.2095  0.0623  0.8554
 2139TIP3    H228053   0.988   6.357   8.759  2.8544  1.0612 -0.2721
 2140TIP3   OH228054   5.299   3.200   2.222  0.4511  0.2599 -0.5506
 2140TIP3    H128055   5.354   3.161   2.290  0.3733 -0.2627 -0.7848
 2140TIP3    H228056   5.224   3.142   2.215 -0.5904  1.4373  0.3867
 2141TIP3   OH228057   6.215   2.305   0.122  0.7116 -0.4096  0.0216
 2141TIP3    H128058   6.207   2.397   0.148 -0.2298 -0.7817  1.1737
 2141TIP3    H228059   6.157   2.295   0.047 -1.4178 -0.6393  1.6060
 2142TIP3   OH228060   6.091   3.919   0.405  0.5010 -0.0738  0.0170
 2142TIP3    H128061   6.115   3.889   0.492  0.0899  0.0330  0.1681
 2142TIP3    H228062   5.998   3.897   0.396  0.5961 -0.2815 -0.4760
 2143TIP3   OH228063   5.635   3.571   8.652  0.4766 -0.1683 -0.3909
 2143TIP3    H128064   5.540   3.563   8.644  0.5490 -0.5053 -0.9656
 2143TIP3    H228065   5.650   3.583   8.746 -0.1646  0.3992 -0.3495
 2144TIP3   OH228066   0.504   3.725   8.515 -0.4027  0.4048 -0.1538
 2144TIP3    H128067   0.471   3.752   8.429 -1.9429  0.0068  0.2853
 2144TIP3    H228068   0.455   3.646   8.536  0.9714 -0.2988  0.4901
 2145TIP3   OH228069   3.721   5.039   8.823  0.4192 -0.5288  0.1006
 2145TIP3    H128070   3.781   5.112   8.805  0.8102 -0.9256 -0.2294
 2145TIP3    H228071   3.763   4.991   8.894  0.2538 -0.5377  0.1923
 2146TIP3   OH228072   4.202   6.542   2.016  0.3690  0.0205  0.4611
 2146TIP3    H128073   4.140   6.470   2.008  1.7284 -1.5913  2.8695
 2146TIP3    H228074   4.280   6.502   2.056  0.7717  3.0008  3.0493
 2147TIP3   OH228075   1.933   0.648   0.042  0.2746  0.0900 -0.7092
 2147TIP3    H128076   1.908   0.559   0.067  1.3733 -0.1269 -0.3472
 2147TIP3    H228077   1.935   0.696   0.125  2.8809 -0.3684 -0.4464
 2148TIP3   OH228078   3.220   1.516   1.297 -0.2148 -0.6939 -0.0577
 2148TIP3    H128079   3.306   1.547   1.327 -0.0958  0.2348 -1.3061
 2148TIP3    H228080   3.158   1.553   1.361  0.1527  0.1121 -0.1581
 2149TIP3   OH228081   5.463   4.261   6.671 -0.0389 -0.1813 -0.1015
 2149TIP3    H128082   5.427   4.349   6.661 -0.4295 -0.3708 -0.3749
 2149TIP3    H228083   5.539   4.259   6.612 -0.9957 -0.5515 -1.3723
 2150TIP3   OH228084   0.978   0.898   2.240  0.1136 -0.1382  0.0969
 2150TIP3    H128085   0.995   0.811   2.204  1.0555  0.4478 -0.9455
 2150TIP3    H228086   0.895   0.889   2.285 -0.2119 -1.3839 -0.6919
 2151TIP3   OH228087   4.364   2.485   0.524 -0.4053  0.3582 -0.8135
 2151TIP3    H128088   4.407   2.571   0.525 -0.5411  0.4316  0.6162
 2151TIP3    H228089   4.315   2.482   0.606  0.3986 -1.4792 -0.3567
 2152TIP3   OH228090   5.582   5.753   2.169  0.5742  0.3722  0.8552
 2152TIP3    H128091   5.637   5.828   2.146 -1.6363  1.5524 -1.0465
 2152TIP3    H228092   5.544   5.725   2.086 -2.4019  0.2852  2.1083
 2153TIP3   OH228093   5.942   1.210   1.116 -0.1851 -0.2193  0.1874
 2153TIP3    H128094   5.927   1.304   1.125 -0.7207 -0.3153  0.3319
 2153TIP3    H228095   5.926   1.174   1.203 -1.8917 -0.6883 -0.2660
 2154TIP3   OH228096   1.276   1.493   6.724 -0.3543 -0.7204 -0.4258
 2154TIP3    H128097   1.359   1.456   6.753  1.1897  0.3793 -2.9981
 2154TIP3    H228098   1.248   1.435   6.653 -1.8115 -1.0648  0.4093
 2155TIP3   OH228099   4.229   2.589   8.847 -0.4313  0.1273 -0.6195
 2155TIP3    H128100   4.172   2.513   8.833  0.3532 -0.1270 -2.8347
 2155TIP3    H228101   4.170   2.656   8.882 -1.9908 -0.3563 -2.1351
 2156TIP3   OH228102   4.537   0.540   7.401 -0.0854  0.3085 -0.2394
 2156TIP3    H128103   4.512   0.453   7.432  0.4205  0.6341  1.1472
 2156TIP3    H228104   4.455   0.577   7.366 -0.6095 -0.2148  0.4005
 2157TIP3   OH228105   4.327   3.353   7.431  0.1125  0.2832  0.1990
 2157TIP3    H128106   4.279   3.405   7.366 -0.6152  0.0410  0.5357
 2157TIP3    H228107   4.322   3.263   7.400  2.7159  0.5241 -1.2265
 2158TIP3   OH228108   1.332   4.828   0.970 -0.2272 -0.2284 -0.0539
 2158TIP3    H128109   1.298   4.793   0.888 -0.9030  0.5534 -0.1235
 2158TIP3    H228110   1.295   4.772   1.038  1.2394 -1.5823 -0.3183
 2159TIP3   OH228111   0.081   4.850   1.097 -0.4163  0.1372  0.4895
 2159TIP3    H128112   0.173   4.863   1.120 -0.5384 -0.2229  1.2022
 2159TIP3    H228113   0.081   4.840   1.002  0.3487 -0.4747  0.5504
 2160TIP3   OH228114   0.681   6.365   6.983 -0.8942  0.3687  0.5441
 2160TIP3    H128115   0.620   6.435   7.007 -1.9553 -0.5685  0.6934
 2160TIP3    H228116   0.690   6.312   7.062 -1.6808 -0.7728 -0.0966
 2161TIP3   OH228117   2.543   3.950   6.895 -0.6435 -0.1831  0.1238
 2161TIP3    H128118   2.577   4.027   6.941 -0.8130  0.5900 -1.0019
 2161TIP3    H228119   2.620   3.912   6.853 -0.7552  0.1501 -0.4007
 2162TIP3   OH228120   3.376   5.116   7.057 -0.9576 -0.2937  0.0167
 2162TIP3    H128121   3.372   5.073   7.142 -2.3038 -2.0965 -0.8983
 2162TIP3    H228122   3.383   5.209   7.078 -1.0238 -0.7047  2.0885
 2163TIP3   OH228123   5.455   6.045   1.936 -0.2262  0.5056 -0.7600
 2163TIP3    H128124   5.515   5.976   1.907  0.0585  1.2610 -2.0441
 2163TIP3    H228125   5.375   6.029   1.887  0.0461  1.4258 -1.5348
 2164TIP3   OH228126   5.146   4.444   7.266  0.9763  0.6333 -0.2023
 2164TIP3    H128127   5.202   4.394   7.325 -1.9086 -1.9064  0.6709
 2164TIP3    H228128   5.155   4.401   7.181  0.0435 -0.1145  0.0610
 2165TIP3   OH228129   3.894   2.180   8.180 -0.4019  0.2076 -0.7285
 2165TIP3    H128130   3.888   2.162   8.274 -0.1290  0.6665 -0.6175
 2165TIP3    H228131   3.901   2.276   8.175  0.6200  0.1256 -1.1603
 2166TIP3   OH228132   0.896   2.685   8.280  0.9329  0.1386  0.0374
 2166TIP3    H128133   0.969   2.680   8.219  0.1402 -0.0001 -0.9257
 2166TIP3    H228134   0.930   2.733   8.355  2.0289  0.0097 -0.3679
 2167TIP3   OH228135   3.011   1.756   1.603  0.1412 -0.1543  0.0076
 2167TIP3    H128136   3.105   1.770   1.605  0.1451 -0.1885  0.0766
 2167TIP3    H228137   3.000   1.673   1.556  0.0689  0.4676 -1.0960
 2168TIP3   OH228138   2.993   4.311   6.552 -0.0441 -0.1636 -0.2030
 2168TIP3    H128139   2.931   4.341   6.486  2.5274 -0.7784 -3.1108
 2168TIP3    H228140   2.980   4.216   6.556 -0.4774 -0.0825  0.5491
 2169TIP3   OH228141   5.290   5.963   8.789 -0.4284  0.0665  0.1241
 2169TIP3    H128142   5.295   6.055   8.764  0.5539  0.0741  0.2986
 2169TIP3    H228143   5.216   5.928   8.740 -1.8747  1.3288  1.2977
 2170TIP3   OH228144   6.192   6.378   7.137  0.2465 -0.4729 -0.4942
 2170TIP3    H128145   6.240   6.397   7.056 -1.4378  0.0728 -1.4109
 2170TIP3    H228146   6.148   6.295   7.119  2.6067 -2.2264  1.2121
 2171TIP3   OH228147   1.227   0.696   8.595 -0.3101 -0.1782 -0.2935
 2171TIP3    H128148   1.159   0.764   8.593 -1.2545 -1.0992 -0.2083
 2171TIP3    H228149   1.186   0.621   8.638  0.4076 -1.1302 -1.2046
 2172TIP3   OH228150   5.934   5.581   7.982 -0.2579 -0.1960  0.0509
 2172TIP3    H128151   6.003   5.644   8.002 -1.8168  1.4989  0.3103
 2172TIP3    H228152   5.887   5.570   8.065  0.2217 -2.0569  0.1201
 2173TIP3   OH228153   0.592   5.317   1.170 -0.2390  0.4385  0.1387
 2173TIP3    H128154   0.543   5.253   1.221  1.5285 -0.7230  0.4471
 2173TIP3    H228155   0.611   5.388   1.232 -5.2547  3.2529 -0.9980
 2174TIP3   OH228156   4.352   1.773   6.548  0.1552  0.2100 -0.2911
 2174TIP3    H128157   4.443   1.753   6.569  0.0486 -1.4970 -1.2206
 2174TIP3    H228158   4.311   1.687   6.539 -1.2130  0.9313 -1.3147
 2175TIP3   OH228159   1.959   1.273   1.615  0.2007 -0.9503  0.0887
 2175TIP3    H128160   2.008   1.198   1.579 -1.2313 -2.5728  1.3705
 2175TIP3    H228161   2.018   1.311   1.680  1.5799  0.1093 -1.6807
 2176TIP3   OH228162   4.028   0.083   7.754 -0.1155  0.1621 -0.0353
 2176TIP3    H128163   4.058   0.035   7.831  0.8153  2.2126  0.9506
 2176TIP3    H228164   4.059   0.031   7.680  1.1682 -0.5739  0.9782
 2177TIP3   OH228165   0.819   6.401   2.210  0.3411  0.2272  0.5858
 2177TIP3    H128166   0.858   6.428   2.293 -0.8391  3.6385  0.2129
 2177TIP3    H228167   0.875   6.442   2.144  0.2463 -0.9548 -0.2488
 2178TIP3   OH228168   1.908   5.962   8.353  0.1119 -0.4276  0.2552
 2178TIP3    H128169   1.878   5.923   8.270 -1.0893  3.0154 -1.1419
 2178TIP3    H228170   1.991   6.005   8.331 -1.4348  2.7323 -0.0953
 2179TIP3   OH228171   2.951   0.573   7.324  0.7537 -0.2263  0.1165
 2179TIP3    H128172   2.977   0.500   7.268 -1.1241 -0.6083 -0.3347
 2179TIP3    H228173   2.900   0.631   7.266 -0.6871 -0.3113  1.2478
 2180TIP3   OH228174   0.053   3.053   8.526  0.0929  0.4296 -0.2883
 2180TIP3    H128175   0.051   2.984   8.460  0.4854  0.9706 -0.8783
 2180TIP3    H228176   0.040   3.134   8.476  0.0796  0.8204  0.3377
 2181TIP3   OH228177   1.580   0.492   6.538  0.0983 -0.1173 -0.0986
 2181TIP3    H128178   1.669   0.487   6.502  0.6165 -1.6737  1.2306
 2181TIP3    H228179   1.574   0.580   6.576  0.3521  0.7011 -1.8890
 2182TIP3   OH228180   2.372   0.836   1.160 -0.0100  0.2485 -0.2824
 2182TIP3    H128181   2.343   0.759   1.112  0.3484 -0.2673  0.3103
 2182TIP3    H228182   2.382   0.806   1.250  1.5781  0.5950 -0.3136
 2183TIP3   OH228183   0.759   0.489   0.490 -0.0406 -0.2264  0.1336
 2183TIP3    H128184   0.673   0.455   0.514  0.5982 -1.5503  0.6720
 2183TIP3    H228185   0.749   0.584   0.489 -1.9159 -0.3815 -1.4008
 2184TIP3   OH228186   4.553   3.925   1.157 -0.0119 -0.0021  1.0021
 2184TIP3    H128187   4.555   3.859   1.226  2.4706 -0.9229  0.1442
 2184TIP3    H228188   4.567   4.008   1.203 -1.9999 -0.1312  1.9463
 2185TIP3   OH228189   0.471   2.937   0.842  0.5604 -0.4322  0.3654
 2185TIP3    H128190   0.558   2.943   0.882  1.2049  2.6536 -1.1788
 2185TIP3    H228191   0.443   3.028   0.833 -1.4526 -1.1844 -2.0685
 2186TIP3   OH228192   2.826   6.771   2.034 -0.0330 -0.7212 -0.1047
 2186TIP3    H128193   2.861   6.790   1.946  0.2273 -0.0317  0.1366
 2186TIP3    H228194   2.742   6.729   2.018 -1.1328  1.5715 -0.7112
 2187TIP3   OH228195   6.615   0.593   8.691 -0.5350  0.1344  0.5783
 2187TIP3    H128196   6.670   0.550   8.625 -1.2264 -0.7028  0.5293
 2187TIP3    H228197   6.644   0.554   8.774  1.3903  2.2661  1.0200
 2188TIP3   OH228198   5.964   6.376   7.998 -0.1105 -0.4096 -0.0535
 2188TIP3    H128199   6.008   6.384   8.083  0.0831 -2.9270  0.1717
 2188TIP3    H228200   5.940   6.465   7.974  0.4233  0.4405  2.3376
 2189TIP3   OH228201   2.442   1.351   0.177  0.5563 -0.0198 -0.1903
 2189TIP3    H128202   2.361   1.329   0.131 -1.9908  3.3937  2.1772
 2189TIP3    H228203   2.492   1.402   0.113  0.5107 -1.4858 -1.4389
 2190TIP3   OH228204   5.478   2.079   8.561  0.1563  0.0128  0.4449
 2190TIP3    H128205   5.448   2.165   8.534 -1.2853 -0.6188 -0.0384
 2190TIP3    H228206   5.513   2.093   8.650 -0.0668  1.0741  0.3781
 2191TIP3   OH228207   6.017   3.363   8.103  0.0477 -0.2083  0.1408
 2191TIP3    H128208   5.936   3.320   8.129 -0.8193  0.8707 -0.6653
 2191TIP3    H228209   6.041   3.417   8.178  0.5045 -1.1681  0.7056
 2192TIP3   OH228210   0.768   3.721   6.241  0.4575 -0.3177  0.1022
 2192TIP3    H128211   0.765   3.779   6.317 -0.8054 -0.2340  0.0071
 2192TIP3    H228212   0.766   3.633   6.278  0.4638 -0.2801  0.1919
 2193TIP3   OH228213   4.129   5.050   1.049  0.1565 -0.2283 -0.7086
 2193TIP3    H128214   4.044   5.011   1.031 -0.0159  0.2900 -1.0185
 2193TIP3    H228215   4.192   4.981   1.026 -0.1863 -0.8444  0.1315
 2194TIP3   OH228216   5.145   1.879   8.280 -0.2014  0.1023 -0.6940
 2194TIP3    H128217   5.066   1.853   8.328  1.2833 -1.3432  1.1449
 2194TIP3    H228218   5.194   1.797   8.270  1.3496  1.0586 -1.2183
 2195TIP3   OH228219   2.021   2.117   0.146 -0.3175 -0.1310  0.5752
 2195TIP3    H128220   2.045   2.170   0.070  1.8490 -0.1987  1.1551
 2195TIP3    H228221   2.079   2.041   0.142 -1.1348 -0.8372  1.5530
 2196TIP3   OH228222   5.114   2.770   8.475 -0.2096  0.4459 -0.0823
 2196TIP3    H128223   5.041   2.756   8.414 -0.8481 -1.4910  1.0108
 2196TIP3    H228224   5.097   2.855   8.514 -3.9590 -1.2293  2.6069
 2197TIP3   OH228225   0.567   6.017   8.760  0.0237 -0.2221 -0.1510
 2197TIP3    H128226   0.612   6.062   8.687 -2.3985 -0.0643 -1.6699
 2197TIP3    H228227   0.618   5.937   8.773  0.8271 -0.0218 -1.7001
 2198TIP3   OH228228   6.154   2.992   6.853  0.5333 -0.1568  0.3776
 2198TIP3    H128229   6.070   3.002   6.808 -0.1821  0.7652  1.8380
 2198TIP3    H228230   6.191   3.080   6.855  1.0469 -0.3740  0.6465
 2199TIP3   OH228231   3.877   0.108   0.967  0.4221 -0.0439 -0.3158
 2199TIP3    H128232   3.877   0.084   1.060  3.9562 -2.1134 -0.6661
 2199TIP3    H228233   3.917   0.195   0.965  0.2743  0.0370  0.0802
 2200TIP3   OH228234   2.263   2.800   7.499 -0.5725 -0.0614  0.2843
 2200TIP3    H128235   2.219   2.715   7.494  1.6244 -1.2477 -0.2986
 2200TIP3    H228236   2.288   2.809   7.590  1.3001 -1.2412 -0.0689
 2201TIP3   OH228237   3.782   4.472   8.657 -0.0379 -0.3660 -0.0743
 2201TIP3    H128238   3.837   4.408   8.703 -2.7237 -2.1943  0.8385
 2201TIP3    H228239   3.826   4.556   8.672  1.8455 -1.5408  1.5485
 2202TIP3   OH228240   6.072   3.049   7.423 -0.1375  0.0798 -0.3285
 2202TIP3    H128241   6.008   3.001   7.476  0.4274 -2.3171 -1.6531
 2202TIP3    H228242   6.119   3.103   7.486 -2.1754  0.4761  0.9502
 2203TIP3   OH228243   6.568   3.633   2.040 -0.7033  0.3308  0.1857
 2203TIP3    H128244   6.568   3.719   2.083  4.8112  1.2885 -0.9245
 2203TIP3    H228245   6.599   3.573   2.108 -0.7073  0.0395 -0.0679
 2204TIP3   OH228246   3.881   0.104   6.990  0.6366 -0.3856  0.0096
 2204TIP3    H128247   3.976   0.121   6.993  0.6729 -0.7078  0.7709
 2204TIP3    H228248   3.842   0.186   7.021  0.6030  0.2169 -1.5389
 2205TIP3   OH228249   6.636   2.592   6.346 -0.0761  0.6640  0.3751
 2205TIP3    H128250   6.565   2.625   6.400 -0.4522 -0.6941  0.7434
 2205TIP3    H228251   6.593   2.538   6.280  0.5850 -0.0816  0.5358
 2206TIP3   OH228252   6.413   2.612   0.103  1.0284  0.2783  0.3157
 2206TIP3    H128253   6.343   2.677   0.106 -1.5754 -2.3001  0.4929
 2206TIP3    H228254   6.445   2.616   0.013 -1.4636 -0.3976 -0.6985
 2207TIP3   OH228255   6.341   5.646   1.362  0.0152 -0.3374 -0.2570
 2207TIP3    H128256   6.383   5.665   1.278  0.7354 -0.8380 -0.0178
 2207TIP3    H228257   6.365   5.719   1.418 -0.4828  0.0083 -0.4762
 2208TIP3   OH228258   5.093   4.979   7.896 -0.4094  0.2941 -0.1393
 2208TIP3    H128259   5.032   5.051   7.911 -0.8899 -0.2274  0.4827
 2208TIP3    H228260   5.043   4.917   7.843  0.7642  1.4322 -2.7681
 2209TIP3   OH228261   0.523   0.205   6.389  0.3871 -0.6351  0.1456
 2209TIP3    H128262   0.507   0.246   6.474  2.3775 -0.7668  0.6502
 2209TIP3    H228263   0.443   0.156   6.370 -0.0587 -0.7113  2.0283
 2210TIP3   OH228264   1.817   4.814   0.810 -0.4126  0.9182  0.3872
 2210TIP3    H128265   1.771   4.747   0.861 -0.8861  1.2240  0.3704
 2210TIP3    H228266   1.807   4.894   0.862  0.9496  0.8008  0.8753
 2211TIP3   OH228267   5.158   0.511   6.725  0.7251  0.0527  0.1546
 2211TIP3    H128268   5.158   0.464   6.642  0.2974 -0.9226  0.6926
 2211TIP3    H228269   5.079   0.481   6.770  0.2970  1.4903  0.4151
 2212TIP3   OH228270   0.322   1.623   0.476 -0.7376  0.1693  0.0921
 2212TIP3    H128271   0.259   1.692   0.498  1.0780  1.5619  1.3386
 2212TIP3    H228272   0.393   1.670   0.432 -0.5359 -1.3394 -1.2450
 2213TIP3   OH228273   6.227   5.832   6.488 -0.3982 -0.0196  0.0434
 2213TIP3    H128274   6.171   5.889   6.437 -0.3448  0.5289  0.5890
 2213TIP3    H228275   6.316   5.859   6.466 -0.3813  0.4960  0.7342
 2214TIP3   OH228276   3.600   3.601   6.852  1.1234  0.0021 -0.3586
 2214TIP3    H128277   3.540   3.538   6.891  1.9034 -0.8563 -0.5330
 2214TIP3    H228278   3.646   3.640   6.926  0.4572  0.5809 -0.2318
 2215TIP3   OH228279   4.950   2.216   7.801  0.4227 -0.2939  0.0477
 2215TIP3    H128280   4.943   2.154   7.874 -1.3032 -0.4540 -0.1888
 2215TIP3    H228281   4.970   2.161   7.725  0.3090 -0.3875  0.0838
 2216TIP3   OH228282   2.361   1.500   1.703 -0.5292  0.0972  0.1529
 2216TIP3    H128283   2.451   1.474   1.684 -1.3517 -2.4156 -0.7679
 2216TIP3    H228284   2.365   1.537   1.791  1.5085  0.9129 -0.2192
 2217TIP3   OH228285   2.313   5.134   7.461 -0.2501 -0.0691 -0.0531
 2217TIP3    H128286   2.398   5.165   7.432 -0.5092  0.9710  0.2529
 2217TIP3    H228287   2.255   5.146   7.386 -0.2813 -0.1139 -0.0367
 2218TIP3   OH228288   5.462   1.782   6.650  0.1893  0.1142 -0.0537
 2218TIP3    H128289   5.430   1.865   6.616 -1.1560 -1.3047 -2.5436
 2218TIP3    H228290   5.394   1.752   6.709  0.7207  0.7935  0.9226
 2219TIP3   OH228291   2.053   5.067   7.309  0.1930  0.2018  0.5006
 2219TIP3    H128292   1.962   5.057   7.282  0.5948  0.7655 -1.1826
 2219TIP3    H228293   2.095   4.986   7.281  0.9150  1.3610 -2.0702
 2220TIP3   OH228294   1.797   4.742   8.693 -0.8123  0.7864 -0.3087
 2220TIP3    H128295   1.828   4.833   8.699  0.4935  0.2968  1.1614
 2220TIP3    H228296   1.766   4.722   8.781  0.4351 -0.6722 -0.1642
 2221TIP3   OH228297   3.594   1.571   7.145 -0.6437 -0.7745  0.4005
 2221TIP3    H128298   3.626   1.553   7.233  0.1529  0.3354  0.3598
 2221TIP3    H228299   3.610   1.490   7.096  3.0213 -0.0601  0.1430
 2222TIP3   OH228300   4.824   6.470   2.203 -0.0171  0.0219 -0.1944
 2222TIP3    H128301   4.793   6.556   2.232  1.4380  0.8099 -0.8631
 2222TIP3    H228302   4.908   6.458   2.248 -0.6231 -1.4949  0.6258
 2223TIP3   OH228303   4.840   3.635   8.395  0.0335 -0.7340 -0.2769
 2223TIP3    H128304   4.815   3.633   8.487 -1.8913 -0.5677 -0.7525
 2223TIP3    H228305   4.912   3.698   8.391 -0.0090 -0.5643  1.0619
 2224TIP3   OH228306   0.136   4.757   0.048 -0.5920  0.1408  0.2179
 2224TIP3    H128307   0.086   4.756  -0.034 -1.5282  3.1268  0.6403
 2224TIP3    H228308   0.222   4.724   0.024 -1.0202  0.4026 -1.8353
 2225TIP3   OH228309   5.808   3.162   0.964  0.3797 -0.2175  0.1529
 2225TIP3    H128310   5.859   3.081   0.965 -0.6690 -0.9062  0.4152
 2225TIP3    H228311   5.730   3.141   1.017 -0.2772  0.7117 -0.4244
 2226TIP3   OH228312   5.442   3.786   1.337 -0.5783 -0.5755 -0.3326
 2226TIP3    H128313   5.410   3.706   1.379 -0.8466  0.1737  0.9561
 2226TIP3    H228314   5.506   3.821   1.399 -0.7660  0.4177 -0.6813
 2227TIP3   OH228315   2.252   3.684   1.802  0.1348  0.2294  0.1262
 2227TIP3    H128316   2.194   3.688   1.878 -0.2247  0.2752 -0.1511
 2227TIP3    H228317   2.340   3.693   1.839 -0.0841  1.0977  0.4616
 2228TIP3   OH228318   2.143   3.704   1.278  0.0808 -0.2082  0.1356
 2228TIP3    H128319   2.098   3.769   1.332  1.5757  0.2650  0.8405
 2228TIP3    H228320   2.217   3.675   1.331  0.5996 -1.0108 -0.9879
 2229TIP3   OH228321   3.139   4.305   0.971 -0.0595  0.1542 -0.3827
 2229TIP3    H128322   3.231   4.288   0.991  0.0100 -1.3372 -1.8025
 2229TIP3    H228323   3.111   4.228   0.922 -1.7278  1.1698 -1.0789
 2230TIP3   OH228324   5.657   3.942   2.388  0.4446  0.2723  0.2742
 2230TIP3    H128325   5.584   3.881   2.384  1.0935 -0.5116  0.2101
 2230TIP3    H228326   5.697   3.926   2.474 -0.0489  1.4013  0.7384
 2231TIP3   OH228327   4.451   2.817   6.940 -0.6023 -0.1408 -0.9462
 2231TIP3    H128328   4.407   2.868   6.872  1.9769 -0.0547 -2.6727
 2231TIP3    H228329   4.521   2.873   6.971 -0.4282 -1.0072  0.2999
 2232TIP3   OH228330   2.828   6.235   8.367  0.1956 -0.3115  0.0808
 2232TIP3    H128331   2.794   6.263   8.452  1.8031 -2.5290  1.5850
 2232TIP3    H228332   2.753   6.238   8.308 -0.8906  1.6237  1.4602
 2233TIP3   OH228333   2.643   4.384   0.513  0.3681 -0.2553 -0.1143
 2233TIP3    H128334   2.608   4.349   0.430  0.5979  0.3145 -0.4528
 2233TIP3    H228335   2.573   4.440   0.546 -0.0834 -1.1681  0.5329
 2234TIP3   OH228336   2.129   2.182   1.963 -0.6056 -0.1044  0.0437
 2234TIP3    H128337   2.081   2.228   2.033  0.3670 -0.1106  0.7275
 2234TIP3    H228338   2.202   2.239   1.942 -1.2545  0.2108 -1.4681
 2235TIP3   OH228339   3.058   4.056   2.189  0.9194 -0.2685 -0.1155
 2235TIP3    H128340   2.983   4.018   2.235  1.0758  2.1471  2.3624
 2235TIP3    H228341   3.119   3.983   2.178 -0.9475 -1.8583 -0.4739
 2236TIP3   OH228342   5.033   4.418   0.277  0.0893  0.4565  0.4499
 2236TIP3    H128343   4.966   4.473   0.319 -0.5120  0.5400 -0.5766
 2236TIP3    H228344   5.112   4.471   0.280 -0.3971  1.2420 -0.1890
 2237TIP3   OH228345   2.269   5.580   2.244 -0.7457  0.1401 -0.4094
 2237TIP3    H128346   2.235   5.567   2.332 -0.3548  0.1070 -0.2615
 2237TIP3    H228347   2.199   5.550   2.186 -0.1694 -1.9832 -0.1019
 2238TIP3   OH228348   5.396   3.209   7.083 -0.0482 -0.0101 -0.0954
 2238TIP3    H128349   5.315   3.230   7.130  1.1968 -0.0472  2.2363
 2238TIP3    H228350   5.455   3.281   7.104  1.0637 -0.8400 -0.2828
 2239TIP3   OH228351   5.263   0.169   1.019  0.0405  0.6585 -0.0335
 2239TIP3    H128352   5.291   0.201   0.934 -0.3923 -0.3603 -0.5787
 2239TIP3    H228353   5.308   0.084   1.028 -2.1971 -0.6566 -0.5834
 2240TIP3   OH228354   1.085   4.613   7.193 -0.1819 -0.1259 -0.3125
 2240TIP3    H128355   1.034   4.693   7.184 -0.7874 -0.6831 -2.5964
 2240TIP3    H228356   1.171   4.634   7.156  0.4322  0.0722  1.1546
 2241TIP3   OH228357   5.750   5.894   7.732  0.5467  0.0728  0.7623
 2241TIP3    H128358   5.683   5.868   7.668  0.6215 -0.6385  0.9634
 2241TIP3    H228359   5.704   5.952   7.792  1.3436  4.0770 -2.1024
 2242TIP3   OH228360   5.494   2.962   8.109 -0.0642  0.1069 -0.1129
 2242TIP3    H128361   5.464   2.891   8.052 -0.1741 -1.5503  1.8966
 2242TIP3    H228362   5.502   3.038   8.050 -2.3633 -0.8788 -1.8910
 2243TIP3   OH228363   5.271   4.770   1.592 -0.2367 -0.1465  0.1689
 2243TIP3    H128364   5.253   4.682   1.559  0.3989 -0.0594 -0.4274
 2243TIP3    H228365   5.243   4.828   1.521  1.5094  0.0308 -0.4221
 2244TIP3   OH228366   6.179   6.675   6.588 -0.6185  0.1342  0.3969
 2244TIP3    H128367   6.237   6.646   6.517  0.0641 -0.5955  1.2308
 2244TIP3    H228368   6.228   6.658   6.668 -0.4767  2.9699  1.0199
 2245TIP3   OH228369   4.387   4.720   7.873 -0.5929 -0.3018 -0.1117
 2245TIP3    H128370   4.307   4.710   7.924 -0.3195  0.7348  0.5471
 2245TIP3    H228371   4.358   4.760   7.791 -0.5091  2.3535  1.0638
 2246TIP3   OH228372   0.073   3.322   8.430  0.5447 -0.4207 -0.7180
 2246TIP3    H128373   0.125   3.383   8.482  0.1618 -1.2655  0.7397
 2246TIP3    H228374  -0.006   3.371   8.408  1.0448  0.1961 -1.1520
 2247TIP3   OH228375   5.039   3.704   1.502 -0.6381 -0.0464  0.0686
 2247TIP3    H128376   5.029   3.620   1.547  1.0282 -0.6706 -0.6114
 2247TIP3    H228377   5.057   3.767   1.572 -0.5801 -0.5234  0.4888
 2248TIP3   OH228378   4.358   5.132   2.109 -0.0322 -0.0718 -0.5648
 2248TIP3    H128379   4.398   5.114   2.195 -1.0016 -1.3082 -0.3469
 2248TIP3    H228380   4.315   5.217   2.120 -0.7942 -0.5637  0.4373
 2249TIP3   OH228381   1.920   6.623   0.748  0.0960 -0.0077 -0.3429
 2249TIP3    H128382   1.951   6.554   0.689  1.0542 -0.2376  0.3994
 2249TIP3    H228383   2.000   6.665   0.780 -0.2657 -1.1728  2.3159
 2250TIP3   OH228384   5.709   0.557   1.285  0.1009  0.2281 -0.1987
 2250TIP3    H128385   5.636   0.616   1.266  0.6427  0.5936 -1.2195
 2250TIP3    H228386   5.785   0.614   1.292  0.4099 -0.2226  0.1395
 2251TIP3   OH228387   3.596   0.271   0.384 -0.0964 -0.8375 -0.8014
 2251TIP3    H128388   3.572   0.349   0.435  0.2336 -0.0937 -1.7697
 2251TIP3    H228389   3.524   0.210   0.400  0.0261 -0.6641  0.6128
 2252TIP3   OH228390   2.974   0.475   7.071 -0.4296 -0.0061  0.5218
 2252TIP3    H128391   2.888   0.474   7.030 -1.0801 -0.8843  1.8476
 2252TIP3    H228392   2.998   0.383   7.078 -0.9316 -0.0001  3.2505
 2253TIP3   OH228393   6.259   0.004   8.490  0.1326 -0.3122  0.2087
 2253TIP3    H128394   6.292  -0.050   8.562  0.0458  0.2375  0.6701
 2253TIP3    H228395   6.178  -0.038   8.463 -0.5749  0.2620  1.3791
 2254TIP3   OH228396   5.006   1.211   1.429  0.1690  0.5692 -0.2247
 2254TIP3    H128397   4.971   1.189   1.515 -0.8593  1.8361 -0.2787
 2254TIP3    H228398   4.947   1.168   1.367  0.5772  0.1181 -0.3000
 2255TIP3   OH228399   0.845   1.990   0.902 -0.2846 -0.6408 -0.3887
 2255TIP3    H128400   0.937   2.017   0.908 -0.2448 -0.6150 -0.9687
 2255TIP3    H228401   0.836   1.957   0.812 -0.1725 -3.2487  0.4951
 2256TIP3   OH228402   2.889   5.105   8.828  0.0651  0.2596  0.5567
 2256TIP3    H128403   2.881   5.010   8.819  0.4957  0.2625  0.0955
 2256TIP3    H228404   2.956   5.129   8.765 -0.0522  0.8753  0.6633
 2257TIP3   OH228405   4.434   3.853   8.432  0.5379  0.2600 -0.5490
 2257TIP3    H128406   4.345   3.869   8.401  0.9029  1.9004 -0.8488
 2257TIP3    H228407   4.490   3.877   8.359  1.3591  2.9903  0.8215
 2258TIP3   OH228408   5.300   6.185   8.622  0.1065  0.4883 -0.1204
 2258TIP3    H128409   5.313   6.100   8.580  1.9645  1.6237 -2.0449
 2258TIP3    H228410   5.325   6.249   8.555 -3.0103  2.6805  0.5516
 2259TIP3   OH228411   5.822   5.239   2.361 -0.6221  0.8756  0.4318
 2259TIP3    H128412   5.889   5.299   2.395  0.7019 -0.5530  0.4919
 2259TIP3    H228413   5.749   5.295   2.337  0.1483  2.3919  1.4623
 2260TIP3   OH228414   1.791   3.307   6.329 -0.5845  0.5832 -0.3748
 2260TIP3    H128415   1.719   3.319   6.267 -1.1223  0.7325  0.2677
 2260TIP3    H228416   1.823   3.219   6.312 -0.1681  0.9388 -1.4456
 2261TIP3   OH228417   1.986   4.081   2.199  0.0600  0.2768 -0.5250
 2261TIP3    H128418   2.007   3.996   2.161  1.5506  0.5490 -0.3884
 2261TIP3    H228419   1.965   4.063   2.290 -1.4988 -0.1366 -0.9308
 2262TIP3   OH228420   1.558   5.203   7.455  0.0608  0.1521  0.2248
 2262TIP3    H128421   1.603   5.120   7.437 -0.3746 -0.1825  0.6339
 2262TIP3    H228422   1.528   5.194   7.546 -1.5532  0.0031 -0.2852
 2263TIP3   OH228423   3.471   1.543   2.096  0.4765  0.3654 -0.1274
 2263TIP3    H128424   3.473   1.479   2.025  0.3905  0.6109 -0.3481
 2263TIP3    H228425   3.522   1.617   2.064  0.5486  0.4225  0.1167
 2264TIP3   OH228426   4.136   0.252   6.425 -0.0740 -0.1541  0.4748
 2264TIP3    H128427   4.123   0.261   6.519  1.1332 -0.3034  0.6675
 2264TIP3    H228428   4.064   0.197   6.396  0.2075 -1.0879  1.4996
 2265TIP3   OH228429   5.375   3.530   8.393  0.1283  0.2844 -0.2914
 2265TIP3    H128430   5.300   3.477   8.367 -0.0219  0.6923 -0.7056
 2265TIP3    H228431   5.337   3.613   8.423  0.4571  0.9495 -1.6260
 2266TIP3   OH228432   5.388   0.251   8.538  0.5114  0.2414 -0.4046
 2266TIP3    H128433   5.335   0.330   8.523 -1.0749 -0.3646  1.5699
 2266TIP3    H228434   5.323   0.181   8.550  1.7958 -0.7874  0.8686
 2267TIP3   OH228435   5.449   4.316   1.202  0.8320  0.0481 -0.3732
 2267TIP3    H128436   5.531   4.365   1.200  1.4780 -1.0148 -0.8546
 2267TIP3    H228437   5.464   4.245   1.265  1.2760 -1.7259 -2.3465
 2268TIP3   OH228438   0.961   1.831   1.628  0.3432  0.2961  0.0358
 2268TIP3    H128439   0.974   1.738   1.610 -0.6981  0.2990 -0.7417
 2268TIP3    H228440   1.045   1.872   1.606  0.6478 -0.3830 -0.0657
 2269TIP3   OH228441   4.650   3.652   1.867  0.0102 -0.5630 -0.2779
 2269TIP3    H128442   4.723   3.590   1.876  0.2935 -0.1174  0.6140
 2269TIP3    H228443   4.666   3.694   1.782  0.7481 -0.5424 -0.1419
 2270TIP3   OH228444   4.360   0.452   0.153  0.3654  0.1325 -0.0160
 2270TIP3    H128445   4.378   0.377   0.210 -1.6032 -0.5016 -0.1634
 2270TIP3    H228446   4.389   0.528   0.203  0.1591 -0.5329  1.1573
 2271TIP3   OH228447   6.036   4.462   8.559  0.2138  0.0596 -0.5111
 2271TIP3    H128448   6.117   4.463   8.508 -0.0539 -1.7344 -1.0253
 2271TIP3    H228449   5.976   4.518   8.510  0.9257  0.8842 -0.4644
 2272TIP3   OH228450   2.898   2.849   8.375 -0.0986 -0.0692  1.0282
 2272TIP3    H128451   2.898   2.919   8.309  1.4321 -0.4780  0.5565
 2272TIP3    H228452   2.806   2.832   8.392 -0.5080  0.7231 -0.2892
 2273TIP3   OH228453   3.911   2.084   7.264  0.5496 -0.4359 -0.6438
 2273TIP3    H128454   3.834   2.140   7.272  0.0523 -0.7898 -2.6002
 2273TIP3    H228455   3.974   2.137   7.215  1.0419 -0.6627 -0.2629
 2274TIP3   OH228456   3.803   3.469   7.544 -0.4590 -0.1620 -0.0390
 2274TIP3    H128457   3.737   3.483   7.476 -1.2680  1.9438  1.0822
 2274TIP3    H228458   3.776   3.389   7.588 -0.1730 -1.3158 -1.8492
 2275TIP3   OH228459   5.485   0.190   7.871 -0.7710 -0.1960  0.5731
 2275TIP3    H128460   5.429   0.246   7.819 -0.8622 -0.0274  0.8499
 2275TIP3    H228461   5.433   0.112   7.888 -0.2679 -0.8453 -0.7135
 2276TIP3   OH228462   2.822   2.840   7.958  0.0274 -0.1466 -0.1189
 2276TIP3    H128463   2.906   2.860   7.999  0.4992 -0.5461 -0.8869
 2276TIP3    H228464   2.768   2.805   8.030  0.0360  1.4038  0.6794
 2277TIP3   OH228465   0.569   5.461   8.519  0.4690  0.2072 -0.2018
 2277TIP3    H128466   0.648   5.488   8.566 -1.1474  1.1813  2.1787
 2277TIP3    H228467   0.587   5.371   8.492  1.8433 -0.1360  1.6169
 2278TIP3   OH228468   0.044   4.175   7.482  0.2966  0.1905  0.2605
 2278TIP3    H128469   0.074   4.108   7.544 -2.2212 -1.4035 -0.0952
 2278TIP3    H228470  -0.027   4.220   7.527  1.7328  2.5004  0.3629
 2279TIP3   OH228471   2.171   5.964   0.344  0.0280 -0.0646 -0.3163
 2279TIP3    H128472   2.087   5.944   0.302  0.5171 -3.0650 -0.0889
 2279TIP3    H228473   2.237   5.939   0.279  0.7411 -1.5878  0.9027
 2280TIP3   OH228474   5.365   2.280   0.930 -0.1238 -0.2669 -0.5071
 2280TIP3    H128475   5.327   2.220   0.994  0.2446  0.2453  0.2080
 2280TIP3    H228476   5.459   2.276   0.948 -0.1612  1.1429  0.1180
 2281TIP3   OH228477   3.323   3.578   0.361 -0.2625  0.0335 -0.0801
 2281TIP3    H128478   3.369   3.501   0.328 -1.8107 -1.0722  0.2481
 2281TIP3    H228479   3.230   3.554   0.360 -0.9093  2.2524 -0.9154
 2282TIP3   OH228480   3.513   6.273   8.423  0.8611 -0.1869  0.1731
 2282TIP3    H128481   3.464   6.219   8.361  0.1534 -2.8214  2.7461
 2282TIP3    H228482   3.531   6.213   8.496  2.4412  2.4388  2.0888
 2283TIP3   OH228483   1.024   1.279   7.363 -0.2548 -0.0813 -0.1007
 2283TIP3    H128484   1.082   1.214   7.323  0.6660  0.8169 -0.2586
 2283TIP3    H228485   0.958   1.297   7.296 -0.2023 -0.4515 -0.2553
 2284TIP3   OH228486   0.097   5.990   2.106 -0.1492 -0.3739 -0.8356
 2284TIP3    H128487   0.177   6.042   2.116 -0.6845  0.8201 -2.3520
 2284TIP3    H228488   0.125   5.899   2.119  1.8586 -0.1892 -3.2129
 2285TIP3   OH228489   6.546   6.293   7.251  0.0164 -0.8354  0.0643
 2285TIP3    H128490   6.471   6.284   7.309 -0.1656  0.0978 -0.0001
 2285TIP3    H228491   6.602   6.358   7.294 -0.6950  0.7874 -1.3223
 2286TIP3   OH228492   5.691   5.546   7.317 -0.4359  0.1619  0.7562
 2286TIP3    H128493   5.713   5.639   7.314 -0.9921  0.4287  2.9006
 2286TIP3    H228494   5.596   5.543   7.323 -0.4769 -0.5920 -0.0200
 2287TIP3   OH228495   1.923   0.563   8.079 -0.1174 -0.8933 -0.2470
 2287TIP3    H128496   1.980   0.558   8.002 -0.0859 -1.1516 -0.2071
 2287TIP3    H228497   1.876   0.480   8.080 -2.6016  0.3709 -1.9055
 2288TIP3   OH228498   3.567   0.883   6.664  0.1778 -0.2913  0.1316
 2288TIP3    H128499   3.565   0.865   6.570 -1.3655 -1.5986  0.3784
 2288TIP3    H228500   3.529   0.971   6.672  0.6056 -0.0379 -0.4669
 2289TIP3   OH228501   4.635   4.704   1.089  0.1380  0.5085 -0.3670
 2289TIP3    H128502   4.719   4.670   1.122 -1.1394 -1.0306  1.4828
 2289TIP3    H228503   4.637   4.797   1.110  0.7531  0.1926  1.1263
 2290TIP3   OH228504   4.161   2.674   0.340 -1.2414  0.3445 -0.3517
 2290TIP3    H128505   4.241   2.628   0.314 -1.3555  0.7965 -1.5626
 2290TIP3    H228506   4.176   2.697   0.431 -0.5547 -0.7587 -0.1632
 2291TIP3   OH228507   0.606   4.964   1.934  0.0759 -0.5782 -0.5778
 2291TIP3    H128508   0.522   5.010   1.929  0.4123  0.1502  0.3364
 2291TIP3    H228509   0.603   4.918   2.018  0.8054 -0.0894 -0.2703
 2292TIP3   OH228510   6.193   1.825   1.964 -0.0287 -0.0880  0.5543
 2292TIP3    H128511   6.098   1.818   1.978  0.0624 -1.8724  0.4665
 2292TIP3    H228512   6.231   1.755   2.016  1.3097  0.8862  0.9454
 2293TIP3   OH228513   2.555   2.116   6.836  0.3857 -0.7053 -0.4726
 2293TIP3    H128514   2.461   2.125   6.819  0.3821  0.0433 -0.0808
 2293TIP3    H228515   2.595   2.189   6.789  0.7092 -0.6440 -0.1052
 2294TIP3   OH228516   4.213   1.214   1.560 -0.0540  0.3537 -0.1775
 2294TIP3    H128517   4.140   1.158   1.586 -0.6186  1.6739  1.2024
 2294TIP3    H228518   4.171   1.290   1.519  0.6590  0.2450 -1.1594
 2295TIP3   OH228519   1.952   3.478   0.800 -0.1432 -0.1997 -0.6798
 2295TIP3    H128520   1.871   3.452   0.845 -0.1783 -1.3988 -1.3772
 2295TIP3    H228521   2.009   3.508   0.870 -0.5292 -1.1537  0.0791
 2296TIP3   OH228522   5.289   4.901   1.991 -0.6191 -0.6938  0.1645
 2296TIP3    H128523   5.303   4.963   2.062 -0.4243 -0.9038  0.3136
 2296TIP3    H228524   5.292   4.954   1.911 -0.2965 -0.5307  0.2808
 2297TIP3   OH228525   2.946   3.195   6.950  0.2871  0.0306  0.0528
 2297TIP3    H128526   2.977   3.286   6.946  1.3120 -0.3016  0.3053
 2297TIP3    H228527   3.017   3.143   6.913 -0.2924 -0.6797 -0.0892
 2298TIP3   OH228528   4.113   4.281   1.705  0.0393  0.3176  0.2591
 2298TIP3    H128529   4.194   4.282   1.756  0.2149  1.1837 -0.0212
 2298TIP3    H228530   4.049   4.241   1.763  0.7712 -0.8343  0.3037
 2299TIP3   OH228531   2.000   5.221   8.505  0.3140 -0.2921  0.3651
 2299TIP3    H128532   2.071   5.278   8.535  1.2067 -0.8005 -0.7004
 2299TIP3    H228533   1.990   5.156   8.575  0.4379  0.1835  0.8270
 2300TIP3   OH228534   4.773   0.518   8.006  0.0301  0.3502  0.3052
 2300TIP3    H128535   4.785   0.429   7.974  0.3760  0.2335  0.7416
 2300TIP3    H228536   4.847   0.532   8.066  0.0934  1.0021  0.0834
 2301TIP3   OH228537   4.787   5.795   1.497  0.1464 -0.1120  0.1718
 2301TIP3    H128538   4.806   5.836   1.581  1.8096  0.8814 -0.6315
 2301TIP3    H228539   4.700   5.757   1.508 -0.3556  1.3516  1.8305
 2302TIP3   OH228540   3.006   4.984   0.234 -0.2695  0.2681  0.1210
 2302TIP3    H128541   3.069   4.982   0.162 -0.7078 -0.1017 -0.2616
 2302TIP3    H228542   2.922   4.963   0.193 -0.9276  2.2333  0.3259
 2303TIP3   OH228543   4.224   0.598   2.646 -0.3168 -0.1491  0.2834
 2303TIP3    H128544   4.243   0.667   2.710  1.6417 -1.0728  0.7699
 2303TIP3    H228545   4.309   0.562   2.624 -1.1058 -0.9700 -1.6388
 2304TIP3   OH228546   4.775   3.212   1.201  0.6147  0.2983  0.2976
 2304TIP3    H128547   4.721   3.135   1.182  1.1944 -0.2572  0.8169
 2304TIP3    H228548   4.719   3.287   1.181 -0.0621 -0.2614  0.0583
 2305TIP3   OH228549   0.639   3.979   1.163 -0.2704  0.3373  0.2665
 2305TIP3    H128550   0.544   3.988   1.172 -0.7895 -3.7553  0.5654
 2305TIP3    H228551   0.674   3.998   1.250 -0.8731  1.1659  0.3327
 2306TIP3   OH228552   5.345   4.044   1.290 -0.7270 -0.2157  0.3141
 2306TIP3    H128553   5.388   3.961   1.311 -0.3718 -0.2385 -0.4911
 2306TIP3    H228554   5.274   4.051   1.354  0.4830 -0.1537  1.7023
 2307TIP3   OH228555   0.937   3.952   1.788  0.7637  0.4379 -0.0266
 2307TIP3    H128556   1.006   4.015   1.766 -0.3793  1.1874 -1.6746
 2307TIP3    H228557   0.956   3.876   1.734 -0.0725  0.9235 -1.0337
 2308TIP3   OH228558   0.930   6.812   1.321 -0.4834 -0.3219  0.1572
 2308TIP3    H128559   0.887   6.830   1.237 -1.4540  1.3095  0.9549
 2308TIP3    H228560   0.968   6.896   1.347 -0.5373 -0.6974  1.5496
 2309TIP3   OH228561   0.317   4.381   6.853 -0.7991 -0.1256  0.4841
 2309TIP3    H128562   0.290   4.414   6.938  0.7532 -2.7834  2.1597
 2309TIP3    H228563   0.287   4.290   6.851 -0.1408 -0.3553 -1.4985
 2310TIP3   OH228564   1.649   5.679   1.113  0.0852 -0.1400  0.2558
 2310TIP3    H128565   1.708   5.604   1.108  0.5363  0.3111 -2.3237
 2310TIP3    H228566   1.595   5.662   1.191  0.1066 -3.1947 -0.2868
 2311TIP3   OH228567   6.317   6.730   8.730 -0.4660 -0.1428 -0.1450
 2311TIP3    H128568   6.369   6.761   8.805 -0.8578 -1.1953  0.5890
 2311TIP3    H228569   6.336   6.636   8.725 -1.5025 -0.3460 -0.5091
 2312TIP3   OH228570   2.640   2.630   1.694  0.4404  0.3590  0.3122
 2312TIP3    H128571   2.687   2.598   1.617 -2.6061 -0.1895 -1.4645
 2312TIP3    H228572   2.565   2.571   1.702 -0.4371  1.6639  2.4939
 2313TIP3   OH228573   1.396   3.396   8.786  0.2616  0.1653 -0.1965
 2313TIP3    H128574   1.315   3.424   8.827  0.5290 -2.5249  2.5520
 2313TIP3    H228575   1.462   3.407   8.854  1.4108 -1.4331 -0.9927
 2314TIP3   OH228576   0.732   0.073   0.766 -0.3498 -0.1913 -0.4456
 2314TIP3    H128577   0.689   0.158   0.757 -0.4688 -0.2601 -0.5284
 2314TIP3    H228578   0.825   0.092   0.759 -0.3019  0.1045  0.8164
 2315TIP3   OH228579   0.009   3.628   8.210  0.4195 -0.0443  0.2063
 2315TIP3    H128580   0.032   3.720   8.198 -0.7116  0.3650  1.0414
 2315TIP3    H228581  -0.060   3.628   8.276 -1.6800 -1.2562 -1.8456
 2316TIP3   OH228582   0.221   5.492   7.047 -0.3315  0.4380  0.6703
 2316TIP3    H128583   0.220   5.442   6.965  0.7509 -0.2086  1.0247
 2316TIP3    H228584   0.287   5.560   7.032 -0.2319  0.4024  0.9483
 2317TIP3   OH228585   5.514   6.263   0.028 -0.1090  0.2169  0.1744
 2317TIP3    H128586   5.472   6.309  -0.045 -1.9622 -2.1702 -0.3881
 2317TIP3    H228587   5.533   6.175  -0.007 -0.5489 -0.8199  2.3954
 2318TIP3   OH228588   5.016   3.978   1.632 -0.2228 -0.2852  0.4641
 2318TIP3    H128589   4.922   3.991   1.620 -0.1126 -0.1194 -0.2576
 2318TIP3    H228590   5.025   3.954   1.724 -1.1919 -2.2095  0.1107
 2319TIP3   OH228591   5.011   5.622   1.623 -0.3439  0.1628 -0.1804
 2319TIP3    H128592   5.058   5.690   1.670 -0.5350  0.2824 -0.1606
 2319TIP3    H228593   4.943   5.669   1.575  1.1896  0.3238 -2.3429
 2320TIP3   OH228594   6.033   0.047   7.856 -0.0058  0.0049 -0.2837
 2320TIP3    H128595   6.103   0.066   7.919 -0.7760  0.5639  0.4201
 2320TIP3    H228596   6.019   0.129   7.810  0.2227 -0.2768 -0.8708
 2321TIP3   OH228597   0.831   3.748   2.086  0.1183 -0.2020 -0.0430
 2321TIP3    H128598   0.836   3.771   1.993 -0.6559 -1.7523 -0.4969
 2321TIP3    H228599   0.919   3.766   2.119  0.7175 -0.5996 -1.3290
 2322TIP3   OH228600   2.523   1.111   7.689  0.5140  0.7113 -0.0138
 2322TIP3    H128601   2.491   1.193   7.653  3.3592  1.1948 -1.8188
 2322TIP3    H228602   2.498   1.045   7.624  0.6568  0.6201  0.0234
 2323TIP3   OH228603   2.101   0.410   7.382 -0.3754  0.1770 -0.7242
 2323TIP3    H128604   2.023   0.405   7.327 -0.6068  0.8445 -0.4665
 2323TIP3    H228605   2.173   0.423   7.320 -0.5864  0.5407 -0.8937
 2324TIP3   OH228606   3.524   3.304   0.752 -0.1193 -0.2400  1.0952
 2324TIP3    H128607   3.491   3.375   0.698  1.4362  1.2085  1.9513
 2324TIP3    H228608   3.450   3.244   0.762 -2.0761  2.1814  1.8843
 2325TIP3   OH228609   0.083   0.983   8.825  0.3454  0.6611 -0.2262
 2325TIP3    H128610   0.087   1.044   8.898  1.1057 -0.1310  0.4098
 2325TIP3    H228611   0.174   0.956   8.811 -0.1462 -1.6980  0.7081
 2326TIP3   OH228612   0.365   4.632   8.327  0.4599  0.3343  0.2354
 2326TIP3    H128613   0.400   4.652   8.240 -1.9210 -0.3974 -0.9921
 2326TIP3    H228614   0.297   4.567   8.310 -0.6988  0.8527  2.5632
 2327TIP3   OH228615   6.234   2.565   8.662  0.5123 -0.5724  0.2673
 2327TIP3    H128616   6.261   2.635   8.602  2.8501  0.5640  2.4431
 2327TIP3    H228617   6.156   2.600   8.705  1.4990  0.6514  1.1387
 2328TIP3   OH228618   2.425   1.398   6.754  0.3546  0.1570  0.7445
 2328TIP3    H128619   2.478   1.477   6.755 -0.2534  0.5725  1.4217
 2328TIP3    H228620   2.470   1.339   6.815  0.2734  0.3603  1.0075
 2329TIP3   OH228621   2.162   0.383   0.100  0.7832  0.1140 -0.0645
 2329TIP3    H128622   2.141   0.385   0.193 -2.7532  1.8102 -0.7193
 2329TIP3    H228623   2.181   0.474   0.078  0.7416 -0.1248 -1.1459
 2330TIP3   OH228624   3.081   5.134   7.185  0.1214  0.6496 -0.0802
 2330TIP3    H128625   3.120   5.179   7.260 -1.0157  0.2186  0.8120
 2330TIP3    H228626   3.031   5.201   7.140 -0.6081  0.5653  0.5720
 2331TIP3   OH228627   3.915   5.803   6.290  0.2012 -0.1047  0.1809
 2331TIP3    H128628   3.947   5.892   6.278  0.7092 -0.1400  1.2157
 2331TIP3    H228629   3.877   5.802   6.377  2.1394 -1.4216  1.0951
 2332TIP3   OH228630   4.234   5.189   7.407 -0.2926  0.0645  0.4910
 2332TIP3    H128631   4.274   5.274   7.391 -3.4731  1.8664  1.1195
 2332TIP3    H228632   4.172   5.178   7.334  0.5063 -2.1009  0.0491
 2333TIP3   OH228633   2.521   2.877   6.971 -0.1384  0.6020  0.0357
 2333TIP3    H128634   2.467   2.828   6.909 -1.2501 -0.8006  1.9802
 2333TIP3    H228635   2.489   2.967   6.965 -2.2108 -0.0406  0.5503
 2334TIP3   OH228636   5.643   3.547   2.233  0.2083  0.1625 -0.2869
 2334TIP3    H128637   5.712   3.612   2.218 -1.0145  1.2040 -1.6971
 2334TIP3    H228638   5.661   3.478   2.168  0.3064  0.1028 -0.1967
 2335TIP3   OH228639   1.335   3.839   1.395 -0.2736 -0.1752 -0.0971
 2335TIP3    H128640   1.427   3.813   1.387  0.4001  1.7959  0.6304
 2335TIP3    H228641   1.330   3.883   1.480 -1.3857  1.6179 -1.0317
 2336TIP3   OH228642   5.452   4.701   0.114 -0.1385  0.1504 -0.3363
 2336TIP3    H128643   5.398   4.651   0.053 -1.0334  0.7297 -0.0302
 2336TIP3    H228644   5.400   4.779   0.135 -0.5383 -0.7468  2.3441
 2337TIP3   OH228645   6.173   1.156   0.773  0.2970  0.1484 -0.3079
 2337TIP3    H128646   6.127   1.110   0.843  0.8277  0.5651  0.3167
 2337TIP3    H228647   6.142   1.246   0.779  1.0126  0.3817 -0.0300
 2338TIP3   OH228648   2.409   6.731   1.148  0.0825  0.3298  0.1647
 2338TIP3    H128649   2.349   6.788   1.099  0.6700  0.5286 -0.3262
 2338TIP3    H228650   2.415   6.772   1.234 -0.1343  0.5630  0.0718
 2339TIP3   OH228651   3.265   4.599   0.313 -0.5520 -0.9120 -0.5749
 2339TIP3    H128652   3.292   4.513   0.346  0.1117 -0.3640  0.3561
 2339TIP3    H228653   3.284   4.596   0.220 -0.3646 -1.7106 -0.5193
 2340TIP3   OH228654   5.049   3.954   7.124 -0.3312  0.2627 -0.8359
 2340TIP3    H128655   5.069   3.899   7.048 -2.4167  1.1024 -2.0501
 2340TIP3    H228656   4.954   3.962   7.124 -0.4779 -0.3101  2.3385
 2341TIP3   OH228657   1.578   6.029   1.692  0.2350  0.5582 -0.0606
 2341TIP3    H128658   1.495   6.039   1.647  0.0901 -0.0754  0.0508
 2341TIP3    H228659   1.575   6.093   1.763 -0.9992 -0.7549  1.1415
 2342TIP3   OH228660   2.625   6.123   6.255 -0.0824  0.4190  0.1990
 2342TIP3    H128661   2.705   6.079   6.284 -0.6844  0.3726  1.8819
 2342TIP3    H228662   2.644   6.216   6.265  0.4080  0.5076 -1.2577
 2343TIP3   OH228663   1.566   6.506   0.096 -0.0074  0.2013 -0.0212
 2343TIP3    H128664   1.554   6.489   0.190 -2.5647  1.6916  0.0174
 2343TIP3    H228665   1.491   6.463   0.054 -0.4942  1.9048 -1.0148
 2344TIP3   OH228666   2.794   5.586   2.546 -0.2501  0.2236  0.2624
 2344TIP3    H128667   2.731   5.646   2.586 -0.6877 -1.1502  1.7324
 2344TIP3    H228668   2.771   5.500   2.581  0.6657 -0.7494 -1.4035
 2345TIP3   OH228669   4.548   0.274   8.749 -0.2142  0.5431  0.3463
 2345TIP3    H128670   4.550   0.365   8.722  1.0921  0.2480 -0.6587
 2345TIP3    H228671   4.639   0.254   8.772  0.1897 -1.3014 -2.3675
 2346TIP3   OH228672   1.336   3.111   8.296 -0.1431  0.2329 -0.1917
 2346TIP3    H128673   1.409   3.172   8.282  0.2495 -0.5015 -1.5024
 2346TIP3    H228674   1.349   3.043   8.230 -1.8946 -0.0417 -0.2859
 2347TIP3   OH228675   6.735   5.154   6.119  0.1238  0.7748  0.4354
 2347TIP3    H128676   6.754   5.139   6.211  0.8873  1.0676  0.3323
 2347TIP3    H228677   6.655   5.104   6.102  0.0438  0.6338  1.2244
 2348TIP3   OH228678   2.302   3.885   7.052  0.8876  0.3476  0.7882
 2348TIP3    H128679   2.378   3.900   6.996  0.0423 -0.4116 -0.6358
 2348TIP3    H228680   2.279   3.971   7.086  1.2169  0.9150 -0.3589
 2349TIP3   OH228681   6.600   2.270   8.348 -0.3709 -0.3785  0.1350
 2349TIP3    H128682   6.592   2.299   8.257 -0.1944 -1.0869 -0.1062
 2349TIP3    H228683   6.683   2.224   8.352 -0.3962 -0.3936  0.6525
 2350TIP3   OH228684   0.443   1.742   7.700 -0.6040  0.0330  0.0756
 2350TIP3    H128685   0.399   1.827   7.703 -0.0415  0.4406 -1.8753
 2350TIP3    H228686   0.382   1.686   7.652  0.4827  0.3072 -1.6837
 2351TIP3   OH228687   1.264   5.416   2.031  0.3613 -0.1521  0.0961
 2351TIP3    H128688   1.251   5.452   2.118  1.2924 -0.7636  0.4945
 2351TIP3    H228689   1.355   5.387   2.029  0.8696  1.3086 -1.6222
 2352TIP3   OH228690   0.048   2.537   7.535 -0.8212 -0.0610 -1.0654
 2352TIP3    H128691   0.137   2.542   7.499 -1.3101  1.1767 -2.1982
 2352TIP3    H228692  -0.001   2.488   7.469 -1.3430  0.6944 -1.2454
 2353TIP3   OH228693   3.570   0.742   2.666  0.1957  0.3251 -0.3373
 2353TIP3    H128694   3.646   0.799   2.676  1.0622 -0.9631  0.7616
 2353TIP3    H228695   3.495   0.801   2.670  1.0608  1.3958  0.6808
 2354TIP3   OH228696   0.470   5.259   0.020  0.5198  0.0740 -0.1447
 2354TIP3    H128697   0.429   5.312  -0.048  0.8861  0.3786 -0.1347
 2354TIP3    H228698   0.489   5.176  -0.022  0.3171  0.0943 -0.2786
 2355TIP3   OH228699   4.699   1.224   8.583 -0.1338  0.5323  0.4176
 2355TIP3    H128700   4.764   1.243   8.515  0.2526  3.5096  1.4534
 2355TIP3    H228701   4.751   1.208   8.662 -0.5967 -2.1657  0.2601
 2356TIP3   OH228702   6.797   1.386   7.462  0.4408 -0.0197 -0.0574
 2356TIP3    H128703   6.862   1.316   7.465  2.5473  1.7488 -1.3930
 2356TIP3    H228704   6.753   1.375   7.377 -2.6072 -2.3826  1.5989
 2357TIP3   OH228705   6.105   1.303   7.355  0.0220  0.3312 -0.1981
 2357TIP3    H128706   6.052   1.332   7.281 -2.9609 -0.0989  1.5666
 2357TIP3    H228707   6.120   1.209   7.339  0.7914  0.5703 -0.9689
 2358TIP3   OH228708   3.306   6.203   1.707 -0.0390  0.6223 -0.9138
 2358TIP3    H128709   3.338   6.145   1.637 -0.9518  0.6725 -1.3852
 2358TIP3    H228710   3.218   6.171   1.727  0.1029  0.7917  0.0230
 2359TIP3   OH228711   2.561   1.603   1.425  0.2052 -0.1835  0.6080
 2359TIP3    H128712   2.594   1.555   1.500 -0.0841 -0.2286  0.7064
 2359TIP3    H228713   2.535   1.535   1.362 -0.0715 -0.1532  0.6904
 2360TIP3   OH228714   3.528   0.678   8.492 -0.0229  0.0780  0.1329
 2360TIP3    H128715   3.439   0.668   8.525 -0.0486  0.0811  0.0642
 2360TIP3    H228716   3.560   0.759   8.532 -0.4495  0.6819 -0.7406
 2361TIP3   OH228717   6.216   5.439   8.616 -0.0738 -0.8295  0.0952
 2361TIP3    H128718   6.295   5.404   8.573 -0.0060  0.5275 -0.9469
 2361TIP3    H228719   6.174   5.362   8.655  0.7695 -1.8684 -0.9699
 2362TIP3   OH228720   0.585   4.490   0.464  0.3985  1.0738  0.5678
 2362TIP3    H128721   0.503   4.455   0.498  0.1294  0.0276 -1.0846
 2362TIP3    H228722   0.608   4.433   0.391  1.9147  2.1415  0.1568
 2363TIP3   OH228723   1.441   6.499   7.491 -0.1686  0.2411 -0.4491
 2363TIP3    H128724   1.419   6.586   7.526 -1.2753  0.1407 -0.8546
 2363TIP3    H228725   1.437   6.510   7.396  0.6912 -0.0175 -0.5245
 2364TIP3   OH228726   4.776   0.960   7.615  0.1871 -0.4754 -0.1956
 2364TIP3    H128727   4.834   0.888   7.636 -0.5859 -1.7992 -2.2573
 2364TIP3    H228728   4.696   0.918   7.583 -0.1470  1.2541 -1.8524
 2365TIP3   OH228729   6.352   3.916   0.926 -0.1068 -0.2088  0.2267
 2365TIP3    H128730   6.308   3.843   0.968 -1.7299  1.7691  2.2498
 2365TIP3    H228731   6.429   3.932   0.980  1.0567 -1.2564 -1.0580
 2366TIP3   OH228732   0.512   6.254   6.595 -0.4545  0.1610  0.3649
 2366TIP3    H128733   0.548   6.342   6.603  1.2157 -0.5928  1.8244
 2366TIP3    H228734   0.519   6.234   6.501 -1.1435  1.6685 -0.0255
 2367TIP3   OH228735   0.603   6.592   8.840 -0.0355  0.4355 -0.0466
 2367TIP3    H128736   0.526   6.649   8.840 -0.2473  0.1511  0.1994
 2367TIP3    H228737   0.615   6.568   8.932  0.5737  0.7794 -0.0302
 2368TIP3   OH228738   6.534   1.196   6.839 -0.0690  0.0822  0.1890
 2368TIP3    H128739   6.488   1.187   6.756  0.4693  0.7976 -0.1950
 2368TIP3    H228740   6.486   1.266   6.885 -1.9313 -1.9771  1.5812
 2369TIP3   OH228741   4.740   0.651   7.248  0.1038  0.0814 -0.3052
 2369TIP3    H128742   4.673   0.609   7.302 -0.7966 -0.8777 -2.1070
 2369TIP3    H228743   4.819   0.600   7.264  0.3172  0.8837  1.4102
 2370TIP3   OH228744   1.984   2.076   7.016  0.1029  0.5652  0.2542
 2370TIP3    H128745   1.896   2.079   7.052 -0.4115 -1.6107 -0.6689
 2370TIP3    H228746   1.971   2.080   6.921  1.0060  0.3305  0.1145
 2371TIP3   OH228747   6.755   0.907   0.835  0.2934  0.2702 -0.0700
 2371TIP3    H128748   6.710   0.907   0.919 -0.1674  1.2572 -0.2908
 2371TIP3    H228749   6.834   0.959   0.850  0.6563 -0.2960 -0.0256
 2372TIP3   OH228750   1.381   5.571   0.523  0.1050 -0.7179  0.1834
 2372TIP3    H128751   1.294   5.569   0.564 -0.5418  1.9797 -0.8482
 2372TIP3    H228752   1.384   5.492   0.470 -1.4699 -1.1692  0.7114
 2373TIP3   OH228753   0.272   0.709   7.286 -0.2801  0.3223  0.5987
 2373TIP3    H128754   0.356   0.686   7.248 -0.3135 -0.6994  1.0999
 2373TIP3    H228755   0.292   0.780   7.348  0.3327 -0.3726  1.2178
 2374TIP3   OH228756   6.164   6.104   7.026 -0.6318  0.0648  0.4965
 2374TIP3    H128757   6.255   6.132   7.038 -0.4455  0.4001 -1.4671
 2374TIP3    H228758   6.169   6.031   6.964 -1.7914  1.0426 -0.8116
 2375TIP3   OH228759   5.466   5.397   8.755  0.0692 -0.1066  0.3586
 2375TIP3    H128760   5.389   5.443   8.788  1.0486  1.4961  0.5439
 2375TIP3    H228761   5.437   5.307   8.741 -2.1709  0.7343 -0.8342
 2376TIP3   OH228762   2.491   5.599   1.673 -0.1092  0.0882  0.1412
 2376TIP3    H128763   2.586   5.611   1.684  0.0920 -0.3324 -1.0735
 2376TIP3    H228764   2.471   5.518   1.720  0.4071 -0.6389 -0.8575
 2377TIP3   OH228765   1.031   0.806   0.058 -0.1209  0.8848  0.1932
 2377TIP3    H128766   1.085   0.848   0.126  1.7642  2.1644 -1.9377
 2377TIP3    H228767   1.048   0.713   0.069  0.9899  1.1372  0.8349
 2378TIP3   OH228768   1.624   1.781   8.498 -0.2492 -0.7645 -0.3182
 2378TIP3    H128769   1.589   1.725   8.429 -1.4601  0.2920 -0.5934
 2378TIP3    H228770   1.551   1.837   8.524 -0.0709 -1.6247  2.3815
 2379TIP3   OH228771   3.548   4.905   1.539 -0.1149 -0.5187 -0.0006
 2379TIP3    H128772   3.637   4.898   1.572  0.1183  0.3191 -0.4303
 2379TIP3    H228773   3.495   4.922   1.617  0.0737 -1.1315  0.2718
 2380TIP3   OH228774   1.784   2.792   7.529  0.3886  0.4401 -0.2551
 2380TIP3    H128775   1.834   2.808   7.608  0.1234 -0.7964  0.1894
 2380TIP3    H228776   1.740   2.875   7.510  0.1379  0.6268  1.1108
 2381TIP3   OH228777   4.312   5.475   8.619  0.1741 -0.1095 -0.3184
 2381TIP3    H128778   4.281   5.563   8.640  2.2287  0.5658  0.0836
 2381TIP3    H228779   4.290   5.422   8.696  2.3262  0.9743  1.1229
 2382TIP3   OH228780   3.817   4.882   1.613 -0.4372  0.3781 -0.0282
 2382TIP3    H128781   3.863   4.965   1.631  0.3054  0.3248 -1.5762
 2382TIP3    H228782   3.836   4.828   1.690  2.6575  0.1347 -0.8333
 2383TIP3   OH228783   1.763   2.428   6.504  0.2672 -0.2223 -0.2425
 2383TIP3    H128784   1.840   2.470   6.465  0.7029 -0.0788  0.7477
 2383TIP3    H228785   1.795   2.392   6.587 -0.5860 -0.7343 -0.1232
 2384TIP3   OH228786   6.258   6.393   6.860  0.1985  0.6423  0.5169
 2384TIP3    H128787   6.306   6.320   6.822  0.1081 -0.0951  1.7572
 2384TIP3    H228788   6.168   6.381   6.832  0.6194  1.8084 -1.4941
 2385TIP3   OH228789   2.341   1.781   1.464  0.0884  0.3717 -0.4683
 2385TIP3    H128790   2.285   1.721   1.414  0.3266  0.9676 -1.4631
 2385TIP3    H228791   2.427   1.739   1.465 -0.7853 -1.7678  3.1152
 2386TIP3   OH228792   2.086   6.773   7.238  0.3534 -0.6782  0.0943
 2386TIP3    H128793   2.137   6.815   7.308  0.5930  0.1424 -0.5541
 2386TIP3    H228794   2.144   6.704   7.205  0.0367 -1.4144  1.0325
 2387TIP3   OH228795   2.016   3.080   8.502 -0.1235 -0.1792 -0.0155
 2387TIP3    H128796   1.940   3.061   8.447 -0.4614 -0.1866  0.4436
 2387TIP3    H228797   1.997   3.036   8.585 -0.6011  1.5087  0.8292
 2388TIP3   OH228798   3.482   0.502   7.612 -0.0094  0.0315  0.1388
 2388TIP3    H128799   3.387   0.501   7.626  0.0779 -0.5061  0.7698
 2388TIP3    H228800   3.495   0.448   7.534 -0.3730  1.7056 -1.1120
 2389TIP3   OH228801   4.634   6.532   7.891 -0.1009 -0.0126  0.1170
 2389TIP3    H128802   4.667   6.618   7.920 -0.8229  1.0648 -2.0343
 2389TIP3    H228803   4.705   6.471   7.911  0.9136  1.2899  0.6410
 2390TIP3   OH228804   4.041   6.497   1.270 -0.3469 -0.0018 -0.0501
 2390TIP3    H128805   4.029   6.421   1.327  0.3109  1.0505  1.5644
 2390TIP3    H228806   4.136   6.508   1.263 -0.3975  1.7743  1.3356
 2391TIP3   OH228807   0.478   3.477   0.653  0.1943 -0.4811 -0.2627
 2391TIP3    H128808   0.527   3.500   0.732  0.6582  0.3621 -0.7838
 2391TIP3    H228809   0.503   3.386   0.635  0.6179 -0.4560  0.1705
 2392TIP3   OH228810   3.626   5.910   6.419  0.2090 -0.0052  0.2250
 2392TIP3    H128811   3.646   5.875   6.332  1.0787  0.4791  0.2232
 2392TIP3    H228812   3.702   5.888   6.472  0.9753  2.1740  0.1279
 2393TIP3   OH228813   2.671   3.472   0.270 -0.3508  0.6959 -0.1828
 2393TIP3    H128814   2.578   3.450   0.277 -0.5250  0.7812 -1.8702
 2393TIP3    H228815   2.671   3.565   0.246  0.2413  1.1495  1.4183
 2394TIP3   OH228816   0.135   0.369   1.669  0.4242  0.1561 -0.0746
 2394TIP3    H128817   0.120   0.311   1.743  0.8049  0.1201 -0.0230
 2394TIP3    H228818   0.146   0.456   1.708  1.2584  0.0378 -0.0298
 2395TIP3   OH228819   0.133   2.344   7.739  0.1563 -0.4082 -0.6700
 2395TIP3    H128820   0.158   2.436   7.751  1.4465 -0.7311 -0.7046
 2395TIP3    H228821   0.132   2.331   7.644 -0.3254 -0.3516 -0.6723
 2396TIP3   OH228822   3.343   2.231   8.548 -0.1089 -0.4820  0.3134
 2396TIP3    H128823   3.422   2.177   8.550  0.5420  0.4603  0.5559
 2396TIP3    H228824   3.325   2.244   8.455  2.3429  2.5496  0.1188
 2397TIP3   OH228825   4.879   6.034   7.991  0.2220 -0.5782 -0.6454
 2397TIP3    H128826   4.897   6.068   8.079  0.6436 -1.4381 -0.3881
 2397TIP3    H228827   4.905   6.105   7.932  0.4744 -0.2091 -0.0981
 2398TIP3   OH228828   0.655   4.682   1.894 -0.0494  0.0162 -0.0120
 2398TIP3    H128829   0.666   4.775   1.871  1.5994 -0.2680 -0.5023
 2398TIP3    H228830   0.718   4.667   1.964  0.9524 -1.1218 -1.1047
 2399TIP3   OH228831   1.039   1.503   0.344 -0.2947  0.1098 -0.1341
 2399TIP3    H128832   0.969   1.496   0.409 -1.5234  1.0261 -1.3147
 2399TIP3    H228833   1.089   1.581   0.371 -1.1400  0.8207 -0.5722
 2400TIP3   OH228834   5.868   0.892   1.517  0.1795 -0.0646 -0.5081
 2400TIP3    H128835   5.780   0.930   1.519  0.6579  1.2625 -2.3677
 2400TIP3    H228836   5.878   0.850   1.602 -1.7383  0.9266  0.2549
 2401TIP3   OH228837   3.353   6.251   0.029  0.1009 -0.4374  0.8553
 2401TIP3    H128838   3.357   6.347   0.023  0.7752 -0.5451 -0.9738
 2401TIP3    H228839   3.282   6.227  -0.031 -0.1432 -1.1011  1.3974
 2402TIP3   OH228840   1.404   2.275   1.189 -0.1922  0.1496 -0.2859
 2402TIP3    H128841   1.389   2.351   1.134 -1.7714 -0.8899 -1.3582
 2402TIP3    H228842   1.462   2.307   1.259  3.2927  1.1298 -3.3449
 2403TIP3   OH228843   0.462   3.927   6.190 -0.1256 -0.3823 -0.3328
 2403TIP3    H128844   0.518   3.888   6.123  2.1759  1.1427  0.5627
 2403TIP3    H228845   0.516   3.996   6.229 -1.9429 -0.1312  1.9912
 2404TIP3   OH228846   3.624   3.911   6.750 -0.4629  0.4936  0.6814
 2404TIP3    H128847   3.623   3.815   6.752  0.0493  0.4763  0.3342
 2404TIP3    H228848   3.708   3.935   6.787 -0.6408  0.8153  0.8769
 2405TIP3   OH228849   1.221   3.690   0.099  0.4486  0.0559  0.2106
 2405TIP3    H128850   1.217   3.657   0.009 -1.5328  0.7567 -0.0196
 2405TIP3    H228851   1.304   3.737   0.103 -0.0916  1.3408 -1.7864
 2406TIP3   OH228852   4.204   4.124   7.791 -0.4723 -0.1581  0.5584
 2406TIP3    H128853   4.137   4.111   7.858 -1.7589  0.7077 -0.5295
 2406TIP3    H228854   4.281   4.152   7.840 -1.3193  0.2414  1.6928
 2407TIP3   OH228855   0.629   4.742   0.807 -0.5852  0.0650 -0.0996
 2407TIP3    H128856   0.621   4.771   0.898 -1.0991 -0.2929 -0.0327
 2407TIP3    H228857   0.701   4.679   0.808  0.6484  1.4020 -0.2692
 2408TIP3   OH228858   4.208   1.070   7.048 -0.2276 -0.4299  0.1023
 2408TIP3    H128859   4.295   1.091   7.081 -0.1066 -1.6911  0.6281
 2408TIP3    H228860   4.222   1.047   6.956  0.3555 -2.7131  0.7090
 2409TIP3   OH228861   5.115   6.641   6.901 -0.1835 -0.1198  0.2211
 2409TIP3    H128862   5.060   6.707   6.944 -1.5272 -0.0074 -1.5422
 2409TIP3    H228863   5.056   6.568   6.883  1.2043 -1.7084  1.7971
 2410TIP3   OH228864   3.746   1.430   7.634 -0.0931  0.2122  0.1740
 2410TIP3    H128865   3.836   1.426   7.665  0.5774 -0.4594 -1.7386
 2410TIP3    H228866   3.702   1.356   7.675  0.2855  0.4047  0.9296
 2411TIP3   OH228867   1.828   1.321   1.228 -0.7935 -0.2010  0.2078
 2411TIP3    H128868   1.905   1.288   1.273 -0.9927  0.2072  0.8716
 2411TIP3    H228869   1.756   1.268   1.261 -0.8333 -0.4260 -0.2328
 2412TIP3   OH228870   6.276   6.536   6.379 -0.2776  0.3072 -0.0850
 2412TIP3    H128871   6.270   6.464   6.441  0.5620 -0.4634 -0.8855
 2412TIP3    H228872   6.360   6.524   6.335 -0.1962  1.6768 -0.3568
 2413TIP3   OH228873   4.034   2.640   0.991 -0.0189  0.2024  0.3204
 2413TIP3    H128874   4.114   2.601   0.955  0.7666  1.5189  0.5876
 2413TIP3    H228875   4.047   2.638   1.086 -0.8640 -0.7119  0.4314
 2414TIP3   OH228876   4.104   2.701   6.522  0.3146  0.0093 -0.2005
 2414TIP3    H128877   4.093   2.792   6.549  0.5134  0.3593 -1.2420
 2414TIP3    H228878   4.114   2.705   6.427  2.3108 -0.9225 -0.0783
 2415TIP3   OH228879   1.006   5.390   6.229  0.0438 -0.1370 -0.0001
 2415TIP3    H128880   1.045   5.350   6.151  1.0255 -3.3482  1.9463
 2415TIP3    H228881   1.077   5.437   6.271 -0.4515  1.4729 -0.8882
 2416TIP3   OH228882   5.038   0.095   7.006 -0.1896  0.4297  0.1283
 2416TIP3    H128883   5.048   0.115   6.913 -0.0515  1.7324  0.4048
 2416TIP3    H228884   5.109   0.143   7.049  0.5608 -1.2290  0.7935
 2417TIP3   OH228885   0.403   1.895   8.715  0.7495  0.3902 -1.2438
 2417TIP3    H128886   0.488   1.855   8.733  0.2100 -0.4525 -0.4255
 2417TIP3    H228887   0.393   1.889   8.620  1.8736  1.1048 -1.4312
 2418TIP3   OH228888   2.125   6.147   8.286  0.1282 -0.1513  0.8741
 2418TIP3    H128889   2.129   6.229   8.335 -0.2585  0.1922  0.3414
 2418TIP3    H228890   2.216   6.116   8.284 -0.0529 -0.9509  3.0710
 2419TIP3   OH228891   0.977   6.753   0.583 -0.6971 -0.2496  0.0874
 2419TIP3    H128892   0.998   6.689   0.651  0.8889  0.5635  0.4337
 2419TIP3    H228893   1.057   6.806   0.576 -1.5008  0.8506 -1.1058
 2420TIP3   OH228894   1.546   1.836   0.388 -0.5139  0.2013 -0.2912
 2420TIP3    H128895   1.574   1.822   0.298 -0.9817  0.9974 -0.5684
 2420TIP3    H228896   1.509   1.924   0.389  1.0647  0.9139  1.0523
 2421TIP3   OH228897   3.243   0.492   7.379  0.0201 -0.2706 -0.4118
 2421TIP3    H128898   3.259   0.586   7.388 -1.4703  0.0570 -0.9169
 2421TIP3    H228899   3.219   0.464   7.467 -1.4646  0.2475 -0.6188
 2422TIP3   OH228900   3.928   4.457   0.586  0.1003  0.6520 -0.6436
 2422TIP3    H128901   3.858   4.441   0.523 -1.5129 -1.5552  1.5353
 2422TIP3    H228902   3.944   4.372   0.627  2.6472  1.5282  0.3725
 2423TIP3   OH228903   3.224   5.489   7.780  0.0985 -0.0729 -0.4512
 2423TIP3    H128904   3.276   5.549   7.834  0.3841 -0.6803 -0.0377
 2423TIP3    H228905   3.199   5.541   7.704 -1.6851  1.3006  0.9955
 2424TIP3   OH228906   3.897   1.817   7.181  0.5725 -0.0444 -0.4097
 2424TIP3    H128907   3.861   1.795   7.267 -1.6135  1.0374 -0.9643
 2424TIP3    H228908   3.909   1.912   7.184 -0.3776  0.1385 -1.5512
 2425TIP3   OH228909   5.767   3.238   8.091  0.1971 -0.0208 -0.0665
 2425TIP3    H128910   5.764   3.143   8.080  1.3662 -0.3065  1.6602
 2425TIP3    H228911   5.682   3.260   8.129  0.1355 -0.4626  0.0632
 2426TIP3   OH228912   4.674   1.912   8.857  0.2027 -0.1108 -0.8463
 2426TIP3    H128913   4.611   1.934   8.789  1.4728 -0.4647 -2.1929
 2426TIP3    H228914   4.758   1.946   8.825  1.1774 -1.9235 -0.3730
 2427TIP3   OH228915   0.867   5.434   2.493 -0.1045 -0.8487 -0.0780
 2427TIP3    H128916   0.825   5.389   2.420  1.0845  1.3612 -2.2562
 2427TIP3    H228917   0.957   5.403   2.491  0.2072  0.0427 -0.2918
 2428TIP3   OH228918   1.960   1.260   0.075  0.9321 -0.1586  0.4225
 2428TIP3    H128919   1.883   1.302   0.036  1.3153  0.5810  0.4402
 2428TIP3    H228920   1.940   1.255   0.169  0.2807 -1.3542  0.2432
 2429TIP3   OH228921   0.957   1.166   1.361 -0.0704  0.4347  0.5311
 2429TIP3    H128922   0.967   1.220   1.440  1.7277  0.4649  0.3397
 2429TIP3    H228923   1.039   1.117   1.356 -1.5705 -2.2736  0.6123
 2430TIP3   OH228924   2.261   3.040   8.342  0.2566 -0.8444  0.1601
 2430TIP3    H128925   2.170   3.023   8.369  0.2132 -1.7349 -0.4954
 2430TIP3    H228926   2.301   3.079   8.419 -0.7594 -0.1522  0.3634
 2431TIP3   OH228927   6.514   3.814   7.487 -0.5930 -0.0558 -0.8292
 2431TIP3    H128928   6.495   3.892   7.435 -2.6077  0.2990  0.3268
 2431TIP3    H228929   6.509   3.742   7.425 -0.4476  0.5794 -1.5945
 2432TIP3   OH228930   0.894   1.477   0.573  0.0085 -0.6094  0.5579
 2432TIP3    H128931   0.810   1.430   0.577  0.7336 -2.0473 -0.0956
 2432TIP3    H228932   0.911   1.504   0.663 -0.5748 -1.4261  0.9297
 2433TIP3   OH228933   5.002   5.020   8.230 -0.2508 -0.1906  0.0055
 2433TIP3    H128934   5.090   4.985   8.214 -0.3198 -1.1404  1.4768
 2433TIP3    H228935   4.979   5.066   8.149  1.2111 -0.7306 -0.7543
 2434TIP3   OH228936   5.330   0.661   6.508 -0.1735  0.3937 -0.4031
 2434TIP3    H128937   5.262   0.702   6.454 -1.9694  0.0376  1.4572
 2434TIP3    H228938   5.291   0.579   6.538  0.6612  0.6578  1.5486
 2435TIP3   OH228939   2.278   2.493   1.421 -0.2194  0.1371  0.1760
 2435TIP3    H128940   2.351   2.455   1.373 -0.9496 -2.8358  1.1841
 2435TIP3    H228941   2.234   2.418   1.461 -4.0332  1.7500 -0.6071
 2436TIP3   OH228942   4.179   2.617   1.961 -0.0401 -0.2936 -0.6382
 2436TIP3    H128943   4.244   2.678   1.926  0.6071 -0.7742 -0.3092
 2436TIP3    H228944   4.194   2.619   2.056 -2.2033  1.5018 -0.2317
 2437TIP3   OH228945   2.296   2.377   1.901 -0.2105 -0.3272 -0.2402
 2437TIP3    H128946   2.250   2.455   1.933 -0.4402 -0.3237 -0.5721
 2437TIP3    H228947   2.387   2.392   1.925 -0.6333 -1.2705  2.3098
 2438TIP3   OH228948   0.113   6.370   0.392  0.5716 -0.6522 -0.2524
 2438TIP3    H128949   0.059   6.385   0.470 -1.2456 -1.6204 -1.2607
 2438TIP3    H228950   0.180   6.307   0.422  0.2338 -0.6028  0.6460
 2439TIP3   OH228951   2.934   5.274   0.915 -0.7544  0.5576  0.0248
 2439TIP3    H128952   2.955   5.196   0.967 -3.6913  0.2849  0.9798
 2439TIP3    H228953   2.946   5.347   0.975 -2.5870  0.3812  0.6471
 2440TIP3   OH228954   0.664   0.654   1.244  0.0085 -0.4266 -0.4909
 2440TIP3    H128955   0.716   0.641   1.323  0.1617  0.4469 -0.4351
 2440TIP3    H228956   0.669   0.571   1.198  0.8202 -0.6017 -0.1059
 2441TIP3   OH228957   6.556   3.044   7.336 -0.3115  0.2999  0.8359
 2441TIP3    H128958   6.632   3.033   7.394  0.5946 -0.6979 -0.4999
 2441TIP3    H228959   6.590   3.092   7.261 -0.9420 -0.3452  0.1293
 2442TIP3   OH228960   4.546   4.521   8.032 -0.0021  0.0684 -0.3977
 2442TIP3    H128961   4.491   4.573   7.973 -2.7319 -4.7262 -2.7637
 2442TIP3    H228962   4.635   4.532   7.999 -0.5671  2.3349 -1.3357
 2443TIP3   OH228963   2.853   1.250   0.642  0.6299 -0.2076 -0.1870
 2443TIP3    H128964   2.885   1.212   0.561  1.1307  0.1366 -0.1550
 2443TIP3    H228965   2.860   1.345   0.629  0.8337 -0.1508  0.3002
 2444TIP3   OH228966   3.611   5.919   7.754 -0.0037 -0.1312 -0.1354
 2444TIP3    H128967   3.601   5.999   7.806  1.2329  0.5158 -0.8327
 2444TIP3    H228968   3.653   5.857   7.814 -3.2638 -1.2118  1.2345
 2445TIP3   OH228969   3.452   4.667   7.170 -0.8434 -0.0517  0.1622
 2445TIP3    H128970   3.410   4.610   7.106 -0.2180 -0.1002 -0.2195
 2445TIP3    H228971   3.544   4.669   7.143 -0.8917  1.3076  0.0392
 2446TIP3   OH228972   0.143   0.489   7.725  0.0495  0.3187 -0.2044
 2446TIP3    H128973   0.096   0.541   7.659 -0.7269  1.3586  1.1223
 2446TIP3    H228974   0.230   0.476   7.687 -0.1881  1.3974 -1.1860
 2447TIP3   OH228975   1.787   3.793   7.339  0.2251 -0.0939  0.0692
 2447TIP3    H128976   1.862   3.851   7.350  0.8403 -1.2275  2.3225
 2447TIP3    H228977   1.822   3.705   7.350 -0.9987 -0.8477 -1.5727
 2448TIP3   OH228978   1.889   1.850   7.916 -0.0746  0.1333 -0.1430
 2448TIP3    H128979   1.886   1.899   7.834  0.0687 -0.9891 -0.8360
 2448TIP3    H228980   1.847   1.908   7.980 -0.9056  0.7065 -1.1700
 2449TIP3   OH228981   4.416   6.693   2.533 -0.5381 -0.0218 -0.3133
 2449TIP3    H128982   4.448   6.765   2.586 -1.4312 -0.5256  0.9575
 2449TIP3    H228983   4.360   6.734   2.467  0.6269  0.6144 -0.9449
 2450TIP3   OH228984   1.020   5.529   1.857 -0.3641 -0.3538 -0.1023
 2450TIP3    H128985   0.925   5.543   1.852 -0.9249 -2.4464  2.3789
 2450TIP3    H228986   1.037   5.516   1.951  2.4528  0.2076 -0.4591
 2451TIP3   OH228987   2.055   5.717   5.947  0.3600 -0.2724  0.4723
 2451TIP3    H128988   1.978   5.708   5.891  0.0585  0.7581  0.6946
 2451TIP3    H228989   2.045   5.649   6.013  0.3098 -0.9807 -0.2480
 2452TIP3   OH228990   0.005   2.048   1.397  0.5162 -0.7529  0.2699
 2452TIP3    H128991   0.055   2.043   1.315  1.2395  1.2913  0.5279
 2452TIP3    H228992   0.040   1.977   1.451 -0.1856 -2.3350 -1.2537
 2453TIP3   OH228993   3.933   0.648   6.772 -0.1679  0.0153 -0.3164
 2453TIP3    H128994   3.981   0.578   6.729  1.1055  1.4793 -1.3851
 2453TIP3    H228995   3.864   0.671   6.711 -0.7194 -0.4203  0.1279
 2454TIP3   OH228996   5.938   0.410   1.405  0.3293 -0.0281  0.1321
 2454TIP3    H128997   5.965   0.498   1.379  0.0365 -0.1052 -0.4427
 2454TIP3    H228998   5.843   0.416   1.414  0.2452 -0.4192 -0.4519
 2455TIP3   OH228999   3.419   0.648   6.614  0.1311  0.0565  0.4450
 2455TIP3    H129000   3.404   0.730   6.661  1.4239  0.0086  0.9816
 2455TIP3    H229001   3.416   0.673   6.521  0.2254  0.6550  0.5983
 2456TIP3   OH229002   2.201   6.329   8.492 -0.0722 -0.1285 -0.4468
 2456TIP3    H129003   2.125   6.336   8.550 -0.3572 -1.4818 -0.6377
 2456TIP3    H229004   2.262   6.395   8.524 -0.2984 -0.7241  1.2699
 2457TIP3   OH229005   2.675   4.212   6.865 -0.0443  0.3568  0.1187
 2457TIP3    H129006   2.658   4.180   6.776  3.4071  1.8737 -1.2957
 2457TIP3    H229007   2.624   4.293   6.872  1.1570  1.3118 -1.3625
 2458TIP3   OH229008   4.558   1.681   0.080  0.4429  0.5081  0.5995
 2458TIP3    H129009   4.545   1.658  -0.012 -0.8976  1.1650  0.5974
 2458TIP3    H229010   4.600   1.766   0.078 -0.7463  1.1190  0.5603
 2459TIP3   OH229011   6.709   4.822   7.712 -0.5353 -0.1077  0.4566
 2459TIP3    H129012   6.700   4.866   7.628  0.2210  0.6741  0.7616
 2459TIP3    H229013   6.624   4.782   7.728 -0.0822 -2.1130 -1.6634
 2460TIP3   OH229014   1.671   0.507   8.794  0.1999  0.1111  0.0774
 2460TIP3    H129015   1.622   0.435   8.834  0.2582  0.3849  0.6485
 2460TIP3    H229016   1.751   0.466   8.762 -0.7460 -0.5136 -1.6399
 2461TIP3   OH229017   3.054   0.354   8.818 -0.1493 -0.1577  0.5682
 2461TIP3    H129018   3.113   0.338   8.892 -1.1816  0.5820  1.6008
 2461TIP3    H229019   2.977   0.300   8.837 -1.8408  2.4935  1.8437
 2462TIP3   OH229020   2.070   6.758   7.604  0.1923 -0.4574  0.0454
 2462TIP3    H129021   2.087   6.826   7.539  0.5071 -2.1591 -1.7431
 2462TIP3    H229022   2.041   6.806   7.682  0.4409  1.6961 -1.1131
 2463TIP3   OH229023   0.877   0.762   1.035  0.3420  0.2878  0.0553
 2463TIP3    H129024   0.792   0.805   1.028 -0.3608 -0.2511  3.4597
 2463TIP3    H229025   0.860   0.672   1.006  0.0415  0.4771 -0.3629
 2464TIP3   OH229026   2.105   0.842   8.719  0.0819  0.2443  0.3597
 2464TIP3    H129027   2.114   0.777   8.649  1.3420  0.0437  0.6745
 2464TIP3    H229028   2.114   0.791   8.800  0.7044  0.7353  0.6133
 2465TIP3   OH229029   6.134   1.824   0.964 -0.1145  0.3676 -0.1571
 2465TIP3    H129030   6.103   1.735   0.981  0.1027  0.4800  0.9583
 2465TIP3    H229031   6.090   1.851   0.884 -0.7064 -0.5011 -0.1325
 2466TIP3   OH229032   1.011   4.498   1.178  0.1040 -0.0160 -0.2544
 2466TIP3    H129033   0.920   4.526   1.188  0.0576 -0.0757 -0.5089
 2466TIP3    H229034   1.006   4.410   1.140  0.2671 -0.0050 -0.3045
 2467TIP3   OH229035   4.862   3.924   0.503 -0.6875  0.0623  0.2195
 2467TIP3    H129036   4.832   3.843   0.462 -0.7774 -1.4198  2.9648
 2467TIP3    H229037   4.929   3.895   0.566  0.3048  2.2981  0.2750
 2468TIP3   OH229038   5.805   0.932   6.929  0.1358 -0.3039 -0.1793
 2468TIP3    H129039   5.711   0.952   6.928  0.1542  0.0441  1.6561
 2468TIP3    H229040   5.810   0.844   6.966  0.5688  0.0008  0.4987
 2469TIP3   OH229041   3.491   0.443   0.620  0.0937 -0.3488  0.4287
 2469TIP3    H129042   3.503   0.537   0.634 -0.5748 -0.2519  0.4175
 2469TIP3    H229043   3.536   0.402   0.694  2.1164 -0.1260 -0.6046
 2470TIP3   OH229044   1.216   2.113   8.489  0.6310  0.5095 -0.2389
 2470TIP3    H129045   1.131   2.131   8.449  0.1131 -0.7286  0.2835
 2470TIP3    H229046   1.277   2.109   8.415  0.1581  0.8664 -0.6566
 2471TIP3   OH229047   2.104   6.566   6.090  0.1427 -0.3760  0.1688
 2471TIP3    H129048   2.183   6.522   6.123 -0.5924 -0.1918  2.3077
 2471TIP3    H229049   2.032   6.518   6.131 -0.8346  0.1032 -0.9522
 2472TIP3   OH229050   2.905   4.025   8.443 -0.0255  0.0800  0.2829
 2472TIP3    H129051   2.936   4.059   8.359 -0.1130  0.5312  0.4338
 2472TIP3    H229052   2.814   4.055   8.449  0.6826  2.1444  1.6401
 2473TIP3   OH229053   1.860   6.438   0.188  0.0731 -0.2361  0.1148
 2473TIP3    H129054   1.797   6.374   0.158  0.3274 -0.2456 -0.4104
 2473TIP3    H229055   1.851   6.512   0.128  0.9806 -0.4858 -0.3558
 2474TIP3   OH229056   2.215   3.994   8.099 -0.6579 -0.2373  0.2389
 2474TIP3    H129057   2.205   3.901   8.076 -0.2344 -0.0071 -0.9502
 2474TIP3    H229058   2.297   4.020   8.059 -1.5967  1.0925 -0.9198
 2475TIP3   OH229059   4.659   5.594   0.775  0.2643 -0.1581 -0.1933
 2475TIP3    H129060   4.735   5.548   0.810 -0.1937 -0.7798 -0.0148
 2475TIP3    H229061   4.585   5.537   0.794  0.0773 -0.9872 -2.9414
 2476TIP3   OH229062   1.559   5.662   0.327  0.0876 -0.3493  0.4588
 2476TIP3    H129063   1.594   5.748   0.352 -0.0388 -0.1113 -0.1418
 2476TIP3    H229064   1.500   5.638   0.398 -0.0630  0.1790  0.5201
 2477TIP3   OH229065   5.156   1.697   7.590  0.0171  0.0664  0.2750
 2477TIP3    H129066   5.198   1.783   7.587 -0.3372  0.2896  1.2979
 2477TIP3    H229067   5.145   1.672   7.498 -0.3393  1.3464 -0.0513
 2478TIP3   OH229068   4.878   4.833   0.572  0.2712 -0.1072  0.0827
 2478TIP3    H129069   4.942   4.763   0.587 -0.0822 -0.4292  0.0717
 2478TIP3    H229070   4.895   4.895   0.643 -0.6552 -1.1001  1.2160
 2479TIP3   OH229071   0.151   3.691   7.717  0.1662 -0.4099  0.0642
 2479TIP3    H129072   0.107   3.769   7.749  0.6048  1.4148 -3.3660
 2479TIP3    H229073   0.197   3.656   7.794 -0.6184  2.2552  1.8702
 2480TIP3   OH229074   4.966   2.766   1.819  0.3643 -0.0183  0.7240
 2480TIP3    H129075   4.880   2.795   1.850 -0.6756 -0.4255 -1.6066
 2480TIP3    H229076   5.027   2.805   1.881 -1.4045  1.3895  1.6900
 2481TIP3   OH229077   4.948   1.714   8.039  0.1506 -0.1109  0.2516
 2481TIP3    H129078   5.018   1.779   8.037 -0.7091  0.8377 -0.0964
 2481TIP3    H229079   4.889   1.741   7.968 -0.2191 -1.2895  0.0877
 2482TIP3   OH229080   1.508   1.880   7.645  0.0728 -0.0307  0.3719
 2482TIP3    H129081   1.568   1.823   7.597 -1.4303 -0.1971 -1.4466
 2482TIP3    H229082   1.485   1.829   7.724  3.1835  0.5775  1.8207
 2483TIP3   OH229083   0.340   1.167   6.609  0.0579  0.0852  0.8233
 2483TIP3    H129084   0.276   1.235   6.630 -0.3715  0.2505 -0.9120
 2483TIP3    H229085   0.335   1.157   6.514  1.2468 -1.2651  0.8669
 2484TIP3   OH229086   2.637   4.344   7.139  0.0082 -0.2193 -0.2192
 2484TIP3    H129087   2.656   4.254   7.113  0.0723  0.2952 -2.1650
 2484TIP3    H229088   2.576   4.376   7.072 -1.4345  0.6583  1.4190
 2485TIP3   OH229089   3.408   1.372   7.270 -0.5432 -0.2461 -1.0338
 2485TIP3    H129090   3.498   1.403   7.276 -1.0314  1.6829 -2.3242
 2485TIP3    H229091   3.390   1.330   7.354 -0.0373  3.9402  1.4650
 2486TIP3   OH229092   5.849   4.677   8.850 -0.0805 -0.0405 -0.0588
 2486TIP3    H129093   5.893   4.595   8.869  1.3002  0.9480  1.2712
 2486TIP3    H229094   5.919   4.742   8.845 -1.2769  1.5236  1.7174
 2487TIP3   OH229095   4.370   2.424   7.371  0.0232  0.2578  0.6855
 2487TIP3    H129096   4.430   2.434   7.445 -1.0246  3.6558  1.2463
 2487TIP3    H229097   4.294   2.380   7.408  1.6921 -3.5179  0.1061
 2488TIP3   OH229098   0.561   3.275   8.613  0.2102  0.2864 -0.1351
 2488TIP3    H129099   0.651   3.286   8.582  0.4805 -1.0193  0.1168
 2488TIP3    H229100   0.529   3.364   8.625  1.6930  0.7822  0.3933
 2489TIP3   OH229101   0.898   0.263   0.627 -0.4563 -0.1035 -0.4464
 2489TIP3    H129102   0.835   0.323   0.587 -0.2761 -0.0769 -0.6886
 2489TIP3    H229103   0.916   0.302   0.713 -1.9169 -0.8955  0.2541
 2490TIP3   OH229104   2.897   5.709   8.821 -0.4436 -0.2667 -0.4431
 2490TIP3    H129105   2.956   5.662   8.762  1.5265  0.5166  0.8036
 2490TIP3    H229106   2.891   5.797   8.784  0.1143 -0.0150  0.0561
 2491TIP3   OH229107   1.701   4.168   7.522 -0.4400 -0.2451 -0.1575
 2491TIP3    H129108   1.746   4.118   7.590 -0.5843  1.3087  1.1357
 2491TIP3    H229109   1.760   4.239   7.501 -1.0842  0.1942 -0.5064
 2492TIP3   OH229110   5.659   6.084   1.535  0.6052 -0.2711  0.1117
 2492TIP3    H129111   5.725   6.133   1.486  0.7480  1.2368  1.6992
 2492TIP3    H229112   5.684   6.095   1.626 -1.7125  0.2006  0.7573
 2493TIP3   OH229113   4.721   6.262   2.047  0.0468 -0.5045 -0.0447
 2493TIP3    H129114   4.803   6.213   2.053  0.4003 -0.1619 -1.5762
 2493TIP3    H229115   4.735   6.339   2.102  1.0425 -0.0820 -0.8522
 2494TIP3   OH229116   5.678   6.040   6.480 -1.2125 -0.0118  0.4910
 2494TIP3    H129117   5.753   6.026   6.422 -1.9171 -0.9625 -0.2100
 2494TIP3    H229118   5.611   5.980   6.448 -1.2939 -1.3186  2.9075
 2495TIP3   OH229119   3.608   6.165   7.897  0.6224  0.3094  0.2579
 2495TIP3    H129120   3.685   6.210   7.930  0.0038  1.3590  0.3413
 2495TIP3    H229121   3.535   6.220   7.925 -0.4415 -2.1688  2.7574
 2496TIP3   OH229122   1.965   6.289   0.908 -0.4573 -0.4248  0.0583
 2496TIP3    H129123   1.972   6.193   0.902 -1.1115 -0.5087  0.5063
 2496TIP3    H229124   1.941   6.316   0.819 -2.1558 -0.8741  0.3343
 2497TIP3   OH229125   1.032   2.490   7.826 -0.4509 -0.2374 -0.5471
 2497TIP3    H129126   1.120   2.457   7.807  0.0091  1.7385 -2.2298
 2497TIP3    H229127   1.028   2.495   7.921  0.4675 -2.2779 -0.3348
 2498TIP3   OH229128   6.259   4.124   8.624  0.5105 -0.7464  0.0381
 2498TIP3    H129129   6.241   4.054   8.687  0.6713  0.8671  1.9682
 2498TIP3    H229130   6.281   4.200   8.678 -2.4849  1.6704 -1.8200
 2499TIP3   OH229131   6.739   5.999   6.112  0.0531 -0.0787  0.0282
 2499TIP3    H129132   6.723   6.088   6.142 -0.1057 -0.4781  1.1533
 2499TIP3    H229133   6.789   6.010   6.031 -0.4234  1.0363 -0.1343
 2500TIP3   OH229134   6.221   4.883   6.480  0.1251  0.2915  0.4458
 2500TIP3    H129135   6.245   4.962   6.528  1.3730  0.0860  0.1918
 2500TIP3    H229136   6.299   4.862   6.428 -0.2512 -1.0039  0.3780
 2501TIP3   OH229137   6.556   1.722   0.888 -0.5537  0.3160  0.1929
 2501TIP3    H129138   6.602   1.692   0.809 -0.1155  2.9858 -0.6478
 2501TIP3    H229139   6.591   1.666   0.958  2.5008  0.8361 -0.7613
 2502TIP3   OH229140   2.271   0.596   1.058 -0.0362 -0.4036 -0.2414
 2502TIP3    H129141   2.188   0.620   1.100  0.8562  0.0263  1.3471
 2502TIP3    H229142   2.245   0.542   0.983 -1.8099  0.6896 -0.4827
 2503TIP3   OH229143   1.678   3.450   7.001 -0.0389 -0.7906 -0.0472
 2503TIP3    H129144   1.624   3.502   6.941  1.1864 -2.1259 -2.4641
 2503TIP3    H229145   1.749   3.509   7.026 -1.4955  0.3628  1.6517
 2504TIP3   OH229146   2.575   0.591   0.447  0.0783 -0.4003  0.1043
 2504TIP3    H129147   2.558   0.665   0.389  0.5398 -2.0681 -2.3268
 2504TIP3    H229148   2.577   0.629   0.535 -1.9543  2.0700 -0.8032
 2505TIP3   OH229149   6.781   1.175   8.592  0.5112  0.0604 -0.1397
 2505TIP3    H129150   6.841   1.122   8.645 -1.6172 -1.5745  0.7901
 2505TIP3    H229151   6.720   1.112   8.554  1.0933  1.3434 -3.5313
 2506TIP3   OH229152   2.099   5.523   0.217  0.4390  0.4173  0.2957
 2506TIP3    H129153   2.118   5.431   0.196  0.6138  1.0390 -2.8445
 2506TIP3    H229154   2.007   5.523   0.243 -0.2156 -0.4390 -1.8208
 2507TIP3   OH229155   6.519   2.896   8.017  0.0249 -0.1464 -0.1877
 2507TIP3    H129156   6.535   2.807   8.048  3.6851  1.4162  3.3396
 2507TIP3    H229157   6.425   2.909   8.030 -0.1565 -2.6513  1.8783
 2508TIP3   OH229158   0.482   2.897   7.386 -0.3249 -0.5250  0.6563
 2508TIP3    H129159   0.524   2.860   7.308  0.7093  1.7171  0.0602
 2508TIP3    H229160   0.554   2.911   7.447 -0.0715  3.0565 -0.2464
 2509TIP3   OH229161   0.092   6.616   7.109 -0.8628 -0.1089 -0.5046
 2509TIP3    H129162   0.103   6.529   7.148 -2.5572 -0.2936 -0.3587
 2509TIP3    H229163  -0.003   6.630   7.108 -0.7265  0.9759 -2.2203
 2510TIP3   OH229164   4.515   3.680   8.609 -0.3913  0.3695 -0.0494
 2510TIP3    H129165   4.482   3.735   8.538 -0.9168  1.3221  0.8857
 2510TIP3    H229166   4.441   3.623   8.631 -0.5348  0.6743  0.2846
 2511TIP3   OH229167   6.612   5.340   8.300 -0.8680 -1.0291  0.4947
 2511TIP3    H129168   6.543   5.363   8.238  1.6229 -0.1428 -2.1809
 2511TIP3    H229169   6.602   5.402   8.371 -1.6385  0.4225 -0.8121
 2512TIP3   OH229170   0.823   5.281   0.100 -0.0314  0.4135 -0.3152
 2512TIP3    H129171   0.836   5.189   0.126 -1.7720  0.4464  0.8043
 2512TIP3    H229172   0.873   5.289   0.018  1.0058 -1.2354  0.0881
 2513TIP3   OH229173   2.357   6.258   7.518  0.2211 -0.1284 -0.0847
 2513TIP3    H129174   2.278   6.231   7.564 -0.5157 -0.9283 -1.7578
 2513TIP3    H229175   2.395   6.326   7.574 -2.4978  1.4739 -0.0008
 2514TIP3   OH229176   3.406   0.126   1.827 -0.4594 -0.2431 -0.5608
 2514TIP3    H129177   3.384   0.044   1.870 -0.3258 -0.1493 -0.3154
 2514TIP3    H229178   3.361   0.193   1.878  2.0450  0.1863  1.2423
 2515TIP3   OH229179   4.332   3.247   8.435 -0.3113  0.5336  0.0864
 2515TIP3    H129180   4.238   3.261   8.428 -0.3765 -0.5082 -1.9366
 2515TIP3    H229181   4.371   3.301   8.366  0.3391 -0.7558 -0.6005
 2516TIP3   OH229182   0.753   5.746   7.623  0.7325  0.0872  0.1002
 2516TIP3    H129183   0.672   5.756   7.674  0.8363 -1.9898  0.7787
 2516TIP3    H229184   0.777   5.835   7.598 -0.8527  0.9118  1.3188
 2517TIP3   OH229185   5.761   2.228   7.960  0.2730  0.1747 -0.1982
 2517TIP3    H129186   5.803   2.255   7.879 -0.5813  0.6906 -0.4854
 2517TIP3    H229187   5.751   2.133   7.952 -1.4054  0.4092 -1.5125
 2518TIP3   OH229188   5.696   3.576   0.912  1.0560  0.1008 -0.5807
 2518TIP3    H129189   5.788   3.560   0.936  1.0709 -0.2947 -0.8906
 2518TIP3    H229190   5.672   3.654   0.961  1.0382 -0.7817  0.8938
 2519TIP3   OH229191   0.129   1.371   8.867 -0.1952  0.9590 -0.6925
 2519TIP3    H129192   0.148   1.422   8.946 -0.3879  0.9082 -0.6132
 2519TIP3    H229193   0.215   1.343   8.836  0.0242  2.4461 -1.4857
 2520TIP3   OH229194   5.026   5.728   7.689  1.0079 -0.0507  0.4582
 2520TIP3    H129195   5.013   5.804   7.632 -0.0989 -0.6982 -0.1977
 2520TIP3    H229196   5.097   5.679   7.648 -0.3046 -0.9325 -0.8889
 2521TIP3   OH229197   6.697   2.703   1.752  0.1795 -0.0573  0.1741
 2521TIP3    H129198   6.732   2.634   1.808 -0.4019 -0.5210 -0.0176
 2521TIP3    H229199   6.719   2.784   1.797  1.3260 -0.3354  0.1483
 2522TIP3   OH229200   6.203   1.033   1.568 -0.0184  0.0072  0.8286
 2522TIP3    H129201   6.204   1.116   1.616  3.1305  0.6376 -0.0982
 2522TIP3    H229202   6.226   0.968   1.634  0.3279  0.2807  0.9803
 2523TIP3   OH229203   3.230   4.165   6.956  0.4135 -0.2100 -0.5004
 2523TIP3    H129204   3.218   4.133   7.045 -0.3760  0.2655 -0.4266
 2523TIP3    H229205   3.149   4.142   6.911  1.1989 -1.3455 -1.3886
 2524TIP3   OH229206   3.350   2.609   8.246 -0.4268 -0.1525 -0.7700
 2524TIP3    H129207   3.309   2.638   8.328 -0.9690  1.5528 -1.5796
 2524TIP3    H229208   3.408   2.681   8.223 -0.7077 -0.3489 -2.1530
 2525TIP3   OH229209   2.173   1.776   2.423  0.0845  0.2349 -0.5804
 2525TIP3    H129210   2.178   1.841   2.353  1.2213 -2.4326 -3.1956
 2525TIP3    H229211   2.253   1.790   2.475  0.4005  0.8160 -1.2157
 2526TIP3   OH229212   6.340   1.931   7.675  0.3104  0.1515  0.1007
 2526TIP3    H129213   6.421   1.924   7.725  0.9608 -0.7152 -1.0136
 2526TIP3    H229214   6.271   1.912   7.738  0.8497  2.0617  1.3489
 2527TIP3   OH229215   0.826   6.330   6.652 -0.4069  0.0188  0.2035
 2527TIP3    H129216   0.893   6.350   6.588  1.3394 -0.4678  1.7860
 2527TIP3    H229217   0.782   6.252   6.618 -1.2089  1.1647 -1.5474
 2528TIP3   OH229218   4.741   1.933   1.099 -0.5400 -0.1341 -0.5093
 2528TIP3    H129219   4.703   1.960   1.182 -0.8297 -2.0418  0.0380
 2528TIP3    H229220   4.773   1.844   1.115 -0.1785 -0.3821 -2.3099
 2529TIP3   OH229221   3.380   1.524   0.411 -0.1751  0.2650 -0.3234
 2529TIP3    H129222   3.398   1.482   0.495  2.6185  0.1013 -0.9015
 2529TIP3    H229223   3.327   1.461   0.362 -0.2927 -0.4006  0.6504
 2530TIP3   OH229224   6.453   6.504   0.134  0.2984  0.6045 -0.2163
 2530TIP3    H129225   6.428   6.521   0.043  0.5027 -0.4321 -0.4772
 2530TIP3    H229226   6.377   6.460   0.172  2.1954 -4.5963 -1.6088
 2531TIP3   OH229227   3.087   6.262   0.480  0.6563  0.2974  0.3351
 2531TIP3    H129228   3.110   6.297   0.566  0.1062 -0.0599  0.6292
 2531TIP3    H229229   2.992   6.256   0.480  0.5965  1.0457 -0.5989
 2532TIP3   OH229230   3.970   0.088   6.224 -0.3995 -0.3736 -0.3441
 2532TIP3    H129231   3.907   0.071   6.154 -0.4783 -1.2191 -0.0828
 2532TIP3    H229232   4.050   0.045   6.195  0.2323  1.1128 -0.9060
 2533TIP3   OH229233   3.248   1.092   6.666  0.6134 -0.1605  0.4896
 2533TIP3    H129234   3.334   1.133   6.663  0.2624  0.5383 -0.3802
 2533TIP3    H229235   3.211   1.120   6.749  1.3305 -0.7065  1.0070
 2534TIP3   OH229236   5.977   2.695   8.762 -0.8531  0.3081  0.3307
 2534TIP3    H129237   5.907   2.678   8.824 -0.7759  1.1720  0.6793
 2534TIP3    H229238   6.036   2.754   8.809  0.9780 -1.6694  0.6480
 2535TIP3   OH229239   1.043   2.646   6.906 -0.0189  0.2497  0.4291
 2535TIP3    H129240   1.029   2.678   6.817 -1.5482  0.1826  0.6162
 2535TIP3    H229241   1.138   2.641   6.915  0.1702  0.6738 -1.0441
 2536TIP3   OH229242   5.023   2.084   2.034 -0.0623  0.0177 -0.1405
 2536TIP3    H129243   4.987   2.078   2.122  1.0151 -0.9143  0.2607
 2536TIP3    H229244   5.118   2.094   2.047  0.0038  1.0623 -1.1833
 2537TIP3   OH229245   3.389   4.347   0.365 -0.5670 -0.4232 -0.2261
 2537TIP3    H129246   3.472   4.347   0.413 -0.7149 -1.3843  0.0404
 2537TIP3    H229247   3.407   4.294   0.288 -0.7807 -0.1644 -0.4538
 2538TIP3   OH229248   0.496   2.291   1.683  0.1741 -0.0958  0.2048
 2538TIP3    H129249   0.422   2.235   1.706  0.8236 -0.9919  0.1624
 2538TIP3    H229250   0.513   2.272   1.591  0.1002  0.5424  0.0502
 2539TIP3   OH229251   5.856   6.387   7.221  0.4514 -0.2642  0.5723
 2539TIP3    H129252   5.914   6.319   7.254  1.2185 -0.4915 -1.1712
 2539TIP3    H229253   5.810   6.346   7.148  0.8105  1.0279 -0.4051
 2540TIP3   OH229254   4.868   1.562   7.203  0.2638 -0.9597 -0.5459
 2540TIP3    H129255   4.893   1.604   7.120  0.5839 -1.5021 -0.7297
 2540TIP3    H229256   4.777   1.535   7.189 -0.0070 -0.1779 -0.3591
 2541TIP3   OH229257   4.743   1.331   6.597 -0.6063 -0.0345 -0.4197
 2541TIP3    H129258   4.773   1.399   6.657  1.9558 -1.3323 -0.0659
 2541TIP3    H229259   4.796   1.255   6.619 -1.7508 -1.4740 -2.3128
 2542TIP3   OH229260   3.467   0.448   1.538 -0.2805  0.2495 -0.2026
 2542TIP3    H129261   3.428   0.399   1.466 -1.3605  0.2962  0.3325
 2542TIP3    H229262   3.401   0.514   1.561  0.7081  1.2700 -0.2162
 2543TIP3   OH229263   6.270   0.340   7.627 -0.3141  0.3412 -0.4124
 2543TIP3    H129264   6.334   0.367   7.561 -0.9616  1.3099 -0.6741
 2543TIP3    H229265   6.220   0.420   7.646  1.1069  0.6553  2.7294
 2544TIP3   OH229266   0.901   1.745   1.226 -0.0864  0.0577  0.7169
 2544TIP3    H129267   0.879   1.834   1.256  0.8489  0.8047 -0.6749
 2544TIP3    H229268   0.951   1.759   1.145 -0.2806 -1.7638  0.2368
 2545TIP3   OH229269   4.232   2.650   7.018  0.5639 -0.2832  0.3756
 2545TIP3    H129270   4.305   2.688   6.969  0.4279  0.1474  0.5026
 2545TIP3    H229271   4.154   2.671   6.966  0.3271  0.8843  1.1592
 2546TIP3   OH229272   6.164   2.527   6.459 -0.2168 -0.0752  0.2033
 2546TIP3    H129273   6.169   2.622   6.451 -0.3324 -0.1715 -1.2580
 2546TIP3    H229274   6.074   2.505   6.433 -0.0863 -0.6147  0.1960
 2547TIP3   OH229275   2.787   4.564   7.986  0.5014 -0.1558  0.2498
 2547TIP3    H129276   2.849   4.575   8.058  2.0922  2.6265 -1.3649
 2547TIP3    H229277   2.841   4.563   7.907 -1.3752  1.3679 -1.1797
 2548TIP3   OH229278   5.755   3.670   7.585 -0.3869 -0.0556 -0.2407
 2548TIP3    H129279   5.675   3.636   7.547 -1.7225  1.7490  0.7913
 2548TIP3    H229280   5.812   3.594   7.593 -2.4386 -1.6460  0.0968
 2549TIP3   OH229281   2.815   6.575   1.096  0.3302  0.2572 -0.5628
 2549TIP3    H129282   2.783   6.641   1.034 -1.2074  1.7504  1.6430
 2549TIP3    H229283   2.812   6.493   1.047  3.7570  1.8428 -3.9396
 2550TIP3   OH229284   1.755   4.422   7.792 -0.3965 -0.8863 -0.0842
 2550TIP3    H129285   1.697   4.346   7.795 -1.7202  0.0893 -0.2417
 2550TIP3    H229286   1.750   4.460   7.880 -0.3301 -0.5615 -0.2181
 2551TIP3   OH229287   2.550   2.147   0.945 -0.4452  0.4219  0.1696
 2551TIP3    H129288   2.482   2.105   0.893  0.0797 -0.1915 -0.0265
 2551TIP3    H229289   2.515   2.235   0.962 -0.9201  0.4043 -0.6376
 2552TIP3   OH229290   0.919   1.035   7.452  0.0741  0.2745  0.6627
 2552TIP3    H129291   0.898   1.121   7.417 -0.3089  0.2824  0.8981
 2552TIP3    H229292   1.013   1.026   7.441  0.3485  1.3213  1.9599
 2553TIP3   OH229293   6.009   6.404   6.755  0.8041  0.0278 -0.0389
 2553TIP3    H129294   5.932   6.364   6.795  0.3919 -0.4077 -1.2094
 2553TIP3    H229295   5.980   6.490   6.727  0.7333 -0.1369 -0.4827
 2554TIP3   OH229296   3.763   4.865   8.158  0.1551  0.2837  0.2460
 2554TIP3    H129297   3.850   4.834   8.180  0.0242  0.0203  0.4015
 2554TIP3    H229298   3.772   4.901   8.070  0.5363  0.7505  0.4689
 2555TIP3   OH229299   3.842   4.340   7.110  0.0516  0.1133 -0.0035
 2555TIP3    H129300   3.905   4.336   7.182 -1.6856 -3.2808  1.5618
 2555TIP3    H229301   3.877   4.281   7.044  0.9944  2.2442 -1.5170
 2556TIP3   OH229302   0.552   5.434   1.974  0.4052  0.4330 -0.1847
 2556TIP3    H129303   0.567   5.376   2.049 -1.5791 -2.4811 -1.7998
 2556TIP3    H229304   0.457   5.445   1.972  0.4396  0.6025 -2.1475
 2557TIP3   OH229305   4.601   5.456   8.257  0.1166 -0.3809 -0.2602
 2557TIP3    H129306   4.569   5.505   8.333 -1.2588  0.1050 -1.1088
 2557TIP3    H229307   4.643   5.523   8.203 -1.4502 -0.1268 -1.2515
 2558TIP3   OH229308   0.031   5.487   0.951 -0.0442 -0.1532 -0.4644
 2558TIP3    H129309   0.045   5.553   0.883 -2.5371  0.7123 -0.2544
 2558TIP3    H229310  -0.005   5.536   1.024 -1.5555 -1.6641 -0.1338
 2559TIP3   OH229311   5.668   2.104   8.754 -0.2479  0.0966 -0.3880
 2559TIP3    H129312   5.695   2.195   8.766  0.4636 -0.1591 -0.0155
 2559TIP3    H229313   5.696   2.060   8.834  1.3670 -0.9047 -1.4636
 2560TIP3   OH229314   3.150   0.152   0.281 -0.4191  0.0166  0.0881
 2560TIP3    H129315   3.073   0.102   0.309  0.2577 -0.8962  0.3573
 2560TIP3    H229316   3.146   0.232   0.334  0.9683 -1.7698  3.1772
 2561TIP3   OH229317   5.697   1.394   7.901 -0.0070  0.2714 -0.0234
 2561TIP3    H129318   5.643   1.319   7.879 -1.1921  0.6384  1.4438
 2561TIP3    H229319   5.665   1.422   7.987  2.5150  0.5130  0.9287
 2562TIP3   OH229320   4.339   3.668   8.861  0.3427 -0.3496  0.7231
 2562TIP3    H129321   4.253   3.665   8.903  0.3075 -1.2814  0.6016
 2562TIP3    H229322   4.391   3.603   8.908  0.8376 -0.1384  0.4786
 2563TIP3   OH229323   0.034   3.327   1.640  0.0569 -0.3012  0.2223
 2563TIP3    H129324  -0.022   3.252   1.658 -0.3668  0.1039  0.6275
 2563TIP3    H229325   0.049   3.367   1.726 -1.7701  1.5011 -0.1974
 2564TIP3   OH229326   5.666   6.477   8.314 -0.0385  0.2588 -0.2178
 2564TIP3    H129327   5.668   6.482   8.410 -0.4477 -0.7646 -0.1449
 2564TIP3    H229328   5.729   6.544   8.286 -1.7000  2.3089  0.6676
 2565TIP3   OH229329   2.393   0.537   2.099 -0.0144 -0.4809  0.0529
 2565TIP3    H129330   2.392   0.582   2.014  1.8552 -0.9675 -0.2934
 2565TIP3    H229331   2.475   0.487   2.098 -0.3838 -1.2001  1.8003
 2566TIP3   OH229332   1.903   2.110   1.840 -0.0402 -0.4504  0.0344
 2566TIP3    H129333   1.993   2.136   1.857  0.2422  0.0259 -1.9303
 2566TIP3    H229334   1.851   2.164   1.899  0.9610 -1.2588  1.7394
 2567TIP3   OH229335   0.310   6.776   8.356 -0.2323 -0.1415 -0.4757
 2567TIP3    H129336   0.225   6.780   8.311 -0.6930 -2.1690  0.1325
 2567TIP3    H229337   0.374   6.777   8.285 -0.7901  0.5758 -0.9838
 2568TIP3   OH229338   2.391   5.690   6.965 -0.4559  0.6877  0.1729
 2568TIP3    H129339   2.415   5.624   7.031  0.4441  0.6959 -0.1388
 2568TIP3    H229340   2.376   5.640   6.885  0.1943  0.8498 -0.0563
 2569TIP3   OH229341   1.170   1.042   7.377 -0.0266 -0.8600  0.0656
 2569TIP3    H129342   1.236   1.100   7.415  0.1155 -1.4014  0.6564
 2569TIP3    H229343   1.218   0.962   7.356 -0.3192 -0.9390 -0.3052
 2570TIP3   OH229344   4.257   4.168   6.988 -0.2682 -0.2256 -0.5512
 2570TIP3    H129345   4.162   4.163   6.979 -0.3775  0.1514  0.2758
 2570TIP3    H229346   4.276   4.262   6.992  0.0512 -0.3090  0.0405
 2571TIP3   OH229347   6.284   4.189   1.039 -0.2076  0.6095  0.2486
 2571TIP3    H129348   6.330   4.201   1.122  1.9354 -0.1824 -0.7615
 2571TIP3    H229349   6.283   4.095   1.025 -0.2082  0.7625 -0.8268
 2572TIP3   OH229350   4.388   2.058   6.574  0.5226  0.2357  0.0237
 2572TIP3    H129351   4.361   1.967   6.562  0.1925  0.2518  0.6113
 2572TIP3    H229352   4.379   2.073   6.668 -0.6666  1.2719 -0.2357
 2573TIP3   OH229353   5.974   2.101   0.001  0.3178  0.3031 -0.3215
 2573TIP3    H129354   5.977   2.111  -0.094  0.7669 -0.8557 -0.4502
 2573TIP3    H229355   5.941   2.184   0.033  0.3403  0.7784 -1.4820
 2574TIP3   OH229356   3.672   1.159   1.729 -0.5533 -0.4871  0.0983
 2574TIP3    H129357   3.585   1.162   1.690 -1.2894 -3.2215  1.2917
 2574TIP3    H229358   3.663   1.205   1.813 -0.5065  0.3066 -0.3280
 2575TIP3   OH229359   6.121   2.443   0.829 -0.0867  0.0199  0.1985
 2575TIP3    H129360   6.046   2.480   0.876 -1.3189 -0.9086 -0.9704
 2575TIP3    H229361   6.143   2.508   0.763 -1.7711 -0.9260 -1.3630
 2576TIP3   OH229362   0.642   6.315   8.429  0.1329 -0.2480 -0.0752
 2576TIP3    H129363   0.605   6.286   8.346  2.0846 -0.5285 -0.9091
 2576TIP3    H229364   0.566   6.335   8.484 -1.2108 -0.1433 -1.8800
 2577TIP3   OH229365   5.357   6.256   7.851 -0.1514 -1.0139 -0.6306
 2577TIP3    H129366   5.295   6.284   7.919  0.3387 -0.9818 -0.1881
 2577TIP3    H229367   5.384   6.337   7.809  0.0184 -0.9751 -0.4468
 2578TIP3   OH229368   0.505   4.040   8.755 -0.0830 -0.1720 -0.4456
 2578TIP3    H129369   0.587   4.024   8.709 -0.1754  0.2497 -0.7688
 2578TIP3    H229370   0.437   4.025   8.688 -0.1682  1.8155 -0.8857
 2579TIP3   OH229371   0.192   1.683   7.877 -0.0681 -0.8345  0.3083
 2579TIP3    H129372   0.134   1.656   7.948 -1.5060  2.4723  0.5794
 2579TIP3    H229373   0.135   1.731   7.817  1.6321 -1.2186 -1.7331
 2580TIP3   OH229374   3.597   6.664   7.526  0.4809  0.1295 -0.2770
 2580TIP3    H129375   3.523   6.628   7.575  0.5271  1.4094  0.7763
 2580TIP3    H229376   3.668   6.666   7.589  0.1492  3.2137  0.1117
 2581TIP3   OH229377   0.851   1.531   2.356 -0.3466  0.1391 -0.3108
 2581TIP3    H129378   0.889   1.564   2.274 -0.4524  0.4719 -0.2273
 2581TIP3    H229379   0.917   1.551   2.422 -1.4130  2.4111  0.1542
 2582TIP3   OH229380   6.090   4.978   0.454 -0.1389  0.4256  0.5357
 2582TIP3    H129381   6.022   4.919   0.486  1.7909 -2.4197 -0.2348
 2582TIP3    H229382   6.142   4.998   0.531 -0.2517  0.3729  0.6262
 2583TIP3   OH229383   5.269   5.849   2.207 -0.4011 -0.2290 -0.1741
 2583TIP3    H129384   5.260   5.904   2.129 -0.0305 -2.1933 -1.6709
 2583TIP3    H229385   5.180   5.819   2.225 -0.3492 -0.5873 -0.4884
 2584TIP3   OH229386   0.759   0.849   8.510 -0.8975  0.4387  0.5383
 2584TIP3    H129387   0.729   0.759   8.496  1.5771 -0.7195  1.9828
 2584TIP3    H229388   0.747   0.892   8.425  1.7615 -2.4999 -1.5650
 2585TIP3   OH229389   0.403   5.889   1.529  0.0493 -1.0776  0.0706
 2585TIP3    H129390   0.407   5.840   1.611  0.6715 -2.8817 -0.9652
 2585TIP3    H229391   0.493   5.892   1.498  0.3119  2.1218  0.7631
 2586TIP3   OH229392   0.127   2.145   7.335  0.0220  0.7451 -0.1070
 2586TIP3    H129393   0.081   2.095   7.403  0.0480  3.6063  2.2536
 2586TIP3    H229394   0.057   2.186   7.285 -0.0525  1.8415  0.8556
 2587TIP3   OH229395   0.209   4.249   7.761  0.4602  0.4343  0.6986
 2587TIP3    H129396   0.238   4.339   7.775  0.3712  0.7711 -1.0354
 2587TIP3    H229397   0.115   4.257   7.745  0.5186  0.0822  0.1627
 2588TIP3   OH229398   3.241   0.647   7.789 -0.3097  0.2072 -0.1001
 2588TIP3    H129399   3.211   0.597   7.713  0.1673  0.0690 -0.1996
 2588TIP3    H229400   3.165   0.648   7.848 -0.6593  0.2475 -0.5389
 2589TIP3   OH229401   0.339   1.051   1.229 -0.3498 -0.3462  0.2097
 2589TIP3    H129402   0.359   1.141   1.205  1.1727 -0.6781  0.0977
 2589TIP3    H229403   0.283   1.059   1.306  1.2606  0.7341  1.3417
 2590TIP3   OH229404   5.660   1.591   1.535 -0.1503  0.5474 -0.0641
 2590TIP3    H129405   5.750   1.562   1.517 -0.0599 -1.5615  3.0170
 2590TIP3    H229406   5.611   1.564   1.458  1.8084  1.9625 -1.9495
 2591TIP3   OH229407   4.433   6.471   8.096  0.2718 -0.2485 -0.0211
 2591TIP3    H129408   4.383   6.389   8.088 -0.8865  0.2324  1.7077
 2591TIP3    H229409   4.516   6.453   8.053  0.1565 -2.4343  0.5460
 2592TIP3   OH229410   6.436   0.725   0.949 -0.2191  0.4347 -0.3208
 2592TIP3    H129411   6.496   0.764   1.013  1.1917 -0.9628 -0.7217
 2592TIP3    H229412   6.484   0.649   0.915 -1.1636  0.7993 -2.6046
 2593TIP3   OH229413   5.061   5.787   1.067  0.0887  0.2373 -0.1045
 2593TIP3    H129414   5.086   5.779   0.975 -0.2729 -0.8027 -0.1177
 2593TIP3    H229415   5.060   5.882   1.083  2.5349  0.4129 -0.5055
 2594TIP3   OH229416   2.074   3.898   1.450  0.4775 -0.1810  0.4077
 2594TIP3    H129417   2.106   3.922   1.537 -0.9339  0.9140  0.6589
 2594TIP3    H229418   2.004   3.960   1.432  1.1465  0.0226 -1.7996
 2595TIP3   OH229419   6.729   2.733   0.559 -0.1718  0.0768  0.3471
 2595TIP3    H129420   6.735   2.829   0.558 -0.2180  0.0878  0.7515
 2595TIP3    H229421   6.642   2.714   0.524  0.6359  0.0834 -1.8091
 2596TIP3   OH229422   6.205   5.239   1.036  0.7569  0.5493 -0.0399
 2596TIP3    H129423   6.172   5.327   1.052  1.6194  1.3819 -2.3937
 2596TIP3    H229424   6.289   5.236   1.082 -0.0956  0.2658  1.5644
 2597TIP3   OH229425   0.878   3.753   0.109  0.0669 -0.1564  0.0310
 2597TIP3    H129426   0.969   3.739   0.085 -0.3612  0.2737 -1.9965
 2597TIP3    H229427   0.832   3.766   0.026 -1.5978  1.1016  1.0660
 2598TIP3   OH229428   5.488   2.979   0.154  0.7916  0.1606  0.1540
 2598TIP3    H129429   5.403   3.015   0.177  0.0324 -0.9781 -0.7716
 2598TIP3    H229430   5.543   3.056   0.139 -0.2736  0.9185  0.0404
 2599TIP3   OH229431   3.666   2.540   1.071 -0.3023  0.1289 -0.0814
 2599TIP3    H129432   3.695   2.598   1.001 -0.4667  0.7361  0.3434
 2599TIP3    H229433   3.722   2.563   1.146 -0.2407 -0.3941  0.0416
 2600TIP3   OH229434   6.070   0.467   7.406  0.6960 -0.3725  0.1197
 2600TIP3    H129435   6.067   0.510   7.491  0.0643  0.7315 -0.4326
 2600TIP3    H229436   5.979   0.443   7.388  0.8105 -0.5219 -0.2774
 2601TIP3   OH229437   4.787   6.732   8.049 -0.8293  0.6341 -0.2251
 2601TIP3    H129438   4.821   6.724   8.138  0.2085  0.5433 -0.6133
 2601TIP3    H229439   4.843   6.798   8.008 -1.4416  0.8368 -0.7446
 2602TIP3   OH229440   6.202   4.441   7.642  0.2893 -0.0842  0.6165
 2602TIP3    H129441   6.210   4.356   7.600  4.3163  0.9900 -1.2987
 2602TIP3    H229442   6.190   4.502   7.569 -1.6289  1.1330  1.8743
 2603TIP3   OH229443   1.494   4.192   7.077  0.4114  0.0741 -0.1339
 2603TIP3    H129444   1.517   4.179   6.985 -0.1150 -1.7419 -0.0379
 2603TIP3    H229445   1.403   4.219   7.076  0.1929 -0.6474 -0.1221
 2604TIP3   OH229446   5.204   5.085   0.764 -0.5525  0.1254  0.7583
 2604TIP3    H129447   5.280   5.079   0.822 -1.0065 -0.3179  1.3273
 2604TIP3    H229448   5.240   5.106   0.678  0.2548 -0.5653  0.9218
 2605TIP3   OH229449   2.201   2.561   0.739 -0.4224  0.3194 -0.5883
 2605TIP3    H129450   2.224   2.652   0.718  0.9731  0.0765 -0.2135
 2605TIP3    H229451   2.106   2.557   0.726 -0.2854  1.3746 -2.2617
 2606TIP3   OH229452   0.041   6.309   1.554  0.1003 -0.2315  0.3678
 2606TIP3    H129453   0.070   6.391   1.594 -1.6803  1.0160 -0.7581
 2606TIP3    H229454  -0.018   6.270   1.617 -2.4710  1.5853 -0.7419
 2607TIP3   OH229455   2.803   3.663   1.449 -0.4038 -0.7530  0.0089
 2607TIP3    H129456   2.735   3.634   1.388 -1.3797 -1.8129  1.5348
 2607TIP3    H229457   2.885   3.632   1.411 -0.8063  0.0100 -1.5549
 2608TIP3   OH229458   3.476   0.074   7.186 -0.0635 -0.9428 -0.0140
 2608TIP3    H129459   3.500   0.102   7.098 -0.2787 -2.5718 -0.6121
 2608TIP3    H229460   3.560   0.063   7.231  0.0372  0.2027  0.1080
 2609TIP3   OH229461   6.318   0.582   0.243 -0.4014 -0.0761  0.4874
 2609TIP3    H129462   6.276   0.656   0.200  0.2754  0.1589  0.2173
 2609TIP3    H229463   6.404   0.616   0.270 -1.0634  0.0348  2.7131
 2610TIP3   OH229464   2.575   4.483   0.890  0.1353  0.2845 -0.1428
 2610TIP3    H129465   2.652   4.453   0.842 -0.4459 -0.4061 -0.6753
 2610TIP3    H229466   2.606   4.557   0.942  0.6244  1.6494 -2.2260
 2611TIP3   OH229467   6.567   6.489   6.355 -0.2990  0.5096  0.2269
 2611TIP3    H129468   6.579   6.548   6.280 -1.8297 -0.2930 -0.6847
 2611TIP3    H229469   6.595   6.541   6.430 -1.4939  2.3754 -0.5570
 2612TIP3   OH229470   0.255   2.914   7.148  0.1204  0.0165 -0.1570
 2612TIP3    H129471   0.289   2.825   7.163 -0.0297 -0.0497 -0.2085
 2612TIP3    H229472   0.268   2.959   7.232  0.8054  0.1483 -0.3255
 2613TIP3   OH229473   2.813   5.775   7.825  0.8063  0.1326 -0.1529
 2613TIP3    H129474   2.826   5.680   7.827 -0.0530  0.0153  1.0582
 2613TIP3    H229475   2.720   5.785   7.805  0.9678  0.7413 -0.6194
 2614TIP3   OH229476   0.090   2.656   7.810 -0.5062 -0.0893 -0.2369
 2614TIP3    H129477   0.037   2.736   7.812  0.9581  0.9174  0.1612
 2614TIP3    H229478   0.151   2.671   7.738  0.0440 -0.6794  0.1048
 2615TIP3   OH229479   1.457   0.059   5.902 -0.1874  0.4591 -0.1131
 2615TIP3    H129480   1.367   0.086   5.881 -0.9759  0.3287  2.6460
 2615TIP3    H229481   1.463  -0.031   5.873  0.6531  1.7008 -4.4245
 2616TIP3   OH229482   0.916   2.394   8.063  1.0381  0.3509  0.1017
 2616TIP3    H129483   0.925   2.300   8.077 -0.0293  0.3279  0.7847
 2616TIP3    H229484   0.835   2.417   8.109  1.4061  1.6456  0.1368
 2617TIP3   OH229485   5.590   5.733   6.661  0.1630  0.2589 -0.0395
 2617TIP3    H129486   5.676   5.719   6.623  0.5540  0.4678  0.7364
 2617TIP3    H229487   5.547   5.795   6.603  1.6966  2.6127  1.1648
 2618TIP3   OH229488   1.202   3.015   1.904 -0.3886  0.1369  0.2588
 2618TIP3    H129489   1.272   2.953   1.926  0.3138  0.3296 -1.3147
 2618TIP3    H229490   1.242   3.101   1.911 -0.5382  0.2645 -0.4366
 2619TIP3   OH229491   2.172   0.301   2.118  0.2548 -0.4290 -0.3486
 2619TIP3    H129492   2.238   0.357   2.159  0.9231 -1.2150 -0.3024
 2619TIP3    H229493   2.097   0.358   2.103  0.3241  0.0867  1.1319
 2620TIP3   OH229494   5.741   5.190   8.559 -0.5485 -0.1496  0.2250
 2620TIP3    H129495   5.708   5.131   8.491  1.8946 -1.1679 -0.2191
 2620TIP3    H229496   5.818   5.231   8.519  2.2117 -2.2634  2.8921
 2621TIP3   OH229497   5.629   6.788   7.205  0.6285  0.0667 -0.4408
 2621TIP3    H129498   5.582   6.755   7.128 -0.2756  1.4629 -0.5360
 2621TIP3    H229499   5.645   6.710   7.258 -0.3489 -0.6886 -1.1939
 2622TIP3   OH229500   5.878   5.804   6.896  0.0210  0.2467  0.0159
 2622TIP3    H129501   5.882   5.889   6.852 -0.7865 -0.8183 -2.2317
 2622TIP3    H229502   5.788   5.798   6.929  0.6202  1.0431  1.9933
 2623TIP3   OH229503   6.153   4.710   6.712 -0.4564 -0.0141  0.4785
 2623TIP3    H129504   6.233   4.710   6.766 -0.9616 -2.6759  1.3813
 2623TIP3    H229505   6.176   4.762   6.635  1.5895  0.6472  1.4538
 2624TIP3   OH229506   1.135   6.131   8.046 -0.1207  0.1407  0.2376
 2624TIP3    H129507   1.140   6.196   7.976  0.2838  1.4954  1.4737
 2624TIP3    H229508   1.117   6.049   8.001  2.1259  0.5735 -1.6773
 2625TIP3   OH229509   1.910   3.413   7.666 -0.3060  0.0567 -0.1178
 2625TIP3    H129510   1.819   3.426   7.638 -0.3491  1.4016  0.5372
 2625TIP3    H229511   1.956   3.389   7.586 -1.2473 -0.7354 -0.4448
 2626TIP3   OH229512   1.907   0.039   8.736 -0.1805  0.3386  0.0952
 2626TIP3    H129513   1.935   0.081   8.818  0.1508  0.2153  0.0438
 2626TIP3    H229514   1.984  -0.008   8.705 -0.6932 -0.7438  0.4224
 2627TIP3   OH229515   0.162   0.730   1.364  0.5459  0.6245 -0.0292
 2627TIP3    H129516   0.158   0.649   1.313  1.8996  1.2248 -1.1453
 2627TIP3    H229517   0.184   0.702   1.452 -4.0682 -0.6702  0.9758
 2628TIP3   OH229518   3.341   6.301   6.053  0.6395 -0.0158 -0.5927
 2628TIP3    H129519   3.265   6.355   6.033  0.2392  0.9250  2.8299
 2628TIP3    H229520   3.414   6.363   6.058  0.3244  0.2824  2.5282
 2629TIP3   OH229521   5.961   3.102   0.007 -0.7464 -0.4374  0.3238
 2629TIP3    H129522   5.911   3.034   0.053 -2.1133  0.1417 -0.2477
 2629TIP3    H229523   5.935   3.184   0.049 -0.8081 -0.0592 -0.4270
 2630TIP3   OH229524   1.337   0.821   7.310  0.8604  0.4894 -0.2201
 2630TIP3    H129525   1.348   0.802   7.217 -0.2881  0.8198 -0.4315
 2630TIP3    H229526   1.332   0.735   7.352  3.1213  0.3023 -0.2102
 2631TIP3   OH229527   4.256   1.540   7.690 -0.2930 -1.0866  0.0375
 2631TIP3    H129528   4.313   1.601   7.736 -0.9427 -1.5981  1.5832
 2631TIP3    H229529   4.316   1.483   7.641  0.6285 -2.0707  2.1862
 2632TIP3   OH229530   0.064   3.546   8.739  0.0397 -0.2000 -0.2833
 2632TIP3    H129531   0.080   3.558   8.645 -0.3780  0.6110 -0.2635
 2632TIP3    H229532   0.131   3.484   8.767  1.5597  1.1550 -0.7077
 2633TIP3   OH229533   1.577   0.303   6.191  0.1246  0.7236  0.5602
 2633TIP3    H129534   1.537   0.382   6.228  0.2970  0.7968  0.5899
 2633TIP3    H229535   1.607   0.329   6.104 -0.4962  0.4857  0.2701
 2634TIP3   OH229536   4.845   4.825   8.621 -0.2716  0.3340  0.0680
 2634TIP3    H129537   4.890   4.907   8.603 -0.3729  0.5257  0.6733
 2634TIP3    H229538   4.827   4.827   8.715 -1.7762  0.3988 -0.1829
 2635TIP3   OH229539   5.443   5.873   6.441  0.5130 -0.0157 -0.0871
 2635TIP3    H129540   5.520   5.836   6.398  1.2440 -0.2560  1.3645
 2635TIP3    H229541   5.385   5.799   6.454  0.3197  0.0456 -0.5942
 2636TIP3   OH229542   0.418   5.518   1.705 -0.1129 -0.3133 -0.4337
 2636TIP3    H129543   0.431   5.577   1.779  0.7742  0.2897 -1.0513
 2636TIP3    H229544   0.349   5.458   1.734  0.8183 -0.6395  1.1993
 2637TIP3   OH229545   1.337   1.291   7.489 -0.2492  0.0425 -0.0558
 2637TIP3    H129546   1.385   1.219   7.529  0.1880  0.6747  0.5873
 2637TIP3    H229547   1.270   1.314   7.554  0.0024  0.6027  0.0101
 2638TIP3   OH229548   2.724   1.144   1.302 -0.1364  0.2745  0.4269
 2638TIP3    H129549   2.703   1.089   1.227 -0.2731  1.5645 -0.5197
 2638TIP3    H229550   2.815   1.170   1.289  0.6277 -1.4212  2.0028
 2639TIP3   OH229551   6.165   0.699   8.646  0.2054  0.5383  0.1035
 2639TIP3    H129552   6.115   0.719   8.567  2.1946  0.5249 -1.2408
 2639TIP3    H229553   6.247   0.662   8.614  0.9940  0.3200  2.1945
 2640TIP3   OH229554   5.665   2.592   0.267  0.6653  0.6064  0.1883
 2640TIP3    H129555   5.573   2.619   0.268  1.0242  1.9385  0.2990
 2640TIP3    H229556   5.692   2.596   0.358 -0.2251 -3.9872  0.8718
 2641TIP3   OH229557   2.608   3.219   1.755  0.9764 -0.4705 -0.4563
 2641TIP3    H129558   2.661   3.193   1.831 -0.0241  0.4129  0.5849
 2641TIP3    H229559   2.670   3.261   1.696  1.5974 -0.1485  0.3978
 2642TIP3   OH229560   3.396   0.699   6.995 -0.8283  0.5100 -0.4940
 2642TIP3    H129561   3.385   0.792   6.977  0.2509  0.6056 -0.7027
 2642TIP3    H229562   3.488   0.681   6.975 -1.4902 -1.0540 -2.4446
 2643TIP3   OH229563   5.832   1.194   7.024 -0.4532  0.1780 -0.5590
 2643TIP3    H129564   5.797   1.163   7.108 -1.5652  1.9151 -0.3379
 2643TIP3    H229565   5.845   1.114   6.973 -0.0025 -0.8988  1.1547
 2644TIP3   OH229566   1.712   2.862   1.307 -0.7314 -0.6587  0.0971
 2644TIP3    H129567   1.771   2.906   1.369 -1.7685  1.6788 -0.4961
 2644TIP3    H229568   1.663   2.801   1.362  1.5227 -2.0337  0.7572
 2645TIP3   OH229569   1.474   1.488   1.042  0.0257 -0.0965  0.0620
 2645TIP3    H129570   1.415   1.440   0.983 -0.1932 -0.4365  0.5522
 2645TIP3    H229571   1.549   1.511   0.987 -0.4998  0.2226 -0.5310
 2646TIP3   OH229572   6.201   5.747   0.989 -0.3172  0.6702 -0.4854
 2646TIP3    H129573   6.287   5.774   0.956 -0.0076  0.4114  0.1013
 2646TIP3    H229574   6.139   5.799   0.937  0.1535  0.2516 -1.4994
 2647TIP3   OH229575   2.073   3.597   0.208  0.0126  0.1350 -0.1096
 2647TIP3    H129576   2.042   3.674   0.160  0.8302  0.3797 -0.2505
 2647TIP3    H229577   2.156   3.624   0.247 -0.0036 -0.4762  0.3761
 2648TIP3   OH229578   0.630   1.379   0.457  0.0924 -0.1144  0.4318
 2648TIP3    H129579   0.577   1.428   0.394 -0.7338 -0.6584  0.6912
 2648TIP3    H229580   0.589   1.399   0.542  1.0299  0.4013  0.7731
 2649TIP3   OH229581   1.593   1.251   1.592 -0.7547  0.1682  0.2009
 2649TIP3    H129582   1.612   1.205   1.674  1.0768 -1.5057 -1.0737
 2649TIP3    H229583   1.669   1.307   1.577 -0.0615 -1.1303 -1.3699
 2650TIP3   OH229584   5.592   3.565   8.013  0.2647  0.7869  0.1988
 2650TIP3    H129585   5.673   3.578   8.062  1.5837 -0.7674 -1.4345
 2650TIP3    H229586   5.590   3.472   7.993 -2.2215  0.6791  0.5925
 2651TIP3   OH229587   6.308   0.107   8.213  0.3180  0.0060  0.2791
 2651TIP3    H129588   6.291   0.094   8.306  2.2310 -1.8066  0.4569
 2651TIP3    H229589   6.344   0.195   8.207 -0.1423  0.2679  1.2005
 2652TIP3   OH229590   3.105   6.779   6.547  0.0718 -0.1327  0.6540
 2652TIP3    H129591   3.015   6.792   6.516  0.4844  1.0106 -0.1331
 2652TIP3    H229592   3.117   6.845   6.615  0.9250  1.0562 -0.6098
 2653TIP3   OH229593   4.452   5.337   7.206  0.2952 -0.4904 -0.7887
 2653TIP3    H129594   4.437   5.289   7.125 -0.8737 -1.0743 -0.2463
 2653TIP3    H229595   4.375   5.392   7.217  0.1223 -0.9202  0.2654
 2654TIP3   OH229596   3.997   1.456   8.369 -0.0589  0.0241 -0.2506
 2654TIP3    H129597   3.931   1.387   8.366 -2.2368  1.9894 -0.1287
 2654TIP3    H229598   4.045   1.439   8.450  1.0407 -2.6243 -1.3399
 2655TIP3   OH229599   5.762   0.886   7.300  0.1824 -0.2847  0.0242
 2655TIP3    H129600   5.735   0.968   7.340  0.6992 -0.2429  0.2949
 2655TIP3    H229601   5.691   0.865   7.239  1.2109  1.7332 -2.0362
 2656TIP3   OH229602   2.849   5.654   2.120 -0.3988 -0.1666  0.0901
 2656TIP3    H129603   2.850   5.749   2.115 -0.4820 -0.0059  2.2957
 2656TIP3    H229604   2.903   5.633   2.196  0.0385 -1.9241 -0.6481
 2657TIP3   OH229605   3.710   4.935   6.856 -0.1242  0.7686  0.2609
 2657TIP3    H129606   3.615   4.937   6.864 -0.2885 -1.1426 -0.6951
 2657TIP3    H229607   3.728   4.858   6.803  2.0450  0.4229  1.3919
 2658TIP3   OH229608   1.999   0.350   1.572  0.0735 -0.3918 -0.0139
 2658TIP3    H129609   2.066   0.298   1.617  0.5796  0.5969  0.3974
 2658TIP3    H229610   1.917   0.320   1.610  0.3879 -0.5732  0.5426
 2659TIP3   OH229611   1.681   5.345   1.012  0.4855  0.4329 -0.1135
 2659TIP3    H129612   1.614   5.304   1.066  0.8209  0.5892  0.4304
 2659TIP3    H229613   1.763   5.331   1.060  0.9086 -0.1156 -0.9672
 2660TIP3   OH229614   2.434   5.474   7.160 -0.1430 -0.3247 -0.0391
 2660TIP3    H129615   2.363   5.452   7.220  0.1149  0.2876  0.5097
 2660TIP3    H229616   2.507   5.420   7.190  0.9941  2.2268  2.3549
 2661TIP3   OH229617   6.475   1.493   1.807  0.1564  0.1568  0.3220
 2661TIP3    H129618   6.510   1.414   1.849  0.8347  0.4176  0.2509
 2661TIP3    H229619   6.523   1.500   1.724 -1.0633 -0.2646 -0.4439
 2662TIP3   OH229620   3.527   0.706   0.656  0.0370  0.3682 -0.3768
 2662TIP3    H129621   3.594   0.759   0.699 -1.8740  1.8174  1.0288
 2662TIP3    H229622   3.444   0.746   0.684 -1.4485 -1.9560 -1.1834
 2663TIP3   OH229623   1.350   1.541   2.259  0.0403  0.1472  0.2291
 2663TIP3    H129624   1.352   1.551   2.355  0.6693  1.9659  0.0690
 2663TIP3    H229625   1.308   1.621   2.228 -0.9067 -0.7895 -1.0037
 2664TIP3   OH229626   1.852   4.033   1.397  0.3285  0.5031 -0.8124
 2664TIP3    H129627   1.842   4.123   1.365 -1.1552  0.8213  0.4493
 2664TIP3    H229628   1.764   3.997   1.395 -0.1024  0.7823  3.4538
 2665TIP3   OH229629   3.033   0.109   8.514 -0.0082  0.1177 -0.1065
 2665TIP3    H129630   3.129   0.106   8.520  0.0457  1.0440 -0.3439
 2665TIP3    H229631   3.010   0.028   8.469  0.7271  0.2292 -0.7100
 2666TIP3   OH229632   5.146   1.057   8.777 -0.3123  0.1151 -0.6665
 2666TIP3    H129633   5.199   1.118   8.828  1.7071 -1.7116 -0.4353
 2666TIP3    H229634   5.095   1.008   8.842 -0.2811  0.0755 -0.6715
 2667TIP3   OH229635   6.677   2.016   6.719 -0.5640 -0.1303  0.5404
 2667TIP3    H129636   6.722   1.935   6.696  0.6383  0.6995 -0.1079
 2667TIP3    H229637   6.741   2.085   6.704 -1.7532  1.0147  0.4954
 2668TIP3   OH229638   1.210   5.622   7.082 -0.1044  0.9745  0.2709
 2668TIP3    H129639   1.177   5.591   6.998 -0.1432  1.9562 -0.0804
 2668TIP3    H229640   1.135   5.616   7.141  0.4551 -1.8037  0.8411
 2669TIP3   OH229641   3.913   0.707   7.613 -0.6994  0.1030  0.2857
 2669TIP3    H129642   3.896   0.761   7.690  0.0241  0.9236 -0.1219
 2669TIP3    H229643   3.859   0.629   7.626 -0.9729  0.4653  1.3708
 2670TIP3   OH229644   1.780   5.565   8.749  0.5672  0.4337  0.4784
 2670TIP3    H129645   1.778   5.645   8.802  0.8829  1.7529 -1.4041
 2670TIP3    H229646   1.723   5.584   8.675 -0.6753 -1.7380  0.8033
 2671TIP3   OH229647   1.103   1.535   6.993 -0.0648 -0.0161 -0.0566
 2671TIP3    H129648   1.161   1.592   6.942 -0.5696 -1.4907 -2.4405
 2671TIP3    H229649   1.038   1.594   7.031 -0.6519  1.0734 -2.5432
 2672TIP3   OH229650   2.795   0.143   7.790  0.0884  0.2196  0.4706
 2672TIP3    H129651   2.873   0.197   7.795  1.6103 -1.5101 -2.1625
 2672TIP3    H229652   2.826   0.058   7.758 -2.8304 -0.5968 -0.5746
 2673TIP3   OH229653   5.642   3.225   6.231 -0.0432  0.1258 -0.5866
 2673TIP3    H129654   5.734   3.220   6.206  0.0039  0.9407 -0.5899
 2673TIP3    H229655   5.624   3.318   6.239 -0.3934 -0.0576  1.2001
 2674TIP3   OH229656   4.749   3.669   1.610 -0.4852  0.1684 -0.0494
 2674TIP3    H129657   4.754   3.679   1.515 -0.7637 -0.0129 -0.0833
 2674TIP3    H229658   4.718   3.579   1.623 -0.4590  0.1965  0.2127
 2675TIP3   OH229659   1.161   3.547   2.262  0.0998 -0.2186  0.3644
 2675TIP3    H129660   1.092   3.493   2.302 -0.5125 -0.3391 -0.8171
 2675TIP3    H229661   1.121   3.634   2.254 -0.6206 -0.6915 -1.9550
 2676TIP3   OH229662   1.391   1.551   8.087 -0.3836  0.1418  0.3286
 2676TIP3    H129663   1.415   1.620   8.025 -1.9564 -0.0033 -0.5194
 2676TIP3    H229664   1.420   1.470   8.045 -1.5782  0.0306 -0.3396
 2677TIP3   OH229665   2.678   0.076   6.105  0.0526 -0.1615  0.4078
 2677TIP3    H129666   2.771   0.053   6.113 -0.1101 -0.9453  0.1652
 2677TIP3    H229667   2.655   0.115   6.189  1.2960  2.7146 -0.4422
 2678TIP3   OH229668   6.287   4.252   2.340  0.2001  0.8341  0.1613
 2678TIP3    H129669   6.246   4.171   2.370  1.1460  1.1447  2.5292
 2678TIP3    H229670   6.379   4.243   2.363  0.4563  2.2894 -0.1548
 2679TIP3   OH229671   3.400   3.741   7.386 -0.0274  0.3089 -0.1550
 2679TIP3    H129672   3.429   3.796   7.458 -2.1445  1.4239 -0.0770
 2679TIP3    H229673   3.432   3.654   7.407  2.7445  1.2962  0.1223
 2680TIP3   OH229674   4.189   4.082   1.523 -0.6588 -0.2461 -0.3022
 2680TIP3    H129675   4.140   4.160   1.548 -0.5735  0.2339 -1.5786
 2680TIP3    H229676   4.224   4.049   1.606 -1.1267  0.7630  0.3229
 2681TIP3   OH229677   3.798   5.301   8.749  0.2590  0.1273 -0.6256
 2681TIP3    H129678   3.864   5.291   8.681  0.4987  1.8283 -0.6885
 2681TIP3    H229679   3.833   5.369   8.806 -0.3593 -0.6208  0.6947
 2682TIP3   OH229680   0.874   4.532   6.827 -0.3892  0.3481  0.6252
 2682TIP3    H129681   0.842   4.622   6.814 -0.2895  0.0689 -2.2016
 2682TIP3    H229682   0.857   4.489   6.743  3.5491 -1.0037  0.3560
 2683TIP3   OH229683   1.006   4.309   7.881 -0.6879  0.8604  0.3297
 2683TIP3    H129684   1.065   4.365   7.933 -1.2825  0.9420  0.9413
 2683TIP3    H229685   1.038   4.220   7.896 -0.0897  0.9871 -0.1784
 2684TIP3   OH229686   2.315   3.695   0.315  0.1029 -0.9228 -0.5439
 2684TIP3    H129687   2.361   3.645   0.383  0.5980 -1.7527 -1.4733
 2684TIP3    H229688   2.308   3.784   0.352  0.6908 -1.2657  0.4325
 2685TIP3   OH229689   0.061   6.784   7.725 -0.3156 -0.1196 -0.3674
 2685TIP3    H129690   0.157   6.774   7.723 -0.4896 -3.6337  1.4786
 2685TIP3    H229691   0.047   6.864   7.775  1.6765 -0.2924  0.5882
 2686TIP3   OH229692   1.357   6.447   8.383 -0.2046 -0.0175 -0.1831
 2686TIP3    H129693   1.423   6.504   8.423 -1.5321  0.9433  0.7081
 2686TIP3    H229694   1.405   6.368   8.359  1.2293  0.5838  0.5832
 2687TIP3   OH229695   1.234   3.760   0.718 -0.4377 -0.4407 -0.6313
 2687TIP3    H129696   1.169   3.768   0.788  0.9586  0.8540  0.6030
 2687TIP3    H229697   1.252   3.666   0.713  0.0942 -0.5182  1.4617
 2688TIP3   OH229698   2.205   0.135   7.444 -0.3418 -0.2353  0.0407
 2688TIP3    H129699   2.294   0.131   7.479 -1.2629 -0.2929  2.5289
 2688TIP3    H229700   2.194   0.226   7.417  0.1664 -0.0166  0.5535
 2689TIP3   OH229701   3.715   4.639   0.711  0.0487  0.1326  0.1545
 2689TIP3    H129702   3.730   4.608   0.800 -0.7837 -0.6430  0.0351
 2689TIP3    H229703   3.773   4.584   0.657  0.4928  0.5480  0.2022
 2690TIP3   OH229704   1.889   1.151   0.320 -0.8713 -0.4162 -0.2396
 2690TIP3    H129705   1.902   1.064   0.284  2.6858 -0.2767  0.3481
 2690TIP3    H229706   1.915   1.143   0.412  0.0739  1.3317 -0.3073
 2691TIP3   OH229707   3.800   1.454   6.264  0.5509  0.6127  0.2222
 2691TIP3    H129708   3.802   1.539   6.308  1.1027  0.5324  0.3511
 2691TIP3    H229709   3.875   1.454   6.206  0.2528  0.4172 -0.1713
 2692TIP3   OH229710   3.468   6.030   2.143  0.7871  0.1728  0.4002
 2692TIP3    H129711   3.550   6.077   2.127  1.6455 -1.6101 -0.6656
 2692TIP3    H229712   3.402   6.099   2.147  1.7316  1.4414 -2.7210
 2693TIP3   OH229713   3.133   6.015   7.323 -0.3892 -0.7524 -0.2700
 2693TIP3    H129714   3.171   6.057   7.400 -0.8913  0.3495 -0.6025
 2693TIP3    H229715   3.173   6.059   7.248 -1.7477 -0.0404 -0.6245
 2694TIP3   OH229716   6.668   2.741   7.578  0.5691 -0.3057 -0.1115
 2694TIP3    H129717   6.662   2.801   7.652  0.6237  0.0409 -0.3881
 2694TIP3    H229718   6.755   2.702   7.585  0.3750 -0.6789  0.3137
 2695TIP3   OH229719   5.341   1.351   1.865 -0.3634  0.2452  0.1635
 2695TIP3    H129720   5.302   1.428   1.907 -0.4835  0.4604 -0.3397
 2695TIP3    H229721   5.289   1.338   1.786  0.2401  0.2092 -0.2354
 2696TIP3   OH229722   0.815   2.448   8.383 -0.3951  0.0796 -0.2742
 2696TIP3    H129723   0.724   2.421   8.369 -0.4788 -0.5876  1.3355
 2696TIP3    H229724   0.822   2.532   8.337 -1.6390 -0.1528 -0.9489
 2697TIP3   OH229725   2.417   6.556   8.300 -0.8475  0.0088 -0.4862
 2697TIP3    H129726   2.421   6.564   8.395 -0.1833 -0.8347 -0.4321
 2697TIP3    H229727   2.386   6.642   8.270 -0.7358  0.3948  0.4665
 2698TIP3   OH229728   6.194   3.703   1.636  0.0863  0.4611  0.6334
 2698TIP3    H129729   6.144   3.622   1.646  1.0091  0.1038  2.8328
 2698TIP3    H229730   6.132   3.765   1.598 -1.1566 -0.7725  0.5719
 2699TIP3   OH229731   6.340   3.823   7.730 -0.1964  0.3076  0.4856
 2699TIP3    H129732   6.371   3.754   7.790 -0.7491  0.2577  0.7155
 2699TIP3    H229733   6.414   3.837   7.670 -0.5649 -1.4795 -0.4584
 2700TIP3   OH229734   4.482   1.220   7.225 -0.2833 -0.1471  0.9200
 2700TIP3    H129735   4.442   1.134   7.213  4.0360 -2.0920 -2.5897
 2700TIP3    H229736   4.567   1.202   7.265  1.7726  1.9703 -2.0301
 2701TIP3   OH229737   0.311   0.669   0.754 -0.3428  0.1376 -0.1851
 2701TIP3    H129738   0.361   0.625   0.823 -1.4207 -3.3763 -1.4815
 2701TIP3    H229739   0.244   0.718   0.801  2.0667  2.2418  1.3929
 2702TIP3   OH229740   6.782   3.107   0.573  0.1899 -0.1890 -0.0624
 2702TIP3    H129741   6.815   3.197   0.574  0.9618 -0.4371 -1.2627
 2702TIP3    H229742   6.838   3.062   0.509 -2.8574 -0.4773 -2.7391
 2703TIP3   OH229743   1.280   4.721   7.989  0.2820 -0.3614  0.3957
 2703TIP3    H129744   1.299   4.654   7.923  1.5796  1.3367 -1.0441
 2703TIP3    H229745   1.318   4.801   7.954 -0.2846  0.9406  2.5585
 2704TIP3   OH229746   6.255   1.514   8.779 -0.4191 -0.0227 -0.1760
 2704TIP3    H129747   6.246   1.606   8.758  1.2702  0.4694  1.0356
 2704TIP3    H229748   6.277   1.472   8.696  1.1489  1.0677 -0.3572
 2705TIP3   OH229749   6.205   1.002   7.314  0.2177 -0.7497 -0.5579
 2705TIP3    H129750   6.173   0.925   7.267  0.0820 -0.5646 -0.7753
 2705TIP3    H229751   6.268   1.043   7.254  0.8340 -1.0851 -0.1501
 2706TIP3   OH229752   6.053   6.542   0.048 -0.2191  0.4760  0.1632
 2706TIP3    H129753   6.129   6.487   0.064 -0.1782  0.1988 -0.9109
 2706TIP3    H229754   6.027   6.574   0.135 -0.4065 -1.4309  0.8527
 2707TIP3   OH229755   0.841   3.351   1.564  0.4611 -0.4570  0.5139
 2707TIP3    H129756   0.801   3.372   1.649  0.0446  0.3597  0.1292
 2707TIP3    H229757   0.925   3.398   1.566 -0.1711  0.7528 -0.0738
 2708TIP3   OH229758   2.757   0.622   0.892  0.1863 -0.3081 -0.6127
 2708TIP3    H129759   2.742   0.689   0.825  2.4332 -0.4659 -1.3717
 2708TIP3    H229760   2.819   0.663   0.953  1.5420 -1.6183 -1.0443
 2709TIP3   OH229761   6.376   1.350   0.083 -0.1819  0.1817  0.0420
 2709TIP3    H129762   6.350   1.391   0.001 -1.6446 -0.0351  0.3750
 2709TIP3    H229763   6.467   1.324   0.069 -0.0385  1.2032 -1.0771
 2710TIP3   OH229764   3.931   0.422   1.643 -0.1800 -0.2368 -0.0090
 2710TIP3    H129765   3.889   0.468   1.715 -0.5778 -1.6480  0.7124
 2710TIP3    H229766   3.880   0.447   1.566  0.1101  1.1126  0.2235
 2711TIP3   OH229767   0.653   5.033   1.406  0.1880  0.0797 -0.3600
 2711TIP3    H129768   0.647   4.994   1.493 -1.1188 -2.1593 -1.3419
 2711TIP3    H229769   0.566   5.019   1.368  1.0206  0.0110 -2.3817
 2712TIP3   OH229770   3.816   0.299   6.334 -1.2193  0.4905 -0.0706
 2712TIP3    H129771   3.877   0.226   6.340 -1.0807  0.7196  1.7944
 2712TIP3    H229772   3.730   0.258   6.321 -1.1856 -0.0456  1.2773
 2713TIP3   OH229773   0.987   4.782   6.591  0.0494  0.3987 -0.0068
 2713TIP3    H129774   0.997   4.872   6.561  3.4105  0.5377  1.1616
 2713TIP3    H229775   0.902   4.781   6.635 -1.4782  2.1235 -2.6394
 2714TIP3   OH229776   5.554   2.946   8.383  0.1331  0.1095  0.7825
 2714TIP3    H129777   5.555   2.996   8.301  1.2328  1.0939  1.3535
 2714TIP3    H229778   5.513   2.863   8.360 -0.4486  0.7240 -0.5396
 2715TIP3   OH229779   1.119   5.201   8.524  0.2553 -0.0139  0.1752
 2715TIP3    H129780   1.201   5.231   8.485  0.9711 -1.3990  0.5587
 2715TIP3    H229781   1.067   5.169   8.449 -0.5701  2.1557 -0.2559
 2716TIP3   OH229782   6.350   4.535   8.499 -0.7561 -0.1536 -0.2335
 2716TIP3    H129783   6.295   4.561   8.425 -0.8044  0.5730  0.0519
 2716TIP3    H229784   6.409   4.609   8.512  0.0128 -0.7524 -0.2629
 2717TIP3   OH229785   1.092   5.180   8.001 -0.2980 -0.4224 -0.1868
 2717TIP3    H129786   1.097   5.269   7.966  1.2185  0.1666  1.3493
 2717TIP3    H229787   1.093   5.123   7.924 -0.7191  0.8772 -1.1799
 2718TIP3   OH229788   0.860   6.036   1.660 -0.2996 -0.2167 -0.3587
 2718TIP3    H129789   0.815   6.018   1.743  2.9552 -1.9865  1.2645
 2718TIP3    H229790   0.886   6.128   1.666  0.4982 -0.5006  0.9922
 2719TIP3   OH229791   4.295   1.134   7.505 -0.5224  0.1819 -0.1103
 2719TIP3    H129792   4.312   1.077   7.429  1.3397  2.7728 -1.8114
 2719TIP3    H229793   4.208   1.168   7.489  0.3508  1.7776 -1.9944
 2720TIP3   OH229794   0.438   5.933   6.577 -0.1884  0.2798  0.7519
 2720TIP3    H129795   0.445   5.887   6.661  0.4509  0.0938  0.5979
 2720TIP3    H229796   0.359   5.986   6.587 -0.5209 -0.2744  1.2102
 2721TIP3   OH229797   6.699   4.007   7.028 -0.0475 -0.2920 -0.1483
 2721TIP3    H129798   6.718   4.051   6.945  0.8288 -1.0438 -0.3534
 2721TIP3    H229799   6.712   4.075   7.095  1.2099 -0.2003 -0.4698
 2722TIP3   OH229800   3.005   1.016   6.553  0.4618  0.4585  0.3279
 2722TIP3    H129801   2.970   1.103   6.536 -1.4384 -0.0504  1.3283
 2722TIP3    H229802   3.100   1.029   6.557  0.1463  2.9328  2.6889
 2723TIP3   OH229803   0.785   0.526   8.559 -0.1682 -0.1542 -0.1890
 2723TIP3    H129804   0.742   0.537   8.474 -0.4390  2.0985  0.1694
 2723TIP3    H229805   0.715   0.538   8.623  0.2304 -0.7548  0.3755
 2724TIP3   OH229806   3.222   6.660   0.223  0.2031  0.5488  0.0163
 2724TIP3    H129807   3.197   6.569   0.240  2.0975 -0.2507 -1.1185
 2724TIP3    H229808   3.139   6.707   0.214 -0.9061 -0.3100  3.9481
 2725TIP3   OH229809   3.660   3.238   7.707 -0.1639  0.1303 -0.7554
 2725TIP3    H129810   3.652   3.213   7.799  0.3682  1.9596 -0.1772
 2725TIP3    H229811   3.682   3.156   7.662  0.5925 -0.6187  0.8806
 2726TIP3   OH229812   5.788   5.706   1.455  0.3156 -0.1524 -0.1674
 2726TIP3    H129813   5.798   5.612   1.440  0.2023 -0.7278  2.8746
 2726TIP3    H229814   5.867   5.732   1.503 -0.9927  0.6474  1.6369
 2727TIP3   OH229815   5.559   5.916   2.554 -0.2581  0.5387 -0.6328
 2727TIP3    H129816   5.500   5.956   2.490 -0.7056  0.4297 -0.2861
 2727TIP3    H229817   5.584   5.988   2.612  0.4637  0.7269 -1.1542
 2728TIP3   OH229818   0.415   2.578   0.646 -0.5538 -0.0920  0.0787
 2728TIP3    H129819   0.475   2.652   0.638 -1.5477  0.7149 -0.1306
 2728TIP3    H229820   0.328   2.616   0.632 -1.1469 -1.1687  0.7230
 2729TIP3   OH229821   0.386   1.534   7.298  0.3372  0.0533  0.6275
 2729TIP3    H129822   0.418   1.624   7.299 -1.3505  0.6866  0.5532
 2729TIP3    H229823   0.455   1.483   7.341  3.1473  0.6771 -2.7373
 2730TIP3   OH229824   6.719   1.941   7.441  0.2555  0.2950  0.2045
 2730TIP3    H129825   6.634   1.928   7.398 -0.4871 -0.7187  1.8972
 2730TIP3    H229826   6.782   1.901   7.381 -0.7094 -0.7480 -0.1663
 2731TIP3   OH229827   2.091   3.593   1.019 -0.0114 -0.3949 -0.2975
 2731TIP3    H129828   2.184   3.588   0.997  0.0226  0.7885 -0.4713
 2731TIP3    H229829   2.088   3.640   1.102 -0.5192  0.8518 -0.9912
 2732TIP3   OH229830   6.692   1.093   6.569  0.5188  0.0651  0.1307
 2732TIP3    H129831   6.667   1.001   6.575 -0.6763  0.4091  1.0507
 2732TIP3    H229832   6.624   1.139   6.619  1.7688  1.3252  0.7500
 2733TIP3   OH229833   3.388   0.694   0.217 -0.5751 -0.1619  0.0089
 2733TIP3    H129834   3.475   0.663   0.244  0.3384 -0.0858 -2.5450
 2733TIP3    H229835   3.391   0.789   0.230 -0.7576 -0.2998  1.1172
 2734TIP3   OH229836   1.617   5.718   6.581  0.0871 -0.1642 -0.3620
 2734TIP3    H129837   1.644   5.632   6.548 -0.9462 -0.0832 -1.4847
 2734TIP3    H229838   1.533   5.703   6.623  0.0260  0.2460 -0.3297
 2735TIP3   OH229839   3.649   3.119   0.465 -0.1440 -0.1600  0.1419
 2735TIP3    H129840   3.650   3.099   0.558 -0.7995  1.5167  0.5647
 2735TIP3    H229841   3.700   3.050   0.424 -1.1519 -1.8179  1.5542
 2736TIP3   OH229842   5.664   4.911   7.156  0.0548 -0.4335 -0.5403
 2736TIP3    H129843   5.590   4.951   7.110  0.8613 -0.4327 -1.8633
 2736TIP3    H229844   5.690   4.977   7.221 -1.1972 -0.5096  0.0781
 2737TIP3   OH229845   2.252   4.883   0.072 -0.5164 -0.1881  0.5925
 2737TIP3    H129846   2.323   4.843   0.121  0.5584  1.8917  0.8628
 2737TIP3    H229847   2.245   4.831  -0.008  1.4366 -0.3608  0.4907
 2738TIP3   OH229848   3.823   3.698   7.675 -0.7165  0.2201  0.1491
 2738TIP3    H129849   3.891   3.749   7.629 -0.4112 -1.0152 -0.8299
 2738TIP3    H229850   3.819   3.616   7.626 -0.9332 -0.8502  1.9058
 2739TIP3   OH229851   5.593   4.379   8.173 -0.2865  0.1054 -0.4221
 2739TIP3    H129852   5.612   4.314   8.241 -0.1510  0.2080 -0.3617
 2739TIP3    H229853   5.502   4.362   8.149  0.4849 -1.8738 -2.3086
 2740TIP3   OH229854   3.792   1.035   0.568 -0.1365 -0.2073 -0.1591
 2740TIP3    H129855   3.845   0.957   0.551  1.3820  0.4887  1.0521
 2740TIP3    H229856   3.850   1.093   0.618 -2.4729  0.0047  2.6259
 2741TIP3   OH229857   3.250   4.319   7.549  0.8298  0.4240 -0.1642
 2741TIP3    H129858   3.318   4.351   7.489  0.0030  0.1864 -1.2535
 2741TIP3    H229859   3.170   4.364   7.522  0.4050  0.1875  0.6626
 2742TIP3   OH229860   3.927   3.012   0.956 -0.4717 -0.3646  0.1881
 2742TIP3    H129861   3.848   3.054   0.991 -0.8214 -2.0063  1.5367
 2742TIP3    H229862   3.945   2.941   1.018  1.7262 -0.4148 -0.4437
 2743TIP3   OH229863   2.175   0.331   7.916 -0.2329  0.4386  0.3497
 2743TIP3    H129864   2.146   0.418   7.888  0.6118  0.3502 -0.8586
 2743TIP3    H229865   2.269   0.340   7.930 -0.4264  0.1628  2.0663
 2744TIP3   OH229866   2.364   5.836   1.182 -0.3595  0.2086 -0.0821
 2744TIP3    H129867   2.377   5.770   1.250  0.9746 -1.0097 -1.4318
 2744TIP3    H229868   2.325   5.911   1.228  1.8557  0.0399  2.3443
 2745TIP3   OH229869   2.501   2.975   8.192  0.0156 -0.2195  0.0463
 2745TIP3    H129870   2.478   2.999   8.102 -3.0434  1.6802  1.1591
 2745TIP3    H229871   2.421   2.992   8.242  0.9512 -3.1682  2.8509
 2746TIP3   OH229872   3.441   2.315   7.004  0.8823  0.2262 -0.2333
 2746TIP3    H129873   3.470   2.234   7.045  2.3833  0.3977 -0.9131
 2746TIP3    H229874   3.493   2.322   6.924 -0.9694  0.6217 -1.4810
 2747TIP3   OH229875   3.895   1.291   0.945  0.2261  0.3944 -0.2054
 2747TIP3    H129876   3.885   1.199   0.969 -0.5622  0.8735  1.4455
 2747TIP3    H229877   3.953   1.327   1.013  0.1053  1.2204 -0.5306
 2748TIP3   OH229878   3.779   4.243   8.371  0.8484 -0.1994  0.4408
 2748TIP3    H129879   3.754   4.257   8.280  1.1207 -1.5236  0.1467
 2748TIP3    H229880   3.851   4.304   8.386 -0.1197  1.0469  0.2156
 2749TIP3   OH229881   3.202   5.998   1.970 -0.1160  0.2893  0.0827
 2749TIP3    H129882   3.250   6.059   2.026  0.8105  0.0975 -0.4634
 2749TIP3    H229883   3.270   5.939   1.936 -0.1777  1.9078 -3.2456
 2750TIP3   OH229884   3.690   6.709   8.488  0.0592 -0.2642 -0.5232
 2750TIP3    H129885   3.767   6.764   8.477 -0.7011  1.0010  0.2490
 2750TIP3    H229886   3.645   6.715   8.404 -0.7956  1.5905  0.0035
 2751TIP3   OH229887   2.685   0.285   1.051 -0.4592 -0.1854 -0.0910
 2751TIP3    H129888   2.703   0.278   0.957 -0.0379 -0.7277  0.0269
 2751TIP3    H229889   2.765   0.321   1.088 -0.7516  0.3701  0.0211
 2752TIP3   OH229890   2.761   5.795   0.356 -0.6305  0.3321  0.3117
 2752TIP3    H129891   2.721   5.873   0.315 -2.5763  0.1559  1.7249
 2752TIP3    H229892   2.690   5.757   0.408  0.1009 -2.7158 -0.7082
 2753TIP3   OH229893   4.762   1.111   1.249  0.2439  0.1233 -0.7760
 2753TIP3    H129894   4.756   1.160   1.167 -0.2829  0.5614 -0.4784
 2753TIP3    H229895   4.679   1.063   1.254  0.5765 -0.4698 -0.8524
 2754TIP3   OH229896   6.165   5.572   8.205 -0.2780  0.0720 -0.1958
 2754TIP3    H129897   6.162   5.666   8.185  0.4820  0.2924  0.6290
 2754TIP3    H229898   6.096   5.560   8.271 -0.6741 -0.0347 -0.6306
 2755TIP3   OH229899   1.470   0.520   7.148 -0.1986  0.1008  0.3721
 2755TIP3    H129900   1.408   0.489   7.081 -0.3978  1.2633 -0.0044
 2755TIP3    H229901   1.545   0.551   7.098  0.5100 -0.8683  0.8085
 2756TIP3   OH229902   5.372   6.752   8.259 -0.3098  1.0404 -0.4572
 2756TIP3    H129903   5.309   6.765   8.329  1.6041  0.2801  1.5045
 2756TIP3    H229904   5.444   6.811   8.280  1.5156 -1.1587 -0.1777
 2757TIP3   OH229905   1.609   1.083   7.311 -0.4556 -0.3060  0.2384
 2757TIP3    H129906   1.601   1.055   7.219 -1.5573  1.6322 -0.3052
 2757TIP3    H229907   1.694   1.047   7.339 -1.6376 -4.0128 -0.3409
 2758TIP3   OH229908   0.145   5.447   2.779 -0.2372  0.1868  0.7483
 2758TIP3    H129909   0.113   5.428   2.691 -0.0829 -2.0544  1.1143
 2758TIP3    H229910   0.237   5.469   2.767  0.2237 -1.7205  0.4444
 2759TIP3   OH229911   0.561   3.029   8.719  0.2178  0.4137  0.2660
 2759TIP3    H129912   0.549   3.119   8.687  0.9024  0.5784  0.4601
 2759TIP3    H229913   0.472   2.995   8.727 -0.0513  1.0847  0.2217
 2760TIP3   OH229914   5.571   4.845   8.704  0.1874  0.2693  0.9949
 2760TIP3    H129915   5.579   4.751   8.719  0.1049  0.3679  1.6720
 2760TIP3    H229916   5.612   4.886   8.780  1.9778  0.8007 -0.1971
 2761TIP3   OH229917   1.194   4.715   0.120  0.3092  0.4440 -0.1946
 2761TIP3    H129918   1.134   4.764   0.178  0.9100 -0.4846  1.2708
 2761TIP3    H229919   1.279   4.755   0.136  0.3531  0.7306 -1.1010
 2762TIP3   OH229920   4.716   4.428   8.828 -0.1342  0.4685 -0.4397
 2762TIP3    H129921   4.803   4.390   8.835 -0.3748 -0.1726 -0.8401
 2762TIP3    H229922   4.685   4.433   8.918  0.4633  1.0660 -0.2577
 2763TIP3   OH229923   0.258   4.016   2.438 -0.5568  0.2925 -0.6095
 2763TIP3    H129924   0.273   4.082   2.505 -3.1866 -0.5555  0.9857
 2763TIP3    H229925   0.219   4.063   2.365 -0.3184  0.8196 -0.3997
 2764TIP3   OH229926   2.347   5.353   0.858 -0.8016  0.0320  0.3290
 2764TIP3    H129927   2.383   5.271   0.890 -0.9310 -1.2001 -2.3612
 2764TIP3    H229928   2.252   5.343   0.867 -0.9504 -1.0251 -1.7238
 2765TIP3   OH229929   2.652   2.195   0.019 -0.5146  0.0210 -0.1624
 2765TIP3    H129930   2.673   2.281   0.056 -0.6178  1.1720 -2.5995
 2765TIP3    H229931   2.734   2.165  -0.019 -0.9494  0.0018 -1.1023
 2766TIP3   OH229932   0.135   3.197   6.227 -0.1623 -0.2421  0.2841
 2766TIP3    H129933   0.181   3.232   6.303  0.5619 -2.4172  0.9223
 2766TIP3    H229934   0.111   3.108   6.253 -0.7796 -0.6993 -1.6975
 2767TIP3   OH229935   4.489   1.811   1.341 -0.0523 -0.4160  0.8271
 2767TIP3    H129936   4.512   1.903   1.359 -2.2660 -0.1302  2.5919
 2767TIP3    H229937   4.463   1.810   1.249  1.7513  0.2952  0.2613
 2768TIP3   OH229938   3.685   1.839   0.984 -0.2994 -0.0217 -0.4269
 2768TIP3    H129939   3.679   1.927   1.022 -0.0512  0.0657 -0.5893
 2768TIP3    H229940   3.656   1.851   0.894 -1.6166 -0.3652 -0.0718
 2769TIP3   OH229941   0.380   0.244   6.934  0.6034  0.5313  0.0842
 2769TIP3    H129942   0.393   0.165   6.986 -1.3757 -0.4052 -0.7617
 2769TIP3    H229943   0.427   0.227   6.852 -0.1519  0.0474 -0.2550
 2770TIP3   OH229944   1.845   0.557   5.980  0.0074 -0.4248  0.4129
 2770TIP3    H129945   1.800   0.564   6.064 -2.0489 -0.1103 -0.6404
 2770TIP3    H229946   1.832   0.466   5.954  1.7945 -0.8759  1.0119
 2771TIP3   OH229947   5.921   5.898   0.176 -0.3228 -0.0482 -0.0635
 2771TIP3    H129948   5.897   5.810   0.148 -0.2858 -0.3898  0.9209
 2771TIP3    H229949   5.986   5.927   0.112 -0.5491 -0.6251 -0.5604
 2772TIP3   OH229950   4.943   3.158   7.970  0.2638 -0.2868  0.4597
 2772TIP3    H129951   5.010   3.195   8.027  0.5005  1.8171 -1.0521
 2772TIP3    H229952   4.991   3.108   7.904  0.1942 -0.4274  0.5142
 2773TIP3   OH229953   5.016   1.730   1.290 -0.2986  0.0401 -0.5950
 2773TIP3    H129954   4.941   1.698   1.239 -0.8107 -1.7160  1.1523
 2773TIP3    H229955   4.990   1.818   1.317 -1.9878 -0.6956  0.3403
 2774TIP3   OH229956   4.686   2.748   0.875 -0.2620 -0.1620 -0.2936
 2774TIP3    H129957   4.729   2.692   0.939  0.7990  0.3796 -0.5176
 2774TIP3    H229958   4.595   2.716   0.872  0.3509 -1.9861 -0.5671
 2775TIP3   OH229959   1.858   1.753   1.560  0.3615 -0.2310  0.0483
 2775TIP3    H129960   1.886   1.836   1.523 -2.9942  0.6395 -0.8745
 2775TIP3    H229961   1.880   1.688   1.494  1.3804  0.1566 -0.0131
 2776TIP3   OH229962   0.193   3.132   8.290 -0.3230  0.1020  0.2029
 2776TIP3    H129963   0.278   3.105   8.326 -0.6272 -1.0182  0.1314
 2776TIP3    H229964   0.162   3.200   8.349  0.9281  1.0097 -0.1472
 2777TIP3   OH229965   0.829   5.576   6.939  0.2343  0.0093  0.3133
 2777TIP3    H129966   0.918   5.568   6.905  0.0167  1.4700 -0.6482
 2777TIP3    H229967   0.794   5.486   6.936  0.9163 -0.2288 -1.4391
 2778TIP3   OH229968   1.536   1.593   1.524  0.3151  0.1993 -0.3089
 2778TIP3    H129969   1.463   1.571   1.467  0.6493 -0.7594 -0.3922
 2778TIP3    H229970   1.598   1.521   1.512  1.8175  1.5764 -1.1471
 2779TIP3   OH229971   3.098   0.770   0.255 -0.3463  0.5161 -0.5048
 2779TIP3    H129972   3.139   0.827   0.321 -1.2906 -0.6807  1.2116
 2779TIP3    H229973   3.171   0.724   0.214  0.2117  0.3497  0.6423
 2780TIP3   OH229974   1.379   0.735   0.713 -0.0790  0.5602  0.3656
 2780TIP3    H129975   1.453   0.790   0.741 -1.1062  1.7603  0.8065
 2780TIP3    H229976   1.329   0.722   0.794 -1.1883  1.0849 -0.2281
 2781TIP3   OH229977   5.041   6.388   8.408  0.5079  0.1469 -0.3106
 2781TIP3    H129978   5.025   6.357   8.497 -0.7890 -0.2168 -0.6465
 2781TIP3    H229979   4.956   6.419   8.377  0.9099  0.1789 -1.4627
 2782TIP3   OH229980   2.151   2.202   7.456 -0.2842 -0.6894  0.1384
 2782TIP3    H129981   2.094   2.278   7.449  1.8029  1.0259  0.7150
 2782TIP3    H229982   2.239   2.238   7.467  0.9156 -3.1925 -0.3532
 2783TIP3   OH229983   0.556   5.408   7.016 -0.3715  0.2192  0.0180
 2783TIP3    H129984   0.553   5.500   6.989  1.4041  0.4480  0.4362
 2783TIP3    H229985   0.582   5.361   6.936  0.8590  0.3867  0.2920
 2784TIP3   OH229986   5.317   0.436   1.071 -0.7063 -0.1739  0.1959
 2784TIP3    H129987   5.275   0.352   1.052 -0.0779 -0.4425 -0.0398
 2784TIP3    H229988   5.410   0.416   1.076 -0.6096  0.3992  0.8076
 2785TIP3   OH229989   4.713   4.011   1.381  0.2622 -0.2407  0.7031
 2785TIP3    H129990   4.618   4.013   1.374  0.3797  0.6969 -1.6596
 2785TIP3    H229991   4.735   3.919   1.394 -0.9334 -0.5899  0.3410
 2786TIP3   OH229992   5.717   6.103   8.616 -0.1801 -0.4494  0.4078
 2786TIP3    H129993   5.675   6.145   8.541 -0.1094 -1.1225 -0.0192
 2786TIP3    H229994   5.648   6.096   8.681 -0.1317  0.5467  0.5871
 2787TIP3   OH229995   3.132   4.411   7.826 -0.1621  0.4920  0.2598
 2787TIP3    H129996   3.199   4.368   7.772 -0.0855 -2.0668  2.1996
 2787TIP3    H229997   3.180   4.476   7.877  0.6193 -0.3553  0.6300
 2788TIP3   OH229998   1.242   5.207   0.060 -0.1976  0.1497 -0.3366
 2788TIP3    H129999   1.164   5.220   0.113 -1.1068 -0.0737 -1.5691
 2788TIP3    H230000   1.267   5.116   0.076  2.0675  1.1494  2.9105
 2789TIP3   OH230001   3.877   0.994   0.202 -0.3381 -0.1436 -0.2067
 2789TIP3    H130002   3.789   0.965   0.180 -0.7303  1.1272 -0.4011
 2789TIP3    H230003   3.921   0.915   0.234 -1.3077 -0.9527 -0.7977
 2790TIP3   OH230004   1.193   4.452   8.593  0.0256  0.0941 -0.7803
 2790TIP3    H130005   1.169   4.378   8.536  2.6435 -1.8324  0.4188
 2790TIP3    H230006   1.276   4.483   8.557  0.8547 -0.0540  0.9002
 2791TIP3   OH230007   5.816   2.817   7.322 -0.3105 -0.2109  1.1027
 2791TIP3    H130008   5.890   2.758   7.333  0.7292  1.1240  1.5493
 2791TIP3    H230009   5.769   2.784   7.245 -0.5451 -2.3809  2.1237
 2792TIP3   OH230010   5.016   5.900   1.669 -0.0596  0.1993 -0.4656
 2792TIP3    H130011   5.105   5.876   1.640  0.4413  1.9466 -0.4909
 2792TIP3    H230012   5.026   5.922   1.761 -0.6690 -0.4822 -0.2296
 2793TIP3   OH230013   5.165   0.586   1.245 -0.3655 -0.2095 -0.0902
 2793TIP3    H130014   5.191   0.582   1.337  2.4972 -1.0015 -0.8424
 2793TIP3    H230015   5.235   0.541   1.198 -2.1142 -0.4968 -2.6199
 2794TIP3   OH230016   2.349   5.950   7.814 -0.0778 -0.8033  0.5131
 2794TIP3    H130017   2.300   5.873   7.785 -0.1363 -0.3696 -0.5627
 2794TIP3    H230018   2.304   6.024   7.773  1.3578 -0.3709 -0.3569
 2795TIP3   OH230019   4.819   6.682   0.374 -0.0705 -0.5118 -0.2238
 2795TIP3    H130020   4.863   6.712   0.453 -2.2621  0.0349  0.8645
 2795TIP3    H230021   4.820   6.586   0.382  1.4569 -0.5503 -0.5719
 2796TIP3   OH230022   4.397   6.327   7.752  0.2160 -0.2992  0.0366
 2796TIP3    H130023   4.399   6.392   7.681  3.0594  0.2810  0.5518
 2796TIP3    H230024   4.364   6.376   7.827  1.2769  0.2925  0.1411
 2797TIP3   OH230025   6.649   1.429   0.068  0.2281  0.3953  0.2188
 2797TIP3    H130026   6.604   1.499   0.116  0.2134  1.4459 -1.2542
 2797TIP3    H230027   6.711   1.393   0.131 -1.4119  0.1028  1.7394
 2798TIP3   OH230028   1.407   0.364   1.116 -0.2072  0.4441  0.6306
 2798TIP3    H130029   1.433   0.307   1.043  0.3323  1.1905  0.2264
 2798TIP3    H230030   1.345   0.311   1.166 -2.2963  0.6588 -1.5403
 2799TIP3   OH230031   3.355   5.273   1.062  0.2011 -0.8708  0.6308
 2799TIP3    H130032   3.315   5.233   0.985  0.6263  0.9806 -0.6168
 2799TIP3    H230033   3.446   5.245   1.060  0.5371  0.2377 -0.3318
 2800TIP3   OH230034   6.561   6.023   1.010 -0.4890  0.1915  0.2031
 2800TIP3    H130035   6.525   6.101   0.967 -2.3932 -1.1078 -0.7083
 2800TIP3    H230036   6.580   6.051   1.100  0.7099  2.1752 -0.6052
 2801TIP3   OH230037   5.453   4.799   8.000  0.2802 -0.2314 -0.3185
 2801TIP3    H130038   5.405   4.861   8.054  1.8223  1.3834 -0.7013
 2801TIP3    H230039   5.520   4.763   8.058  0.6389 -0.0380 -0.6066
 2802TIP3   OH230040   3.511   6.298   0.773  0.1362  0.2786 -0.1130
 2802TIP3    H130041   3.501   6.295   0.868 -1.8916  2.9958 -0.1360
 2802TIP3    H230042   3.571   6.370   0.756  0.3470 -0.0645 -0.9122
 2803TIP3   OH230043   1.636   2.475   1.966  0.3061  0.1172  0.2385
 2803TIP3    H130044   1.548   2.502   1.943  0.7517  0.6824 -0.8476
 2803TIP3    H230045   1.683   2.470   1.883  1.4723  0.4439  0.8505
 2804TIP3   OH230046   4.370   0.012   1.074  0.3455  0.2973  0.1109
 2804TIP3    H130047   4.290   0.019   1.126 -0.5830 -2.0526 -0.9035
 2804TIP3    H230048   4.370   0.091   1.020 -0.4635  1.0757  1.1922
 2805TIP3   OH230049   1.309   4.536   7.791 -0.2483 -0.3951 -0.0338
 2805TIP3    H130050   1.361   4.482   7.731 -0.3971 -0.7518  0.1580
 2805TIP3    H230051   1.230   4.557   7.742  1.0422  2.1081 -1.2320
 2806TIP3   OH230052   0.786   2.461   8.879 -0.3408  0.8743  0.0008
 2806TIP3    H130053   0.736   2.395   8.831 -0.7123 -2.0481  3.8978
 2806TIP3    H230054   0.870   2.419   8.896  0.7624  2.8577 -0.2701
 2807TIP3   OH230055   2.432   6.295   0.194  0.0098 -0.2951 -0.5471
 2807TIP3    H130056   2.454   6.212   0.236  0.8508  0.4589  0.5614
 2807TIP3    H230057   2.501   6.309   0.129 -0.8368 -1.0535 -1.6650
 2808TIP3   OH230058   0.701   1.087   1.359 -0.0162  0.2457 -0.1283
 2808TIP3    H130059   0.683   1.039   1.278 -0.9692 -1.5622  1.0894
 2808TIP3    H230060   0.797   1.087   1.365  0.0459 -2.3584  0.2358
 2809TIP3   OH230061   3.438   1.443   1.110  0.0511 -0.1040 -0.3424
 2809TIP3    H130062   3.401   1.523   1.146 -0.7466 -1.1799  1.3932
 2809TIP3    H230063   3.533   1.457   1.113 -0.0775  0.7150  0.1114
 2810TIP3   OH230064   2.762   3.129   0.246  0.4693 -0.3682 -0.0660
 2810TIP3    H130065   2.714   3.153   0.167  1.0713  1.4326  0.0593
 2810TIP3    H230066   2.699   3.081   0.300 -1.1393  1.6288 -0.0304
 2811TIP3   OH230067   4.359   2.129   7.747  0.8259 -0.2837 -0.5112
 2811TIP3    H130068   4.454   2.119   7.745  1.2304  2.4425  0.2839
 2811TIP3    H230069   4.325   2.045   7.716  3.4107 -2.2310  1.4019
 2812TIP3   OH230070   4.685   2.011   6.636 -0.6873  0.2467 -0.0505
 2812TIP3    H130071   4.738   1.942   6.597  0.5213  0.9395  0.3083
 2812TIP3    H230072   4.605   2.012   6.583 -1.2081 -2.1017  0.5960
 2813TIP3   OH230073   6.053   6.499   0.457  0.0587 -0.1728 -0.0404
 2813TIP3    H130074   6.040   6.552   0.536  1.5490  2.1539 -1.2714
 2813TIP3    H230075   5.970   6.452   0.446 -0.4554 -0.0212  2.4555
 2814TIP3   OH230076   6.606   0.680   0.240 -0.7281 -0.1636  0.5393
 2814TIP3    H130077   6.684   0.727   0.212 -1.2939 -0.3541 -1.5796
 2814TIP3    H230078   6.571   0.731   0.312 -0.5611  1.9609 -0.8006
 2815TIP3   OH230079   1.207   6.312   0.526 -0.4967  0.2169  0.6446
 2815TIP3    H130080   1.175   6.229   0.562  1.1734 -1.1885 -0.9095
 2815TIP3    H230081   1.145   6.334   0.456 -0.9167  0.2630  1.0298
 2816TIP3   OH230082   1.694   1.331   0.105  0.2244 -0.1929  0.0695
 2816TIP3    H130083   1.646   1.393   0.051 -2.6001 -2.6100 -0.4887
 2816TIP3    H230084   1.719   1.381   0.183 -0.8753  1.8983 -0.8367
 2817TIP3   OH230085   0.423   6.617   0.438 -0.1026 -0.0785 -0.0165
 2817TIP3    H130086   0.425   6.588   0.530 -0.3004  0.2368  0.0900
 2817TIP3    H230087   0.330   6.615   0.415  0.0721 -1.6994 -0.7132
 2818TIP3   OH230088   2.792   1.813   7.230  0.0670  0.7559  0.0157
 2818TIP3    H130089   2.812   1.726   7.264 -1.3415 -0.1746 -1.4226
 2818TIP3    H230090   2.777   1.866   7.309  1.1445 -0.2149  0.9212
 2819TIP3   OH230091   3.280   2.875   1.423  0.0146  0.1475 -0.0414
 2819TIP3    H130092   3.188   2.855   1.402  0.3956  1.0018 -2.9079
 2819TIP3    H230093   3.275   2.946   1.487 -1.2683 -1.1334  1.3858
 2820TIP3   OH230094   2.121   5.880   6.855  0.2341 -0.6213 -0.6226
 2820TIP3    H130095   2.135   5.846   6.766 -0.3228 -0.5863 -0.7286
 2820TIP3    H230096   2.050   5.826   6.890 -0.6405  0.3733 -0.7768
 2821TIP3   OH230097   4.366   5.697   7.174  0.1599 -0.1568  0.3681
 2821TIP3    H130098   4.316   5.618   7.195 -1.2494  0.6022  0.0002
 2821TIP3    H230099   4.324   5.732   7.095  1.7086  0.1638 -0.3481
 2822TIP3   OH230100   0.638   5.805   1.185 -0.1901  0.4911 -0.5582
 2822TIP3    H130101   0.625   5.858   1.264  1.3662  0.4107 -0.2098
 2822TIP3    H230102   0.549   5.783   1.156 -0.9058 -1.5401  2.5661
 2823TIP3   OH230103   1.109   4.589   8.330  0.2057 -0.0369 -0.3847
 2823TIP3    H130104   1.129   4.650   8.400 -0.9396  3.0043 -2.4736
 2823TIP3    H230105   1.018   4.562   8.346  0.1063  0.2736 -0.4175
 2824TIP3   OH230106   6.751   5.293   1.198  0.5324  0.2759  0.0672
 2824TIP3    H130107   6.759   5.389   1.193  0.2855  0.3258  0.5368
 2824TIP3    H230108   6.805   5.261   1.126 -0.6680  0.8228 -1.1128
 2825TIP3   OH230109   6.009   6.297   6.419 -0.1651 -0.2586  0.3065
 2825TIP3    H130110   6.097   6.274   6.448  0.5933  0.3620 -1.4052
 2825TIP3    H230111   6.014   6.390   6.398 -1.1958 -0.2472  0.0732
 2826TIP3   OH230112   1.298   0.901   8.405  0.1655 -0.6212 -0.0139
 2826TIP3    H130113   1.281   0.821   8.454  1.4719 -0.6415  0.4367
 2826TIP3    H230114   1.332   0.872   8.321 -0.3621 -0.5549 -0.2524
 2827TIP3   OH230115   4.114   1.799   1.199  0.0182 -0.4555 -0.6611
 2827TIP3    H130116   4.054   1.778   1.127 -0.1947  0.6852 -0.8374
 2827TIP3    H230117   4.077   1.755   1.275 -1.7118  1.1328 -0.5188
 2828TIP3   OH230118   3.317   6.431   0.665  0.0899 -0.2780 -0.0797
 2828TIP3    H130119   3.379   6.363   0.695 -1.2087 -1.1664  0.6706
 2828TIP3    H230120   3.337   6.441   0.572 -1.4535 -3.7231 -0.9348
 2829TIP3   OH230121   4.779   5.623   8.762 -0.3044  0.1525 -0.4356
 2829TIP3    H130122   4.752   5.669   8.682 -2.7392 -0.9341 -0.3252
 2829TIP3    H230123   4.697   5.604   8.807  0.9546 -0.0599  1.9084
 2830TIP3   OH230124   3.417   3.701   8.640 -0.0441  0.2628  0.5140
 2830TIP3    H130125   3.323   3.687   8.651 -0.2841  0.5594 -1.0573
 2830TIP3    H230126   3.443   3.638   8.573  0.7094  0.8100  0.2892
 2831TIP3   OH230127   3.022   3.496   8.489 -0.3407  0.5042  0.2841
 2831TIP3    H130128   3.073   3.538   8.420  0.3486  2.8310  2.0745
 2831TIP3    H230129   3.087   3.469   8.554 -1.1780  1.1227  1.4090
 2832TIP3   OH230130   1.830   0.011   6.579 -0.5351  0.0134  0.6966
 2832TIP3    H130131   1.897   0.071   6.547 -0.6891  0.6800  1.5818
 2832TIP3    H230132   1.816  -0.051   6.507  0.3408  0.4407  0.1500
 2833TIP3   OH230133   4.808   2.342   7.482 -0.5033 -0.0581 -0.0929
 2833TIP3    H130134   4.848   2.257   7.499  0.4630  0.3806 -0.1308
 2833TIP3    H230135   4.842   2.368   7.396  0.5462  1.1155  0.6424
 2834TIP3   OH230136   5.290   4.043   8.755 -0.5088  0.2806  0.3327
 2834TIP3    H130137   5.212   4.009   8.800 -1.1503  3.3703  1.7994
 2834TIP3    H230138   5.262   4.055   8.664 -1.2136 -0.1660  0.4828
 2835TIP3   OH230139   6.297   1.614   0.786 -0.3855  0.6913 -0.2391
 2835TIP3    H130140   6.372   1.620   0.846  1.0927 -1.4002 -1.7643
 2835TIP3    H230141   6.278   1.705   0.764  1.6513  1.3070  0.2863
 2836TIP3   OH230142   4.241   1.170   0.063  0.0719 -0.3619  0.2247
 2836TIP3    H130143   4.238   1.158   0.158 -0.2361  0.5841  0.3448
 2836TIP3    H230144   4.161   1.128   0.032 -0.7030  0.7771  0.5807
 2837TIP3   OH230145   1.988   3.130   1.235 -0.3067  0.3162 -0.2964
 2837TIP3    H130146   2.074   3.096   1.260 -0.7896 -1.1666 -0.5994
 2837TIP3    H230147   2.003   3.224   1.220  0.9018  0.4017  1.2471
 2838TIP3   OH230148   1.530   3.570   7.649  0.4647 -0.6822 -0.4500
 2838TIP3    H130149   1.565   3.660   7.646  1.0617 -0.9401 -1.7889
 2838TIP3    H230150   1.501   3.553   7.560 -0.7541 -1.4137  0.0680
 2839TIP3   OH230151   0.338   3.259   0.173 -0.5689  0.2685 -0.2432
 2839TIP3    H130152   0.343   3.335   0.231 -0.1740  0.4752 -0.5466
 2839TIP3    H230153   0.362   3.185   0.229 -1.0417  0.3518  0.0763
 2840TIP3   OH230154   5.563   5.048   0.274  0.2688  0.3855  0.3908
 2840TIP3    H130155   5.490   5.085   0.225  0.9127  1.6331  0.3318
 2840TIP3    H230156   5.602   4.985   0.214 -1.5562 -1.3593  0.9180
 2841TIP3   OH230157   5.222   1.475   0.725 -0.0245  0.0170  0.2682
 2841TIP3    H130158   5.291   1.494   0.789 -0.9713 -2.3039  2.1632
 2841TIP3    H230159   5.206   1.381   0.735 -2.7716  0.2739 -0.7821
 2842TIP3   OH230160   0.116   2.849   7.601 -0.3537 -0.0823  0.1599
 2842TIP3    H130161   0.165   2.881   7.524 -1.5379  0.2067 -0.5012
 2842TIP3    H230162   0.132   2.916   7.668 -1.9000  1.3941 -0.8624
 2843TIP3   OH230163   3.657   2.858   7.078 -0.3332 -0.4046 -0.0862
 2843TIP3    H130164   3.734   2.884   7.027 -0.7671 -0.9650 -1.0598
 2843TIP3    H230165   3.592   2.835   7.012 -1.2576 -0.1752  0.7316
 2844TIP3   OH230166   5.962   0.267   1.076 -0.3927  1.0953 -0.2043
 2844TIP3    H130167   6.049   0.235   1.052  0.0069  2.0909 -0.1669
 2844TIP3    H230168   5.950   0.238   1.166 -1.3786 -1.5882 -1.1069
 2845TIP3   OH230169   4.933   1.994   1.409  0.2392 -0.2848  0.4449
 2845TIP3    H130170   4.840   2.013   1.396  0.3547  1.0234  1.3781
 2845TIP3    H230171   4.952   2.023   1.498  1.7937  0.4734 -0.0930
 2846TIP3   OH230172   5.879   5.981   0.628  0.3115 -0.6336  0.1873
 2846TIP3    H130173   5.793   5.959   0.593 -0.5080  1.1265  0.9692
 2846TIP3    H230174   5.896   6.070   0.596  2.8085 -1.6582 -1.6546
 2847TIP3   OH230175   4.397   5.323   6.224 -0.3272 -0.0735 -0.2414
 2847TIP3    H130176   4.417   5.362   6.309  1.0929  0.3726 -0.7672
 2847TIP3    H230177   4.324   5.263   6.242 -1.1498  1.2314  0.9735
 2848TIP3   OH230178   5.651   1.311   2.419  0.0190  0.2147  0.2787
 2848TIP3    H130179   5.654   1.406   2.430  1.1748  0.6115 -2.6680
 2848TIP3    H230180   5.702   1.276   2.492 -0.6159  1.8072  1.5381
 2849TIP3   OH230181   1.722   2.276   0.959  0.6855 -0.3492  0.3537
 2849TIP3    H130182   1.810   2.292   0.924  1.5312  0.0544  2.4557
 2849TIP3    H230183   1.707   2.349   1.019 -0.9470 -0.6133  0.3006
 2850TIP3   OH230184   5.570   0.684   0.852  0.2732 -0.3863  0.2947
 2850TIP3    H130185   5.603   0.595   0.847  0.6367 -0.2687  0.5607
 2850TIP3    H230186   5.499   0.687   0.788  0.7443 -0.6597 -0.2526
 2851TIP3   OH230187   0.928   1.452   0.099 -0.0178 -0.2810  0.8574
 2851TIP3    H130188   0.934   1.357   0.095  1.4096 -0.1676 -1.0651
 2851TIP3    H230189   0.975   1.476   0.178  1.4574 -1.0929  0.2612
 2852TIP3   OH230190   4.047   5.197   1.497 -0.2085 -0.6103  0.9298
 2852TIP3    H130191   4.046   5.103   1.479 -2.2884 -0.7896  1.6937
 2852TIP3    H230192   4.131   5.227   1.461 -0.4911 -2.3236 -1.4673
 2853TIP3   OH230193   3.025   0.717   7.989  0.6334 -0.2012  0.1027
 2853TIP3    H130194   3.014   0.809   8.015  2.3816 -0.4011  1.7954
 2853TIP3    H230195   3.090   0.683   8.051  0.3054 -2.4879 -0.7371
 2854TIP3   OH230196   5.302   5.602   2.479 -0.5546  0.3809  0.1417
 2854TIP3    H130197   5.334   5.530   2.424  1.2637  0.8662  0.4843
 2854TIP3    H230198   5.372   5.668   2.475 -0.8213  0.8595  2.2309
 2855TIP3   OH230199   6.489   5.914   6.215  0.2055  0.2158 -0.3043
 2855TIP3    H130200   6.541   5.936   6.138 -1.5926  1.1794 -1.2938
 2855TIP3    H230201   6.456   5.997   6.248  0.6968 -0.2024  1.3832
 2856TIP3   OH230202   3.066   0.163   6.749  0.3723 -0.3403 -0.5460
 2856TIP3    H130203   3.124   0.203   6.813  0.6199 -0.0056 -0.9767
 2856TIP3    H230204   2.996   0.227   6.737  2.2162  1.3555 -3.3703
 2857TIP3   OH230205   5.604   1.684   0.850  0.4058 -0.3215  0.3244
 2857TIP3    H130206   5.588   1.761   0.794 -0.9088  0.8848  2.2370
 2857TIP3    H230207   5.666   1.631   0.800 -1.1969  0.2972 -2.5994
 2858TIP3   OH230208   0.037   0.193   7.168  0.0034  0.3806 -0.1177
 2858TIP3    H130209   0.045   0.148   7.084  1.0153  1.5295 -0.6592
 2858TIP3    H230210   0.023   0.122   7.231  0.3363 -0.5913 -1.0950
 2859TIP3   OH230211   4.933   2.106   1.669  0.3277 -0.0204 -0.0958
 2859TIP3    H130212   4.999   2.166   1.704 -1.4175  2.0859 -0.2381
 2859TIP3    H230213   4.909   2.051   1.744 -0.7271  2.0065  1.1552
 2860TIP3   OH230214   6.594   4.927   7.450 -0.0902 -0.5796  0.4041
 2860TIP3    H130215   6.569   5.020   7.455 -0.4262 -0.6672  0.3931
 2860TIP3    H230216   6.679   4.928   7.407  0.8177 -0.1324  2.0985
 2861TIP3   OH230217   3.499   3.056   1.364 -0.0062 -0.1497  0.1540
 2861TIP3    H130218   3.482   3.027   1.454  0.5388  0.2907  0.4062
 2861TIP3    H230219   3.478   2.980   1.310 -1.9445  0.0885  0.4931
 2862TIP3   OH230220   0.994   0.617   0.540 -0.3194  0.2252 -0.3721
 2862TIP3    H130221   0.931   0.663   0.596 -0.4020  1.6585 -1.5849
 2862TIP3    H230222   0.941   0.556   0.490 -0.1402 -1.7164  1.6536
 2863TIP3   OH230223   3.777   4.563   0.980 -0.0033 -0.1266  0.0645
 2863TIP3    H130224   3.844   4.550   1.047  0.6916  0.3867 -0.5123
 2863TIP3    H230225   3.773   4.479   0.934  0.2745 -0.1459  0.0741
 2864TIP3   OH230226   5.600   6.481   6.863 -0.0419  0.3898 -0.0615
 2864TIP3    H130227   5.578   6.536   6.938  2.6844  0.5780  0.7056
 2864TIP3    H230228   5.591   6.539   6.787  0.3692  1.1902  0.4827
 2865TIP3   OH230229   3.433   1.111   1.619  0.0509 -0.5773 -0.2298
 2865TIP3    H130230   3.384   1.138   1.697  0.1256  1.0051 -0.6801
 2865TIP3    H230231   3.366   1.092   1.554 -0.0242 -2.3105  0.3025
 2866TIP3   OH230232   1.253   5.498   0.277 -0.6104  0.0363 -0.2149
 2866TIP3    H130233   1.308   5.566   0.239 -1.4731  0.4073 -0.8375
 2866TIP3    H230234   1.165   5.535   0.277 -1.3505 -1.5370 -1.8287
 2867TIP3   OH230235   1.339   1.239   1.457 -0.2395 -0.4095  0.7858
 2867TIP3    H130236   1.291   1.164   1.422 -0.7780 -1.7712  4.1350
 2867TIP3    H230237   1.415   1.201   1.501  1.3867  1.3563 -0.3405
 2868TIP3   OH230238   2.805   3.288   1.589  0.8260  0.0768  0.0146
 2868TIP3    H130239   2.848   3.337   1.520 -2.2467  0.2887 -1.9792
 2868TIP3    H230240   2.789   3.201   1.550 -0.6218  0.0729  0.5370
 2869TIP3   OH230241   0.279   4.002   7.887 -0.4502  0.2501 -0.2889
 2869TIP3    H130242   0.300   4.093   7.865  2.2111 -0.4043 -0.7822
 2869TIP3    H230243   0.298   3.953   7.807  1.3492 -1.1149  0.8909
 2870TIP3   OH230244   2.470   3.373   1.427 -0.4039  0.5596 -0.3965
 2870TIP3    H130245   2.526   3.376   1.350  0.5941 -1.6696  0.1759
 2870TIP3    H230246   2.483   3.458   1.469  0.3095  1.1724 -1.7979
 2871TIP3   OH230247   2.490   1.785   8.439 -0.1715  0.0742  0.2568
 2871TIP3    H130248   2.519   1.810   8.352 -1.6431  0.8757 -0.0295
 2871TIP3    H230249   2.441   1.704   8.426  0.2804 -0.2367  0.4630
 2872TIP3   OH230250   1.112   5.362   0.662  0.1109  0.0088 -0.0160
 2872TIP3    H130251   1.108   5.458   0.668 -1.9826  0.0004 -0.2531
 2872TIP3    H230252   1.045   5.340   0.597 -0.7046 -1.7017  1.3327
 2873TIP3   OH230253   4.123   6.789   7.522  0.1774  0.1885 -0.4517
 2873TIP3    H130254   4.123   6.703   7.480 -1.3756 -0.0256 -0.0654
 2873TIP3    H230255   4.202   6.832   7.488  0.0348 -0.7154 -2.0221
 2874TIP3   OH230256   4.250   1.381   7.220  0.2967 -0.3852  0.5557
 2874TIP3    H130257   4.326   1.324   7.230  1.0744  0.6652  0.7754
 2874TIP3    H230258   4.233   1.382   7.126  1.9910  1.1498  0.2104
 2875TIP3   OH230259   1.183   3.707   1.027 -0.4740 -0.0833  0.4366
 2875TIP3    H130260   1.267   3.723   0.984 -0.0842 -1.7575  0.5338
 2875TIP3    H230261   1.135   3.789   1.016  0.6085  0.4084 -0.8963
 2876TIP3   OH230262   0.629   3.237   0.612  0.0503 -0.2745  0.2240
 2876TIP3    H130263   0.613   3.177   0.538 -0.4633  0.2624 -0.1065
 2876TIP3    H230264   0.724   3.247   0.614  0.0482 -0.0108 -0.5968
 2877TIP3   OH230265   4.265   5.162   6.539  0.4100  0.1259  0.6748
 2877TIP3    H130266   4.253   5.247   6.581  0.7121  1.1068 -1.1134
 2877TIP3    H230267   4.358   5.143   6.551  0.8448  1.1542 -0.8240
 2878TIP3   OH230268   0.810   4.575   7.076  0.0292  0.0864 -0.1368
 2878TIP3    H130269   0.851   4.513   7.136 -1.1414 -0.5216  0.0664
 2878TIP3    H230270   0.847   4.554   6.990  0.3178 -0.2805  0.0746
 2879TIP3   OH230271   5.273   5.748   7.889 -0.4702 -0.3267  0.7288
 2879TIP3    H130272   5.306   5.714   7.805  0.2343  2.3974 -0.1928
 2879TIP3    H230273   5.332   5.711   7.954 -0.3011 -1.5514 -0.0835
 2880TIP3   OH230274   2.718   0.543   1.178  0.2177 -0.3044  0.0714
 2880TIP3    H130275   2.668   0.572   1.102 -1.8184  1.2985  1.8803
 2880TIP3    H230276   2.681   0.457   1.199  1.9193 -1.5355 -1.5972
 2881TIP3   OH230277   3.696   2.317   7.245  0.4100  0.0573  0.6889
 2881TIP3    H130278   3.737   2.303   7.331  1.4610 -0.8478  0.0619
 2881TIP3    H230279   3.654   2.233   7.226  0.8674 -0.0118 -0.0356
 2882TIP3   OH230280   5.243   4.595   8.190  0.5495  0.6334 -0.4413
 2882TIP3    H130281   5.257   4.511   8.147 -0.8681  0.8550 -1.3932
 2882TIP3    H230282   5.229   4.657   8.118 -1.0076  1.1820  0.2869
 2883TIP3   OH230283   0.193   1.748   8.858 -0.4010  0.1603 -0.2585
 2883TIP3    H130284   0.176   1.700   8.777 -1.3912  1.3618 -0.7947
 2883TIP3    H230285   0.259   1.813   8.834  0.1865 -0.2430  0.2175
 2884TIP3   OH230286   3.406   5.920   7.319  0.0579  0.1304 -0.0461
 2884TIP3    H130287   3.333   5.878   7.272  0.6464 -0.4223 -0.4794
 2884TIP3    H230288   3.403   5.883   7.407 -0.0324 -0.0677 -0.1334
 2885TIP3   OH230289   3.720   2.728   7.643 -0.1494 -0.2040  0.8375
 2885TIP3    H130290   3.691   2.644   7.677  0.0042  0.5266  2.9061
 2885TIP3    H230291   3.701   2.724   7.549 -1.4926 -1.9684  1.1378
 2886TIP3   OH230292   4.782   0.711   8.401 -0.0422 -0.5962 -0.1646
 2886TIP3    H130293   4.788   0.768   8.323  0.0484  1.0395  0.9807
 2886TIP3    H230294   4.844   0.749   8.463 -0.9869 -1.1277  1.1494
 2887TIP3   OH230295   5.823   0.460   7.757 -0.6408 -0.0747 -0.0150
 2887TIP3    H130296   5.868   0.540   7.785 -0.6463 -0.7337  2.0553
 2887TIP3    H230297   5.749   0.491   7.705 -0.4351  1.2406  0.4316
 2888TIP3   OH230298   2.324   6.761   7.952 -0.4619  0.0524 -0.0571
 2888TIP3    H130299   2.340   6.724   7.865 -0.2872 -0.2509  0.1056
 2888TIP3    H230300   2.404   6.809   7.972 -1.1033  1.4831 -0.7505
 2889TIP3   OH230301   5.932   4.456   0.995 -0.0762  0.5319 -0.4856
 2889TIP3    H130302   5.910   4.542   1.031 -0.9218 -0.3089  1.0964
 2889TIP3    H230303   6.002   4.424   1.050 -0.5351 -0.2648 -0.3559
 2890TIP3   OH230304   1.650   3.858   0.504  0.0772 -0.8422  0.0809
 2890TIP3    H130305   1.660   3.921   0.575  1.4599  1.6584 -2.1815
 2890TIP3    H230306   1.560   3.869   0.475 -0.1239 -0.9924  0.6298
 2891TIP3   OH230307   6.094   5.282   1.550 -0.3983 -0.5494  0.4588
 2891TIP3    H130308   6.134   5.201   1.582 -0.4192  0.1991  2.5444
 2891TIP3    H230309   6.047   5.256   1.471  3.5526 -1.6277 -1.8038
 2892TIP3   OH230310   0.718   6.645   0.667 -0.2493 -0.9274  0.1871
 2892TIP3    H130311   0.758   6.659   0.581 -0.1362 -0.8333  0.2554
 2892TIP3    H230312   0.712   6.732   0.705  0.1676 -1.0247  0.4813
 2893TIP3   OH230313   2.675   5.184   1.855 -0.6332 -0.5935  0.2856
 2893TIP3    H130314   2.613   5.112   1.870  0.9692 -1.9806  0.5441
 2893TIP3    H230315   2.755   5.157   1.900  0.6484  0.4597 -1.2326
 2894TIP3   OH230316   1.957   6.103   6.728  0.3335  0.2414 -0.1467
 2894TIP3    H130317   2.033   6.053   6.755  0.4239  0.3341 -0.2291
 2894TIP3    H230318   1.883   6.042   6.737  0.4909 -0.0174 -0.5853
 2895TIP3   OH230319   4.022   5.627   2.212 -0.1065 -0.1310  0.4973
 2895TIP3    H130320   4.040   5.683   2.136 -0.5695 -2.5236 -1.4823
 2895TIP3    H230321   3.938   5.587   2.193  0.1960 -1.4745  1.8593
 2896TIP3   OH230322   5.763   3.986   0.659 -0.0873  0.4882 -0.0907
 2896TIP3    H130323   5.692   3.922   0.650  1.7020 -1.6691  0.3285
 2896TIP3    H230324   5.782   3.989   0.752  0.2753  1.1850 -0.1763
 2897TIP3   OH230325   3.438   1.014   7.547 -0.1846 -0.0096 -0.1807
 2897TIP3    H130326   3.480   0.928   7.558 -0.9192 -0.1566  2.0719
 2897TIP3    H230327   3.392   1.007   7.464 -1.3757 -2.3784  0.5664
 2898TIP3   OH230328   5.720   5.339   7.548 -0.0286 -0.0342  0.4181
 2898TIP3    H130329   5.774   5.371   7.620 -2.0574 -0.7321  2.3839
 2898TIP3    H230330   5.701   5.417   7.496 -0.7123  1.0886  2.2327
 2899TIP3   OH230331   0.138   4.985   0.826  0.3010  0.3470  0.4335
 2899TIP3    H130332   0.092   4.931   0.761  0.0858  1.7051 -0.5745
 2899TIP3    H230333   0.228   4.954   0.822 -0.3041 -1.8836  1.9468
 2900TIP3   OH230334   3.178   4.951   7.493  0.3285  0.6189 -1.1283
 2900TIP3    H130335   3.161   5.025   7.435 -1.7381  1.5184  0.4714
 2900TIP3    H230336   3.203   4.991   7.576  0.6679 -0.5410 -0.6434
 2901TIP3   OH230337   0.824   4.544   1.556 -0.1865 -0.0736  0.3803
 2901TIP3    H130338   0.802   4.556   1.649  0.5165 -2.1677  0.8665
 2901TIP3    H230339   0.904   4.492   1.557 -0.8415 -1.2022 -1.3969
 2902TIP3   OH230340   3.781   0.103   6.736 -0.3218  0.0108  0.0149
 2902TIP3    H130341   3.835   0.046   6.682  0.3522  0.3655  0.3039
 2902TIP3    H230342   3.807   0.083   6.826 -1.3240 -0.4657  0.2063
 2903TIP3   OH230343   2.144   5.076   6.244  0.0825  0.1631  0.4558
 2903TIP3    H130344   2.218   5.062   6.304 -0.2814  0.1417  0.9118
 2903TIP3    H230345   2.114   4.987   6.223  1.2867  0.1086 -1.1470
 2904TIP3   OH230346   3.317   1.327   7.958 -0.0650  0.6198  0.2416
 2904TIP3    H130347   3.362   1.400   8.000 -1.6317  0.6682  1.9813
 2904TIP3    H230348   3.309   1.261   8.027  0.5186 -0.8513 -1.0526
 2905TIP3   OH230349   2.576   5.942   1.437  0.0820 -0.0908  0.5781
 2905TIP3    H130350   2.557   5.851   1.414 -0.9347  0.5647 -1.4577
 2905TIP3    H230351   2.504   5.992   1.398  1.7867  1.7746 -0.3774
 2906TIP3   OH230352   1.722   3.364   7.466  0.2583 -0.4536 -0.2940
 2906TIP3    H130353   1.667   3.422   7.414  1.9980  0.1962 -1.4691
 2906TIP3    H230354   1.791   3.335   7.406  1.7363 -0.5178  1.3607
 2907TIP3   OH230355   2.564   2.531   7.375 -0.2735 -0.0988  0.2834
 2907TIP3    H130356   2.535   2.480   7.299 -0.8821 -0.3579  0.6792
 2907TIP3    H230357   2.657   2.512   7.383 -0.3350 -0.5432 -0.0379
 2908TIP3   OH230358   4.320   3.403   1.308 -0.1260  0.2170 -0.0299
 2908TIP3    H130359   4.248   3.449   1.265 -0.7879  0.6515  1.4635
 2908TIP3    H230360   4.386   3.393   1.240 -1.3361  0.3738 -1.2772
 2909TIP3   OH230361   3.120   2.366   7.649 -0.3247 -0.3449 -0.2809
 2909TIP3    H130362   3.047   2.378   7.588  0.1029  0.5173 -0.6484
 2909TIP3    H230363   3.181   2.436   7.626 -0.5150  0.5119  1.6848
 2910TIP3   OH230364   4.870   3.791   0.091  0.1033 -0.3897  0.0951
 2910TIP3    H130365   4.857   3.880   0.125  0.1094 -0.1669 -0.4794
 2910TIP3    H230366   4.782   3.758   0.075  0.0087 -1.1163  1.8643
 2911TIP3   OH230367   2.593   6.631   1.890  0.4134  0.1774 -0.0601
 2911TIP3    H130368   2.532   6.705   1.892  1.2209  0.8724 -0.0598
 2911TIP3    H230369   2.542   6.558   1.857 -0.2540  0.8973 -0.6665
 2912TIP3   OH230370   6.587   5.219   1.430  0.2343  0.5720 -0.3582
 2912TIP3    H130371   6.582   5.263   1.345  0.9756  0.5723 -0.4075
 2912TIP3    H230372   6.630   5.283   1.488 -1.3958  1.0752  0.3702
 2913TIP3   OH230373   3.243   3.673   1.938  0.0263 -0.3435  0.4954
 2913TIP3    H130374   3.315   3.613   1.952  0.6286  0.8191  3.0446
 2913TIP3    H230375   3.274   3.733   1.869  1.7807  0.4494  1.8890
 2914TIP3   OH230376   0.945   2.595   1.099  0.3323  0.4529  0.1486
 2914TIP3    H130377   1.017   2.624   1.156  0.1458  2.9029 -0.7512
 2914TIP3    H230378   0.956   2.500   1.094  1.5545  0.3817  2.6196
 2915TIP3   OH230379   2.445   2.660   8.185  0.2009  0.0841 -0.1283
 2915TIP3    H130380   2.370   2.720   8.187 -1.0824 -1.4576  1.4567
 2915TIP3    H230381   2.441   2.614   8.269  3.5796  0.6345  0.4728
 2916TIP3   OH230382   6.061   2.696   7.396  0.2198 -0.3607 -0.1358
 2916TIP3    H130383   6.087   2.754   7.467 -1.7424 -0.9006  1.0931
 2916TIP3    H230384   6.142   2.654   7.368  0.9425 -0.7585  2.3485
 2917TIP3   OH230385   5.799   0.857   0.986 -0.6150 -0.2907  0.2808
 2917TIP3    H130386   5.866   0.791   1.001 -2.0079 -1.7117  0.5049
 2917TIP3    H230387   5.741   0.818   0.920 -0.8047  1.2261 -0.4922
 2918TIP3   OH230388   2.938   2.571   7.519 -0.0417  0.3787 -0.1076
 2918TIP3    H130389   3.006   2.596   7.458  0.9379 -0.7393  0.4781
 2918TIP3    H230390   2.948   2.630   7.593  0.0886  0.4243 -0.1618
 2919TIP3   OH230391   2.035   5.142   1.638  0.4324 -0.3960  0.5776
 2919TIP3    H130392   2.101   5.148   1.707  0.7156  0.6731  0.2377
 2919TIP3    H230393   1.960   5.189   1.673  1.6532  3.0855 -0.9903
 2920TIP3   OH230394   0.760   6.408   1.522  0.6751 -0.5453  0.8074
 2920TIP3    H130395   0.774   6.406   1.617  0.6516  0.6633  0.8544
 2920TIP3    H230396   0.791   6.495   1.496 -0.9099 -0.2007 -0.0359
 2921TIP3   OH230397   3.454   4.605   7.625 -0.3602  0.3593  0.2258
 2921TIP3    H130398   3.445   4.550   7.547 -0.4983 -0.9621  1.1467
 2921TIP3    H230399   3.526   4.665   7.604 -0.9224  0.5831 -1.2192
 2922TIP3   OH230400   2.407   1.957   7.341 -0.0774  0.1220  0.4734
 2922TIP3    H130401   2.384   1.873   7.381 -0.2668 -0.6144 -1.0917
 2922TIP3    H230402   2.325   1.988   7.303 -0.4696  2.0024  2.6449
 2923TIP3   OH230403   3.508   1.960   7.526  0.2151 -0.1786 -0.4643
 2923TIP3    H130404   3.415   1.956   7.549  0.0843  3.2083  0.0780
 2923TIP3    H230405   3.512   1.923   7.438 -1.5043 -1.0383 -0.2322
 2924TIP3   OH230406   4.672   6.647   7.111  0.0380  0.1796 -0.0356
 2924TIP3    H130407   4.664   6.672   7.019  1.1059  0.7916  0.0273
 2924TIP3    H230408   4.614   6.571   7.120 -0.8547  0.7245 -0.9641
 2925TIP3   OH230409   5.525   4.937   0.754  0.5249  0.1646 -0.0947
 2925TIP3    H130410   5.523   5.032   0.747 -0.6147  0.2990  1.4949
 2925TIP3    H230411   5.618   4.914   0.747  0.8246  1.3858 -0.3243
 2926TIP3   OH230412   6.210   3.757   0.636  0.2151 -0.2981 -0.2688
 2926TIP3    H130413   6.135   3.701   0.657 -0.4246  0.5825 -0.1498
 2926TIP3    H230414   6.243   3.786   0.720  0.4276 -0.3316 -0.3391
 2927TIP3   OH230415   5.129   4.561   6.964 -0.5508  0.6128  0.1709
 2927TIP3    H130416   5.140   4.592   6.874 -1.4457 -0.5987 -0.3810
 2927TIP3    H230417   5.181   4.481   6.968  3.2314  2.8944  2.1053
 2928TIP3   OH230418   0.448   0.487   0.442 -0.2373 -0.2398  0.1379
 2928TIP3    H130419   0.495   0.415   0.399  2.7622  1.1153  0.8727
 2928TIP3    H230420   0.356   0.471   0.422  0.5352 -2.7880 -1.9441
 2929TIP3   OH230421   2.192   1.884   0.208  0.3457  0.5627 -0.1867
 2929TIP3    H130422   2.230   1.798   0.192  0.9865  0.4705  1.6085
 2929TIP3    H230423   2.250   1.945   0.162  0.9510  0.1729  0.0565
 2930TIP3   OH230424   3.446   3.996   0.416 -0.2547  0.0072 -0.2334
 2930TIP3    H130425   3.457   4.049   0.337 -0.5777 -0.2511 -0.4560
 2930TIP3    H230426   3.356   3.963   0.411  0.1781 -1.2122 -0.5149
 2931TIP3   OH230427   5.573   0.786   8.173  0.6478  0.3391 -0.4021
 2931TIP3    H130428   5.641   0.829   8.226 -0.1196 -0.4734  1.3047
 2931TIP3    H230429   5.497   0.782   8.231 -0.0526 -1.0990 -1.3811
 2932TIP3   OH230430   4.498   6.690   1.937  0.4575 -0.6316 -0.4143
 2932TIP3    H130431   4.417   6.740   1.934  1.7800  1.8458  1.1917
 2932TIP3    H230432   4.476   6.613   1.990 -1.1745 -0.7750 -1.2498
 2933TIP3   OH230433   1.504   2.696   1.130  0.6984  0.4698 -0.0707
 2933TIP3    H130434   1.498   2.689   1.225  0.7573 -1.7853 -0.1880
 2933TIP3    H230435   1.488   2.789   1.112  1.3012  1.0684  2.1642
 2934TIP3   OH230436   0.455   0.408   1.690  0.2897  0.3742  0.2508
 2934TIP3    H130437   0.544   0.399   1.723  0.9376  2.7820 -0.6148
 2934TIP3    H230438   0.405   0.441   1.765  1.0247  2.6714 -0.2085
 2935TIP3   OH230439   3.395   3.498   6.988  0.3281  0.8025 -0.5701
 2935TIP3    H130440   3.422   3.406   6.987  2.2254  1.2619  1.2658
 2935TIP3    H230441   3.299   3.495   6.992  0.3834 -1.1509  0.5389
 2936TIP3   OH230442   2.475   0.997   0.970 -0.0849 -0.2207  0.4202
 2936TIP3    H130443   2.440   0.938   1.037 -0.0603 -0.4597  0.2278
 2936TIP3    H230444   2.570   0.991   0.982 -0.0357 -0.9902 -0.2300
 2937TIP3   OH230445   5.538   3.937   8.024  0.5185  0.5112  0.5130
 2937TIP3    H130446   5.614   3.993   8.004  1.6904 -0.9523  0.6610
 2937TIP3    H230447   5.563   3.851   7.990  0.1763 -0.7037  3.1181
 2938TIP3   OH230448   6.443   6.301   1.654 -0.5486  0.4208  0.3179
 2938TIP3    H130449   6.469   6.240   1.723 -1.0132  0.1125  0.2236
 2938TIP3    H230450   6.454   6.387   1.693  2.4959  0.4435 -0.3287
 2939TIP3   OH230451   2.196   3.986   1.686 -0.4014 -0.5770  0.2977
 2939TIP3    H130452   2.133   3.991   1.757 -2.6824  1.6188 -1.6774
 2939TIP3    H230453   2.258   4.057   1.704 -0.7092 -0.3142  0.3180
 2940TIP3   OH230454   1.521   5.462   6.990  0.2087  0.4198  0.2557
 2940TIP3    H130455   1.460   5.392   7.013 -1.2509  1.7705  0.6483
 2940TIP3    H230456   1.577   5.424   6.922 -0.1327 -1.3065  0.8938
 2941TIP3   OH230457   4.844   6.793   1.125 -0.1422 -0.0631 -0.2918
 2941TIP3    H130458   4.765   6.766   1.078  0.1464 -2.1259  0.2875
 2941TIP3    H230459   4.903   6.824   1.056 -1.7202  2.4730 -0.6500
 2942TIP3   OH230460   4.368   4.499   0.785  0.0858  0.2466 -0.5026
 2942TIP3    H130461   4.383   4.405   0.771 -1.7212 -0.2288  0.4436
 2942TIP3    H230462   4.307   4.524   0.716 -0.3459  0.4373 -0.0614
 2943TIP3   OH230463   0.139   0.242   1.187  0.3280  0.0245 -0.2743
 2943TIP3    H130464   0.145   0.146   1.189 -0.9251 -0.0985  3.0508
 2943TIP3    H230465   0.065   0.259   1.128  0.1455 -1.0723 -0.3892
 2944TIP3   OH230466   1.429   0.024   2.227  0.5502  0.0953 -0.3642
 2944TIP3    H130467   1.493  -0.011   2.165  0.8252  3.2199 -1.9920
 2944TIP3    H230468   1.403   0.108   2.191 -3.7703 -0.5045  0.7653
 2945TIP3   OH230469   1.887   4.944   7.078  0.3732 -0.1315 -0.0445
 2945TIP3    H130470   1.976   4.911   7.092  0.4279  0.5762  1.5030
 2945TIP3    H230471   1.831   4.876   7.116  0.2629 -0.3220 -0.5345
 2946TIP3   OH230472   5.892   3.495   1.330  0.1628 -0.4587  0.3861
 2946TIP3    H130473   5.797   3.488   1.321  0.1475  0.3582 -0.2321
 2946TIP3    H230474   5.905   3.574   1.383  0.5107 -0.0940 -0.2331
 2947TIP3   OH230475   0.145   5.719   8.297 -0.3947  0.1810  0.1668
 2947TIP3    H130476   0.170   5.664   8.223  0.8335  1.1988 -0.2095
 2947TIP3    H230477   0.225   5.727   8.349 -1.4100 -1.1015  2.0284
 2948TIP3   OH230478   3.664   5.393   7.956  0.2261 -0.2882  0.4616
 2948TIP3    H130479   3.569   5.398   7.950  0.2716 -0.8259 -1.0917
 2948TIP3    H230480   3.681   5.320   8.015 -0.3541 -1.4723 -0.7821
 2949TIP3   OH230481   0.699   1.559   7.129 -1.0342  0.1837 -0.2047
 2949TIP3    H130482   0.671   1.590   7.043 -0.0341  1.6946 -0.0230
 2949TIP3    H230483   0.662   1.622   7.191  0.1563  0.4551  0.2652
 2950TIP3   OH230484   5.252   1.647   8.125 -0.4677 -0.3145  0.3410
 2950TIP3    H130485   5.190   1.577   8.145 -0.9586 -0.0678 -0.2813
 2950TIP3    H230486   5.250   1.654   8.030 -2.6400  2.4519  0.4459
 2951TIP3   OH230487   3.385   5.562   0.320 -0.5231 -0.0279  0.5182
 2951TIP3    H130488   3.343   5.633   0.271 -1.0103 -1.0715 -0.6391
 2951TIP3    H230489   3.313   5.521   0.369 -0.3575 -0.1230  0.6851
 2952TIP3   OH230490   2.317   5.082   0.359  0.6500  0.2234 -0.4134
 2952TIP3    H130491   2.318   5.129   0.443  1.3056 -2.0753  0.9741
 2952TIP3    H230492   2.275   4.998   0.379  0.4911 -0.2439 -2.5004
 2953TIP3   OH230493   5.976   1.499   8.016  0.1050  0.1640 -0.8796
 2953TIP3    H130494   5.937   1.455   7.941 -1.5247 -1.6724  0.9298
 2953TIP3    H230495   5.929   1.582   8.024  1.8223  1.4750 -3.1109
 2954TIP3   OH230496   5.580   4.621   7.765 -1.0009  0.6100  0.1181
 2954TIP3    H130497   5.533   4.538   7.771  0.0297 -0.0894 -0.8920
 2954TIP3    H230498   5.514   4.688   7.780 -2.3979 -0.3217 -1.5118
 2955TIP3   OH230499   2.676   4.881   0.963 -0.0195  0.3585 -0.9468
 2955TIP3    H130500   2.756   4.929   0.942  0.0725  1.1639  1.0279
 2955TIP3    H230501   2.702   4.818   1.029 -0.9545  0.5032 -0.4146
 2956TIP3   OH230502   2.695   0.629   7.744  0.1389  0.1170  0.3274
 2956TIP3    H130503   2.781   0.634   7.785  0.9803  2.9815 -1.4979
 2956TIP3    H230504   2.713   0.608   7.652 -1.0170  1.1585 -0.1699
 2957TIP3   OH230505   5.467   4.747   6.898 -0.2316  0.8100  0.3547
 2957TIP3    H130506   5.372   4.756   6.904 -0.2532  1.0957 -0.3347
 2957TIP3    H230507   5.489   4.782   6.812  0.4602  0.4049  0.3621
 2958TIP3   OH230508   4.378   1.288   0.742 -0.3378  0.6957  0.5348
 2958TIP3    H130509   4.340   1.204   0.769  1.5160 -0.3177  0.1075
 2958TIP3    H230510   4.312   1.326   0.685 -0.8738 -0.8670  0.0584
 2959TIP3   OH230511   2.752   3.552   1.749  0.2641  0.1439 -0.4416
 2959TIP3    H130512   2.812   3.614   1.791  1.1325 -0.2195 -1.1221
 2959TIP3    H230513   2.796   3.526   1.669 -1.1930  0.5104 -1.3971
 2960TIP3   OH230514   1.782   0.187   0.831 -0.1615  0.7225  0.1782
 2960TIP3    H130515   1.853   0.251   0.824  0.0051  0.7847  1.8845
 2960TIP3    H230516   1.772   0.152   0.743 -0.3380  3.1532 -0.8434
 2961TIP3   OH230517   3.201   4.676   7.285 -0.4953  0.1453  0.1480
 2961TIP3    H130518   3.283   4.679   7.235  0.5090  2.1927  1.7535
 2961TIP3    H230519   3.144   4.739   7.241 -0.6208 -0.0896 -0.0262
 2962TIP3   OH230520   5.461   4.732   0.937  0.3641  0.0065 -0.6227
 2962TIP3    H130521   5.508   4.656   0.901  0.2565  0.3431 -1.4989
 2962TIP3    H230522   5.462   4.796   0.866 -1.5418 -0.0306 -0.7328
 2963TIP3   OH230523   3.302   1.097   6.330 -0.1110 -0.7731 -0.4242
 2963TIP3    H130524   3.315   1.141   6.246  0.7018 -0.5448 -0.1795
 2963TIP3    H230525   3.246   1.022   6.309 -3.1137  1.3266 -0.5741
 2964TIP3   OH230526   3.096   2.145   1.148 -0.0856  0.9533  0.2891
 2964TIP3    H130527   3.174   2.090   1.138  0.0828  1.1087  0.7066
 2964TIP3    H230528   3.033   2.089   1.193 -1.6747 -0.5345 -3.4153
 2965TIP3   OH230529   2.858   4.783   0.415  0.4207 -0.0497 -0.4315
 2965TIP3    H130530   2.800   4.707   0.422  0.0925  0.1646 -0.8043
 2965TIP3    H230531   2.830   4.828   0.335 -1.0417  1.8257  1.0336
 2966TIP3   OH230532   5.094   6.536   7.973 -0.0435  0.0499  0.4207
 2966TIP3    H130533   5.145   6.561   7.895 -2.2296  1.2873 -0.7285
 2966TIP3    H230534   5.062   6.619   8.007 -2.3403 -0.7168  0.2827
 2967TIP3   OH230535   2.619   0.473   6.225  0.6595 -0.0022  0.0531
 2967TIP3    H130536   2.560   0.453   6.152  1.7123  0.8795 -1.0746
 2967TIP3    H230537   2.618   0.394   6.279 -1.2649 -0.1360 -0.1160
 2968TIP3   OH230538   0.764   6.780   5.980  0.2012  0.1099 -0.1339
 2968TIP3    H130539   0.818   6.728   6.039 -0.5050 -1.0586 -0.4930
 2968TIP3    H230540   0.681   6.791   6.026 -0.5392 -1.2432 -1.0595
 2969TIP3   OH230541   3.578   4.517   1.319  0.3881  0.5231 -0.5077
 2969TIP3    H130542   3.643   4.569   1.365  0.6539  0.5917 -0.9563
 2969TIP3    H230543   3.625   4.439   1.288  0.5866  1.1824 -1.9539
 2970TIP3   OH230544   4.577   1.780   0.376  0.4399 -0.0224 -0.4050
 2970TIP3    H130545   4.519   1.741   0.311  1.0498 -0.2698 -0.8076
 2970TIP3    H230546   4.526   1.850   0.416 -0.2645 -0.4899 -0.4839
 2971TIP3   OH230547   0.750   2.729   1.258  0.7035  0.7909 -0.4179
 2971TIP3    H130548   0.776   2.682   1.179 -0.4094 -0.4599 -0.0855
 2971TIP3    H230549   0.749   2.663   1.327  0.2894  1.5607  0.3469
 2972TIP3   OH230550   6.814   0.883   0.265  0.1179  0.1407  0.1440
 2972TIP3    H130551   6.822   0.970   0.225 -1.3092  0.4231  0.3951
 2972TIP3    H230552   6.789   0.901   0.356 -0.9154 -0.5233  0.0101
 2973TIP3   OH230553   6.228   4.827   7.006  0.1620 -0.4507  0.2427
 2973TIP3    H130554   6.321   4.824   7.030 -0.0921  1.8749  1.9002
 2973TIP3    H230555   6.226   4.870   6.920  0.5823  1.0810  0.9649
 2974TIP3   OH230556   4.946   2.160   1.020  0.9011  0.6841 -0.0751
 2974TIP3    H130557   5.033   2.172   1.057  1.2190  2.6229 -1.3630
 2974TIP3    H230558   4.927   2.067   1.035  2.3714  0.6263  1.8914
 2975TIP3   OH230559   5.137   2.911   1.183  0.7285  0.1721  0.5183
 2975TIP3    H130560   5.043   2.916   1.197  0.4980  0.3221 -0.9213
 2975TIP3    H230561   5.171   2.871   1.263 -0.5648 -0.0038  1.0084
 2976TIP3   OH230562   2.919   1.822   2.000 -0.0167  0.3975  0.5599
 2976TIP3    H130563   2.952   1.768   2.071  2.5840  0.5885 -0.3942
 2976TIP3    H230564   2.929   1.912   2.031  1.0687  0.4793  0.0127
 2977TIP3   OH230565   6.043   5.924   5.954  0.2067  0.6423 -0.4430
 2977TIP3    H130566   6.025   5.874   5.874  1.1151  0.6034 -0.6396
 2977TIP3    H230567   6.013   5.868   6.025  1.7492 -0.4646 -0.6216
 2978TIP3   OH230568   6.773   5.380   7.420  0.0524 -0.1528 -0.0639
 2978TIP3    H130569   6.785   5.342   7.507  1.1719  0.1537 -0.0790
 2978TIP3    H230570   6.861   5.391   7.385 -0.3982 -1.4544 -1.7741
 2979TIP3   OH230571   2.423   0.800   1.737  0.0594  0.0532  0.3699
 2979TIP3    H130572   2.495   0.801   1.800  1.5402 -0.4772 -1.2220
 2979TIP3    H230573   2.378   0.717   1.752 -0.7272  0.7135  1.8643
 2980TIP3   OH230574   1.582   4.241   6.461 -0.3337  0.8115 -1.1006
 2980TIP3    H130575   1.577   4.146   6.472 -2.0886  0.9774  0.0421
 2980TIP3    H230576   1.492   4.272   6.477  0.4640  2.7897 -0.0134
 2981TIP3   OH230577   4.202   1.118   1.181 -0.0604 -0.4725 -0.6772
 2981TIP3    H130578   4.270   1.182   1.204 -1.2361  0.9761 -1.1363
 2981TIP3    H230579   4.121   1.154   1.217 -0.8406 -1.4654 -1.3695
 2982TIP3   OH230580   0.964   1.791   7.091  0.2073  0.5711 -0.2376
 2982TIP3    H130581   0.917   1.866   7.055  0.6112  1.9851  2.0132
 2982TIP3    H230582   0.907   1.759   7.161 -0.5201 -2.0561 -1.8829
 2983TIP3   OH230583   0.391   6.587   0.721  0.2968  0.3978 -0.0795
 2983TIP3    H130584   0.461   6.522   0.728 -0.5688 -0.5805 -0.2315
 2983TIP3    H230585   0.414   6.655   0.784  0.0623 -1.1748  1.8051
 2984TIP3   OH230586   1.451   3.868   0.977  0.4254  0.2053 -0.4422
 2984TIP3    H130587   1.409   3.928   1.038 -0.8783 -0.7720 -0.3400
 2984TIP3    H230588   1.407   3.882   0.894 -0.6275 -1.3018 -0.1753
 2985TIP3   OH230589   4.199   6.542   7.345  0.0581 -0.1413 -0.1582
 2985TIP3    H130590   4.213   6.564   7.253  1.2456 -0.6063 -0.1064
 2985TIP3    H230591   4.142   6.465   7.343 -1.1654  0.7362 -0.4389
 2986TIP3   OH230592   6.654   3.827   0.040  0.1605 -0.0012  0.4089
 2986TIP3    H130593   6.606   3.903   0.007  0.6379 -0.0801 -0.5024
 2986TIP3    H230594   6.634   3.757  -0.023  1.1585 -0.1370  0.2273
 2987TIP3   OH230595   5.398   1.610   1.006  0.1230  0.3762  0.2785
 2987TIP3    H130596   5.471   1.632   0.949  1.9148 -0.9665  1.9321
 2987TIP3    H230597   5.392   1.515   1.002 -0.7707  0.3869  1.0724
 2988TIP3   OH230598   6.599   0.167   7.867  0.1874  0.0872  0.6154
 2988TIP3    H130599   6.510   0.132   7.862  0.7795 -1.5764  0.9731
 2988TIP3    H230600   6.615   0.206   7.781 -1.3371  1.6661  0.9874
 2989TIP3   OH230601   0.859   3.781   0.395  0.3913  0.0322 -0.0060
 2989TIP3    H130602   0.845   3.736   0.312  0.8824  0.6977 -0.4564
 2989TIP3    H230603   0.953   3.798   0.397  0.2045  1.0972  0.1217
 2990TIP3   OH230604   4.452   0.154   0.861  0.4720  0.7738 -0.5077
 2990TIP3    H130605   4.525   0.114   0.909  0.4170  2.1566  0.8262
 2990TIP3    H230606   4.466   0.128   0.770  1.2939 -0.9318  0.0657
 2991TIP3   OH230607   3.982   0.658   7.303 -0.5917  0.1882 -0.0074
 2991TIP3    H130608   3.985   0.634   7.396  0.5438  0.9544  0.1789
 2991TIP3    H230609   3.947   0.747   7.303  0.1445  0.4839 -0.2377
 2992TIP3   OH230610   0.102   5.845   0.524 -0.0381  0.3371 -0.0404
 2992TIP3    H130611   0.012   5.814   0.529 -0.4039  1.3636 -0.1366
 2992TIP3    H230612   0.140   5.824   0.609 -0.5601  0.4862  0.2316
 2993TIP3   OH230613   0.430   2.432   6.660 -0.5834  0.0275 -0.1119
 2993TIP3    H130614   0.432   2.376   6.582  0.6940 -2.7352  1.7171
 2993TIP3    H230615   0.340   2.426   6.691 -0.8953  0.4734 -0.9062
 2994TIP3   OH230616   2.760   4.884   0.179 -0.2081  0.1703 -0.0416
 2994TIP3    H130617   2.756   4.839   0.095 -0.7402 -0.6891  0.4309
 2994TIP3    H230618   2.673   4.923   0.189 -0.6447 -0.9599  0.7564
 2995TIP3   OH230619   0.112   5.525   1.475  0.2828  0.1895 -0.3516
 2995TIP3    H130620   0.053   5.510   1.550  1.0870  3.5153  1.1268
 2995TIP3    H230621   0.055   5.559   1.406 -0.1928 -1.2203 -0.6859
 2996TIP3   OH230622   1.544   5.955   2.028 -0.1138  0.1259  0.8536
 2996TIP3    H130623   1.455   5.970   2.062  0.8520  1.8635  2.8592
 2996TIP3    H230624   1.567   6.038   1.986  0.6303 -0.2536  0.5068
 2997TIP3   OH230625   2.141   1.607   2.162  0.4602  0.3116 -1.0144
 2997TIP3    H130626   2.217   1.625   2.106  1.8456 -0.9327  0.3706
 2997TIP3    H230627   2.163   1.646   2.246 -0.6952  0.4011 -0.7370
 2998TIP3   OH230628   4.692   0.182   6.903  0.1452  0.2794  0.3340
 2998TIP3    H130629   4.777   0.223   6.883  0.2540 -0.8898 -1.9488
 2998TIP3    H230630   4.713   0.090   6.920 -0.6127  0.0699  0.1787
 2999TIP3   OH230631   2.447   0.789   0.779 -0.9060 -0.4031 -0.7738
 2999TIP3    H130632   2.528   0.801   0.729  0.1261 -1.3144  0.6061
 2999TIP3    H230633   2.444   0.864   0.838 -0.1305 -1.2464  0.3708
 3000TIP3   OH230634   4.621   6.192   2.437 -0.5587  0.5944  0.2891
 3000TIP3    H130635   4.577   6.147   2.364 -0.9498 -2.0111  1.9891
 3000TIP3    H230636   4.550   6.236   2.483 -0.2205  2.8274 -1.1870
 3001TIP3   OH230637   4.964   4.331   7.617 -0.2237  0.0318 -0.2827
 3001TIP3    H130638   5.048   4.349   7.575  0.5185 -1.6828  0.3796
 3001TIP3    H230639   4.937   4.415   7.654  1.0420  0.6809 -0.7838
 3002TIP3   OH230640   6.257   3.895   8.819  0.4113 -0.7214  0.1162
 3002TIP3    H130641   6.163   3.880   8.812  0.3352 -0.1977 -0.0434
 3002TIP3    H230642   6.293   3.860   8.737  0.3208 -0.6693  0.0542
 3003TIP3   OH230643   6.395   3.492   8.791 -0.2109  0.0752  0.1938
 3003TIP3    H130644   6.411   3.400   8.768 -1.0976 -0.0416  0.0288
 3003TIP3    H230645   6.357   3.488   8.878  0.4951  0.3434  0.5180
 3004TIP3   OH230646   4.656   2.934   1.130 -0.7385  0.2923 -0.6823
 3004TIP3    H130647   4.672   2.942   1.036 -0.5378 -0.0325 -0.6768
 3004TIP3    H230648   4.696   2.850   1.155 -2.4978 -0.5962 -0.6744
 3005TIP3   OH230649   5.637   0.074   8.097  0.4560 -0.4359 -0.1542
 3005TIP3    H130650   5.577   0.136   8.055  0.5687 -1.0181 -1.2170
 3005TIP3    H230651   5.617   0.081   8.191  0.2831  0.9966 -0.2745
 3006TIP3   OH230652   4.432   5.723   8.039 -0.1218  0.6163 -0.4974
 3006TIP3    H130653   4.518   5.759   8.020 -0.1623  0.5652 -0.7791
 3006TIP3    H230654   4.394   5.704   7.953 -1.1276  2.3103 -0.4838
 3007TIP3   OH230655   1.193   1.188   0.664 -0.2355  0.4641 -0.6116
 3007TIP3    H130656   1.195   1.273   0.621  1.6119  1.6054  1.5718
 3007TIP3    H230657   1.280   1.151   0.650 -0.7715 -0.7769 -0.8713
 3008TIP3   OH230658   0.270   2.215   8.593 -0.0142  0.3691 -0.6837
 3008TIP3    H130659   0.181   2.236   8.623  0.4701  0.6393  0.6404
 3008TIP3    H230660   0.326   2.232   8.669  1.0973 -0.4516 -1.2790
 3009TIP3   OH230661   1.202   6.709   1.449 -0.1513 -0.0877  0.0987
 3009TIP3    H130662   1.243   6.748   1.372 -1.4548  0.8628 -0.1652
 3009TIP3    H230663   1.271   6.658   1.491  1.2200  1.2931 -0.3999
 3010TIP3   OH230664   3.566   6.394   7.368 -0.6285 -0.2404  0.0861
 3010TIP3    H130665   3.585   6.363   7.456  1.0070 -0.2245 -0.2336
 3010TIP3    H230666   3.592   6.321   7.311  1.5443  0.9498 -0.5568
 3011TIP3   OH230667   0.595   0.159   8.430 -0.0862  0.4000 -0.1549
 3011TIP3    H130668   0.619   0.126   8.344  1.6825  2.3883 -0.5090
 3011TIP3    H230669   0.674   0.146   8.484 -0.7389  0.3378  0.8118
 3012TIP3   OH230670   0.381   2.260   7.320 -0.4421  0.4858  0.1819
 3012TIP3    H130671   0.298   2.212   7.329 -1.3699  1.9374 -0.3299
 3012TIP3    H230672   0.390   2.275   7.226  1.0386 -0.6861  0.1067
 3013TIP3   OH230673   4.663   3.053   6.657 -0.3891  0.6043  0.6729
 3013TIP3    H130674   4.659   3.010   6.572  1.7234  1.3846  0.0917
 3013TIP3    H230675   4.728   3.002   6.707 -0.2346  1.2247  1.1267
 3014TIP3   OH230676   5.399   6.442   1.897 -0.3546 -0.2780 -0.0368
 3014TIP3    H130677   5.453   6.520   1.901 -0.4643 -0.2265  0.5794
 3014TIP3    H230678   5.413   6.398   1.982  0.3149 -1.3392 -0.6678
 3015TIP3   OH230679   1.892   6.174   0.473  0.0446  0.0382 -0.5464
 3015TIP3    H130680   1.979   6.166   0.436 -0.6650 -3.4439 -1.8817
 3015TIP3    H230681   1.833   6.153   0.401 -1.8886  1.2772  0.5698
 3016TIP3   OH230682   4.784   0.144   8.840 -0.0309  0.1375 -0.5307
 3016TIP3    H130683   4.754   0.109   8.923 -0.0259  2.4805  0.5153
 3016TIP3    H230684   4.829   0.225   8.862 -1.5319  1.7536 -2.9311
 3017TIP3   OH230685   0.354   1.591   8.256  0.5455  0.1149  0.1272
 3017TIP3    H130686   0.430   1.532   8.261 -0.5773 -2.0101 -3.7066
 3017TIP3    H230687   0.282   1.534   8.230 -1.1426  2.8463 -1.6508
 3018TIP3   OH230688   6.456   0.046   0.057 -0.7054 -0.5986 -0.0404
 3018TIP3    H130689   6.423   0.135   0.042 -0.1866 -0.3540  0.2110
 3018TIP3    H230690   6.493   0.049   0.145  0.9267 -0.5475 -0.6788
 3019TIP3   OH230691   5.241   5.040   6.972  0.1780 -0.2678  0.1123
 3019TIP3    H130692   5.224   4.947   6.991  0.6512 -0.6954 -1.4031
 3019TIP3    H230693   5.247   5.044   6.877  0.2123  1.3317  0.1555
 3020TIP3   OH230694   5.274   1.341   1.256 -0.1764 -0.0064  0.2140
 3020TIP3    H130695   5.251   1.271   1.317  0.9017  0.5601  1.3256
 3020TIP3    H230696   5.251   1.421   1.303 -0.9601  0.4131 -0.8546
 3021TIP3   OH230697   6.019   0.164   2.175  0.0864  0.7632 -0.3752
 3021TIP3    H130698   6.068   0.233   2.131 -1.4203  1.5462 -0.8837
 3021TIP3    H230699   6.059   0.158   2.262  1.1471  1.2827 -0.8120
 3022TIP3   OH230700   3.665   4.910   7.440 -0.5077 -0.8070 -0.1018
 3022TIP3    H130701   3.693   4.988   7.488 -1.4691 -1.2498  1.2143
 3022TIP3    H230702   3.724   4.907   7.364 -0.8140  1.5318 -0.5208
 3023TIP3   OH230703   5.855   3.324   1.699 -0.1344 -0.4566 -0.0257
 3023TIP3    H130704   5.776   3.373   1.676 -0.3153 -0.7201  0.0289
 3023TIP3    H230705   5.834   3.282   1.782 -0.0287 -0.7318 -0.1360
 3024TIP3   OH230706   1.034   3.920   0.979 -0.2016 -0.2907  0.8056
 3024TIP3    H130707   1.033   3.995   0.919 -0.5336 -1.7700 -1.1327
 3024TIP3    H230708   0.942   3.897   0.991 -0.0683 -0.9087  0.6816
 3025TIP3   OH230709   2.386   3.536   0.555 -0.4334 -0.4102  0.0608
 3025TIP3    H130710   2.293   3.543   0.579 -0.5449  0.2805 -0.5486
 3025TIP3    H230711   2.424   3.619   0.584 -0.2632 -0.1824 -0.7999
 3026TIP3   OH230712   3.602   0.737   1.782  0.4424  0.9429 -0.2308
 3026TIP3    H130713   3.690   0.722   1.817 -0.1906 -1.2783  0.5630
 3026TIP3    H230714   3.551   0.767   1.856  0.2331  0.9909 -0.3924
 3027TIP3   OH230715   4.853   3.394   7.902  0.2109 -0.3805 -0.1547
 3027TIP3    H130716   4.770   3.390   7.949 -0.6116  0.4403 -1.4794
 3027TIP3    H230717   4.894   3.308   7.916 -0.9041 -0.8301  0.4100
 3028TIP3   OH230718   2.864   3.902   7.818  0.1685  0.0237 -0.0673
 3028TIP3    H130719   2.830   3.867   7.900  1.2418  0.2556  0.4904
 3028TIP3    H230720   2.803   3.870   7.751 -0.0282 -1.1988  0.6673
 3029TIP3   OH230721   6.634   0.911   8.066 -0.2612  0.4948 -0.5100
 3029TIP3    H130722   6.588   0.929   7.984  0.3455  1.1692 -0.7143
 3029TIP3    H230723   6.618   0.818   8.083  2.6108 -0.7126 -3.3686
 3030TIP3   OH230724   1.518   6.346   8.630  0.0502 -0.0029 -0.1623
 3030TIP3    H130725   1.553   6.323   8.544 -0.3226  0.0086 -0.3184
 3030TIP3    H230726   1.438   6.294   8.638 -1.2900  1.8382 -0.8922
 3031TIP3   OH230727   5.706   2.076   0.156 -0.2816 -0.2408  0.4003
 3031TIP3    H130728   5.733   2.130   0.230 -0.1146  0.5342 -0.2139
 3031TIP3    H230729   5.646   2.012   0.193  0.2151 -0.2022  1.2969
 3032TIP3   OH230730   3.270   2.650   7.803 -0.3105  0.2024  0.3202
 3032TIP3    H130731   3.299   2.580   7.744  1.3858  0.1350  1.1704
 3032TIP3    H230732   3.240   2.604   7.881  0.3224  0.3730  0.6775
 3033TIP3   OH230733   6.280   5.927   8.523  0.3268  0.3088  0.0047
 3033TIP3    H130734   6.197   5.949   8.565 -0.4246  1.2703 -1.8829
 3033TIP3    H230735   6.269   5.836   8.494  0.1400  0.2580  0.2293
 3034TIP3   OH230736   3.880   5.286   0.543 -0.0420  0.3091  0.1758
 3034TIP3    H130737   3.803   5.339   0.561 -0.5882 -1.0892  2.2715
 3034TIP3    H230738   3.902   5.246   0.627  2.0188 -0.5987 -0.7218
 3035TIP3   OH230739   4.647   5.885   0.768 -0.4121  0.0857 -0.0409
 3035TIP3    H130740   4.614   5.927   0.689  0.7037 -1.7084 -1.5166
 3035TIP3    H230741   4.644   5.792   0.749  3.1739 -0.3000  0.6171
 3036TIP3   OH230742   1.901   4.031   8.496  0.4715 -0.0463  0.7496
 3036TIP3    H130743   1.965   4.027   8.424  0.7771  0.8194  0.9701
 3036TIP3    H230744   1.861   4.117   8.487 -0.1867 -0.3236  1.0303
 3037TIP3   OH230745   1.874   6.453   7.069 -0.2286  0.2947  0.0317
 3037TIP3    H130746   1.843   6.398   7.141 -1.1722  1.8515  0.8717
 3037TIP3    H230747   1.963   6.477   7.094 -0.4279  0.5355  0.5252
 3038TIP3   OH230748   2.466   2.624   6.543  0.0605 -0.4998 -0.6912
 3038TIP3    H130749   2.505   2.700   6.500 -0.9974  0.4713 -0.0328
 3038TIP3    H230750   2.527   2.552   6.527  2.1425  0.9245  0.3672
 3039TIP3   OH230751   4.815   4.327   2.525 -0.1253 -0.3454  0.2526
 3039TIP3    H130752   4.833   4.393   2.458 -0.2856 -0.8827 -0.3225
 3039TIP3    H230753   4.798   4.378   2.604  1.3374  0.2703  0.2095
 3040TIP3   OH230754   0.383   1.961   0.633 -0.0990  0.1376 -0.1171
 3040TIP3    H130755   0.424   1.886   0.674 -0.1245 -0.2338 -0.7469
 3040TIP3    H230756   0.443   2.034   0.648  1.2451 -0.5660 -1.7507
 3041TIP3   OH230757   2.254   6.346   6.758  1.0566 -0.1426  0.3738
 3041TIP3    H130758   2.215   6.311   6.678  3.1360 -2.8843  0.4157
 3041TIP3    H230759   2.326   6.401   6.728  1.3541 -0.5487  0.3359
 3042TIP3   OH230760   0.921   5.130   7.472  0.3138 -0.3096 -0.4177
 3042TIP3    H130761   0.957   5.171   7.550 -0.7349  1.7312 -0.9431
 3042TIP3    H230762   0.929   5.196   7.403 -1.1953 -1.0699 -1.3899
 3043TIP3   OH230763   0.892   5.329   0.504  0.3095  0.3211 -0.7613
 3043TIP3    H130764   0.856   5.416   0.523  0.2098  0.2159 -0.4653
 3043TIP3    H230765   0.815   5.274   0.491  0.3512  0.0508  0.0665
 3044TIP3   OH230766   0.753   3.469   7.194  0.2457  0.4270 -0.1362
 3044TIP3    H130767   0.845   3.446   7.199  0.3468 -0.0224 -2.6421
 3044TIP3    H230768   0.713   3.398   7.142 -1.3856  0.9215  0.3714
 3045TIP3   OH230769   4.857   0.661   0.537  0.3381 -0.3213 -0.2291
 3045TIP3    H130770   4.935   0.612   0.512  0.4927 -0.1153 -0.1524
 3045TIP3    H230771   4.888   0.725   0.601 -0.0793 -0.9959  0.6801
 3046TIP3   OH230772   2.640   1.925   1.590 -0.1112  0.2892  0.3582
 3046TIP3    H130773   2.732   1.952   1.583 -0.4967  1.3454 -1.1537
 3046TIP3    H230774   2.605   1.979   1.661  0.5267 -0.4568  1.2643
 3047TIP3   OH230775   3.686   1.328   1.956 -0.3390 -0.3432  0.1856
 3047TIP3    H130776   3.717   1.389   2.024  0.7794  0.7827 -1.2769
 3047TIP3    H230777   3.598   1.358   1.935 -0.8791 -0.9874  1.4362
 3048TIP3   OH230778   6.069   1.464   0.846 -0.2816 -0.0512 -0.1380
 3048TIP3    H130779   6.073   1.512   0.929 -1.0972 -0.7975  0.3489
 3048TIP3    H230780   6.129   1.511   0.788 -0.5801  1.1676  0.5167
 3049TIP3   OH230781   5.224   3.073   0.233 -0.4459 -0.8480 -0.2208
 3049TIP3    H130782   5.198   3.157   0.272 -3.2785 -0.2049 -2.9909
 3049TIP3    H230783   5.150   3.015   0.250 -1.2066 -0.9168 -3.1955
 3050TIP3   OH230784   6.747   0.069   8.412  0.0023 -0.2288 -0.2868
 3050TIP3    H130785   6.766  -0.016   8.451  0.9522  0.4695  0.8209
 3050TIP3    H230786   6.793   0.132   8.468  1.6732  0.8094 -2.6812
 3051TIP3   OH230787   0.745   3.526   8.367  0.5354 -0.0791 -0.4415
 3051TIP3    H130788   0.733   3.455   8.304 -0.9990 -0.1287 -0.1352
 3051TIP3    H230789   0.805   3.587   8.324 -0.0999 -0.3496 -1.7541
 3052TIP3   OH230790   2.022   3.944   8.769  0.3324 -0.4986 -0.0831
 3052TIP3    H130791   2.045   3.856   8.740 -0.1764 -0.5329 -0.3805
 3052TIP3    H230792   1.969   3.980   8.698  1.3722  0.4243 -0.4275
 3053TIP3   OH230793   6.650   5.659   0.743 -0.2036  0.0657  0.2401
 3053TIP3    H130794   6.716   5.607   0.697  0.1359  2.3271 -2.0896
 3053TIP3    H230795   6.594   5.594   0.785 -0.0388 -2.2508 -2.7291
 3054TIP3   OH230796   0.229   1.958   7.686 -0.0544  0.2170  0.7727
 3054TIP3    H130797   0.145   1.916   7.704 -0.0699  0.3388  0.9778
 3054TIP3    H230798   0.237   1.954   7.591 -0.8926  1.3710  0.6300
 3055TIP3   OH230799   1.013   3.280   1.874  0.1466 -0.3824  0.1148
 3055TIP3    H130800   0.917   3.282   1.865  0.2178 -0.1993 -0.6926
 3055TIP3    H230801   1.039   3.373   1.875  0.2337 -0.3942  1.4889
 3056TIP3   OH230802   1.167   6.421   7.653 -0.9694 -0.2323  0.1890
 3056TIP3    H130803   1.245   6.477   7.648 -0.8047 -0.5513 -1.4841
 3056TIP3    H230804   1.183   6.353   7.587 -2.6389 -0.3407 -0.1258
 3057TIP3   OH230805   1.405   5.822   0.683  0.0126 -0.0779 -0.0038
 3057TIP3    H130806   1.482   5.825   0.740  0.1785  0.2828 -0.2442
 3057TIP3    H230807   1.373   5.732   0.690  1.3809 -0.6822 -1.1329
 3058TIP3   OH230808   5.147   2.876   1.449  0.2946 -0.6794 -0.4767
 3058TIP3    H130809   5.057   2.853   1.426 -1.2761  1.2043  2.8710
 3058TIP3    H230810   5.168   2.820   1.523  0.7881  0.6951  0.4696
 3059TIP3   OH230811   5.150   3.384   8.322 -0.0024 -0.2110  0.1560
 3059TIP3    H130812   5.056   3.381   8.340 -0.3329  0.1849 -1.3563
 3059TIP3    H230813   5.160   3.339   8.239  0.9274  1.1067 -0.4746
 3060TIP3   OH230814   2.080   1.418   1.825  0.1950  0.3482 -0.2160
 3060TIP3    H130815   2.064   1.500   1.871  0.7420  0.7202 -0.6739
 3060TIP3    H230816   2.168   1.429   1.788 -0.2707  0.0930 -1.4138
 3061TIP3   OH230817   4.586   2.146   0.321 -0.0431 -0.8136  0.4432
 3061TIP3    H130818   4.538   2.098   0.389  0.3745 -0.7482  0.7927
 3061TIP3    H230819   4.590   2.235   0.354  0.4009 -0.8401  0.4653
 3062TIP3   OH230820   1.505   4.548   0.031 -0.0966 -0.1451 -0.1546
 3062TIP3    H130821   1.542   4.462   0.050 -1.1388 -0.5701  0.0161
 3062TIP3    H230822   1.473   4.542  -0.059  0.6142  0.3587 -0.4544
 3063TIP3   OH230823   6.070   0.746   8.344  1.0910  0.2404  0.2887
 3063TIP3    H130824   6.013   0.770   8.417  1.8609  0.3460  0.8802
 3063TIP3    H230825   6.131   0.820   8.336  1.1516  0.1282 -0.3159
 3064TIP3   OH230826   2.257   4.530   7.787  0.3228  0.0020 -0.1769
 3064TIP3    H130827   2.166   4.502   7.789 -0.3281  1.8550 -1.3796
 3064TIP3    H230828   2.274   4.561   7.877 -0.5898  0.6113 -0.1964
 3065TIP3   OH230829   0.559   5.667   0.479  0.1442  0.0437 -0.0702
 3065TIP3    H130830   0.502   5.644   0.553  0.5576  1.7812  0.8318
 3065TIP3    H230831   0.644   5.629   0.502  0.1996  0.3348  0.2053
 3066TIP3   OH230832   2.767   6.569   8.685  0.1837  0.6849  0.3005
 3066TIP3    H130833   2.854   6.572   8.645 -0.4873  1.2096 -1.2020
 3066TIP3    H230834   2.739   6.478   8.677 -0.2570  0.9269 -1.2075
 3067TIP3   OH230835   3.442   5.694   8.158 -0.2272  0.1054 -0.3747
 3067TIP3    H130836   3.531   5.669   8.183 -0.0520 -1.5962 -2.3909
 3067TIP3    H230837   3.402   5.726   8.239  1.4691 -1.3187  1.1046
 3068TIP3   OH230838   6.511   5.587   7.617  0.0687 -0.1021  0.0595
 3068TIP3    H130839   6.429   5.630   7.592  0.3884  0.4620 -0.0472
 3068TIP3    H230840   6.570   5.659   7.638  1.0709 -0.4127 -1.5312
 3069TIP3   OH230841   6.340   3.729   2.751 -0.1144 -0.2119  0.3994
 3069TIP3    H130842   6.393   3.803   2.722  0.2646 -0.3743  0.6829
 3069TIP3    H230843   6.403   3.661   2.775 -0.3810 -2.0363 -3.3156
 3070TIP3   OH230844   1.325   6.083   1.572  0.1028 -0.8789  0.4030
 3070TIP3    H130845   1.313   6.097   1.666 -3.7472  0.6927 -0.1658
 3070TIP3    H230846   1.280   6.000   1.554  0.1537 -0.7908 -0.1597
 3071TIP3   OH230847   3.559   1.632   7.655 -0.4609 -0.6144 -0.4590
 3071TIP3    H130848   3.603   1.547   7.655 -0.8697 -0.8372 -1.3773
 3071TIP3    H230849   3.558   1.658   7.747 -1.9502 -2.4468  0.0968
 3072TIP3   OH230850   1.947   3.551   7.340  0.9712 -0.0877 -0.1932
 3072TIP3    H130851   1.991   3.468   7.360 -0.4780 -0.9243 -0.3266
 3072TIP3    H230852   1.907   3.537   7.255 -1.5876 -0.2910  0.9568
 3073TIP3   OH230853   3.023   2.745   1.413 -0.1402 -0.0090 -0.7034
 3073TIP3    H130854   2.941   2.707   1.380 -0.7772  0.6843  0.0580
 3073TIP3    H230855   3.079   2.669   1.428 -1.1766 -0.6277  0.2077
 3074TIP3   OH230856   3.292   2.036   8.101  0.5622 -0.2190 -0.7405
 3074TIP3    H130857   3.251   1.966   8.151  0.8580  0.1748  0.0754
 3074TIP3    H230858   3.324   1.994   8.021  1.2466 -1.1336 -0.0037
 3075TIP3   OH230859   5.887   3.220   1.452  0.2060  0.4191 -0.0386
 3075TIP3    H130860   5.880   3.311   1.422 -0.6772  0.0490 -0.9976
 3075TIP3    H230861   5.869   3.225   1.546 -1.2838  1.0820 -0.3210
 3076TIP3   OH230862   4.882   6.740   8.315 -0.5366 -0.2104  0.2966
 3076TIP3    H130863   4.965   6.698   8.338 -0.2270 -0.0998 -0.6004
 3076TIP3    H230864   4.840   6.757   8.400  0.7584  0.5546  0.8200
 3077TIP3   OH230865   3.539   2.796   8.083  0.1366 -0.7445  0.2038
 3077TIP3    H130866   3.617   2.846   8.060  0.2389 -0.4158  1.1813
 3077TIP3    H230867   3.512   2.753   8.002 -0.6519  1.8123 -1.0088
 3078TIP3   OH230868   4.391   5.832   1.480 -0.1153 -0.0993  0.4008
 3078TIP3    H130869   4.337   5.766   1.522 -1.3714 -0.2578 -1.3444
 3078TIP3    H230870   4.339   5.912   1.484 -0.4173 -0.1972 -1.0973
 3079TIP3   OH230871   0.175   2.959   6.412 -0.7209  0.4137  0.2200
 3079TIP3    H130872   0.201   2.966   6.504 -2.2804 -0.6323  0.7940
 3079TIP3    H230873   0.117   2.883   6.409 -1.6034  1.0859 -1.4202
 3080TIP3   OH230874   3.818   6.307   8.006  0.0217 -0.0448  0.1167
 3080TIP3    H130875   3.866   6.389   7.994 -1.6877  1.1862  1.1446
 3080TIP3    H230876   3.798   6.304   8.099  0.2363 -1.7821  0.1462
 3081TIP3   OH230877   2.547   2.332   6.660 -0.1571  0.5596  0.2087
 3081TIP3    H130878   2.454   2.349   6.673 -0.5346 -1.3888  0.3905
 3081TIP3    H230879   2.568   2.371   6.575 -1.3315  0.4000 -0.1653
 3082TIP3   OH230880   2.423   3.301   0.416  0.6871 -0.6363 -0.1971
 3082TIP3    H130881   2.406   3.319   0.324 -2.6134 -0.0619  0.4183
 3082TIP3    H230882   2.390   3.378   0.462  1.2396 -1.3952  1.5472
 3083TIP3   OH230883   1.923   0.796   1.625 -0.0016  0.3742 -0.0263
 3083TIP3    H130884   1.849   0.808   1.566  0.6885 -0.8412 -1.1927
 3083TIP3    H230885   1.986   0.864   1.600 -0.9496  1.8393  1.4119
 3084TIP3   OH230886   5.651   1.613   8.080 -0.0673 -0.0761 -0.7550
 3084TIP3    H130887   5.598   1.557   8.136  0.0844  1.6213  1.2282
 3084TIP3    H230888   5.728   1.634   8.133  2.4266 -2.0180 -3.3336
 3085TIP3   OH230889   4.288   0.775   2.839 -0.0468  0.0736  0.3500
 3085TIP3    H130890   4.216   0.833   2.864 -0.8133 -0.9247  0.5472
 3085TIP3    H230891   4.366   0.830   2.844 -0.6880  0.9628  0.9938
 3086TIP3   OH230892   3.991   0.160   0.663 -0.9687  0.1216  0.0326
 3086TIP3    H130893   3.948   0.172   0.578 -0.3111  0.0840 -0.3083
 3086TIP3    H230894   3.947   0.084   0.701 -1.2501  0.1250 -0.2828
 3087TIP3   OH230895   4.871   0.432   6.836 -0.0645 -0.3844 -0.3616
 3087TIP3    H130896   4.782   0.448   6.867 -0.4620 -2.0535 -0.5201
 3087TIP3    H230897   4.923   0.427   6.916 -0.2188  0.0254 -0.2338
 3088TIP3   OH230898   3.137   0.445   0.323 -0.4031  0.0800  0.0049
 3088TIP3    H130899   3.071   0.512   0.304 -1.7548 -1.2212 -0.0770
 3088TIP3    H230900   3.148   0.448   0.418  0.1713  0.9631 -0.0788
 3089TIP3   OH230901   1.236   0.370   0.654 -0.2214 -0.7265  0.1244
 3089TIP3    H130902   1.246   0.439   0.720 -0.6642  0.1461 -0.7049
 3089TIP3    H230903   1.206   0.415   0.576 -0.3610 -1.8455 -0.4911
 3090TIP3   OH230904   0.086   3.888   8.246  0.1579 -0.3109 -0.5105
 3090TIP3    H130905   0.031   3.882   8.324 -1.0877  0.6272 -1.2751
 3090TIP3    H230906   0.122   3.976   8.249 -2.3124  0.8828 -2.4719
 3091TIP3   OH230907   1.562   5.456   1.786  0.3461  0.1532 -0.2835
 3091TIP3    H130908   1.581   5.548   1.804  2.0259  0.2694 -2.2457
 3091TIP3    H230909   1.469   5.454   1.762  0.7056  1.7102 -2.0572
 3092TIP3   OH230910   4.857   4.091   6.498 -0.0046  0.0900  0.1527
 3092TIP3    H130911   4.781   4.045   6.533 -1.4357  0.8328 -1.8140
 3092TIP3    H230912   4.883   4.152   6.567 -1.2650 -0.0770  0.7902
 3093TIP3   OH230913   1.908   3.008   1.458  0.3968  0.1674  0.1169
 3093TIP3    H130914   1.987   2.978   1.502  0.0658 -0.6219  0.1862
 3093TIP3    H230915   1.940   3.051   1.379  0.8267 -1.9005 -0.8921
 3094TIP3   OH230916   3.767   3.163   8.661  0.3967 -0.0121  0.9996
 3094TIP3    H130917   3.766   3.254   8.630  0.4792  0.5432  2.5095
 3094TIP3    H230918   3.776   3.110   8.582  0.1469  1.2855  0.0676
 3095TIP3   OH230919   5.937   0.568   8.172 -0.3849  0.0950 -0.0179
 3095TIP3    H130920   5.869   0.533   8.229  1.4565 -1.0226  1.5983
 3095TIP3    H230921   5.983   0.633   8.225 -1.2207  2.1496 -1.6769
 3096TIP3   OH230922   6.680   5.450   0.319  0.0091  0.5501 -0.1352
 3096TIP3    H130923   6.671   5.492   0.404 -0.1475  0.3729 -0.0630
 3096TIP3    H230924   6.702   5.521   0.259  1.1911  0.5192  0.2408
 3097TIP3   OH230925   0.661   0.497   6.004 -0.1021  0.3650 -0.7216
 3097TIP3    H130926   0.698   0.430   5.945 -0.5281 -0.1089 -0.4611
 3097TIP3    H230927   0.722   0.500   6.077  0.0717  0.4682 -0.8704
 3098TIP3   OH230928   3.693   3.392   0.521  0.3219 -0.1068 -0.1340
 3098TIP3    H130929   3.694   3.306   0.480  2.0786 -1.0331  1.6457
 3098TIP3    H230930   3.651   3.377   0.606  2.2050  0.3287  0.9385
 3099TIP3   OH230931   0.040   3.260   0.861 -0.5006 -0.1777 -0.2507
 3099TIP3    H130932  -0.031   3.322   0.842 -1.1300 -0.9706 -0.5482
 3099TIP3    H230933   0.037   3.247   0.956 -1.1719 -0.6792 -0.3311
 3100TIP3   OH230934   4.515   3.841   7.975 -0.1498 -0.1036  0.7635
 3100TIP3    H130935   4.605   3.809   7.965 -0.0625  0.6300 -1.3858
 3100TIP3    H230936   4.464   3.763   7.998  0.8384 -0.7913  0.6893
 3101TIP3   OH230937   2.689   4.197   0.274 -0.0524  0.2025 -0.4478
 3101TIP3    H130938   2.750   4.186   0.346  2.0868 -2.9029 -2.4701
 3101TIP3    H230939   2.625   4.127   0.285 -0.5595  0.6073 -0.7839
 3102TIP3   OH230940   0.514   6.384   6.208 -0.0610  0.1901  0.0327
 3102TIP3    H130941   0.470   6.358   6.127 -0.9615  0.5351  0.3913
 3102TIP3    H230942   0.447   6.432   6.257  0.8959  1.2446  0.3528
 3103TIP3   OH230943   4.857   6.617   7.717 -0.3056 -0.5436  0.2189
 3103TIP3    H130944   4.922   6.548   7.725 -1.0459 -1.2488  0.3147
 3103TIP3    H230945   4.879   6.680   7.786 -0.6693 -1.5720  1.3007
 3104TIP3   OH230946   5.934   1.665   0.423 -0.0997  0.3152  0.0794
 3104TIP3    H130947   5.880   1.662   0.345  0.4986 -0.3460 -0.3236
 3104TIP3    H230948   5.874   1.692   0.493 -0.9992 -0.5699 -0.3199
 3105TIP3   OH230949   1.033   5.698   7.508 -0.2764 -0.0563 -0.1331
 3105TIP3    H130950   1.097   5.768   7.513 -0.3212 -0.0773  1.1011
 3105TIP3    H230951   1.032   5.660   7.596  0.1204 -1.9484 -0.9055
 3106TIP3   OH230952   6.324   3.449   8.180  0.5277  0.3422  0.0339
 3106TIP3    H130953   6.282   3.428   8.263 -2.9994 -0.2510 -1.7213
 3106TIP3    H230954   6.303   3.541   8.164  0.1956  0.1367 -0.7317
 3107TIP3   OH230955   4.340   0.616   6.527  0.4784  0.7049  0.1397
 3107TIP3    H130956   4.414   0.661   6.486 -0.8050  2.5617 -0.2493
 3107TIP3    H230957   4.320   0.669   6.604 -0.5039  0.2665  0.1955
 3108TIP3   OH230958   1.156   5.216   6.064  0.2081  0.4628 -0.1396
 3108TIP3    H130959   1.207   5.279   6.013 -1.0086  0.6665 -1.1480
 3108TIP3    H230960   1.210   5.197   6.141  1.1305  1.7918 -0.4428
 3109TIP3   OH230961   4.364   1.786   7.477  0.1708  0.0969 -0.0263
 3109TIP3    H130962   4.290   1.744   7.432  0.5164 -0.3802 -0.1535
 3109TIP3    H230963   4.440   1.734   7.450  0.5870  0.7448 -0.1039
 3110TIP3   OH230964   2.857   2.764   0.775 -0.1770 -0.1923  0.4176
 3110TIP3    H130965   2.868   2.849   0.733 -3.2921  0.1737  0.0810
 3110TIP3    H230966   2.924   2.708   0.735 -0.8076  1.0295 -2.6340
 3111TIP3   OH230967   6.413   4.518   2.010 -0.2899  0.3495  0.0573
 3111TIP3    H130968   6.370   4.582   2.067  0.7290  0.5863  0.5968
 3111TIP3    H230969   6.455   4.456   2.070 -0.6834 -0.4285 -0.4589
 3112TIP3   OH230970   4.358   3.661   7.594  0.2442  0.4909 -0.6998
 3112TIP3    H130971   4.378   3.597   7.662 -1.9723 -0.1586 -0.5593
 3112TIP3    H230972   4.266   3.643   7.572  0.3820  1.8658 -2.5857
 3113TIP3   OH230973   2.052   6.679   6.687 -0.0553 -0.3498  0.1333
 3113TIP3    H130974   2.087   6.619   6.622 -0.1100 -1.0471  0.7288
 3113TIP3    H230975   2.001   6.743   6.636 -0.3932 -1.0869 -0.4764
 3114TIP3   OH230976   5.933   0.060   0.528  0.1448 -0.0716 -0.0040
 3114TIP3    H130977   5.959  -0.013   0.585  0.2878  0.0264  0.0562
 3114TIP3    H230978   5.840   0.073   0.547  0.3906  0.5139  0.8219
 3115TIP3   OH230979   6.484   3.101   2.341 -0.2271 -0.4893  0.5751
 3115TIP3    H130980   6.532   3.019   2.347  0.0091 -0.3917  0.0680
 3115TIP3    H230981   6.536   3.155   2.282 -0.3893  0.0208  0.8912
 3116TIP3   OH230982   5.581   2.707   8.588  0.2784  0.7300  0.2454
 3116TIP3    H130983   5.523   2.712   8.511  0.4535  1.4898  0.1586
 3116TIP3    H230984   5.622   2.793   8.593  2.2099 -0.0891 -0.3252
 3117TIP3   OH230985   6.355   1.652   2.102 -0.9862  0.1718  0.3048
 3117TIP3    H130986   6.435   1.613   2.137 -1.3396 -1.3345 -0.4560
 3117TIP3    H230987   6.297   1.661   2.177 -1.2279 -1.7085  0.4067
 3118TIP3   OH230988   0.583   4.211   0.915 -0.3609 -0.4456  0.0382
 3118TIP3    H130989   0.489   4.228   0.925 -0.5792 -0.5039 -1.6259
 3118TIP3    H230990   0.587   4.123   0.877  0.3528 -0.2666 -0.3048
 3119TIP3   OH230991   6.663   6.367   7.010 -0.2087  0.0969  0.2808
 3119TIP3    H130992   6.632   6.457   7.018  0.6605  0.5005 -0.5926
 3119TIP3    H230993   6.643   6.326   7.094 -2.4248  0.5194  0.0104
 3120TIP3   OH230994   6.710   3.076   1.729  0.0720  0.3970 -0.5416
 3120TIP3    H130995   6.650   3.111   1.795 -0.2333 -0.2038 -0.4946
 3120TIP3    H230996   6.755   3.004   1.773  1.6212  1.5010 -0.2325
 3121TIP3   OH230997   3.248   2.248   7.847 -0.2295  0.0113  0.3934
 3121TIP3    H130998   3.199   2.291   7.777 -0.6180  0.6404  1.0264
 3121TIP3    H230999   3.189   2.179   7.879  0.2904 -0.8307 -0.4541
 3122TIP3   OH231000   1.691   4.818   7.882  0.5418  0.1527  0.2815
 3122TIP3    H131001   1.640   4.893   7.915  0.8560  0.8199 -0.7060
 3122TIP3    H231002   1.777   4.855   7.863  1.3170 -0.9002  1.6362
 3123TIP3   OH231003   5.298   5.530   1.093  0.3129  0.1943 -0.2424
 3123TIP3    H131004   5.273   5.438   1.084 -0.6619  0.2862  1.1708
 3123TIP3    H231005   5.312   5.560   1.003  2.0022 -1.6658 -0.6862
 3124TIP3   OH231006   5.471   0.576   0.388  0.2752 -0.4960 -0.6143
 3124TIP3    H131007   5.486   0.652   0.331  0.0899  0.6717  0.8125
 3124TIP3    H231008   5.472   0.613   0.476 -0.8040 -2.0108  0.0738
 3125TIP3   OH231009   5.070   6.067   1.153 -0.1805  0.1451  0.3233
 3125TIP3    H131010   5.163   6.087   1.137  0.5423 -2.3227  1.0986
 3125TIP3    H231011   5.067   6.033   1.242 -1.6748 -0.7420 -0.0230
 3126TIP3   OH231012   4.960   3.645   0.295 -0.1780  0.2989  0.5439
 3126TIP3    H131013   4.890   3.614   0.353 -0.2300 -1.4202 -0.3946
 3126TIP3    H231014   4.914   3.685   0.221 -0.1235  0.9149  0.8321
 3127TIP3   OH231015   2.696   1.154   8.863 -0.0985  0.0517 -0.3459
 3127TIP3    H131016   2.635   1.147   8.936  1.4758 -0.8240  0.9433
 3127TIP3    H231017   2.641   1.174   8.787 -1.7651  1.1658  1.0847
 3128TIP3   OH231018   5.785   6.571   1.936  0.3427 -0.4717  0.2000
 3128TIP3    H131019   5.805   6.479   1.920 -2.5107 -1.4300  1.5448
 3128TIP3    H231020   5.756   6.575   2.027 -0.6050  1.5712 -0.1268
 3129TIP3   OH231021   0.705   1.847   1.510 -0.9780 -0.1006  0.3828
 3129TIP3    H131022   0.786   1.824   1.555  0.7474  0.2970 -2.3061
 3129TIP3    H231023   0.636   1.811   1.566  0.8214  1.4194  3.9467
 3130TIP3   OH231024   2.829   5.849   1.378  0.4068 -0.0729 -0.0935
 3130TIP3    H131025   2.823   5.768   1.328 -0.9169 -1.2314  1.8076
 3130TIP3    H231026   2.739   5.882   1.382  0.0099 -1.1609  3.1548
 3131TIP3   OH231027   0.135   1.126   0.194 -0.2306  0.1482  0.0929
 3131TIP3    H131028   0.073   1.197   0.206  0.0151  0.2816  0.5833
 3131TIP3    H231029   0.221   1.167   0.204 -0.0604 -0.0545 -0.4748
 3132TIP3   OH231030   4.540   0.685   1.067  0.3286  0.0238 -0.3987
 3132TIP3    H131031   4.628   0.675   1.032  0.8777  0.7890  0.7305
 3132TIP3    H231032   4.523   0.603   1.113  0.8842  0.2882  0.2932
 3133TIP3   OH231033   4.231   5.479   7.277  0.4551 -0.1326 -0.6895
 3133TIP3    H131034   4.147   5.448   7.243  0.3596 -3.2271  1.9504
 3133TIP3    H231035   4.210   5.520   7.360  1.4261  0.4739 -0.7259
 3134TIP3   OH231036   0.916   1.194   8.717  0.2029  0.0256  0.2375
 3134TIP3    H131037   0.910   1.153   8.803  0.2203 -1.4195 -0.4253
 3134TIP3    H231038   0.860   1.272   8.724 -3.4817 -2.3997  0.2917
 3135TIP3   OH231039   5.296   4.281   2.533  0.0595  0.4466 -0.3746
 3135TIP3    H131040   5.356   4.352   2.510  0.1343  0.6235  0.3328
 3135TIP3    H231041   5.241   4.317   2.603  1.3666 -0.7614  1.3790
 3136TIP3   OH231042   2.080   5.364   0.502  0.2903 -0.2650 -0.3783
 3136TIP3    H131043   2.065   5.458   0.492 -0.2746 -0.3198 -0.0503
 3136TIP3    H231044   2.147   5.358   0.570  0.6795 -0.0885 -0.7354
 3137TIP3   OH231045   3.265   3.602   8.334 -0.3972 -0.0333  0.3429
 3137TIP3    H131046   3.292   3.620   8.244  1.7755 -1.5352  0.6161
 3137TIP3    H231047   3.276   3.508   8.344 -0.8858  0.0619  2.1034
 3138TIP3   OH231048   3.292   0.094   7.379  0.3673 -0.5254  0.7132
 3138TIP3    H131049   3.322   0.161   7.440  0.2505  0.0160  0.1793
 3138TIP3    H231050   3.365   0.083   7.318 -0.5501  0.9661 -0.7344
 3139TIP3   OH231051   0.555   6.024   7.354 -0.1278  0.6787  0.0055
 3139TIP3    H131052   0.542   5.996   7.445  0.0027 -0.4941 -0.3145
 3139TIP3    H231053   0.522   5.950   7.302  1.2455  0.6575 -0.8809
 3140TIP3   OH231054   0.060   3.327   7.289  0.6403 -0.0042 -0.1995
 3140TIP3    H131055   0.094   3.286   7.368 -0.3873 -0.8147 -0.1700
 3140TIP3    H231056   0.137   3.338   7.233  1.2551 -0.0706  0.6168
 3141TIP3   OH231057   1.425   2.839   7.289  0.0226  0.7273 -0.4249
 3141TIP3    H131058   1.463   2.831   7.376  0.8600  1.8867 -0.6604
 3141TIP3    H231059   1.383   2.754   7.273  2.5064 -0.6316 -0.1409
 3142TIP3   OH231060   1.958   6.653   0.366  0.0620 -0.3452  0.3029
 3142TIP3    H131061   1.895   6.588   0.396  1.2621 -0.3010  3.2271
 3142TIP3    H231062   2.021   6.603   0.313 -0.6054 -0.9807  0.0998
 3143TIP3   OH231063   5.789   2.204   7.387 -0.1359 -0.1183  0.0626
 3143TIP3    H131064   5.828   2.165   7.308 -1.7906 -0.7434 -0.4817
 3143TIP3    H231065   5.798   2.298   7.373  0.4061 -0.2367 -0.4422
 3144TIP3   OH231066   0.447   4.073   6.481 -0.2246  0.2864  0.2851
 3144TIP3    H131067   0.498   4.096   6.404 -0.1365 -0.5968  0.0651
 3144TIP3    H231068   0.382   4.143   6.489  0.3035  0.8247 -0.0931
 3145TIP3   OH231069   4.845   3.937   6.892  0.7652 -0.5293  0.4241
 3145TIP3    H131070   4.933   3.899   6.891 -0.3579 -3.4209 -0.2983
 3145TIP3    H231071   4.818   3.936   6.800 -0.6630 -1.4762  0.8190
 3146TIP3   OH231072   3.213   2.281   0.168 -0.4645 -0.3832  0.0129
 3146TIP3    H131073   3.205   2.292   0.073  0.7341  2.3410  0.1507
 3146TIP3    H231074   3.268   2.204   0.178 -1.7062 -1.5240 -1.4268
 3147TIP3   OH231075   1.535   5.147   7.756 -0.2590  0.1389 -0.2193
 3147TIP3    H131076   1.499   5.059   7.765  0.1976 -0.0564 -0.2818
 3147TIP3    H231077   1.628   5.136   7.773 -0.2034  0.6137 -0.2200
 3148TIP3   OH231078   3.903   1.049   7.588  0.0098  0.3815 -0.7702
 3148TIP3    H131079   3.917   1.026   7.680 -3.4860  3.6878  0.8644
 3148TIP3    H231080   3.965   1.121   7.572  0.3940  0.0213 -0.9134
 3149TIP3   OH231081   0.529   2.202   1.423  0.3506  0.6176 -0.2219
 3149TIP3    H131082   0.534   2.125   1.479  0.8132  1.4034  0.8472
 3149TIP3    H231083   0.522   2.167   1.335  2.6442 -0.6657  0.0303
 3150TIP3   OH231084   4.638   6.544   8.493 -0.0784 -0.4962  0.0628
 3150TIP3    H131085   4.651   6.625   8.542 -1.6407 -0.4020  0.3491
 3150TIP3    H231086   4.545   6.525   8.501 -0.1038 -1.2892 -1.6062
 3151TIP3   OH231087   5.154   5.220   8.617 -0.2209  0.1340  0.3691
 3151TIP3    H131088   5.165   5.306   8.575  0.2455 -0.5864 -1.0468
 3151TIP3    H231089   5.240   5.199   8.652 -0.9308  1.4032  3.1728
 3152TIP3   OH231090   3.632   5.648   0.959 -0.0337  0.0961  0.3344
 3152TIP3    H131091   3.585   5.731   0.951  1.4966  0.8904 -0.9545
 3152TIP3    H231092   3.694   5.661   1.030  0.5415  0.2373 -0.1876
 3153TIP3   OH231093   5.808   1.369   0.243 -0.0035  0.0138  0.4656
 3153TIP3    H131094   5.776   1.280   0.253 -0.2443  0.1059  0.5200
 3153TIP3    H231095   5.731   1.419   0.216  0.3210  0.0380 -0.4534
 3154TIP3   OH231096   6.476   0.496   1.349 -0.7286  0.2836  0.2573
 3154TIP3    H131097   6.542   0.557   1.316 -0.0379  0.7560  2.3891
 3154TIP3    H231098   6.408   0.552   1.387 -1.6792 -0.2403 -0.6044
 3155TIP3   OH231099   6.753   5.534   2.271  0.2238 -0.1216 -0.1937
 3155TIP3    H131100   6.688   5.578   2.325 -0.9582 -0.7085 -1.1170
 3155TIP3    H231101   6.809   5.488   2.334 -0.2251  0.4053  0.6069
 3156TIP3   OH231102   5.265   4.955   8.095 -1.0011 -0.4990 -0.0415
 3156TIP3    H131103   5.199   4.980   8.030 -1.2885  1.0886  0.8051
 3156TIP3    H231104   5.315   5.035   8.111  0.9812 -1.5982 -0.4367
 3157TIP3   OH231105   1.609   4.834   8.490 -0.0761  0.0977  0.5944
 3157TIP3    H131106   1.673   4.906   8.485 -0.5273  0.5445  1.1136
 3157TIP3    H231107   1.631   4.788   8.570 -0.1318 -0.0102  0.5475
 3158TIP3   OH231108   3.258   1.736   0.199 -0.0362  0.1155 -0.4504
 3158TIP3    H131109   3.323   1.747   0.130  0.7735 -0.6880  0.1486
 3158TIP3    H231110   3.260   1.642   0.218 -0.0936  0.3464  0.7847
 3159TIP3   OH231111   0.423   1.253   7.681  0.8136 -0.3390  0.4894
 3159TIP3    H131112   0.500   1.217   7.725  1.1772  1.1669  1.1764
 3159TIP3    H231113   0.378   1.303   7.749  0.1849  0.2244 -0.3174
 3160TIP3   OH231114   6.129   1.173   8.871  0.4787 -0.0478  0.6074
 3160TIP3    H131115   6.099   1.218   8.951 -1.1936  0.5231 -0.2947
 3160TIP3    H231116   6.220   1.200   8.862  0.8958 -0.5885  2.6199
 3161TIP3   OH231117   5.609   3.446   1.699 -0.0173 -0.1161  0.3347
 3161TIP3    H131118   5.578   3.428   1.610 -0.0909 -0.9303  0.5174
 3161TIP3    H231119   5.533   3.482   1.744 -1.2413 -3.4465  1.1994
 3162TIP3   OH231120   6.199   2.803   0.116 -0.2825  0.6274  0.2760
 3162TIP3    H131121   6.137   2.816   0.187 -0.5611  1.3723 -0.1011
 3162TIP3    H231122   6.221   2.891   0.086 -1.5990  0.3299 -1.7891
 3163TIP3   OH231123   3.260   5.690   0.814 -0.0918  0.1909 -0.8961
 3163TIP3    H131124   3.290   5.651   0.732  1.5855  0.1065 -0.2653
 3163TIP3    H231125   3.224   5.616   0.864 -1.9304  0.3710 -1.8454
 3164TIP3   OH231126   2.577   1.902   8.197  0.1886  0.4145  0.6460
 3164TIP3    H131127   2.639   1.886   8.126 -1.3908 -0.1384 -0.6473
 3164TIP3    H231128   2.548   1.992   8.185 -0.2704  0.2397  0.4369
 3165TIP3   OH231129   5.187   2.457   0.807 -0.3719  0.2087  0.1109
 3165TIP3    H131130   5.204   2.455   0.713  0.3740  0.2312  0.2465
 3165TIP3    H231131   5.257   2.405   0.846 -1.5724 -1.1697  0.5309
 3166TIP3   OH231132   2.596   6.278   1.402  0.3873 -0.0138  0.2980
 3166TIP3    H131133   2.620   6.368   1.379 -1.6725  0.4963 -0.0093
 3166TIP3    H231134   2.504   6.283   1.426 -0.3210 -2.3619 -1.5954
 3167TIP3   OH231135   5.341   6.800   7.990  0.0801 -0.8638 -0.4850
 3167TIP3    H131136   5.332   6.785   8.085  2.1144 -0.3048 -0.1653
 3167TIP3    H231137   5.251   6.795   7.957 -1.0547  1.4666  1.8548
 3168TIP3   OH231138   2.286   4.098   0.804 -0.2162  0.1989  0.3922
 3168TIP3    H131139   2.293   4.003   0.816 -2.1516 -0.2157 -1.3329
 3168TIP3    H231140   2.349   4.118   0.735  0.3643  0.2450  0.9195
 3169TIP3   OH231141   1.638   0.137   8.489 -0.2424  0.3831 -0.3725
 3169TIP3    H131142   1.651   0.064   8.550  1.0623  1.5581  0.8288
 3169TIP3    H231143   1.543   0.149   8.486 -0.3457  0.7224  2.0334
 3170TIP3   OH231144   5.929   4.403   7.155  0.0290  0.2791  0.6967
 3170TIP3    H131145   5.874   4.418   7.078  2.2252 -1.2549 -1.3019
 3170TIP3    H231146   6.006   4.458   7.141  0.6173 -0.2701  1.6307
 3171TIP3   OH231147   2.673   4.064   7.161  0.3716 -0.4159 -1.1868
 3171TIP3    H131148   2.734   4.010   7.111  0.7648  0.6205 -1.8662
 3171TIP3    H231149   2.717   4.081   7.244 -0.1780 -1.9418 -0.5552
 3172TIP3   OH231150   2.385   3.590   0.983  0.0674  0.2815 -0.4379
 3172TIP3    H131151   2.454   3.525   0.973 -0.9027 -0.7732 -0.5531
 3172TIP3    H231152   2.402   3.631   1.067  1.5197  0.8946 -1.0098
 3173TIP3   OH231153   4.678   5.314   0.069 -0.0160  0.1105 -0.2023
 3173TIP3    H131154   4.726   5.379   0.121 -1.8106  0.7231  0.7861
 3173TIP3    H231155   4.646   5.251   0.134 -2.1045  0.7549 -0.5312
 3174TIP3   OH231156   0.816   5.261   7.900  0.0830  0.7064  0.2268
 3174TIP3    H131157   0.880   5.242   7.969 -0.3269 -0.5744  0.2942
 3174TIP3    H231158   0.830   5.353   7.878 -0.2386  1.3416  2.4847
 3175TIP3   OH231159   2.223   5.445   1.692  0.3288  0.3998 -0.0181
 3175TIP3    H131160   2.302   5.426   1.641  0.7170 -0.4862  0.8838
 3175TIP3    H231161   2.170   5.366   1.684 -1.0510  1.4191 -1.6019
 3176TIP3   OH231162   4.635   1.511   0.892 -0.3573  0.0186  0.2307
 3176TIP3    H131163   4.583   1.585   0.923 -1.5099 -1.1543  1.2274
 3176TIP3    H231164   4.696   1.548   0.829  0.4646  2.1768  2.1495
 3177TIP3   OH231165   0.118   3.981   0.163 -0.1048 -0.1387  0.4598
 3177TIP3    H131166   0.122   3.888   0.140  2.0353 -0.6284  2.4217
 3177TIP3    H231167   0.150   4.026   0.085  0.2644 -1.1716 -0.0058
 3178TIP3   OH231168   5.977   0.543   0.609  0.3013  0.1369  0.7886
 3178TIP3    H131169   6.026   0.616   0.649  0.9290 -0.2449  0.7336
 3178TIP3    H231170   5.982   0.473   0.674  2.9883 -1.1613 -0.6754
 3179TIP3   OH231171   3.252   0.060   0.836  0.0618 -0.3494  0.0157
 3179TIP3    H131172   3.262  -0.000   0.762 -1.3802 -0.7300  0.1045
 3179TIP3    H231173   3.338   0.103   0.844  0.5015 -0.9383 -1.3109
 3180TIP3   OH231174   3.257   5.819   0.224  0.1229 -0.5846 -0.2024
 3180TIP3    H131175   3.173   5.787   0.191 -0.3917 -1.3384  1.7229
 3180TIP3    H231176   3.236   5.898   0.274  0.5919 -0.6133  0.0479
 3181TIP3   OH231177   4.499   1.985   8.004 -0.2049  0.2934 -0.3031
 3181TIP3    H131178   4.480   1.939   7.922  1.5556  1.2436 -1.3023
 3181TIP3    H231179   4.496   2.078   7.982  1.0601  0.5616  0.4949
 3182TIP3   OH231180   5.092   2.372   0.338 -0.0365  0.4081 -0.2037
 3182TIP3    H131181   5.003   2.339   0.351  0.1314 -0.2185 -0.5960
 3182TIP3    H231182   5.094   2.400   0.247  0.5143 -0.7190 -0.5600
 3183TIP3   OH231183   3.123   3.905   0.183 -0.3801 -0.0448 -0.6622
 3183TIP3    H131184   3.045   3.951   0.151 -0.1252  0.5384 -0.4695
 3183TIP3    H231185   3.160   3.863   0.105  0.2916  1.4452 -1.1809
 3184TIP3   OH231186   0.853   2.988   1.255 -0.5139  0.0976  0.0388
 3184TIP3    H131187   0.893   2.974   1.169 -0.7777 -1.8851  0.1798
 3184TIP3    H231188   0.834   2.900   1.287  1.0929  0.6378  2.8757
 3185TIP3   OH231189   0.764   0.158   6.323  1.5556  0.6904  0.4405
 3185TIP3    H131190   0.675   0.191   6.336  1.1559  0.3522 -1.1999
 3185TIP3    H231191   0.760   0.066   6.349  1.6041  0.8432  0.9996
 3186TIP3   OH231192   5.085   5.874   8.601 -0.7408 -0.2372 -0.1666
 3186TIP3    H131193   5.025   5.944   8.577  1.6877  1.7664 -0.8506
 3186TIP3    H231194   5.101   5.827   8.519 -1.0460 -0.4889 -0.0811
 3187TIP3   OH231195   1.434   0.770   7.638  0.0080  0.0233  0.7238
 3187TIP3    H131196   1.349   0.732   7.661 -0.0658  0.5624  1.3669
 3187TIP3    H231197   1.475   0.790   7.723  1.0960 -0.9228  0.4389
 3188TIP3   OH231198   1.040   1.775   8.436  0.9281 -0.0861  0.1803
 3188TIP3    H131199   0.949   1.807   8.434  0.8426 -0.2950  0.6006
 3188TIP3    H231200   1.036   1.696   8.489  0.9434 -1.4484 -1.7500
 3189TIP3   OH231201   2.945   0.313   2.304  0.5917  0.0749 -0.5232
 3189TIP3    H131202   3.038   0.334   2.296  0.7126 -0.5622 -0.9211
 3189TIP3    H231203   2.902   0.373   2.243  0.2496  3.2437  2.5741
 3190TIP3   OH231204   0.150   1.096   0.731 -0.0098  0.1773 -0.7249
 3190TIP3    H131205   0.182   1.059   0.648 -0.4353 -1.4371 -0.2007
 3190TIP3    H231206   0.228   1.103   0.786  0.2583  1.1623 -1.2079
 3191TIP3   OH231207   2.531   1.253   6.969 -0.4080  0.0173  0.0688
 3191TIP3    H131208   2.480   1.330   6.997  1.3126  0.8376  1.1525
 3191TIP3    H231209   2.618   1.268   7.006 -0.2434 -2.9369  1.1747
 3192TIP3   OH231210   2.487   1.515   0.418 -0.2131 -0.6727  0.1279
 3192TIP3    H131211   2.393   1.515   0.439 -0.4935  0.1317 -0.9982
 3192TIP3    H231212   2.498   1.445   0.354  0.4529 -2.4582  2.1122
 3193TIP3   OH231213   4.031   6.261   1.068  0.0180  0.3498  0.0648
 3193TIP3    H131214   4.077   6.247   0.985 -1.2197 -0.1189 -0.5658
 3193TIP3    H231215   3.965   6.328   1.048 -0.9728 -0.4959  0.3724
 3194TIP3   OH231216   3.573   5.620   7.385 -0.3107  0.3390  0.2382
 3194TIP3    H131217   3.523   5.677   7.444 -0.0979 -0.5698  1.3258
 3194TIP3    H231218   3.511   5.551   7.362  0.0741 -0.1388  0.6286
 3195TIP3   OH231219   4.860   4.742   8.273 -0.4584  0.3528 -0.3098
 3195TIP3    H131220   4.901   4.827   8.287 -1.2658  0.6564  0.2865
 3195TIP3    H231221   4.792   4.759   8.208 -1.3605  0.4195  0.6168
 3196TIP3   OH231222   4.819   2.357   0.521  0.1473  0.0301 -0.3303
 3196TIP3    H131223   4.850   2.448   0.518 -0.8701  0.3969 -0.2021
 3196TIP3    H231224   4.875   2.315   0.587 -0.7093  1.1149  1.1534
 3197TIP3   OH231225   6.550   3.799   8.243 -0.3310 -0.2865  0.0364
 3197TIP3    H131226   6.521   3.876   8.195  1.4769  0.0799 -0.5536
 3197TIP3    H231227   6.480   3.782   8.305 -1.0268  1.5074 -0.1856
 3198TIP3   OH231228   5.471   0.753   1.530  0.0748 -1.1335 -0.2259
 3198TIP3    H131229   5.513   0.836   1.555  0.9508 -1.9254  1.0153
 3198TIP3    H231230   5.430   0.772   1.445  2.6223 -0.2118 -1.3396
 3199TIP3   OH231231   3.241   3.090   7.796  0.7066 -0.1012 -0.8152
 3199TIP3    H131232   3.281   3.016   7.751 -0.8865 -1.4778 -0.0963
 3199TIP3    H231233   3.211   3.148   7.726  1.6405 -0.3165 -1.3988
 3200TIP3   OH231234   0.290   4.614   0.495 -0.8153 -0.4643 -0.0660
 3200TIP3    H131235   0.224   4.546   0.484 -2.4949  0.5762  2.5207
 3200TIP3    H231236   0.326   4.600   0.582  3.8935 -2.0625 -1.9778
 3201TIP3   OH231237   2.848   3.034   7.559  0.0078 -0.2209 -0.3404
 3201TIP3    H131238   2.842   3.111   7.503 -1.1608 -0.3558 -0.4147
 3201TIP3    H231239   2.796   3.056   7.637  0.5635 -0.5220  0.1263
 3202TIP3   OH231240   2.684   5.540   8.851  0.1174  0.4873  0.6217
 3202TIP3    H131241   2.759   5.599   8.850  0.3152  0.2584 -0.8593
 3202TIP3    H231242   2.716   5.461   8.895  1.4065 -0.3540 -1.6357
 3203TIP3   OH231243   3.988   1.811   7.664 -0.0879  0.3462 -0.4812
 3203TIP3    H131244   3.928   1.884   7.682  0.0852  0.9931 -2.3866
 3203TIP3    H231245   4.043   1.841   7.592  1.0087 -1.1137 -0.3090
 3204TIP3   OH231246   1.831   5.052   0.976 -0.8200 -0.1466 -0.2756
 3204TIP3    H131247   1.757   5.072   1.034 -0.2152  1.3266  0.0228
 3204TIP3    H231248   1.907   5.050   1.034 -0.4738 -0.7005 -0.7326
 3205TIP3   OH231249   3.873   6.580   8.185  0.2053  0.1165 -0.6723
 3205TIP3    H131250   3.842   6.668   8.204  0.2636 -0.0629  0.3587
 3205TIP3    H231251   3.961   6.592   8.149  1.0413  0.4273  1.3460
 3206TIP3   OH231252   2.804   0.412   1.819  0.5364 -0.1897  0.1948
 3206TIP3    H131253   2.849   0.397   1.736 -0.5907  1.6334 -0.8081
 3206TIP3    H231254   2.711   0.415   1.797  0.2933  1.7775  1.2171
 3207TIP3   OH231255   1.308   5.393   8.436  0.2356 -0.3493 -0.8981
 3207TIP3    H131256   1.303   5.460   8.369  0.0939  0.0106 -0.5283
 3207TIP3    H231257   1.383   5.339   8.410  1.5736  1.0731 -0.1919
 3208TIP3   OH231258   1.311   3.220   6.101 -0.1932 -0.3251  0.3681
 3208TIP3    H131259   1.289   3.303   6.143  0.3829 -1.0967  2.3279
 3208TIP3    H231260   1.239   3.162   6.125 -0.6359 -0.4000 -1.0629
 3209TIP3   OH231261   6.271   0.298   7.278  0.0820 -0.5101  0.7737
 3209TIP3    H131262   6.289   0.235   7.349  2.7170 -0.0900  0.5801
 3209TIP3    H231263   6.211   0.361   7.317 -1.6619 -2.4119  1.3567
 3210TIP3   OH231264   0.660   0.036   2.182 -0.0082  0.0876 -0.0168
 3210TIP3    H131265   0.735   0.030   2.123 -1.1686  0.2256 -1.5721
 3210TIP3    H231266   0.658   0.127   2.210 -0.7680  0.5812 -1.6080
 3211TIP3   OH231267   2.755   5.299   0.086  0.0700  0.0892 -0.7168
 3211TIP3    H131268   2.684   5.263   0.139  0.1024  2.5542  1.1758
 3211TIP3    H231269   2.787   5.224   0.035 -2.0138 -1.7140  0.4412
 3212TIP3   OH231270   6.760   1.533   8.637 -0.0190  0.3037 -0.0002
 3212TIP3    H131271   6.850   1.561   8.623  0.3210 -0.2243  1.0631
 3212TIP3    H231272   6.718   1.605   8.684 -0.8630  1.6084 -2.5778
 3213TIP3   OH231273   5.190   4.118   8.525  0.3865 -0.2394  0.0740
 3213TIP3    H131274   5.106   4.080   8.500 -0.4782  1.2227  0.6938
 3213TIP3    H231275   5.200   4.194   8.468  0.2960  0.7871  1.3878
 3214TIP3   OH231276   2.398   0.619   6.394  1.0435  0.1494  0.2982
 3214TIP3    H131277   2.460   0.661   6.334 -1.1075 -0.0536 -2.2494
 3214TIP3    H231278   2.398   0.527   6.368  0.3923 -0.0428  0.9493
 3215TIP3   OH231279   3.290   2.334   0.573 -0.2559  0.3603 -0.0940
 3215TIP3    H131280   3.347   2.341   0.497 -1.6510  1.5209 -1.0847
 3215TIP3    H231281   3.295   2.242   0.598  1.9895  0.4144 -0.1511
 3216TIP3   OH231282   6.404   3.093   7.050  0.7973  0.0578 -0.0379
 3216TIP3    H131283   6.358   3.019   7.090  0.4504  0.6848  0.7494
 3216TIP3    H231284   6.338   3.136   6.996  0.3384  1.1372  1.3309
 3217TIP3   OH231285   5.724   4.528   7.998 -0.6809 -0.5503 -0.2853
 3217TIP3    H131286   5.678   4.555   7.918 -2.7539 -1.6726  0.4449
 3217TIP3    H231287   5.658   4.479   8.048  1.0435 -1.3193  1.3537
 3218TIP3   OH231288   2.024   3.686   8.293  0.2303  0.1402 -0.6995
 3218TIP3    H131289   2.025   3.690   8.198  1.8678 -0.6485 -0.7511
 3218TIP3    H231290   2.076   3.609   8.315  1.3550  1.2776  0.8726
 3219TIP3   OH231291   4.482   4.388   7.441  0.3584  0.1399 -0.2625
 3219TIP3    H131292   4.488   4.423   7.530 -0.8636  0.7441 -0.4053
 3219TIP3    H231293   4.487   4.466   7.384 -1.3605  0.0316 -0.6193
 3220TIP3   OH231294   3.330   5.158   7.994  0.0943 -0.1884 -0.4043
 3220TIP3    H131295   3.363   5.101   8.063  0.3497 -0.2538 -0.5750
 3220TIP3    H231296   3.346   5.247   8.026  1.5154 -0.2146 -0.9698
 3221TIP3   OH231297   2.323   0.736   8.456 -0.2895 -0.1479  0.2082
 3221TIP3    H131298   2.366   0.725   8.540 -0.8174 -1.1750  0.3636
 3221TIP3    H231299   2.390   0.773   8.399  0.7455 -1.5300  0.4935
 3222TIP3   OH231300   1.518   0.167   0.649  0.0167 -0.5459 -0.1569
 3222TIP3    H131301   1.526   0.262   0.661 -0.1828 -0.5856  0.2965
 3222TIP3    H231302   1.524   0.131   0.737  0.6889 -1.0046 -0.3802
 3223TIP3   OH231303   4.997   1.781   0.156  0.4718 -0.2281  0.7027
 3223TIP3    H131304   4.924   1.807   0.212 -0.5389 -0.8532 -0.2721
 3223TIP3    H231305   5.020   1.693   0.186 -0.4678 -0.8075 -0.2129
 3224TIP3   OH231306   5.140   6.819   0.719 -0.1140  0.3776  0.1043
 3224TIP3    H131307   5.183   6.747   0.765 -1.6882 -0.9235 -0.4173
 3224TIP3    H231308   5.199   6.894   0.734  1.5472 -0.9670  0.6733
 3225TIP3   OH231309   6.177   3.812   7.261 -0.4660  0.0797  0.4034
 3225TIP3    H131310   6.140   3.726   7.278  1.5983 -0.4015  3.0554
 3225TIP3    H231311   6.123   3.872   7.311 -0.0839 -0.0983  1.0380
 3226TIP3   OH231312   6.584   0.896   1.149 -0.6369  0.1157 -0.3834
 3226TIP3    H131313   6.574   0.908   1.244 -0.1957  0.9524 -0.4368
 3226TIP3    H231314   6.676   0.872   1.138 -0.8048 -0.4429 -0.5574
 3227TIP3   OH231315   3.755   0.368   6.617 -0.1221 -0.3823  0.5608
 3227TIP3    H131316   3.685   0.383   6.680 -0.4526  1.1049 -0.1154
 3227TIP3    H231317   3.800   0.289   6.649 -2.5041 -1.8000  0.6387
 3228TIP3   OH231318   5.162   6.809   1.706 -0.1871 -0.5039  0.5165
 3228TIP3    H131319   5.074   6.847   1.708  0.1506  0.2728  0.7619
 3228TIP3    H231320   5.191   6.812   1.797  0.3946 -0.0515  0.3167
 3229TIP3   OH231321   1.170   2.500   8.852  0.3102 -0.2423  0.1702
 3229TIP3    H131322   1.213   2.421   8.883  1.9794  0.3240 -0.5527
 3229TIP3    H231323   1.115   2.471   8.780 -0.9719 -1.0655  1.4524
 3230TIP3   OH231324   5.369   3.967   8.286  0.0765  0.2267 -0.2495
 3230TIP3    H131325   5.410   3.942   8.203 -0.6843 -1.0143 -0.2648
 3230TIP3    H231326   5.279   3.988   8.263 -0.4441 -1.1964  0.4036
 3231TIP3   OH231327   6.730   5.102   6.379  0.2297 -0.2560 -0.1783
 3231TIP3    H131328   6.722   5.050   6.459 -1.1851 -0.2383 -0.2793
 3231TIP3    H231329   6.647   5.149   6.373  1.3921  1.8871 -0.1977
 3232TIP3   OH231330   1.050   5.647   6.490 -0.4487 -0.2792 -0.2143
 3232TIP3    H131331   1.116   5.715   6.503 -1.3803  0.8343 -1.0426
 3232TIP3    H231332   1.099   5.571   6.459  0.6915 -0.1922  1.2564
 3233TIP3   OH231333   6.349   2.855   0.824  0.2501  0.0613  0.2681
 3233TIP3    H131334   6.402   2.787   0.783 -0.0252  0.1400 -0.2270
 3233TIP3    H231335   6.308   2.813   0.900  1.3508  0.1124  0.9102
 3234TIP3   OH231336   1.885   6.320   7.814  0.2147 -0.3410  0.4901
 3234TIP3    H131337   1.946   6.393   7.817 -0.3331  0.2120 -0.6942
 3234TIP3    H231338   1.890   6.279   7.900  1.5303  0.2685  0.7174
 3235TIP3   OH231339   5.691   6.563   7.367  0.7392 -0.3934  0.0326
 3235TIP3    H131340   5.604   6.527   7.350  0.2387  0.4944  0.6563
 3235TIP3    H231341   5.750   6.509   7.313 -0.3201 -0.2304 -1.3517
 3236TIP3   OH231342   2.314   1.365   7.714  0.4884  0.3209 -0.9377
 3236TIP3    H131343   2.317   1.430   7.784  0.1546  0.1554 -0.7660
 3236TIP3    H231344   2.331   1.282   7.758  1.3348  0.3326 -1.2197
 3237TIP3   OH231345   3.342   0.883   8.758  0.3006 -0.0810 -0.2485
 3237TIP3    H131346   3.431   0.908   8.781  0.3350 -1.2851  1.0574
 3237TIP3    H231347   3.303   0.963   8.723  0.8048  1.4743  2.4744
 3238TIP3   OH231348   0.879   4.062   0.130 -0.3640  0.3289 -0.2516
 3238TIP3    H131349   0.908   3.972   0.118 -0.9784  0.3780 -2.6831
 3238TIP3    H231350   0.836   4.084   0.047  0.8729  3.2630 -0.2179
 3239TIP3   OH231351   2.715   3.717   6.827  0.4277 -0.0002  0.0711
 3239TIP3    H131352   2.784   3.784   6.818 -1.0184  1.4799 -0.4278
 3239TIP3    H231353   2.730   3.658   6.753 -0.1490  1.6004 -1.3929
 3240TIP3   OH231354   5.040   1.274   8.460  0.3009 -0.1577  0.0607
 3240TIP3    H131355   5.058   1.335   8.532  3.5740 -0.3274 -0.4767
 3240TIP3    H231356   5.068   1.189   8.493  1.6619 -0.2685 -1.2831
 3241TIP3   OH231357   3.578   1.699   6.261 -0.4982 -0.4733 -0.7270
 3241TIP3    H131358   3.546   1.788   6.274 -0.0252 -0.3355 -0.4912
 3241TIP3    H231359   3.640   1.685   6.333  0.0449 -0.7013 -1.2338
 3242TIP3   OH231360   1.772   0.960   6.675 -0.0909 -0.5746 -0.1955
 3242TIP3    H131361   1.858   1.000   6.664  0.0695 -1.4955 -3.2772
 3242TIP3    H231362   1.716   1.032   6.705  1.5956  0.1400  1.4794
 3243TIP3   OH231363   0.702   0.014   8.202 -0.1160  0.5430 -0.3178
 3243TIP3    H131364   0.790   0.051   8.202 -0.9401  2.6829 -0.5010
 3243TIP3    H231365   0.670   0.030   8.113 -0.4378 -0.8651 -0.4647
 3244TIP3   OH231366   6.375   0.296   0.011  0.2847 -0.2604  0.5874
 3244TIP3    H131367   6.403   0.376   0.055 -0.0491  0.8273 -1.0734
 3244TIP3    H231368   6.297   0.322  -0.038 -0.2641 -1.8028  0.5834
 3245TIP3   OH231369   2.015   0.358   1.251  0.0273  0.1618 -0.3627
 3245TIP3    H131370   2.007   0.373   1.345 -0.4876 -0.1728 -0.3506
 3245TIP3    H231371   2.109   0.364   1.234  0.1060  0.4165  0.1375
 3246TIP3   OH231372   1.035   6.480   0.689  0.9356 -0.0889  1.1559
 3246TIP3    H131373   0.944   6.465   0.665  0.5423  1.2105  1.7335
 3246TIP3    H231374   1.085   6.422   0.632 -0.2410 -0.7615  0.7780
 3247TIP3   OH231375   3.748   5.903   8.820  1.1766  0.1324 -0.0876
 3247TIP3    H131376   3.725   5.996   8.816  0.7721  0.0291 -0.2038
 3247TIP3    H231377   3.689   5.866   8.885 -0.3542 -0.5124 -1.7598
 3248TIP3   OH231378   2.544   1.837   0.980 -0.4025  0.6309  0.3582
 3248TIP3    H131379   2.461   1.836   1.027 -0.3879  1.4377  0.4164
 3248TIP3    H231380   2.597   1.902   1.026 -0.5249  1.7492 -0.9794
 3249TIP3   OH231381   1.897   2.378   7.642 -0.1135  0.0589 -0.1763
 3249TIP3    H131382   1.823   2.436   7.660 -0.1969  0.0883 -0.5905
 3249TIP3    H231383   1.877   2.297   7.690 -0.9184 -0.3103 -1.0943
 3250TIP3   OH231384   0.205   4.711   7.977 -0.4478  0.6279 -0.9403
 3250TIP3    H131385   0.288   4.750   7.951 -0.1885  0.5009 -0.3157
 3250TIP3    H231386   0.214   4.618   7.957  0.3569  0.2372  1.0082
 3251TIP3   OH231387   4.738   0.036   0.681  0.5593  0.0593  0.3700
 3251TIP3    H131388   4.783   0.002   0.603  1.1207 -1.3105  1.2588
 3251TIP3    H231389   4.801   0.094   0.723  0.7158 -0.1978  0.4870
 3252TIP3   OH231390   2.291   4.711   8.749  0.0787  0.2125  0.5404
 3252TIP3    H131391   2.253   4.708   8.661 -2.2812 -1.2647  1.5036
 3252TIP3    H231392   2.327   4.623   8.762  0.3244  0.3934  1.1161
 3253TIP3   OH231393   5.513   4.754   8.330 -0.5503 -0.1291 -0.3929
 3253TIP3    H131394   5.509   4.689   8.400 -1.5737  0.9163  0.5438
 3253TIP3    H231395   5.431   4.742   8.282 -0.9908  0.8090  0.1097
 3254TIP3   OH231396   5.402   3.163   2.475  0.2243  0.2009 -0.1270
 3254TIP3    H131397   5.330   3.225   2.491  0.6602  0.9386 -0.9133
 3254TIP3    H231398   5.477   3.202   2.520  0.1071 -0.6459  0.8196
 3255TIP3   OH231399   3.078   5.087   0.736 -0.3063  0.1898  0.4140
 3255TIP3    H131400   3.061   5.005   0.783  0.1832 -0.1775 -0.0343
 3255TIP3    H231401   3.032   5.154   0.787 -1.4665 -0.4864  0.2857
 3256TIP3   OH231402   3.585   0.108   7.468 -0.8223 -0.0505  0.5485
 3256TIP3    H131403   3.573   0.016   7.492  0.5218 -0.4720 -0.2933
 3256TIP3    H231404   3.655   0.139   7.525  0.4497 -0.2718 -0.8465
 3257TIP3   OH231405   1.613   6.783   0.162 -0.0924 -0.1998  0.2995
 3257TIP3    H131406   1.570   6.712   0.113  0.7905 -0.6779  0.1951
 3257TIP3    H231407   1.586   6.770   0.253 -1.4352  0.4627  0.0159
 3258TIP3   OH231408   5.323   6.181   8.326  0.4382  0.6977 -0.4054
 3258TIP3    H131409   5.282   6.215   8.247  0.8259 -0.3001 -1.0408
 3258TIP3    H231410   5.384   6.115   8.296 -1.8214 -2.2002  0.8906
 3259TIP3   OH231411   0.550   6.296   7.488  0.1945 -0.0513  0.6237
 3259TIP3    H131412   0.461   6.328   7.497  0.8404  2.1623 -0.2329
 3259TIP3    H231413   0.546   6.233   7.415 -0.2644  1.9889 -1.2216
 3260TIP3   OH231414   3.335   5.643   6.652  0.0941 -0.3294 -0.4955
 3260TIP3    H131415   3.340   5.561   6.602 -0.5918 -0.8779  0.2852
 3260TIP3    H231416   3.290   5.618   6.733 -1.3838  1.0904 -0.8201
 3261TIP3   OH231417   4.950   5.072   7.541  0.4693 -0.1755  0.4066
 3261TIP3    H131418   4.996   5.000   7.499  1.6618  0.3583  0.7462
 3261TIP3    H231419   4.947   5.141   7.474  0.1203 -0.2278  0.3680
 3262TIP3   OH231420   1.665   4.659   7.650 -0.1901  0.1396 -0.0270
 3262TIP3    H131421   1.659   4.565   7.668  1.2937  0.0758  0.2626
 3262TIP3    H231422   1.700   4.697   7.731  1.9697  0.5121 -1.0454
 3263TIP3   OH231423   2.171   6.408   7.203  0.5009  0.1828 -0.1723
 3263TIP3    H131424   2.239   6.445   7.260  0.7776 -0.4923 -0.0514
 3263TIP3    H231425   2.178   6.458   7.122  0.4007  0.8585  0.2209
 3264TIP3   OH231426   3.693   5.407   7.525 -0.2033 -0.0302  0.3671
 3264TIP3    H131427   3.675   5.398   7.431  1.0687 -2.3239  0.2762
 3264TIP3    H231428   3.608   5.391   7.567 -0.6068  0.1549 -0.3545
 3265TIP3   OH231429   4.801   4.702   0.010 -0.0233  0.0080  0.1769
 3265TIP3    H131430   4.731   4.746   0.057  0.4321  0.7139  0.2131
 3265TIP3    H231431   4.759   4.626  -0.030 -0.5933 -0.1238  1.0006
 3266TIP3   OH231432   0.369   4.035   1.258 -0.0880 -0.3212  0.7829
 3266TIP3    H131433   0.348   3.961   1.201  1.2778 -1.6038  1.8503
 3266TIP3    H231434   0.292   4.046   1.314 -0.8286 -0.0338 -0.2605
 3267TIP3   OH231435   3.411   1.503   1.563  0.4022  0.0618  0.4554
 3267TIP3    H131436   3.396   1.414   1.530  1.7306  0.1447 -0.4257
 3267TIP3    H231437   3.446   1.551   1.489  0.4391  1.1302  1.1411
 3268TIP3   OH231438   0.085   5.386   6.404  0.1516  0.0919  0.0124
 3268TIP3    H131439   0.104   5.310   6.349 -1.4908 -0.0179 -0.4544
 3268TIP3    H231440  -0.009   5.399   6.395  0.5216  2.8813 -0.8458
 3269TIP3   OH231441   1.365   6.510   6.771  0.0595  0.1992 -0.8659
 3269TIP3    H131442   1.364   6.531   6.677 -1.3398  1.4759 -0.5949
 3269TIP3    H231443   1.278   6.532   6.802  0.5616 -0.0148  0.7970
 3270TIP3   OH231444   2.709   6.026   0.609 -0.3949 -0.7425  0.2456
 3270TIP3    H131445   2.770   6.099   0.594 -1.2642  0.1008  0.7460
 3270TIP3    H231446   2.693   5.991   0.522 -0.2422 -0.1095 -0.0474
 3271TIP3   OH231447   5.997   0.883   8.873 -0.6690  0.2486 -0.4774
 3271TIP3    H131448   5.902   0.880   8.886 -0.7680  2.1327 -0.5073
 3271TIP3    H231449   6.018   0.976   8.869  0.9627 -0.1343 -2.1968
 3272TIP3   OH231450   6.609   5.959   0.042  0.1860  0.3209 -0.1429
 3272TIP3    H131451   6.567   6.043   0.062  0.0359  0.1614  0.2152
 3272TIP3    H231452   6.617   5.959  -0.054  2.8582  2.0362 -0.0050
 3273TIP3   OH231453   5.434   3.493   0.111  0.6756  0.1382  0.0135
 3273TIP3    H131454   5.343   3.520   0.120  0.3982 -0.4150 -0.8864
 3273TIP3    H231455   5.428   3.405   0.073  1.5241 -1.1931  2.6975
 3274TIP3   OH231456   6.685   1.788   0.410  0.1857 -0.1061 -0.5019
 3274TIP3    H131457   6.680   1.699   0.445 -0.5191  0.0689 -0.1427
 3274TIP3    H231458   6.779   1.809   0.413  0.3657 -0.8438 -0.6281
 3275TIP3   OH231459   6.219   5.623   0.717  0.0962  0.3071 -0.3041
 3275TIP3    H131460   6.125   5.611   0.726 -0.0031  0.9805 -0.3408
 3275TIP3    H231461   6.252   5.627   0.807  0.1937 -0.6594 -0.2961
 3276TIP3   OH231462   6.022   0.240   1.788 -0.3235 -0.4687  0.8687
 3276TIP3    H131463   6.105   0.193   1.795 -0.4683 -0.8908 -0.1590
 3276TIP3    H231464   6.017   0.292   1.869  0.1368 -1.7237  1.7260
 3277TIP3   OH231465   1.698   5.485   0.563  0.5390  0.0689 -0.3985
 3277TIP3    H131466   1.715   5.400   0.603  1.3822  0.0680 -0.7341
 3277TIP3    H231467   1.636   5.528   0.622 -0.6407 -1.1326 -0.6980
 3278TIP3   OH231468   0.808   3.389   8.882 -0.3977  0.2877  0.5970
 3278TIP3    H131469   0.727   3.382   8.933  0.0431  0.8247  1.3774
 3278TIP3    H231470   0.873   3.340   8.933 -0.1001  0.2909  0.2281
 3279TIP3   OH231471   5.636   4.688   6.603 -0.1347  0.0347 -0.0544
 3279TIP3    H131472   5.554   4.704   6.557 -0.1093 -0.4061 -0.2566
 3279TIP3    H231473   5.684   4.770   6.596  0.0391 -0.1437 -1.1591
 3280TIP3   OH231474   3.977   1.601   0.492 -0.0454  0.0961  0.3224
 3280TIP3    H131475   4.012   1.689   0.498 -1.5180  0.6938  0.6161
 3280TIP3    H231476   4.033   1.556   0.429  0.6805  1.2511  0.1273
 3281TIP3   OH231477   6.424   2.428   7.805  0.1261  0.1796 -0.4607
 3281TIP3    H131478   6.512   2.429   7.767  0.8722 -1.1273  1.1373
 3281TIP3    H231479   6.428   2.363   7.874 -2.2950 -0.3567 -0.7344
 3282TIP3   OH231480   0.768   5.873   0.516  0.1429  0.4316 -0.0053
 3282TIP3    H131481   0.695   5.924   0.482  0.7999  1.1444 -0.3811
 3282TIP3    H231482   0.769   5.892   0.610 -0.7207 -0.3215  0.1681
 3283TIP3   OH231483   2.275   3.597   7.772  0.0104  0.1488 -0.4414
 3283TIP3    H131484   2.351   3.542   7.790  0.0772  0.9495  2.1486
 3283TIP3    H231485   2.200   3.539   7.784  0.1288  0.2125  0.7021
 3284TIP3   OH231486   4.740   6.274   8.572 -0.3479  0.0324 -0.2977
 3284TIP3    H131487   4.684   6.223   8.631 -0.9325  0.3405 -0.5798
 3284TIP3    H231488   4.679   6.329   8.523  0.2564  0.8460 -0.1550
 3285TIP3   OH231489   3.678   1.165   7.465 -0.1346  0.0489 -0.1465
 3285TIP3    H131490   3.753   1.116   7.499 -0.5305 -1.3443 -1.1721
 3285TIP3    H231491   3.604   1.134   7.517 -0.1214  0.9089  0.3993
 3286TIP3   OH231492   2.661   6.321   8.598 -0.2622 -0.3424 -0.0827
 3286TIP3    H131493   2.603   6.258   8.641 -2.7142  0.8020 -1.5086
 3286TIP3    H231494   2.611   6.353   8.523  2.0996  1.0399 -1.1863
 3287TIP3   OH231495   1.487   0.707   8.642 -0.2503  0.4658 -0.4312
 3287TIP3    H131496   1.512   0.638   8.702  0.9314  0.3008 -1.0778
 3287TIP3    H231497   1.393   0.694   8.628 -0.0119 -1.1891 -0.7465
 3288TIP3   OH231498   0.023   5.309   7.907  0.2653  0.1552  0.1352
 3288TIP3    H131499  -0.058   5.261   7.920 -0.5425  1.1826 -0.8690
 3288TIP3    H231500  -0.000   5.401   7.921  0.6819  0.6993 -2.2793
 3289TIP3   OH231501   3.963   0.739   0.337 -0.0941  0.0712  0.2586
 3289TIP3    H131502   3.933   0.738   0.428  0.6683 -0.6456  0.5173
 3289TIP3    H231503   3.959   0.647   0.310 -2.2363  0.4989 -1.1075
 3290TIP3   OH231504   6.585   3.306   0.661  0.0747  0.4000  0.5136
 3290TIP3    H131505   6.610   3.226   0.615 -0.7890  0.1883  0.4005
 3290TIP3    H231506   6.652   3.369   0.637 -0.4378  0.3443 -1.1718
 3291TIP3   OH231507   3.976   4.020   7.247 -0.4678 -0.0940 -0.7382
 3291TIP3    H131508   3.964   4.083   7.318 -0.1518 -1.2806  0.4089
 3291TIP3    H231509   3.910   3.953   7.263  1.3361 -1.7823  0.0938
 3292TIP3   OH231510   2.223   0.877   8.043  0.6894  0.5687  0.2536
 3292TIP3    H131511   2.174   0.810   7.995 -0.6244  0.7452  1.2921
 3292TIP3    H231512   2.155   0.935   8.078  1.7553  1.8527  0.2519
 3293TIP3   OH231513   1.327   1.508   1.369 -0.5884  0.0437 -0.1499
 3293TIP3    H131514   1.303   1.498   1.277 -0.2273  0.6154 -0.3131
 3293TIP3    H231515   1.325   1.419   1.405 -1.1368 -0.1259 -0.6068
 3294TIP3   OH231516   6.364   5.028   1.439 -0.0760 -0.0177 -0.8014
 3294TIP3    H131517   6.338   5.015   1.530  0.4787  0.6853 -0.5300
 3294TIP3    H231518   6.454   5.060   1.444 -0.4659  1.2613 -1.5257
 3295TIP3   OH231519   0.741   2.683   0.649  0.2947  0.1863  0.4444
 3295TIP3    H131520   0.662   2.732   0.627 -0.1034 -0.0744  1.2440
 3295TIP3    H231521   0.811   2.726   0.600 -0.0421  1.5642  1.1336
 3296TIP3   OH231522   2.031   0.212   6.512 -1.1226  0.0186 -0.0544
 3296TIP3    H131523   2.037   0.303   6.541 -1.1927 -0.1749  0.5975
 3296TIP3    H231524   2.064   0.212   6.423 -2.8145  0.9975 -0.7206
 3297TIP3   OH231525   1.442   4.625   6.377  0.3363  0.4758  0.0523
 3297TIP3    H131526   1.364   4.635   6.431  1.2476  0.7617  1.3762
 3297TIP3    H231527   1.432   4.690   6.308  0.3694  2.0639  1.4568
 3298TIP3   OH231528   0.984   1.994   6.795 -0.4451 -0.6085 -0.3727
 3298TIP3    H131529   0.914   2.036   6.845 -0.4038  0.8202 -1.4694
 3298TIP3    H231530   0.950   1.906   6.776 -1.3584 -0.4127  0.2815
 3299TIP3   OH231531   6.503   1.432   8.670  0.4248 -0.0222 -0.2656
 3299TIP3    H131532   6.519   1.504   8.609  0.3240  0.9634  0.8537
 3299TIP3    H231533   6.456   1.367   8.618 -2.6817  2.1745 -0.4512
 3300TIP3   OH231534   2.294   0.399   1.243  0.0834 -0.1702 -0.1571
 3300TIP3    H131535   2.311   0.455   1.167 -0.2770  0.1195 -0.0288
 3300TIP3    H231536   2.354   0.431   1.311  2.3207 -2.0969 -1.0741
 3301TIP3   OH231537   4.326   5.391   7.913 -0.0228  0.0913  0.2670
 3301TIP3    H131538   4.420   5.379   7.924  0.1002 -1.0461 -1.6873
 3301TIP3    H231539   4.287   5.344   7.987  0.9026 -1.0292  0.0643
 3302TIP3   OH231540   4.323   3.649   0.991 -0.3557  0.6461 -0.7095
 3302TIP3    H131541   4.369   3.569   0.965 -0.0921  0.7134 -0.4453
 3302TIP3    H231542   4.260   3.619   1.057  1.8384  1.0805  1.7681
 3303TIP3   OH231543   5.054   0.527   2.173 -0.0515 -0.1250 -0.4997
 3303TIP3    H131544   4.975   0.484   2.137 -1.6301  1.7019  0.6188
 3303TIP3    H231545   5.044   0.518   2.268  0.3499  1.3669 -0.3052
 3304TIP3   OH231546   4.654   2.802   0.298  0.4465 -0.8690 -0.4561
 3304TIP3    H131547   4.748   2.815   0.309  0.4625 -0.7831 -0.6897
 3304TIP3    H231548   4.645   2.758   0.214  0.1870  0.3458 -1.0723
 3305TIP3   OH231549   3.422   3.208   7.039  0.5140 -0.4084  0.2148
 3305TIP3    H131550   3.364   3.201   7.116 -0.5255  1.6882 -0.3199
 3305TIP3    H231551   3.507   3.178   7.071 -0.2485 -1.0837  1.7450
 3306TIP3   OH231552   4.603   4.791   0.234  0.1090  0.5955 -0.3276
 3306TIP3    H131553   4.589   4.885   0.247 -0.1220  0.4958  0.1682
 3306TIP3    H231554   4.536   4.749   0.287  0.3125  0.1465 -0.4203
 3307TIP3   OH231555   5.364   1.778   2.414 -0.2674  0.6432 -0.0435
 3307TIP3    H131556   5.367   1.710   2.347 -1.9307 -0.1312  0.6266
 3307TIP3    H231557   5.384   1.859   2.367 -1.7729  0.1692 -1.5725
 3308TIP3   OH231558   6.444   1.867   8.369 -0.1319  0.3182  0.3072
 3308TIP3    H131559   6.522   1.844   8.318 -0.4859 -0.5209  0.1345
 3308TIP3    H231560   6.411   1.947   8.329 -0.3635 -0.2912 -0.7417
 3309TIP3   OH231561   1.426   1.669   7.415  0.0731 -0.0610  0.8342
 3309TIP3    H131562   1.353   1.616   7.383  0.5590  0.2972 -0.9270
 3309TIP3    H231563   1.490   1.605   7.446  0.3188 -0.4998 -0.5334
 3310TIP3   OH231564   2.528   3.817   8.493 -0.0797 -0.1494 -0.3801
 3310TIP3    H131565   2.607   3.764   8.506 -0.4079 -0.5300  0.0866
 3310TIP3    H231566   2.471   3.762   8.440 -0.0538  0.1018 -0.6657
 3311TIP3   OH231567   1.421   5.096   8.506 -0.2897  0.7346 -0.0379
 3311TIP3    H131568   1.516   5.109   8.506  0.0087 -1.1295 -0.1468
 3311TIP3    H231569   1.405   5.037   8.580 -1.0454 -0.7598 -1.3401
 3312TIP3   OH231570   3.910   4.160   1.920 -0.1422  0.4962 -0.5276
 3312TIP3    H131571   3.838   4.162   1.983 -0.1969 -1.0677 -0.4827
 3312TIP3    H231572   3.973   4.098   1.958 -0.5561 -1.1407 -2.3596
 3313TIP3   OH231573   4.919   0.899   1.363 -0.1802 -0.3421  0.0810
 3313TIP3    H131574   4.879   0.986   1.365  0.0989 -0.2225  0.8599
 3313TIP3    H231575   4.930   0.876   1.455  0.8236 -0.7026 -0.1191
 3314TIP3   OH231576   3.351   5.794   8.555 -0.4543 -0.3467  0.2507
 3314TIP3    H131577   3.300   5.838   8.622 -0.4340  0.3015 -0.1505
 3314TIP3    H231578   3.303   5.713   8.537 -1.2430  0.1686  0.0060
 3315TIP3   OH231579   1.578   1.252   8.128 -0.0335  0.1056  0.0167
 3315TIP3    H131580   1.489   1.230   8.155  0.4213  0.2474  1.7026
 3315TIP3    H231581   1.623   1.168   8.120 -0.7816 -0.1474 -2.8187
 3316TIP3   OH231582   2.310   4.619   8.064 -0.3433  0.3706 -0.3009
 3316TIP3    H131583   2.260   4.540   8.084 -0.6659  0.6287 -0.0760
 3316TIP3    H231584   2.302   4.673   8.143 -0.6355  0.8875 -0.6739
 3317TIP3   OH231585   2.085   5.892   1.361 -0.1767 -0.2324 -0.0426
 3317TIP3    H131586   2.015   5.926   1.305 -0.3184  0.3350  0.4678
 3317TIP3    H231587   2.097   5.801   1.332 -1.8614 -0.6784  0.5602
 3318TIP3   OH231588   4.388   2.068   7.418 -0.3388  0.0170  0.3259
 3318TIP3    H131589   4.365   1.976   7.432  0.7290 -0.2554  0.4115
 3318TIP3    H231590   4.363   2.085   7.327 -1.9885  0.1159  0.7672
 3319TIP3   OH231591   6.260   3.445   8.520  0.8116  0.2417 -0.7630
 3319TIP3    H131592   6.299   3.358   8.521 -0.9037 -0.5725 -0.8682
 3319TIP3    H231593   6.245   3.467   8.612 -1.2309 -0.7912 -0.8002
 3320TIP3   OH231594   2.981   0.267   1.114 -0.5339  0.5158  0.0902
 3320TIP3    H131595   3.007   0.205   1.183 -0.3174  0.0934 -0.3618
 3320TIP3    H231596   2.979   0.214   1.034 -0.1505  1.1375 -0.3401
 3321TIP3   OH231597   6.578   2.027   0.534 -0.5505  0.0210 -0.2139
 3321TIP3    H131598   6.582   2.052   0.441  0.4512  0.6474 -0.0219
 3321TIP3    H231599   6.609   1.937   0.535  1.5421  0.6656 -0.2966
 3322TIP3   OH231600   1.858   3.615   1.393  0.6161 -0.0521 -0.2997
 3322TIP3    H131601   1.923   3.686   1.393  0.5219  0.0384  0.0714
 3322TIP3    H231602   1.818   3.620   1.480  0.3072 -0.2866 -0.4277
 3323TIP3   OH231603   0.803   5.458   7.506  0.4485 -0.5198 -0.0206
 3323TIP3    H131604   0.773   5.444   7.417 -1.0744 -0.7162  0.4995
 3323TIP3    H231605   0.806   5.554   7.515  2.2654 -0.4622 -0.7815
 3324TIP3   OH231606   3.857   5.601   7.635 -0.5838  0.2168 -0.2266
 3324TIP3    H131607   3.799   5.651   7.691 -1.1006 -1.0965  0.4457
 3324TIP3    H231608   3.800   5.539   7.590 -0.0157  0.4704 -1.3441
 3325TIP3   OH231609   5.086   2.311   7.287  0.2026  0.5217  0.0366
 3325TIP3    H131610   5.045   2.389   7.250 -1.9368 -1.2788 -1.6754
 3325TIP3    H231611   5.172   2.308   7.247  0.2864  1.9054  0.0448
 3326TIP3   OH231612   2.052   5.590   6.203  0.7373 -0.5918  0.1513
 3326TIP3    H131613   2.054   5.631   6.289 -0.6138 -2.1237  0.9800
 3326TIP3    H231614   2.044   5.496   6.222 -2.0748 -0.8238 -1.5546
 3327TIP3   OH231615   4.541   4.580   7.649  0.1135 -0.1938  0.0605
 3327TIP3    H131616   4.504   4.661   7.683 -0.2506 -0.0453 -0.6700
 3327TIP3    H231617   4.631   4.579   7.680  0.1353  0.5196  0.0232
 3328TIP3   OH231618   0.336   0.371   8.674 -0.1713 -0.4146 -0.4034
 3328TIP3    H131619   0.391   0.294   8.659 -1.2213 -1.4886  0.9844
 3328TIP3    H231620   0.292   0.353   8.757 -0.7530  1.5190 -0.2507
 3329TIP3   OH231621   3.154   3.236   7.588 -0.2757 -0.5099  0.0127
 3329TIP3    H131622   3.114   3.203   7.508 -1.3855  2.8914 -1.0171
 3329TIP3    H231623   3.239   3.271   7.560  0.0298 -0.7376  0.6383
 3330TIP3   OH231624   1.104   1.893   1.076  0.0616  0.6633  0.4012
 3330TIP3    H131625   1.158   1.941   1.139  0.3691 -0.5929  1.1202
 3330TIP3    H231626   1.117   1.801   1.098 -1.0681  0.2632 -0.5013
 3331TIP3   OH231627   1.781   3.015   8.328  0.0825 -0.0437  0.7301
 3331TIP3    H131628   1.761   2.948   8.263 -1.7763 -0.4740  1.6695
 3331TIP3    H231629   1.759   3.097   8.285 -0.2831 -0.2548  0.5053
 3332TIP3   OH231630   4.052   3.695   7.316 -0.5380  0.0480 -0.0646
 3332TIP3    H131631   4.078   3.624   7.375  0.2376  1.0951  0.8990
 3332TIP3    H231632   4.024   3.650   7.236  0.5154 -1.3123  0.2863
 3333TIP3   OH231633   5.557   5.823   7.513  0.2471  0.0256 -0.3363
 3333TIP3    H131634   5.515   5.903   7.482  1.1557  0.1038 -1.4047
 3333TIP3    H231635   5.532   5.757   7.448  0.9370 -0.1559 -0.4190
 3334TIP3   OH231636   5.814   2.827   7.915 -0.8493  0.6113 -0.3175
 3334TIP3    H131637   5.744   2.789   7.861  1.0576  0.9780 -3.2868
 3334TIP3    H231638   5.895   2.789   7.880  0.5452  0.6734  2.5672
 3335TIP3   OH231639   4.348   5.274   8.174 -0.2494 -0.5335  0.0963
 3335TIP3    H131640   4.431   5.313   8.202  0.1634 -0.9106 -0.5968
 3335TIP3    H231641   4.295   5.272   8.254 -0.8511  2.7660 -0.0432
 3336TIP3   OH231642   4.621   1.127   8.857 -0.5572 -0.3865 -0.2997
 3336TIP3    H131643   4.541   1.096   8.814 -0.5040 -0.6317 -0.2252
 3336TIP3    H231644   4.679   1.050   8.857 -0.6140 -0.4322  0.3465
 3337TIP3   OH231645   0.498   1.746   8.436 -0.0171  0.2798 -0.1086
 3337TIP3    H131646   0.558   1.673   8.418 -0.6800 -0.0824 -0.9430
 3337TIP3    H231647   0.413   1.714   8.405 -0.7549  0.5745  1.5387
 3338TIP3   OH231648   2.960   2.577   1.046 -0.2175 -0.4642  0.1089
 3338TIP3    H131649   3.049   2.546   1.059  0.4394  0.9178 -0.7950
 3338TIP3    H231650   2.970   2.653   0.988 -2.0595 -0.7838 -0.6879
 3339TIP3   OH231651   3.483   2.925   6.820 -0.4710 -0.5023 -0.4247
 3339TIP3    H131652   3.469   2.906   6.727  0.0794 -2.4239 -0.1560
 3339TIP3    H231653   3.545   2.998   6.820  1.0464 -1.7064 -1.6211
 3340TIP3   OH231654   6.578   6.306   8.386 -0.2424 -0.3097 -0.5032
 3340TIP3    H131655   6.491   6.265   8.388 -0.2074 -0.4473 -1.3790
 3340TIP3    H231656   6.618   6.272   8.306  0.3148  0.3783 -0.5242
 3341TIP3   OH231657   1.005   5.581   7.265  0.0843 -0.2235 -0.5063
 3341TIP3    H131658   0.928   5.637   7.250  0.5392  0.5721  0.0575
 3341TIP3    H231659   1.023   5.590   7.358  1.0644 -0.1345 -0.6939
 3342TIP3   OH231660   1.081   0.538   1.197  0.0766  0.3139 -0.6273
 3342TIP3    H131661   1.170   0.562   1.221  0.5491 -0.8573 -1.1313
 3342TIP3    H231662   1.048   0.614   1.147  0.0765  1.5604  1.1828
 3343TIP3   OH231663   5.733   0.313   0.046 -0.3347 -0.1913 -0.3030
 3343TIP3    H131664   5.756   0.306  -0.046  0.0611 -0.9914 -0.1593
 3343TIP3    H231665   5.766   0.398   0.074 -1.8036  0.7269 -1.2527
 3344TIP3   OH231666   6.405   5.175   8.800 -0.0688  0.2207 -0.0119
 3344TIP3    H131667   6.418   5.112   8.871 -0.4826 -0.2306 -0.3368
 3344TIP3    H231668   6.406   5.261   8.844 -0.7620 -0.0746  0.5959
 3345TIP3   OH231669   6.098   6.107   6.682 -0.2749 -0.3615  0.9372
 3345TIP3    H131670   6.021   6.051   6.688  0.6340 -1.8406 -0.3398
 3345TIP3    H231671   6.068   6.192   6.714 -3.2760 -0.0584 -2.0595
 3346TIP3   OH231672   4.503   5.666   0.340 -0.3418 -0.2314 -0.2163
 3346TIP3    H131673   4.528   5.581   0.304  0.2359 -2.2710  4.3862
 3346TIP3    H231674   4.420   5.650   0.385 -1.1201  2.1621 -0.6591
 3347TIP3   OH231675   2.695   0.992   7.003  0.1752 -0.0390  0.1882
 3347TIP3    H131676   2.695   1.038   7.087 -0.5110 -2.0859  1.3834
 3347TIP3    H231677   2.772   1.025   6.957  0.7575  0.8907  1.7553
 3348TIP3   OH231678   0.364   3.814   7.022  0.0931 -0.2818 -0.3767
 3348TIP3    H131679   0.425   3.740   7.025 -2.3122 -2.3748 -0.5643
 3348TIP3    H231680   0.319   3.812   7.106 -0.4061  0.6446 -0.6095
 3349TIP3   OH231681   0.388   5.480   8.722  0.4868 -0.0835 -0.3281
 3349TIP3    H131682   0.441   5.461   8.644 -1.4072 -0.0450 -1.6664
 3349TIP3    H231683   0.423   5.563   8.754 -0.3109  1.2376 -2.6389
 3350TIP3   OH231684   5.279   3.001   7.283  0.1042 -0.1267  0.2800
 3350TIP3    H131685   5.332   3.052   7.345  0.7333 -0.3954 -0.0340
 3350TIP3    H231686   5.189   3.019   7.310  0.3248  0.8123  0.4491
 3351TIP3   OH231687   0.549   6.054   7.628 -0.5791  0.1113 -0.1720
 3351TIP3    H131688   0.544   6.122   7.561  0.1790  0.6863  0.3264
 3351TIP3    H231689   0.476   6.072   7.687 -0.6197  0.2582 -0.2683
 3352TIP3   OH231690   5.761   6.607   0.268 -0.3010 -0.0558  0.0187
 3352TIP3    H131691   5.797   6.678   0.215 -0.9563 -0.2691 -0.7512
 3352TIP3    H231692   5.713   6.650   0.339  0.2698  0.2462  0.2183
 3353TIP3   OH231693   1.162   3.517   1.960 -0.2517 -0.1186  0.1023
 3353TIP3    H131694   1.258   3.519   1.960 -0.1567 -2.0602  0.1904
 3353TIP3    H231695   1.139   3.510   2.052 -0.4436 -0.2837  0.0416
 3354TIP3   OH231696   2.329   6.049   1.379  0.2730 -0.9906 -0.0365
 3354TIP3    H131697   2.301   6.140   1.393 -0.3568 -1.1583 -0.1586
 3354TIP3    H231698   2.262   5.997   1.423  1.1608 -1.3731  0.8835
 3355TIP3   OH231699   4.970   5.023   8.506  0.4166 -0.4724  0.4639
 3355TIP3    H131700   5.014   5.106   8.525 -2.7834  1.3136  0.7594
 3355TIP3    H231701   4.960   5.022   8.411 -0.9951  0.3716  0.5734
 3356TIP3   OH231702   5.267   3.519   1.220  0.3830  0.2131 -0.1313
 3356TIP3    H131703   5.246   3.494   1.310  1.8709  1.3831  0.5891
 3356TIP3    H231704   5.335   3.456   1.194  1.0670  0.8134  0.1529
 3357TIP3   OH231705   1.337   1.947   6.582 -0.7310  0.2261  1.0784
 3357TIP3    H131706   1.382   1.991   6.510 -1.0747 -2.0321 -0.6514
 3357TIP3    H231707   1.278   2.014   6.618 -0.0134  1.6469 -0.2558
 3358TIP3   OH231708   1.027   0.887   8.618 -0.0298  0.0339 -0.1269
 3358TIP3    H131709   0.938   0.872   8.586  0.5055 -1.5924 -0.9375
 3358TIP3    H231710   1.019   0.883   8.713 -1.0156  1.1874 -0.1374
 3359TIP3   OH231711   0.016   6.125   1.802 -0.3226  0.1523  0.2417
 3359TIP3    H131712   0.028   6.202   1.858  2.7729  0.3037 -0.4058
 3359TIP3    H231713   0.084   6.064   1.831 -1.3922 -1.5104 -0.6076
 3360TIP3   OH231714   1.826   5.803   0.272  0.0717 -0.5266  0.6406
 3360TIP3    H131715   1.758   5.838   0.329  0.9275  0.8057  0.8944
 3360TIP3    H231716   1.882   5.752   0.331 -1.0824 -2.2651  0.2997
 3361TIP3   OH231717   5.804   2.903   0.169  0.5448  0.1638 -0.4778
 3361TIP3    H131718   5.799   2.816   0.128  0.8466 -1.1698  2.0860
 3361TIP3    H231719   5.714   2.922   0.197  0.5989  0.3736 -0.4460
 3362TIP3   OH231720   0.189   4.938   2.242 -0.2689  0.0612 -0.5267
 3362TIP3    H131721   0.148   5.009   2.290 -1.2432  0.1803 -1.4990
 3362TIP3    H231722   0.283   4.952   2.253 -0.3662  2.4774 -2.0358
 3363TIP3   OH231723   6.192   2.423   7.663  0.1795  0.7936  0.5112
 3363TIP3    H131724   6.280   2.434   7.700 -0.0459  0.7816  1.0615
 3363TIP3    H231725   6.190   2.331   7.634  0.7184  1.0893 -0.5103
 3364TIP3   OH231726   0.977   2.413   7.234 -0.2883 -0.0899 -0.1381
 3364TIP3    H131727   1.010   2.342   7.178  1.0811 -0.1146  0.6416
 3364TIP3    H231728   1.035   2.411   7.311 -1.2237  0.8634  0.6143
 3365TIP3   OH231729   4.739   2.430   1.585  0.1842  0.0931  0.0929
 3365TIP3    H131730   4.758   2.389   1.501  1.5180 -0.3410  0.5818
 3365TIP3    H231731   4.825   2.452   1.621 -0.2431 -1.0542  1.9801
 3366TIP3   OH231732   3.538   0.088   6.829  0.3160 -0.2548  0.5591
 3366TIP3    H131733   3.612   0.101   6.769  0.2522 -0.0121  0.5321
 3366TIP3    H231734   3.549   0.156   6.895 -1.3560  1.5420 -0.8978
 3367TIP3   OH231735   5.303   0.218   0.748  0.1523  0.0030  0.0218
 3367TIP3    H131736   5.381   0.245   0.700 -0.5835  1.1633 -0.5543
 3367TIP3    H231737   5.233   0.274   0.715 -1.4801 -2.5897 -1.1838
 3368TIP3   OH231738   1.312   0.362   7.881  0.0386 -0.6922 -0.3985
 3368TIP3    H131739   1.273   0.303   7.945 -0.6825 -1.5309 -1.5810
 3368TIP3    H231740   1.241   0.380   7.819  0.3642  1.0796 -0.3224
 3369TIP3   OH231741   1.259   6.695   0.330  0.0668 -0.4333  0.0272
 3369TIP3    H131742   1.286   6.603   0.327  0.7442 -0.2356 -0.0458
 3369TIP3    H231743   1.340   6.744   0.339 -0.0235  0.3227 -2.4591
 3370TIP3   OH231744   2.829   4.875   7.916 -0.0456  0.1208  0.1027
 3370TIP3    H131745   2.805   4.954   7.867 -0.8390 -0.2098 -0.0592
 3370TIP3    H231746   2.799   4.803   7.861  2.3444 -0.3804 -0.6492
 3371TIP3   OH231747   6.043   2.554   0.292 -0.9503  0.5818 -0.0583
 3371TIP3    H131748   6.128   2.558   0.337  0.2360  2.0324 -2.2445
 3371TIP3    H231749   6.003   2.640   0.309 -1.1986  0.5476 -0.4704
 3372TIP3   OH231750   3.632   0.250   8.242  0.0018  0.3087 -0.0040
 3372TIP3    H131751   3.703   0.282   8.186  0.0310 -0.6783 -0.5449
 3372TIP3    H231752   3.617   0.322   8.304  0.0161  1.4062 -1.2061
 3373TIP3   OH231753   5.113   1.596   7.330  0.1050  0.0703  0.1090
 3373TIP3    H131754   5.157   1.511   7.331  0.2567  0.1507  0.3988
 3373TIP3    H231755   5.024   1.576   7.300 -0.2333 -0.3845  1.3359
 3374TIP3   OH231756   5.164   5.678   8.392 -0.1355 -0.7584  0.6006
 3374TIP3    H131757   5.075   5.704   8.367  0.5223  0.7735 -0.3054
 3374TIP3    H231758   5.201   5.641   8.312  1.5510  2.9666 -0.5728
 3375TIP3   OH231759   1.323   0.827   6.620 -0.1422 -0.4496  0.1517
 3375TIP3    H131760   1.330   0.906   6.568  0.1620  0.4328  1.4833
 3375TIP3    H231761   1.229   0.806   6.619 -0.3221  0.3183  0.3366
 3376TIP3   OH231762   0.749   2.437   7.093 -0.0898 -0.6018  0.2088
 3376TIP3    H131763   0.823   2.433   7.154  0.7296  3.5226 -0.2665
 3376TIP3    H231764   0.784   2.405   7.010  0.3227 -1.2214  0.6127
 3377TIP3   OH231765   3.432   3.495   1.426  0.7358 -0.1821  0.2464
 3377TIP3    H131766   3.408   3.417   1.376  0.0912 -0.2213  0.6063
 3377TIP3    H231767   3.390   3.482   1.512 -0.3649  1.0828 -0.0700
 3378TIP3   OH231768   1.620   4.446   8.396 -0.0495 -0.1016 -0.4830
 3378TIP3    H131769   1.556   4.505   8.356 -1.4970 -0.2890  1.3850
 3378TIP3    H231770   1.636   4.379   8.330 -2.1883 -0.3096 -0.8547
 3379TIP3   OH231771   5.516   2.375   7.943 -0.3445  0.5149  0.3979
 3379TIP3    H131772   5.583   2.311   7.968  1.4843  1.8817 -0.6871
 3379TIP3    H231773   5.468   2.332   7.872  0.4030  0.0395  0.1571
 3380TIP3   OH231774   6.602   5.205   7.958  0.3191 -0.7627  0.0479
 3380TIP3    H131775   6.515   5.240   7.940  0.8913 -0.3788 -2.3326
 3380TIP3    H231776   6.587   5.133   8.020 -1.6322 -0.4440 -0.0069
 3381TIP3   OH231777   3.715   3.245   7.151  0.4570 -0.2616 -0.0800
 3381TIP3    H131778   3.701   3.215   7.241  1.2346 -0.7476 -0.1031
 3381TIP3    H231779   3.737   3.338   7.160 -1.4142  0.2093  0.0429
 3382TIP3   OH231780   2.322   0.745   1.414 -0.1926 -0.2326  0.5744
 3382TIP3    H131781   2.241   0.707   1.450 -0.5471  0.0593  0.0912
 3382TIP3    H231782   2.350   0.808   1.481 -0.7813  0.2127  0.4161
 3383TIP3   OH231783   3.736   0.426   1.142 -0.0692 -0.2233 -0.2183
 3383TIP3    H131784   3.830   0.438   1.130  0.0954 -2.8958 -2.3373
 3383TIP3    H231785   3.728   0.352   1.202 -0.6678 -2.4592 -2.8786
 3384TIP3   OH231786   2.773   2.486   8.834 -0.4542 -0.1067  0.1330
 3384TIP3    H131787   2.800   2.449   8.750  1.6915  2.3641 -0.4257
 3384TIP3    H231788   2.853   2.484   8.887 -0.9268  1.2215  0.9383
 3385TIP3   OH231789   2.029   6.010   2.135 -0.9098  0.2881 -0.7258
 3385TIP3    H131790   2.100   5.948   2.118 -0.5915  0.9082 -1.7933
 3385TIP3    H231791   2.071   6.096   2.128 -1.6490  0.6512 -0.7615
 3386TIP3   OH231792   3.463   2.128   1.569 -0.4617 -0.7545 -0.1828
 3386TIP3    H131793   3.487   2.144   1.660  0.8377 -1.8799 -0.2995
 3386TIP3    H231794   3.491   2.206   1.522  1.8675 -1.4604 -0.0876
 3387TIP3   OH231795   3.643   5.113   2.022  0.5686 -0.2639 -0.1446
 3387TIP3    H131796   3.631   5.165   1.942  0.6814  1.6584  1.0247
 3387TIP3    H231797   3.559   5.068   2.034  0.3675 -0.1430 -1.0313
 3388TIP3   OH231798   0.756   1.152   0.354 -0.5055  0.2183  0.2980
 3388TIP3    H131799   0.716   1.123   0.272  0.1789  0.7217 -0.2223
 3388TIP3    H231800   0.696   1.218   0.388 -1.0523 -0.3578  0.4677
 3389TIP3   OH231801   4.103   1.566   1.656  0.2856 -0.2722  0.4726
 3389TIP3    H131802   4.156   1.546   1.733  1.7338 -2.4500 -0.9757
 3389TIP3    H231803   4.164   1.612   1.597  0.3648 -1.9373 -0.8220
 3390TIP3   OH231804   6.814   1.827   7.714 -0.2240 -0.3764  0.1219
 3390TIP3    H131805   6.788   1.910   7.755 -0.1834 -0.4535  0.3052
 3390TIP3    H231806   6.765   1.825   7.632  0.9461  0.5488 -0.6272
 3391TIP3   OH231807   2.178   1.538   0.428  0.0331  0.1370 -0.3696
 3391TIP3    H131808   2.145   1.584   0.505 -3.3063 -1.5894 -0.5577
 3391TIP3    H231809   2.118   1.563   0.358 -0.6769 -2.7198 -0.9319
 3392TIP3   OH231810   4.170   4.850   0.769  0.2908 -0.3598  0.4756
 3392TIP3    H131811   4.242   4.876   0.826  0.5692  0.8484 -0.3996
 3392TIP3    H231812   4.092   4.860   0.823  0.6453 -0.2401  0.9734
 3393TIP3   OH231813   3.864   5.526   7.289  0.3543 -0.5537 -0.8377
 3393TIP3    H131814   3.818   5.514   7.373  1.2593 -0.5897 -0.3371
 3393TIP3    H231815   3.946   5.569   7.312  1.2862 -1.8797 -1.5118
 3394TIP3   OH231816   3.416   5.189   6.774  0.0864 -0.3542 -0.0182
 3394TIP3    H131817   3.477   5.262   6.786 -0.3466 -0.0801  0.5922
 3394TIP3    H231818   3.413   5.147   6.860 -0.9407 -0.0681  0.1019
 3395TIP3   OH231819   1.115   0.949   8.077 -0.3707  0.2021  0.3510
 3395TIP3    H131820   1.164   0.872   8.106 -1.3721 -0.5136  0.2089
 3395TIP3    H231821   1.102   1.000   8.157  1.7122  1.0844  0.1820
 3396TIP3   OH231822   5.797   4.935   0.742 -0.1866 -0.7023 -0.2513
 3396TIP3    H131823   5.850   5.003   0.784 -0.2514 -0.8322  0.0501
 3396TIP3    H231824   5.844   4.854   0.760 -0.6846 -0.8638  0.3586
 3397TIP3   OH231825   2.654   4.183   0.913  0.2671  0.1107 -0.0779
 3397TIP3    H131826   2.573   4.220   0.950 -0.0504 -0.2230 -0.4336
 3397TIP3    H231827   2.706   4.260   0.889  0.2727  0.3318  0.6037
 3398TIP3   OH231828   6.413   2.415   6.454  0.1668 -0.1941  0.2282
 3398TIP3    H131829   6.395   2.351   6.524  1.4189  0.0275  0.7890
 3398TIP3    H231830   6.345   2.481   6.464  0.2045 -0.2731  1.1216
 3399TIP3   OH231831   5.944   4.856   0.187  0.4992 -0.4104  0.6560
 3399TIP3    H131832   5.899   4.869   0.271 -2.1556 -1.9876 -0.3932
 3399TIP3    H231833   5.928   4.764   0.165  0.1201  0.2271 -2.0926
 3400TIP3   OH231834   1.002   4.593   8.746 -0.2204 -0.4041  0.1305
 3400TIP3    H131835   0.924   4.543   8.723  0.0262 -0.1504 -1.3763
 3400TIP3    H231836   1.070   4.560   8.686  0.8761 -0.6966  1.4692
 3401TIP3   OH231837   1.592   3.674   1.831  0.1618  0.0337  0.2824
 3401TIP3    H131838   1.594   3.763   1.865  1.9852  0.0739  0.1700
 3401TIP3    H231839   1.528   3.629   1.885  1.4372  0.6281  2.4099
 3402TIP3   OH231840   3.372   3.196   1.856  0.2750 -0.3369  0.3032
 3402TIP3    H131841   3.445   3.256   1.872  0.5565 -0.6192  0.0994
 3402TIP3    H231842   3.350   3.162   1.943 -0.5756  0.8338  0.5698
 3403TIP3   OH231843   0.494   2.298   7.013  0.2489  0.3033 -0.4377
 3403TIP3    H131844   0.514   2.284   6.920 -0.2908  0.3997 -0.5725
 3403TIP3    H231845   0.579   2.316   7.053  0.2963  2.2949 -1.2816
 3404TIP3   OH231846   2.942   4.891   1.501 -0.3254 -0.0449  0.1563
 3404TIP3    H131847   2.948   4.817   1.441 -1.7294 -1.7602  1.9799
 3404TIP3    H231848   3.019   4.883   1.557 -1.4620 -1.4469  1.6392
 3405TIP3   OH231849   4.525   3.230   7.268  0.3267  0.5034  0.1701
 3405TIP3    H131850   4.528   3.258   7.176 -0.0004 -0.7429 -0.2393
 3405TIP3    H231851   4.485   3.304   7.314  1.4960  1.5847 -0.4974
 3406TIP3   OH231852   3.433   1.830   8.877  0.0769  0.2357 -0.1798
 3406TIP3    H131853   3.379   1.806   8.801  0.8683  0.5663 -0.8720
 3406TIP3    H231854   3.500   1.762   8.880 -0.0765  0.1086  0.3610
 3407TIP3   OH231855   0.264   6.249   7.497  0.7129  0.1218 -0.8382
 3407TIP3    H131856   0.248   6.180   7.562  0.8927  2.8929  2.4713
 3407TIP3    H231857   0.188   6.246   7.440 -0.3033 -1.5073  0.5118
 3408TIP3   OH231858   0.473   2.192   0.405 -0.1364 -0.6457  0.2259
 3408TIP3    H131859   0.488   2.187   0.499  1.1116  2.2196  0.2920
 3408TIP3    H231860   0.558   2.172   0.366 -0.2378 -0.2953 -0.1940
 3409TIP3   OH231861   5.126   6.370   7.136 -0.3026 -0.4265  1.0316
 3409TIP3    H131862   5.088   6.456   7.152  0.5303 -0.4370  3.6354
 3409TIP3    H231863   5.074   6.310   7.190  0.5349 -1.1750  1.0351
 3410TIP3   OH231864   4.632   6.749   8.691 -0.0875  0.0418 -0.3274
 3410TIP3    H131865   4.631   6.814   8.761  2.3435 -0.7382  0.5404
 3410TIP3    H231866   4.619   6.665   8.735  0.7752 -0.3935 -0.8564
 3411TIP3   OH231867   2.620   3.598   7.309  0.2901  0.1771  0.0817
 3411TIP3    H131868   2.682   3.629   7.243 -1.5127 -0.9152 -2.2571
 3411TIP3    H231869   2.558   3.544   7.260 -1.3197 -0.4645  2.6589
 3412TIP3   OH231870   4.588   6.802   7.720  0.1277 -0.1218 -0.2263
 3412TIP3    H131871   4.582   6.707   7.728 -0.3764 -0.0175  0.9727
 3412TIP3    H231872   4.501   6.834   7.746  0.1923  0.6571 -0.9149
 3413TIP3   OH231873   0.432   2.115   8.399  0.2138  0.4849 -0.2145
 3413TIP3    H131874   0.370   2.179   8.432 -1.2373 -0.5276 -0.8515
 3413TIP3    H231875   0.379   2.037   8.381  1.4015  0.0496 -2.1628
 3414TIP3   OH231876   1.772   5.018   0.239  0.0288 -0.4348  0.3370
 3414TIP3    H131877   1.770   5.097   0.294  3.1409 -0.2632  0.3831
 3414TIP3    H231878   1.822   5.045   0.162 -0.3504 -1.9371 -0.4642
 3415TIP3   OH231879   4.707   4.175   2.323 -0.3109  0.0472 -0.0190
 3415TIP3    H131880   4.699   4.086   2.359  1.4434 -0.3462 -0.5363
 3415TIP3    H231881   4.720   4.230   2.400 -0.3483 -0.2792  0.2236
 3416TIP3   OH231882   0.344   0.405   7.530  0.0775 -0.4449  0.0412
 3416TIP3    H131883   0.383   0.493   7.535 -0.0754 -0.3438 -0.5117
 3416TIP3    H231884   0.330   0.390   7.437 -1.0986 -0.5264  0.2118
 3417TIP3   OH231885   1.500   4.962   8.056 -0.5031  0.0298 -0.1794
 3417TIP3    H131886   1.497   4.875   8.096 -0.4544 -1.1544 -2.5611
 3417TIP3    H231887   1.445   5.017   8.113  1.3292 -0.9010  2.6936
 3418TIP3   OH231888   0.687   5.506   0.071  0.0697 -0.6008 -0.1559
 3418TIP3    H131889   0.593   5.504   0.092  0.1949 -0.9290  0.3965
 3418TIP3    H231890   0.719   5.419   0.095  0.4999 -0.5210 -0.4242
 3419TIP3   OH231891   4.787   1.358   0.007  0.1683  0.2742 -0.0317
 3419TIP3    H131892   4.765   1.407   0.086  0.1039 -0.2308  0.2615
 3419TIP3    H231893   4.720   1.290  -0.001  0.0466  0.4522 -0.6419
 3420TIP3   OH231894   0.443   4.226   0.365 -0.0520  0.4164  0.2678
 3420TIP3    H131895   0.525   4.197   0.324 -0.3224 -0.2041  0.1654
 3420TIP3    H231896   0.393   4.146   0.379 -1.3433  0.9213 -1.1315
 3421TIP3   OH231897   1.235   4.660   0.661  0.2803  0.2172  0.1170
 3421TIP3    H131898   1.291   4.723   0.617 -0.1526  0.2753 -0.3654
 3421TIP3    H231899   1.164   4.713   0.699  0.1763  0.0756  0.1231
 3422TIP3   OH231900   2.558   2.797   0.962 -0.1341 -0.1005 -0.0258
 3422TIP3    H131901   2.486   2.734   0.958  1.8245 -2.5571  0.5796
 3422TIP3    H231902   2.603   2.786   0.877  1.5380 -1.3308  0.9415
 3423TIP3   OH231903   2.214   2.476   8.469 -0.0905 -0.0858  0.1019
 3423TIP3    H131904   2.148   2.412   8.498  0.9803 -1.6420 -0.7330
 3423TIP3    H231905   2.177   2.513   8.389  0.3551 -1.5427 -0.8103
 3424TIP3   OH231906   6.524   5.973   6.729  0.2441  0.1526 -0.2916
 3424TIP3    H131907   6.527   5.935   6.817  0.6821  0.1086 -0.3249
 3424TIP3    H231908   6.563   5.906   6.673 -0.5465 -0.0583 -0.6114
 3425TIP3   OH231909   1.240   5.969   8.447  0.1702  0.0187  0.5949
 3425TIP3    H131910   1.286   6.019   8.379 -0.3867  1.2264  1.0832
 3425TIP3    H231911   1.240   5.879   8.414 -0.5293  0.6462 -1.2645
 3426TIP3   OH231912   3.239   2.069   6.906  0.4049 -0.0845 -0.2476
 3426TIP3    H131913   3.174   2.069   6.835  1.2217  0.7748 -1.0193
 3426TIP3    H231914   3.200   2.123   6.974  0.4811  0.7856 -0.8819
 3427TIP3   OH231915   3.536   0.123   1.525  0.0095 -0.3057  0.1737
 3427TIP3    H131916   3.469   0.150   1.462 -0.1096  0.4999  0.6333
 3427TIP3    H231917   3.498   0.046   1.568  0.2182 -1.0514 -0.9306
 3428TIP3   OH231918   6.159   0.312   7.993 -0.3657  0.3076 -0.2894
 3428TIP3    H131919   6.201   0.360   8.064  0.1305  1.0628 -1.0812
 3428TIP3    H231920   6.068   0.341   7.994 -0.2919  0.5337 -0.1520
 3429TIP3   OH231921   4.646   3.681   0.010 -0.1480  0.0635 -0.5460
 3429TIP3    H131922   4.596   3.714  -0.065 -1.3511 -0.5342 -0.0383
 3429TIP3    H231923   4.582   3.633   0.062  0.7389  0.2028  0.7167
 3430TIP3   OH231924   4.379   2.944   7.644  0.1572 -0.0273 -0.6144
 3430TIP3    H131925   4.386   3.002   7.720  0.5154 -0.7643 -0.0632
 3430TIP3    H231926   4.454   2.885   7.653  1.0318  0.7641 -2.3306
 3431TIP3   OH231927   4.506   1.738   8.322 -0.2238  0.5389 -0.5703
 3431TIP3    H131928   4.462   1.778   8.396 -0.9479  2.0609 -1.7642
 3431TIP3    H231929   4.482   1.646   8.326 -1.0930  0.7970  0.4835
 3432TIP3   OH231930   2.672   4.410   7.697  0.3151 -0.1194 -0.6773
 3432TIP3    H131931   2.698   4.361   7.619  1.2283 -0.7524  0.0072
 3432TIP3    H231932   2.754   4.447   7.730  0.6574 -2.9237  2.0741
 3433TIP3   OH231933   4.260   3.132   8.041  0.4697  0.3188  0.1037
 3433TIP3    H131934   4.194   3.161   7.978  1.1344 -1.8199 -1.7119
 3433TIP3    H231935   4.220   3.056   8.084  0.0388  1.7259  2.3360
 3434TIP3   OH231936   5.465   2.604   8.786  0.1966 -1.0012  0.5862
 3434TIP3    H131937   5.374   2.608   8.757  0.1492  1.3096  0.9112
 3434TIP3    H231938   5.513   2.658   8.723  1.2396 -1.6219  0.8246
 3435TIP3   OH231939   0.418   1.501   8.754 -0.6310 -0.3076  0.4371
 3435TIP3    H131940   0.345   1.552   8.720 -0.1315  0.4105  0.4095
 3435TIP3    H231941   0.490   1.564   8.762 -0.2405 -0.8286  1.2062
 3436TIP3   OH231942   4.769   3.736   7.836 -0.1448 -0.0403  0.0652
 3436TIP3    H131943   4.716   3.657   7.848 -0.2805 -0.1983 -1.3652
 3436TIP3    H231944   4.787   3.738   7.742  3.2751 -0.5673  0.5737
 3437TIP3   OH231945   3.181   5.551   7.500 -0.1017 -0.2287 -0.1245
 3437TIP3    H131946   3.116   5.621   7.511  0.2420 -0.0303  0.7248
 3437TIP3    H231947   3.250   5.590   7.447 -0.7295 -0.4838 -1.1557
 3438TIP3   OH231948   2.646   3.692   7.820  0.7977  0.0721 -0.5543
 3438TIP3    H131949   2.594   3.684   7.740  1.0373  1.1340 -0.8284
 3438TIP3    H231950   2.713   3.624   7.812  2.0741  1.4501 -2.2459
 3439TIP3   OH231951   4.585   4.007   8.246 -0.0548  0.2846 -0.1720
 3439TIP3    H131952   4.555   4.096   8.224 -0.8066  0.0194 -0.2373
 3439TIP3    H231953   4.557   3.953   8.172 -1.3668 -0.3637  0.7562
 3440TIP3   OH231954   3.090   0.064   7.946  0.0716 -0.0261 -0.0668
 3440TIP3    H131955   3.009   0.036   7.988 -0.4993  1.0631 -0.3908
 3440TIP3    H231956   3.114  -0.007   7.888 -0.1014 -0.7830  0.7669
 3441TIP3   OH231957   5.003   3.295   2.293  0.0240  0.1874  0.3731
 3441TIP3    H131958   4.980   3.380   2.256  0.7651  0.0475 -0.4464
 3441TIP3    H231959   5.068   3.314   2.360 -2.0486  0.5439  2.4097
 3442TIP3   OH231960   2.913   1.822   8.784  0.0670 -0.0046  0.2299
 3442TIP3    H131961   2.921   1.747   8.844  0.0896  1.1769  1.7777
 3442TIP3    H231962   2.954   1.792   8.703 -0.7618 -1.9956  0.4673
 3443TIP3   OH231963   6.627   6.225   6.273  0.2532 -0.3590  0.5474
 3443TIP3    H131964   6.596   6.308   6.309 -0.3248 -0.5065  0.4031
 3443TIP3    H231965   6.718   6.218   6.302  0.9254  1.2126 -0.9856
 3444TIP3   OH231966   1.990   1.612   0.267 -0.0329 -0.3879 -0.1619
 3444TIP3    H131967   1.919   1.572   0.318 -0.6508  0.4546 -0.3350
 3444TIP3    H231968   1.945   1.664   0.201  0.7588 -0.8568 -1.0961
 3445TIP3   OH231969   1.023   4.766   0.366 -0.0354 -0.7168  0.6401
 3445TIP3    H131970   0.972   4.769   0.447  1.5281 -2.6535  1.8008
 3445TIP3    H231971   1.049   4.674   0.358  1.6309 -0.1693 -0.9203
 3446TIP3   OH231972   6.567   1.188   0.602  0.1660  0.2925  0.0870
 3446TIP3    H131973   6.503   1.257   0.620 -1.2987 -0.3643 -2.1170
 3446TIP3    H231974   6.516   1.107   0.607  0.8202 -0.2669 -1.5717
 3447TIP3   OH231975   0.035   6.565   7.549 -0.1586  0.1014  0.1886
 3447TIP3    H131976   0.034   6.647   7.599  0.9191 -0.3972  1.0493
 3447TIP3    H231977   0.126   6.554   7.522 -0.3180 -0.7398 -0.0344
 3448TIP3   OH231978   5.855   5.467   2.095 -0.6184  0.3212 -0.1625
 3448TIP3    H131979   5.943   5.446   2.127 -0.5489  2.9269  1.6713
 3448TIP3    H231980   5.867   5.545   2.041 -1.3468 -1.6321 -3.4027
 3449TIP3   OH231981   1.015   0.277   0.919  0.0566 -0.6916  0.2245
 3449TIP3    H131982   0.951   0.226   0.968 -1.1552 -0.5026 -1.0829
 3449TIP3    H231983   1.085   0.215   0.898 -0.4871 -1.3235  0.2682
 3450TIP3   OH231984   3.378   0.600   8.778  0.2118  0.1166 -0.4476
 3450TIP3    H131985   3.411   0.580   8.866  0.8541  0.0837 -0.6910
 3450TIP3    H231986   3.348   0.691   8.784 -2.7467 -0.8239  0.6705
 3451TIP3   OH231987   5.086   1.894   0.561 -0.8263 -0.3733  0.2487
 3451TIP3    H131988   5.059   1.803   0.547 -1.5995  0.1826 -2.6110
 3451TIP3    H231989   5.005   1.944   0.552 -0.0580  0.7626 -0.5429
 3452TIP3   OH231990   3.309   6.766   8.774 -0.1159 -0.1297 -0.2636
 3452TIP3    H131991   3.301   6.792   8.682 -0.0709 -0.4111 -0.3515
 3452TIP3    H231992   3.221   6.736   8.798  0.5168 -3.1434 -1.1999
 3453TIP3   OH231993   1.546   5.061   6.804 -0.3721  0.7257 -0.0094
 3453TIP3    H131994   1.593   4.981   6.831 -1.1765  0.0423 -0.5871
 3453TIP3    H231995   1.455   5.044   6.828 -0.4688  1.6971  0.3341
 3454TIP3   OH231996   0.409   2.296   7.592 -0.2297  0.0557  0.1752
 3454TIP3    H131997   0.368   2.232   7.650 -0.7944  0.3094  0.0604
 3454TIP3    H231998   0.394   2.262   7.504 -0.5480  0.3566  0.1125
 3455TIP3   OH231999   1.429   5.028   2.159 -0.3209 -0.0944  0.0185
 3455TIP3    H132000   1.456   4.993   2.244  1.0581 -0.6593 -0.6297
 3455TIP3    H232001   1.369   5.099   2.181  0.8294  0.4752  1.4956
 3456TIP3   OH232002   4.475   5.095   2.343  0.8170  0.0433 -0.1059
 3456TIP3    H132003   4.552   5.147   2.365  1.7673 -0.7974 -1.3027
 3456TIP3    H232004   4.487   5.013   2.391 -0.1163  0.4691  0.8949
 3457TIP3   OH232005   2.865   5.191   7.403  0.9456  0.1795 -0.0931
 3457TIP3    H132006   2.853   5.240   7.485 -1.7512 -1.3053  0.5269
 3457TIP3    H232007   2.928   5.243   7.353  0.6135  2.5866  1.7810
 3458TIP3   OH232008   0.207   4.582   6.703 -0.0583 -0.1166 -0.3055
 3458TIP3    H132009   0.253   4.512   6.749 -0.7135 -0.3142  0.0712
 3458TIP3    H232010   0.116   4.552   6.700 -0.3232  0.6714 -0.2362
 3459TIP3   OH232011   6.003   4.171   6.457 -0.3508  0.6205  0.0743
 3459TIP3    H132012   5.929   4.120   6.489  0.3403 -0.2051  0.3896
 3459TIP3    H232013   6.039   4.118   6.385  0.8285  0.2721  0.8957
 3460TIP3   OH232014   3.667   4.938   0.766 -0.5191 -0.4762 -0.0592
 3460TIP3    H132015   3.707   4.851   0.759 -0.8400 -0.5937 -0.4393
 3460TIP3    H232016   3.657   4.967   0.676 -0.0343  0.1320  0.0761
 3461TIP3   OH232017   0.481   5.405   7.396 -0.3213 -0.1617  0.5752
 3461TIP3    H132018   0.557   5.432   7.345 -0.0300  0.8034  1.4611
 3461TIP3    H232019   0.514   5.397   7.486 -1.0513 -0.7190  0.8048
 3462TIP3   OH232020   5.560   5.344   0.469  0.1470 -0.1648 -0.5554
 3462TIP3    H132021   5.601   5.429   0.487 -0.0630 -0.3773  1.1418
 3462TIP3    H232022   5.626   5.296   0.419  1.4353  0.0357  0.8457
 3463TIP3   OH232023   3.242   4.372   2.026  0.0452  0.2152 -0.1640
 3463TIP3    H132024   3.337   4.377   2.043 -0.0211  1.9356 -0.1645
 3463TIP3    H232025   3.226   4.440   1.960 -1.0305 -0.8387 -1.0269
 3464TIP3   OH232026   3.176   5.025   0.033 -0.0575  0.2655 -0.6965
 3464TIP3    H132027   3.269   5.016   0.011 -0.0269  0.4895 -0.6583
 3464TIP3    H232028   3.149   5.108  -0.007  0.1792  1.0527  0.6902
 3465TIP3   OH232029   5.666   1.955   8.023 -0.6155  0.0230 -0.0129
 3465TIP3    H132030   5.585   1.940   7.974  0.2325  0.5611 -1.6341
 3465TIP3    H232031   5.687   1.869   8.060 -2.3612  0.0519  1.1865
 3466TIP3   OH232032   6.304   1.657   1.698  0.3780  0.3105  0.3605
 3466TIP3    H132033   6.247   1.677   1.772  0.7740  2.1525  0.2198
 3466TIP3    H232034   6.368   1.594   1.732 -1.0802 -1.0001  0.7932
 3467TIP3   OH232035   0.116   2.238   1.566 -0.2035  0.9660  0.4941
 3467TIP3    H132036   0.039   2.290   1.589 -0.3237  2.0268 -1.9354
 3467TIP3    H232037   0.085   2.178   1.498  1.2173  2.1022 -1.2714
 3468TIP3   OH232038   2.921   5.978   8.193 -0.5793 -0.3699 -0.0226
 3468TIP3    H132039   2.963   5.899   8.229  1.9267  0.4813 -0.8266
 3468TIP3    H232040   2.830   5.971   8.219  0.0829 -2.2829  2.1081
 3469TIP3   OH232041   2.954   3.682   0.013 -0.1373  0.3468  0.1596
 3469TIP3    H132042   2.885   3.658  -0.049 -0.8070  1.0476  0.6211
 3469TIP3    H232043   2.942   3.623   0.087 -3.2167  3.3361  2.3152
 3470TIP3   OH232044   3.625   5.139   1.178 -0.3277 -0.2449 -0.0251
 3470TIP3    H132045   3.658   5.159   1.090 -1.1911 -0.3139 -0.3789
 3470TIP3    H232046   3.645   5.218   1.229 -0.9706  0.3245 -0.6273
 3471TIP3   OH232047   0.390   5.629   0.118  0.2482 -0.4110  0.3325
 3471TIP3    H132048   0.320   5.623   0.054  1.1864  1.2848 -0.9108
 3471TIP3    H232049   0.365   5.702   0.175  0.6846 -0.2077  0.2708
 3472TIP3   OH232050   2.263   2.317   0.069 -0.0588 -0.1006 -0.0416
 3472TIP3    H132051   2.183   2.359   0.100  0.1924 -0.4201  1.0998
 3472TIP3    H232052   2.327   2.389   0.063  0.3625 -0.2540  1.8764
 3473TIP3   OH232053   6.060   5.917   8.740 -0.0853  0.2319 -0.2396
 3473TIP3    H132054   6.114   5.932   8.818 -1.1468 -0.6936  0.7141
 3473TIP3    H232055   6.049   5.822   8.736  1.4118  0.0828 -2.5769
 3474TIP3   OH232056   0.268   3.349   1.532  0.2868 -0.1598  0.1168
 3474TIP3    H132057   0.182   3.323   1.565  0.3897  0.2218  0.6983
 3474TIP3    H232058   0.310   3.394   1.606  0.5745  0.5794 -0.4828
 3475TIP3   OH232059   2.515   1.231   0.745 -0.6049  0.1723  0.2324
 3475TIP3    H132060   2.425   1.250   0.718 -0.8344 -0.1368  0.7593
 3475TIP3    H232061   2.522   1.136   0.742 -0.1073  0.2244 -0.3831
 3476TIP3   OH232062   5.450   1.451   8.155  0.1595  0.3092 -0.2491
 3476TIP3    H132063   5.388   1.525   8.152  0.0801  0.3321  1.3436
 3476TIP3    H232064   5.434   1.410   8.239  2.2236  0.2147  0.1412
 3477TIP3   OH232065   1.120   4.057   7.962 -0.5336 -0.8266  0.0800
 3477TIP3    H132066   1.050   4.025   7.905 -0.7382  0.5265 -0.4520
 3477TIP3    H232067   1.197   4.059   7.905 -0.7089  0.4035 -0.1336
 3478TIP3   OH232068   1.962   0.386   7.611  0.5602  0.0094  0.0948
 3478TIP3    H132069   2.030   0.392   7.543  1.7302 -0.6491  1.1579
 3478TIP3    H232070   1.987   0.451   7.676 -0.4567  0.5146 -0.0041
 3479TIP3   OH232071   5.370   4.383   0.817 -1.0705  0.1831  0.5905
 3479TIP3    H132072   5.275   4.387   0.822 -1.0102  0.9763  1.4408
 3479TIP3    H232073   5.390   4.293   0.791 -2.1121  0.5248 -1.6658
 3480TIP3   OH232074   3.595   0.938   8.168 -0.2794 -0.2122 -0.7618
 3480TIP3    H132075   3.606   0.957   8.262  0.0341 -2.8347 -0.1910
 3480TIP3    H232076   3.665   0.988   8.126  0.9047 -0.5876  0.6590
 3481TIP3   OH232077   5.977   0.426   2.003 -0.0611  0.2658  0.0542
 3481TIP3    H132078   5.965   0.515   2.038  2.1063  0.7835 -0.3834
 3481TIP3    H232079   6.068   0.405   2.021 -0.6180 -2.0920  0.5316
 3482TIP3   OH232080   3.767   6.205   7.029 -0.4243 -0.3432  0.7600
 3482TIP3    H132081   3.811   6.287   7.050  0.2564  0.0637 -1.8612
 3482TIP3    H232082   3.675   6.230   7.016 -0.5622 -0.3433  1.6688
 3483TIP3   OH232083   2.768   3.691   7.083  0.1217 -0.2133  0.3930
 3483TIP3    H132084   2.713   3.733   7.017 -1.0799  1.7872  2.5370
 3483TIP3    H232085   2.810   3.763   7.129  1.0717 -1.5355  1.7146
 3484TIP3   OH232086   2.428   3.110   6.502 -0.6168  0.6602 -0.1550
 3484TIP3    H132087   2.345   3.156   6.513 -1.6314 -0.5031 -2.2888
 3484TIP3    H232088   2.459   3.138   6.416  0.9689  0.6550  0.3798
 3485TIP3   OH232089   1.141   1.908   0.595 -0.3415 -0.0675  0.1710
 3485TIP3    H132090   1.129   1.835   0.656 -1.4707  0.4579  0.6164
 3485TIP3    H232091   1.205   1.966   0.638 -2.9670  1.5894  2.1946
 3486TIP3   OH232092   2.666   4.743   7.581  0.4326  0.0729 -0.2217
 3486TIP3    H132093   2.635   4.779   7.498  1.8765  1.1498 -0.3297
 3486TIP3    H232094   2.759   4.727   7.567  0.6844  0.2021  1.1678
 3487TIP3   OH232095   3.729   6.425   0.340  0.0650  0.6495 -0.1613
 3487TIP3    H132096   3.653   6.367   0.336  0.5945 -0.0878  0.1533
 3487TIP3    H232097   3.757   6.436   0.249  1.2588 -1.3845 -0.1071
 3488TIP3   OH232098   1.783   1.450   1.555  0.2420  0.0911 -0.1747
 3488TIP3    H132099   1.814   1.519   1.497 -0.6905  0.4324 -0.2914
 3488TIP3    H232100   1.859   1.394   1.569  0.2919 -0.4827 -2.3842
 3489TIP3   OH232101   2.393   2.367   1.018 -0.3004  0.2268  0.3820
 3489TIP3    H132102   2.392   2.463   1.017  0.7807  0.2710  1.2910
 3489TIP3    H232103   2.397   2.344   1.111 -0.3440 -0.7046  0.1668
 3490TIP3   OH232104   0.496   5.068   0.969 -0.0355  0.6121 -0.1196
 3490TIP3    H132105   0.479   5.032   0.882  4.6115 -2.8847 -0.0216
 3490TIP3    H232106   0.473   4.997   1.029  0.0344  1.6508  1.1873
 3491TIP3   OH232107   2.976   3.224   7.917  0.1372  0.2858  0.2980
 3491TIP3    H132108   3.023   3.308   7.919 -1.7451  1.3821  0.3260
 3491TIP3    H232109   3.041   3.162   7.885  0.8773  2.2270 -2.3231
 3492TIP3   OH232110   5.434   3.455   0.477 -0.3670  0.3612  0.0773
 3492TIP3    H132111   5.492   3.518   0.434 -0.8455 -0.5423 -1.9761
 3492TIP3    H232112   5.346   3.489   0.461 -0.5410  0.3108  0.8822
 3493TIP3   OH232113   4.354   0.775   8.059  0.5785 -0.0876  0.7473
 3493TIP3    H132114   4.279   0.732   8.102 -0.7228  1.7445  0.4347
 3493TIP3    H232115   4.430   0.746   8.109 -0.6473  0.2533  2.9373
 3494TIP3   OH232116   5.097   0.278   8.027 -0.5536  0.2496 -0.2731
 3494TIP3    H132117   5.037   0.273   8.101  0.6527 -0.0777  0.7045
 3494TIP3    H232118   5.099   0.189   7.991  1.5862 -0.5211  1.5513
 3495TIP3   OH232119   0.393   6.782   8.840 -0.0527  0.0174 -0.4279
 3495TIP3    H132120   0.346   6.841   8.782  1.5278  0.3966 -1.3873
 3495TIP3    H232121   0.353   6.795   8.926 -0.1772  1.9896 -0.7575
 3496TIP3   OH232122   5.885   5.210   1.362  0.2164 -0.5997  0.2726
 3496TIP3    H132123   5.861   5.189   1.272  1.2991 -2.8576  0.4542
 3496TIP3    H232124   5.852   5.137   1.414  0.9156 -0.0725  1.5114
 3497TIP3   OH232125   4.187   4.553   0.573 -0.5602 -0.2532 -0.3266
 3497TIP3    H132126   4.100   4.530   0.606 -1.3928  1.4244 -1.2331
 3497TIP3    H232127   4.170   4.610   0.498  1.3417  1.0359  0.1599
 3498TIP3   OH232128   4.309   4.185   7.384 -0.5837  0.0404  0.1583
 3498TIP3    H132129   4.390   4.211   7.428 -0.1204  1.0883 -1.2576
 3498TIP3    H232130   4.292   4.096   7.416 -0.2801  0.7328  2.4280
 3499TIP3   OH232131   0.374   0.522   8.427  0.4837  0.1705  0.5737
 3499TIP3    H132132   0.348   0.594   8.485 -0.6207  1.4140 -1.3110
 3499TIP3    H232133   0.329   0.445   8.462  0.1048  0.8114  1.5356
 3500TIP3   OH232134   6.748   3.850   8.506 -0.1851 -0.2171 -0.6411
 3500TIP3    H132135   6.737   3.766   8.550  1.8056 -1.7561 -2.8432
 3500TIP3    H232136   6.676   3.855   8.444  0.1541 -0.7249 -1.0838
 3501TIP3   OH232137   0.279   5.433   8.373 -0.6408 -0.1234 -0.1805
 3501TIP3    H132138   0.329   5.361   8.334 -1.4475 -1.7155  1.5875
 3501TIP3    H232139   0.338   5.471   8.437 -1.4071 -1.6237  1.4865
 3502TIP3   OH232140   1.064   1.186   8.247 -0.2300 -0.3145 -0.3736
 3502TIP3    H132141   1.119   1.265   8.249  1.5554 -1.5216 -0.3516
 3502TIP3    H232142   1.048   1.166   8.340 -0.7400  0.0203 -0.3791
 3503TIP3   OH232143   4.678   3.068   0.045 -0.0217  0.1679 -0.7963
 3503TIP3    H132144   4.758   3.016   0.052 -0.4692 -0.4073  0.3584
 3503TIP3    H232145   4.708   3.154   0.017  1.3722  0.7494  2.0874
 3504TIP3   OH232146   1.046   6.442   0.144  0.0241  0.1281  0.6294
 3504TIP3    H132147   1.033   6.428   0.238 -2.9460 -0.6468  0.2107
 3504TIP3    H232148   1.042   6.537   0.134 -0.1414  0.1928  1.2403
 3505TIP3   OH232149   4.574   2.561   7.183  0.6080  0.2253  0.6168
 3505TIP3    H132150   4.556   2.493   7.248  0.3543 -0.2407  0.0686
 3505TIP3    H232151   4.629   2.518   7.117 -1.5364 -0.2106 -1.0161
 3506TIP3   OH232152   5.583   3.052   6.449 -0.8149 -0.0544 -0.4797
 3506TIP3    H132153   5.588   3.108   6.372  0.4901 -0.4888 -0.7406
 3506TIP3    H232154   5.674   3.046   6.480 -0.5888 -3.2163 -1.3733
 3507TIP3   OH232155   3.594   6.320   7.669 -0.0051 -0.1548  0.5101
 3507TIP3    H132156   3.685   6.349   7.658 -0.1025  0.3654  1.0391
 3507TIP3    H232157   3.565   6.362   7.750 -0.8544  0.0341  0.1180
 3508TIP3   OH232158   5.139   0.431   0.683  0.4752 -0.2472 -0.4745
 3508TIP3    H132159   5.166   0.499   0.745 -0.1836  0.6080 -1.0947
 3508TIP3    H232160   5.163   0.466   0.598 -2.0021  0.3545 -1.0240
 3509TIP3   OH232161   2.529   2.154   0.557  0.0024  0.1060  0.0425
 3509TIP3    H132162   2.523   2.243   0.593  0.6339 -0.3693  1.3823
 3509TIP3    H232163   2.508   2.165   0.464 -1.8674  1.3479  0.5538
 3510TIP3   OH232164   6.706   3.475   1.441  0.1049 -0.5437  0.3896
 3510TIP3    H132165   6.771   3.437   1.500  0.2041 -0.0380  0.6124
 3510TIP3    H232166   6.639   3.511   1.499  0.0126 -0.3816  0.1854
 3511TIP3   OH232167   6.353   6.639   6.811 -0.3160 -0.0691 -0.0509
 3511TIP3    H132168   6.448   6.641   6.821 -0.3005  1.1212 -0.2427
 3511TIP3    H232169   6.326   6.559   6.855  0.6298  0.3728  1.4153
 3512TIP3   OH232170   5.872   2.470   7.295  0.2580 -0.2416 -0.1569
 3512TIP3    H132171   5.830   2.531   7.234  0.5158 -0.0486 -0.1415
 3512TIP3    H232172   5.956   2.510   7.315  0.4878 -0.6697 -0.2550
 3513TIP3   OH232173   0.945   6.415   1.035 -0.4940  0.1091 -0.0495
 3513TIP3    H132174   0.984   6.332   1.062 -0.5465  0.1118  0.0329
 3513TIP3    H232175   0.920   6.458   1.117  4.2686  2.5915  0.5133
 3514TIP3   OH232176   5.311   1.963   7.115 -0.1504  0.1511  0.5846
 3514TIP3    H132177   5.285   1.980   7.205 -1.1132  1.7500  0.0486
 3514TIP3    H232178   5.251   2.016   7.062  1.5759  0.7028 -0.9230
 3515TIP3   OH232179   3.575   1.852   8.150  0.1209  0.3477  0.1172
 3515TIP3    H132180   3.596   1.769   8.195  0.3974  0.5440  0.3544
 3515TIP3    H232181   3.497   1.884   8.196 -0.2974 -0.0299 -0.3071
 3516TIP3   OH232182   6.178   1.211   1.797  0.3527 -0.3542 -0.1573
 3516TIP3    H132183   6.128   1.145   1.844  0.0940 -0.0821 -0.0538
 3516TIP3    H232184   6.189   1.283   1.859 -0.2384  0.1302 -0.6007
 3517TIP3   OH232185   0.428   6.169   0.685  0.4520  0.2269  0.8275
 3517TIP3    H132186   0.460   6.252   0.650 -0.3187  0.8408  1.5314
 3517TIP3    H232187   0.507   6.125   0.717  1.0342  0.0846 -0.7359
 3518TIP3   OH232188   1.909   6.050   0.206 -0.2423 -1.1563 -0.6432
 3518TIP3    H132189   1.874   5.962   0.196  0.4106 -1.2191 -3.1221
 3518TIP3    H232190   1.900   6.089   0.119  0.5963  0.7940  0.0891
 3519TIP3   OH232191   1.008   2.692   6.636  0.0079 -0.0504  0.0475
 3519TIP3    H132192   0.958   2.769   6.610  0.0169 -0.1378 -0.2339
 3519TIP3    H232193   1.051   2.663   6.555 -1.0699 -1.1551 -0.1510
 3520TIP3   OH232194   6.083   1.954   7.809 -0.2377  0.2957 -0.3653
 3520TIP3    H132195   6.048   1.866   7.798 -0.3294  0.3620 -0.6136
 3520TIP3    H232196   6.102   1.961   7.902  0.7304 -0.3519 -0.4962
 3521TIP3   OH232197   0.764   3.049   8.544  0.1876 -0.2852  0.5781
 3521TIP3    H132198   0.785   3.137   8.574  0.3269  0.6488 -2.0685
 3521TIP3    H232199   0.685   3.026   8.593 -0.7934  1.9844  0.1849
 3522TIP3   OH232200   4.192   0.805   8.832 -0.0374 -0.0913  0.2794
 3522TIP3    H132201   4.252   0.732   8.850 -0.2964 -0.6536 -1.0098
 3522TIP3    H232202   4.173   0.842   8.918  1.5987 -0.3379  0.7921
 3523TIP3   OH232203   5.925   3.726   1.489 -0.3797 -0.1096  0.1770
 3523TIP3    H132204   5.847   3.780   1.507 -0.8530 -0.2418 -1.2937
 3523TIP3    H232205   5.977   3.779   1.429 -0.5662 -1.0289 -0.8248
 3524TIP3   OH232206   2.006   4.554   7.219 -0.1459 -0.3085 -0.2151
 3524TIP3    H132207   2.080   4.499   7.244 -0.0845  0.2758  0.9287
 3524TIP3    H232208   1.936   4.491   7.199  0.2477 -0.8301  0.0203
 3525TIP3   OH232209   1.368   5.540   8.196  0.0811  0.0227 -0.6212
 3525TIP3    H132210   1.459   5.568   8.205  0.0093  0.4529 -1.1399
 3525TIP3    H232211   1.361   5.511   8.105 -0.7325  1.6801 -1.1314
 3526TIP3   OH232212   1.365   4.948   0.043 -0.2952  0.0251  0.0937
 3526TIP3    H132213   1.433   5.005   0.006  1.1628 -1.9096 -0.3311
 3526TIP3    H232214   1.333   4.897  -0.032 -0.0205 -1.2560  0.8310
 3527TIP3   OH232215   3.304   2.515   7.522  0.1592 -0.0799  0.4622
 3527TIP3    H132216   3.250   2.594   7.512  0.1639 -0.0561  0.6302
 3527TIP3    H232217   3.354   2.511   7.440 -1.2188 -0.9627 -0.3665
 3528TIP3   OH232218   5.953   4.521   6.737 -0.3132 -0.0634 -0.1193
 3528TIP3    H132219   6.026   4.580   6.718 -1.3610  1.5727  0.7053
 3528TIP3    H232220   5.921   4.494   6.652  0.2573  0.4673 -0.5109
 3529TIP3   OH232221   3.988   3.906   1.366  0.2898  0.2776  0.7911
 3529TIP3    H132222   4.067   3.854   1.353  0.7637  1.1738 -0.0757
 3529TIP3    H232223   4.018   3.985   1.411  0.2076  1.3313 -0.8734
 3530TIP3   OH232224   0.451   1.092   7.946  0.3916  0.6553 -0.0419
 3530TIP3    H132225   0.375   1.073   8.001  0.0769  0.3560 -0.5700
 3530TIP3    H232226   0.485   1.175   7.980  0.3988  0.3168  0.8021
 3531TIP3   OH232227   5.344   3.443   7.481  0.7612  0.1776  0.1765
 3531TIP3    H132228   5.307   3.406   7.400  1.4342  1.5842 -0.8070
 3531TIP3    H232229   5.270   3.446   7.542  0.1653 -0.5995 -0.4814
 3532TIP3   OH232230   1.621   5.183   7.091 -0.1885  0.3869  0.1572
 3532TIP3    H132231   1.557   5.117   7.066 -0.9818  0.7556  1.1522
 3532TIP3    H232232   1.690   5.176   7.025 -1.0498 -0.2962 -0.6936
 3533TIP3   OH232233   6.521   4.516   0.562 -0.0135  0.5461 -1.1005
 3533TIP3    H132234   6.598   4.482   0.606 -0.7833  1.7255  1.3693
 3533TIP3    H232235   6.510   4.460   0.485  1.2158 -1.9430  0.4116
 3534TIP3   OH232236   4.228   2.373   0.980 -0.0733  0.2187  0.1261
 3534TIP3    H132237   4.308   2.404   1.022 -0.5621  2.7419 -0.6032
 3534TIP3    H232238   4.249   2.285   0.949  1.7639  0.0892  1.5759
 3535TIP3   OH232239   2.746   3.271   7.417 -0.3777 -0.5406  0.1370
 3535TIP3    H132240   2.765   3.309   7.332  0.1481  1.9201  1.2692
 3535TIP3    H232241   2.657   3.301   7.438 -0.5708 -1.2710  0.4044
 3536TIP3   OH232242   6.714   4.199   7.264 -0.3402 -0.1228  0.2371
 3536TIP3    H132243   6.728   4.276   7.209 -0.9761 -0.1199  0.0697
 3536TIP3    H232244   6.775   4.210   7.336  0.4562 -0.0947 -0.4320
 3537TIP3   OH232245   4.095   2.055   0.859 -0.1616 -0.3438  0.3322
 3537TIP3    H132246   4.052   1.970   0.854  1.1804 -1.0063 -0.7190
 3537TIP3    H232247   4.182   2.040   0.821 -0.2013  1.6790 -0.7162
 3538TIP3   OH232248   4.317   0.774   6.755  0.1109  0.0845  0.3343
 3538TIP3    H132249   4.293   0.865   6.737  0.9611  0.1825 -0.3946
 3538TIP3    H232250   4.314   0.767   6.851  0.6827  1.0733  0.4452
 3539TIP3   OH232251   4.036   4.706   0.351 -0.1311 -0.4935 -0.3950
 3539TIP3    H132252   3.956   4.707   0.403 -0.0869 -1.2654 -0.2983
 3539TIP3    H232253   4.023   4.636   0.287 -0.2381  0.5343 -1.5326
 3540TIP3   OH232254   5.996   5.994   1.802 -0.0128  0.3050 -0.0168
 3540TIP3    H132255   6.018   6.048   1.727 -0.0508 -0.7969 -0.8436
 3540TIP3    H232256   6.069   6.008   1.864  0.4193  0.6050 -0.5863
 3541TIP3   OH232257   6.379   2.421   8.372 -0.5640 -0.2466  0.0340
 3541TIP3    H132258   6.455   2.363   8.384  1.1591  1.4173 -2.0427
 3541TIP3    H232259   6.367   2.462   8.457 -0.1154 -1.6697  0.8158
 3542TIP3   OH232260   2.502   1.029   0.526 -0.5582 -0.1494 -0.2239
 3542TIP3    H132261   2.596   1.044   0.537 -0.3887 -0.7661 -0.7815
 3542TIP3    H232262   2.495   0.978   0.445 -1.4719  1.0999 -0.9852
 3543TIP3   OH232263   4.935   5.156   0.114  0.2197  0.5801 -0.1778
 3543TIP3    H132264   4.851   5.200   0.131 -0.9751 -2.0099  1.2282
 3543TIP3    H232265   4.973   5.143   0.201  1.8841  1.2702 -0.7748
 3544TIP3   OH232266   2.990   2.219   8.304  0.4992 -0.8209  0.1804
 3544TIP3    H132267   2.912   2.215   8.360 -0.6370 -0.6452 -1.3208
 3544TIP3    H232268   3.027   2.305   8.321 -0.1164 -0.5741  0.3073
 3545TIP3   OH232269   2.959   3.422   0.923  0.4275 -0.8405  0.8901
 3545TIP3    H132270   2.908   3.359   0.974 -2.6506 -0.1830 -1.1025
 3545TIP3    H232271   2.893   3.472   0.874  2.9313  1.6051 -0.2270
 3546TIP3   OH232272   2.891   1.113   6.848 -0.2831 -0.4645 -0.8071
 3546TIP3    H132273   2.883   1.155   6.762 -1.2526 -0.5901 -0.7876
 3546TIP3    H232274   2.985   1.099   6.859  0.3155  3.0153 -0.1945
 3547TIP3   OH232275   4.343   2.510   6.603 -0.0350  0.2448 -0.3461
 3547TIP3    H132276   4.292   2.478   6.678  1.8928  1.9925  1.8772
 3547TIP3    H232277   4.280   2.561   6.551 -0.7612  2.2118  2.2132
 3548TIP3   OH232278   0.047   1.228   6.767  0.2419  0.0328  0.2101
 3548TIP3    H132279   0.033   1.151   6.712 -0.2832  1.0608 -1.1446
 3548TIP3    H232280   0.075   1.296   6.706  1.6877  0.6705  1.5151
 3549TIP3   OH232281   6.706   4.642   7.144  0.0915  0.6419  0.2862
 3549TIP3    H132282   6.727   4.673   7.232  0.9109 -0.8308  0.6491
 3549TIP3    H232283   6.738   4.551   7.142 -0.6709  0.3682 -1.2545
 3550TIP3   OH232284   0.789   5.846   0.936  0.3461 -0.2469  0.4654
 3550TIP3    H132285   0.707   5.796   0.932  1.1861 -1.6370  0.1749
 3550TIP3    H232286   0.791   5.880   1.025 -0.1731 -0.8675  0.7267
 3551TIP3   OH232287   6.785   6.100   6.770 -0.7026 -0.0342 -0.1111
 3551TIP3    H132288   6.789   6.105   6.865 -0.9688 -1.1157 -0.0351
 3551TIP3    H232289   6.721   6.031   6.752 -1.3963  0.8150 -1.0832
 3552TIP3   OH232290   6.334   4.989   8.301 -0.8602 -0.0362 -0.1697
 3552TIP3    H132291   6.294   4.916   8.348  0.9819 -1.8632 -1.2691
 3552TIP3    H232292   6.290   4.989   8.216 -1.2316  0.5067  0.0178
 3553TIP3   OH232293   2.838   3.498   7.563  0.4105  0.4122  0.0408
 3553TIP3    H132294   2.891   3.540   7.495  1.0086  1.0319  0.8675
 3553TIP3    H232295   2.832   3.407   7.536  1.5060  0.4343 -0.3179
 3554TIP3   OH232296   1.353   3.175   7.767 -0.8178  0.1754 -0.1664
 3554TIP3    H132297   1.308   3.091   7.775 -0.7152  0.1690  0.3423
 3554TIP3    H232298   1.407   3.166   7.689  1.0659 -1.1033  1.2270
 3555TIP3   OH232299   1.238   1.936   7.585 -0.1184  0.0309  0.0952
 3555TIP3    H132300   1.223   1.860   7.529 -0.3652  0.8412 -0.9655
 3555TIP3    H232301   1.330   1.928   7.612  0.2123 -0.0159 -0.9909
 3556TIP3   OH232302   5.526   3.420   1.386 -0.5702  0.0151 -0.2040
 3556TIP3    H132303   5.438   3.446   1.414  0.1263  1.8360  0.4675
 3556TIP3    H232304   5.535   3.454   1.297 -0.5858 -0.2797 -0.3197
 3557TIP3   OH232305   2.180   0.711   0.750  0.1907 -0.0080 -0.4170
 3557TIP3    H132306   2.147   0.720   0.840 -0.8378  1.3363 -0.8763
 3557TIP3    H232307   2.269   0.746   0.753 -0.3434  1.4242 -0.1640
 3558TIP3   OH232308   1.854   2.744   7.259  0.5211  0.0180 -0.2202
 3558TIP3    H132309   1.831   2.774   7.347 -1.4087 -1.5874 -0.1044
 3558TIP3    H232310   1.787   2.782   7.202  0.8881 -0.1694 -0.7861
 3559TIP3   OH232311   1.121   3.988   0.482 -0.1375 -1.1501  0.0341
 3559TIP3    H132312   1.037   4.026   0.456 -0.0290 -1.8261 -1.4521
 3559TIP3    H232313   1.186   4.048   0.447  0.0037 -1.6900 -0.6630
 3560TIP3   OH232314   0.212   6.055   0.213 -0.0721  0.0119 -0.6315
 3560TIP3    H132315   0.209   6.141   0.171  1.4880  0.5499  0.2922
 3560TIP3    H232316   0.225   6.074   0.306 -1.4356 -1.2074 -0.1520
 3561TIP3   OH232317   6.253   5.638   1.913 -0.0393  0.3160 -0.3661
 3561TIP3    H132318   6.176   5.677   1.871  0.1686 -0.3702 -1.4218
 3561TIP3    H232319   6.326   5.661   1.856  0.7058  1.6298  1.0334
 3562TIP3   OH232320   2.195   3.366   8.599  0.1413 -0.2321  0.1621
 3562TIP3    H132321   2.156   3.363   8.512 -0.6502 -1.2009  0.5332
 3562TIP3    H232322   2.252   3.289   8.603  1.2071  0.5211  0.0532
 3563TIP3   OH232323   3.071   5.056   1.758  0.0885 -0.3772  0.8556
 3563TIP3    H132324   3.004   5.077   1.694  0.1773 -0.0639  0.8614
 3563TIP3    H232325   3.119   4.982   1.720 -0.7883 -1.1617  1.2369
 3564TIP3   OH232326   5.101   4.414   0.762  0.0061  0.2804 -0.3098
 3564TIP3    H132327   5.121   4.320   0.763 -0.7810  0.1091 -0.0961
 3564TIP3    H232328   5.014   4.420   0.801  0.6176  1.2444  0.9745
 3565TIP3   OH232329   3.008   4.862   7.231  0.2018 -0.0616  0.7058
 3565TIP3    H132330   2.921   4.866   7.272 -0.9046 -1.3853 -1.3093
 3565TIP3    H232331   3.025   4.952   7.203 -2.5324 -0.3510 -2.5127
 3566TIP3   OH232332   2.284   0.658   0.064  0.3563  0.1249 -0.1758
 3566TIP3    H132333   2.265   0.738   0.111 -0.6519  0.6471 -1.3995
 3566TIP3    H232334   2.321   0.687  -0.020 -1.1105 -0.5986 -1.1195
 3567TIP3   OH232335   1.466   5.972   8.614  0.1277 -0.4269 -0.6148
 3567TIP3    H132336   1.433   6.062   8.619  1.0083 -0.1407  0.6135
 3567TIP3    H232337   1.400   5.925   8.564 -0.4008  0.8829 -1.1984
 3568TIP3   OH232338   6.505   1.226   1.637 -0.0498 -0.1555 -0.1090
 3568TIP3    H132339   6.453   1.146   1.626  1.3866 -1.0223 -1.1083
 3568TIP3    H232340   6.457   1.293   1.588 -1.0312 -0.5286  0.3310
 3569TIP3   OH232341   1.905   4.983   1.880 -0.5367 -0.4632  0.1084
 3569TIP3    H132342   1.845   5.041   1.926  0.4306  2.1673 -1.7431
 3569TIP3    H232343   1.849   4.912   1.848 -2.0648  0.2412  1.0896
 3570TIP3   OH232344   3.941   2.259   1.014 -0.5565  0.4941 -0.4270
 3570TIP3    H132345   4.013   2.318   1.037 -0.8588 -0.2394  2.7375
 3570TIP3    H232346   3.978   2.204   0.945  1.7679  0.4823  0.7315
 3571TIP3   OH232347   1.232   1.461   2.003 -0.7528 -0.2536  0.2421
 3571TIP3    H132348   1.257   1.464   2.095 -1.7635 -0.3711  0.5310
 3571TIP3    H232349   1.310   1.429   1.958  0.6140  2.1638  0.7027
 3572TIP3   OH232350   4.334   5.493   1.605  0.7151  0.5455 -0.2909
 3572TIP3    H132351   4.271   5.565   1.600 -0.6163 -0.5172  0.4367
 3572TIP3    H232352   4.289   5.426   1.656  2.7000 -0.0069  0.8349
 3573TIP3   OH232353   3.752   3.890   2.536 -0.0798  0.1637 -0.2547
 3573TIP3    H132354   3.729   3.957   2.472  1.5485 -0.4059 -1.4842
 3573TIP3    H232355   3.820   3.930   2.590  3.3879 -1.4029 -3.0620
 3574TIP3   OH232356   5.609   4.784   7.447 -0.4737  0.2088 -0.1114
 3574TIP3    H132357   5.658   4.863   7.425  0.0913  0.5454  2.1224
 3574TIP3    H232358   5.676   4.718   7.462 -0.9415 -1.6189 -4.4965
 3575TIP3   OH232359   3.247   3.492   2.194 -0.5058  0.4602  0.1975
 3575TIP3    H132360   3.296   3.538   2.262 -0.3801  0.9798 -0.2389
 3575TIP3    H232361   3.310   3.479   2.124 -0.4785 -0.5941  0.4081
 3576TIP3   OH232362   6.430   2.686   7.761  0.5094 -0.0887 -0.2880
 3576TIP3    H132363   6.433   2.592   7.778  1.7676  0.1368  1.0047
 3576TIP3    H232364   6.520   2.709   7.736  0.1945  0.7562 -0.6996
 3577TIP3   OH232365   1.346   0.800   7.036  0.1734  0.1175 -0.0173
 3577TIP3    H132366   1.293   0.879   7.045 -0.6759 -0.6199  2.0402
 3577TIP3    H232367   1.408   0.820   6.966 -2.9581  0.9195 -2.8232
 3578TIP3   OH232368   6.572   2.906   8.513  0.3051 -0.3557 -0.1454
 3578TIP3    H132369   6.626   2.836   8.476  1.0026  0.2959 -0.3618
 3578TIP3    H232370   6.612   2.987   8.483 -1.1530  0.1563 -0.8345
 3579TIP3   OH232371   4.446   3.481   0.140  0.0610 -0.0584  0.0902
 3579TIP3    H132372   4.493   3.399   0.158 -1.2923 -0.6886  0.8882
 3579TIP3    H232373   4.380   3.486   0.208 -0.2187  1.4545 -0.2698
 3580TIP3   OH232374   2.957   3.696   1.863  0.0153 -0.0511  0.0649
 3580TIP3    H132375   2.939   3.763   1.796 -0.4461  1.4013  1.5696
 3580TIP3    H232376   3.052   3.690   1.866  0.0404 -1.5537 -2.0245
 3581TIP3   OH232377   4.528   4.506   1.257  0.1144  0.1156 -0.0251
 3581TIP3    H132378   4.508   4.567   1.186  0.9139 -0.3289 -0.6477
 3581TIP3    H232379   4.617   4.529   1.283  0.5294 -0.9498 -0.4470
 3582TIP3   OH232380   5.649   0.792   0.243 -0.4617  0.4156  0.4455
 3582TIP3    H132381   5.681   0.807   0.332  2.3870 -0.6215 -0.2810
 3582TIP3    H232382   5.698   0.853   0.189 -0.0246 -0.8879 -0.7020
 3583TIP3   OH232383   1.027   5.629   1.592 -0.3069 -0.1174  0.1950
 3583TIP3    H132384   1.022   5.597   1.682 -1.6152  0.3100  0.2912
 3583TIP3    H232385   0.970   5.571   1.543  0.4965 -0.4210 -0.3899
 3584TIP3   OH232386   1.683   3.160   0.811  0.2825 -0.0892 -0.0652
 3584TIP3    H132387   1.588   3.153   0.804  0.1359 -0.2798  1.7731
 3584TIP3    H232388   1.698   3.232   0.872  1.3092 -0.3915  0.0590
 3585TIP3   OH232389   1.212   3.620   0.373 -0.2904  0.0017 -0.2901
 3585TIP3    H132390   1.200   3.626   0.279  0.1256 -2.4655 -0.5687
 3585TIP3    H232391   1.263   3.698   0.396  1.2837 -0.3134 -2.4377
 3586TIP3   OH232392   0.816   1.491   1.877 -0.2249  0.1931 -0.0861
 3586TIP3    H132393   0.820   1.401   1.845  0.1957  0.2305 -0.1467
 3586TIP3    H232394   0.898   1.531   1.847 -0.7302  0.8104 -0.6842
 3587TIP3   OH232395   3.203   6.339   7.450  0.4144 -0.5203  0.0178
 3587TIP3    H132396   3.191   6.260   7.502 -2.1000  0.5582  1.2370
 3587TIP3    H232397   3.125   6.392   7.467  1.6664  1.9486 -1.2629
 3588TIP3   OH232398   2.235   3.932   0.516 -0.0330  0.0967 -0.0895
 3588TIP3    H132399   2.144   3.905   0.527  0.1064 -2.1112 -3.0106
 3588TIP3    H232400   2.282   3.887   0.586 -0.7942 -1.8297 -0.7243
 3589TIP3   OH232401   1.820   3.059   6.206 -0.2908 -0.6535  0.7475
 3589TIP3    H132402   1.849   2.974   6.238 -0.2398  0.3428  3.6790
 3589TIP3    H232403   1.727   3.063   6.229 -0.6521 -0.4389 -0.6639
 3590TIP3   OH232404   6.585   6.440   0.694  0.0127  0.4139  0.0059
 3590TIP3    H132405   6.634   6.359   0.708  0.8374  0.9600  0.3875
 3590TIP3    H232406   6.508   6.414   0.645  0.6804 -0.4820 -0.5830
 3591TIP3   OH232407   0.440   3.147   8.389  0.4264  0.6040 -0.1197
 3591TIP3    H132408   0.416   3.070   8.441  0.0437  0.3344 -0.6875
 3591TIP3    H232409   0.517   3.182   8.433  1.6099 -1.0446 -0.7990
 3592TIP3   OH232410   6.198   0.029   7.479 -0.4359 -0.3243  0.0790
 3592TIP3    H132411   6.196  -0.062   7.507  0.5512 -0.2107  0.5549
 3592TIP3    H232412   6.111   0.045   7.441 -0.1582 -1.8388 -1.2805
 3593TIP3   OH232413   3.201   4.156   0.621 -0.4027  0.0725 -0.2613
 3593TIP3    H132414   3.148   4.123   0.694  1.1209  1.0916  1.4104
 3593TIP3    H232415   3.196   4.087   0.555  0.2436 -2.2048  1.8789
 3594TIP3   OH232416   0.408   0.013   7.098 -0.1652  0.0614 -0.2809
 3594TIP3    H132417   0.477   0.059   7.146 -0.9630  0.8580  0.1243
 3594TIP3    H232418   0.370  -0.047   7.162 -0.2663  0.0656 -0.3371
 3595TIP3   OH232419   5.205   3.267   1.732  0.3532  0.2004  0.2405
 3595TIP3    H132420   5.230   3.279   1.641  1.4137  0.4036  0.5425
 3595TIP3    H232421   5.131   3.206   1.729 -0.2536  0.9548 -0.8061
 3596TIP3   OH232422   5.548   0.279   1.458 -1.0596  0.1470 -0.6181
 3596TIP3    H132423   5.503   0.318   1.532 -1.9716  1.2136 -1.6886
 3596TIP3    H232424   5.479   0.233   1.409 -0.1592 -2.2135  0.1619
 3597TIP3   OH232425   6.399   0.994   0.705  0.0474  0.0437  0.1447
 3597TIP3    H132426   6.443   1.012   0.788 -0.8048  1.7475  0.2669
 3597TIP3    H232427   6.307   1.013   0.722 -0.4782 -1.5864 -0.6412
 3598TIP3   OH232428   5.609   5.436   8.510  0.2438 -0.4763 -0.3565
 3598TIP3    H132429   5.544   5.454   8.578  0.9773 -0.4544  0.3593
 3598TIP3    H232430   5.681   5.394   8.557  1.2456  0.5527 -0.9158
 3599TIP3   OH232431   5.457   6.000   1.395 -0.5319 -0.0315 -0.6728
 3599TIP3    H132432   5.523   6.018   1.462 -0.8133 -0.7634 -0.1861
 3599TIP3    H232433   5.443   6.084   1.351  1.3496 -0.0389 -1.3707
 3600TIP3   OH232434   0.565   6.660   7.961 -0.2098 -0.1238 -0.1682
 3600TIP3    H132435   0.531   6.631   8.046 -0.0008  1.1831  0.3839
 3600TIP3    H232436   0.519   6.742   7.944  1.4596  0.8425 -0.1787
 3601TIP3   OH232437   1.159   1.458   6.404  0.2557  0.3704  0.3287
 3601TIP3    H132438   1.074   1.467   6.448  0.0664  1.4090 -0.2110
 3601TIP3    H232439   1.204   1.541   6.421  1.0286 -0.0490  0.3398
 3602TIP3   OH232440   3.178   4.571   1.878  0.4207 -0.3590 -0.2696
 3602TIP3    H132441   3.101   4.577   1.822 -0.6500 -1.8155  0.9677
 3602TIP3    H232442   3.205   4.662   1.892 -0.8877  0.1559 -0.9672
 3603TIP3   OH232443   0.437   6.302   7.813 -1.0006  0.6081 -0.3907
 3603TIP3    H132444   0.482   6.298   7.898 -2.2325 -1.8736  0.2473
 3603TIP3    H232445   0.497   6.351   7.757  1.4102 -0.4622  1.0490
 3604TIP3   OH232446   1.063   4.539   1.757  0.2795 -0.1474 -0.1403
 3604TIP3    H132447   1.042   4.546   1.850 -0.2076 -0.2539 -0.2382
 3604TIP3    H232448   1.118   4.461   1.751  0.6655  0.1034  0.1148
 3605TIP3   OH232449   3.474   3.821   8.876 -0.1049  0.4070 -0.0641
 3605TIP3    H132450   3.451   3.739   8.832 -1.3920  0.5630  0.2731
 3605TIP3    H232451   3.513   3.794   8.959  0.4227  0.1296 -0.3990
 3606TIP3   OH232452   1.827   0.838   7.790  0.1955  0.2198  0.2394
 3606TIP3    H132453   1.869   0.924   7.800  0.5289  0.0036  0.7636
 3606TIP3    H232454   1.895   0.776   7.815 -0.0086 -0.2066 -0.2524
 3607TIP3   OH232455   4.308   4.261   0.077 -0.4926  0.1468  0.0736
 3607TIP3    H132456   4.271   4.173   0.079 -0.7694  0.2240 -0.9736
 3607TIP3    H232457   4.402   4.247   0.060 -0.4966  0.0395  0.1441
 3608TIP3   OH232458   0.076   3.707   0.145 -0.6637 -0.0821 -0.0521
 3608TIP3    H132459   0.114   3.651   0.078 -0.1515 -1.7764  1.5792
 3608TIP3    H232460   0.007   3.756   0.100  0.1917 -0.5698 -1.9634
 3609TIP3   OH232461   2.436   6.161   7.272  0.1333 -0.0043  0.7881
 3609TIP3    H132462   2.361   6.115   7.234  0.6750  0.4115 -0.8678
 3609TIP3    H232463   2.406   6.188   7.358 -0.9100 -1.6066  0.9623
 3610TIP3   OH232464   5.129   0.295   1.388 -0.3263 -0.3359  0.1376
 3610TIP3    H132465   5.056   0.286   1.449 -1.1665  1.6733 -0.4845
 3610TIP3    H232466   5.090   0.332   1.309  1.5038  2.1011  0.2421
 3611TIP3   OH232467   5.610   2.379   8.815  0.2094  0.6474 -0.1805
 3611TIP3    H132468   5.549   2.451   8.831 -0.7964  0.6584 -3.4199
 3611TIP3    H232469   5.651   2.400   8.731  2.4166 -0.9328  0.4102
 3612TIP3   OH232470   2.628   4.391   1.716 -0.0922  0.4177 -0.3089
 3612TIP3    H132471   2.640   4.327   1.787  1.7937 -0.7903 -1.6402
 3612TIP3    H232472   2.535   4.385   1.694 -0.2698 -0.7309  0.6495
 3613TIP3   OH232473   0.153   1.940   0.801  0.5513 -0.5431  0.1971
 3613TIP3    H132474   0.197   1.956   0.718  1.3247 -0.0273  0.6929
 3613TIP3    H232475   0.218   1.963   0.868 -0.2396 -0.4112  0.9444
 3614TIP3   OH232476   6.053   2.040   1.328 -0.6541 -0.0518  0.3678
 3614TIP3    H132477   6.118   2.058   1.396 -0.0910  1.0467 -0.4367
 3614TIP3    H232478   6.004   2.122   1.319 -0.0519  0.1576 -1.2408
 3615TIP3   OH232479   5.208   6.440   1.356 -0.1844  0.6603  0.4872
 3615TIP3    H132480   5.289   6.418   1.309 -1.1924 -0.4591 -0.8277
 3615TIP3    H232481   5.203   6.535   1.352  1.4262  0.8051  1.2450
 3616TIP3   OH232482   5.700   3.919   1.486 -0.7190 -0.3883 -0.0276
 3616TIP3    H132483   5.742   3.994   1.444  1.2227 -1.0747  0.5956
 3616TIP3    H232484   5.627   3.957   1.535  0.3698  1.1298  0.4770
 3617TIP3   OH232485   5.677   1.156   7.242 -0.4026 -1.4813 -1.1637
 3617TIP3    H132486   5.721   1.205   7.311 -1.3130  0.2748 -1.7790
 3617TIP3    H232487   5.600   1.118   7.285 -0.8583 -0.5590 -1.1483
 3618TIP3   OH232488   0.589   3.489   6.884  0.0109 -0.1048 -0.1652
 3618TIP3    H132489   0.506   3.442   6.873 -0.5556  0.6861  0.6528
 3618TIP3    H232490   0.644   3.429   6.934  0.1872 -0.9055 -1.2698
 3619TIP3   OH232491   0.247   0.485   1.219  0.5308  0.2643 -0.6387
 3619TIP3    H132492   0.215   0.402   1.184  1.7947 -0.5634  0.0779
 3619TIP3    H232493   0.291   0.462   1.300  1.4596  1.5525 -0.7332
 3620TIP3   OH232494   3.232   5.803   1.072 -0.6367 -0.1942  0.2429
 3620TIP3    H132495   3.231   5.799   0.976  1.4351 -0.4715  0.1768
 3620TIP3    H232496   3.229   5.712   1.100 -0.0705 -0.1721  0.3866
 3621TIP3   OH232497   4.544   5.201   8.396 -0.0373 -0.5170 -0.0296
 3621TIP3    H132498   4.535   5.275   8.455  2.4268 -1.0923  1.2050
 3621TIP3    H232499   4.564   5.127   8.453  2.3696 -1.1143 -1.4768
 3622TIP3   OH232500   3.953   2.663   1.534  0.0578 -0.2640 -0.5672
 3622TIP3    H132501   3.968   2.587   1.590  0.1109 -0.0801 -0.3269
 3622TIP3    H232502   4.039   2.705   1.527 -0.0420 -0.0242 -0.3961
 3623TIP3   OH232503   1.757   2.113   1.613  0.2326 -0.0010 -0.1801
 3623TIP3    H132504   1.816   2.099   1.687 -0.0502  1.1644  0.2901
 3623TIP3    H232505   1.803   2.076   1.538 -0.2403 -2.8738  0.8145
 3624TIP3   OH232506   2.904   6.211   7.120  0.4206 -0.6035  0.1881
 3624TIP3    H132507   2.816   6.172   7.123 -0.0335  0.2886 -0.6529
 3624TIP3    H232508   2.935   6.208   7.210 -0.9341  0.0613  0.7041
 3625TIP3   OH232509   3.128   1.329   0.809  0.6631  0.0885  0.0572
 3625TIP3    H132510   3.089   1.343   0.895  0.2698 -0.9682  0.0670
 3625TIP3    H232511   3.125   1.416   0.767  0.3230  0.4860  0.8781
 3626TIP3   OH232512   1.324   6.120   6.091  0.3127 -0.1732 -0.2499
 3626TIP3    H132513   1.389   6.069   6.044  0.4835 -0.5802  0.4213
 3626TIP3    H232514   1.278   6.057   6.147 -1.8951 -0.2539 -2.0080
 3627TIP3   OH232515   0.381   3.879   8.302  0.4504  0.4705  0.3435
 3627TIP3    H132516   0.308   3.868   8.241  0.0811 -0.0249  0.8656
 3627TIP3    H232517   0.459   3.861   8.249  0.2080  1.0688 -0.2348
 3628TIP3   OH232518   5.372   0.967   0.147 -1.1837  0.1167  0.3083
 3628TIP3    H132519   5.427   0.914   0.204 -0.9025  0.4847  0.3839
 3628TIP3    H232520   5.427   0.986   0.071 -1.3496  0.1402  0.1919
 3629TIP3   OH232521   5.599   0.561   8.519 -0.8024 -0.4282 -0.2527
 3629TIP3    H132522   5.510   0.589   8.537 -0.3591  0.2766  0.9251
 3629TIP3    H232523   5.616   0.491   8.581  0.3599  1.2718  1.4527
 3630TIP3   OH232524   6.005   1.628   1.792  0.4785  0.7026 -0.7517
 3630TIP3    H132525   5.952   1.652   1.868 -1.4214 -0.3849 -1.6289
 3630TIP3    H232526   6.079   1.581   1.828 -0.7180 -0.3615  0.4431
 3631TIP3   OH232527   5.559   6.628   1.447  0.1462  0.5273  0.2044
 3631TIP3    H132528   5.491   6.671   1.500  2.3246  1.7025  2.2642
 3631TIP3    H232529   5.628   6.694   1.440  0.9025 -0.4168 -2.3186
 3632TIP3   OH232530   2.789   1.566   8.491  0.6311 -0.8053 -0.4165
 3632TIP3    H132531   2.700   1.595   8.473  1.1609  0.8416 -0.5733
 3632TIP3    H232532   2.824   1.542   8.406  1.1516  1.0879 -0.7868
 3633TIP3   OH232533   1.788   1.037   8.424 -0.4143  0.2535  0.4242
 3633TIP3    H132534   1.765   0.989   8.345 -2.9049 -3.4324  3.0854
 3633TIP3    H232535   1.708   1.086   8.446 -0.1107  0.4267  1.1666
 3634TIP3   OH232536   4.617   4.774   8.431  0.3553  0.0473  0.4326
 3634TIP3    H132537   4.694   4.798   8.482  0.4674 -1.0162  0.7754
 3634TIP3    H232538   4.650   4.759   8.342  0.3927  0.4693  0.3727
 3635TIP3   OH232539   2.536   4.166   7.466  0.5935  0.0126 -0.1795
 3635TIP3    H132540   2.476   4.236   7.488  0.2872  0.9717 -3.4689
 3635TIP3    H232541   2.619   4.210   7.445  1.4585 -0.9723  1.0172
 3636TIP3   OH232542   4.434   4.057   1.367 -0.5306 -0.4392 -0.5227
 3636TIP3    H132543   4.373   4.086   1.435 -0.2546 -0.4295 -0.2758
 3636TIP3    H232544   4.430   4.125   1.300  1.5175  1.2232  0.8936
 3637TIP3   OH232545   2.202   1.822   0.710  0.1901 -0.0571  0.1139
 3637TIP3    H132546   2.291   1.788   0.697  0.2654 -1.0590  2.5723
 3637TIP3    H232547   2.146   1.746   0.696 -0.1418  0.1965  0.0642
 3638TIP3   OH232548   1.202   5.951   7.587  0.0038 -0.2939 -0.6419
 3638TIP3    H132549   1.213   6.026   7.644 -2.2312  0.5407 -1.1914
 3638TIP3    H232550   1.284   5.903   7.593  0.0982  0.1058  2.7220
 3639TIP3   OH232551   0.092   2.849   1.352  0.4823 -0.2056  0.2160
 3639TIP3    H132552   0.140   2.902   1.289 -1.6624 -0.1740 -1.5100
 3639TIP3    H232553   0.069   2.770   1.303 -1.4304 -0.0884  0.8684
 3640TIP3   OH232554   2.200   6.784   6.889 -0.1276 -0.0669  0.4420
 3640TIP3    H132555   2.120   6.826   6.921  0.0840  1.2238 -0.6210
 3640TIP3    H232556   2.178   6.757   6.800  0.2243 -0.8922  0.5992
 3641TIP3   OH232557   0.020   3.257   1.142 -0.3437 -0.7774 -0.1348
 3641TIP3    H132558   0.006   3.216   1.228  0.1862  0.7647  0.7205
 3641TIP3    H232559  -0.039   3.332   1.141  0.6866  0.0519 -0.5227
 3642TIP3   OH232560   3.523   5.947   0.302  0.0779  0.3547  0.4402
 3642TIP3    H132561   3.438   5.916   0.334 -0.9648  1.2663 -1.3031
 3642TIP3    H232562   3.574   5.868   0.288 -1.2933 -0.3809 -0.6000
 3643TIP3   OH232563   2.845   2.113   6.429 -0.4205 -0.0314 -0.0326
 3643TIP3    H132564   2.868   2.203   6.454 -2.3238  0.5487 -0.2511
 3643TIP3    H232565   2.814   2.072   6.509 -0.2857 -0.2599 -0.0946
 3644TIP3   OH232566   1.033   4.233   1.544  0.0240  0.0706  0.5072
 3644TIP3    H132567   1.095   4.306   1.539  1.0126 -0.7884 -0.0893
 3644TIP3    H232568   1.048   4.195   1.630  0.8755 -0.5933  0.0783
 3645TIP3   OH232569   2.691   1.863   7.911  0.9285  0.3621  0.0832
 3645TIP3    H132570   2.633   1.940   7.913 -2.8255 -2.0628 -2.4900
 3645TIP3    H232571   2.765   1.891   7.856 -0.8774  1.9161 -1.7464
 3646TIP3   OH232572   0.561   0.335   0.719  0.2609  0.3237 -0.4317
 3646TIP3    H132573   0.591   0.341   0.810 -1.5370 -1.7132  0.3658
 3646TIP3    H232574   0.485   0.392   0.716 -0.3209 -0.4383 -0.3456
 3647TIP3   OH232575   0.406   6.225   8.178 -0.2977  0.2991  0.7158
 3647TIP3    H132576   0.492   6.188   8.155 -0.5134 -1.1417  2.1244
 3647TIP3    H232577   0.344   6.156   8.158 -0.9966  0.8280  1.0365
 3648TIP3   OH232578   2.516   1.530   7.466  0.0161  0.1234 -0.0924
 3648TIP3    H132579   2.445   1.579   7.426  0.3111 -1.1542 -2.3105
 3648TIP3    H232580   2.479   1.444   7.484  0.4835  0.0416  0.5174
 3649TIP3   OH232581   4.271   6.287   7.110 -0.0826 -0.2706 -0.5938
 3649TIP3    H132582   4.258   6.212   7.167  0.7212 -0.9830 -1.3149
 3649TIP3    H232583   4.275   6.250   7.022  1.0449  0.5255 -0.9085
 3650TIP3   OH232584   6.468   1.310   7.416  0.5450 -0.0225 -0.5435
 3650TIP3    H132585   6.490   1.397   7.383  0.2809 -0.4122 -1.8133
 3650TIP3    H232586   6.489   1.251   7.343 -1.2074 -0.7909 -0.4898
 3651TIP3   OH232587   5.216   0.392   6.483 -0.2936 -0.4093  0.1452
 3651TIP3    H132588   5.144   0.340   6.448 -0.9977 -0.2495  1.2985
 3651TIP3    H232589   5.267   0.330   6.536 -0.0222 -0.3511 -0.0458
 3652TIP3   OH232590   1.541   4.417   2.368 -0.1012 -0.9114 -0.1071
 3652TIP3    H132591   1.515   4.325   2.372 -0.5502 -0.7588  0.7551
 3652TIP3    H232592   1.604   4.427   2.439 -0.6311 -0.3787  0.2951
 3653TIP3   OH232593   1.460   6.812   6.682 -0.4123 -0.2921 -1.0973
 3653TIP3    H132594   1.369   6.802   6.656 -0.3585 -2.0850 -0.6928
 3653TIP3    H232595   1.510   6.773   6.611 -0.0412 -0.6982 -0.6232
 3654TIP3   OH232596   3.053   4.059   0.836  0.3951  0.2391 -0.2475
 3654TIP3    H132597   3.082   3.980   0.882  0.7774  1.0716  0.9894
 3654TIP3    H232598   2.972   4.032   0.792  0.6804 -0.9199 -0.1001
 3655TIP3   OH232599   4.582   3.629   0.347  0.4627 -0.3473 -0.3488
 3655TIP3    H132600   4.570   3.534   0.339  1.0784 -0.4870  0.2252
 3655TIP3    H232601   4.653   3.638   0.411 -2.2591  0.5361  2.8537
 3656TIP3   OH232602   6.189   1.000   8.604  0.2292  0.0546 -0.3649
 3656TIP3    H132603   6.187   1.090   8.637 -0.6454 -0.5978  1.5456
 3656TIP3    H232604   6.226   0.949   8.676 -1.5824 -1.4392 -0.4215
 3657TIP3   OH232605   5.702   4.001   0.006  0.5715  0.1833 -0.6866
 3657TIP3    H132606   5.629   4.052   0.041  0.8450  1.9419 -2.4913
 3657TIP3    H232607   5.662   3.943  -0.059  0.2973 -1.8684  1.1857
 3658TIP3   OH232608   5.194   5.534   7.574 -0.2603  0.6225 -0.7297
 3658TIP3    H132609   5.268   5.547   7.633 -1.9248  1.0060  1.3816
 3658TIP3    H232610   5.206   5.445   7.541  1.7471  1.0805 -1.4140
 3659TIP3   OH232611   5.202   2.742   6.878 -0.2999  0.4397 -0.3597
 3659TIP3    H132612   5.269   2.810   6.891  0.3544 -0.3706  0.6783
 3659TIP3    H232613   5.127   2.773   6.928  0.1785  0.1650  0.5526
 3660TIP3   OH232614   1.866   6.814   7.378  0.5535  0.1786  0.0966
 3660TIP3    H132615   1.808   6.737   7.379 -0.0950  0.6498  1.4355
 3660TIP3    H232616   1.939   6.788   7.322 -0.3978 -0.8492 -0.7306
 3661TIP3   OH232617   3.247   3.164   6.765 -0.0989 -0.5144 -0.0567
 3661TIP3    H132618   3.274   3.158   6.857 -3.4824  2.4433  1.3759
 3661TIP3    H232619   3.295   3.240   6.731 -1.7862  0.9037  0.6013
 3662TIP3   OH232620   3.462   4.129   1.539 -0.4957 -0.0039  0.0250
 3662TIP3    H132621   3.472   4.221   1.562  0.2604  0.1401 -0.8291
 3662TIP3    H232622   3.377   4.104   1.575  0.6027  0.1707  3.0068
 3663TIP3   OH232623   3.791   4.951   0.193  0.1858 -0.4826  0.3475
 3663TIP3    H132624   3.714   4.910   0.234  0.5798  0.0640  1.6730
 3663TIP3    H232625   3.805   5.032   0.242  0.1040  0.7267 -1.5091
 3664TIP3   OH232626   0.661   6.531   7.330 -0.0500  0.1647  0.0805
 3664TIP3    H132627   0.570   6.563   7.326 -0.0999  0.0841  0.5062
 3664TIP3    H232628   0.655   6.439   7.302  0.0732  0.4749 -1.0090
 3665TIP3   OH232629   4.294   2.411   7.113 -0.9508 -0.0274 -0.6347
 3665TIP3    H132630   4.336   2.417   7.198 -3.8408 -0.3343  0.9527
 3665TIP3    H232631   4.288   2.502   7.083  0.6709  0.0275 -0.9021
 3666TIP3   OH232632   2.354   0.865   7.549  0.2927  0.4243 -0.7138
 3666TIP3    H132633   2.419   0.871   7.479  0.7276  0.1296 -0.3392
 3666TIP3    H232634   2.275   0.832   7.507  0.6139  0.0584 -1.0266
 3667TIP3   OH232635   2.010   4.170   0.745 -0.0434 -0.3021  0.3953
 3667TIP3    H132636   1.969   4.140   0.827  1.5012 -0.6234  1.0871
 3667TIP3    H232637   2.098   4.133   0.748  0.5188  0.8848 -0.7358
 3668TIP3   OH232638   6.494   4.482   7.717 -0.0893  0.6087  0.6026
 3668TIP3    H132639   6.432   4.464   7.646  0.6725  1.3579 -0.2838
 3668TIP3    H232640   6.468   4.568   7.751 -0.7822  0.0165  1.6101
 3669TIP3   OH232641   1.098   2.308   1.343 -0.1459  0.1847 -0.1163
 3669TIP3    H132642   1.057   2.352   1.417 -1.1553  0.3898 -0.7792
 3669TIP3    H232643   1.189   2.297   1.369 -0.4514  0.3819  1.0936
 3670TIP3   OH232644   1.547   5.721   1.853  0.2246 -0.1947  0.0576
 3670TIP3    H132645   1.482   5.733   1.783  1.8017 -0.4782 -1.5322
 3670TIP3    H232646   1.540   5.799   1.907 -2.8103 -1.0927  1.1702
 3671TIP3   OH232647   4.679   5.252   6.247  0.2705  0.4562  0.1728
 3671TIP3    H132648   4.590   5.268   6.215  0.6529 -0.7629 -1.6219
 3671TIP3    H232649   4.669   5.177   6.306 -0.0409  1.0900  0.9572
 3672TIP3   OH232650   2.172   6.097   5.720  0.4056 -0.0034  0.2972
 3672TIP3    H132651   2.133   6.029   5.664  0.2899 -0.0991  0.4944
 3672TIP3    H232652   2.263   6.069   5.732  0.1867 -0.4710  0.9162
 3673TIP3   OH232653   6.488   5.300   0.584 -0.1720 -0.2941  0.3000
 3673TIP3    H132654   6.499   5.265   0.495  1.2836  1.8132 -0.4275
 3673TIP3    H232655   6.549   5.249   0.637  2.7701  1.5997 -0.9473
 3674TIP3   OH232656   3.422   3.205   7.503  0.4884  0.1109 -0.3368
 3674TIP3    H132657   3.395   3.126   7.458 -2.0080  0.7732 -0.1317
 3674TIP3    H232658   3.470   3.174   7.580 -0.3119 -1.1965 -0.3408
 3675TIP3   OH232659   1.824   5.877   0.732 -0.2675  0.3519 -0.0387
 3675TIP3    H132660   1.765   5.853   0.804  0.3578 -1.0417  0.0449
 3675TIP3    H232661   1.899   5.918   0.776 -0.5101  0.7710 -0.0160
 3676TIP3   OH232662   0.083   5.836   6.937  0.0441 -0.4287 -0.1078
 3676TIP3    H132663   0.161   5.824   6.883  0.5660  0.7686  0.3272
 3676TIP3    H232664   0.078   5.931   6.950 -2.4556 -0.2722 -1.5323
 3677TIP3   OH232665   4.215   1.106   0.874 -0.2406 -0.2358  0.0096
 3677TIP3    H132666   4.216   1.096   0.969  1.0301  0.0226  0.0452
 3677TIP3    H232667   4.126   1.136   0.854 -0.7196 -0.9088  1.0403
 3678TIP3   OH232668   2.899   1.153   0.389 -0.2872 -0.6552 -0.2407
 3678TIP3    H132669   2.821   1.184   0.345 -1.1207 -2.5526 -0.1821
 3678TIP3    H232670   2.944   1.100   0.324  0.7824  0.1095 -0.1559
 3679TIP3   OH232671   3.324   0.234   7.826 -0.4108  0.2457 -0.3191
 3679TIP3    H132672   3.293   0.255   7.914  2.5639 -1.4948  1.3108
 3679TIP3    H232673   3.411   0.275   7.821  0.6799 -2.0286 -1.3041
 3680TIP3   OH232674   5.557   0.178   1.850  0.0545 -0.1656  0.0643
 3680TIP3    H132675   5.626   0.240   1.873 -1.0955  1.3159 -0.3068
 3680TIP3    H232676   5.597   0.121   1.785  0.2355  2.4294 -2.3321
 3681TIP3   OH232677   6.070   6.140   1.011  0.2948  0.1099 -0.0523
 3681TIP3    H132678   6.010   6.066   1.002 -0.3799  0.7379 -0.9426
 3681TIP3    H232679   6.030   6.210   0.958  0.4007  1.4357  1.5315
 3682TIP3   OH232680   5.748   4.947   1.474  0.2421  0.4831  0.1061
 3682TIP3    H132681   5.655   4.955   1.452  0.5290  0.3362 -1.3041
 3682TIP3    H232682   5.766   4.853   1.465  0.5839  0.5466  0.1310
 3683TIP3   OH232683   2.870   1.287   7.452  0.1191 -0.0691 -0.1645
 3683TIP3    H132684   2.945   1.233   7.427  0.0083 -0.1969 -0.2182
 3683TIP3    H232685   2.825   1.236   7.520  0.5330  0.3625  0.4474
 3684TIP3   OH232686   1.531   5.982   7.319 -0.0161  0.0857 -0.4512
 3684TIP3    H132687   1.538   5.999   7.225 -0.6255  0.5166 -0.4311
 3684TIP3    H232688   1.451   5.930   7.328  0.3395 -0.4201 -0.2269
 3685TIP3   OH232689   3.366   1.534   8.529  0.4737  0.5842 -0.0398
 3685TIP3    H132690   3.442   1.500   8.576  0.1459  1.7315  1.4183
 3685TIP3    H232691   3.295   1.473   8.553  0.3122  1.1518  1.0046
 3686TIP3   OH232692   0.402   4.988   0.246 -0.3971 -0.3384  0.8325
 3686TIP3    H132693   0.318   4.979   0.290 -0.4015 -3.3594  0.4065
 3686TIP3    H232694   0.461   4.928   0.292  0.8756 -0.0532 -0.3381
 3687TIP3   OH232695   6.719   1.263   1.085 -0.1967 -0.4579 -0.0581
 3687TIP3    H132696   6.682   1.176   1.103 -1.2598  0.3178  1.7351
 3687TIP3    H232697   6.744   1.296   1.172 -0.9073  1.5127 -0.5668
 3688TIP3   OH232698   1.373   1.858   8.601  0.1637 -0.2197  0.0030
 3688TIP3    H132699   1.304   1.898   8.549 -0.8170 -0.5451  1.0125
 3688TIP3    H232700   1.360   1.892   8.690  0.0708 -1.7713  0.6262
 3689TIP3   OH232701   1.770   3.215   0.524  0.3575 -0.1738  0.1455
 3689TIP3    H132702   1.801   3.171   0.445  1.2165 -0.1102  0.4353
 3689TIP3    H232703   1.761   3.145   0.589  0.3918 -0.1185  0.2104
 3690TIP3   OH232704   2.996   1.890   0.225 -0.4234 -0.2225 -0.0541
 3690TIP3    H132705   3.087   1.862   0.223  0.0292  1.1669 -2.0161
 3690TIP3    H232706   2.947   1.816   0.190 -0.1073 -1.0463  1.1811
 3691TIP3   OH232707   0.787   3.423   6.268 -0.2335  0.1629 -0.3632
 3691TIP3    H132708   0.718   3.366   6.302  0.9310 -2.0606 -1.5041
 3691TIP3    H232709   0.752   3.458   6.186 -1.2079  1.6993  0.6672
 3692TIP3   OH232710   5.275   3.764   0.735  0.3869 -0.0936  0.0813
 3692TIP3    H132711   5.248   3.767   0.827 -1.7899  0.1426 -0.4895
 3692TIP3    H232712   5.215   3.825   0.691 -0.7770 -2.5033 -1.9489
 3693TIP3   OH232713   2.887   6.027   7.784 -0.7051 -0.0208  0.1894
 3693TIP3    H132714   2.851   5.945   7.818 -1.4765 -0.4879 -1.6509
 3693TIP3    H232715   2.919   6.073   7.862 -2.0161 -1.1950  1.4809
 3694TIP3   OH232716   6.024   6.629   7.427  0.2952  0.0816  0.3578
 3694TIP3    H132717   5.964   6.671   7.488 -1.2577 -1.2346 -0.2109
 3694TIP3    H232718   5.980   6.633   7.342  0.5952 -1.6390  0.0815
 3695TIP3   OH232719   0.987   6.536   8.095  0.1363 -0.0707  0.1142
 3695TIP3    H132720   0.913   6.560   8.151 -0.6251 -1.4736 -0.2490
 3695TIP3    H232721   1.039   6.476   8.149  0.1672 -0.3029 -0.1719
 3696TIP3   OH232722   5.869   2.250   1.310  0.2082  0.0077 -0.6993
 3696TIP3    H132723   5.908   2.337   1.302  0.7319 -0.0536  0.9564
 3696TIP3    H232724   5.783   2.258   1.267  0.1819  1.3818 -0.4252
 3697TIP3   OH232725   4.505   3.424   7.061  0.4798 -0.4304 -0.1134
 3697TIP3    H132726   4.561   3.355   7.026  1.8405  0.9049 -0.6740
 3697TIP3    H232727   4.455   3.455   6.985  0.4542 -0.2593 -0.0269
 3698TIP3   OH232728   5.313   0.703   8.276 -0.6901  0.2912  0.1533
 3698TIP3    H132729   5.256   0.750   8.215 -1.7362 -0.7235  0.3314
 3698TIP3    H232730   5.316   0.614   8.243  2.1587  0.6354 -0.8099
 3699TIP3   OH232731   0.595   6.266   1.082  0.4318  0.3097 -0.5083
 3699TIP3    H132732   0.543   6.332   1.128 -0.0818 -0.9336  0.7507
 3699TIP3    H232733   0.532   6.198   1.058  1.0398  0.0167 -1.3299
 3700TIP3   OH232734   1.922   0.452   2.070  0.0385 -0.4778  0.0893
 3700TIP3    H132735   1.895   0.542   2.054 -0.7530 -0.4757  1.2739
 3700TIP3    H232736   1.856   0.399   2.027  0.9428 -0.5284 -1.3024
 3701TIP3   OH232737   1.155   5.774   1.867  0.3977  0.0846  0.3621
 3701TIP3    H132738   1.079   5.716   1.853  1.1952 -0.7453 -0.7243
 3701TIP3    H232739   1.141   5.810   1.954 -1.9957  1.0938 -0.3485
 3702TIP3   OH232740   4.354   6.230   0.994  0.5987  0.5573  0.9896
 3702TIP3    H132741   4.273   6.217   0.944  0.5301  1.8580  0.7286
 3702TIP3    H232742   4.408   6.154   0.971  0.0886  0.4971 -0.1190
 3703TIP3   OH232743   3.250   6.162   6.318 -0.0026  0.1556  0.2498
 3703TIP3    H132744   3.268   6.069   6.307 -1.1606 -0.0486  0.0178
 3703TIP3    H232745   3.275   6.201   6.234 -1.7490 -0.3122 -0.5309
 3704TIP3   OH232746   6.472   4.066   8.130  0.0918  0.4024  0.4609
 3704TIP3    H132747   6.505   4.132   8.069  0.4994  0.6166  0.9079
 3704TIP3    H232748   6.430   4.117   8.199 -0.1716  0.1663  0.4766
 3705TIP3   OH232749   5.225   0.515   8.801  0.7216  0.1380 -0.2570
 3705TIP3    H132750   5.293   0.512   8.869 -0.4895  0.7885  1.0503
 3705TIP3    H232751   5.204   0.609   8.793  1.2623  0.1435 -2.0052
 3706TIP3   OH232752   3.778   3.875   1.215 -0.0176  0.7266 -0.6420
 3706TIP3    H132753   3.854   3.905   1.266 -0.5467  0.8591  0.0845
 3706TIP3    H232754   3.755   3.791   1.255 -0.8079  1.1187 -0.2629
 3707TIP3   OH232755   5.273   1.590   7.835  0.3665  0.1991 -0.2051
 3707TIP3    H132756   5.343   1.621   7.778  1.8517 -0.7373  1.0264
 3707TIP3    H232757   5.206   1.558   7.775  0.5496  1.9704 -1.4317
 3708TIP3   OH232758   3.390   1.967   0.373  0.2235  0.3286 -0.5923
 3708TIP3    H132759   3.451   1.894   0.376  0.6017  0.6400 -0.6500
 3708TIP3    H232760   3.347   1.959   0.287  0.6129  0.4532 -0.8015
 3709TIP3   OH232761   2.984   1.119   7.168  0.0645  0.2177 -0.3718
 3709TIP3    H132762   3.048   1.187   7.148 -1.0885  1.0926 -1.1645
 3709TIP3    H232763   2.900   1.164   7.170 -0.6922 -1.1297 -0.6367
 3710TIP3   OH232764   5.336   5.983   2.454 -0.0163 -0.5045  0.3939
 3710TIP3    H132765   5.265   6.047   2.456 -0.4450 -0.8332 -1.5995
 3710TIP3    H232766   5.322   5.935   2.372  2.6901 -0.3986 -0.2218
 3711TIP3   OH232767   1.132   0.058   1.646  0.2578 -0.1606  0.1966
 3711TIP3    H132768   1.183   0.014   1.713  0.5592 -1.4532 -0.8484
 3711TIP3    H232769   1.138   0.001   1.569  1.8911  2.3767 -1.7234
 3712TIP3   OH232770   5.154   5.331   7.017  0.1268  0.0892 -0.0176
 3712TIP3    H132771   5.193   5.244   7.013 -2.3490 -1.0749 -1.7395
 3712TIP3    H232772   5.228   5.391   7.030  2.0350 -2.1441 -0.0443
 3713TIP3   OH232773   3.064   6.734   1.855  0.0612  0.6229 -0.8110
 3713TIP3    H132774   2.997   6.704   1.794 -0.5613  0.0534  0.1190
 3713TIP3    H232775   3.141   6.750   1.801  0.0579 -1.4832 -1.5500
 3714TIP3   OH232776   2.467   6.459   6.605 -0.0656  0.0937  0.1348
 3714TIP3    H132777   2.521   6.409   6.543  3.2698  1.7546  1.4273
 3714TIP3    H232778   2.483   6.551   6.582 -2.1251  0.6962  0.8812
 3715TIP3   OH232779   1.931   5.377   1.134 -0.6369  0.2012  0.1232
 3715TIP3    H132780   2.022   5.392   1.159 -0.8006  0.2843  0.6704
 3715TIP3    H232781   1.932   5.379   1.038 -0.0800  0.2943  0.1286
 3716TIP3   OH232782   1.261   4.824   8.666  0.0881  0.8909 -0.3877
 3716TIP3    H132783   1.244   4.731   8.677 -0.6679  1.2314  2.1015
 3716TIP3    H232784   1.251   4.840   8.572 -2.2662 -1.0654 -0.5584
 3717TIP3   OH232785   0.191   0.476   6.910 -0.3517 -0.0239  0.2008
 3717TIP3    H132786   0.256   0.494   6.842 -0.7789  0.3244 -0.1258
 3717TIP3    H232787   0.215   0.390   6.945  0.6506  0.3849  0.5256
 3718TIP3   OH232788   4.791   0.754   7.824 -0.2335 -0.1494 -0.4813
 3718TIP3    H132789   4.763   0.691   7.891 -0.2941 -0.8554 -1.1451
 3718TIP3    H232790   4.776   0.708   7.741 -0.0173  0.6483 -0.9732
 3719TIP3   OH232791   6.666   0.638   8.072 -0.2706 -0.7870 -0.0253
 3719TIP3    H132792   6.745   0.647   8.019 -0.9323 -2.1139 -1.2880
 3719TIP3    H232793   6.634   0.550   8.053 -1.4699 -0.6720  1.2993
 3720TIP3   OH232794   6.548   3.187   0.287 -0.8011  0.2112  0.1137
 3720TIP3    H132795   6.487   3.241   0.338 -0.3659  1.0094 -0.2067
 3720TIP3    H232796   6.630   3.235   0.288 -0.3224 -0.5877  0.0565
 3721TIP3   OH232797   0.483   4.664   1.552 -0.0541  0.5632 -0.0898
 3721TIP3    H132798   0.413   4.611   1.590  0.4513  0.8855  1.3535
 3721TIP3    H232799   0.531   4.605   1.494 -1.8007  0.4616 -1.5255
 3722TIP3   OH232800   1.103   2.107   7.088 -0.2894  0.5320  0.4429
 3722TIP3    H132801   1.021   2.145   7.057 -0.7235  0.7203  1.7513
 3722TIP3    H232802   1.077   2.035   7.145  0.4926 -0.3080 -0.2350
 3723TIP3   OH232803   1.510   2.370   7.941 -0.2495 -0.3821 -0.3541
 3723TIP3    H132804   1.528   2.288   7.894 -0.3638 -0.9040  0.4958
 3723TIP3    H232805   1.569   2.434   7.900  1.3970 -1.3692  0.3829
 3724TIP3   OH232806   0.175   4.072   7.211 -0.0552 -0.2010 -0.0747
 3724TIP3    H132807   0.120   4.143   7.243 -0.6551 -0.6272 -0.1492
 3724TIP3    H232808   0.209   4.104   7.127  2.3038  1.3209  1.3480
 3725TIP3   OH232809   0.955   5.371   8.738  0.2775 -0.0587 -0.2459
 3725TIP3    H132810   1.014   5.410   8.802  0.6472 -0.1498 -0.5265
 3725TIP3    H232811   1.014   5.329   8.674 -0.0706 -2.6208  0.9610
 3726TIP3   OH232812   6.558   1.293   0.873 -0.3901  0.1678 -0.0933
 3726TIP3    H132813   6.648   1.294   0.907 -0.6246  3.3863  0.7280
 3726TIP3    H232814   6.526   1.205   0.892  2.9810 -1.6025 -1.6895
 3727TIP3   OH232815   3.697   1.240   8.413 -0.1294 -0.1330  0.2593
 3727TIP3    H132816   3.731   1.255   8.325 -2.5383  1.2012 -0.5543
 3727TIP3    H232817   3.713   1.147   8.430  1.2184 -0.1957 -1.1692
 3728TIP3   OH232818   4.522   0.938   2.825  0.0761  0.3105 -0.0166
 3728TIP3    H132819   4.512   1.033   2.831  3.8312  0.8044  1.2656
 3728TIP3    H232820   4.558   0.924   2.737 -1.3398 -0.1081 -0.5601
 3729TIP3   OH232821   6.189   3.720   1.004  0.1072  0.2864 -0.1875
 3729TIP3    H132822   6.251   3.664   1.052 -1.2993 -0.4470  0.8549
 3729TIP3    H232823   6.103   3.695   1.038 -0.7128  1.8400 -1.0157
 3730TIP3   OH232824   2.494   4.504   1.163 -0.2757  0.1471  0.0253
 3730TIP3    H132825   2.433   4.578   1.171  0.2304  0.6245 -0.4921
 3730TIP3    H232826   2.485   4.475   1.072 -0.2650 -0.2541  0.1495
 3731TIP3   OH232827   0.067   2.522   0.275 -0.4304  1.1260  0.7076
 3731TIP3    H132828   0.146   2.520   0.221  1.3580  2.9134  3.0336
 3731TIP3    H232829  -0.001   2.555   0.217  0.3141 -0.9965 -1.5292
 3732TIP3   OH232830   3.585   0.428   1.785  0.5295 -0.1107 -0.5395
 3732TIP3    H132831   3.549   0.508   1.823  2.3188  0.1700  0.7016
 3732TIP3    H232832   3.550   0.426   1.696 -1.8510  0.5070  0.3110
 3733TIP3   OH232833   1.022   1.167   0.122 -0.1601  0.4736 -0.9279
 3733TIP3    H132834   0.997   1.091   0.174 -0.9930  1.4636  0.1864
 3733TIP3    H232835   1.118   1.167   0.122 -0.1570 -0.2316 -0.4240
 3734TIP3   OH232836   5.900   3.829   7.087 -0.1386 -0.1707 -0.0588
 3734TIP3    H132837   5.960   3.766   7.046  1.7388  0.2463  1.8324
 3734TIP3    H232838   5.908   3.811   7.181 -1.6133  1.1508  0.3538
 3735TIP3   OH232839   0.524   1.517   0.209  0.3555 -0.0693 -0.3414
 3735TIP3    H132840   0.586   1.586   0.235 -1.5213  1.7654 -0.3993
 3735TIP3    H232841   0.533   1.512   0.114  0.5149  0.1121 -0.3378
 3736TIP3   OH232842   4.237   4.238   0.681 -0.0052 -0.2406 -0.4198
 3736TIP3    H132843   4.168   4.289   0.724 -1.8543 -0.2469 -3.0953
 3736TIP3    H232844   4.210   4.147   0.690  1.1532 -0.4801  0.8686
 3737TIP3   OH232845   1.107   5.743   1.278 -0.2668 -0.0140  0.5341
 3737TIP3    H132846   1.086   5.715   1.367 -2.0879 -0.5326 -0.0179
 3737TIP3    H232847   1.128   5.662   1.232 -1.9497 -0.1021 -0.1476
 3738TIP3   OH232848   3.009   5.094   8.312  0.1120  0.2201 -0.0567
 3738TIP3    H132849   3.062   5.053   8.380  0.4766  1.2223  0.2968
 3738TIP3    H232850   3.026   5.043   8.233  1.6082  0.4985  0.0580
 3739TIP3   OH232851   3.558   4.682   0.132  0.5025  0.2138  0.7659
 3739TIP3    H132852   3.555   4.591   0.163 -0.5835  0.4299  1.3468
 3739TIP3    H232853   3.524   4.678   0.042 -2.4664  0.4006  1.7847
 3740TIP3   OH232854   6.271   0.982   7.570 -0.9035  0.5156 -0.1724
 3740TIP3    H132855   6.182   0.952   7.587 -0.9468  1.5051  1.6054
 3740TIP3    H232856   6.274   0.995   7.475 -2.1386 -1.0246 -0.4632
 3741TIP3   OH232857   3.763   0.211   8.578 -0.5793  0.6668 -0.3027
 3741TIP3    H132858   3.840   0.178   8.532 -0.1486  2.6941 -1.1595
 3741TIP3    H232859   3.712   0.255   8.510 -1.2922  1.4061  0.6775
 3742TIP3   OH232860   2.036   1.115   6.566 -0.0003 -0.7364 -0.0013
 3742TIP3    H132861   2.129   1.105   6.586 -0.1275 -0.7324  0.5836
 3742TIP3    H232862   2.035   1.142   6.474  0.7168  1.7128  0.6280
 3743TIP3   OH232863   1.592   0.801   8.401  0.4952  0.5178  0.8599
 3743TIP3    H132864   1.683   0.774   8.416  0.6248  0.1904 -0.3737
 3743TIP3    H232865   1.543   0.763   8.474  1.1593 -0.4342  0.8307
 3744TIP3   OH232866   2.486   0.970   8.181  0.0260  0.3615 -0.2059
 3744TIP3    H132867   2.431   1.029   8.233  0.6276  0.5373  0.2522
 3744TIP3    H232868   2.432   0.892   8.166 -0.0483  0.1640  0.9898
 3745TIP3   OH232869   0.776   4.864   7.916 -0.5060  0.0578  0.3362
 3745TIP3    H132870   0.851   4.829   7.964 -0.9132 -2.5870 -0.7769
 3745TIP3    H232871   0.815   4.909   7.841  0.0123 -0.1896  0.4515
 3746TIP3   OH232872   0.964   5.242   7.191  0.4728  0.1882 -0.3347
 3746TIP3    H132873   0.924   5.223   7.106 -0.0610 -2.7520  0.4659
 3746TIP3    H232874   1.052   5.206   7.184  0.3591 -0.2546  0.4043
 3747TIP3   OH232875   5.413   3.149   7.899  0.4451 -0.3241  0.0160
 3747TIP3    H132876   5.347   3.197   7.849  0.1171 -0.7211  0.0582
 3747TIP3    H232877   5.491   3.205   7.897  0.2391 -0.0500 -0.3970
 3748TIP3   OH232878   5.370   5.386   2.331 -0.4501  0.1975  0.3082
 3748TIP3    H132879   5.460   5.415   2.344 -0.4096 -0.0063  0.4898
 3748TIP3    H232880   5.341   5.433   2.253 -0.9078  1.9603  1.4770
 3749TIP3   OH232881   3.963   5.639   8.548  0.2732  0.4441  0.2928
 3749TIP3    H132882   3.950   5.653   8.454  1.8333 -0.6010 -0.1127
 3749TIP3    H232883   3.940   5.548   8.562  0.8166  0.3726  0.7566
 3750TIP3   OH232884   2.537   2.053   1.806 -0.0521 -0.2931  0.2887
 3750TIP3    H132885   2.542   2.061   1.901 -0.5352  0.2927  0.2679
 3750TIP3    H232886   2.461   1.998   1.790 -0.2724  0.0244  0.2292
 3751TIP3   OH232887   0.642   5.358   1.671  0.3361  0.0683 -0.3716
 3751TIP3    H132888   0.693   5.422   1.623  1.5418 -0.8985 -0.4338
 3751TIP3    H232889   0.584   5.410   1.727  0.9228  1.1960 -0.7824
 3752TIP3   OH232890   0.915   1.109   7.721 -0.1327  0.0715 -0.5094
 3752TIP3    H132891   0.823   1.136   7.727 -0.3275 -0.5381 -0.6061
 3752TIP3    H232892   0.919   1.057   7.641  0.0821 -0.6837 -0.0233
 3753TIP3   OH232893   0.599   3.474   1.421  0.5737  0.1612  1.0692
 3753TIP3    H132894   0.640   3.390   1.441 -1.5031 -1.1697  0.1358
 3753TIP3    H232895   0.557   3.500   1.503  2.1400  0.9205  1.6790
 3754TIP3   OH232896   4.453   3.886   7.712  0.7545 -0.2565 -0.9573
 3754TIP3    H132897   4.418   3.802   7.683 -2.9310  0.6730  0.2479
 3754TIP3    H232898   4.484   3.870   7.801  0.0873 -0.3839 -0.7425
 3755TIP3   OH232899   3.536   0.754   7.691  0.0928 -0.1883  0.2368
 3755TIP3    H132900   3.454   0.798   7.716 -0.8235 -1.0213 -1.1700
 3755TIP3    H232901   3.516   0.661   7.698  0.7062 -0.4045 -0.7796
 3756TIP3   OH232902   1.662   2.997   1.696  0.4033  0.9553 -0.1254
 3756TIP3    H132903   1.647   2.903   1.691 -1.2213  1.2081 -0.4963
 3756TIP3    H232904   1.753   3.005   1.724  0.3334 -0.7262  0.7191
 3757TIP3   OH232905   4.295   5.419   1.329  0.0793  0.1036 -0.4158
 3757TIP3    H132906   4.313   5.331   1.295  2.2094  1.1942 -2.4207
 3757TIP3    H232907   4.324   5.416   1.420  2.4475 -0.6722 -1.1152
 3758TIP3   OH232908   2.176   6.755   0.862 -0.1251 -0.0917 -0.0562
 3758TIP3    H132909   2.169   6.807   0.782 -0.2133 -0.2514 -0.1533
 3758TIP3    H232910   2.250   6.696   0.847  1.4777  1.5500  0.9491
 3759TIP3   OH232911   0.085   2.568   0.961 -0.0812  0.4475  0.1202
 3759TIP3    H132912   0.015   2.539   0.903  0.7839 -1.0042 -0.2243
 3759TIP3    H232913   0.121   2.645   0.917 -1.3017  1.0997  0.2058
 3760TIP3   OH232914   5.106   4.565   7.874 -0.0001 -0.7438 -0.8354
 3760TIP3    H132915   5.050   4.642   7.888  1.4724  0.2603 -0.1875
 3760TIP3    H232916   5.160   4.587   7.798  0.9826 -0.7769 -0.1725
 3761TIP3   OH232917   3.039   1.487   7.631 -0.5654 -0.1137 -0.0757
 3761TIP3    H132918   2.999   1.451   7.552 -1.3030  0.7435 -0.1093
 3761TIP3    H232919   3.117   1.534   7.599 -0.5217 -0.2828 -0.2189
 3762TIP3   OH232920   1.673   5.179   8.589 -0.0683 -0.0171  0.1979
 3762TIP3    H132921   1.695   5.271   8.573  0.6862 -0.5145 -1.8833
 3762TIP3    H232922   1.753   5.131   8.569 -0.2213 -1.1146  2.0052
 3763TIP3   OH232923   3.696   6.522   0.723 -0.2087 -0.4145  0.8236
 3763TIP3    H132924   3.762   6.461   0.690 -1.0765 -0.9008 -0.0561
 3763TIP3    H232925   3.668   6.571   0.646 -2.0130 -1.3299  0.8395
 3764TIP3   OH232926   0.599   2.924   1.113  0.3664  0.5100 -0.2454
 3764TIP3    H132927   0.564   2.986   1.177  1.8017  1.4295 -0.3058
 3764TIP3    H232928   0.666   2.875   1.161 -1.1890 -1.5095 -0.0103
 3765TIP3   OH232929   1.790   3.732   1.632  0.3036  0.3888  0.2599
 3765TIP3    H132930   1.801   3.813   1.682 -1.7315  0.5384  0.5796
 3765TIP3    H232931   1.718   3.687   1.677  1.0604 -1.3605 -0.2209
 3766TIP3   OH232932   5.795   2.935   8.174  0.1640  0.2353  0.1577
 3766TIP3    H132933   5.711   2.903   8.208  0.5552  0.7258  1.6588
 3766TIP3    H232934   5.793   2.913   8.081 -1.5904  0.1628  0.1779
 3767TIP3   OH232935   3.235   2.704   0.549  0.2874  0.2526  0.1334
 3767TIP3    H132936   3.255   2.746   0.466 -0.5057  0.7756  0.1958
 3767TIP3    H232937   3.154   2.656   0.533  0.4680 -0.1676  0.4369
 3768TIP3   OH232938   0.364   1.323   1.114 -0.0960 -0.1761 -0.1660
 3768TIP3    H132939   0.344   1.336   1.022  0.4389 -0.3807 -0.3140
 3768TIP3    H232940   0.400   1.407   1.143  1.3167 -0.6065 -0.5776
 3769TIP3   OH232941   5.854   5.050   1.726 -0.1203  0.0989  0.0950
 3769TIP3    H132942   5.829   5.006   1.644 -0.7954  0.5374  0.0636
 3769TIP3    H232943   5.845   4.983   1.793 -0.3868 -0.0268 -0.0671
 3770TIP3   OH232944   6.687   3.737   7.212  0.2186  0.2361  0.1192
 3770TIP3    H132945   6.658   3.646   7.225  0.0736  0.5007  2.0073
 3770TIP3    H232946   6.765   3.745   7.267  0.1739  1.2760  0.0496
 3771TIP3   OH232947   6.481   2.000   0.858 -0.2006 -0.2731  0.3631
 3771TIP3    H132948   6.501   1.907   0.847 -0.7023 -0.2369 -0.9281
 3771TIP3    H232949   6.434   2.025   0.779 -0.0755  1.0918  0.6896
 3772TIP3   OH232950   5.386   1.456   0.505 -0.4091 -0.3768  0.0940
 3772TIP3    H132951   5.316   1.456   0.571 -1.1812 -1.0060 -0.6951
 3772TIP3    H232952   5.465   1.435   0.554 -1.0227 -1.1980  0.7756
 3773TIP3   OH232953   3.977   6.749   0.487  0.4118 -0.6855  0.4667
 3773TIP3    H132954   3.890   6.717   0.511  0.3248  0.4239  1.7610
 3773TIP3    H232955   3.962   6.837   0.453  0.8792 -1.1126 -0.9360
 3774TIP3   OH232956   2.064   3.288   7.451 -0.6610  0.3014  0.1005
 3774TIP3    H132957   2.140   3.316   7.399 -1.5589  2.1349 -0.3236
 3774TIP3    H232958   2.077   3.195   7.465  1.3984  0.4665 -0.4189
 3775TIP3   OH232959   2.218   5.881   0.944 -0.1542 -0.1952  0.1935
 3775TIP3    H132960   2.255   5.843   1.023  1.0095  0.4828 -0.0131
 3775TIP3    H232961   2.194   5.805   0.890 -0.8528 -0.6531  1.1250
 3776TIP3   OH232962   6.020   2.874   0.323 -0.0916  0.4061  0.7883
 3776TIP3    H132963   6.025   2.942   0.390 -1.7715 -0.6908  2.1173
 3776TIP3    H232964   5.938   2.892   0.277 -1.5688 -1.6793  2.3844
 3777TIP3   OH232965   4.419   5.252   6.933 -0.0328 -0.3085  0.4938
 3777TIP3    H132966   4.404   5.316   6.864  1.0292  0.6487  1.1334
 3777TIP3    H232967   4.508   5.220   6.919 -0.3258 -1.1945  0.5560
 3778TIP3   OH232968   2.499   0.053   0.165 -0.3829 -0.2889  0.2955
 3778TIP3    H132969   2.479  -0.025   0.114 -2.3244  0.1179  0.3353
 3778TIP3    H232970   2.454   0.124   0.119  0.7385  0.6870  0.6636
 3779TIP3   OH232971   3.819   3.838   1.581  0.0203  0.2384 -0.1473
 3779TIP3    H132972   3.835   3.810   1.491  1.1444  0.9985 -0.1981
 3779TIP3    H232973   3.842   3.931   1.582  0.9305  0.0278  1.1374
 3780TIP3   OH232974   4.210   1.674   8.204  0.2181  0.0434  0.0293
 3780TIP3    H132975   4.243   1.714   8.123 -0.6888  0.3467 -0.2065
 3780TIP3    H232976   4.123   1.712   8.215 -0.4313 -1.3936  0.1283
 3781TIP3   OH232977   1.976   0.978   0.550 -0.8104  0.4524  0.2194
 3781TIP3    H132978   1.934   0.934   0.624 -1.2043  0.9810  0.3126
 3781TIP3    H232979   2.070   0.968   0.567 -0.8772 -0.9291 -0.1080
 3782TIP3   OH232980   1.656   2.304   2.267 -0.2045  0.0689 -0.2585
 3782TIP3    H132981   1.567   2.280   2.241 -1.0620  1.1939  1.5067
 3782TIP3    H232982   1.655   2.399   2.274  0.5500 -0.0263  1.7415
 3783TIP3   OH232983   4.807   5.283   1.865 -0.0708 -0.0335  0.2751
 3783TIP3    H132984   4.723   5.263   1.907 -1.8994  2.9158 -1.5598
 3783TIP3    H232985   4.834   5.366   1.905  0.8390  0.1499 -0.6867
 3784TIP3   OH232986   6.763   6.607   1.098  0.3158 -0.5609  0.4374
 3784TIP3    H132987   6.837   6.633   1.042 -0.5417 -0.8970 -0.8863
 3784TIP3    H232988   6.804   6.574   1.178  1.5546  0.6633  0.3448
 3785TIP3   OH232989   5.921   1.511   1.561  0.3762  0.2928  0.2646
 3785TIP3    H132990   5.904   1.433   1.615 -0.1757  0.6997  0.6894
 3785TIP3    H232991   5.981   1.564   1.614  1.2458 -0.1159 -0.2890
 3786TIP3   OH232992   3.289   0.243   6.919 -0.4230 -0.6051 -0.2747
 3786TIP3    H132993   3.294   0.336   6.898  3.4131 -0.1757  1.6725
 3786TIP3    H232994   3.353   0.202   6.861  1.0552 -1.2673  1.7148
 3787TIP3   OH232995   0.160   5.780   0.796 -0.0310  0.6472  0.0693
 3787TIP3    H132996   0.209   5.777   0.878 -1.6409 -1.3837  1.0383
 3787TIP3    H232997   0.095   5.850   0.809  0.2484  0.8843  0.1957
 3788TIP3   OH232998   5.806   3.068   7.702  0.3034 -0.3163 -0.5639
 3788TIP3    H132999   5.883   3.041   7.752  0.6925 -2.0247 -2.0085
 3788TIP3    H233000   5.759   2.987   7.685 -0.9707  0.5149 -1.1035
 3789TIP3   OH233001   1.131   2.555   8.183  0.5734  0.7294  0.6328
 3789TIP3    H133002   1.091   2.489   8.125  0.2242  1.1817  0.3461
 3789TIP3    H233003   1.225   2.541   8.174  0.5311  0.9318 -0.2193
 3790TIP3   OH233004   1.539   3.147   8.697 -0.1727  0.3145  0.0183
 3790TIP3    H133005   1.458   3.199   8.695 -1.6613 -1.8814 -0.6730
 3790TIP3    H233006   1.606   3.205   8.662 -1.6945  1.8191 -0.5308
 3791TIP3   OH233007   6.261   3.531   2.536  0.1526  0.4595 -0.0928
 3791TIP3    H133008   6.291   3.569   2.619  1.2227  0.2577 -0.3651
 3791TIP3    H233009   6.338   3.486   2.502  0.1864  1.7799 -1.9221
 3792TIP3   OH233010   4.734   0.589   0.125 -0.2336  0.1093 -0.1514
 3792TIP3    H133011   4.756   0.562   0.214  1.2364  1.9458  0.0978
 3792TIP3    H233012   4.777   0.524   0.070 -0.2669 -0.4401  0.4522
 3793TIP3   OH233013   0.788   4.671   1.306 -0.0230 -0.2671 -0.5283
 3793TIP3    H133014   0.817   4.624   1.384 -0.1364  0.9816  0.3084
 3793TIP3    H233015   0.693   4.662   1.307  0.0629 -1.3838 -1.2918
 3794TIP3   OH233016   1.815   6.633   0.024  0.1581  0.2737  0.0414
 3794TIP3    H133017   1.796   6.617  -0.069  0.8207 -0.6389  0.0476
 3794TIP3    H233018   1.737   6.676   0.058  0.3019  1.5725 -1.1744
 3795TIP3   OH233019   1.850   0.876   0.769  0.5329  0.4544  0.5878
 3795TIP3    H133020   1.759   0.896   0.792  0.6815 -0.0949  1.6965
 3795TIP3    H233021   1.843   0.798   0.713  0.2584  1.0626 -0.2469
 3796TIP3   OH233022   1.903   1.992   7.351 -0.2519 -0.4863 -0.2505
 3796TIP3    H133023   1.885   1.988   7.445 -0.1965 -0.6889 -0.2491
 3796TIP3    H233024   1.896   2.085   7.330  2.9714  0.0474  0.5984
 3797TIP3   OH233025   6.287   2.257   1.324 -0.3983 -0.0863 -0.2620
 3797TIP3    H133026   6.274   2.337   1.273 -0.2667  0.9542  1.2555
 3797TIP3    H233027   6.376   2.228   1.302  0.8045  2.0096  1.5060
 3798TIP3   OH233028   6.509   2.567   7.436  0.6656  0.2137  0.2910
 3798TIP3    H133029   6.571   2.611   7.494  2.2571  0.4472 -1.5229
 3798TIP3    H233030   6.473   2.637   7.382 -0.8114 -0.0008  0.9436
 3799TIP3   OH233031   6.637   4.624   8.255  0.4626  0.2651 -0.1505
 3799TIP3    H133032   6.676   4.646   8.339  0.5031  1.6141 -0.5089
 3799TIP3    H233033   6.694   4.665   8.190  2.0877 -3.0591 -1.0716
 3800TIP3   OH233034   1.781   0.709   0.516 -0.8201 -0.5490  0.1172
 3800TIP3    H133035   1.698   0.660   0.521  0.4633 -2.9011 -0.1161
 3800TIP3    H233036   1.797   0.719   0.422 -0.0969 -1.5080  0.1252
 3801TIP3   OH233037   5.620   0.058   7.673 -0.0295 -0.0459 -0.1948
 3801TIP3    H133038   5.593   0.115   7.745  0.8355  0.4045 -0.2206
 3801TIP3    H233039   5.598   0.106   7.594 -3.0806 -1.4664 -0.3476
 3802TIP3   OH233040   3.113   3.708   0.572  0.1170 -0.1490 -0.5656
 3802TIP3    H133041   3.098   3.614   0.559 -1.0440 -0.5003  2.4558
 3802TIP3    H233042   3.030   3.741   0.606  1.4072  1.2965  1.4148
 3803TIP3   OH233043   5.148   6.331   0.673 -0.3880  0.2845 -0.3199
 3803TIP3    H133044   5.086   6.404   0.662 -1.3684 -0.3439  0.8112
 3803TIP3    H233045   5.092   6.255   0.689  0.6725 -0.4643 -0.1134
 3804TIP3   OH233046   6.751   0.890   7.732 -0.3254 -0.3003  0.2733
 3804TIP3    H133047   6.669   0.888   7.782  0.4919  1.6289  1.8427
 3804TIP3    H233048   6.818   0.906   7.798  1.0598  0.2495 -1.2151
 3805TIP3   OH233049   2.839   3.262   8.459 -0.1751  0.3796  0.2375
 3805TIP3    H133050   2.896   3.331   8.425  0.2668  0.5661  1.3081
 3805TIP3    H233051   2.857   3.186   8.403  1.0849  0.4563  0.4880
 3806TIP3   OH233052   5.116   2.779   7.208  0.0432  0.1668 -0.4558
 3806TIP3    H133053   5.103   2.833   7.130 -0.2582  0.3219 -0.2963
 3806TIP3    H233054   5.128   2.841   7.280  0.4106  0.0243 -0.3908
 3807TIP3   OH233055   3.937   0.076   8.442 -0.6723 -0.1691 -0.0677
 3807TIP3    H133056   3.892   0.054   8.360 -0.1490 -0.4526 -0.2812
 3807TIP3    H233057   4.029   0.084   8.418 -0.5865  0.2547  0.3994
 3808TIP3   OH233058   1.398   4.949   1.800  0.6261 -0.1480 -0.7000
 3808TIP3    H133059   1.383   5.031   1.752 -0.0842  0.4651  0.5016
 3808TIP3    H233060   1.347   4.884   1.753  0.2256  0.3673 -0.9873
 3809TIP3   OH233061   4.535   0.786   0.109 -0.0228  0.4338 -0.3600
 3809TIP3    H133062   4.489   0.762   0.190 -1.0941 -0.4902 -1.2080
 3809TIP3    H233063   4.615   0.733   0.111  1.0938  2.0396  1.1155
 3810TIP3   OH233064   4.773   1.203   0.448 -0.6959  0.3571  0.3525
 3810TIP3    H133065   4.706   1.207   0.516 -1.8433  1.0769 -0.7676
 3810TIP3    H233066   4.724   1.211   0.366  0.6761 -0.1120 -0.5496
 3811TIP3   OH233067   4.594   6.696   7.387 -0.6644 -0.2892 -0.5069
 3811TIP3    H133068   4.668   6.742   7.426 -1.3109  1.2133 -0.9597
 3811TIP3    H233069   4.623   6.675   7.298 -0.5427 -0.3086 -0.4626
 3812TIP3   OH233070   0.558   4.481   7.178 -0.5635  0.0990 -0.3424
 3812TIP3    H133071   0.553   4.449   7.088  1.0876 -1.4573  0.0501
 3812TIP3    H233072   0.624   4.550   7.175  0.8880 -1.2164 -0.0645
 3813TIP3   OH233073   3.379   3.026   8.560  0.4755  0.0752  0.1716
 3813TIP3    H133074   3.293   3.028   8.517  0.0828 -2.4195  0.7059
 3813TIP3    H233075   3.360   3.042   8.652  0.0454 -3.5889  0.8553
 3814TIP3   OH233076   1.108   4.425   8.121 -0.6868  0.0435 -0.4192
 3814TIP3    H133077   1.190   4.377   8.128 -1.4367 -1.3656 -0.8888
 3814TIP3    H233078   1.112   4.491   8.190  0.0476 -1.2061  0.7657
 3815TIP3   OH233079   3.597   6.196   6.471  0.4563 -0.0862  0.2525
 3815TIP3    H133080   3.608   6.104   6.448  1.6864  0.0193  0.3334
 3815TIP3    H233081   3.614   6.243   6.390  3.6609  0.2306  0.9835
 3816TIP3   OH233082   2.541   5.173   0.221 -0.4852  0.1853 -0.0504
 3816TIP3    H133083   2.498   5.140   0.300  2.0284  0.5277  1.5442
 3816TIP3    H233084   2.472   5.224   0.177 -1.7161  0.7707  2.3858
 3817TIP3   OH233085   6.338   0.709   1.438 -0.2309 -0.1677 -0.4584
 3817TIP3    H133086   6.320   0.787   1.385 -0.2001  0.1742  0.0265
 3817TIP3    H233087   6.263   0.702   1.496  1.6402  2.0560  2.5265
 3818TIP3   OH233088   0.576   4.430   6.916 -0.2276  0.0791  0.0622
 3818TIP3    H133089   0.648   4.389   6.869  1.3305  1.3136  1.2525
 3818TIP3    H233090   0.498   4.408   6.865  1.2361  0.6169 -2.5692
 3819TIP3   OH233091   2.693   5.303   2.360  0.2497  0.0048 -0.5508
 3819TIP3    H133092   2.646   5.249   2.296  1.4626 -3.0962  0.9631
 3819TIP3    H233093   2.624   5.345   2.411 -0.8507 -1.6126 -0.6299
 3820TIP3   OH233094   5.183   5.092   6.691 -0.4737 -0.0069 -0.3732
 3820TIP3    H133095   5.138   5.161   6.740  0.4091 -0.1855  0.7253
 3820TIP3    H233096   5.115   5.025   6.678 -0.5522 -0.3227  1.3593
 3821TIP3   OH233097   2.613   5.703   7.245  0.1354  0.1899  0.6072
 3821TIP3    H133098   2.673   5.645   7.292  0.6649 -2.4444 -2.9118
 3821TIP3    H233099   2.526   5.670   7.269  0.2591  0.4817  1.5265
 3822TIP3   OH233100   5.589   5.503   6.327  0.0673 -0.0021 -0.1498
 3822TIP3    H133101   5.626   5.467   6.407 -1.4453 -1.6899 -0.1570
 3822TIP3    H233102   5.658   5.492   6.261  0.5325 -0.6058  0.4297
 3823TIP3   OH233103   5.239   1.038   8.424  0.0089 -0.2412 -0.6534
 3823TIP3    H133104   5.290   1.076   8.352  0.6583 -0.5109 -0.3440
 3823TIP3    H233105   5.251   1.099   8.497 -1.0993  0.3223 -0.9172
 3824TIP3   OH233106   0.397   4.650   2.071 -0.2712 -0.1504 -0.3311
 3824TIP3    H133107   0.457   4.585   2.037  0.2751  0.0674  0.1934
 3824TIP3    H233108   0.391   4.630   2.165 -0.1109  0.5379 -0.1680
 3825TIP3   OH233109   1.321   4.628   7.034  0.2199  0.4858 -0.0349
 3825TIP3    H133110   1.337   4.681   6.956  2.1044 -1.9888 -1.4957
 3825TIP3    H233111   1.409   4.607   7.067 -0.4748 -0.9370  1.0086
 3826TIP3   OH233112   4.870   2.047   0.567 -0.0919 -0.2805  0.3079
 3826TIP3    H133113   4.795   2.051   0.626 -1.4673  3.0400 -1.3710
 3826TIP3    H233114   4.939   2.094   0.613 -0.3409  0.1134  0.2835
 3827TIP3   OH233115   5.705   4.136   8.334  0.1305  0.1853 -0.5103
 3827TIP3    H133116   5.785   4.153   8.384 -0.0033 -0.0555 -0.2141
 3827TIP3    H233117   5.635   4.136   8.399  0.0496 -0.9049 -0.5910
 3828TIP3   OH233118   3.936   4.194   0.725  0.1088 -0.3618 -0.1528
 3828TIP3    H133119   3.985   4.157   0.799 -2.5924 -0.7710  1.5932
 3828TIP3    H233120   3.945   4.130   0.655  3.4283  0.4189 -0.6167
 3829TIP3   OH233121   4.776   1.480   0.509  0.1675 -0.7103 -0.5731
 3829TIP3    H133122   4.789   1.387   0.492  2.3074 -0.0160 -3.5422
 3829TIP3    H233123   4.857   1.508   0.553 -0.3955 -0.2110  0.1650
 3830TIP3   OH233124   5.744   2.636   7.118  0.3623  0.0122  0.1862
 3830TIP3    H133125   5.791   2.601   7.043  0.8591 -2.0653  1.3773
 3830TIP3    H233126   5.656   2.653   7.086  0.5920 -0.7277 -0.8854
 3831TIP3   OH233127   4.511   5.208   0.998  0.2537  0.0317  0.0624
 3831TIP3    H133128   4.555   5.164   0.925  2.3418  1.6657  0.2724
 3831TIP3    H233129   4.481   5.291   0.962 -1.1445 -0.2943  0.4053
 3832TIP3   OH233130   0.257   3.330   8.817  0.1733  0.5765 -0.0648
 3832TIP3    H133131   0.271   3.249   8.767  1.7903  1.7095 -1.5755
 3832TIP3    H233132   0.306   3.317   8.898  1.8374  0.6418 -1.0246
 3833TIP3   OH233133   2.281   3.649   7.216  0.2329  0.3549 -0.3624
 3833TIP3    H133134   2.252   3.727   7.169 -1.0743 -0.1712 -0.4724
 3833TIP3    H233135   2.329   3.684   7.291  0.6361  1.2372 -1.0122
 3834TIP3   OH233136   0.793   1.134   0.907 -0.3205 -0.4455  0.1890
 3834TIP3    H133137   0.801   1.223   0.942 -0.9365  0.0095 -0.7891
 3834TIP3    H233138   0.700   1.124   0.888 -0.3347 -1.4711  0.6976
 3835TIP3   OH233139   4.481   1.394   8.163  0.2303 -0.8106  0.1151
 3835TIP3    H133140   4.518   1.307   8.151 -0.0359 -0.8323 -0.6389
 3835TIP3    H233141   4.538   1.451   8.111 -1.1830 -0.9552 -1.7107
 3836TIP3   OH233142   3.016   0.695   2.072  0.1631 -0.0491  0.8970
 3836TIP3    H133143   2.947   0.730   2.130  1.0161  1.1923  1.2140
 3836TIP3    H233144   3.089   0.756   2.083  1.1977 -1.1446  0.2979
 3837TIP3   OH233145   3.835   3.729   6.950  0.3605  0.3250  0.0091
 3837TIP3    H133146   3.910   3.790   6.947  1.4461 -0.9383  0.3602
 3837TIP3    H233147   3.836   3.687   6.865  0.1137  0.2324  0.0536
 3838TIP3   OH233148   2.700   6.519   1.333 -0.0899  0.2153  0.1681
 3838TIP3    H133149   2.709   6.534   1.239  0.0968  2.1643  0.4536
 3838TIP3    H233150   2.790   6.507   1.364 -0.1963 -1.1073  0.0330
 3839TIP3   OH233151   0.498   2.828   0.570  0.0830  0.2008 -0.4444
 3839TIP3    H133152   0.472   2.877   0.648 -1.6284  0.0297 -0.8531
 3839TIP3    H233153   0.445   2.867   0.500  0.8889 -0.2815 -1.3325
 3840TIP3   OH233154   2.482   5.688   1.387  0.3263  0.3436  0.1811
 3840TIP3    H133155   2.473   5.651   1.474  0.9403 -1.4573 -0.4736
 3840TIP3    H233156   2.489   5.612   1.329  0.6316  1.4893 -1.3573
 3841TIP3   OH233157   1.089   4.389   2.328 -0.0427 -0.2254  0.7959
 3841TIP3    H133158   1.030   4.338   2.384  0.3521 -0.6650  0.8173
 3841TIP3    H233159   1.051   4.477   2.329 -1.8954 -0.9270 -0.8561
 3842TIP3   OH233160   6.709   0.388   8.863  0.4428 -0.1472 -0.7088
 3842TIP3    H133161   6.654   0.329   8.811  0.0659  0.4990 -1.0466
 3842TIP3    H233162   6.791   0.339   8.877  0.0143 -0.8777 -0.7059
 3843TIP3   OH233163   4.054   5.584   1.349 -0.5804 -0.3611  0.1291
 3843TIP3    H133164   4.123   5.527   1.314 -0.5882  0.3333 -1.1030
 3843TIP3    H233165   4.101   5.657   1.388 -0.5999  0.3266 -1.0942
 3844TIP3   OH233166   5.615   6.611   0.898 -0.2068 -0.1583 -0.5801
 3844TIP3    H133167   5.706   6.614   0.926 -0.5859 -1.9989  1.0916
 3844TIP3    H233168   5.619   6.609   0.802  1.4453  0.5458 -0.5541
 3845TIP3   OH233169   0.732   2.058   7.873  0.2846 -0.0158 -0.4847
 3845TIP3    H133170   0.782   2.077   7.952  0.2018 -1.1070 -0.1570
 3845TIP3    H233171   0.683   1.978   7.893  0.1882 -0.2617 -1.5958
 3846TIP3   OH233172   2.697   3.784   8.777  0.5284 -0.3856 -0.1262
 3846TIP3    H133173   2.781   3.793   8.733  0.7853 -2.6771 -0.1925
 3846TIP3    H233174   2.675   3.692   8.769 -2.3180  0.2410 -0.6368
 3847TIP3   OH233175   3.866   2.290   7.860  0.0589  0.3940  0.1635
 3847TIP3    H133176   3.842   2.346   7.933 -0.0541  1.1735 -0.4561
 3847TIP3    H233177   3.961   2.283   7.866  0.0862  0.7447  0.1875
 3848TIP3   OH233178   3.065   0.516   1.228  0.8912 -0.1988 -0.0237
 3848TIP3    H133179   3.065   0.519   1.323  0.7815 -1.5363  0.0366
 3848TIP3    H233180   3.017   0.436   1.206  0.6222  0.2594 -1.2114
 3849TIP3   OH233181   2.258   0.901   0.196  0.0842 -0.4105 -0.0507
 3849TIP3    H133182   2.224   0.867   0.278  2.6671 -0.1658  1.2483
 3849TIP3    H233183   2.188   0.956   0.161 -1.7899 -2.0211  0.9675
 3850TIP3   OH233184   5.742   3.375   0.330  0.0396 -0.4245 -0.3809
 3850TIP3    H133185   5.799   3.360   0.406  1.1409 -2.0322 -1.4564
 3850TIP3    H233186   5.725   3.469   0.332  0.2111 -0.3951  1.7228
 3851TIP3   OH233187   1.817   6.226   1.126 -0.4112 -0.0309  0.3299
 3851TIP3    H133188   1.797   6.289   1.196  2.7408  0.5642  0.8446
 3851TIP3    H233189   1.850   6.280   1.054  1.6415 -0.9790  0.4984
 3852TIP3   OH233190   3.802   6.537   1.123 -0.6789  0.5177 -0.0156
 3852TIP3    H133191   3.862   6.546   1.049 -0.3498  0.7437  0.2767
 3852TIP3    H233192   3.858   6.525   1.199 -1.0452 -1.6548 -0.0373
 3853TIP3   OH233193   6.473   5.846   1.496 -0.1258 -0.0230 -0.1721
 3853TIP3    H133194   6.451   5.930   1.455 -0.5038 -0.5425 -1.0710
 3853TIP3    H233195   6.568   5.841   1.490 -0.1879 -0.1692 -1.1745
 3854TIP3   OH233196   0.507   4.713   0.321 -0.4530 -0.2508  0.6409
 3854TIP3    H133197   0.554   4.712   0.404 -0.3196  0.8111  0.6002
 3854TIP3    H233198   0.448   4.638   0.326 -0.0237 -0.5513  1.4427
 3855TIP3   OH233199   4.554   0.833   8.646 -0.5548 -0.2439  0.0866
 3855TIP3    H133200   4.495   0.892   8.693 -1.1399  0.7656 -1.7985
 3855TIP3    H233201   4.509   0.817   8.563  2.6524  2.3111 -2.4133
 3856TIP3   OH233202   2.577   1.538   0.032  0.2903  0.7441  0.6087
 3856TIP3    H133203   2.547   1.516  -0.056 -0.3204  0.1360  0.9651
 3856TIP3    H233204   2.672   1.530   0.027  0.2336  0.3301  0.1025
 3857TIP3   OH233205   5.005   2.980   7.364 -0.5639 -0.0987 -0.0399
 3857TIP3    H133206   4.947   2.946   7.432  0.1616  0.9127  1.1350
 3857TIP3    H233207   4.948   3.031   7.307 -1.1237 -0.6799 -0.0150
 3858TIP3   OH233208   0.562   5.363   0.649 -0.6996  0.0990  0.1885
 3858TIP3    H133209   0.575   5.303   0.722 -0.4397  0.8568  0.7804
 3858TIP3    H233210   0.554   5.306   0.573  1.0546 -0.6506  0.5012
 3859TIP3   OH233211   1.289   0.082   1.884 -0.3651 -0.4061  0.3357
 3859TIP3    H133212   1.253   0.160   1.925 -0.1505 -0.0841 -0.0785
 3859TIP3    H233213   1.252   0.009   1.934 -2.8847 -0.1884 -1.0642
 3860TIP3   OH233214   6.743   5.215   2.126 -0.0046 -0.4917 -0.8704
 3860TIP3    H133215   6.812   5.166   2.082  2.3094  1.1014  0.7213
 3860TIP3    H233216   6.732   5.169   2.210 -1.2671 -1.0163 -1.3103
 3861TIP3   OH233217   3.703   6.103   7.547 -0.2344 -0.6320 -0.6277
 3861TIP3    H133218   3.648   6.041   7.595 -1.6906  0.8265 -0.3306
 3861TIP3    H233219   3.679   6.189   7.581  0.7898  0.2168 -1.9300
 3862TIP3   OH233220   5.598   6.099   7.860 -0.4639 -0.9663  0.4420
 3862TIP3    H133221   5.647   6.181   7.867 -0.9618 -0.5921 -0.2680
 3862TIP3    H233222   5.506   6.127   7.856 -0.5570 -1.4469 -1.3768
 3863TIP3   OH233223   0.648   1.110   7.755 -0.0486  0.3209  0.2178
 3863TIP3    H133224   0.581   1.094   7.821  0.0432  1.3335  0.5674
 3863TIP3    H233225   0.610   1.076   7.674 -0.3819 -0.4345  0.6788
 3864TIP3   OH233226   3.234   0.246   1.642  0.6583  0.8820 -0.0049
 3864TIP3    H133227   3.300   0.227   1.709 -1.7020  1.6401  2.7359
 3864TIP3    H233228   3.190   0.326   1.673 -1.7963  0.2075 -1.4517
 3865TIP3   OH233229   4.611   6.739   0.990 -0.3252  0.3486 -0.1625
 3865TIP3    H133230   4.598   6.652   0.951 -0.9432  0.4328 -0.1505
 3865TIP3    H233231   4.537   6.750   1.049  0.3792  0.3987  0.7401
 3866TIP3   OH233232   1.201   2.102   8.001 -0.2730 -0.1789 -0.3032
 3866TIP3    H133233   1.150   2.097   7.919 -1.1461  0.6663  0.1678
 3866TIP3    H233234   1.135   2.120   8.068  0.3850 -1.2304  0.6600
 3867TIP3   OH233235   6.490   6.435   7.551  0.5415  0.5394  0.3725
 3867TIP3    H133236   6.560   6.500   7.548  0.2740  0.7955 -1.4553
 3867TIP3    H233237   6.409   6.486   7.541  0.3817 -0.0757 -2.2214
 3868TIP3   OH233238   3.573   0.431   6.800  0.0679 -0.2078  0.6527
 3868TIP3    H133239   3.481   0.445   6.821 -0.0876 -2.0619  1.4210
 3868TIP3    H233240   3.619   0.503   6.844 -1.0784  1.6463 -1.0295
 3869TIP3   OH233241   3.775   1.285   8.126 -0.7681 -0.0555 -0.1731
 3869TIP3    H133242   3.852   1.237   8.097 -2.1041 -2.6083  0.1716
 3869TIP3    H233243   3.749   1.338   8.051  0.7301  0.0800 -0.6156
 3870TIP3   OH233244   4.681   3.249   6.977  0.1110 -0.0604  0.2092
 3870TIP3    H133245   4.719   3.162   6.965  0.9067  0.4643 -1.4063
 3870TIP3    H233246   4.744   3.295   7.032 -1.1475 -0.9724  2.5604
 3871TIP3   OH233247   3.604   5.411   0.215 -0.2786 -0.3257 -0.1486
 3871TIP3    H133248   3.561   5.410   0.130  0.6262  0.8615 -0.6609
 3871TIP3    H233249   3.546   5.464   0.270 -1.5472 -2.1970  0.4069
 3872TIP3   OH233250   5.629   0.992   1.594  0.4455  0.6575 -0.6180
 3872TIP3    H133251   5.645   1.020   1.684  0.5024 -1.1361 -0.0367
 3872TIP3    H233252   5.597   1.071   1.550  0.2109  1.5193  1.0141
 3873TIP3   OH233253   4.864   3.384   0.271  0.4249 -0.3211 -0.8074
 3873TIP3    H133254   4.922   3.440   0.323 -0.8908 -0.3661  0.7871
 3873TIP3    H233255   4.895   3.295   0.289 -0.3546 -0.3725  0.3675
 3874TIP3   OH233256   6.550   2.097   1.386  0.2885  0.0868  0.6860
 3874TIP3    H133257   6.645   2.083   1.382  0.3576  0.8128 -1.4591
 3874TIP3    H233258   6.512   2.015   1.356  0.1723 -0.5076  2.3723
 3875TIP3   OH233259   1.627   6.816   8.721 -0.3290 -0.6177  0.1914
 3875TIP3    H133260   1.584   6.853   8.797  0.1162  0.1504  0.0776
 3875TIP3    H233261   1.720   6.819   8.742 -0.2431 -1.0618 -0.0960
 3876TIP3   OH233262   2.470   0.434   8.565 -0.6454 -0.1975  0.6237
 3876TIP3    H133263   2.399   0.371   8.555 -1.0890 -0.1725  2.9316
 3876TIP3    H233264   2.543   0.382   8.598 -0.4375  0.1824  0.7657
 3877TIP3   OH233265   4.100   1.520   0.759  0.3194  0.1878 -0.5800
 3877TIP3    H133266   4.007   1.536   0.746  0.5092  0.1659 -2.2203
 3877TIP3    H233267   4.120   1.443   0.704  0.8259 -1.4154  1.7049
 3878TIP3   OH233268   1.381   5.684   2.123  0.1388 -0.1864 -0.0163
 3878TIP3    H133269   1.427   5.688   2.039  1.3886  3.1429  0.6457
 3878TIP3    H233270   1.349   5.773   2.136 -0.9811 -0.8947  2.5342
 3879TIP3   OH233271   1.774   4.990   8.155  0.3519  0.7680  0.1967
 3879TIP3    H133272   1.689   5.002   8.112  1.0242  1.5915 -0.9771
 3879TIP3    H233273   1.834   5.044   8.103  1.5832  0.2212  1.0216
 3880TIP3   OH233274   1.492   4.977   0.318 -0.4173 -0.3092 -0.0272
 3880TIP3    H133275   1.575   4.946   0.281  0.1171  1.2974 -0.2287
 3880TIP3    H233276   1.440   5.003   0.241 -1.3742 -1.8679  0.0526
 3881TIP3   OH233277   1.787   5.794   7.311  0.0587 -0.1974 -0.0066
 3881TIP3    H133278   1.729   5.775   7.385 -1.1000 -0.3841 -0.9263
 3881TIP3    H233279   1.746   5.749   7.237  0.5823  0.8884 -0.9867
 3882TIP3   OH233280   4.453   6.463   2.076 -0.0473  0.1581  0.6813
 3882TIP3    H133281   4.518   6.393   2.065 -1.2991 -0.7718 -1.4326
 3882TIP3    H233282   4.433   6.463   2.170  0.8722 -1.5261  0.9091
 3883TIP3   OH233283   2.765   0.928   6.648  1.0955  0.2559  0.4032
 3883TIP3    H133284   2.856   0.944   6.624  0.2382  1.8173 -2.1633
 3883TIP3    H233285   2.721   0.910   6.565 -1.3289  1.8200  1.2341
 3884TIP3   OH233286   5.888   5.110   7.845  0.4365  0.2716 -0.1767
 3884TIP3    H133287   5.830   5.070   7.909  0.2350 -0.6239 -0.8953
 3884TIP3    H233288   5.835   5.120   7.766  0.6709  1.3948 -0.2164
 3885TIP3   OH233289   5.803   1.521   7.598 -0.7105 -0.0081  0.4537
 3885TIP3    H133290   5.801   1.602   7.649 -1.2858 -0.3176  0.9396
 3885TIP3    H233291   5.835   1.548   7.512 -1.0506  0.7692  0.5597
 3886TIP3   OH233292   3.376   2.281   0.902 -0.7081 -0.2114  0.1569
 3886TIP3    H133293   3.345   2.225   0.831  1.6593 -0.7540 -0.5491
 3886TIP3    H233294   3.397   2.364   0.859  0.2567 -0.3802  0.2715
 3887TIP3   OH233295   3.721   4.661   1.780  0.3344  0.2418  0.3770
 3887TIP3    H133296   3.790   4.597   1.799 -0.0956 -0.1043  0.7998
 3887TIP3    H233297   3.689   4.687   1.867  1.5120  2.1736  0.3103
 3888TIP3   OH233298   5.192   6.351   8.140  0.6240  0.2964  0.0580
 3888TIP3    H133299   5.149   6.415   8.083  1.2306 -0.0417 -0.8005
 3888TIP3    H233300   5.285   6.374   8.136  0.5997  0.7578  1.5620
 3889TIP3   OH233301   2.106   0.986   1.524 -0.1345  0.6837 -0.0499
 3889TIP3    H133302   2.131   0.947   1.440  1.3696  0.3701  0.5161
 3889TIP3    H233303   2.183   1.037   1.550 -0.2327  0.0422  1.5824
 3890TIP3   OH233304   0.542   6.343   8.745 -0.3936  0.3707 -0.4644
 3890TIP3    H133305   0.596   6.272   8.781 -0.0250  0.8583 -0.0556
 3890TIP3    H233306   0.590   6.423   8.765 -0.9975  0.7692 -0.5904
 3891TIP3   OH233307   2.160   2.836   0.664  0.3653  0.1067 -0.2942
 3891TIP3    H133308   2.184   2.914   0.713 -0.4235 -0.5769  1.2677
 3891TIP3    H233309   2.067   2.848   0.644  0.1556 -0.5513  0.2447
 3892TIP3   OH233310   4.308   0.375   7.427 -0.0737  0.1357 -0.4868
 3892TIP3    H133311   4.333   0.313   7.496  0.3464  0.5531 -0.2600
 3892TIP3    H233312   4.223   0.409   7.455 -0.5793 -0.7374 -0.8908
 3893TIP3   OH233313   6.071   5.821   8.062  0.0446  0.0579  0.0240
 3893TIP3    H133314   6.051   5.898   8.009  0.6612  0.1474 -0.0897
 3893TIP3    H233315   6.034   5.841   8.148 -1.5298 -0.3678 -0.5326
 3894TIP3   OH233316   2.967   4.305   1.182 -0.2760 -0.1208  0.0801
 3894TIP3    H133317   2.908   4.234   1.156 -0.5552  0.9366 -2.4002
 3894TIP3    H233318   3.039   4.302   1.119  0.1969  1.1959  0.5216
 3895TIP3   OH233319   5.916   4.334   2.281  0.0017 -0.3935 -0.0245
 3895TIP3    H133320   5.963   4.321   2.199  0.9481 -0.9365  0.5943
 3895TIP3    H233321   5.976   4.384   2.336 -0.7244  0.1810  0.2583
 3896TIP3   OH233322   6.728   2.890   7.808  0.5015  0.4244  0.2225
 3896TIP3    H133323   6.785   2.967   7.817 -0.4789  1.1817  0.0923
 3896TIP3    H233324   6.645   2.916   7.848 -0.9757  0.6661 -2.6803
 3897TIP3   OH233325   3.095   1.523   1.718 -0.3669  0.0301 -0.0929
 3897TIP3    H133326   3.150   1.598   1.698  0.3576 -0.5158 -0.1815
 3897TIP3    H233327   3.135   1.450   1.671 -1.1141 -0.3980 -0.0881
 3898TIP3   OH233328   5.015   0.335   1.136  0.1170 -0.0856  0.6605
 3898TIP3    H133329   5.002   0.278   1.060 -1.3472  0.5211  0.4212
 3898TIP3    H233330   5.007   0.424   1.101 -1.4391  0.2002  1.6292
 3899TIP3   OH233331   0.216   4.340   0.576 -0.4958 -0.5393 -0.0216
 3899TIP3    H133332   0.229   4.352   0.670 -0.2717  1.3767 -0.2400
 3899TIP3    H233333   0.297   4.300   0.545  0.1852  0.4797  0.3716
 3900TIP3   OH233334   3.082   5.177   0.453  0.0744  0.6065 -0.1271
 3900TIP3    H133335   3.006   5.134   0.415 -0.5576  1.4600  0.1475
 3900TIP3    H233336   3.096   5.133   0.537 -0.6341  0.9939  0.2020
 3901TIP3   OH233337   5.574   3.451   1.125  0.6274  0.5328  0.5408
 3901TIP3    H133338   5.600   3.512   1.056  4.0154 -1.8303 -0.5859
 3901TIP3    H233339   5.557   3.369   1.078 -1.0825 -0.1376  2.2185
 3902TIP3   OH233340   3.624   0.806   7.440 -0.1876 -0.4333 -0.1200
 3902TIP3    H133341   3.609   0.787   7.532  0.7533  0.6982  0.3035
 3902TIP3    H233342   3.719   0.814   7.432 -0.2143 -1.0722 -1.3090
 3903TIP3   OH233343   3.030   3.917   8.068 -0.1969  0.3074  0.8109
 3903TIP3    H133344   3.107   3.863   8.088 -0.6432  0.2737  2.6329
 3903TIP3    H233345   3.053   3.963   7.987  1.1420 -0.8042  0.5206
 3904TIP3   OH233346   5.862   5.660   8.621 -0.2654  0.4266  0.4857
 3904TIP3    H133347   5.813   5.619   8.692 -2.4300  0.8616 -0.6688
 3904TIP3    H233348   5.797   5.680   8.555  1.5922  0.5785 -1.4091
 3905TIP3   OH233349   6.358   4.378   8.232 -0.3754  0.0563  0.0050
 3905TIP3    H133350   6.394   4.465   8.215  0.0270 -0.2171 -0.5784
 3905TIP3    H233351   6.368   4.331   8.149 -0.8027 -0.4736  0.2454
 3906TIP3   OH233352   4.414   1.989   0.480  0.0728  0.0385  0.2186
 3906TIP3    H133353   4.325   1.954   0.473  0.8243 -2.0777  0.4520
 3906TIP3    H233354   4.419   2.025   0.568 -0.8694  1.2251 -0.1833
 3907TIP3   OH233355   2.339   5.247   1.499 -0.2896  0.0581  0.1981
 3907TIP3    H133356   2.378   5.190   1.433 -1.2906 -0.7765  0.2919
 3907TIP3    H233357   2.393   5.236   1.577  0.5748  0.6309 -0.3072
 3908TIP3   OH233358   4.603   6.185   1.580 -0.1548  0.2685 -0.1748
 3908TIP3    H133359   4.552   6.164   1.502  1.2526 -0.5560 -0.9121
 3908TIP3    H233360   4.596   6.280   1.589  0.6868  0.5426 -2.0575
 3909TIP3   OH233361   0.691   6.233   7.219  0.3583 -0.8971  0.0883
 3909TIP3    H133362   0.768   6.258   7.270  1.0640  1.2910 -1.8406
 3909TIP3    H233363   0.651   6.161   7.268  2.0123 -0.1987  2.6307
 3910TIP3   OH233364   2.666   2.391   8.385 -0.2279  0.0026 -0.6184
 3910TIP3    H133365   2.735   2.349   8.437  1.8244  2.3401 -1.2406
 3910TIP3    H233366   2.706   2.404   8.299 -1.8874  0.4025 -1.3589
 3911TIP3   OH233367   2.639   0.401   2.130  0.2617  0.4329  0.0616
 3911TIP3    H133368   2.730   0.423   2.115 -0.1912  2.1636 -0.2994
 3911TIP3    H233369   2.642   0.321   2.184  1.9612  0.4677  0.0573
 3912TIP3   OH233370   2.297   0.755   6.596  0.6796 -0.5821  0.2576
 3912TIP3    H133371   2.306   0.843   6.559 -1.0324  0.2055  1.6082
 3912TIP3    H233372   2.336   0.698   6.530  0.6919  1.0653 -1.2374
 3913TIP3   OH233373   3.245   4.027   7.201 -0.3385  0.0258  0.7244
 3913TIP3    H133374   3.292   3.959   7.153  0.9863  2.5855 -1.9220
 3913TIP3    H233375   3.299   4.045   7.278 -0.2438 -1.2488  0.9670
 3914TIP3   OH233376   2.448   6.620   0.029 -0.4405 -0.0323  0.2055
 3914TIP3    H133377   2.378   6.560   0.002  0.1866 -0.8735  0.4369
 3914TIP3    H233378   2.481   6.657  -0.053 -0.2017 -0.7182 -0.0147
 3915TIP3   OH233379   3.190   3.145   8.231  0.5422 -0.7609 -0.0198
 3915TIP3    H133380   3.234   3.117   8.311 -0.3565 -0.8722  0.4511
 3915TIP3    H233381   3.247   3.212   8.194  0.1799  0.5224  1.6052
 3916TIP3   OH233382   1.393   5.005   7.096  0.2720 -0.5557 -0.2089
 3916TIP3    H133383   1.352   4.955   7.025  1.9007 -1.2103 -0.7322
 3916TIP3    H233384   1.365   4.960   7.176 -1.2378 -0.0634 -0.4365
 3917TIP3   OH233385   5.493   1.039   8.770 -0.4992 -0.4938  0.1185
 3917TIP3    H133386   5.456   1.082   8.693 -0.4891  0.1349  0.4618
 3917TIP3    H233387   5.573   0.996   8.738 -1.0511 -1.1283 -0.4391
 3918TIP3   OH233388   0.199   5.759   1.321 -0.5565  0.1031 -0.0431
 3918TIP3    H133389   0.230   5.720   1.403 -0.5001  0.8525  0.3080
 3918TIP3    H233390   0.130   5.700   1.291  0.3440 -0.9092 -0.1728
 3919TIP3   OH233391   1.176   4.143   7.539  0.6399  0.2359  0.7654
 3919TIP3    H133392   1.260   4.155   7.494  1.3685 -0.5228  1.8735
 3919TIP3    H233393   1.188   4.065   7.592 -0.5705  0.4749  1.4387
 3920TIP3   OH233394   3.887   1.915   0.696 -0.3691  0.4174  0.1311
 3920TIP3    H133395   3.823   1.953   0.636 -1.0656 -0.8176  0.0633
 3920TIP3    H233396   3.846   1.835   0.728  0.1660  0.8179  1.9390
 3921TIP3   OH233397   3.831   1.409   2.175  0.8496  0.4133 -0.2701
 3921TIP3    H133398   3.896   1.369   2.233  0.2359  0.4258  0.4265
 3921TIP3    H233399   3.815   1.496   2.211 -0.0589  0.1590 -0.0365
 3922TIP3   OH233400   1.443   0.249   7.601 -0.1376 -0.3023  0.5291
 3922TIP3    H133401   1.425   0.260   7.695 -0.4700 -0.1856  0.4552
 3922TIP3    H233402   1.510   0.314   7.582  0.2002 -0.5781  0.7648
 3923TIP3   OH233403   0.663   0.501   7.365 -0.3540  0.4039 -0.2195
 3923TIP3    H133404   0.687   0.424   7.417  1.3823 -0.3389 -1.9925
 3923TIP3    H233405   0.679   0.575   7.422 -2.3961 -0.4794  1.6700
 3924TIP3   OH233406   2.910   3.091   8.242 -0.1960  0.0411 -0.5302
 3924TIP3    H133407   3.006   3.099   8.245 -0.2403  0.3095  0.4037
 3924TIP3    H233408   2.886   3.138   8.162  0.3834  0.7944 -0.2786
 3925TIP3   OH233409   4.836   3.036   8.258  0.0516 -0.4232  0.1780
 3925TIP3    H133410   4.828   3.061   8.350  0.3779 -1.7583  0.5883
 3925TIP3    H233411   4.775   3.095   8.212  1.3025  1.5938  0.9481
 3926TIP3   OH233412   1.956   2.290   2.155  0.5338 -0.4029 -0.6940
 3926TIP3    H133413   1.880   2.323   2.107 -0.6268 -0.1988  1.1955
 3926TIP3    H233414   2.012   2.367   2.166  0.3800 -0.2551 -0.9263
 3927TIP3   OH233415   2.990   5.607   2.366 -0.5790 -0.4078  0.0364
 3927TIP3    H133416   3.029   5.694   2.367  0.8346 -1.0241  1.1808
 3927TIP3    H233417   2.922   5.610   2.432  0.4176 -0.5580  1.0984
 3928TIP3   OH233418   4.832   1.914   0.327  0.5825 -0.3248  1.0857
 3928TIP3    H133419   4.741   1.889   0.345  1.1190 -1.9267  1.8006
 3928TIP3    H233420   4.850   1.985   0.389 -0.2076  0.0937  0.8523
 3929TIP3   OH233421   0.914   6.388   0.436  0.3412  0.2275  0.1644
 3929TIP3    H133422   0.939   6.295   0.431  0.1577  0.2139 -0.7341
 3929TIP3    H233423   0.819   6.387   0.442  0.3101  0.3653 -0.2757
 3930TIP3   OH233424   0.589   5.708   7.873 -0.4275 -0.3623  0.0642
 3930TIP3    H133425   0.558   5.656   7.947 -0.2667 -0.9788 -0.2911
 3930TIP3    H233426   0.532   5.785   7.872 -0.8596 -0.6700  0.4250
 3931TIP3   OH233427   0.196   1.341   7.287  0.0002 -0.1427  0.4230
 3931TIP3    H133428   0.225   1.296   7.367  0.3292  0.5906  0.7325
 3931TIP3    H233429   0.269   1.400   7.266 -0.5124  0.4153  0.1723
 3932TIP3   OH233430   3.420   4.159   0.172 -0.1019  0.3214 -0.1426
 3932TIP3    H133431   3.335   4.175   0.131  0.2961  0.2420 -1.0428
 3932TIP3    H233432   3.479   4.143   0.098  0.6279  0.0553  0.4821
 3933TIP3   OH233433   4.717   5.737   8.527  0.1592 -0.4963  0.1575
 3933TIP3    H133434   4.676   5.794   8.463  1.7332 -0.4001 -0.8257
 3933TIP3    H233435   4.672   5.653   8.517 -0.4507 -0.1356 -0.1719
 3934TIP3   OH233436   2.672   0.293   1.481  0.4462 -0.1879  0.3621
 3934TIP3    H133437   2.604   0.358   1.464  1.6540  0.9877 -0.1916
 3934TIP3    H233438   2.625   0.214   1.507 -1.1031  0.6337  0.1346
 3935TIP3   OH233439   4.479   0.426   1.132 -0.0194 -1.2823 -0.3321
 3935TIP3    H133440   4.536   0.350   1.146  1.5091 -0.1312 -0.1070
 3935TIP3    H233441   4.409   0.415   1.197  1.7454 -1.0295  1.7322
 3936TIP3   OH233442   1.277   1.569   7.766  0.2536  0.0592  0.3903
 3936TIP3    H133443   1.222   1.537   7.695  2.0956  0.1303 -1.1338
 3936TIP3    H233444   1.340   1.499   7.782  1.7507  1.2122 -0.1712
 3937TIP3   OH233445   3.129   0.608   0.815  0.3806  0.2450 -0.2999
 3937TIP3    H133446   3.142   0.514   0.830 -0.2628  0.3468  1.1038
 3937TIP3    H233447   3.105   0.614   0.722 -3.2533 -1.4678  0.3404
 3938TIP3   OH233448   0.293   3.430   2.102  0.3510 -0.9690 -0.3983
 3938TIP3    H133449   0.216   3.450   2.156  1.0413 -2.5315  1.2783
 3938TIP3    H233450   0.256   3.394   2.021 -0.7007 -0.6884 -0.0655
 3939TIP3   OH233451   1.349   3.296   1.303 -0.4571  0.1562  0.4231
 3939TIP3    H133452   1.315   3.380   1.334 -0.4280  0.5311 -0.5354
 3939TIP3    H233453   1.271   3.241   1.294 -0.8743  1.0002 -1.7264
 3940TIP3   OH233454   4.369   0.409   7.868  0.0629  0.0071 -0.0740
 3940TIP3    H133455   4.284   0.420   7.826 -0.2736 -2.2109 -0.0848
 3940TIP3    H233456   4.357   0.336   7.929  2.2484 -1.2624 -1.0159
 3941TIP3   OH233457   4.705   3.709   1.015 -0.2391  0.2470 -0.4672
 3941TIP3    H133458   4.633   3.769   1.031 -0.2231  0.3454 -0.7632
 3941TIP3    H233459   4.784   3.762   1.024 -0.2106  0.1889 -0.3674
 3942TIP3   OH233460   2.768   1.450   7.944 -0.1229 -0.0128 -0.1297
 3942TIP3    H133461   2.863   1.458   7.944 -0.0743 -0.4599  0.8192
 3942TIP3    H233462   2.752   1.356   7.934 -0.5231  0.2428 -2.4987
 3943TIP3   OH233463   1.143   5.134   0.888  0.2353  0.4283 -0.0822
 3943TIP3    H133464   1.237   5.150   0.880  0.4886 -1.0809 -0.4246
 3943TIP3    H233465   1.107   5.163   0.804  0.3404  1.2583  0.1500
 3944TIP3   OH233466   4.703   5.955   1.752 -0.7235  0.1793  0.0746
 3944TIP3    H133467   4.680   6.048   1.755 -0.5847  0.3854 -2.8159
 3944TIP3    H233468   4.778   5.947   1.812 -1.0140  1.8091  0.7177
 3945TIP3   OH233469   1.008   2.808   7.984  0.5430 -0.2616  0.1239
 3945TIP3    H133470   1.052   2.740   8.036 -1.6963 -1.7179  0.2605
 3945TIP3    H233471   0.999   2.882   8.044  1.1249 -0.6351  0.6798
 3946TIP3   OH233472   1.078   5.522   6.840 -0.6083 -0.0646  0.3263
 3946TIP3    H133473   1.120   5.440   6.814  1.0470  0.3751  1.3895
 3946TIP3    H233474   1.128   5.590   6.794 -0.0947  0.4804  1.6240
 3947TIP3   OH233475   4.316   0.258   8.532  0.5025  0.0723 -0.0204
 3947TIP3    H133476   4.376   0.328   8.559 -0.5450  0.8389  0.3798
 3947TIP3    H233477   4.373   0.193   8.491  1.6974  0.4814  0.9085
 3948TIP3   OH233478   5.576   0.786   7.119  0.1197 -0.2035  0.1522
 3948TIP3    H133479   5.593   0.696   7.091  0.2710 -0.3197  0.6134
 3948TIP3    H233480   5.520   0.777   7.196  0.9727  0.0571  0.8190
 3949TIP3   OH233481   0.411   2.472   0.371  0.7140  0.2456  0.1094
 3949TIP3    H133482   0.408   2.505   0.461  3.0642 -0.6939  0.5985
 3949TIP3    H233483   0.432   2.379   0.381  0.9637  0.1202 -1.4231
 3950TIP3   OH233484   4.459   6.532   0.631  0.3248  0.2276 -0.2113
 3950TIP3    H133485   4.402   6.481   0.689  0.6525  0.2110  0.1023
 3950TIP3    H233486   4.488   6.469   0.565  0.6432  0.0304  0.1134
 3951TIP3   OH233487   2.958   2.034   7.155  0.0292 -0.4434  0.5308
 3951TIP3    H133488   2.909   1.955   7.174 -1.4174  0.7424  1.9730
 3951TIP3    H233489   2.892   2.097   7.125  0.9478  0.6282  0.6898
 3952TIP3   OH233490   4.042   6.331   7.402  0.7359  0.2556  0.1817
 3952TIP3    H133491   4.073   6.245   7.372 -0.4415  0.2361 -1.0807
 3952TIP3    H233492   3.957   6.313   7.442 -0.4573  1.0461 -1.8691
 3953TIP3   OH233493   0.621   1.893   7.010 -0.2167  0.5347 -0.1209
 3953TIP3    H133494   0.573   1.878   7.091 -2.0965  1.2471 -1.0430
 3953TIP3    H233495   0.653   1.806   6.984 -1.9170 -0.1576  0.0046
 3954TIP3   OH233496   1.178   3.836   7.709 -0.3371 -0.4752  0.0916
 3954TIP3    H133497   1.232   3.760   7.733  0.1887 -0.4390 -0.9378
 3954TIP3    H233498   1.235   3.911   7.724  0.0147 -0.4511 -1.2346
 3955TIP3   OH233499   2.372   3.283   2.332  0.3992 -0.1913  0.1671
 3955TIP3    H133500   2.329   3.306   2.249 -0.1541  1.4707  0.8740
 3955TIP3    H233501   2.465   3.298   2.316  0.2950  0.1219 -0.1568
 3956TIP3   OH233502   4.477   1.238   2.382  0.3671 -0.1148  0.6130
 3956TIP3    H133503   4.570   1.256   2.372  0.4902 -0.8455  0.3620
 3956TIP3    H233504   4.473   1.168   2.447  0.1110 -1.1857 -0.5211
 3957TIP3   OH233505   2.288   3.816   0.870  0.4398  0.0785 -0.4583
 3957TIP3    H133506   2.327   3.746   0.922  1.4812  0.8764 -0.1296
 3957TIP3    H233507   2.237   3.770   0.803 -1.2536 -0.9837  1.4323
 3958TIP3   OH233508   2.341   6.648   7.194 -0.0011  0.3196  0.1483
 3958TIP3    H133509   2.387   6.604   7.265  0.3275  0.4507  0.0239
 3958TIP3    H233510   2.411   6.686   7.141 -0.1516 -1.0750 -1.1078
 3959TIP3   OH233511   6.575   5.341   7.243 -0.1503  0.7020  0.8342
 3959TIP3    H133512   6.600   5.299   7.160 -2.1340 -0.2597  0.6509
 3959TIP3    H233513   6.654   5.336   7.297  0.6531 -0.3285 -0.3577
 3960TIP3   OH233514   2.517   2.031   1.355  0.2484 -0.1016  0.3420
 3960TIP3    H133515   2.527   1.983   1.438 -0.3645 -1.6882 -0.4733
 3960TIP3    H233516   2.537   1.967   1.287 -0.7966  0.7341 -0.8026
 3961TIP3   OH233517   5.513   2.385   1.544  0.3383  0.7429  0.0923
 3961TIP3    H133518   5.542   2.383   1.635  1.3349  1.9128 -0.1591
 3961TIP3    H233519   5.434   2.331   1.542  1.9720 -1.8673  1.0140
 3962TIP3   OH233520   3.425   6.336   1.033  0.1214  0.2405 -0.3364
 3962TIP3    H133521   3.398   6.289   1.112  0.7956 -0.1298 -0.3213
 3962TIP3    H233522   3.370   6.414   1.031  1.8557  1.6047  1.8827
 3963TIP3   OH233523   0.988   5.383   0.975 -0.2889  0.1222  0.0855
 3963TIP3    H133524   0.934   5.311   1.005 -0.3714  0.7491  1.5241
 3963TIP3    H233525   0.953   5.406   0.889 -0.4660 -1.3068 -0.2478
 3964TIP3   OH233526   6.555   2.603   8.546 -0.1594 -0.1544  0.6279
 3964TIP3    H133527   6.550   2.639   8.458 -0.9415 -0.4123  0.5623
 3964TIP3    H233528   6.626   2.652   8.588 -0.4439  0.6612  0.1770
 3965TIP3   OH233529   5.503   0.955   6.897  0.3769 -0.5931  0.5321
 3965TIP3    H133530   5.486   0.897   6.971 -0.4628  0.1033  0.9002
 3965TIP3    H233531   5.446   0.923   6.828  0.1837 -0.4321  0.6168
 3966TIP3   OH233532   3.937   2.538   0.601  0.4966  0.4466 -0.1737
 3966TIP3    H133533   3.961   2.457   0.648  1.1133  1.3385  1.1234
 3966TIP3    H233534   3.921   2.510   0.511  0.9227 -1.0876  0.1953
 3967TIP3   OH233535   1.944   2.318   0.810 -0.0296  0.2789 -0.0785
 3967TIP3    H133536   2.011   2.252   0.829 -0.0839  0.6117  1.4076
 3967TIP3    H233537   1.992   2.387   0.764  0.0034 -0.8059 -1.7473
 3968TIP3   OH233538   0.376   6.428   8.486 -0.3155  0.1739  0.1971
 3968TIP3    H133539   0.408   6.494   8.426  0.5224 -0.2338  0.1805
 3968TIP3    H233540   0.281   6.431   8.477 -0.3861  2.2101  1.0832
 3969TIP3   OH233541   2.270   5.417   8.337  0.3349 -0.2607 -0.1163
 3969TIP3    H133542   2.240   5.421   8.428 -0.8484  1.4065 -0.5161
 3969TIP3    H233543   2.356   5.375   8.341  1.0337  1.2087  1.9743
 3970TIP3   OH233544   0.788   0.329   7.160  0.1316  0.2372  0.0425
 3970TIP3    H133545   0.754   0.395   7.221  0.3500 -0.3798  0.8560
 3970TIP3    H233546   0.730   0.253   7.173  0.7611 -0.2270  0.1818
 3971TIP3   OH233547   3.063   4.034   1.246  0.3792  0.2485  0.1180
 3971TIP3    H133548   3.096   4.102   1.304  0.9430  0.1608 -0.0907
 3971TIP3    H233549   2.970   4.053   1.237  0.4873  0.8567  0.2422
 3972TIP3   OH233550   2.892   3.838   1.653  0.1117  0.2206  0.3224
 3972TIP3    H133551   2.852   3.792   1.579 -0.9321 -0.0087  1.0078
 3972TIP3    H233552   2.972   3.876   1.617  0.7106 -1.6296 -0.3994
 3973TIP3   OH233553   5.472   1.131   8.262  0.5186 -0.3514 -0.3033
 3973TIP3    H133554   5.419   1.104   8.186 -0.0606  2.4676 -1.0033
 3973TIP3    H233555   5.539   1.188   8.225  0.3085  0.9828  1.2657
 3974TIP3   OH233556   0.515   4.581   1.091 -0.3723  0.1518  0.0460
 3974TIP3    H133557   0.501   4.559   1.183 -2.1420  0.6038 -0.0882
 3974TIP3    H233558   0.594   4.533   1.066 -1.2509 -1.9702  1.1289
 3975TIP3   OH233559   2.866   3.820   1.042  0.2255  0.4462  0.6782
 3975TIP3    H133560   2.832   3.782   0.961  0.2999 -2.3341  1.8150
 3975TIP3    H233561   2.960   3.829   1.026  0.4601 -1.3367  0.8257
 3976TIP3   OH233562   3.631   6.242   8.774 -0.0179  0.0055  0.0205
 3976TIP3    H133563   3.654   6.312   8.836 -0.9512  0.9413 -0.6564
 3976TIP3    H233564   3.561   6.194   8.818  0.3810 -0.2907  0.3372
 3977TIP3   OH233565   1.171   4.443   6.108 -0.4375 -0.2466  0.7780
 3977TIP3    H133566   1.195   4.352   6.125  0.9649 -0.4270 -1.6466
 3977TIP3    H233567   1.081   4.438   6.076  0.3123 -1.1612 -1.4434
 3978TIP3   OH233568   6.797   4.945   7.226  0.2833 -0.0906  0.1311
 3978TIP3    H133569   6.778   5.018   7.167  1.4913 -0.4898 -0.7889
 3978TIP3    H233570   6.847   4.985   7.297 -0.3985  0.2314  0.4457
 3979TIP3   OH233571   1.658   0.987   0.507  0.1840  0.2841 -0.1067
 3979TIP3    H133572   1.743   0.985   0.551  0.7435 -2.1301 -1.1434
 3979TIP3    H233573   1.678   1.012   0.416 -0.1482 -0.6097 -0.4366
 3980TIP3   OH233574   0.754   2.037   0.027 -0.0741 -0.1807  0.1977
 3980TIP3    H133575   0.732   1.965  -0.032 -0.3213 -0.2884  0.4225
 3980TIP3    H233576   0.825   2.084  -0.018 -0.7738  0.1923 -0.5571
 3981TIP3   OH233577   5.226   6.773   7.649  0.1269 -0.3488 -0.3332
 3981TIP3    H133578   5.262   6.859   7.672  0.2405  0.3336 -2.7864
 3981TIP3    H233579   5.150   6.763   7.706  2.5373 -0.6699  3.1375
 3982TIP3   OH233580   3.829   5.773   6.563  0.3722  0.4461 -0.6033
 3982TIP3    H133581   3.804   5.706   6.628  2.5644 -1.3694 -1.4813
 3982TIP3    H233582   3.885   5.833   6.611  0.3078  0.2969 -0.3386
 3983TIP3   OH233583   1.748   6.449   0.445  0.2494  0.2721 -0.0175
 3983TIP3    H133584   1.659   6.412   0.447  0.7281 -0.9169  1.8813
 3983TIP3    H233585   1.793   6.399   0.378 -0.4682  0.8667 -0.9820
 3984TIP3   OH233586   0.332   3.606   6.109  0.0853  0.2028 -0.9175
 3984TIP3    H133587   0.342   3.527   6.055 -0.4044 -1.8892  1.7806
 3984TIP3    H233588   0.239   3.627   6.103  0.0342 -0.0127 -0.8943
 3985TIP3   OH233589   0.284   3.959   0.792  0.7884 -0.1436  0.0812
 3985TIP3    H133590   0.241   3.913   0.864 -0.6502  0.1977 -0.5241
 3985TIP3    H233591   0.230   4.037   0.778  2.2688  0.8981  0.0327
 3986TIP3   OH233592   6.486   1.848   6.941 -0.0195 -0.7186 -0.3386
 3986TIP3    H133593   6.573   1.828   6.906  0.1503  1.0935 -1.0897
 3986TIP3    H233594   6.447   1.907   6.876 -1.2154 -0.2990  0.7122
 3987TIP3   OH233595   0.284   6.614   1.151  0.6544 -0.6298 -0.4115
 3987TIP3    H133596   0.264   6.644   1.062  0.4649 -0.3366 -0.2710
 3987TIP3    H233597   0.264   6.521   1.150 -1.2432 -0.2694 -0.1298
 3988TIP3   OH233598   0.715   5.584   1.329 -0.1528  1.0140  0.3358
 3988TIP3    H133599   0.701   5.663   1.277 -0.2555  2.7225  2.8068
 3988TIP3    H233600   0.697   5.611   1.419 -1.0734 -2.0775  1.1888
 3989TIP3   OH233601   2.501   1.204   1.851  0.0928 -0.2713  0.0026
 3989TIP3    H133602   2.480   1.117   1.816  0.5892 -0.8424  1.0665
 3989TIP3    H233603   2.543   1.249   1.777  2.1549 -1.8318  0.0963
 3990TIP3   OH233604   1.723   6.610   7.505 -0.4972 -0.4059  0.2337
 3990TIP3    H133605   1.735   6.656   7.588 -0.4286 -0.1870  0.1031
 3990TIP3    H233606   1.637   6.569   7.513 -0.2189 -0.9192  0.6641
 3991TIP3   OH233607   4.191   0.192   0.210 -0.8515 -0.2403  0.2684
 3991TIP3    H133608   4.259   0.176   0.146 -1.3937 -0.7085 -0.2034
 3991TIP3    H233609   4.109   0.191   0.160 -1.4163 -1.9896  1.1367
 3992TIP3   OH233610   4.185   4.660   8.877 -0.0769  0.5296 -0.3306
 3992TIP3    H133611   4.172   4.603   8.801  1.3879  1.2284 -1.1349
 3992TIP3    H233612   4.150   4.609   8.951  0.0062 -0.8632 -1.2155
 3993TIP3   OH233613   1.364   2.079   7.204  0.2138  0.4297  0.1544
 3993TIP3    H133614   1.305   2.009   7.234 -1.0624  1.5889  0.4591
 3993TIP3    H233615   1.391   2.052   7.116  0.9671 -1.1694  0.8414
 3994TIP3   OH233616   3.297   0.305   0.116 -0.0239  0.1332 -0.3224
 3994TIP3    H133617   3.269   0.231   0.170  2.3886  0.2495  1.2582
 3994TIP3    H233618   3.270   0.382   0.165  1.6685  0.2386  0.5112
 3995TIP3   OH233619   1.547   5.620   7.342  0.0665  0.2257 -0.2506
 3995TIP3    H133620   1.582   5.635   7.430  0.8715 -2.9010  0.0822
 3995TIP3    H233621   1.564   5.527   7.325 -2.9487 -0.0605 -2.4486
 3996TIP3   OH233622   2.618   2.829   1.502  0.2916 -0.8870  0.0540
 3996TIP3    H133623   2.529   2.854   1.478  0.7831  1.9840  0.8072
 3996TIP3    H233624   2.610   2.796   1.591 -0.1020 -1.3436 -0.1444
 3997TIP3   OH233625   1.268   3.590   7.056 -0.1973  0.0451  0.0296
 3997TIP3    H133626   1.317   3.662   7.017 -0.2876 -0.0453 -0.2524
 3997TIP3    H233627   1.306   3.511   7.018  0.7445 -0.1313  1.2834
 3998TIP3   OH233628   1.786   1.751   0.490  0.5195 -0.0361  0.3699
 3998TIP3    H133629   1.712   1.788   0.442 -0.3571 -0.8119  1.0977
 3998TIP3    H233630   1.848   1.825   0.499 -0.7597  0.9991  0.9658
 3999TIP3   OH233631   2.653   0.672   7.442  0.3925 -1.0872  0.0307
 3999TIP3    H133632   2.660   0.643   7.351 -0.7062  0.3751 -0.5637
 3999TIP3    H233633   2.576   0.626   7.476 -1.9870  1.6318 -1.2243
 4000TIP3   OH233634   2.296   4.884   7.556  0.2485  0.2702 -0.1013
 4000TIP3    H133635   2.295   4.974   7.522 -0.9671  0.6250  0.8257
 4000TIP3    H233636   2.339   4.891   7.641  0.0032  0.0119  0.0454
 4001TIP3   OH233637   6.461   2.742   6.522  0.9127  0.1507 -0.1378
 4001TIP3    H133638   6.371   2.774   6.535  0.8579  0.3346 -0.9204
 4001TIP3    H233639   6.510   2.777   6.596  0.1190 -0.8347  0.8840
 4002TIP3   OH233640   3.230   0.326   1.948  0.3517 -0.1642 -0.3725
 4002TIP3    H133641   3.212   0.371   2.031 -2.6927 -2.9968  0.7243
 4002TIP3    H233642   3.170   0.368   1.886 -1.5620 -1.7019  0.3448
 4003TIP3   OH233643   3.288   4.597   8.601  0.0641  0.7648  0.7292
 4003TIP3    H133644   3.286   4.577   8.695  0.5197  0.7549  0.7361
 4003TIP3    H233645   3.212   4.552   8.566  1.0968 -1.0503  0.7195
 4004TIP3   OH233646   3.156   4.656   8.222  0.3775 -0.0717 -0.5017
 4004TIP3    H133647   3.246   4.670   8.252  0.0523  1.2704 -0.0436
 4004TIP3    H233648   3.129   4.575   8.264  1.6410 -0.9489 -1.3265
 4005TIP3   OH233649   1.970   1.647   8.156 -0.4073  0.3556 -0.1172
 4005TIP3    H133650   2.012   1.732   8.146  1.5648 -0.6202 -0.5448
 4005TIP3    H233651   1.904   1.644   8.086 -0.7996  1.6592  0.1668
 4006TIP3   OH233652   1.693   1.443   7.696 -0.3157 -0.3904 -0.1126
 4006TIP3    H133653   1.708   1.429   7.790  0.1920  0.9336  0.0175
 4006TIP3    H233654   1.746   1.375   7.653 -0.7573 -1.1742  0.5511
 4007TIP3   OH233655   2.768   5.238   8.379  0.1917 -0.7660 -0.2282
 4007TIP3    H133656   2.775   5.295   8.303 -2.1016  0.6763  0.5195
 4007TIP3    H233657   2.855   5.201   8.390  1.4357  1.5050 -1.6258
 4008TIP3   OH233658   0.330   3.896   6.668 -0.0241  0.3462 -0.3946
 4008TIP3    H133659   0.392   3.945   6.614 -0.2065 -1.1184 -2.0007
 4008TIP3    H233660   0.265   3.961   6.694  1.3781  1.6025  0.1430
 4009TIP3   OH233661   4.087   0.898   1.309  0.2407  0.4244 -0.0057
 4009TIP3    H133662   4.118   0.958   1.242  1.1942 -1.1184 -1.0246
 4009TIP3    H233663   3.997   0.925   1.327 -0.3526  0.3373 -2.5817
 4010TIP3   OH233664   2.003   4.525   1.035  0.1059 -0.5891  0.7778
 4010TIP3    H133665   1.980   4.616   1.052 -0.1239 -0.2324 -1.2145
 4010TIP3    H233666   2.086   4.529   0.987  0.8010 -1.5231  1.8368
 4011TIP3   OH233667   2.849   6.151   1.471  0.2733  1.1823  0.5713
 4011TIP3    H133668   2.893   6.217   1.525 -1.8104  2.3421  0.9603
 4011TIP3    H233669   2.762   6.188   1.455 -0.6558 -1.0940  0.0521
 4012TIP3   OH233670   0.162   5.417   0.418  0.0842 -0.3419 -0.1500
 4012TIP3    H133671   0.098   5.346   0.410  1.8468 -1.9025 -1.2081
 4012TIP3    H233672   0.240   5.384   0.374  0.5501  2.8604 -2.0403
 4013TIP3   OH233673   5.079   1.653   8.760  0.1368 -0.4247 -0.3979
 4013TIP3    H133674   5.076   1.708   8.838 -0.6831  0.5601 -1.0867
 4013TIP3    H233675   5.114   1.711   8.692 -2.1124 -0.2350 -1.4841
 4014TIP3   OH233676   6.301   2.267   8.023  0.6728  0.0250 -0.3357
 4014TIP3    H133677   6.296   2.343   8.081 -2.3651 -1.2907  1.3681
 4014TIP3    H233678   6.226   2.276   7.964 -0.2996 -1.9944  0.4887
 4015TIP3   OH233679   1.131   2.140   7.727  0.3342 -0.1838  0.2588
 4015TIP3    H133680   1.207   2.197   7.736  2.0117 -2.0271 -1.2312
 4015TIP3    H233681   1.161   2.068   7.671 -3.0682  0.0136 -2.1876
 4016TIP3   OH233682   4.952   2.575   0.596  0.1887  0.2486 -0.2738
 4016TIP3    H133683   5.032   2.615   0.563  1.0240 -0.4579  0.8379
 4016TIP3    H233684   4.886   2.644   0.591  0.1984  0.2010 -3.4637
 4017TIP3   OH233685   0.812   4.811   8.558 -0.2159  0.0299  0.3509
 4017TIP3    H133686   0.828   4.903   8.580 -1.6493  0.3650  0.0444
 4017TIP3    H233687   0.726   4.792   8.595 -0.7796 -0.6231 -1.2135
 4018TIP3   OH233688   0.521   5.126   7.129  0.2364 -0.0473  0.7017
 4018TIP3    H133689   0.572   5.095   7.055 -1.0602  0.7898 -0.6123
 4018TIP3    H233690   0.558   5.212   7.149 -1.3019  1.1158 -1.0499
 4019TIP3   OH233691   0.121   2.332   2.028 -0.4433 -0.5630  0.6291
 4019TIP3    H133692   0.200   2.336   2.082  0.0400  0.5105 -0.1271
 4019TIP3    H233693   0.117   2.241   1.999  0.0359 -0.8314  1.3825
 4020TIP3   OH233694   0.835   5.860   2.001  0.1397  0.0275  0.0758
 4020TIP3    H133695   0.923   5.860   2.040  0.3713  0.1055 -0.4396
 4020TIP3    H233696   0.803   5.949   2.015  1.0710  0.7117 -1.7627
 4021TIP3   OH233697   3.196   1.270   1.556  0.3149  0.8955  0.2935
 4021TIP3    H133698   3.212   1.241   1.646  1.8591 -2.0185 -0.7869
 4021TIP3    H233699   3.102   1.256   1.543  0.6146 -1.8426  0.5200
 4022TIP3   OH233700   3.370   0.289   1.333  0.3918 -0.1748  0.2153
 4022TIP3    H133701   3.440   0.244   1.286  0.4190 -0.0632  0.1494
 4022TIP3    H233702   3.324   0.339   1.266  0.5411  0.1263  0.3365
 4023TIP3   OH233703   0.827   4.591   0.542 -0.2661 -0.6602 -0.6672
 4023TIP3    H133704   0.813   4.602   0.636 -0.7819  0.4537 -0.8542
 4023TIP3    H233705   0.770   4.518   0.518  0.5504 -1.5518  0.0272
 4024TIP3   OH233706   2.061   6.292   5.913  0.2468  0.5323  0.5247
 4024TIP3    H133707   2.084   6.234   5.841 -2.5017 -2.3166  1.7312
 4024TIP3    H233708   1.975   6.327   5.889 -0.7851 -0.5809  2.3815
 4025TIP3   OH233709   4.849   0.944   0.296 -0.0158  0.2917 -0.3085
 4025TIP3    H133710   4.815   1.025   0.335 -1.5053 -0.4609  0.0357
 4025TIP3    H233711   4.782   0.878   0.316  1.8049 -1.3571  0.6333
 4026TIP3   OH233712   3.050   3.406   2.012 -0.0777 -0.2212 -0.0976
 4026TIP3    H133713   3.010   3.477   1.962 -0.6186 -0.5352 -0.1194
 4026TIP3    H233714   3.127   3.445   2.052 -1.1613  0.7758  1.1083
 4027TIP3   OH233715   5.421   1.739   8.880  0.5059 -0.5167  0.4401
 4027TIP3    H133716   5.376   1.687   8.946 -2.0506  0.7040 -0.2196
 4027TIP3    H233717   5.422   1.828   8.915  0.5878 -0.1563 -0.4342
 4028TIP3   OH233718   3.149   2.038   8.422  0.0404 -0.0452  0.0482
 4028TIP3    H133719   3.102   2.094   8.359 -0.6889 -1.2543 -0.5050
 4028TIP3    H233720   3.080   1.999   8.475  0.6604  1.3649  2.0151
 4029TIP3   OH233721   6.720   5.908   8.392  0.3977  0.2421  0.0766
 4029TIP3    H133722   6.665   5.887   8.316 -0.1634  1.0602  0.2492
 4029TIP3    H233723   6.760   5.992   8.371  1.7742 -0.4486 -0.1346
 4030TIP3   OH233724   1.528   3.575   6.805 -0.5233  0.8009 -0.2206
 4030TIP3    H133725   1.568   3.642   6.749  0.3729  0.6847  0.2659
 4030TIP3    H233726   1.491   3.512   6.743  1.8900 -0.2001 -0.7718
 4031TIP3   OH233727   4.937   4.117   8.856  0.1813  0.0677 -0.0930
 4031TIP3    H133728   4.924   4.116   8.951  1.6161  2.4139  0.1912
 4031TIP3    H233729   4.964   4.206   8.836  2.0142 -0.9031 -2.4346
 4032TIP3   OH233730   4.173   0.257   0.874  0.1691 -0.1331 -0.0065
 4032TIP3    H133731   4.123   0.211   0.806  0.3018 -0.7816  0.3266
 4032TIP3    H233732   4.260   0.218   0.870  0.8809  1.4598 -1.0428
 4033TIP3   OH233733   1.209   6.237   7.467 -0.1505 -0.2149 -0.5341
 4033TIP3    H133734   1.293   6.262   7.430 -0.4964  1.2276 -0.3896
 4033TIP3    H233735   1.196   6.147   7.438  1.6777 -0.6640 -0.1108
 4034TIP3   OH233736   3.197   1.841   0.539 -0.2654  0.2993  0.2306
 4034TIP3    H133737   3.260   1.873   0.476 -0.2736  0.0306  0.0826
 4034TIP3    H233738   3.137   1.914   0.553  0.7645  0.9768  1.2937
 4035TIP3   OH233739   1.249   5.307   6.783  0.0394  0.3156 -0.4253
 4035TIP3    H133740   1.190   5.232   6.774  2.7089 -1.8634 -1.3060
 4035TIP3    H233741   1.284   5.300   6.872  0.7378  0.1180 -0.7052
 4036TIP3   OH233742   3.186   3.545   1.144  0.1861  0.0561 -0.1166
 4036TIP3    H133743   3.123   3.506   1.204  0.7949  0.1622  0.6221
 4036TIP3    H233744   3.138   3.558   1.063 -1.2970  1.8124  0.9452
 4037TIP3   OH233745   3.064   5.120   2.160  0.4797 -0.4668 -0.5048
 4037TIP3    H133746   3.127   5.088   2.224  0.5129 -1.1882 -0.8986
 4037TIP3    H233747   3.026   5.198   2.202  0.6901 -0.7741  0.2780
 4038TIP3   OH233748   2.307   5.687   5.854 -0.0522  0.0134  0.2536
 4038TIP3    H133749   2.356   5.648   5.926  0.4611 -0.4205 -0.3086
 4038TIP3    H233750   2.217   5.693   5.885 -0.5323 -3.1437 -0.1559
 4039TIP3   OH233751   1.998   3.523   8.763  0.6425 -0.5578  0.4137
 4039TIP3    H133752   2.072   3.583   8.763 -0.2411  0.5817 -0.3446
 4039TIP3    H233753   2.013   3.467   8.687  0.8018 -0.4184  0.3410
 4040TIP3   OH233754   5.477   0.006   1.021  0.1405 -0.6593 -0.0806
 4040TIP3    H133755   5.504  -0.047   0.946 -1.3539 -0.0280 -1.1193
 4040TIP3    H233756   5.462  -0.058   1.091 -1.6458 -1.6786 -1.3133
 4041TIP3   OH233757   6.079   5.783   7.095  0.4933 -0.0503 -0.4332
 4041TIP3    H133758   6.102   5.790   7.002  2.3541  0.0368  0.0006
 4041TIP3    H233759   5.984   5.768   7.095  0.6984 -1.7621 -2.4095
 4042TIP3   OH233760   2.274   6.434   8.776 -0.1617  0.0040  0.8461
 4042TIP3    H133761   2.293   6.378   8.851 -1.0891  0.1721  1.2221
 4042TIP3    H233762   2.182   6.416   8.756  0.1431 -0.2110 -0.4049
 4043TIP3   OH233763   3.413   0.111   8.242 -0.2086  0.0573  0.0196
 4043TIP3    H133764   3.361   0.157   8.176  0.3793 -1.2190 -1.3939
 4043TIP3    H233765   3.494   0.162   8.248 -0.2284  0.1360 -0.3204
 4044TIP3   OH233766   5.086   3.074   8.380 -0.2343 -0.1108  0.0088
 4044TIP3    H133767   5.158   3.081   8.318  1.3956 -0.6756  1.7454
 4044TIP3    H233768   5.008   3.060   8.326  1.2896 -1.8968 -1.8423
 4045TIP3   OH233769   5.769   5.147   0.399  0.3253 -0.0465  0.3692
 4045TIP3    H133770   5.800   5.058   0.412 -1.1826 -0.4302  1.5906
 4045TIP3    H233771   5.687   5.138   0.351  0.9560  0.8146 -0.9367
 4046TIP3   OH233772   5.594   2.013   1.311 -0.6155 -0.4662  0.5704
 4046TIP3    H133773   5.595   1.956   1.235  0.8946  1.0227 -0.6172
 4046TIP3    H233774   5.625   1.958   1.383  1.2990 -1.0503 -0.6331
 4047TIP3   OH233775   3.203   5.600   6.884 -0.0985 -0.1289 -0.0233
 4047TIP3    H133776   3.165   5.659   6.950  0.1777  2.4079 -1.9458
 4047TIP3    H233777   3.139   5.529   6.875 -1.6257  1.0765  0.8280
 4048TIP3   OH233778   6.559   6.744   0.716  0.4947 -0.1473  0.1137
 4048TIP3    H133779   6.477   6.782   0.687  0.7093  1.1980  1.1329
 4048TIP3    H233780   6.548   6.650   0.705 -1.7787 -0.1316  1.6375
 4049TIP3   OH233781   0.789   1.854   8.553 -0.4086  0.4868 -0.4679
 4049TIP3    H133782   0.827   1.841   8.640 -1.4914 -0.0485 -0.0529
 4049TIP3    H233783   0.708   1.802   8.554 -0.5160  0.5882 -1.7450
 4050TIP3   OH233784   0.750   2.349   6.418  0.0494  0.5842 -0.0368
 4050TIP3    H133785   0.678   2.298   6.457 -0.1346 -2.0393 -3.3883
 4050TIP3    H233786   0.708   2.429   6.388 -1.9229 -1.3078 -2.8295
 4051TIP3   OH233787   1.455   6.543   7.187  0.3046 -0.3741 -0.3515
 4051TIP3    H133788   1.510   6.540   7.108  0.1453  1.1931 -0.5495
 4051TIP3    H233789   1.368   6.518   7.157  0.4540 -0.7864 -0.4536
 4052TIP3   OH233790   5.406   5.229   1.285  0.0775 -0.0697  0.3509
 4052TIP3    H133791   5.445   5.172   1.351 -0.8665  0.1921  1.1685
 4052TIP3    H233792   5.320   5.251   1.321  0.3798  1.8227  0.0461
 4053TIP3   OH233793   2.708   0.030   6.590  0.7696 -0.0930  0.3851
 4053TIP3    H133794   2.724   0.056   6.681  0.2547 -0.5841  0.6236
 4053TIP3    H233795   2.728  -0.064   6.588  0.5075 -0.1427  0.0581
 4054TIP3   OH233796   6.512   6.353   1.218 -0.7990  0.2826 -0.1654
 4054TIP3    H133797   6.441   6.289   1.208 -0.7138  0.1151  0.2492
 4054TIP3    H233798   6.495   6.419   1.151 -1.3745  0.2659 -0.0471
 4055TIP3   OH233799   6.284   4.829   8.612 -0.3654 -0.2181 -0.6140
 4055TIP3    H133800   6.363   4.873   8.644 -0.0940  0.3400 -1.9568
 4055TIP3    H233801   6.271   4.756   8.672 -0.9812  1.7955  1.8941
 4056TIP3   OH233802   1.853   3.417   7.938  0.1536  0.0706 -0.0087
 4056TIP3    H133803   1.823   3.330   7.964  1.3703 -0.2323  0.4535
 4056TIP3    H233804   1.849   3.415   7.842  0.5885 -0.6525 -0.0182
 4057TIP3   OH233805   4.561   1.627   7.371 -0.3011  0.3425 -0.2652
 4057TIP3    H133806   4.613   1.572   7.429  2.2519  3.0860  0.3097
 4057TIP3    H233807   4.561   1.582   7.287  0.0079 -1.4001  0.6285
 4058TIP3   OH233808   4.036   5.316   7.637  0.4650  0.7498 -0.0006
 4058TIP3    H133809   4.019   5.273   7.554  0.5007  2.4544 -0.9275
 4058TIP3    H233810   3.982   5.269   7.700  0.1239 -0.3067 -1.0489
 4059TIP3   OH233811   2.845   2.181   2.056 -0.0374 -0.2194  0.0460
 4059TIP3    H133812   2.863   2.271   2.082 -0.2721 -0.1027 -0.1831
 4059TIP3    H233813   2.752   2.181   2.032  0.2055 -0.2804 -0.9479
 4060TIP3   OH233814   1.078   4.609   7.657  0.4253  0.6949 -0.3698
 4060TIP3    H133815   1.040   4.535   7.610 -0.4117 -0.4863  2.0541
 4060TIP3    H233816   1.045   4.686   7.610  1.9627 -0.3568 -3.4372
 4061TIP3   OH233817   0.945   0.205   7.564  0.6810 -0.6598  0.3238
 4061TIP3    H133818   0.873   0.262   7.591  0.3742  0.0837 -1.8412
 4061TIP3    H233819   1.015   0.265   7.539  0.2574 -1.1240 -2.2721
 4062TIP3   OH233820   2.229   4.829   0.418  0.2811  0.2295  0.4221
 4062TIP3    H133821   2.134   4.839   0.410  0.2030  0.3810  1.4109
 4062TIP3    H233822   2.245   4.827   0.512  1.3244  0.7863  0.2702
 4063TIP3   OH233823   2.721   4.359   7.429 -0.6387  0.0289 -0.2650
 4063TIP3    H133824   2.712   4.380   7.336 -0.3261  0.6653 -0.1622
 4063TIP3    H233825   2.806   4.398   7.454 -1.2259  0.8530  0.5400
 4064TIP3   OH233826   3.154   3.243   6.436 -0.1190 -0.2545 -0.4281
 4064TIP3    H133827   3.233   3.207   6.476  0.0392  1.3788  0.8621
 4064TIP3    H233828   3.187   3.307   6.372 -0.2253  2.5042  2.0337
 4065TIP3   OH233829   0.206   0.017   0.539  0.1045 -0.0631 -0.2910
 4065TIP3    H133830   0.248   0.021   0.625 -0.4011 -0.9266  0.0073
 4065TIP3    H233831   0.134  -0.045   0.550 -1.1793  1.2769 -0.8330
 4066TIP3   OH233832   4.794   4.949   1.874 -0.2881  0.1465 -0.6870
 4066TIP3    H133833   4.877   4.979   1.912 -0.5983  0.7245 -0.4593
 4066TIP3    H233834   4.783   5.003   1.796  0.2460 -0.9010 -1.5175
 4067TIP3   OH233835   0.280   6.525   8.834  0.1787  0.1637 -0.1630
 4067TIP3    H133836   0.304   6.618   8.831  0.5975  0.0788  0.4702
 4067TIP3    H233837   0.346   6.481   8.780  0.8194  0.0651  0.6883
 4068TIP3   OH233838   4.109   5.488   6.852 -0.1332  0.2193  0.1335
 4068TIP3    H133839   4.110   5.572   6.899  0.3833  1.1795 -1.5066
 4068TIP3    H233840   4.017   5.466   6.845 -0.3144  0.9848  0.0248
 4069TIP3   OH233841   4.741   6.106   0.150  0.2024  0.1227 -0.6363
 4069TIP3    H133842   4.747   6.118   0.245 -0.0488  0.3531 -0.6483
 4069TIP3    H233843   4.791   6.179   0.113 -1.4663  1.2759 -0.7120
 4070TIP3   OH233844   0.482   4.295   1.774  0.7280 -0.3389  0.1109
 4070TIP3    H133845   0.535   4.244   1.712  0.4536 -1.6969  0.9499
 4070TIP3    H233846   0.547   4.341   1.827  0.9862  0.0829 -0.5502
 4071TIP3   OH233847   2.120   3.438   0.566  0.2131 -0.2240 -0.2918
 4071TIP3    H133848   2.049   3.426   0.629  2.0181 -0.8060  1.7453
 4071TIP3    H233849   2.127   3.353   0.521  0.2762 -0.4799  0.2018
 4072TIP3   OH233850   6.569   3.218   1.452  0.1542  0.5017 -0.0360
 4072TIP3    H133851   6.562   3.312   1.435  1.1169  0.8976  1.5728
 4072TIP3    H233852   6.652   3.191   1.412 -0.4502  0.1619 -1.1053
 4073TIP3   OH233853   2.924   4.268   7.984 -0.0019  0.4476  0.4057
 4073TIP3    H133854   2.909   4.178   7.957 -1.5875  0.6480  0.5019
 4073TIP3    H233855   2.965   4.310   7.909  1.9019 -0.6276  0.7966
 4074TIP3   OH233856   0.574   3.126   2.368 -0.3683  0.1591  0.3266
 4074TIP3    H133857   0.532   3.188   2.427  0.7762  1.5539 -0.2509
 4074TIP3    H233858   0.604   3.180   2.294  1.3312 -0.9375  0.1637
 4075TIP3   OH233859   4.473   5.855   1.201 -0.4936  0.0729 -0.4045
 4075TIP3    H133860   4.562   5.820   1.193 -0.1246  1.2679 -2.0817
 4075TIP3    H233861   4.439   5.815   1.281  1.5140 -0.4697  0.2465
 4076TIP3   OH233862   5.922   4.857   1.044 -0.2995 -0.5147  0.5308
 4076TIP3    H133863   6.004   4.906   1.048  0.5095 -1.6937 -0.7949
 4076TIP3    H233864   5.923   4.815   0.959 -2.1511 -0.8374  0.6150
 4077TIP3   OH233865   3.634   0.428   8.453  0.3839 -0.0625  0.3120
 4077TIP3    H133866   3.582   0.508   8.450  1.8838  0.9638  0.8426
 4077TIP3    H233867   3.724   0.457   8.438  1.0706 -1.5289  1.3645
 4078TIP3   OH233868   5.398   1.674   1.859 -0.6085 -0.5235  0.3670
 4078TIP3    H133869   5.335   1.630   1.916 -1.5093 -0.3018 -0.4370
 4078TIP3    H233870   5.408   1.761   1.897 -1.5528 -0.2197 -0.0502
 4079TIP3   OH233871   6.449   0.635   2.518  0.2613  0.5101  0.0518
 4079TIP3    H133872   6.475   0.694   2.447 -1.4592  0.2451 -0.8385
 4079TIP3    H233873   6.484   0.550   2.492 -0.9147  0.2781 -0.8427
 4080TIP3   OH233874   6.348   3.869   1.470 -0.0479  0.5218 -0.1603
 4080TIP3    H133875   6.434   3.891   1.506 -0.1838  0.5569  0.1486
 4080TIP3    H233876   6.314   3.801   1.529 -1.2338  2.1571  1.1419
 4081TIP3   OH233877   5.206   4.606   1.837 -0.3226 -0.4459  0.9890
 4081TIP3    H133878   5.262   4.655   1.897  0.3808 -2.3882  2.0263
 4081TIP3    H233879   5.226   4.641   1.751  1.0504  0.2437  1.5572
 4082TIP3   OH233880   6.667   2.872   2.366  0.1190  0.3476  0.1901
 4082TIP3    H133881   6.755   2.857   2.401  0.5216  0.6029 -0.6787
 4082TIP3    H233882   6.667   2.829   2.281 -0.5496  0.4890  0.1125
 4083TIP3   OH233883   4.498   4.295   8.233 -0.2018 -0.1312  0.2474
 4083TIP3    H133884   4.536   4.326   8.315 -1.9497 -0.5869  1.2769
 4083TIP3    H233885   4.514   4.367   8.171 -2.3942  2.1006  2.0458
 4084TIP3   OH233886   5.048   4.879   7.380 -0.1785 -0.0546  0.0306
 4084TIP3    H133887   5.105   4.803   7.380 -0.8071 -0.5407  0.6051
 4084TIP3    H233888   5.019   4.888   7.290 -1.4096 -1.5058  0.2564
 4085TIP3   OH233889   1.773   1.771   7.222  0.0880  0.0937 -0.0645
 4085TIP3    H133890   1.838   1.841   7.232  0.3541 -0.1512 -0.0790
 4085TIP3    H233891   1.697   1.802   7.271  0.6866 -0.2303  1.0945
 4086TIP3   OH233892   4.849   5.543   2.311  0.3772 -0.4084 -0.0302
 4086TIP3    H133893   4.787   5.614   2.329 -1.5135 -2.1524  0.6414
 4086TIP3    H233894   4.918   5.554   2.376 -0.1312  0.5168  0.3694
 4087TIP3   OH233895   5.734   4.669   1.566  0.7891 -0.1529  0.0973
 4087TIP3    H133896   5.651   4.704   1.600  1.2170  0.3186  0.6766
 4087TIP3    H233897   5.779   4.636   1.643  0.8747 -0.9947 -0.3013
 4088TIP3   OH233898   6.698   0.853   7.451 -0.1748 -0.3970  0.1070
 4088TIP3    H133899   6.715   0.912   7.524 -0.8906 -0.6681  0.5061
 4088TIP3    H233900   6.731   0.898   7.374 -1.5025  0.9246  0.2716
 4089TIP3   OH233901   0.862   4.577   8.408  0.4344 -0.0298 -0.6547
 4089TIP3    H133902   0.834   4.657   8.453  1.5853  0.4357 -0.7235
 4089TIP3    H233903   0.794   4.561   8.343 -0.0578  0.6230 -0.3187
 4090TIP3   OH233904   1.854   0.808   7.031 -0.1094 -0.7049 -0.0884
 4090TIP3    H133905   1.940   0.769   7.016 -0.4769 -0.9615 -1.6120
 4090TIP3    H233906   1.869   0.903   7.025  0.1274 -0.7342  0.0207
 4091TIP3   OH233907   2.262   3.840   7.680 -0.7402  0.3195  0.4635
 4091TIP3    H133908   2.276   3.749   7.706  2.1514  0.2198 -1.0722
 4091TIP3    H233909   2.284   3.891   7.758  0.5981 -0.2212  0.4633
 4092TIP3   OH233910   6.632   2.700   7.055 -0.1639 -0.0087  0.0648
 4092TIP3    H133911   6.696   2.643   7.012  0.6495  1.6951 -1.0804
 4092TIP3    H233912   6.676   2.730   7.135  0.1370  0.4797 -0.2829
 4093TIP3   OH233913   0.439   4.998   2.289 -0.0190  0.2985  0.0980
 4093TIP3    H133914   0.515   4.948   2.257 -0.4634 -0.1523 -0.2645
 4093TIP3    H233915   0.457   5.088   2.261 -0.3061 -0.0448 -1.2936
 4094TIP3   OH233916   3.586   4.680   2.040  0.3531 -0.5251 -0.0468
 4094TIP3    H133917   3.570   4.586   2.028  0.1068 -0.4091 -0.6615
 4094TIP3    H233918   3.543   4.700   2.123 -3.2948 -0.1436 -1.8157
 4095TIP3   OH233919   5.829   1.812   0.623  0.3822 -0.0902 -0.4656
 4095TIP3    H133920   5.918   1.807   0.657  0.8003  1.2959 -1.2501
 4095TIP3    H233921   5.819   1.904   0.595 -0.9717 -0.4328 -1.2189
 4096TIP3   OH233922   5.351   6.790   6.391 -0.7545 -0.3201 -0.1933
 4096TIP3    H133923   5.306   6.733   6.454  0.6340 -1.2023  0.0284
 4096TIP3    H233924   5.339   6.878   6.426 -1.3438 -0.6473  0.4588
 4097TIP3   OH233925   4.086   3.580   0.784 -0.2502 -0.6119  0.0935
 4097TIP3    H133926   4.039   3.537   0.855 -1.4136  1.0493  0.3897
 4097TIP3    H233927   4.075   3.674   0.801  0.8093 -0.1765 -1.4011
 4098TIP3   OH233928   0.391   5.221   7.665  0.2090  0.1253  0.2020
 4098TIP3    H133929   0.485   5.215   7.678  0.0092 -0.0045  1.7879
 4098TIP3    H233930   0.366   5.136   7.628  0.5042 -0.4649  1.3240
 4099TIP3   OH233931   3.271   2.354   1.657  0.8801  0.1047  0.4177
 4099TIP3    H133932   3.259   2.293   1.730  1.7851 -0.0712  0.4283
 4099TIP3    H233933   3.229   2.310   1.583 -1.1078  0.8076  1.0504
 4100TIP3   OH233934   3.954   4.312   8.799  0.3925 -0.5369 -0.4409
 4100TIP3    H133935   3.924   4.300   8.889 -0.3926  1.7413 -0.3253
 4100TIP3    H233936   4.047   4.291   8.802 -0.0088 -2.3245  0.4571
 4101TIP3   OH233937   1.329   4.949   1.252  0.3729  0.2537  0.6913
 4101TIP3    H133938   1.405   4.900   1.284  0.5230  0.0012 -0.0254
 4101TIP3    H233939   1.268   4.881   1.223  0.2212  0.4762  0.4896
 4102TIP3   OH233940   6.072   3.686   6.685  0.1269  0.2301 -0.6333
 4102TIP3    H133941   6.163   3.677   6.656  0.2272  1.2907 -0.7205
 4102TIP3    H233942   6.020   3.648   6.615  0.5077 -0.4513 -0.5520
 4103TIP3   OH233943   1.477   3.426   8.538 -0.4565 -0.1681  0.4187
 4103TIP3    H133944   1.550   3.485   8.558  0.8218 -1.2105 -0.9075
 4103TIP3    H233945   1.420   3.432   8.614 -0.3905  2.7465  0.3570
 4104TIP3   OH233946   3.361   4.215   1.167  0.1081 -0.0068  0.6721
 4104TIP3    H133947   3.425   4.145   1.154  1.2612  1.2587 -0.8778
 4104TIP3    H233948   3.314   4.190   1.247  1.8539 -1.4777  1.3100
 4105TIP3   OH233949   1.112   5.890   1.542  0.0960 -0.4016  0.8466
 4105TIP3    H133950   1.044   5.957   1.534 -1.2750 -1.9323 -1.0759
 4105TIP3    H233951   1.071   5.818   1.590  0.4713 -1.1745  0.0348
 4106TIP3   OH233952   0.977   5.852   8.212  0.0310  0.2105  0.1346
 4106TIP3    H133953   1.047   5.827   8.271 -1.2666  0.0282  1.6541
 4106TIP3    H233954   0.978   5.948   8.211 -0.8744  0.2735  1.6922
 4107TIP3   OH233955   5.924   0.067   1.599  0.4213 -0.3133  0.0076
 4107TIP3    H133956   5.999   0.025   1.556 -0.7136 -0.0781 -2.3259
 4107TIP3    H233957   5.963   0.135   1.654  1.9603 -0.7257 -0.5177
 4108TIP3   OH233958   2.030   3.153   2.156 -0.2244 -0.3834  0.0955
 4108TIP3    H133959   2.112   3.140   2.110 -1.3205 -1.4762 -1.6424
 4108TIP3    H233960   2.034   3.093   2.230  1.4437  1.1996  1.3936
 4109TIP3   OH233961   5.654   3.071   0.670 -0.0298  0.4226 -0.0336
 4109TIP3    H133962   5.584   3.109   0.618 -0.9468 -2.1321 -0.8247
 4109TIP3    H233963   5.721   3.140   0.675 -2.4238  2.8568  0.5499
 4110TIP3   OH233964   2.239   4.418   8.816  0.5683  0.5787  0.1682
 4110TIP3    H133965   2.163   4.416   8.758  0.1512 -0.6081  0.7259
 4110TIP3    H233966   2.215   4.479   8.886  0.5388  0.9827 -0.1922
 4111TIP3   OH233967   5.101   2.972   8.681  0.1807 -1.2129 -0.1263
 4111TIP3    H133968   5.059   2.930   8.756 -3.4442  0.2121 -1.1515
 4111TIP3    H233969   5.045   3.048   8.662  1.6770 -0.8044 -3.4830
 4112TIP3   OH233970   6.363   3.306   0.431  0.3011  0.0007  0.7390
 4112TIP3    H133971   6.335   3.397   0.424  1.3010  0.3902  1.5539
 4112TIP3    H233972   6.321   3.274   0.510  0.6112  0.0132  0.9113
 4113TIP3   OH233973   5.167   1.070   0.355 -0.0500 -0.1739  0.3244
 4113TIP3    H133974   5.175   0.995   0.414  1.0239 -1.8084 -1.7928
 4113TIP3    H233975   5.204   1.040   0.272 -1.8725  1.8963 -1.3497
 4114TIP3   OH233976   6.081   1.126   0.523  0.2713 -0.1293 -0.8589
 4114TIP3    H133977   6.127   1.136   0.606 -1.1382 -0.1247 -0.0422
 4114TIP3    H233978   6.137   1.068   0.470  3.1730  2.9512 -1.4826
 4115TIP3   OH233979   3.910   5.475   0.908  0.2255 -0.3852  0.1663
 4115TIP3    H133980   3.839   5.539   0.899  0.8621  0.1060 -1.7974
 4115TIP3    H233981   3.930   5.475   1.002 -2.6638 -0.9005  0.8954
 4116TIP3   OH233982   2.177   5.128   0.109  0.1230 -0.0702 -0.0428
 4116TIP3    H133983   2.191   5.034   0.094 -1.6735 -0.5068  0.7610
 4116TIP3    H233984   2.187   5.139   0.203  3.7864  1.2581 -0.4464
 4117TIP3   OH233985   3.536   0.453   2.658  0.3615  0.0629  0.0097
 4117TIP3    H133986   3.536   0.432   2.752  0.8000 -1.0734 -0.2256
 4117TIP3    H233987   3.556   0.546   2.655  5.1786 -0.6603  0.9733
 4118TIP3   OH233988   4.935   1.185   0.959 -0.0904  0.2210  0.1505
 4118TIP3    H133989   4.933   1.169   0.864  0.1373  0.1178  0.1632
 4118TIP3    H233990   4.866   1.250   0.973  0.5663  1.0229 -0.2380
 4119TIP3   OH233991   3.475   6.322   1.891 -0.9721 -0.0615 -0.2929
 4119TIP3    H133992   3.404   6.296   1.832 -1.5721 -1.8396  1.1171
 4119TIP3    H233993   3.439   6.308   1.978  1.5309 -2.4391  0.5009
 4120TIP3   OH233994   1.256   5.198   2.276 -0.4041  0.0085 -0.2324
 4120TIP3    H133995   1.244   5.154   2.360 -1.7566  1.7592  0.5708
 4120TIP3    H233996   1.252   5.291   2.297 -0.4472  0.4993 -2.1966
 4121TIP3   OH233997   2.183   0.069   1.986  0.4324 -0.0647  0.2845
 4121TIP3    H133998   2.171   0.141   2.048 -1.5633  1.8979 -2.1185
 4121TIP3    H233999   2.120   0.002   2.015 -0.1279  0.6152  0.6872
 4122TIP3   OH234000   1.485   1.605   8.348 -0.4668 -0.5062 -0.3813
 4122TIP3    H134001   1.545   1.594   8.275  0.3491 -0.6359  0.2893
 4122TIP3    H234002   1.400   1.624   8.307  0.0452 -0.2180 -1.3397
 4123TIP3   OH234003   2.458   1.871   0.536 -0.1890 -0.3385 -0.7601
 4123TIP3    H134004   2.545   1.910   0.525  0.1411 -1.3316 -1.9783
 4123TIP3    H234005   2.475   1.786   0.576 -0.7031 -0.1491 -0.1240
 4124TIP3   OH234006   4.634   6.215   0.764 -0.3520 -0.0782 -0.4033
 4124TIP3    H134007   4.687   6.281   0.809  1.4542 -0.7911 -1.3765
 4124TIP3    H234008   4.585   6.172   0.834  1.9746 -0.8097  0.8987
 4125TIP3   OH234009   3.423   5.771   7.581 -0.1740 -0.6488  0.0106
 4125TIP3    H134010   3.347   5.745   7.634 -0.7302  1.7516  0.4750
 4125TIP3    H234011   3.479   5.820   7.641  0.8819 -0.8153 -0.8044
 4126TIP3   OH234012   3.828   1.002   6.403  0.0391  0.1702  0.5584
 4126TIP3    H134013   3.818   1.027   6.311 -1.4707  2.2157  1.2142
 4126TIP3    H234014   3.752   0.948   6.421  0.2769 -0.1380  0.6458
 4127TIP3   OH234015   1.950   1.392   8.659 -0.4297  0.3930  0.3132
 4127TIP3    H134016   2.026   1.349   8.699 -1.3129 -1.3789  0.2131
 4127TIP3    H234017   1.878   1.330   8.672 -1.3079  0.8760 -1.8044
 4128TIP3   OH234018   6.403   6.107   1.415  0.1172  0.3485 -0.0367
 4128TIP3    H134019   6.369   6.147   1.336 -0.8292 -0.6220 -0.1504
 4128TIP3    H234020   6.442   6.179   1.464  2.3754  0.7185 -2.1602
 4129TIP3   OH234021   5.764   6.337   0.146  0.7710  0.1771  0.2924
 4129TIP3    H134022   5.769   6.430   0.171  2.9362  0.5894 -1.3659
 4129TIP3    H234023   5.675   6.327   0.111  0.2734  1.4539  1.1106
 4130TIP3   OH234024   1.256   5.786   0.250 -0.2834 -0.2212  0.0492
 4130TIP3    H134025   1.175   5.797   0.299 -0.3476 -0.7243  0.0601
 4130TIP3    H234026   1.324   5.820   0.307 -0.4916  0.2560  0.0165
 4131TIP3   OH234027   2.331   2.413   6.399  0.5894  0.2633  0.8076
 4131TIP3    H134028   2.255   2.388   6.452 -0.7279 -0.3019 -1.2319
 4131TIP3    H234029   2.364   2.493   6.440  0.0698 -0.5143  2.8519
 4132TIP3   OH234030   6.801   1.497   7.188 -0.0753  0.1948  0.1637
 4132TIP3    H134031   6.888   1.477   7.223  0.2565  0.2963 -0.5901
 4132TIP3    H234032   6.797   1.593   7.189 -0.0097  0.2035 -0.1897
 4133TIP3   OH234033   2.919   6.369   0.906  0.3507 -0.1460 -0.0476
 4133TIP3    H134034   2.980   6.303   0.939 -0.3964 -1.5594 -1.3918
 4133TIP3    H234035   2.834   6.326   0.904 -0.5741  1.5083  0.9329
 4134TIP3   OH234036   0.163   5.055   8.095  0.3362 -0.2063 -0.4462
 4134TIP3    H134037   0.162   5.138   8.144 -0.5177  0.7392 -1.9888
 4134TIP3    H234038   0.086   5.060   8.038  0.2888 -2.0705 -0.6033
 4135TIP3   OH234039   4.230   2.816   0.579  0.1112 -0.1908 -0.3036
 4135TIP3    H134040   4.183   2.786   0.656  3.0670 -2.3618  0.8607
 4135TIP3    H234041   4.187   2.898   0.554 -2.3292 -0.5462  2.2942
 4136TIP3   OH234042   0.082   0.626   7.496  0.4381 -0.0120 -0.1998
 4136TIP3    H134043   0.140   0.672   7.436 -0.1039  0.0669 -0.6750
 4136TIP3    H234044   0.003   0.680   7.499  0.5916  0.1740  0.8718
 4137TIP3   OH234045   0.888   3.177   7.403  0.1207 -0.5929  0.2637
 4137TIP3    H134046   0.906   3.141   7.316  0.9011  0.5764 -0.0765
 4137TIP3    H234047   0.971   3.213   7.432 -0.6120  0.9525  0.5724
 4138TIP3   OH234048   5.153   0.763   7.412 -0.3475 -0.2560 -0.2306
 4138TIP3    H134049   5.193   0.773   7.498  0.0676  0.6217 -0.5239
 4138TIP3    H234050   5.086   0.831   7.408 -0.0497  0.0114 -0.7806
 4139TIP3   OH234051   6.810   4.398   6.569 -0.1399  0.1444  0.5414
 4139TIP3    H134052   6.785   4.316   6.612  0.3362 -0.4943 -0.3736
 4139TIP3    H234053   6.738   4.458   6.590 -0.7428 -0.6467  0.8124
 4140TIP3   OH234054   1.977   1.065   8.134 -0.2944  0.1852  0.3122
 4140TIP3    H134055   1.920   0.991   8.113 -0.7717  0.8110 -0.6247
 4140TIP3    H234056   2.025   1.036   8.211 -2.3719 -0.0894  1.5763
 4141TIP3   OH234057   4.553   5.919   8.350 -0.7618 -0.0353  0.8077
 4141TIP3    H134058   4.512   5.955   8.271  0.3982 -2.2556 -0.8994
 4141TIP3    H234059   4.479   5.889   8.404 -1.5564  1.3814  0.5622
 4142TIP3   OH234060   2.891   5.954   0.806  0.5584 -0.1440 -0.2621
 4142TIP3    H134061   2.964   5.952   0.745  1.3433  0.6137  0.6194
 4142TIP3    H234062   2.813   5.961   0.751  1.2473  0.6470 -1.1619
 4143TIP3   OH234063   5.795   4.131   8.068  0.6312  0.1194 -0.3888
 4143TIP3    H134064   5.859   4.199   8.090 -0.1992  0.7091  0.3024
 4143TIP3    H234065   5.755   4.108   8.152 -0.1016 -0.1978 -0.8157
 4144TIP3   OH234066   1.982   4.084   1.007 -0.1969  0.4993 -0.2414
 4144TIP3    H134067   2.037   4.045   1.074 -2.1761  1.1128  1.9047
 4144TIP3    H234068   1.916   4.017   0.987  0.3991  0.2996 -1.6743
 4145TIP3   OH234069   6.497   4.486   6.993 -0.3012 -0.4063  0.0688
 4145TIP3    H134070   6.456   4.502   6.907 -0.1993 -1.5364 -0.2057
 4145TIP3    H234071   6.559   4.558   7.004 -0.0071 -0.4820 -1.0090
 4146TIP3   OH234072   5.031   4.355   1.448 -0.0395  0.2996 -0.9672
 4146TIP3    H134073   4.943   4.359   1.411 -0.8937  2.6974  1.0585
 4146TIP3    H234074   5.021   4.304   1.529  1.2066 -2.3575 -2.3693
 4147TIP3   OH234075   6.309   4.365   8.727 -0.0872  0.1653  0.2493
 4147TIP3    H134076   6.306   4.428   8.655 -1.5576  0.6962  0.7331
 4147TIP3    H234077   6.328   4.419   8.804 -1.9328  0.1367  0.7568
 4148TIP3   OH234078   3.219   2.962   0.385 -0.4518 -0.1335  0.3852
 4148TIP3    H134079   3.280   2.944   0.314 -0.1058  0.4038  0.5407
 4148TIP3    H234080   3.260   3.033   0.434 -2.3013  1.9346 -0.9006
 4149TIP3   OH234081   1.952   4.199   1.675  0.1210 -0.3229  0.4834
 4149TIP3    H134082   2.013   4.128   1.656 -0.6505 -1.0169  0.5517
 4149TIP3    H234083   1.928   4.234   1.589  0.7234  0.0424  0.4652
 4150TIP3   OH234084   1.331   3.040   8.554  0.1018  0.4435  0.6420
 4150TIP3    H134085   1.364   3.064   8.467 -1.4732  0.2710 -0.0424
 4150TIP3    H234086   1.410   3.029   8.607  1.3194 -2.0786 -1.4373
 4151TIP3   OH234087   3.913   0.138   0.115  0.0692 -0.3705  0.3552
 4151TIP3    H134088   3.935   0.099   0.031 -2.0817  1.9860 -1.4547
 4151TIP3    H234089   3.844   0.081   0.151 -1.0582  0.1502 -0.9087
 4152TIP3   OH234090   5.248   2.418   0.107  0.8448 -0.5273 -0.1973
 4152TIP3    H134091   5.318   2.357   0.080  2.3732  0.6393  0.9242
 4152TIP3    H234092   5.295   2.489   0.151 -1.0361  0.6305  0.0161
 4153TIP3   OH234093   6.386   0.882   8.772 -0.2212  0.2365 -0.2849
 4153TIP3    H134094   6.360   0.815   8.709  0.7435  0.2485 -0.7072
 4153TIP3    H234095   6.480   0.867   8.786 -0.6673 -0.7376  2.2864
 4154TIP3   OH234096   5.559   1.464   1.310  0.4047 -0.0236  0.1402
 4154TIP3    H134097   5.470   1.461   1.277 -0.1429 -0.2114  1.5815
 4154TIP3    H234098   5.614   1.452   1.232 -0.7012  2.9204 -1.2327
 4155TIP3   OH234099   3.691   6.567   2.170 -0.9236  0.2372 -0.4119
 4155TIP3    H134100   3.761   6.578   2.107 -0.4254  0.0813  0.1006
 4155TIP3    H234101   3.674   6.655   2.203 -1.5202  0.3898 -1.1050
 4156TIP3   OH234102   2.188   2.050   1.576  0.2090 -0.4761  0.4257
 4156TIP3    H134103   2.230   1.972   1.614  0.2831  1.3534  4.6626
 4156TIP3    H234104   2.202   2.041   1.482  2.4211 -4.2749  0.8919
 4157TIP3   OH234105   1.037   0.478   8.663  0.1532 -0.2166 -0.2021
 4157TIP3    H134106   1.079   0.428   8.593 -0.3804  0.9807 -1.4261
 4157TIP3    H234107   0.957   0.513   8.624  0.4142  1.4443  0.6191
 4158TIP3   OH234108   2.700   4.923   1.661  0.4313  0.1111 -0.3330
 4158TIP3    H134109   2.682   4.836   1.697 -1.4863  0.6331  0.0274
 4158TIP3    H234110   2.785   4.913   1.618  0.1542 -2.0044 -0.4956
 4159TIP3   OH234111   5.554   5.987   8.832 -0.8065 -0.0831  0.2575
 4159TIP3    H134112   5.467   5.956   8.807 -1.5592  0.2378  2.2793
 4159TIP3    H234113   5.608   5.908   8.836 -2.0733 -0.9250  2.9140
 4160TIP3   OH234114   5.176   4.119   0.175 -0.0921 -0.0521  0.5580
 4160TIP3    H134115   5.219   4.203   0.164  1.0653 -0.3882  2.1840
 4160TIP3    H234116   5.101   4.137   0.231 -0.9285  0.1743 -0.5905
 4161TIP3   OH234117   0.078   0.228   7.794  0.6021 -0.5930 -0.1498
 4161TIP3    H134118   0.101   0.309   7.748 -1.7496  0.5436  0.5365
 4161TIP3    H234119  -0.006   0.246   7.835  2.3035 -1.5660  4.4466
 4162TIP3   OH234120   3.097   4.592   0.987  0.1220 -0.0868 -0.1705
 4162TIP3    H134121   3.154   4.603   1.063 -1.0511 -1.8753  1.0707
 4162TIP3    H234122   3.096   4.497   0.972 -1.0487  0.0843 -1.3094
 4163TIP3   OH234123   3.653   1.268   6.089  0.0330 -0.3759 -0.6101
 4163TIP3    H134124   3.672   1.351   6.046  2.2340 -1.1445 -1.2759
 4163TIP3    H234125   3.675   1.282   6.181  2.3628 -0.7266 -1.0631
 4164TIP3   OH234126   2.127   2.502   7.544 -0.0532  0.0663  0.1513
 4164TIP3    H134127   2.034   2.477   7.539  0.5193 -2.3958  0.5383
 4164TIP3    H234128   2.163   2.449   7.614  1.8603  0.3021 -0.5825
 4165TIP3   OH234129   0.110   1.509   1.145  0.1557 -0.6402 -0.3002
 4165TIP3    H134130   0.163   1.463   1.081  0.9455 -1.8484  1.1604
 4165TIP3    H234131   0.170   1.527   1.217 -1.0002 -0.4845  0.6574
 4166TIP3   OH234132   2.659   4.715   8.811  0.1223 -0.2950 -0.1225
 4166TIP3    H134133   2.614   4.633   8.790  0.4718  0.0514 -2.5596
 4166TIP3    H234134   2.606   4.783   8.769  1.3872  0.4134 -0.6260
 4167TIP3   OH234135   1.550   3.102   6.276  0.1308  0.0149  0.4472
 4167TIP3    H134136   1.514   3.143   6.197  1.3839 -0.5071 -0.4302
 4167TIP3    H234137   1.517   3.156   6.348  1.3586  2.3391 -0.6225
 4168TIP3   OH234138   1.784   4.643   7.411 -0.3139  0.1576 -0.0192
 4168TIP3    H134139   1.730   4.659   7.488  1.6957  3.9003  0.8623
 4168TIP3    H234140   1.874   4.651   7.442  0.6117  0.3506 -2.5060
 4169TIP3   OH234141   4.792   3.116   7.256  0.7733  0.2123 -0.4368
 4169TIP3    H134142   4.703   3.146   7.272  0.7985  0.3492 -0.5506
 4169TIP3    H234143   4.786   3.071   7.171  0.8960  0.5730 -0.6356
 4170TIP3   OH234144   6.008   5.010   8.208  0.3419  0.1545 -0.1462
 4170TIP3    H134145   6.013   4.963   8.291  2.1880 -1.0953 -0.8984
 4170TIP3    H234146   6.030   5.101   8.230 -1.0807  0.2655  0.9879
 4171TIP3   OH234147   3.903   3.858   1.966  0.6530  0.3837 -0.0773
 4171TIP3    H134148   3.972   3.902   1.917  0.7528  0.6921  0.3323
 4171TIP3    H234149   3.948   3.817   2.040  0.1900  2.1254  1.2355
 4172TIP3   OH234150   4.248   3.555   8.611 -0.0119 -0.6142 -0.0481
 4172TIP3    H134151   4.240   3.468   8.650 -0.2879 -0.2519  0.7156
 4172TIP3    H234152   4.266   3.613   8.685 -1.5946  0.2485 -0.3160
 4173TIP3   OH234153   2.459   0.119   1.555 -0.7348  0.7908 -0.6845
 4173TIP3    H134154   2.389   0.090   1.497 -0.6286 -0.0551 -0.4061
 4173TIP3    H234155   2.439   0.079   1.640 -0.8571  1.9590 -0.1344
 4174TIP3   OH234156   4.923   6.003   7.539  0.2569  0.2983 -0.3158
 4174TIP3    H134157   4.842   5.986   7.588  0.4924 -1.0518 -0.3537
 4174TIP3    H234158   4.974   6.061   7.595 -0.6101  0.9317 -0.1643
 4175TIP3   OH234159   2.759   3.525   6.627 -0.2932  0.5356 -0.7969
 4175TIP3    H134160   2.702   3.457   6.590 -0.7510  0.5164 -0.0892
 4175TIP3    H234161   2.837   3.477   6.656  0.1490  0.5804 -1.8841
 4176TIP3   OH234162   2.613   0.052   0.447 -0.3112  0.1837  0.2980
 4176TIP3    H134163   2.547   0.054   0.377  0.2922 -0.6210 -0.3162
 4176TIP3    H234164   2.615   0.141   0.480 -0.9826  0.4634 -0.3658
 4177TIP3   OH234165   2.259   3.069   1.922 -0.2790 -0.1187 -0.3449
 4177TIP3    H134166   2.321   2.996   1.917  3.4138  2.7958 -1.1203
 4177TIP3    H234167   2.219   3.071   1.834  1.5973  0.3549 -1.2232
 4178TIP3   OH234168   3.443   5.923   6.610  0.2454  0.0565  0.1723
 4178TIP3    H134169   3.496   5.920   6.530  1.0055  2.0384  0.5557
 4178TIP3    H234170   3.392   5.841   6.608 -1.1419  0.8362 -3.2404
 4179TIP3   OH234171   6.807   6.404   1.280  0.5165  0.0481 -0.0673
 4179TIP3    H134172   6.715   6.399   1.256  0.5553 -1.2397  0.0029
 4179TIP3    H234173   6.813   6.356   1.363  1.1968  0.4321  0.1210
 4180TIP3   OH234174   3.389   3.127   8.816 -0.3749  0.1343 -0.6068
 4180TIP3    H134175   3.352   3.215   8.812  1.3199  0.8946 -0.4812
 4180TIP3    H234176   3.482   3.139   8.794  0.0821 -1.4989  0.2581
 4181TIP3   OH234177   5.071   2.577   2.098 -0.3429 -0.1146 -0.4964
 4181TIP3    H134178   5.099   2.659   2.058  0.0652 -0.2678 -0.5345
 4181TIP3    H234179   5.144   2.517   2.082 -1.2831 -0.9551 -1.8690
 4182TIP3   OH234180   3.038   0.634   1.497 -0.0944  0.0429 -0.1054
 4182TIP3    H134181   3.058   0.693   1.425  0.5942  0.4528  0.4043
 4182TIP3    H234182   3.122   0.622   1.542 -0.3749 -0.7391  0.2285
 4183TIP3   OH234183   5.126   5.517   0.780  0.5499  0.1184  0.7216
 4183TIP3    H134184   5.126   5.612   0.786  0.6231  0.1548  0.2068
 4183TIP3    H234185   5.051   5.497   0.723  2.0577  0.0303 -1.3505
 4184TIP3   OH234186   6.431   4.910   2.513  0.1751 -0.1259 -0.3102
 4184TIP3    H134187   6.378   4.924   2.435  0.4340  0.3480 -0.4006
 4184TIP3    H234188   6.371   4.926   2.586  0.1782  0.3691 -0.4132
 4185TIP3   OH234189   3.472   2.029   6.781  0.5843 -0.0408  0.1034
 4185TIP3    H134190   3.464   1.936   6.802 -0.6681 -0.3868 -1.7018
 4185TIP3    H234191   3.400   2.071   6.828 -0.3341 -0.3589 -0.9887
 4186TIP3   OH234192   1.273   0.472   1.678 -0.0351 -0.4266 -0.6873
 4186TIP3    H134193   1.355   0.425   1.666 -0.3855 -1.1970 -0.2053
 4186TIP3    H234194   1.208   0.420   1.630 -0.6655 -1.1776  0.8996
 4187TIP3   OH234195   4.816   3.573   0.509  0.5415  0.3187 -0.0465
 4187TIP3    H134196   4.876   3.578   0.584 -0.2693 -0.0349  0.6407
 4187TIP3    H234197   4.739   3.528   0.543  0.4104 -0.4226 -1.2654
 4188TIP3   OH234198   1.894   1.606   0.930  0.0347 -0.2005 -0.3385
 4188TIP3    H134199   1.829   1.538   0.946 -1.9100  1.1904 -1.8550
 4188TIP3    H234200   1.874   1.674   0.995 -0.2531  0.3712 -1.0154
 4189TIP3   OH234201   4.077   0.360   7.810 -0.4092 -0.0567 -0.0181
 4189TIP3    H134202   4.051   0.268   7.805 -1.4616  0.2442 -0.3173
 4189TIP3    H234203   4.032   0.394   7.887 -0.3776  0.3123 -0.1559
 4190TIP3   OH234204   1.179   0.046   0.873  0.2074  0.0786  0.0239
 4190TIP3    H134205   1.244  -0.021   0.897 -0.4525 -0.9612 -1.0193
 4190TIP3    H234206   1.197   0.065   0.782 -1.1540 -0.4943 -0.3963
 4191TIP3   OH234207   5.072   2.433   8.800  0.7432 -0.5822  0.2925
 4191TIP3    H134208   5.141   2.423   8.866 -0.3117  0.9305  1.7061
 4191TIP3    H234209   4.999   2.474   8.847 -1.5028 -2.9175 -0.9151
 4192TIP3   OH234210   6.476   2.233   1.621 -0.6519 -0.7118 -0.3096
 4192TIP3    H134211   6.485   2.191   1.536  1.0191  0.1540 -0.6181
 4192TIP3    H234212   6.416   2.306   1.607  0.3287 -0.0176 -0.9985
 4193TIP3   OH234213   1.914   0.140   8.477  0.1820  0.8509  0.0251
 4193TIP3    H134214   1.932   0.099   8.561 -1.7288 -0.3413 -0.0880
 4193TIP3    H234215   1.819   0.147   8.473  0.2850  2.1172 -1.4773
 4194TIP3   OH234216   6.609   3.200   1.956 -0.0930 -0.5378 -0.3460
 4194TIP3    H134217   6.600   3.254   2.035  0.2425  0.3552 -0.9045
 4194TIP3    H234218   6.573   3.115   1.981  0.5032 -0.4377  0.9442
 4195TIP3   OH234219   2.847   4.439   0.840 -0.4483  0.4038  0.1212
 4195TIP3    H134220   2.918   4.403   0.787 -0.8119  2.4979 -1.9162
 4195TIP3    H234221   2.891   4.488   0.909  0.0344 -0.5040  0.4816
 4196TIP3   OH234222   3.172   0.336   0.868 -0.8084  0.2572  0.5303
 4196TIP3    H134223   3.217   0.354   0.951  0.4797  0.2359 -0.1332
 4196TIP3    H234224   3.163   0.241   0.866 -1.4750  0.3024  0.9465
 4197TIP3   OH234225   4.622   2.319   0.771  0.1390 -0.2030  0.2738
 4197TIP3    H134226   4.565   2.242   0.773  0.0905 -0.2504 -1.2722
 4197TIP3    H234227   4.665   2.313   0.685 -0.3927  1.8470 -0.1761
 4198TIP3   OH234228   1.205   6.422   7.116  0.2570  0.2015  0.5343
 4198TIP3    H134229   1.142   6.427   7.044  1.1588 -1.9870 -0.4850
 4198TIP3    H234230   1.285   6.391   7.075  1.7640  1.9616  1.9793
 4199TIP3   OH234231   2.955   6.658   1.411  0.2410  0.2519  0.1961
 4199TIP3    H134232   2.879   6.711   1.434 -0.0507  0.4772 -1.2067
 4199TIP3    H234233   3.010   6.659   1.489 -0.6653  1.0255  0.8375
 4200TIP3   OH234234   3.028   2.144   8.030 -0.1554 -0.3511 -0.4717
 4200TIP3    H134235   3.081   2.067   8.046 -0.4803 -0.6325 -0.7266
 4200TIP3    H234236   3.023   2.189   8.114 -0.6719 -1.0563 -0.1202
 4201TIP3   OH234237   6.816   3.113   1.384 -0.1090  0.2170 -0.1884
 4201TIP3    H134238   6.881   3.136   1.450 -1.5088 -1.3143  1.8762
 4201TIP3    H234239   6.831   3.021   1.366 -0.8051  0.2108 -0.7915
 4202TIP3   OH234240   5.246   2.575   7.861 -0.2475 -0.0333  0.0392
 4202TIP3    H134241   5.251   2.480   7.848 -0.4896  0.0431 -0.6622
 4202TIP3    H234242   5.231   2.610   7.773  0.0644  0.6722  0.2636
 4203TIP3   OH234243   1.781   0.200   7.537 -0.8154 -0.0651  0.2436
 4203TIP3    H134244   1.811   0.142   7.467  0.2126 -2.5282  2.5004
 4203TIP3    H234245   1.859   0.249   7.563 -0.9543  0.1560  0.2396
 4204TIP3   OH234246   2.746   1.641   0.888 -0.2132  0.2896 -0.0503
 4204TIP3    H134247   2.710   1.562   0.848  0.1821  0.7749 -1.4531
 4204TIP3    H234248   2.671   1.683   0.931 -0.5765 -0.4627  0.0607
 4205TIP3   OH234249   3.956   1.794   1.559 -0.2977  0.0788 -0.2669
 4205TIP3    H134250   3.996   1.708   1.577 -1.7648 -0.3264  1.2782
 4205TIP3    H234251   4.027   1.857   1.575  0.5575 -0.7853 -0.5592
 4206TIP3   OH234252   2.128   3.155   0.528 -0.1013 -0.5292 -1.0449
 4206TIP3    H134253   2.093   3.070   0.503  0.6140 -0.9566 -0.6326
 4206TIP3    H234254   2.149   3.146   0.621  1.9912 -0.6223 -1.4776
 4207TIP3   OH234255   6.806   5.873   1.053  0.2435  0.3489  0.2386
 4207TIP3    H134256   6.791   5.781   1.075 -0.0416  0.5310  0.8198
 4207TIP3    H234257   6.724   5.903   1.014 -0.2277  0.7828  1.5204
 4208TIP3   OH234258   2.564   5.184   8.058  0.2703  0.1928  0.0618
 4208TIP3    H134259   2.511   5.139   8.124 -0.0898  0.5185  0.0000
 4208TIP3    H234260   2.644   5.210   8.104  0.1504  0.1540  0.2896
 4209TIP3   OH234261   0.498   6.559   7.002 -0.0571 -0.4637  0.5842
 4209TIP3    H134262   0.485   6.590   6.912 -3.3371 -1.4283  0.6012
 4209TIP3    H234263   0.441   6.615   7.054  0.5961 -0.9651  1.8658
 4210TIP3   OH234264   4.912   3.328   7.340  0.6402 -0.8702  0.0377
 4210TIP3    H134265   4.877   3.367   7.260  1.9556  0.8835  0.2535
 4210TIP3    H234266   4.879   3.238   7.339 -1.2338 -0.2417 -1.3048
 4211TIP3   OH234267   1.070   1.223   7.972  0.7962  0.4954 -0.2171
 4211TIP3    H134268   1.118   1.160   8.025  0.5771 -0.3053 -0.9594
 4211TIP3    H234269   1.002   1.172   7.928 -0.3202  1.4880  0.2742
 4212TIP3   OH234270   6.170   6.727   8.097  0.5545  0.2687 -0.1075
 4212TIP3    H134271   6.224   6.801   8.124  1.5384 -0.4040 -0.2153
 4212TIP3    H234272   6.226   6.651   8.107 -0.3451 -0.4373 -0.3076
 4213TIP3   OH234273   2.767   5.036   7.208  0.0257 -0.2919  0.7454
 4213TIP3    H134274   2.769   5.087   7.290 -0.8475  0.9046  0.0599
 4213TIP3    H234275   2.811   5.092   7.144  0.0078 -0.8774  0.2150
 4214TIP3   OH234276   4.671   5.182   6.873 -0.0607  0.0808  0.0024
 4214TIP3    H134277   4.761   5.177   6.905  1.2991 -0.9997 -3.5057
 4214TIP3    H234278   4.680   5.189   6.777 -3.7165  0.7753 -0.4319
 4215TIP3   OH234279   1.228   4.226   7.060 -0.8959  1.1165  0.3094
 4215TIP3    H134280   1.204   4.317   7.043 -1.7690  0.8770  0.1994
 4215TIP3    H234281   1.161   4.195   7.121 -1.5471  0.0966 -0.8715
 4216TIP3   OH234282   0.053   0.518   1.009 -0.3834 -0.3877  0.4416
 4216TIP3    H134283   0.113   0.567   1.065 -0.3711  0.4449 -0.2830
 4216TIP3    H234284   0.056   0.563   0.925 -0.4931 -1.5528 -0.2028
 4217TIP3   OH234285   6.015   0.237   7.669 -0.4295  0.2387 -0.1108
 4217TIP3    H134286   5.968   0.320   7.678 -1.8378 -0.0856 -3.2200
 4217TIP3    H234287   6.099   0.261   7.629  0.2592  0.3601  1.3421
 4218TIP3   OH234288   4.924   3.940   8.661  0.1239  0.1536 -0.0707
 4218TIP3    H134289   4.914   3.986   8.744  1.6538 -0.0439  0.2492
 4218TIP3    H234290   4.851   3.972   8.607 -1.3191 -0.2444  1.5549
 4219TIP3   OH234291   6.220   0.152   1.035  0.0645 -0.4507 -0.1018
 4219TIP3    H134292   6.251   0.205   0.962 -0.7290 -1.0854 -0.9282
 4219TIP3    H234293   6.248   0.200   1.113  1.2526  0.0491 -0.8098
 4220TIP3   OH234294   1.300   6.361   1.219  0.4724  0.1290 -0.0613
 4220TIP3    H134295   1.393   6.357   1.241  0.5154 -0.0379 -0.2708
 4220TIP3    H234296   1.268   6.271   1.233  0.3740  0.1531 -0.1248
 4221TIP3   OH234297   2.396   2.246   8.677 -0.2807  0.3558 -0.0147
 4221TIP3    H134298   2.327   2.196   8.722  0.4769 -2.0533 -1.3897
 4221TIP3    H234299   2.473   2.236   8.733 -1.0622  3.6972  1.9353
 4222TIP3   OH234300   0.911   5.954   1.203 -0.2849 -0.2190  0.1837
 4222TIP3    H134301   0.830   5.906   1.217  0.2143 -0.6093  1.9744
 4222TIP3    H234302   0.980   5.889   1.216  0.3494  0.3456 -0.2494
 4223TIP3   OH234303   6.495   1.608   8.462 -0.1079 -0.5381 -0.1655
 4223TIP3    H134304   6.405   1.575   8.457 -0.6143  0.7093  0.2766
 4223TIP3    H234305   6.485   1.703   8.461  0.9893 -0.2823  2.6825
 4224TIP3   OH234306   2.283   3.409   7.328  0.4869  0.3099 -0.1381
 4224TIP3    H134307   2.333   3.361   7.262 -1.1403 -0.7360 -0.6723
 4224TIP3    H234308   2.278   3.499   7.293  2.6456  0.6698  0.3474
 4225TIP3   OH234309   5.810   1.563   8.318  0.0361 -0.1776  0.3538
 4225TIP3    H134310   5.848   1.646   8.348 -0.0298 -0.1378  0.3266
 4225TIP3    H234311   5.770   1.525   8.396  1.0309 -0.7128  0.6127
 4226TIP3   OH234312   1.647   5.387   7.285 -0.1227  0.2680 -0.0804
 4226TIP3    H134313   1.641   5.338   7.203 -2.1991  1.7243 -0.8675
 4226TIP3    H234314   1.614   5.327   7.352 -0.4238 -0.1931 -0.6442
 4227TIP3   OH234315   4.549   0.502   1.437 -0.0738  0.4871 -0.2870
 4227TIP3    H134316   4.628   0.451   1.416 -1.0084 -0.2688 -2.3072
 4227TIP3    H234317   4.570   0.591   1.408 -0.0408  0.2242 -1.1086
 4228TIP3   OH234318   1.714   6.730   0.957 -0.2387  0.1914 -0.4933
 4228TIP3    H134319   1.769   6.780   0.897 -0.3006 -1.9807 -2.4770
 4228TIP3    H234320   1.729   6.639   0.933 -0.1380 -0.8453  2.9488
 4229TIP3   OH234321   2.775   3.421   7.833  0.1714  0.0122 -0.5117
 4229TIP3    H134322   2.787   3.328   7.853 -1.0176  0.3771  2.4729
 4229TIP3    H234323   2.818   3.433   7.749  1.7893 -2.8891 -0.2353
 4230TIP3   OH234324   2.212   6.003   7.416  0.5470  0.5159 -0.3359
 4230TIP3    H134325   2.166   6.053   7.483  0.5848  0.6351 -0.3988
 4230TIP3    H234326   2.300   5.990   7.452  0.3784  0.0257 -0.0825
 4231TIP3   OH234327   5.313   4.331   8.136  0.1742 -0.2435  0.4632
 4231TIP3    H134328   5.267   4.357   8.216  0.0969 -0.0621  0.3596
 4231TIP3    H234329   5.261   4.258   8.101 -0.6801  0.6759 -0.2515
 4232TIP3   OH234330   1.629   5.934   1.351  0.3369  0.2893  0.6364
 4232TIP3    H134331   1.545   5.900   1.320  0.9798 -2.0417  1.2444
 4232TIP3    H234332   1.657   5.872   1.417  1.9576  1.7347  1.3829
 4233TIP3   OH234333   4.965   4.369   7.995  0.3733 -0.4161 -0.3795
 4233TIP3    H134334   5.017   4.435   7.950  0.4924 -0.0784  0.2409
 4233TIP3    H234335   5.018   4.289   7.989 -0.7327 -1.0558 -3.0348
 4234TIP3   OH234336   1.623   2.623   7.374 -0.4612  0.4280  0.4427
 4234TIP3    H134337   1.689   2.678   7.416 -0.6349  2.0815 -1.3079
 4234TIP3    H234338   1.673   2.555   7.328 -0.0910  0.5771  0.6215
 4235TIP3   OH234339   2.579   5.905   8.770 -0.0830 -0.0637  0.3678
 4235TIP3    H134340   2.520   5.844   8.814 -1.4572  0.4656 -0.6661
 4235TIP3    H234341   2.575   5.879   8.678  0.2896  0.8103  0.0978
 4236TIP3   OH234342   0.734   5.815   8.860 -0.0971  0.1645 -0.0447
 4236TIP3    H134343   0.688   5.733   8.880  0.3038 -0.2880 -0.8794
 4236TIP3    H234344   0.796   5.826   8.932 -1.7366  0.9967  1.3101
 4237TIP3   OH234345   5.420   3.506   2.376  0.5615  0.0175 -0.6135
 4237TIP3    H134346   5.432   3.599   2.396  1.3532 -0.1184 -0.4279
 4237TIP3    H234347   5.502   3.480   2.335  1.3018 -1.1697  1.4743
 4238TIP3   OH234348   2.642   2.582   0.761  0.1483  0.0191 -0.4526
 4238TIP3    H134349   2.676   2.494   0.774 -0.1140  0.1085  0.9282
 4238TIP3    H234350   2.716   2.640   0.778 -0.2939  0.1532  1.1679
 4239TIP3   OH234351   4.175   5.938   0.234  0.5230  0.9037  0.3852
 4239TIP3    H134352   4.237   5.869   0.208  0.3289  0.9075 -0.1065
 4239TIP3    H234353   4.149   5.914   0.323  0.8255  0.6101  0.3988
 4240TIP3   OH234354   2.120   5.491   7.644 -0.8718  0.1125 -0.1219
 4240TIP3    H134355   2.095   5.531   7.560  0.5257 -0.3197 -0.7708
 4240TIP3    H234356   2.042   5.500   7.699 -1.9290  0.1112 -1.5689
 4241TIP3   OH234357   5.341   5.859   1.762 -0.3557  0.0972 -0.0122
 4241TIP3    H134358   5.318   5.854   1.669 -1.0092 -2.2145  0.1928
 4241TIP3    H234359   5.268   5.905   1.803  0.0588  1.3596 -0.6455
 4242TIP3   OH234360   6.802   0.647   0.756 -0.0337  0.1138 -0.0283
 4242TIP3    H134361   6.787   0.741   0.765 -0.9543 -0.0558  0.3586
 4242TIP3    H234362   6.801   0.632   0.662 -0.7915  0.3624 -0.0681
 4243TIP3   OH234363   3.227   3.497   0.855  0.4415 -0.0667  0.5206
 4243TIP3    H134364   3.142   3.458   0.874 -0.2859  1.2424  0.0139
 4243TIP3    H234365   3.284   3.465   0.925 -0.3954 -1.1442  0.7357
 4244TIP3   OH234366   5.371   4.560   0.584  0.0898  0.0588 -0.3237
 4244TIP3    H134367   5.310   4.620   0.627  1.1576  0.7526  0.2734
 4244TIP3    H234368   5.423   4.524   0.656  0.6820 -0.1727 -0.8615
 4245TIP3   OH234369   6.028   5.112   0.765 -0.0009 -0.2838 -0.7222
 4245TIP3    H134370   6.010   5.190   0.817 -0.0314 -0.1121 -0.9881
 4245TIP3    H234371   6.120   5.120   0.741  0.1727 -0.6557 -0.2106
 4246TIP3   OH234372   1.005   6.368   7.365  0.3035 -0.0853 -0.1058
 4246TIP3    H134373   0.940   6.343   7.431  1.9029  0.2456  1.6871
 4246TIP3    H234374   1.086   6.324   7.393  2.1960  3.5995  0.8192
 4247TIP3   OH234375   4.573   2.670   1.378 -0.3607  0.4729 -0.5971
 4247TIP3    H134376   4.548   2.672   1.286 -1.4728  0.0912 -0.3089
 4247TIP3    H234377   4.522   2.740   1.418  0.2429  0.7472 -0.2850
 4248TIP3   OH234378   2.334   6.339   1.452  0.6841  0.3675  0.3877
 4248TIP3    H134379   2.305   6.422   1.415  0.7491  0.8390  1.3696
 4248TIP3    H234380   2.295   6.336   1.539 -0.6185 -1.3630 -0.2079
 4249TIP3   OH234381   5.807   3.965   0.394 -0.0534  0.1254 -0.7539
 4249TIP3    H134382   5.795   3.974   0.488 -0.3509  0.7157 -0.8456
 4249TIP3    H234383   5.725   3.997   0.356 -0.3904 -1.1627 -1.1826
 4250TIP3   OH234384   3.998   0.430   0.718  0.1455 -0.0758 -0.0367
 4250TIP3    H134385   4.040   0.442   0.804  0.2639  1.4498 -0.2839
 4250TIP3    H234386   4.004   0.336   0.703  1.6827 -0.1760  0.8597
 4251TIP3   OH234387   0.720   0.176   7.864  0.4720  0.1799  0.7231
 4251TIP3    H134388   0.701   0.132   7.782  0.0536 -1.6209  1.7293
 4251TIP3    H234389   0.642   0.229   7.881 -0.3552 -1.0797  0.9687
 4252TIP3   OH234390   3.715   5.647   8.237 -0.1068  0.2355 -0.4783
 4252TIP3    H134391   3.807   5.652   8.211 -0.7967 -1.0896 -3.5958
 4252TIP3    H234392   3.715   5.595   8.317  1.7913 -0.7268 -1.0563
 4253TIP3   OH234393   3.036   1.103   2.355  0.8865  0.5904  0.7221
 4253TIP3    H134394   2.954   1.124   2.400  0.9878  2.5439  0.0715
 4253TIP3    H234395   3.097   1.171   2.381  0.6622  2.4889 -3.0008
 4254TIP3   OH234396   4.587   5.805   6.652  0.8283 -0.5910  0.1838
 4254TIP3    H134397   4.518   5.799   6.586  1.4087  1.3618 -0.6834
 4254TIP3    H234398   4.634   5.722   6.646 -0.2426 -1.1627 -0.5658
 4255TIP3   OH234399   4.517   2.419   7.592  0.2686 -0.5829  0.0239
 4255TIP3    H134400   4.586   2.426   7.657  1.1089  3.1674 -1.0494
 4255TIP3    H234401   4.439   2.454   7.635  0.1338 -0.7285 -0.0985
 4256TIP3   OH234402   1.265   2.350   7.120  0.6870  0.2701 -0.3028
 4256TIP3    H134403   1.347   2.327   7.075 -0.1796 -2.0426 -0.8841
 4256TIP3    H234404   1.213   2.270   7.115 -1.1226  1.2861  1.1766
 4257TIP3   OH234405   2.745   4.098   1.641  0.3091  0.9837  0.2030
 4257TIP3    H134406   2.798   4.022   1.667 -0.0358  0.0843 -1.5642
 4257TIP3    H234407   2.658   4.079   1.675  0.3985  0.9569  0.4198
 4258TIP3   OH234408   2.203   3.070   0.789 -0.6289  0.1410  0.1070
 4258TIP3    H134409   2.113   3.093   0.814  0.4490  3.6523  1.1805
 4258TIP3    H234410   2.251   3.064   0.872  0.3231 -1.1743 -0.4865
 4259TIP3   OH234411   2.406   4.396   7.573 -0.7681  0.1913 -0.2000
 4259TIP3    H134412   2.344   4.396   7.645 -0.6795  2.8224  0.0000
 4259TIP3    H234413   2.492   4.403   7.615 -0.5911  0.0516 -0.5308
 4260TIP3   OH234414   3.643   4.970   7.135 -0.2478 -0.7580  0.1132
 4260TIP3    H134415   3.679   4.944   7.050 -0.9315 -1.0612 -0.0924
 4260TIP3    H234416   3.551   4.944   7.131 -0.5578  0.2039  0.5307
 4261TIP3   OH234417   6.456   1.887   1.229  0.0855  0.4960  0.4799
 4261TIP3    H134418   6.394   1.848   1.291  0.2174  0.3480  0.5204
 4261TIP3    H234419   6.420   1.865   1.143  0.8901 -0.9564  0.4755
 4262TIP3   OH234420   2.581   0.884   1.526  0.0880 -0.0736 -0.9400
 4262TIP3    H134421   2.610   0.975   1.529  0.2504 -0.1142 -1.2300
 4262TIP3    H234422   2.631   0.840   1.594 -1.5685  0.4897  0.7236
 4263TIP3   OH234423   4.030   0.430   0.328 -0.5708  0.1170 -0.4234
 4263TIP3    H134424   3.972   0.381   0.386 -0.0610 -0.8806 -0.7430
 4263TIP3    H234425   4.110   0.379   0.325  1.5131  2.8454  2.3112
 4264TIP3   OH234426   5.215   4.731   6.756 -0.0187  0.0676 -0.9978
 4264TIP3    H134427   5.136   4.781   6.731  0.4419  0.3360 -1.9757
 4264TIP3    H234428   5.260   4.716   6.673  0.5143 -0.8649 -0.5483
 4265TIP3   OH234429   2.407   6.336   8.057 -0.4936  0.2280 -0.1023
 4265TIP3    H134430   2.475   6.395   8.025 -0.1458 -0.4644 -0.6407
 4265TIP3    H234431   2.329   6.359   8.006 -1.4090  2.6837  2.1194
 4266TIP3   OH234432   4.230   3.532   1.564 -0.2737  0.4103 -0.3345
 4266TIP3    H134433   4.292   3.600   1.589 -0.3418  0.1014  0.7487
 4266TIP3    H234434   4.257   3.505   1.476  0.4348  1.0524 -0.3200
 4267TIP3   OH234435   0.133   6.627   0.888 -0.0043  0.5562  1.1330
 4267TIP3    H134436   0.127   6.663   0.799 -1.0697 -1.0571  0.5087
 4267TIP3    H234437   0.108   6.535   0.879  0.7181  0.1270  2.9811
 4268TIP3   OH234438   2.630   5.451   6.888  0.2698  0.2821 -0.0955
 4268TIP3    H134439   2.691   5.402   6.833  2.1819  0.3129  1.8649
 4268TIP3    H234440   2.545   5.413   6.869  1.3453 -2.1303 -0.4562
 4269TIP3   OH234441   1.329   3.287   8.030 -0.1395 -0.2625  0.2738
 4269TIP3    H134442   1.308   3.268   7.939  0.3527 -1.4477  0.3813
 4269TIP3    H234443   1.391   3.360   8.026 -1.5725  0.9851 -0.2072
 4270TIP3   OH234444   6.155   4.948   1.279 -0.1158  0.1931  0.1321
 4270TIP3    H134445   6.145   4.982   1.191 -1.2759  1.0345  0.5644
 4270TIP3    H234446   6.234   4.990   1.313 -0.5331  1.0822  0.0277
 4271TIP3   OH234447   0.972   1.688   8.146  0.3347  0.4159 -0.4526
 4271TIP3    H134448   0.999   1.617   8.088 -0.8703 -0.0040 -0.5140
 4271TIP3    H234449   0.999   1.658   8.233  0.2102  0.0698 -0.5306
 4272TIP3   OH234450   3.759   2.937   7.976 -0.3872 -0.1689  0.1151
 4272TIP3    H134451   3.798   3.013   8.019  0.2558 -0.8953  0.8649
 4272TIP3    H234452   3.818   2.917   7.904 -1.6162  1.2223 -1.3567
 4273TIP3   OH234453   6.803   1.297   0.710 -0.0613 -0.7242  0.8524
 4273TIP3    H134454   6.711   1.272   0.700 -0.2971  0.5627 -0.4344
 4273TIP3    H234455   6.848   1.214   0.729 -1.3597 -1.4970  0.6824
 4274TIP3   OH234456   0.604   3.339   7.795 -0.0327 -0.0396  0.3558
 4274TIP3    H134457   0.684   3.290   7.773  0.1669  0.3047  0.3129
 4274TIP3    H234458   0.574   3.300   7.876  1.4724  1.3495  1.6558
 4275TIP3   OH234459   4.569   1.206   6.781 -0.2602 -0.2935  0.3825
 4275TIP3    H134460   4.495   1.265   6.767  0.1538  0.1841  0.1797
 4275TIP3    H234461   4.627   1.223   6.707 -0.2272 -1.1084  0.2117
 4276TIP3   OH234462   0.780   6.683   1.030  0.0055 -0.4265 -0.0212
 4276TIP3    H134463   0.758   6.649   0.943 -1.0916 -0.2203  0.1631
 4276TIP3    H234464   0.725   6.633   1.090  0.1169  0.0341  0.4752
 4277TIP3   OH234465   1.261   6.789   7.807 -0.6173  0.2590 -0.0797
 4277TIP3    H134466   1.172   6.786   7.771 -0.3244  0.4674 -0.8352
 4277TIP3    H234467   1.317   6.764   7.733 -0.0243  0.4533  0.3036
 4278TIP3   OH234468   2.432   6.744   6.682 -0.0084 -0.6216  0.3705
 4278TIP3    H134469   2.378   6.821   6.697  0.8208  0.1556 -0.5603
 4278TIP3    H234470   2.517   6.766   6.721  0.2404 -1.0454  0.0782
 4279TIP3   OH234471   2.828   2.226   8.522 -0.4693  0.2707  0.0633
 4279TIP3    H134472   2.801   2.134   8.528 -0.8875  0.3784 -0.1097
 4279TIP3    H234473   2.889   2.238   8.594 -0.0825 -0.2598 -0.1705
 4280TIP3   OH234474   4.611   6.496   8.799 -0.2802 -0.0936  0.1209
 4280TIP3    H134475   4.573   6.481   8.886 -1.3984  0.9368 -0.1625
 4280TIP3    H234476   4.565   6.434   8.743  1.2081 -1.5310  0.4058
 4281TIP3   OH234477   4.375   5.112   7.735 -0.5215  0.1645  0.7316
 4281TIP3    H134478   4.454   5.134   7.784 -0.6772  0.2251  0.9583
 4281TIP3    H234479   4.315   5.184   7.752 -0.4070  0.4237  0.0580
 4282TIP3   OH234480   1.754   1.359   7.074  0.3833  0.2714 -0.6683
 4282TIP3    H134481   1.669   1.344   7.114  0.8176 -0.1431  0.1266
 4282TIP3    H234482   1.807   1.399   7.143  1.0509 -0.1544 -0.9179
 4283TIP3   OH234483   0.060   5.503   8.530  0.3186  0.1662  0.3304
 4283TIP3    H134484   0.127   5.487   8.463 -0.7693 -0.8777 -0.5543
 4283TIP3    H234485   0.101   5.475   8.612  1.2088  0.2114 -0.0851
 4284TIP3   OH234486   5.925   3.227   8.616 -0.2404 -0.2836 -0.1999
 4284TIP3    H134487   5.879   3.152   8.580 -0.1985 -0.1177 -0.6037
 4284TIP3    H234488   5.948   3.201   8.705  0.7096 -1.1604 -0.6781
 4285TIP3   OH234489   0.234   3.577   1.041 -0.1597  0.2019 -0.4442
 4285TIP3    H134490   0.139   3.586   1.050 -0.1974 -1.0973  0.8813
 4285TIP3    H234491   0.259   3.516   1.111  1.4911 -0.4686 -1.5573
 4286TIP3   OH234492   5.651   0.354   8.662  0.2077 -0.3820  0.2110
 4286TIP3    H134493   5.578   0.293   8.649  0.1380 -0.6602  1.6911
 4286TIP3    H234494   5.729   0.301   8.643  0.0997 -0.6255  0.4337
 4287TIP3   OH234495   6.358   6.137   7.386 -0.0868  0.2854  0.5845
 4287TIP3    H134496   6.319   6.055   7.357  0.2889  0.3686 -0.1993
 4287TIP3    H234497   6.343   6.139   7.480 -0.3720 -0.5347  0.5676
 4288TIP3   OH234498   3.957   2.176   8.481 -0.5119 -0.1035 -0.1465
 4288TIP3    H134499   3.882   2.221   8.519  0.0113 -0.6509  1.6321
 4288TIP3    H234500   3.943   2.084   8.502  0.5458 -0.2354  0.0352
 4289TIP3   OH234501   4.536   0.789   1.952 -0.1526 -0.0601  0.4332
 4289TIP3    H134502   4.554   0.720   2.016  0.0500 -0.0804  0.3563
 4289TIP3    H234503   4.613   0.789   1.895 -1.4032 -1.7664 -1.3733
 4290TIP3   OH234504   4.054   5.088   8.705  0.2257 -0.3010  0.1274
 4290TIP3    H134505   4.030   4.999   8.732  0.8641 -0.8195 -0.9558
 4290TIP3    H234506   4.040   5.141   8.783 -1.6729 -1.0621  0.3686
 4291TIP3   OH234507   3.131   2.445   8.311 -0.0491  0.2526  0.5433
 4291TIP3    H134508   3.225   2.435   8.296 -0.4609 -0.3800 -1.9804
 4291TIP3    H234509   3.122   2.535   8.344  1.2452  1.3634 -1.8508
 4292TIP3   OH234510   1.194   4.798   1.692  0.0870 -1.0151 -0.0100
 4292TIP3    H134511   1.110   4.838   1.672  0.4278 -0.3871 -0.1978
 4292TIP3    H234512   1.173   4.707   1.716 -0.9677 -0.1741  2.6477
 4293TIP3   OH234513   4.015   4.479   8.195 -0.0064  0.2278 -0.2227
 4293TIP3    H134514   4.001   4.431   8.277  0.0282 -0.3158 -0.5252
 4293TIP3    H234515   4.084   4.541   8.214 -0.4230  0.5253  0.3305
 4294TIP3   OH234516   0.842   6.156   7.775  0.3383 -0.6552  0.3470
 4294TIP3    H134517   0.772   6.130   7.834  0.5596 -1.4671  0.2674
 4294TIP3    H234518   0.895   6.218   7.825  0.7991 -1.6918  1.1968
 4295TIP3   OH234519   0.494   3.043   6.921  0.1771 -0.0716 -0.2685
 4295TIP3    H134520   0.435   2.972   6.946 -1.2944 -0.0947 -3.3467
 4295TIP3    H234521   0.544   3.008   6.847  2.3513  0.8007  0.7147
 4296TIP3   OH234522   1.807   6.041   2.266  0.2646 -0.5195 -0.4373
 4296TIP3    H134523   1.884   6.037   2.210 -0.1032 -0.9558 -0.9271
 4296TIP3    H234524   1.781   6.133   2.265 -0.0020 -0.6005 -1.3524
 4297TIP3   OH234525   5.260   6.693   7.394 -0.2078 -0.6156  0.0750
 4297TIP3    H134526   5.177   6.658   7.363 -0.3211 -0.8391  0.6286
 4297TIP3    H234527   5.240   6.734   7.478  0.5360 -2.0743  0.9999
 4298TIP3   OH234528   1.387   2.870   7.617 -0.0342 -0.1686  0.3663
 4298TIP3    H134529   1.378   2.775   7.615 -2.7854  0.0029  0.7630
 4298TIP3    H234530   1.313   2.903   7.565  0.5337  1.7639  0.6949
 4299TIP3   OH234531   4.353   4.879   0.979 -0.2326 -0.4185  0.3093
 4299TIP3    H134532   4.369   4.860   1.072  0.1927 -2.3611 -0.1224
 4299TIP3    H234533   4.425   4.938   0.954 -1.0746  1.1827  1.4904
 4300TIP3   OH234534   2.150   1.486   7.903 -0.4393  0.0291 -0.0218
 4300TIP3    H134535   2.224   1.543   7.926 -0.0069 -0.8286  0.8181
 4300TIP3    H234536   2.146   1.424   7.976 -3.0816  1.0734  0.8351
 4301TIP3   OH234537   0.371   2.731   7.721 -0.4003 -0.1745 -0.3312
 4301TIP3    H134538   0.456   2.738   7.677 -0.9238  0.1001 -1.3132
 4301TIP3    H234539   0.313   2.788   7.672 -1.1170 -0.1956  0.4620
 4302TIP3   OH234540   3.378   1.216   6.095 -0.0317 -0.3189  0.1737
 4302TIP3    H134541   3.335   1.296   6.065 -0.7039 -0.6712  0.1798
 4302TIP3    H234542   3.472   1.236   6.090 -0.1312  1.4994  2.8387
 4303TIP3   OH234543   0.250   2.799   0.924  0.7688 -0.3636  0.1452
 4303TIP3    H134544   0.197   2.844   0.990  0.2888 -0.0544 -0.4354
 4303TIP3    H234545   0.327   2.855   0.914 -0.0746  0.6760 -0.9668
 4304TIP3   OH234546   4.777   1.660   1.141 -0.0492  0.0231  0.5872
 4304TIP3    H134547   4.704   1.623   1.191 -0.0037  0.0124  0.6469
 4304TIP3    H234548   4.770   1.619   1.055 -0.1568  0.0785  0.5697
 4305TIP3   OH234549   4.199   0.875   0.230  0.2966  0.0017  0.3880
 4305TIP3    H134550   4.118   0.861   0.278 -0.0994 -1.4562 -0.6349
 4305TIP3    H234551   4.256   0.922   0.291 -1.1499  0.6644  1.2713
 4306TIP3   OH234552   0.403   0.406   2.284  0.2220 -0.1474  0.1351
 4306TIP3    H134553   0.401   0.501   2.296  0.1743 -0.3096  1.5523
 4306TIP3    H234554   0.496   0.386   2.272  0.0983  0.2282 -1.7447
 4307TIP3   OH234555   4.144   0.817   7.530 -0.4647  0.9279 -0.2078
 4307TIP3    H134556   4.062   0.780   7.562 -0.8598  1.3159 -0.7565
 4307TIP3    H234557   4.184   0.858   7.607 -0.0679 -0.5234  0.3848
 4308TIP3   OH234558   5.307   3.945   7.894 -0.7835 -0.7434  0.0524
 4308TIP3    H134559   5.385   3.949   7.949 -1.0162  0.6980  0.3113
 4308TIP3    H234560   5.331   3.993   7.815 -1.2315 -0.7750 -0.1064
 4309TIP3   OH234561   3.998   3.869   7.549 -0.2708  0.2035  0.0367
 4309TIP3    H134562   4.087   3.903   7.554 -0.2918  0.2343  0.2423
 4309TIP3    H234563   3.998   3.811   7.473  0.4777 -1.3834  1.1890
 4310TIP3   OH234564   5.556   4.410   7.483 -0.0092 -0.0365 -0.0819
 4310TIP3    H134565   5.505   4.363   7.417 -1.3890  0.4045  0.6105
 4310TIP3    H234566   5.647   4.394   7.460 -0.4547 -1.6114 -0.8518
 4311TIP3   OH234567   6.101   1.500   6.865  0.1730 -0.9501 -0.0537
 4311TIP3    H134568   6.011   1.514   6.835  0.8073  0.1230 -1.5582
 4311TIP3    H234569   6.127   1.417   6.825 -0.2138 -1.3892  0.5873
 4312TIP3   OH234570   5.069   0.815   1.164 -0.2816 -0.6894  0.0268
 4312TIP3    H134571   5.002   0.846   1.225  1.6889 -0.3215  2.1143
 4312TIP3    H234572   5.083   0.724   1.188 -0.7472 -1.0795 -1.1179
 4313TIP3   OH234573   4.388   2.267   6.383  0.2474  0.3155  0.3609
 4313TIP3    H134574   4.401   2.341   6.443  0.3843  0.0939  0.6044
 4313TIP3    H234575   4.388   2.190   6.440 -0.4834  0.1718  0.1774
 4314TIP3   OH234576   6.374   0.073   0.427 -0.0910 -0.1457  0.0391
 4314TIP3    H134577   6.433   0.139   0.392  0.3401 -0.3344  0.4052
 4314TIP3    H234578   6.396  -0.007   0.379  0.4417 -0.3841  0.6645
 4315TIP3   OH234579   0.208   5.141   7.325  0.0751  0.6938  0.0019
 4315TIP3    H134580   0.216   5.235   7.344  2.0217  0.6426 -0.3431
 4315TIP3    H234581   0.285   5.102   7.366 -0.5070 -0.7082 -0.1943
 4316TIP3   OH234582   6.535   4.854   7.017 -0.1598 -0.0926 -0.1218
 4316TIP3    H134583   6.584   4.855   6.935 -0.2345  1.0390 -0.1582
 4316TIP3    H234584   6.595   4.813   7.079  0.0933 -0.4811 -0.6097
 4317TIP3   OH234585   2.166   3.349   7.839  0.3654  0.0942 -0.4193
 4317TIP3    H134586   2.103   3.336   7.768 -1.1512  2.7542  0.2910
 4317TIP3    H234587   2.243   3.299   7.812 -1.3423 -1.7439 -2.2428
 4318TIP3   OH234588   0.119   6.394   8.589 -0.2501  0.0380  0.9320
 4318TIP3    H134589   0.123   6.449   8.668  0.6134 -0.2759  1.1121
 4318TIP3    H234590   0.032   6.353   8.593 -0.2072  0.0116  1.7295
 4319TIP3   OH234591   1.713   5.671   7.597 -0.1582 -0.0368  0.5184
 4319TIP3    H134592   1.687   5.594   7.647 -0.5739 -0.0491  0.2887
 4319TIP3    H234593   1.728   5.739   7.663 -1.5871  0.2090  0.6194
 4320TIP3   OH234594   5.526   1.146   7.473 -0.0061  0.6895 -0.2973
 4320TIP3    H134595   5.540   1.224   7.527 -0.9189 -0.4666  1.7124
 4320TIP3    H234596   5.553   1.074   7.528 -2.2411 -0.6759 -0.8705
 4321TIP3   OH234597   4.589   4.593   2.459  0.5354 -0.5099  0.5859
 4321TIP3    H134598   4.669   4.560   2.417  0.1013 -2.7225  1.3312
 4321TIP3    H234599   4.529   4.518   2.457 -0.3523  0.0675  2.9884
 4322TIP3   OH234600   5.262   6.360   0.918  0.0558 -0.2903 -0.0745
 4322TIP3    H134601   5.347   6.319   0.935  0.1538 -0.2084 -0.3688
 4322TIP3    H234602   5.239   6.332   0.830  0.6139  1.1228 -0.6952
 4323TIP3   OH234603   2.530   2.843   6.412  0.5734 -0.3882  0.5430
 4323TIP3    H134604   2.593   2.836   6.340 -1.3006 -0.9551 -1.1631
 4323TIP3    H234605   2.501   2.934   6.411  0.7318 -0.3350  0.7533
 4324TIP3   OH234606   0.890   3.459   6.758 -0.3321 -0.4519  0.3418
 4324TIP3    H134607   0.917   3.538   6.806  0.3542  0.0111 -0.7722
 4324TIP3    H234608   0.922   3.473   6.669 -1.8026 -1.1847 -0.3219
 4325TIP3   OH234609   2.797   3.041   1.422  0.3210 -0.2706 -0.6186
 4325TIP3    H134610   2.867   3.037   1.357 -1.4881  0.6755 -2.7567
 4325TIP3    H234611   2.746   2.961   1.408 -0.4558  0.2514 -0.8220
 4326TIP3   OH234612   0.303   1.068   8.176  0.1603 -0.0980  0.0498
 4326TIP3    H134613   0.213   1.044   8.200  0.0178  0.0526 -0.3183
 4326TIP3    H234614   0.358   1.012   8.230 -0.1579 -0.8417 -0.3805
 4327TIP3   OH234615   1.153   2.899   8.381 -0.4775 -0.1232 -0.2218
 4327TIP3    H134616   1.190   2.814   8.355  1.0001  0.6785 -0.9177
 4327TIP3    H234617   1.223   2.941   8.431  0.0154  1.8152 -2.3239
 4328TIP3   OH234618   2.882   4.039   7.368  0.3005 -0.1114  0.5997
 4328TIP3    H134619   2.912   4.112   7.315 -0.8411  0.8161  1.1704
 4328TIP3    H234620   2.932   3.963   7.337  0.2388  0.5505 -1.2180
 4329TIP3   OH234621   4.283   6.106   0.580 -0.4034 -0.5908  0.1532
 4329TIP3    H134622   4.371   6.143   0.572 -1.6570  2.4930 -0.8265
 4329TIP3    H234623   4.243   6.154   0.654 -1.8254 -0.6102 -0.5636
 4330TIP3   OH234624   1.024   6.128   0.388  0.0182 -0.2017 -0.5517
 4330TIP3    H134625   0.962   6.123   0.315 -0.6159 -0.7541  0.0118
 4330TIP3    H234626   1.062   6.041   0.393  0.1482 -0.1286 -0.2968
 4331TIP3   OH234627   3.528   6.488   8.174  0.4921  0.3445  0.6350
 4331TIP3    H134628   3.537   6.582   8.185 -1.4806  0.5681  0.7846
 4331TIP3    H234629   3.502   6.456   8.261 -0.4657 -0.0628  0.2216
 4332TIP3   OH234630   6.070   4.173   7.290 -0.3132  0.2707  0.2776
 4332TIP3    H134631   6.145   4.143   7.238 -1.4059 -0.0624 -1.1593
 4332TIP3    H234632   6.025   4.235   7.233 -1.4000  0.1013  0.9314
 4333TIP3   OH234633   2.953   2.132   0.685  0.5253  0.0778 -0.0235
 4333TIP3    H134634   2.867   2.108   0.718  0.2144  0.7226 -0.3420
 4333TIP3    H234635   2.946   2.123   0.590  0.9416 -0.2751 -0.0277
 4334TIP3   OH234636   2.032   0.814   6.679  0.2283  0.3156 -0.0227
 4334TIP3    H134637   2.067   0.871   6.610  0.2225 -1.1599 -1.2832
 4334TIP3    H234638   2.104   0.755   6.700 -0.8389 -1.5364 -1.3140
 4335TIP3   OH234639   4.062   3.640   2.067 -0.2055 -0.4672 -0.4566
 4335TIP3    H134640   4.088   3.583   1.994 -0.3185 -1.4250  0.2400
 4335TIP3    H234641   3.990   3.593   2.109  1.3000 -1.0459  1.6287
 4336TIP3   OH234642   3.155   3.690   8.716  0.4584  0.4609  0.7955
 4336TIP3    H134643   3.111   3.754   8.660  1.9691 -1.1222 -2.4600
 4336TIP3    H234644   3.086   3.659   8.775 -1.5712  1.4618 -0.9097
 4337TIP3   OH234645   2.854   2.925   6.898  0.6123  0.0725  0.0328
 4337TIP3    H134646   2.874   3.017   6.911 -2.0703  0.8363 -0.7526
 4337TIP3    H234647   2.763   2.915   6.925  0.5268 -2.1423 -0.8178
 4338TIP3   OH234648   3.306   3.464   1.679 -0.1876  0.7350  0.1031
 4338TIP3    H134649   3.216   3.444   1.654 -0.2066  0.7255  0.1777
 4338TIP3    H234650   3.312   3.438   1.771  0.0243  0.3082 -0.0307
 4339TIP3   OH234651   5.913   6.295   8.719  0.7798  0.0482 -0.1127
 4339TIP3    H134652   5.847   6.237   8.681  0.8301  1.0482 -1.8494
 4339TIP3    H234653   5.876   6.323   8.802  0.7484 -2.4088  0.7678
 4340TIP3   OH234654   2.745   0.359   8.707  0.9475 -0.2324  0.0505
 4340TIP3    H134655   2.701   0.385   8.788  0.0793 -0.1430 -0.4357
 4340TIP3    H234656   2.791   0.279   8.730  1.4197  0.2459  0.8517
 4341TIP3   OH234657   5.070   1.569   0.307  0.1733  0.2069 -0.0793
 4341TIP3    H134658   5.052   1.485   0.263  3.0930  0.3758 -1.8903
 4341TIP3    H234659   5.116   1.544   0.387 -0.2680  0.0583  0.1334
 4342TIP3   OH234660   1.665   4.253   8.195 -0.1494  0.2670 -0.6652
 4342TIP3    H134661   1.630   4.181   8.247 -0.9994  0.6991 -0.6112
 4342TIP3    H234662   1.647   4.228   8.104  1.8574 -0.7605 -0.8352
 4343TIP3   OH234663   5.386   6.362   2.187  0.3029  0.1905 -0.3198
 4343TIP3    H134664   5.467   6.312   2.179  1.0651  1.5769 -1.9526
 4343TIP3    H234665   5.352   6.339   2.273  1.9836 -1.0737  0.0616
 4344TIP3   OH234666   4.949   5.207   6.766  0.0925 -0.0782  0.0821
 4344TIP3    H134667   4.878   5.160   6.723  1.6367 -0.7718 -1.8527
 4344TIP3    H234668   4.940   5.297   6.733 -0.2923  0.0115  0.4158
 4345TIP3   OH234669   6.159   4.989   1.027 -0.6330 -0.5273  0.2507
 4345TIP3    H134670   6.160   5.084   1.011 -1.1196 -0.2896  1.5231
 4345TIP3    H234671   6.199   4.951   0.948 -0.8615  0.6976 -0.4826
 4346TIP3   OH234672   2.408   1.637   0.714 -0.1143 -0.0117  0.1210
 4346TIP3    H134673   2.500   1.617   0.699  0.2438  1.3792  0.3167
 4346TIP3    H234674   2.386   1.591   0.796  0.9271  1.0994  1.0642
 4347TIP3   OH234675   1.197   5.546   2.565 -0.1440 -0.6063 -0.1206
 4347TIP3    H134676   1.165   5.593   2.642 -1.4172  0.0335 -0.9959
 4347TIP3    H234677   1.151   5.462   2.567  0.4314 -0.9180  0.2368
 4348TIP3   OH234678   1.948   2.462   8.853 -0.0411 -0.3135  0.0753
 4348TIP3    H134679   1.977   2.397   8.790  2.4150  1.4973 -0.7956
 4348TIP3    H234680   1.870   2.501   8.813 -1.6873 -2.7261  0.7153
 4349TIP3   OH234681   5.469   4.261   7.271 -0.5515 -0.1018  0.3387
 4349TIP3    H134682   5.548   4.206   7.272 -1.3796 -1.3813  2.4914
 4349TIP3    H234683   5.409   4.216   7.211  0.5431  1.3069 -1.9491
 4350TIP3   OH234684   4.710   4.794   7.187  0.2964  0.0390 -0.1700
 4350TIP3    H134685   4.803   4.810   7.169  0.3616  0.5074  0.5052
 4350TIP3    H234686   4.666   4.872   7.152  0.4709  1.1714  1.9587
 4351TIP3   OH234687   2.189   5.612   5.591 -0.0481 -0.6088 -0.1218
 4351TIP3    H134688   2.215   5.647   5.676  1.0187  0.7034 -0.9591
 4351TIP3    H234689   2.175   5.518   5.608  3.2174 -1.0391  0.8707
 4352TIP3   OH234690   1.719   6.466   1.301  0.2998 -0.3171  0.2098
 4352TIP3    H134691   1.647   6.454   1.364 -0.6718 -0.0934 -0.8247
 4352TIP3    H234692   1.790   6.504   1.353 -0.5894  0.1750  1.1065
 4353TIP3   OH234693   1.825   2.597   2.141  0.3521  0.0771 -0.4107
 4353TIP3    H134694   1.773   2.634   2.213  1.1494  0.7162 -0.1560
 4353TIP3    H234695   1.763   2.540   2.094 -0.9765  1.8896 -0.9552
 4354TIP3   OH234696   4.136   0.740   8.575  0.7050  0.9326 -0.5107
 4354TIP3    H134697   4.162   0.760   8.665 -2.6872  1.7022  0.4680
 4354TIP3    H234698   4.108   0.648   8.578 -1.3537  1.5038 -0.1249
 4355TIP3   OH234699   2.899   5.040   1.957 -0.2043  0.2249  0.7763
 4355TIP3    H134700   2.958   5.073   2.025  0.1009  0.3536  0.4525
 4355TIP3    H234701   2.957   5.007   1.889 -0.3574  3.4728 -1.1561
 4356TIP3   OH234702   2.747   0.938   1.063  0.5094  0.6198 -0.0524
 4356TIP3    H134703   2.826   0.907   1.019 -1.4745 -1.7390 -2.3129
 4356TIP3    H234704   2.748   0.895   1.149  1.1149 -0.3591 -0.5336
 4357TIP3   OH234705   3.533   3.094   8.238  0.4001 -0.4743 -0.2027
 4357TIP3    H134706   3.492   3.020   8.195 -0.9373  0.7429 -1.1416
 4357TIP3    H234707   3.612   3.059   8.278 -0.7426 -2.6089  0.3210
 4358TIP3   OH234708   3.430   4.463   7.389 -0.1400 -0.3047 -0.2904
 4358TIP3    H134709   3.434   4.535   7.326  2.3494  1.0636  1.2454
 4358TIP3    H234710   3.501   4.404   7.363 -2.6367 -2.8158 -2.0103
 4359TIP3   OH234711   3.352   5.423   8.074  0.0051  0.1740 -0.3084
 4359TIP3    H134712   3.327   5.399   8.163 -0.6607  1.3308 -0.1564
 4359TIP3    H234713   3.400   5.505   8.083  1.5715 -0.6444 -0.8636
 4360TIP3   OH234714   4.587   3.496   0.650  0.3216  0.0534  0.7549
 4360TIP3    H134715   4.567   3.457   0.735  1.8208 -0.1392  1.0535
 4360TIP3    H234716   4.542   3.440   0.587 -0.0861 -0.3289  1.3739
 4361TIP3   OH234717   3.785   5.787   2.304 -0.3635 -0.7302 -0.2499
 4361TIP3    H134718   3.791   5.873   2.345  1.9054 -0.8782 -0.1704
 4361TIP3    H234719   3.871   5.771   2.267 -0.8354 -2.8206 -0.5949
 4362TIP3   OH234720   5.081   3.959   2.149  0.2302 -0.4344  0.2597
 4362TIP3    H134721   5.013   3.904   2.110 -0.1602 -0.5814  1.1417
 4362TIP3    H234722   5.103   3.916   2.231 -0.3121  0.8889  1.1276
 4363TIP3   OH234723   6.771   2.977   0.832 -0.2362 -0.1990  0.1785
 4363TIP3    H134724   6.777   3.072   0.819 -1.8843 -0.1949 -0.7454
 4363TIP3    H234725   6.856   2.944   0.802  0.2768  0.9456  0.2973
 4364TIP3   OH234726   2.802   2.727   7.224 -0.9122  0.4533  0.3512
 4364TIP3    H134727   2.735   2.790   7.196 -1.9946 -1.0801 -0.6543
 4364TIP3    H234728   2.884   2.763   7.190 -1.7059  0.5951 -1.5298
 4365TIP3   OH234729   4.510   6.124   8.145  0.1721 -0.1572 -0.0317
 4365TIP3    H134730   4.540   6.079   8.066 -0.7630 -1.2765  0.2268
 4365TIP3    H234731   4.559   6.206   8.145 -1.5399  1.0591 -3.0969
 4366TIP3   OH234732   3.340   1.097   8.132 -0.2911  0.7056 -0.5766
 4366TIP3    H134733   3.322   1.133   8.219  0.1109 -0.2750 -0.0685
 4366TIP3    H234734   3.427   1.058   8.140 -0.5913 -0.1175 -1.1780
 4367TIP3   OH234735   4.715   4.887   7.859  0.5512  0.0808  0.4616
 4367TIP3    H134736   4.790   4.836   7.831 -0.0412 -0.5661  0.0103
 4367TIP3    H234737   4.743   4.978   7.853  0.3963  0.0299 -2.5224
 4368TIP3   OH234738   1.362   5.873   7.875  0.4181 -0.1734  0.2438
 4368TIP3    H134739   1.340   5.950   7.823  1.7219 -0.8083 -1.3487
 4368TIP3    H234740   1.279   5.846   7.914 -0.4889  0.7296 -0.9807
 4369TIP3   OH234741   6.271   3.093   0.140  0.0372  0.0519 -0.1700
 4369TIP3    H134742   6.196   3.147   0.165 -0.9405 -1.8408  1.2132
 4369TIP3    H234743   6.338   3.113   0.206  0.7446  1.5630 -1.2687
 4370TIP3   OH234744   5.596   3.496   7.435  0.4168 -0.2801  0.0416
 4370TIP3    H134745   5.649   3.428   7.475 -0.3245 -1.9234 -1.6534
 4370TIP3    H234746   5.508   3.481   7.469  0.1470 -0.4982 -0.7500
 4371TIP3   OH234747   0.221   5.437   7.320  0.2216 -0.2958 -0.3014
 4371TIP3    H134748   0.213   5.467   7.230  0.6536  0.1829 -0.1893
 4371TIP3    H234749   0.313   5.417   7.331 -0.1033 -1.9828 -0.4508
 4372TIP3   OH234750   0.238   5.350   0.763  0.2417  0.0079  0.6384
 4372TIP3    H134751   0.307   5.347   0.829  1.5471  1.0899 -0.6069
 4372TIP3    H234752   0.268   5.289   0.695 -0.0308  0.4746  0.0908
 4373TIP3   OH234753   5.574   3.778   1.035 -0.2785 -0.3218 -1.0247
 4373TIP3    H134754   5.543   3.856   0.989 -0.9825 -1.0021 -1.7354
 4373TIP3    H234755   5.601   3.810   1.121 -1.1325  0.6065 -1.0849
 4374TIP3   OH234756   0.720   1.570   8.130  0.2452 -0.1885  0.6139
 4374TIP3    H134757   0.799   1.624   8.134 -0.4676  0.8293  2.4705
 4374TIP3    H234758   0.695   1.569   8.038  1.8683  0.2608  0.1367
 4375TIP3   OH234759   3.833   2.260   8.880 -0.2740  0.3239  0.1670
 4375TIP3    H134760   3.919   2.302   8.877 -0.1458  0.0421 -0.1081
 4375TIP3    H234761   3.852   2.166   8.874 -0.6430  0.2948 -0.5376
 4376TIP3   OH234762   6.172   0.927   0.366  0.0181 -0.6094  0.0670
 4376TIP3    H134763   6.100   0.865   0.374 -0.0366 -0.8439 -1.7245
 4376TIP3    H234764   6.196   0.923   0.273  0.9919  0.9670  0.2192
 4377TIP3   OH234765   4.966   3.297   0.605  0.0432 -0.7058  0.2741
 4377TIP3    H134766   5.058   3.321   0.593 -0.1710  0.0711  0.1437
 4377TIP3    H234767   4.957   3.214   0.558  0.0220  0.6053 -2.1807
 4378TIP3   OH234768   2.126   0.286   6.912 -0.2822  0.1459 -0.6059
 4378TIP3    H134769   2.087   0.207   6.950  1.0751 -1.2638 -2.0137
 4378TIP3    H234770   2.051   0.342   6.892 -1.3128 -0.9473  0.0390
 4379TIP3   OH234771   2.524   5.200   2.143  0.0883 -0.5387 -0.3203
 4379TIP3    H134772   2.513   5.133   2.075 -4.4746  1.2955 -1.7463
 4379TIP3    H234773   2.499   5.282   2.101 -0.4940  1.1047  2.8896
 4380TIP3   OH234774   3.083   6.313   8.626 -0.5160 -0.3396  0.1103
 4380TIP3    H134775   3.096   6.392   8.574  1.8518 -0.0715  1.0068
 4380TIP3    H234776   3.080   6.242   8.562  1.2827  0.0942 -0.5082
 4381TIP3   OH234777   1.669   4.392   1.552  0.1011 -0.6785 -0.3059
 4381TIP3    H134778   1.664   4.485   1.572 -0.1289 -0.5381 -0.9830
 4381TIP3    H234779   1.650   4.348   1.635  2.9567 -0.1676  0.7395
 4382TIP3   OH234780   1.738   1.387   0.936 -0.0402  0.3773  0.5096
 4382TIP3    H134781   1.792   1.345   1.002 -0.4509  1.2137  1.3988
 4382TIP3    H234782   1.678   1.318   0.907  1.5132 -0.6033 -0.5764
 4383TIP3   OH234783   5.305   2.004   0.391 -0.5552  0.8213 -0.4859
 4383TIP3    H134784   5.254   1.928   0.419 -1.2609  0.7158 -1.9930
 4383TIP3    H234785   5.244   2.077   0.395 -0.9610  0.6430 -2.5884
 4384TIP3   OH234786   2.309   1.081   6.556 -0.2677 -0.2808  0.2483
 4384TIP3    H134787   2.311   1.027   6.477 -1.4792 -2.0757  1.3769
 4384TIP3    H234788   2.349   1.164   6.529  0.5877 -1.2993 -1.8698
 4385TIP3   OH234789   1.065   1.305   6.145  0.3753 -0.1369  0.1182
 4385TIP3    H134790   1.021   1.231   6.187 -2.1019  0.9086 -0.4650
 4385TIP3    H234791   1.090   1.362   6.217 -2.3791  0.8591  0.4106
 4386TIP3   OH234792   6.362   0.514   2.172  0.1983  0.0427 -1.0971
 4386TIP3    H134793   6.365   0.608   2.154  1.1520  0.0399 -0.9785
 4386TIP3    H234794   6.445   0.495   2.214 -0.5567 -0.6104  0.1350
 4387TIP3   OH234795   5.865   1.067   1.806 -0.4747 -0.5598 -0.2171
 4387TIP3    H134796   5.927   1.036   1.872 -0.5616 -1.6660 -0.6375
 4387TIP3    H234797   5.780   1.064   1.849 -0.3706  0.0301  0.0459
 4388TIP3   OH234798   2.171   4.183   7.091  0.4018  0.0934  0.0490
 4388TIP3    H134799   2.251   4.153   7.135  1.5807  0.5197 -1.7086
 4388TIP3    H234800   2.201   4.216   7.006 -1.6357  0.4084 -0.6015
 4389TIP3   OH234801   5.404   5.123   0.987  0.7696  0.0358  0.0404
 4389TIP3    H134802   5.401   5.167   1.072 -0.9492  1.7887 -0.8382
 4389TIP3    H234803   5.464   5.177   0.934 -0.3311  0.6193 -0.6544
 4390TIP3   OH234804   2.974   6.406   7.549 -0.1414 -0.5492 -0.8298
 4390TIP3    H134805   2.889   6.368   7.571 -0.8548  1.0562 -0.6478
 4390TIP3    H234806   2.953   6.492   7.514  1.5193  0.8477  1.3590
 4391TIP3   OH234807   6.051   3.760   8.733 -0.1992 -0.0364  0.1165
 4391TIP3    H134808   5.987   3.792   8.670 -0.9057  0.0893  0.8790
 4391TIP3    H234809   6.054   3.665   8.718  0.2893  0.0955 -0.6826
 4392TIP3   OH234810   5.429   3.700   8.817 -0.5988 -0.1169  0.2390
 4392TIP3    H134811   5.397   3.772   8.872  1.4064 -0.0490  1.4001
 4392TIP3    H234812   5.413   3.621   8.869  0.3275 -0.1607  0.4649
 4393TIP3   OH234813   2.092   3.631   1.593 -0.6913 -0.1739 -0.3533
 4393TIP3    H134814   2.017   3.685   1.619  1.0259  1.6034  1.2708
 4393TIP3    H234815   2.151   3.635   1.668  1.0685 -1.4683 -1.5928
 4394TIP3   OH234816   0.653   5.216   0.426 -0.1954  0.5301  0.0840
 4394TIP3    H134817   0.588   5.218   0.356 -2.6051  1.3956  2.1978
 4394TIP3    H234818   0.683   5.125   0.428 -0.3935  0.3776 -1.7134
 4395TIP3   OH234819   1.054   5.382   7.591 -0.0141 -0.7897 -0.5298
 4395TIP3    H134820   1.114   5.454   7.573 -0.1723 -0.5532 -0.1393
 4395TIP3    H234821   0.967   5.418   7.572 -0.3152 -0.1374  1.6926
 4396TIP3   OH234822   3.790   0.185   7.662  0.2880  0.2528 -0.1773
 4396TIP3    H134823   3.876   0.143   7.670 -0.2947 -2.0043 -3.5437
 4396TIP3    H234824   3.736   0.141   7.727  0.9158 -0.6328 -0.2337
 4397TIP3   OH234825   5.935   4.744   7.047 -0.0441 -0.0826  0.2927
 4397TIP3    H134826   5.888   4.828   7.044 -1.3160 -0.8000 -1.2136
 4397TIP3    H234827   5.971   4.734   6.959  0.9107 -0.6897  0.7417
 4398TIP3   OH234828   0.307   6.336   1.212 -0.3759 -0.3843  0.0021
 4398TIP3    H134829   0.244   6.338   1.140  0.1639  0.1482 -0.4763
 4398TIP3    H234830   0.260   6.296   1.285 -1.5270  0.7197 -0.0963
 4399TIP3   OH234831   1.810   1.427   0.361 -0.2998  0.1982  0.1137
 4399TIP3    H134832   1.838   1.337   0.349 -0.2883  0.3405 -1.0838
 4399TIP3    H234833   1.756   1.425   0.440 -1.6792 -1.1890 -0.7992
 4400TIP3   OH234834   3.335   3.395   6.653  0.1860 -0.6340 -0.0503
 4400TIP3    H134835   3.286   3.478   6.647 -1.5761 -1.6822 -1.0946
 4400TIP3    H234836   3.411   3.408   6.597  0.7372  0.7601  0.9499
 4401TIP3   OH234837   4.481   5.909   7.306 -0.0128  0.1738 -0.0274
 4401TIP3    H134838   4.535   5.951   7.238  0.2615 -0.9864 -0.5527
 4401TIP3    H234839   4.438   5.837   7.260 -2.0048  1.0307  0.3883
 4402TIP3   OH234840   6.074   5.577   1.448 -0.2917 -0.7125 -0.1778
 4402TIP3    H134841   6.160   5.602   1.413  0.2997 -1.7883  0.4647
 4402TIP3    H234842   6.083   5.485   1.471 -1.5170 -0.7454  0.2605
 4403TIP3   OH234843   0.695   6.327   8.008  0.3552 -0.2252  0.2950
 4403TIP3    H134844   0.760   6.395   7.992  1.0027 -0.9234 -0.1246
 4403TIP3    H234845   0.726   6.282   8.087 -0.5096  0.4664  1.0549
 4404TIP3   OH234846   5.752   5.603   7.726  0.2010  0.4857  0.2076
 4404TIP3    H134847   5.782   5.690   7.699  0.4950 -0.3599 -2.4696
 4404TIP3    H234848   5.810   5.579   7.798  1.4473  1.6869 -0.3514
 4405TIP3   OH234849   3.689   1.210   7.134 -0.5420  0.5069 -0.4926
 4405TIP3    H134850   3.781   1.220   7.155 -0.3748  2.5618 -1.8667
 4405TIP3    H234851   3.666   1.122   7.165  1.9314 -0.1792 -0.4126
 4406TIP3   OH234852   0.050   5.883   8.034 -0.4919  0.5029 -0.1178
 4406TIP3    H134853   0.074   5.791   8.046 -2.7610 -0.0615  0.5807
 4406TIP3    H234854   0.096   5.929   8.104 -2.3331 -0.7404  2.0650
 4407TIP3   OH234855   4.777   3.434   7.597 -0.1578  0.1405  0.4823
 4407TIP3    H134856   4.757   3.354   7.645  1.7237  0.1236  1.3216
 4407TIP3    H234857   4.799   3.404   7.509  0.0894 -0.2372  0.6678
 4408TIP3   OH234858   0.975   4.923   6.265  0.6418  0.0329  0.2257
 4408TIP3    H134859   1.007   4.929   6.175 -1.4886 -1.2240 -0.7093
 4408TIP3    H234860   1.030   4.856   6.306  1.1550  0.0745 -0.3801
 4409TIP3   OH234861   1.787   4.009   7.946  0.0487 -0.1632 -0.0673
 4409TIP3    H134862   1.720   4.077   7.940 -1.2030 -1.3758 -0.2831
 4409TIP3    H234863   1.764   3.960   8.025  1.6997  0.4070  0.8303
 4410TIP3   OH234864   6.714   1.567   0.694 -0.1602 -0.0566 -0.0666
 4410TIP3    H134865   6.656   1.544   0.622 -0.8580 -0.1498  0.5179
 4410TIP3    H234866   6.772   1.491   0.704  1.8021  1.0232 -2.3149
 4411TIP3   OH234867   2.378   1.056   1.667  0.0912  0.2884 -0.5220
 4411TIP3    H134868   2.391   0.965   1.691 -2.1663 -0.2637 -1.1711
 4411TIP3    H234869   2.437   1.070   1.592  2.1775  0.1070  1.0108
 4412TIP3   OH234870   6.570   6.754   7.295  0.6223  0.3797  0.0056
 4412TIP3    H134871   6.544   6.745   7.387  1.0530  1.8086  0.2838
 4412TIP3    H234872   6.543   6.842   7.270  0.7703  0.1154 -1.1689
 4413TIP3   OH234873   5.942   5.374   7.720 -0.1562  0.0042  0.3057
 4413TIP3    H134874   5.948   5.279   7.731 -0.6322 -0.2254 -1.1620
 4413TIP3    H234875   6.013   5.409   7.773 -0.3358 -1.1212  1.3406
 4414TIP3   OH234876   6.176   6.707   0.927 -0.1702 -0.7840 -0.0135
 4414TIP3    H134877   6.202   6.764   0.999 -1.0921 -0.7124  0.2718
 4414TIP3    H234878   6.195   6.757   0.848 -0.7733 -0.1688  0.2291
 4415TIP3   OH234879   0.574   1.870   1.267 -0.0191 -0.0603  0.3212
 4415TIP3    H134880   0.609   1.892   1.353 -1.2721  1.0540  0.5930
 4415TIP3    H234881   0.489   1.829   1.285  0.4154 -1.2954 -0.3446
 4416TIP3   OH234882   5.914   5.705   1.977 -0.2667  0.2581 -0.1037
 4416TIP3    H134883   5.908   5.724   1.883 -0.0247 -1.4481 -0.4906
 4416TIP3    H234884   5.891   5.788   2.020 -1.6522  0.7301 -1.6604
 4417TIP3   OH234885   3.643   5.179   8.138 -0.1087 -0.3990  0.1652
 4417TIP3    H134886   3.577   5.195   8.207  0.9558 -0.4522  1.2345
 4417TIP3    H234887   3.629   5.088   8.113  0.0100 -0.6218  0.8902
 4418TIP3   OH234888   1.609   2.727   0.136  0.1453 -0.6789  0.5288
 4418TIP3    H134889   1.615   2.783   0.058  1.2564 -2.5432 -0.8281
 4418TIP3    H234890   1.527   2.680   0.125  0.9385 -1.9385 -0.2987
 4419TIP3   OH234891   3.998   4.767   1.823 -0.3419  0.2054  0.1156
 4419TIP3    H134892   3.981   4.673   1.816 -2.7529  0.6619 -1.9914
 4419TIP3    H234893   3.990   4.786   1.916  1.4510 -1.8219  0.7600
 4420TIP3   OH234894   1.750   4.310   7.148 -0.4703  0.6700 -0.6609
 4420TIP3    H134895   1.671   4.271   7.109 -1.2929  1.2867  0.3201
 4420TIP3    H234896   1.788   4.241   7.201 -0.2449  0.3117 -1.2854
 4421TIP3   OH234897   2.379   1.461   7.098  0.2251 -0.1059 -0.2920
 4421TIP3    H134898   2.416   1.549   7.103 -0.9106  0.4165 -0.6908
 4421TIP3    H234899   2.307   1.461   7.161 -1.3040  0.0441 -1.9697
 4422TIP3   OH234900   4.940   6.225   7.300  0.3199  0.1550  0.3335
 4422TIP3    H134901   4.878   6.291   7.331  1.1650  1.0767  0.1140
 4422TIP3    H234902   4.931   6.153   7.363  0.1304  0.9109  1.2029
 4423TIP3   OH234903   4.982   4.392   0.002  0.1789 -0.0337  0.0451
 4423TIP3    H134904   4.981   4.479  -0.038 -0.5503  0.4321  1.0387
 4423TIP3    H234905   4.986   4.409   0.096 -1.5493 -1.0237  0.3428
 4424TIP3   OH234906   6.128   5.184   0.203  0.1049  0.0577  0.1079
 4424TIP3    H134907   6.130   5.181   0.298  3.9567 -1.0752  0.1433
 4424TIP3    H234908   6.071   5.111   0.177  0.2579 -0.5929  1.5308
 4425TIP3   OH234909   3.209   0.949   0.412 -0.0591 -0.1595 -0.2741
 4425TIP3    H134910   3.189   0.987   0.497  0.1023 -0.4337 -0.1102
 4425TIP3    H234911   3.296   0.983   0.390 -0.0736 -0.1387 -0.3002
 4426TIP3   OH234912   4.479   1.514   0.532 -0.1615  0.3495 -0.1891
 4426TIP3    H134913   4.489   1.449   0.601  0.7550  0.5272 -0.1299
 4426TIP3    H234914   4.569   1.533   0.504 -0.4334  1.2689 -0.4966
 4427TIP3   OH234915   4.534   0.205   0.216  0.3429 -0.0417 -1.1595
 4427TIP3    H134916   4.611   0.149   0.207  0.5888  0.5852 -3.6889
 4427TIP3    H234917   4.476   0.178   0.145 -1.6629 -0.2413  0.4602
 4428TIP3   OH234918   6.746   6.544   8.756 -0.2750 -0.0132 -0.3758
 4428TIP3    H134919   6.703   6.606   8.815 -0.1680  0.0287 -0.3418
 4428TIP3    H234920   6.701   6.461   8.771 -0.6212  0.1234 -0.6366
 4429TIP3   OH234921   2.198   3.037   1.338  0.0118  0.2595 -0.9995
 4429TIP3    H134922   2.283   3.056   1.300  0.6079  0.8409  0.5710
 4429TIP3    H234923   2.197   2.942   1.349  1.1264  0.3867  0.4313
 4430TIP3   OH234924   5.121   1.009   0.972 -0.5315 -0.2387 -0.4777
 4430TIP3    H134925   5.053   1.073   0.994  0.2734  0.2490  0.7470
 4430TIP3    H234926   5.097   0.931   1.022 -1.6249 -1.0272 -2.1276
 4431TIP3   OH234927   0.236   4.349   1.979  0.0394 -0.0895  0.0992
 4431TIP3    H134928   0.205   4.376   1.893  1.8837  0.9612 -0.2905
 4431TIP3    H234929   0.331   4.356   1.974  0.4163 -2.9210  1.2850
 4432TIP3   OH234930   4.033   6.217   1.394  0.0457 -0.7085 -0.4256
 4432TIP3    H134931   4.035   6.122   1.411  1.4675 -0.9803 -1.8566
 4432TIP3    H234932   4.101   6.231   1.328 -1.6526  0.9730 -1.9441
 4433TIP3   OH234933   6.420   4.666   8.813  0.5777 -0.0146  0.1078
 4433TIP3    H134934   6.419   4.641   8.906  0.2353  0.3175  0.1967
 4433TIP3    H234935   6.476   4.601   8.772  0.4587 -0.3686  0.4931
 4434TIP3   OH234936   3.964   2.247   0.705  0.4585 -0.4191  0.6438
 4434TIP3    H134937   3.884   2.211   0.668  1.4731 -0.4020 -1.7707
 4434TIP3    H234938   4.009   2.172   0.743 -0.7684 -0.3863  2.2431
 4435TIP3   OH234939   4.100   3.019   1.531  0.2249 -0.6254  0.1996
 4435TIP3    H134940   4.164   3.089   1.543 -0.5478  0.1197  0.0762
 4435TIP3    H234941   4.114   2.961   1.605  0.2456  0.1729  0.8402
 4436TIP3   OH234942   3.245   4.935   0.402  0.2742 -0.2647 -0.0186
 4436TIP3    H134943   3.246   5.015   0.350 -1.6882 -0.5127 -0.5163
 4436TIP3    H234944   3.330   4.894   0.386  0.5276  0.7275 -1.3370
 4437TIP3   OH234945   6.680   2.440   7.718 -0.2309  0.3646  0.4720
 4437TIP3    H134946   6.761   2.398   7.747  0.2664  0.0345 -1.2767
 4437TIP3    H234947   6.709   2.509   7.658 -1.2263  0.6218  0.2708
 4438TIP3   OH234948   4.190   6.168   8.487 -0.3596  0.4368  0.4887
 4438TIP3    H134949   4.212   6.121   8.407 -1.4454  1.3151 -0.3528
 4438TIP3    H234950   4.119   6.116   8.526 -0.9318  0.8638  0.0332
 4439TIP3   OH234951   3.449   0.692   8.205 -0.2035 -0.0285 -0.0469
 4439TIP3    H134952   3.499   0.771   8.185  2.0572 -1.5668 -0.9567
 4439TIP3    H234953   3.473   0.670   8.295  0.0536 -0.2653 -0.1713
 4440TIP3   OH234954   5.855   0.698   7.474 -0.2821  0.3386 -0.0973
 4440TIP3    H134955   5.822   0.616   7.437  0.4307  0.3150 -0.7033
 4440TIP3    H234956   5.818   0.766   7.419 -2.9349  0.6759  1.8570
 4441TIP3   OH234957   4.321   5.257   0.271 -0.3704 -0.4163 -0.7587
 4441TIP3    H134958   4.239   5.241   0.317 -1.2685  2.2937 -1.1901
 4441TIP3    H234959   4.372   5.177   0.282 -2.2180 -1.3993  1.3288
 4442TIP3   OH234960   5.042   0.165   6.734 -0.5908 -0.3554 -0.4676
 4442TIP3    H134961   4.995   0.223   6.674  1.7830  0.5180 -1.6684
 4442TIP3    H234962   5.128   0.152   6.692  0.3343 -1.6757  1.6216
 4443TIP3   OH234963   5.002   3.459   1.634  0.3368 -0.1173 -0.5483
 4443TIP3    H134964   4.979   3.367   1.617 -1.7579  0.2805 -0.1398
 4443TIP3    H234965   4.997   3.467   1.729  0.1265  0.5277 -0.6140
 4444TIP3   OH234966   6.305   2.529   6.137 -0.0850  0.5397  0.3803
 4444TIP3    H134967   6.391   2.487   6.148 -0.0125  0.6311  0.1717
 4444TIP3    H234968   6.249   2.485   6.201  0.4520  1.4312  1.5142
 4445TIP3   OH234969   1.291   1.163   0.083  0.4315 -0.0870  0.1326
 4445TIP3    H134970   1.327   1.086   0.039  0.3234  0.9252 -1.8138
 4445TIP3    H234971   1.302   1.235   0.020 -2.9018  0.7680  0.3352
 4446TIP3   OH234972   0.676   3.928   7.422 -0.3967 -0.2603  0.4781
 4446TIP3    H134973   0.603   3.886   7.377 -1.0635  1.5633 -0.2187
 4446TIP3    H234974   0.638   4.007   7.462  0.7661 -0.3808  1.9074
 4447TIP3   OH234975   4.415   0.973   0.339 -0.0417 -0.1212 -0.0424
 4447TIP3    H134976   4.485   0.918   0.376 -1.5329 -0.3980  2.5902
 4447TIP3    H234977   4.462   1.047   0.300  1.7740 -0.6618  0.9727
 4448TIP3   OH234978   0.594   6.565   0.215 -0.1887  0.4369 -0.2235
 4448TIP3    H134979   0.522   6.562   0.278 -0.5042  1.5857 -0.5023
 4448TIP3    H234980   0.621   6.657   0.214  1.3111  0.0138 -0.1034
 4449TIP3   OH234981   2.842   6.444   1.962 -0.1714 -0.1707  0.1188
 4449TIP3    H134982   2.825   6.402   2.046 -0.4088 -1.2094 -0.4267
 4449TIP3    H234983   2.769   6.505   1.951 -1.1345 -1.3163 -0.1234
 4450TIP3   OH234984   6.128   0.344   8.795  0.3675  0.0414 -0.0164
 4450TIP3    H134985   6.082   0.417   8.837  0.4507 -1.6684  3.4491
 4450TIP3    H234986   6.062   0.275   8.786  0.3876  0.2652 -2.8500
 4451TIP3   OH234987   1.824   3.508   0.555 -0.5546  0.8668 -0.6333
 4451TIP3    H134988   1.845   3.521   0.647  0.0200  0.3081 -0.6774
 4451TIP3    H234989   1.800   3.415   0.549  1.3015  0.3831 -1.3693
 4452TIP3   OH234990   1.518   2.746   1.611 -0.0134 -0.7147 -0.0471
 4452TIP3    H134991   1.569   2.705   1.541  0.6279 -0.4131  0.2377
 4452TIP3    H234992   1.435   2.697   1.613 -0.9304  0.6015 -2.4144
 4453TIP3   OH234993   1.889   5.157   0.032 -0.1750  0.2539 -0.4644
 4453TIP3    H134994   1.975   5.173   0.072 -0.6518 -1.0207  1.1637
 4453TIP3    H234995   1.838   5.235   0.054  0.6919  1.3102 -1.9731
 4454TIP3   OH234996   2.730   1.028   0.748 -0.6698  0.0324 -0.4433
 4454TIP3    H134997   2.782   1.087   0.694 -0.6193  1.0470  0.6735
 4454TIP3    H234998   2.714   1.077   0.829  0.5896 -2.0084  1.1314
 4455TIP3   OH234999   4.533   3.197   8.176 -0.2206  0.0389  0.0018
 4455TIP3    H135000   4.515   3.107   8.202 -1.1639  0.7808  2.1905
 4455TIP3    H235001   4.448   3.233   8.153 -0.2752  1.0061  1.5324
 4456TIP3   OH235002   6.561   2.122   0.284  0.5047 -0.6176  0.2980
 4456TIP3    H135003   6.521   2.132   0.197 -0.2022  0.3067  0.7035
 4456TIP3    H235004   6.603   2.207   0.300 -2.2369  0.5160  2.2309
 4457TIP3   OH235005   2.565   2.936   0.315 -0.3688  0.6524 -0.2010
 4457TIP3    H135006   2.542   2.949   0.407 -1.7424  0.5761 -0.5160
 4457TIP3    H235007   2.490   2.969   0.266  0.0316  0.0219 -1.2828
 4458TIP3   OH235008   1.582   0.913   0.839 -0.0635 -0.1015 -0.1494
 4458TIP3    H135009   1.597   0.906   0.933 -2.1828 -1.4052  0.1737
 4458TIP3    H235010   1.558   1.004   0.825  0.5775  0.1821  0.5018
 4459TIP3   OH235011   1.865   1.572   1.337  0.2121 -0.8641  0.3305
 4459TIP3    H135012   1.836   1.487   1.301  0.5437  0.2933 -3.0366
 4459TIP3    H235013   1.834   1.636   1.273  0.3744  1.5724  2.5414
 4460TIP3   OH235014   0.714   3.151   1.442 -0.0313  0.5938  0.1490
 4460TIP3    H135015   0.791   3.114   1.399  0.9288  1.4224  1.0901
 4460TIP3    H235016   0.748   3.225   1.493 -1.4760  1.0760  0.4700
 4461TIP3   OH235017   1.310   0.363   0.102  0.6629  0.0654 -0.1398
 4461TIP3    H135018   1.395   0.338   0.139 -0.3246 -3.2359  0.2844
 4461TIP3    H235019   1.325   0.368   0.008  1.3987 -0.1630 -0.0401
 4462TIP3   OH235020   3.327   2.587   6.888  0.1919 -0.2185  0.3116
 4462TIP3    H135021   3.336   2.512   6.947 -1.5205 -0.6854  0.0221
 4462TIP3    H235022   3.404   2.583   6.832  1.6865  0.0188  2.2259
 4463TIP3   OH235023   6.640   2.939   0.221 -0.4329 -0.3458 -0.5437
 4463TIP3    H135024   6.670   2.968   0.135 -0.2186 -1.2043 -0.7710
 4463TIP3    H235025   6.588   3.012   0.254 -0.1594  0.1669 -1.2134
 4464TIP3   OH235026   4.664   3.966   1.673  0.6238 -0.4323  0.5211
 4464TIP3    H135027   4.742   3.934   1.720  0.9388 -0.6918 -0.1592
 4464TIP3    H235028   4.657   3.909   1.597  0.1852  0.0508  0.1900
 4465TIP3   OH235029   0.605   2.359   8.120 -0.4048 -0.1582 -0.5464
 4465TIP3    H135030   0.517   2.384   8.147  0.1129  1.5631 -0.3696
 4465TIP3    H235031   0.600   2.352   8.025 -0.4451  1.1827 -0.6522
 4466TIP3   OH235032   1.175   6.533   0.921 -0.0746  0.8301  0.3539
 4466TIP3    H135033   1.087   6.509   0.952 -0.0243  0.2717  0.0642
 4466TIP3    H235034   1.167   6.538   0.826  0.4443 -0.2140  0.2453
 4467TIP3   OH235035   3.891   6.336   8.560 -0.1673 -0.2502 -0.2836
 4467TIP3    H135036   3.821   6.294   8.609 -0.2287 -0.4450 -0.5333
 4467TIP3    H235037   3.870   6.319   8.468  0.2104 -0.3256 -0.3614
 4468TIP3   OH235038   3.106   3.426   6.897  0.4293  0.0487  0.3340
 4468TIP3    H135039   3.111   3.387   6.809  2.9677  1.2267 -0.1486
 4468TIP3    H235040   3.089   3.519   6.880  0.6611  0.2344  1.1056
 4469TIP3   OH235041   0.772   2.914   7.458 -0.6131  0.2777 -0.3129
 4469TIP3    H135042   0.801   2.842   7.401  2.0005  0.2175  0.9851
 4469TIP3    H235043   0.823   2.990   7.429 -0.3784  0.6180  0.9369
 4470TIP3   OH235044   6.604   6.260   0.215  0.0171  0.2827  0.1532
 4470TIP3    H135045   6.690   6.293   0.192 -0.2650  1.4582  0.7057
 4470TIP3    H235046   6.543   6.326   0.181 -0.6951 -0.6991 -0.5337
 4471TIP3   OH235047   5.586   2.283   1.293  0.0414  0.4840 -0.0957
 4471TIP3    H135048   5.560   2.313   1.380 -0.3724  1.1588 -0.4409
 4471TIP3    H235049   5.591   2.188   1.300  1.3827  0.6225  1.0278
 4472TIP3   OH235050   3.684   2.428   7.681 -0.0634  0.7815  0.0442
 4472TIP3    H135051   3.759   2.394   7.730 -0.6720 -1.3377 -0.3691
 4472TIP3    H235052   3.678   2.370   7.605 -1.4920  1.5701 -0.4792
 4473TIP3   OH235053   4.191   5.812   8.154 -0.0620 -0.2248 -0.1457
 4473TIP3    H135054   4.277   5.774   8.136  0.6217  0.9661  0.5685
 4473TIP3    H235055   4.146   5.807   8.069  0.9391 -0.2618 -0.6984
 4474TIP3   OH235056   1.668   5.450   7.750 -0.0115  0.0855  0.5960
 4474TIP3    H135057   1.596   5.463   7.811  0.6662 -1.0354  1.6842
 4474TIP3    H235058   1.676   5.355   7.743 -0.3658  0.1731 -1.6255
 4475TIP3   OH235059   3.361   2.630   2.186  0.1674 -0.0959 -0.5507
 4475TIP3    H135060   3.394   2.714   2.156  0.4305  0.0638  0.1719
 4475TIP3    H235061   3.296   2.651   2.252 -0.1201 -0.4528 -0.7133
 4476TIP3   OH235062   4.629   2.610   0.071  0.2684 -0.1419  0.7962
 4476TIP3    H135063   4.556   2.558   0.105 -0.5826  0.8709  0.5616
 4476TIP3    H235064   4.599   2.641  -0.015  1.0175  0.2005  0.6452
 4477TIP3   OH235065   3.308   3.159   0.783  0.6343  0.3931  0.4380
 4477TIP3    H135066   3.301   3.104   0.861  1.1261 -0.4637 -0.1070
 4477TIP3    H235067   3.220   3.159   0.745  0.8599 -0.9262 -0.1458
 4478TIP3   OH235068   1.335   5.709   1.645 -0.1511 -0.1373 -0.0576
 4478TIP3    H135069   1.282   5.750   1.713  1.7550  0.8459  0.9195
 4478TIP3    H235070   1.295   5.737   1.562 -0.2026  1.9257  0.6192
 4479TIP3   OH235071   4.005   5.894   7.224  0.0363 -0.8166 -0.2774
 4479TIP3    H135072   3.943   5.851   7.284 -0.5683 -0.2484 -0.4924
 4479TIP3    H235073   3.986   5.987   7.232  0.2860 -0.6979 -0.9894
 4480TIP3   OH235074   4.091   6.405   7.717  0.2458 -0.5608 -0.0169
 4480TIP3    H135075   4.177   6.431   7.685 -0.7899  0.6920 -1.9000
 4480TIP3    H235076   4.100   6.311   7.736  2.0065 -0.4486 -0.1727
 4481TIP3   OH235077   6.078   0.047   8.738 -0.1208 -0.1757  0.0136
 4481TIP3    H135078   6.155  -0.010   8.735 -0.6747 -0.9054 -0.6712
 4481TIP3    H235079   6.072   0.074   8.830  0.5075 -0.7230  0.2253
 4482TIP3   OH235080   6.552   2.953   2.035  0.2245  0.3344  0.4032
 4482TIP3    H135081   6.630   2.926   1.986 -0.4866 -0.4776 -0.3083
 4482TIP3    H235082   6.489   2.883   2.020 -0.2314  0.3786  1.9788
 4483TIP3   OH235083   0.890   4.206   8.566 -0.9492 -0.0838 -0.3558
 4483TIP3    H135084   0.977   4.215   8.526 -0.7946 -0.3030 -0.0764
 4483TIP3    H235085   0.841   4.152   8.505 -0.5969 -0.7303 -0.0763
 4484TIP3   OH235086   1.042   2.441   7.502  0.4337 -0.6294 -0.0602
 4484TIP3    H135087   0.950   2.421   7.514  0.0945  0.7918 -0.1593
 4484TIP3    H235088   1.076   2.455   7.591  0.0892  0.7180 -0.1183
 4485TIP3   OH235089   5.129   2.682   7.604  0.2111 -0.1158  0.6126
 4485TIP3    H135090   5.060   2.744   7.583  0.3443 -0.3438 -0.5884
 4485TIP3    H235091   5.209   2.734   7.608  0.4616 -0.2906 -1.2566
 4486TIP3   OH235092   5.443   6.463   8.721  0.2476  0.0150 -0.2301
 4486TIP3    H135093   5.349   6.460   8.703  0.3972 -1.4495 -0.8450
 4486TIP3    H235094   5.484   6.470   8.635  0.7246  0.9191  0.0480
 4487TIP3   OH235095   6.027   5.557   8.443  0.2432  0.1578 -0.4415
 4487TIP3    H135096   6.081   5.509   8.506  1.4776  0.9196 -0.8747
 4487TIP3    H235097   5.969   5.610   8.497  0.8141  0.2912  0.0605
 4488TIP3   OH235098   2.143   3.062   0.049  0.3214 -0.4711  0.8470
 4488TIP3    H135099   2.147   3.158   0.054 -1.4203 -0.3300  0.2515
 4488TIP3    H235100   2.087   3.045  -0.027 -0.9419 -1.9137  2.0444
 4489TIP3   OH235101   6.209   6.008   0.087 -0.3877 -0.5434  0.1935
 4489TIP3    H135102   6.167   6.053   0.160  1.0353 -0.6507  1.0943
 4489TIP3    H235103   6.281   5.959   0.126 -1.2033 -2.7786 -0.9033
 4490TIP3   OH235104   3.005   4.892   8.550  0.3492 -0.1804 -0.0333
 4490TIP3    H135105   2.953   4.839   8.490 -1.0589  0.4231  0.6231
 4490TIP3    H235106   3.093   4.854   8.546 -1.0970 -4.3912  2.5040
 4491TIP3   OH235107   1.536   2.605   0.435  0.3049 -0.5045  0.1168
 4491TIP3    H135108   1.558   2.698   0.432  0.4616 -0.4878  1.2401
 4491TIP3    H235109   1.475   2.592   0.362 -2.7851  1.3343  2.1354
 4492TIP3   OH235110   5.949   5.142   7.137 -0.5874  0.5948 -0.0599
 4492TIP3    H135111   5.980   5.126   7.048  0.3575 -0.3341  0.4134
 4492TIP3    H235112   5.921   5.234   7.136  0.6035  0.9755 -0.9876
 4493TIP3   OH235113   3.070   5.557   8.661 -0.7718  0.2114  0.6877
 4493TIP3    H135114   3.129   5.600   8.599  1.2248 -1.5400  1.2767
 4493TIP3    H235115   3.028   5.488   8.610 -1.4877  0.7219  0.5633
 4494TIP3   OH235116   2.428   4.681   0.144 -0.2223 -0.0347  0.0395
 4494TIP3    H135117   2.354   4.629   0.175 -0.4464 -0.5277 -1.2508
 4494TIP3    H235118   2.482   4.619   0.094 -1.2778  1.1939 -2.8554
 4495TIP3   OH235119   6.356   0.788   2.245  0.0865 -0.3349 -0.1338
 4495TIP3    H135120   6.291   0.855   2.223  0.5393  0.1767  0.0618
 4495TIP3    H235121   6.432   0.810   2.192  0.7388  0.1554  0.9747
 4496TIP3   OH235122   5.095   2.793   0.449 -0.1312  0.1186  0.3368
 4496TIP3    H135123   5.164   2.833   0.502 -0.5945  0.3797  0.7533
 4496TIP3    H235124   5.015   2.833   0.481 -0.4812 -0.2247 -0.1066
 4497TIP3   OH235125   1.290   5.600   6.254  0.3839 -0.1722  0.1375
 4497TIP3    H135126   1.282   5.667   6.323 -1.8555 -1.5677  1.3280
 4497TIP3    H235127   1.208   5.606   6.206  0.8382 -1.0169 -0.7611
 4498TIP3   OH235128   0.164   5.999   6.576 -0.2608  0.1104 -0.6182
 4498TIP3    H135129   0.086   5.992   6.632  0.5731 -0.7572  0.4718
 4498TIP3    H235130   0.154   6.084   6.532  0.0460  1.8206  2.3930
 4499TIP3   OH235131   6.190   1.546   8.233 -0.1637 -0.6444  0.0458
 4499TIP3    H135132   6.261   1.486   8.209  1.0033  0.8837 -0.5011
 4499TIP3    H235133   6.152   1.573   8.150  0.5665  0.7786  0.1354
 4500TIP3   OH235134   0.463   0.144   8.068 -0.1106  0.2238  0.2232
 4500TIP3    H135135   0.371   0.121   8.079  0.4121 -0.8539  3.4743
 4500TIP3    H235136   0.467   0.238   8.083 -0.5606  0.0542  1.5264
 4501TIP3   OH235137   0.659   3.066   8.233 -0.3471  0.6911 -0.3637
 4501TIP3    H135138   0.565   3.068   8.250 -0.1987  0.4385  0.5409
 4501TIP3    H235139   0.696   3.015   8.305  0.7403  2.6270  0.5121
 4502TIP3   OH235140   3.208   6.669   7.397 -0.3277 -0.3651 -0.1230
 4502TIP3    H135141   3.288   6.617   7.399  0.1872  0.4374  0.8763
 4502TIP3    H235142   3.238   6.760   7.392 -1.1827 -0.0783 -0.2328
 4503TIP3   OH235143   5.249   2.903   0.656 -0.3490  0.1673 -0.2527
 4503TIP3    H135144   5.288   2.909   0.743 -1.8903  0.8840  0.4245
 4503TIP3    H235145   5.302   2.960   0.601  1.6397 -1.5124 -0.2284
 4504TIP3   OH235146   1.225   5.035   2.508  0.0707  0.4490  0.1910
 4504TIP3    H135147   1.177   4.977   2.567  0.7289  0.2236  0.5195
 4504TIP3    H235148   1.295   4.980   2.473  0.8402  1.1008  0.6710
 4505TIP3   OH235149   1.430   5.943   0.411  0.1473  0.3591 -0.3478
 4505TIP3    H135150   1.393   5.897   0.486 -1.5823  1.0458 -0.7223
 4505TIP3    H235151   1.518   5.970   0.439  0.6414 -1.8412  0.3889
 4506TIP3   OH235152   1.351   1.159   8.297  0.3684 -0.1294  0.2568
 4506TIP3    H135153   1.299   1.086   8.331  0.5938 -0.8216 -0.8207
 4506TIP3    H235154   1.408   1.185   8.369  0.5434 -1.2610  0.5296
 4507TIP3   OH235155   3.648   1.546   6.029  0.1908  0.0474  0.5016
 4507TIP3    H135156   3.643   1.593   6.112  0.7822  0.1543  0.4830
 4507TIP3    H235157   3.617   1.609   5.964  1.3640  0.5754  0.4218
 4508TIP3   OH235158   4.335   1.373   1.179 -0.3308  0.3296  0.0591
 4508TIP3    H135159   4.306   1.399   1.091 -0.0763  0.0152 -0.1191
 4508TIP3    H235160   4.407   1.432   1.199 -1.5361  1.6054  0.8046
 4509TIP3   OH235161   4.463   0.966   6.551  0.2926  0.0043  0.1318
 4509TIP3    H135162   4.498   1.054   6.536 -0.7391  0.2183 -1.2910
 4509TIP3    H235163   4.368   0.978   6.559  0.1217 -0.9813 -0.2025
 4510TIP3   OH235164   4.693   6.342   8.250  0.4409 -0.5440 -0.4332
 4510TIP3    H135165   4.772   6.344   8.197  0.4388 -1.2478 -0.4715
 4510TIP3    H235166   4.677   6.433   8.273  0.7742 -0.3013 -1.1482
 4511TIP3   OH235167   0.755   2.550   7.793  0.3891  0.1425  0.1167
 4511TIP3    H135168   0.848   2.546   7.815  0.2186 -0.2638  0.7830
 4511TIP3    H235169   0.725   2.633   7.830  0.5361  0.3936 -0.3173
 4512TIP3   OH235170   3.722   0.986   6.140 -0.0282 -0.0988 -0.2984
 4512TIP3    H135171   3.681   1.067   6.110  0.6096  0.6986  0.8934
 4512TIP3    H235172   3.656   0.918   6.125 -0.5181  0.6082 -1.4375
 4513TIP3   OH235173   2.789   0.922   7.473 -0.7360  0.5893  0.5926
 4513TIP3    H135174   2.787   0.956   7.563 -1.8566 -0.6051  1.0408
 4513TIP3    H235175   2.767   0.829   7.482  0.2994  0.1773 -0.8084
 4514TIP3   OH235176   2.194   0.565   8.192  0.0414 -0.0415  0.1785
 4514TIP3    H135177   2.104   0.595   8.176  0.2664  0.6038  0.0915
 4514TIP3    H235178   2.183   0.478   8.232 -0.6189  0.0320  0.1783
 4515TIP3   OH235179   4.559   6.321   6.678  0.0976  0.8137  0.0120
 4515TIP3    H135180   4.630   6.356   6.623 -1.3406  1.5882 -1.4303
 4515TIP3    H235181   4.503   6.273   6.617 -1.0198  0.8366  0.9932
 4516TIP3   OH235182   4.245   3.805   1.358  0.0246 -0.2367 -0.0949
 4516TIP3    H135183   4.323   3.778   1.311  1.1438 -0.0645  1.5793
 4516TIP3    H235184   4.261   3.896   1.383 -0.3349 -0.4539  0.9840
 4517TIP3   OH235185   5.500   5.683   1.911  0.4427  0.1816  0.0144
 4517TIP3    H135186   5.571   5.653   1.854 -0.2780 -0.1042 -0.7618
 4517TIP3    H235187   5.443   5.733   1.854  0.2160  0.7430  0.7179
 4518TIP3   OH235188   2.010   6.416   8.689  0.3659  0.1418 -0.7010
 4518TIP3    H135189   1.940   6.359   8.723  1.1205  0.0813  0.8485
 4518TIP3    H235190   1.964   6.494   8.659 -0.3317  0.6654  1.4868
 4519TIP3   OH235191   5.550   5.677   2.435 -0.5494 -0.6990 -0.0979
 4519TIP3    H135192   5.560   5.718   2.350 -0.9908  2.4140  1.2034
 4519TIP3    H235193   5.578   5.744   2.498  1.5831 -3.4496  2.2231
 4520TIP3   OH235194   2.744   2.009   6.196 -0.3880 -0.1060 -0.4324
 4520TIP3    H135195   2.809   2.023   6.265 -1.1200 -0.6329  0.3948
 4520TIP3    H235196   2.671   2.067   6.220 -0.2447  0.4629 -1.3357
 4521TIP3   OH235197   0.259   2.944   0.127  0.1678 -0.5698 -0.2320
 4521TIP3    H135198   0.343   2.897   0.127  0.7527  0.4304  0.0141
 4521TIP3    H235199   0.255   2.985   0.040 -0.1486 -0.7571 -0.3062
 4522TIP3   OH235200   2.730   4.651   1.659  0.9736  0.4346 -0.9917
 4522TIP3    H135201   2.717   4.567   1.705  1.6103  0.6452 -0.4121
 4522TIP3    H235202   2.707   4.632   1.568 -2.1653  0.4578 -0.3162
 4523TIP3   OH235203   2.991   6.504   2.279 -0.1770 -1.0023  0.0171
 4523TIP3    H135204   2.949   6.419   2.269 -0.0126 -1.0287 -0.4712
 4523TIP3    H235205   3.036   6.498   2.363 -2.6938 -0.2990  1.5288
 4524TIP3   OH235206   1.845   4.654   0.594 -0.2563 -0.2184 -0.4181
 4524TIP3    H135207   1.838   4.585   0.660  0.6783  0.3890  0.3645
 4524TIP3    H235208   1.831   4.735   0.644 -1.5755  0.1486 -1.3624
 4525TIP3   OH235209   3.486   4.587   0.551 -0.2382 -0.4508 -0.4809
 4525TIP3    H135210   3.550   4.601   0.621  0.8656 -0.8059 -1.3880
 4525TIP3    H235211   3.434   4.512   0.581 -0.3717 -0.0369  0.3530
 4526TIP3   OH235212   2.955   1.537   2.599 -0.5245  0.0323  0.1133
 4526TIP3    H135213   2.999   1.622   2.589 -2.2518  0.9976  0.3029
 4526TIP3    H235214   2.942   1.507   2.509  0.6253 -0.3640  0.0534
 4527TIP3   OH235215   3.568   6.144   7.249  0.2076 -0.0159  0.2875
 4527TIP3    H135216   3.509   6.154   7.174  1.0693  0.9710 -0.2994
 4527TIP3    H235217   3.535   6.068   7.296 -2.0167  0.9631  0.4336
 4528TIP3   OH235218   4.590   0.993   2.516  0.0188  0.1452 -0.5967
 4528TIP3    H135219   4.673   1.002   2.469 -0.4242 -1.3262 -1.7713
 4528TIP3    H235220   4.554   0.910   2.484 -0.2361 -1.0831  2.5268
 4529TIP3   OH235221   2.543   3.654   7.551  0.1405  0.1420  0.0502
 4529TIP3    H135222   2.578   3.622   7.469  0.5387 -0.9250  0.6174
 4529TIP3    H235223   2.472   3.713   7.526 -0.0427 -0.5221 -1.0435
 4530TIP3   OH235224   5.683   1.139   0.365  0.4379 -0.0666  0.2902
 4530TIP3    H135225   5.739   1.151   0.441 -0.2561  0.2938  0.7606
 4530TIP3    H235226   5.595   1.158   0.398  0.2919  1.7449 -0.9645
 4531TIP3   OH235227   4.598   3.741   6.988 -0.0698 -0.0458 -0.2615
 4531TIP3    H135228   4.676   3.790   6.961  0.8595 -2.7760 -3.1450
 4531TIP3    H235229   4.631   3.678   7.052 -0.1840 -0.2122 -0.3655
 4532TIP3   OH235230   1.056   1.746   0.811 -0.6492  0.0024  0.4777
 4532TIP3    H135231   1.116   1.770   0.881 -0.2616  1.1978 -0.2311
 4532TIP3    H235232   0.975   1.722   0.856  0.2061 -1.2401  1.4255
 4533TIP3   OH235233   3.276   0.430   1.099  0.3898 -0.4545 -0.1572
 4533TIP3    H135234   3.322   0.513   1.085 -0.0590 -0.0370  0.8097
 4533TIP3    H235235   3.184   0.454   1.104  0.0690 -1.2391 -1.6281
 4534TIP3   OH235236   6.076   1.768   7.370 -0.2767 -0.3972  0.1081
 4534TIP3    H135237   6.083   1.863   7.366 -1.4874 -0.2817  0.5146
 4534TIP3    H235238   6.137   1.737   7.303  2.0189  0.5700  1.6168
 4535TIP3   OH235239   6.129   5.486   1.106 -0.2047 -0.4135  0.2163
 4535TIP3    H135240   6.188   5.552   1.068 -1.8055  0.3206 -1.1255
 4535TIP3    H235241   6.071   5.536   1.163  0.4087 -1.1335  1.5262
 4536TIP3   OH235242   1.022   0.715   6.826 -0.9572 -0.2529  0.1787
 4536TIP3    H135243   1.065   0.699   6.742 -1.5779 -0.9234 -0.0200
 4536TIP3    H235244   0.930   0.692   6.811 -1.0242 -0.6441  1.1224
 4537TIP3   OH235245   5.678   5.344   0.922  0.3691 -0.1216 -0.0237
 4537TIP3    H135246   5.772   5.335   0.912  0.3201 -1.3292  0.4693
 4537TIP3    H235247   5.640   5.294   0.850  0.0971  0.8886 -0.5995
 4538TIP3   OH235248   2.523   3.168   0.055  0.6126 -0.1714 -0.1479
 4538TIP3    H135249   2.566   3.200  -0.024  3.2983  0.2996  1.3729
 4538TIP3    H235250   2.474   3.091   0.026  2.1907 -0.5044 -2.1345
 4539TIP3   OH235251   6.737   4.090   8.682 -0.7063 -0.0795 -0.1862
 4539TIP3    H135252   6.672   4.094   8.752 -0.8630  1.2221 -0.3802
 4539TIP3    H235253   6.692   4.046   8.610  0.0529 -3.1818  1.0864
 4540TIP3   OH235254   6.350   4.371   0.828  0.2777 -0.2405 -0.6001
 4540TIP3    H135255   6.267   4.385   0.783  0.2264  1.3858 -0.0413
 4540TIP3    H235256   6.327   4.316   0.903 -0.8424  2.2572  1.0331
 4541TIP3   OH235257   6.277   2.562   1.209  0.2478  0.1538 -0.2154
 4541TIP3    H135258   6.276   2.490   1.146 -0.3289  0.2755 -0.3520
 4541TIP3    H235259   6.262   2.640   1.156 -1.1064  0.1727  0.1744
 4542TIP3   OH235260   5.480   5.247   7.291 -0.6461  0.1704 -0.3348
 4542TIP3    H135261   5.467   5.193   7.213 -0.3629 -0.6866  0.1972
 4542TIP3    H235262   5.572   5.237   7.313 -0.8566 -0.0852  0.4602
 4543TIP3   OH235263   2.582   5.244   7.211 -0.1079  0.0617  0.0436
 4543TIP3    H135264   2.515   5.225   7.146 -0.0187  0.3197 -0.1239
 4543TIP3    H235265   2.663   5.209   7.173 -0.6109 -3.1320  1.5811
 4544TIP3   OH235266   6.200   0.613   7.199  0.6143 -0.5448 -0.2000
 4544TIP3    H135267   6.138   0.685   7.189  0.7423 -0.2665  0.8734
 4544TIP3    H235268   6.164   0.561   7.271  1.0565 -0.9960 -0.3028
 4545TIP3   OH235269   1.384   5.393   5.958  0.2681  0.1395 -0.1069
 4545TIP3    H135270   1.394   5.438   6.043  0.3122  2.9640 -1.4948
 4545TIP3    H235271   1.473   5.364   5.936  0.3656 -0.0487  0.5151
 4546TIP3   OH235272   4.986   5.354   1.602 -0.4173 -0.1795  0.3324
 4546TIP3    H135273   5.010   5.443   1.629 -1.0864 -0.3521  1.5547
 4546TIP3    H235274   4.895   5.362   1.573  0.0211 -0.1704 -1.1424
 4547TIP3   OH235275   0.957   4.366   7.244  0.7191 -0.3028  0.5267
 4547TIP3    H135276   1.022   4.429   7.211 -2.7463  2.0852 -2.6427
 4547TIP3    H235277   0.923   4.407   7.324  1.6444 -0.5429  1.0595
 4548TIP3   OH235278   4.964   2.470   7.884 -0.0089  0.0658  0.3696
 4548TIP3    H135279   5.056   2.484   7.860  0.3180  0.0569  1.5891
 4548TIP3    H235280   4.945   2.381   7.853  0.3335  0.1348 -0.0486
 4549TIP3   OH235281   5.774   1.615   7.014  0.4603  0.0710  0.1493
 4549TIP3    H135282   5.764   1.598   6.921 -0.3964  1.0623  0.0406
 4549TIP3    H235283   5.706   1.562   7.056  0.4462  0.1023  0.1663
 4550TIP3   OH235284   1.327   2.212   0.913  0.3556 -0.3008 -0.1934
 4550TIP3    H135285   1.379   2.262   0.976 -0.2004  0.8305 -0.5920
 4550TIP3    H235286   1.387   2.145   0.880  1.9039  1.5245 -1.3023
 4551TIP3   OH235287   0.730   1.180   8.469 -0.2035 -0.7380  0.1285
 4551TIP3    H135288   0.768   1.128   8.539  0.4011  0.3271  0.6199
 4551TIP3    H235289   0.666   1.236   8.512  0.6303  0.3859 -0.0398
 4552TIP3   OH235290   3.419   5.204   8.298 -0.1900 -0.0263 -0.0170
 4552TIP3    H135291   3.413   5.191   8.393 -0.0993 -1.1106 -0.1505
 4552TIP3    H235292   3.385   5.123   8.260 -1.3699  0.8787 -0.9384
 4553TIP3   OH235293   2.819   6.668   1.717  0.3430  0.2930  0.2393
 4553TIP3    H135294   2.791   6.706   1.634  0.6081 -0.7502 -0.3443
 4553TIP3    H235295   2.743   6.676   1.774  0.1478  0.9894 -0.1155
 4554TIP3   OH235296   6.696   1.903   8.251 -0.2277 -0.8400 -0.4750
 4554TIP3    H135297   6.691   1.911   8.156  1.4207 -0.9611 -0.6061
 4554TIP3    H235298   6.690   1.993   8.283 -1.1996 -0.8317 -0.6465
 4555TIP3   OH235299   2.751   5.314   1.220  0.0745 -0.6187  0.1189
 4555TIP3    H135300   2.805   5.236   1.204  1.2046  0.5620 -2.5387
 4555TIP3    H235301   2.700   5.324   1.139 -0.5838  1.0036  0.6953
 4556TIP3   OH235302   2.772   1.697   7.573  0.4053 -0.3613 -0.2813
 4556TIP3    H135303   2.831   1.623   7.560  1.9569  0.7172  0.2326
 4556TIP3    H235304   2.685   1.658   7.577  1.0033 -1.9665 -1.6508
 4557TIP3   OH235305   5.726   2.463   8.566  0.3171 -0.5946  0.1731
 4557TIP3    H135306   5.721   2.428   8.477  2.2855  1.0024 -0.6382
 4557TIP3    H235307   5.665   2.537   8.566  0.8644 -0.1367 -0.0998
 4558TIP3   OH235308   3.573   2.442   1.604 -0.3751 -0.2299 -0.1596
 4558TIP3    H135309   3.596   2.535   1.610  0.4683 -0.3402 -1.4867
 4558TIP3    H235310   3.528   2.434   1.520  1.0655 -1.3134 -0.8564
 4559TIP3   OH235311   3.378   2.078   0.083  0.4979  0.4540 -0.1699
 4559TIP3    H135312   3.362   2.122  -0.001  1.2164  0.1717 -0.4601
 4559TIP3    H235313   3.422   1.996   0.060  0.1428  0.0853  0.4439
 4560TIP3   OH235314   0.250   3.947   1.890 -0.3477 -0.1500  0.1376
 4560TIP3    H135315   0.165   3.982   1.917 -0.6209 -0.6659 -0.0361
 4560TIP3    H235316   0.242   3.852   1.902  0.3450 -0.1682  0.5104
 4561TIP3   OH235317   2.512   0.905   0.301  0.2294 -0.1655  0.4519
 4561TIP3    H135318   2.419   0.912   0.279 -0.0288 -1.4481  1.0569
 4561TIP3    H235319   2.547   0.842   0.238  0.6672  0.1916  0.3303
 4562TIP3   OH235320   4.720   5.288   8.635  0.2360  0.0189 -0.2955
 4562TIP3    H135321   4.695   5.198   8.616 -1.2490  0.0905  1.0545
 4562TIP3    H235322   4.721   5.293   8.731  0.3620  1.4116 -0.3465
 4563TIP3   OH235323   1.920   1.983   1.152  0.7069  0.1570  0.4019
 4563TIP3    H135324   1.839   2.017   1.115  0.4167 -0.1149  0.7751
 4563TIP3    H235325   1.973   1.958   1.077  0.1428 -0.3628  0.1674
 4564TIP3   OH235326   6.201   2.904   7.208 -0.2191  0.0449 -0.2399
 4564TIP3    H135327   6.133   2.864   7.153 -0.9958  1.1215 -0.1035
 4564TIP3    H235328   6.152   2.950   7.276  0.7082 -2.3864  2.2729
 4565TIP3   OH235329   0.556   4.000   0.742  0.2328  0.1602  0.2737
 4565TIP3    H135330   0.560   3.937   0.670  0.7007  1.7516 -1.1687
 4565TIP3    H235331   0.462   4.017   0.754  0.1728  0.2216 -0.2748
 4566TIP3   OH235332   4.471   0.541   0.597  0.0163  0.3401 -0.4230
 4566TIP3    H135333   4.468   0.522   0.691 -1.0228  1.3246 -0.2386
 4566TIP3    H235334   4.458   0.455   0.556 -0.7507  0.0656  0.3488
 4567TIP3   OH235335   3.886   3.749   0.302  0.4313 -0.8516  0.2089
 4567TIP3    H135336   3.848   3.713   0.382 -1.9471  1.9547  0.5296
 4567TIP3    H235337   3.955   3.807   0.332 -1.1864  1.0621  0.4436
 4568TIP3   OH235338   1.057   0.307   1.566 -0.4832 -0.3843 -0.4557
 4568TIP3    H135339   1.068   0.217   1.595  1.1896 -0.0496  0.0658
 4568TIP3    H235340   1.075   0.305   1.472  0.1487 -0.5293 -0.3411
 4569TIP3   OH235341   2.122   4.160   0.009  0.1417 -0.0487 -0.0587
 4569TIP3    H135342   2.092   4.091  -0.049 -1.2361  0.5440 -0.0841
 4569TIP3    H235343   2.174   4.218  -0.047  3.2562 -2.1481  0.3969
 4570TIP3   OH235344   3.499   4.071   7.340  0.1247 -0.8764 -0.4159
 4570TIP3    H135345   3.563   4.050   7.408  0.6858 -0.4686 -0.8181
 4570TIP3    H235346   3.525   4.156   7.306  0.3721 -1.4478 -1.7446
 4571TIP3   OH235347   1.185   3.099   8.773 -0.1960 -0.0956 -0.4244
 4571TIP3    H135348   1.208   3.080   8.682  0.8403  1.0751 -0.4355
 4571TIP3    H235349   1.117   3.167   8.767  0.0195  0.1306 -0.3261
 4572TIP3   OH235350   2.903   2.951   1.696  0.4288 -0.0594  0.0769
 4572TIP3    H135351   2.847   2.993   1.630  1.3438  0.9261 -0.0964
 4572TIP3    H235352   2.843   2.923   1.765 -0.4108 -0.0843 -0.6499
 4573TIP3   OH235353   3.634   3.130   6.841 -0.1426  0.5160 -0.3142
 4573TIP3    H135354   3.648   3.206   6.784 -0.2226  0.8561  0.1097
 4573TIP3    H235355   3.637   3.166   6.930  0.0531 -0.0166 -0.0978
 4574TIP3   OH235356   2.484   3.439   7.818 -0.3087  0.1203  0.0751
 4574TIP3    H135357   2.459   3.355   7.856 -1.9540 -0.3931 -1.9653
 4574TIP3    H235358   2.580   3.439   7.822 -0.2484 -2.0270 -0.2250
 4575TIP3   OH235359   1.865   0.634   1.366  0.4014  0.5635 -0.1539
 4575TIP3    H135360   1.813   0.706   1.402  0.4996 -0.0114  1.1759
 4575TIP3    H235361   1.840   0.558   1.418 -0.0888 -0.5128 -1.8796
 4576TIP3   OH235362   5.738   1.029   0.081  0.5667 -0.2380  0.0659
 4576TIP3    H135363   5.727   1.117   0.044 -0.2121 -0.7751 -1.0674
 4576TIP3    H235364   5.714   1.038   0.173  0.7038  0.7797  0.0125
 4577TIP3   OH235365   2.070   2.897   7.216  0.0188  0.0160 -0.0710
 4577TIP3    H135366   2.121   2.894   7.135  1.4016  0.1346  0.7599
 4577TIP3    H235367   2.043   2.806   7.230  3.8674 -1.0676  1.7574
 4578TIP3   OH235368   3.435   3.360   0.271 -0.3202  0.1707  0.2815
 4578TIP3    H135369   3.446   3.274   0.311 -0.2974  1.0375  2.2451
 4578TIP3    H235370   3.510   3.368   0.211  0.6784 -0.4493  1.4101
 4579TIP3   OH235371   1.750   1.101   2.187  0.0096 -0.6286  0.2788
 4579TIP3    H135372   1.756   1.070   2.097  2.3975  2.4100 -0.7596
 4579TIP3    H235373   1.677   1.162   2.187  2.5572  2.7160 -0.9298
 4580TIP3   OH235374   1.437   1.983   8.322 -0.3280  0.3632  1.0195
 4580TIP3    H135375   1.390   1.901   8.304 -0.5245  0.8477 -0.8048
 4580TIP3    H235376   1.470   2.011   8.237  0.2749  1.8686  1.7232
 4581TIP3   OH235377   4.481   0.292   0.480 -0.5040  0.0609  0.2181
 4581TIP3    H135378   4.504   0.263   0.392 -1.2206  0.5016 -0.1322
 4581TIP3    H235379   4.412   0.232   0.509  1.3177 -1.5328  1.4395
 4582TIP3   OH235380   5.323   3.998   1.589 -0.1269 -0.2697 -0.3624
 4582TIP3    H135381   5.242   3.978   1.636 -1.0284  1.6173 -0.9981
 4582TIP3    H235382   5.380   3.923   1.605 -1.7816 -1.3755  0.5938
 4583TIP3   OH235383   2.803   4.697   2.252  0.5519  0.8239 -0.0161
 4583TIP3    H135384   2.739   4.749   2.301  1.1500  1.0661  0.5263
 4583TIP3    H235385   2.820   4.748   2.173  0.2770  0.8899 -0.0335
 4584TIP3   OH235386   1.631   2.679   0.825  0.4319  0.5943  0.3851
 4584TIP3    H135387   1.629   2.600   0.771  1.8087  0.1404  0.9448
 4584TIP3    H235388   1.605   2.650   0.912  0.2614  0.8999  0.4391
 4585TIP3   OH235389   2.140   6.484   1.028  0.0366 -0.0688  0.5021
 4585TIP3    H135390   2.099   6.422   0.967  0.7557  0.8592 -0.9829
 4585TIP3    H235391   2.073   6.551   1.041  0.1614  0.1309  0.1152
 4586TIP3   OH235392   0.446   0.821   0.992  0.4043  0.1426  0.6640
 4586TIP3    H135393   0.442   0.801   0.898 -2.6311  0.0772  0.7242
 4586TIP3    H235394   0.432   0.738   1.035  3.1318 -0.0798  1.3143
 4587TIP3   OH235395   5.061   3.805   8.464  0.3727  0.4881 -0.0507
 4587TIP3    H135396   5.030   3.860   8.536  0.4159  2.5556 -1.5438
 4587TIP3    H235397   5.143   3.767   8.497  1.1091  2.4780  0.5413
 4588TIP3   OH235398   4.476   2.326   8.777 -0.6148  0.2632 -0.2086
 4588TIP3    H135399   4.511   2.289   8.858  0.8266  2.0312  0.0368
 4588TIP3    H235400   4.503   2.265   8.708  0.2127 -0.0379  0.3732
 4589TIP3   OH235401   2.166   4.242   8.478  0.1994 -0.1782  0.3405
 4589TIP3    H135402   2.111   4.312   8.511 -1.8684 -1.2760 -0.5856
 4589TIP3    H235403   2.106   4.170   8.460  1.8322 -1.2423 -1.3217
 4590TIP3   OH235404   1.486   6.240   7.333  0.4173  0.2422  0.6651
 4590TIP3    H135405   1.518   6.151   7.345  1.6439  0.7940  1.7891
 4590TIP3    H235406   1.557   6.284   7.286 -1.4308 -0.0868 -2.7065
 4591TIP3   OH235407   3.859   5.827   0.256  0.0671 -0.1362  0.0700
 4591TIP3    H135408   3.920   5.891   0.292  0.7282 -0.0544 -1.1283
 4591TIP3    H235409   3.778   5.876   0.242 -0.0117 -0.0292  0.8671
 4592TIP3   OH235410   4.998   0.126   0.948 -0.2645 -0.6414 -0.6239
 4592TIP3    H135411   5.092   0.137   0.964 -0.1684 -2.6536  0.5458
 4592TIP3    H235412   4.986   0.152   0.857  0.4256  4.7596  0.4610
 4593TIP3   OH235413   6.360   1.425   1.503  0.4665 -0.0594  0.0268
 4593TIP3    H135414   6.425   1.423   1.434  0.6500  0.6828  0.1661
 4593TIP3    H235415   6.326   1.515   1.502  1.4343  0.3695  1.7589
 4594TIP3   OH235416   6.442   5.710   0.076  0.1544  0.1532 -0.4123
 4594TIP3    H135417   6.470   5.801   0.085  1.5126 -0.3482  0.8689
 4594TIP3    H235418   6.354   5.708   0.114  0.6490  0.6926  0.8397
 4595TIP3   OH235419   0.716   4.930   6.440  0.0484 -0.0589 -0.2734
 4595TIP3    H135420   0.766   4.869   6.385  0.4017 -0.2451  0.2521
 4595TIP3    H235421   0.711   4.888   6.525 -0.5306  0.2161 -0.1610
 4596TIP3   OH235422   6.742   5.077   8.660 -0.5184  0.9324 -0.4443
 4596TIP3    H135423   6.717   5.145   8.722 -0.4836 -0.2793  0.9398
 4596TIP3    H235424   6.837   5.068   8.671 -0.8755 -1.2697  1.4919
 4597TIP3   OH235425   4.729   1.698   7.800 -0.2299  0.2684 -0.8086
 4597TIP3    H135426   4.659   1.764   7.798  0.6435  1.2717  0.1458
 4597TIP3    H235427   4.712   1.648   7.880 -1.3872 -1.2814 -1.9685
 4598TIP3   OH235428   0.418   2.760   6.462  0.6264 -0.1992  0.8346
 4598TIP3    H135429   0.327   2.761   6.434  0.3177 -1.4079  1.7262
 4598TIP3    H235430   0.419   2.815   6.540  1.1300  1.6410 -0.3918
 4599TIP3   OH235431   2.481   3.338   7.504 -0.0769 -0.1644 -0.7984
 4599TIP3    H135432   2.451   3.393   7.577  0.3773 -0.8326 -0.1051
 4599TIP3    H235433   2.433   3.372   7.428  0.2039  1.2033 -0.3917
 4600TIP3   OH235434   1.846   1.371   2.546 -0.4228  0.0255 -0.3550
 4600TIP3    H135435   1.770   1.429   2.556  0.0148  0.8027 -1.3168
 4600TIP3    H235436   1.918   1.430   2.521  0.8746 -0.4860  1.9091
 4601TIP3   OH235437   3.551   2.778   7.420 -0.3550  0.2065  0.2544
 4601TIP3    H135438   3.567   2.867   7.387  1.1992  0.4738  1.6241
 4601TIP3    H235439   3.542   2.725   7.341 -1.4001  1.5714 -0.5976
 4602TIP3   OH235440   2.278   2.132   6.767 -0.2485  0.0389 -0.0745
 4602TIP3    H135441   2.275   2.052   6.714 -1.6537  0.2016 -0.2656
 4602TIP3    H235442   2.263   2.203   6.704  0.5536  0.4416  0.1659
 4603TIP3   OH235443   2.509   0.298   1.890  0.2371 -0.9239 -0.4203
 4603TIP3    H135444   2.543   0.321   1.977  1.6897 -1.0543 -0.9166
 4603TIP3    H235445   2.476   0.380   1.854 -0.2033 -0.8327  0.1723
 4604TIP3   OH235446   6.207   3.077   2.176  0.2193  0.3644  0.0232
 4604TIP3    H135447   6.206   3.053   2.083 -1.6718 -1.4754  0.4421
 4604TIP3    H235448   6.280   3.028   2.213 -1.2112 -1.8172  0.1137
 4605TIP3   OH235449   3.415   3.836   7.113  0.2972 -0.1620  0.5607
 4605TIP3    H135450   3.506   3.863   7.104  0.8228 -1.8649  0.3624
 4605TIP3    H235451   3.411   3.793   7.198 -0.3921  0.1139  0.6764
 4606TIP3   OH235452   3.798   4.447   6.547 -0.1571 -0.6796  0.2072
 4606TIP3    H135453   3.797   4.542   6.558 -2.1297 -0.7244  0.8972
 4606TIP3    H235454   3.823   4.434   6.455  0.4045  0.4817  0.1752
 4607TIP3   OH235455   1.049   6.419   1.388  0.2329  0.3101  0.1866
 4607TIP3    H135456   0.998   6.352   1.342  1.0467 -0.0111 -0.2755
 4607TIP3    H235457   1.135   6.417   1.345  0.5067  1.1251  0.6722
 4608TIP3   OH235458   4.606   6.518   2.552  0.2320 -0.7338  0.0879
 4608TIP3    H135459   4.589   6.463   2.476 -0.2841 -0.0039 -0.3369
 4608TIP3    H235460   4.519   6.543   2.583  0.4120 -1.5989  1.3566
 4609TIP3   OH235461   2.971   2.270   8.758  0.3368 -0.1738  0.4442
 4609TIP3    H135462   3.052   2.320   8.764  0.3956 -0.2949  0.6590
 4609TIP3    H235463   2.987   2.192   8.812  0.5830 -0.8701 -0.6022
 4610TIP3   OH235464   3.714   0.650   6.601  0.0414 -0.9236  0.8933
 4610TIP3    H135465   3.666   0.728   6.629 -1.0460 -1.6324  1.0591
 4610TIP3    H235466   3.661   0.576   6.633  0.6949 -1.7367  0.1491
 4611TIP3   OH235467   4.155   1.656   7.324 -0.0330 -0.4057 -0.4363
 4611TIP3    H135468   4.182   1.732   7.272  2.2807 -0.7778  0.1127
 4611TIP3    H235469   4.184   1.580   7.273 -1.1081 -0.9021 -0.3368
 4612TIP3   OH235470   4.008   1.467   1.936  0.6064  0.7360 -0.4152
 4612TIP3    H135471   4.084   1.522   1.918 -0.3385  2.1635 -0.1503
 4612TIP3    H235472   3.985   1.487   2.026  0.0873  0.0816 -0.3959
 4613TIP3   OH235473   0.766   0.634   1.501 -0.1934  0.9283 -0.1859
 4613TIP3    H135474   0.828   0.602   1.566 -1.5282 -1.6948 -0.0679
 4613TIP3    H235475   0.726   0.711   1.542 -0.6422 -0.3558  1.9754
 4614TIP3   OH235476   4.209   5.760   6.663 -0.6146  0.0809 -0.3740
 4614TIP3    H135477   4.229   5.741   6.571  0.8736  0.7698 -0.2112
 4614TIP3    H235478   4.136   5.822   6.658 -0.7029 -0.0614 -1.0796
 4615TIP3   OH235479   2.812   5.444   7.546 -0.5669 -0.3158 -0.5354
 4615TIP3    H135480   2.907   5.445   7.539 -0.6291  1.4849 -1.6315
 4615TIP3    H235481   2.793   5.503   7.619 -0.8372 -1.3853  0.2865
 4616TIP3   OH235482   6.587   2.379   7.159 -0.3535 -0.6003  0.6518
 4616TIP3    H135483   6.593   2.439   7.233  1.6184  0.9004 -0.6291
 4616TIP3    H235484   6.658   2.406   7.100 -1.3902 -2.1836 -1.4570
 4617TIP3   OH235485   4.878   3.931   1.883  0.2922  0.1968  0.1099
 4617TIP3    H135486   4.811   3.976   1.935 -0.0438 -0.0397 -0.1079
 4617TIP3    H235487   4.917   3.867   1.943 -1.8153 -1.8508 -0.5279
 4618TIP3   OH235488   1.100   4.081   1.312 -0.0935 -0.3670  0.1757
 4618TIP3    H135489   1.054   4.138   1.374  0.6255  0.8132 -0.3437
 4618TIP3    H235490   1.136   4.012   1.366 -0.6165 -0.0961  0.8898
 4619TIP3   OH235491   1.846   2.987   6.542 -0.3590  0.3278 -0.0337
 4619TIP3    H135492   1.834   2.908   6.595 -2.4037 -0.2264 -1.2391
 4619TIP3    H235493   1.888   2.955   6.462 -1.6149  0.3507 -0.7215
 4620TIP3   OH235494   1.551   6.207   1.318 -0.4416 -0.2333  0.3121
 4620TIP3    H135495   1.605   6.130   1.339 -0.0920  0.0876  0.6003
 4620TIP3    H235496   1.544   6.254   1.401  1.5053  1.3986 -0.3732
 4621TIP3   OH235497   5.172   3.804   1.816 -0.0234 -0.1603 -0.4468
 4621TIP3    H135498   5.124   3.773   1.893 -0.8249  0.2625 -0.7696
 4621TIP3    H235499   5.264   3.787   1.837 -0.2441 -0.1790  0.5464
 4622TIP3   OH235500   3.323   3.395   8.518 -0.6846  0.5370  0.4407
 4622TIP3    H135501   3.340   3.422   8.608  0.4505 -1.3917  0.8783
 4622TIP3    H235502   3.263   3.320   8.526  1.0099 -0.9699 -0.1885
 4623TIP3   OH235503   1.004   4.331   7.575  0.1132 -0.4509 -0.1134
 4623TIP3    H135504   1.070   4.264   7.557 -0.4086 -0.6666 -1.3623
 4623TIP3    H235505   0.998   4.335   7.670 -0.9102 -3.2727  0.0526
 4624TIP3   OH235506   2.045   5.687   1.135  0.6900  0.3880  0.1857
 4624TIP3    H135507   2.010   5.774   1.119  0.6875  0.1901 -0.9235
 4624TIP3    H235508   2.021   5.636   1.057 -0.9369 -1.1311  1.5753
 4625TIP3   OH235509   6.717   2.327   1.111  0.1669  0.3320  0.2473
 4625TIP3    H135510   6.727   2.252   1.053  1.3847  0.4747  0.2445
 4625TIP3    H235511   6.721   2.404   1.054 -0.9545  0.4216  0.2634
 4626TIP3   OH235512   0.500   3.642   1.923  0.0419 -0.3090  0.8186
 4626TIP3    H135513   0.581   3.674   1.883 -1.3265  1.3098 -0.8795
 4626TIP3    H235514   0.507   3.547   1.918  1.7372 -0.2088  0.5337
 4627TIP3   OH235515   6.414   4.292   7.976  0.2389 -0.2429 -0.2970
 4627TIP3    H135516   6.400   4.384   7.952  2.5931  0.6706  1.4130
 4627TIP3    H235517   6.371   4.242   7.907  0.3747  2.1493 -2.2544
 4628TIP3   OH235518   5.355   2.912   0.896  0.5413 -0.1053 -0.2048
 4628TIP3    H135519   5.343   2.820   0.920 -1.0208 -0.4331 -2.0663
 4628TIP3    H235520   5.445   2.932   0.924  0.8472 -2.1288  0.4117
 4629TIP3   OH235521   4.394   3.111   8.849 -0.1339 -0.2075 -0.2370
 4629TIP3    H135522   4.458   3.090   8.917 -0.5010 -3.0221 -0.6416
 4629TIP3    H235523   4.392   3.034   8.793 -1.8740  0.9123 -1.8489
 4630TIP3   OH235524   1.878   4.279   8.382  0.2636 -0.1433  0.1834
 4630TIP3    H135525   1.809   4.264   8.317  1.0146 -0.3179 -0.5867
 4630TIP3    H235526   1.906   4.369   8.368  0.1985 -0.0736  0.4929
 4631TIP3   OH235527   5.781   3.015   8.558 -0.7958 -0.6103 -0.0954
 4631TIP3    H135528   5.712   3.056   8.609 -0.1061 -0.6311  0.8891
 4631TIP3    H235529   5.735   2.965   8.490 -1.6925  0.2235 -0.1203
 4632TIP3   OH235530   5.889   1.805   1.322 -0.3952 -0.2797  0.0077
 4632TIP3    H135531   5.938   1.886   1.309  1.6439 -1.7393 -2.1009
 4632TIP3    H235532   5.813   1.813   1.264 -1.3646  0.9385  1.3872
 4633TIP3   OH235533   5.930   5.089   0.001  0.1285 -0.0975 -0.1058
 4633TIP3    H135534   5.959   5.033  -0.071 -1.1978 -0.1776 -0.6060
 4633TIP3    H235535   5.920   5.029   0.075  0.3270 -0.2270 -0.1822
 4634TIP3   OH235536   2.457   3.634   6.844  0.0635 -0.3305 -0.0114
 4634TIP3    H135537   2.459   3.539   6.852  0.2697 -0.3129  0.1790
 4634TIP3    H235538   2.550   3.659   6.840  0.0016 -0.1979 -0.8501
 4635TIP3   OH235539   2.616   4.078   8.455 -0.1228  0.0785  0.0852
 4635TIP3    H135540   2.540   4.136   8.462 -0.6865 -0.5819 -0.3775
 4635TIP3    H235541   2.579   3.990   8.460  0.2757 -0.3380 -2.7571
 4636TIP3   OH235542   6.537   5.892   7.876  0.0451 -0.2079 -0.0690
 4636TIP3    H135543   6.627   5.878   7.845 -0.6758 -1.9461 -1.6191
 4636TIP3    H235544   6.499   5.952   7.812  0.1273  0.6222  0.6546
 4637TIP3   OH235545   3.291   0.098   8.502  0.0452  0.6009 -0.2004
 4637TIP3    H135546   3.342   0.155   8.559  0.8298  0.3742 -0.6563
 4637TIP3    H235547   3.331   0.108   8.415  0.4025 -0.8410 -0.2421
 4638TIP3   OH235548   2.563   2.687   0.498  0.2935 -0.1309  0.3702
 4638TIP3    H135549   2.591   2.647   0.580  2.3979 -0.8018 -0.6000
 4638TIP3    H235550   2.541   2.778   0.522  0.0103 -0.5492  1.7971
 4639TIP3   OH235551   2.831   0.277   0.500  0.2049 -0.3263  0.3791
 4639TIP3    H135552   2.759   0.267   0.562 -0.9685 -2.7050 -1.2355
 4639TIP3    H235553   2.901   0.223   0.536 -0.0286 -0.7033  0.2721
 4640TIP3   OH235554   3.195   1.793   0.886  0.1089  0.3150 -0.0827
 4640TIP3    H135555   3.112   1.778   0.932 -0.7661  0.6251 -1.4842
 4640TIP3    H235556   3.200   1.721   0.823 -0.3931  1.6495 -1.7314
 4641TIP3   OH235557   0.309   4.195   1.008 -0.1999  0.2185  0.4369
 4641TIP3    H135558   0.313   4.156   1.095 -1.9093  2.2152  1.4838
 4641TIP3    H235559   0.223   4.170   0.974 -0.3329  1.0740  0.1321
 4642TIP3   OH235560   4.112   6.145   0.834 -0.0706  0.5515 -0.0729
 4642TIP3    H135561   4.024   6.145   0.798 -1.3493 -0.2368  2.7769
 4642TIP3    H235562   4.135   6.053   0.842 -0.1253  0.6518  1.6153
 4643TIP3   OH235563   4.827   2.017   8.350 -0.3664  0.8839 -0.2265
 4643TIP3    H135564   4.838   2.105   8.386 -0.3561  0.8277 -0.0892
 4643TIP3    H235565   4.744   2.020   8.303  1.5296  2.2317 -3.9424
 4644TIP3   OH235566   5.053   0.821   8.120 -0.0626  0.3714 -0.4076
 4644TIP3    H135567   4.963   0.848   8.134  0.3200  0.1857  3.5490
 4644TIP3    H235568   5.052   0.726   8.131  0.8150  0.5643  1.9454
 4645TIP3   OH235569   3.240   5.335   6.639  0.1722  0.4107 -0.3263
 4645TIP3    H135570   3.288   5.291   6.709 -1.3326  0.7209  0.9413
 4645TIP3    H235571   3.288   5.311   6.559  2.3311  0.5871  0.8272
 4646TIP3   OH235572   5.226   3.347   0.601 -0.1259  0.7957  0.1918
 4646TIP3    H135573   5.320   3.358   0.584 -0.4746  4.2924 -0.2394
 4646TIP3    H235574   5.221   3.336   0.696  0.8199 -3.5318 -0.0396
 4647TIP3   OH235575   6.563   3.423   1.073 -0.2863  0.0058 -0.1643
 4647TIP3    H135576   6.532   3.352   1.130 -0.6784  0.1859 -0.1469
 4647TIP3    H235577   6.540   3.394   0.985  1.3225 -0.7871 -0.3533
 4648TIP3   OH235578   5.416   6.524   7.723  0.9114 -0.1146  0.0328
 4648TIP3    H135579   5.363   6.603   7.719  0.8604 -0.1636 -0.2249
 4648TIP3    H235580   5.497   6.547   7.678  2.3356  0.9217  2.8686
 4649TIP3   OH235581   2.158   0.474   6.531 -0.1134  0.4647 -0.2475
 4649TIP3    H135582   2.192   0.558   6.561 -1.6314  2.3358 -3.3000
 4649TIP3    H235583   2.230   0.435   6.482 -0.1851  1.2605 -1.0162
 4650TIP3   OH235584   5.934   6.661   7.154  0.7626 -0.2608  0.1530
 4650TIP3    H135585   5.915   6.568   7.143 -1.8242 -0.0209  1.7267
 4650TIP3    H235586   5.914   6.700   7.069  0.0090 -0.9165  0.0179
 4651TIP3   OH235587   3.584   4.434   8.853 -0.2499  0.2578 -0.1153
 4651TIP3    H135588   3.659   4.390   8.891 -0.5609 -0.2351 -0.0585
 4651TIP3    H235589   3.621   4.491   8.785  0.2930  1.0559  0.8297
 4652TIP3   OH235590   3.147   5.332   8.323  0.1627  0.2639  0.2601
 4652TIP3    H135591   3.074   5.394   8.324  0.2499  0.3721  0.0755
 4652TIP3    H235592   3.109   5.249   8.294  0.0480  0.2345  0.4950
 4653TIP3   OH235593   1.288   2.858   0.942 -0.0105 -1.0364 -0.4010
 4653TIP3    H135594   1.299   2.793   0.873 -0.0893 -2.2798  0.7133
 4653TIP3    H235595   1.378   2.885   0.964  0.2177 -2.4372  0.6105
 4654TIP3   OH235596   1.696   0.504   7.748 -0.0475  0.0855  0.1216
 4654TIP3    H135597   1.661   0.548   7.671 -0.8062  0.1861  0.5183
 4654TIP3    H235598   1.791   0.510   7.737 -0.1397  0.9406 -0.3285
 4655TIP3   OH235599   2.093   3.972   7.514 -0.1983  0.1210  0.8850
 4655TIP3    H135600   2.158   3.931   7.571  0.0934  0.9804  1.2008
 4655TIP3    H235601   2.093   3.919   7.435  1.6410  0.6681  0.4670
 4656TIP3   OH235602   2.554   2.216   6.348 -0.2743  0.4080 -0.4044
 4656TIP3    H135603   2.621   2.281   6.368 -0.1460  0.3555 -0.6600
 4656TIP3    H235604   2.472   2.258   6.373  0.0096 -0.4401  2.2731
 4657TIP3   OH235605   1.507   2.767   8.678 -0.4215 -0.1638 -0.5656
 4657TIP3    H135606   1.450   2.764   8.600  0.1006 -1.0101 -0.9235
 4657TIP3    H235607   1.465   2.832   8.735 -0.8930  0.3674 -1.4875
 4658TIP3   OH235608   3.135   3.129   1.592 -0.0718  0.4394 -1.0511
 4658TIP3    H135609   3.150   3.213   1.636 -1.6375  1.4839 -2.3928
 4658TIP3    H235610   3.085   3.077   1.656  0.4035  0.7217 -0.4352
 4659TIP3   OH235611   1.759   5.904   6.680  0.4463 -0.0528 -0.1446
 4659TIP3    H135612   1.794   5.861   6.758 -2.0302  0.5669  1.4134
 4659TIP3    H235613   1.706   5.837   6.637  3.2340 -0.9895 -2.5000
 4660TIP3   OH235614   5.824   3.503   7.016 -0.0567  0.3696 -0.6371
 4660TIP3    H135615   5.808   3.520   6.923  2.8799  0.3954 -1.2220
 4660TIP3    H235616   5.911   3.540   7.033  0.4619 -1.6135  1.5462
 4661TIP3   OH235617   5.260   4.651   8.816  0.6892  0.1384 -0.3357
 4661TIP3    H135618   5.248   4.726   8.758 -1.2308  0.0820 -0.0554
 4661TIP3    H235619   5.176   4.641   8.860  1.3793 -1.2795  0.7180
 4662TIP3   OH235620   1.370   3.817   8.491 -0.2199 -0.4105  0.5972
 4662TIP3    H135621   1.392   3.729   8.461  1.7109 -0.9447  3.2307
 4662TIP3    H235622   1.276   3.825   8.473  0.0609 -1.9110 -2.1374
 4663TIP3   OH235623   4.243   3.465   7.190 -0.3722 -0.4885 -0.1005
 4663TIP3    H135624   4.322   3.447   7.139 -1.0693 -1.8457 -0.7740
 4663TIP3    H235625   4.190   3.522   7.134 -0.3643 -0.5266 -0.1472
 4664TIP3   OH235626   0.279   2.123   1.740 -0.1504  0.6657 -0.2452
 4664TIP3    H135627   0.230   2.099   1.818 -0.8087 -0.3032 -0.9378
 4664TIP3    H235628   0.215   2.162   1.682  0.2556  0.9990 -0.4767
 4665TIP3   OH235629   4.542   3.558   7.820  0.0269 -0.1117 -0.3060
 4665TIP3    H135630   4.587   3.503   7.884  1.1994 -0.5101 -1.4204
 4665TIP3    H235631   4.483   3.498   7.773 -0.0284 -0.0473 -0.3191
 4666TIP3   OH235632   3.805   3.658   0.036  0.7126 -0.0491 -0.0383
 4666TIP3    H135633   3.784   3.737   0.086 -2.0782 -0.0714 -0.9953
 4666TIP3    H235634   3.824   3.591   0.101  0.4076  0.7315  0.8657
 4667TIP3   OH235635   3.912   1.638   7.416 -0.2867  0.4194  0.1423
 4667TIP3    H135636   3.936   1.594   7.497  0.9267 -2.0759 -1.4665
 4667TIP3    H235637   3.992   1.638   7.364 -1.7865 -1.1792 -2.3777
 4668TIP3   OH235638   4.122   1.293   0.571 -0.7929  0.3955  0.6078
 4668TIP3    H135639   4.181   1.220   0.554 -0.1875  0.9453  0.2682
 4668TIP3    H235640   4.047   1.277   0.515  0.6045  1.5079 -1.7319
 4669TIP3   OH235641   3.086   4.682   7.946 -0.9284 -0.1663 -0.0662
 4669TIP3    H135642   3.121   4.688   8.035  2.1065 -2.8736 -0.8652
 4669TIP3    H235643   3.155   4.719   7.891 -0.2663 -3.2533 -1.5574
 4670TIP3   OH235644   2.732   4.353   8.633  0.7559 -0.3749  0.0865
 4670TIP3    H135645   2.750   4.332   8.542  1.5593 -1.0068  0.3763
 4670TIP3    H235646   2.759   4.274   8.681 -0.3722 -0.3487  0.7985
 4671TIP3   OH235647   2.882   2.476   7.838 -0.1210  0.0519 -0.5129
 4671TIP3    H135648   2.918   2.409   7.780  0.5124  1.9978 -2.4670
 4671TIP3    H235649   2.947   2.546   7.837  0.2013  0.0095  3.0566
 4672TIP3   OH235650   5.024   0.295   7.552  0.2516 -0.0318 -0.3401
 4672TIP3    H135651   4.949   0.242   7.577 -1.0246  0.9376 -1.8987
 4672TIP3    H235652   5.094   0.268   7.612 -0.5063 -2.9467 -0.6309
 4673TIP3   OH235653   5.340   1.966   1.405 -0.2973  0.1075 -0.4874
 4673TIP3    H135654   5.416   2.011   1.367 -0.3317  1.3097  0.7727
 4673TIP3    H235655   5.374   1.883   1.437  0.1714  0.0053 -1.2401
 4674TIP3   OH235656   0.856   2.506   0.395 -0.0406 -0.3924 -0.3814
 4674TIP3    H135657   0.764   2.526   0.413 -0.0935 -1.3519  0.5237
 4674TIP3    H235658   0.904   2.582   0.429 -0.5006  0.1551 -0.9483
 4675TIP3   OH235659   0.918   1.469   8.508 -0.5518 -0.3123 -0.6296
 4675TIP3    H135660   0.970   1.408   8.455  0.4064  0.5717 -0.7383
 4675TIP3    H235661   0.903   1.423   8.590  1.0976 -0.2970 -0.2943
 4676TIP3   OH235662   1.774   1.565   1.812  0.0942 -0.2015  0.0253
 4676TIP3    H135663   1.862   1.576   1.848 -0.2720  0.5077  0.7474
 4676TIP3    H235664   1.785   1.505   1.738  1.1298 -0.3599  0.2955
 4677TIP3   OH235665   5.626   6.581   2.166 -0.0697 -0.6530  0.0939
 4677TIP3    H135666   5.555   6.540   2.215 -1.6801  0.5382 -1.1258
 4677TIP3    H235667   5.582   6.628   2.095  1.9606  0.0331 -0.7868
 4678TIP3   OH235668   1.317   3.973   1.643  0.0840 -0.3671 -0.1056
 4678TIP3    H135669   1.395   4.028   1.645 -0.5594  0.6093 -1.1410
 4678TIP3    H235670   1.250   4.025   1.686 -0.3194 -0.6864 -0.3434
 4679TIP3   OH235671   3.575   4.532   6.843 -0.3170  0.0039  0.0561
 4679TIP3    H135672   3.587   4.612   6.791  2.4751 -0.4375 -0.1071
 4679TIP3    H235673   3.554   4.464   6.779  3.1404 -0.5435 -0.6854
 4680TIP3   OH235674   6.701   2.532   0.781  0.4619  0.6466  0.2606
 4680TIP3    H135675   6.668   2.455   0.734 -2.4160  1.7556  0.2567
 4680TIP3    H235676   6.725   2.594   0.713  0.9655  0.4826  0.2806
 4681TIP3   OH235677   0.429   4.226   1.446  0.3789  0.1378  0.2557
 4681TIP3    H135678   0.485   4.155   1.415  0.4498  0.7088 -0.9649
 4681TIP3    H235679   0.341   4.200   1.419  0.2844  0.1064  0.5847
 4682TIP3   OH235680   1.155   1.588   1.094 -0.8161  0.4392 -0.3774
 4682TIP3    H135681   1.090   1.521   1.116  0.3219 -0.2061  1.2518
 4682TIP3    H235682   1.221   1.542   1.042 -0.5137  0.5285 -0.0746
 4683TIP3   OH235683   0.410   0.771   0.490 -0.6720  0.4111  0.3987
 4683TIP3    H135684   0.453   0.809   0.414  1.8504  1.6785  2.3378
 4683TIP3    H235685   0.424   0.677   0.481  0.5276  0.6338 -0.1728
 4684TIP3   OH235686   3.316   3.744   8.087  0.3862 -0.3259  0.0920
 4684TIP3    H135687   3.308   3.832   8.125  0.8512  0.4901 -1.5782
 4684TIP3    H235688   3.407   3.738   8.060  0.6246 -1.7594  1.1211
 4685TIP3   OH235689   1.975   4.292   0.223  0.3722 -0.0786  0.4403
 4685TIP3    H135690   2.019   4.267   0.304 -1.2020 -1.6663  0.8666
 4685TIP3    H235691   2.033   4.261   0.154  0.8742 -0.3390  0.9711
 4686TIP3   OH235692   6.082   6.536   2.452 -0.3305  0.5632  0.1446
 4686TIP3    H135693   5.992   6.564   2.435 -0.2308  1.0561  0.4092
 4686TIP3    H235694   6.074   6.445   2.479 -0.6343  0.2230 -1.0191
 4687TIP3   OH235695   1.389   2.728   8.419 -0.6082  0.6084 -0.0174
 4687TIP3    H135696   1.417   2.707   8.330 -0.5423  0.2739  0.0826
 4687TIP3    H235697   1.350   2.647   8.452 -1.1105  0.8820  0.0768
 4688TIP3   OH235698   4.350   3.806   0.730 -0.1315  0.3536 -0.8471
 4688TIP3    H135699   4.375   3.757   0.808  1.2668  1.1433 -0.7660
 4688TIP3    H235700   4.339   3.739   0.662 -0.4030 -0.2479 -0.2269
 4689TIP3   OH235701   4.131   6.615   0.689 -0.5969 -0.0668 -0.2043
 4689TIP3    H135702   4.191   6.619   0.614 -0.0778 -0.9666  0.1467
 4689TIP3    H235703   4.050   6.655   0.657 -0.3473 -0.3338 -1.2073
 4690TIP3   OH235704   2.322   2.588   1.677  0.3056 -0.2031 -0.4781
 4690TIP3    H135705   2.302   2.577   1.585  1.2565 -1.0410 -0.6056
 4690TIP3    H235706   2.262   2.529   1.722  1.0073 -1.0951 -0.6961
 4691TIP3   OH235707   0.216   1.406   6.651  0.2608  0.0394  0.8489
 4691TIP3    H135708   0.247   1.465   6.582  1.2733 -0.7607  0.5958
 4691TIP3    H235709   0.166   1.463   6.710  0.1819  0.9157 -0.0276
 4692TIP3   OH235710   0.825   2.651   7.425  0.0005  0.3995 -0.0270
 4692TIP3    H135711   0.801   2.682   7.512 -0.0365 -2.0935  0.9376
 4692TIP3    H235712   0.805   2.557   7.426  0.0366  0.2809 -2.7245
 4693TIP3   OH235713   0.151   4.690   7.664  0.5665 -0.5531  0.1830
 4693TIP3    H135714   0.095   4.757   7.702  0.7102  0.2615 -0.9905
 4693TIP3    H235715   0.220   4.739   7.619  2.6546 -1.5051  2.1294
 4694TIP3   OH235716   3.294   4.202   8.399  0.3918 -0.7328 -0.6388
 4694TIP3    H135717   3.326   4.235   8.483 -1.1145 -1.0570  0.0954
 4694TIP3    H235718   3.326   4.266   8.335  1.0196 -0.1299  0.2432
 4695TIP3   OH235719   2.537   2.601   6.933 -0.4214 -0.2396  0.0698
 4695TIP3    H135720   2.453   2.593   6.888  0.1667 -0.8128 -0.9749
 4695TIP3    H235721   2.545   2.694   6.954 -2.2322 -0.4493  2.0780
 4696TIP3   OH235722   2.740   1.756   6.486 -0.1041 -0.1663  0.1045
 4696TIP3    H135723   2.825   1.780   6.449 -0.5798 -0.5009 -1.2550
 4696TIP3    H235724   2.757   1.674   6.533  0.7450  0.8464  1.6481
 4697TIP3   OH235725   1.397   6.321   6.951 -0.0445 -0.4107 -0.6336
 4697TIP3    H135726   1.412   6.387   6.883 -1.3695  0.4550 -0.1243
 4697TIP3    H235727   1.320   6.272   6.921 -0.8207  0.1702  0.3667
 4698TIP3   OH235728   2.499   3.622   2.339 -0.3652 -0.0612  0.1625
 4698TIP3    H135729   2.421   3.669   2.310 -1.1318 -0.0077  2.1802
 4698TIP3    H235730   2.513   3.651   2.429 -0.4905 -3.1487  1.3104
 4699TIP3   OH235731   6.375   4.673   7.226  0.0116  0.3188  0.1961
 4699TIP3    H135732   6.419   4.658   7.309 -1.8445 -0.0096  1.1941
 4699TIP3    H235733   6.435   4.639   7.160  1.8244  1.2234  1.3201
 4700TIP3   OH235734   6.797   4.760   6.877 -0.3396  0.3961  0.0112
 4700TIP3    H135735   6.773   4.743   6.968 -0.9993 -1.0130 -0.3969
 4700TIP3    H235736   6.763   4.685   6.829 -1.0793  1.6937 -1.5865
 4701TIP3   OH235737   5.770   3.907   7.915  0.1652  0.0089  0.0158
 4701TIP3    H135738   5.779   3.978   7.979  0.4877 -1.5996  1.8333
 4701TIP3    H235739   5.852   3.909   7.866  0.1086  0.9745 -0.0719
 4702TIP3   OH235740   0.529   2.867   1.462  0.3089  0.1788  0.6343
 4702TIP3    H135741   0.605   2.811   1.481  1.0841  0.9158 -0.2457
 4702TIP3    H235742   0.566   2.954   1.446 -0.6880  0.4879 -0.0856
 4703TIP3   OH235743   1.361   2.573   1.390  0.6483  0.0321 -0.0919
 4703TIP3    H135744   1.297   2.637   1.358 -0.4705 -0.9996  0.0150
 4703TIP3    H235745   1.332   2.553   1.479 -2.0230 -4.1430 -1.5815
 4704TIP3   OH235746   1.734   3.591   8.876 -0.4393 -0.1205 -0.1336
 4704TIP3    H135747   1.686   3.627   8.801  1.9133  1.7614 -0.8820
 4704TIP3    H235748   1.801   3.534   8.837 -1.1826 -1.7061  0.7969
 4705TIP3   OH235749   5.723   2.671   0.537 -0.3524  0.3726  0.2168
 4705TIP3    H135750   5.669   2.750   0.532 -0.2355  0.3911 -1.6505
 4705TIP3    H235751   5.803   2.699   0.581 -0.4010  1.2431 -0.2297
 4706TIP3   OH235752   5.331   2.850   7.607 -0.2232  0.3773  0.4327
 4706TIP3    H135753   5.353   2.819   7.519  0.2497  0.4031  0.5353
 4706TIP3    H235754   5.370   2.938   7.611 -0.7936  0.6325  0.4460
 4707TIP3   OH235755   1.037   1.223   0.445 -0.2385  0.2690 -0.5221
 4707TIP3    H135756   0.953   1.268   0.436 -1.5184 -2.0700 -0.8901
 4707TIP3    H235757   1.095   1.267   0.382 -0.9347  2.3376  0.1958
 4708TIP3   OH235758   1.510   1.248   0.815  0.5113  0.0392 -0.0521
 4708TIP3    H135759   1.440   1.297   0.772  1.6794  2.5106  0.6582
 4708TIP3    H235760   1.483   1.244   0.907  0.9940  0.4360  0.1105
 4709TIP3   OH235761   0.925   6.636   1.525  0.4218 -0.2195 -0.3491
 4709TIP3    H135762   0.903   6.715   1.476 -0.5423 -1.0859 -1.3585
 4709TIP3    H235763   0.982   6.586   1.466 -0.6530 -1.2171 -0.5822
 4710TIP3   OH235764   3.373   2.834   7.648  0.0399 -0.5563  0.1858
 4710TIP3    H135765   3.346   2.763   7.707 -0.2810 -1.0356 -0.5194
 4710TIP3    H235766   3.425   2.791   7.580 -0.1594 -0.1198 -0.2546
 4711TIP3   OH235767   1.388   3.207   0.310 -0.0314  0.1412 -0.6993
 4711TIP3    H135768   1.414   3.267   0.240 -2.5365  1.4261 -0.6592
 4711TIP3    H235769   1.449   3.226   0.381  1.2425  0.3006 -1.7913
 4712TIP3   OH235770   2.920   6.710   8.303 -0.0783  0.6555 -0.2039
 4712TIP3    H135771   2.922   6.779   8.236  1.3444 -0.6919 -1.6263
 4712TIP3    H235772   2.836   6.667   8.290 -0.6379  1.5874  0.1780
 4713TIP3   OH235773   2.022   4.369   7.808  0.2909  0.0162  0.2101
 4713TIP3    H135774   2.014   4.310   7.884  0.0273  0.1436  0.2801
 4713TIP3    H235775   1.936   4.408   7.799  0.2143 -0.2860 -0.3956
 4714TIP3   OH235776   4.584   4.660   6.523 -0.0391  0.1105  0.2427
 4714TIP3    H135777   4.551   4.610   6.597  4.0901 -1.9008  1.0265
 4714TIP3    H235778   4.591   4.750   6.557 -1.8300  0.0454  0.8943
 4715TIP3   OH235779   0.774   6.296   0.855 -0.1306  0.4436 -0.0960
 4715TIP3    H135780   0.839   6.355   0.895  0.4458  1.0517 -1.8467
 4715TIP3    H235781   0.706   6.288   0.922 -0.4105  3.4165  0.1088
 4716TIP3   OH235782   1.550   1.920   1.566 -0.3795  0.3702  0.4453
 4716TIP3    H135783   1.461   1.883   1.566 -0.6575  1.0250  0.8437
 4716TIP3    H235784   1.566   1.943   1.474 -0.6824  0.4027  0.3991
 4717TIP3   OH235785   5.553   0.103   8.379  0.2818  0.3829 -0.1152
 4717TIP3    H135786   5.510   0.149   8.451  1.3154 -0.1686  0.8965
 4717TIP3    H235787   5.645   0.131   8.385  0.5049 -0.1637 -0.8308
 4718TIP3   OH235788   2.483   5.907   0.782  0.4627  0.6265  0.6336
 4718TIP3    H135789   2.395   5.932   0.755 -0.7510 -3.8330 -0.2731
 4718TIP3    H235790   2.525   5.875   0.702  2.3774  1.1520  1.3615
 4719TIP3   OH235791   1.958   3.081   6.933 -0.2313  0.2968  0.6767
 4719TIP3    H135792   1.917   2.995   6.931  0.8561 -0.2235  0.1235
 4719TIP3    H235793   2.049   3.066   6.906  1.0830  1.0355  4.1615
 4720TIP3   OH235794   6.015   4.895   8.681  0.1043 -0.1906 -0.1344
 4720TIP3    H135795   5.960   4.865   8.608 -1.1555  0.5782  0.4737
 4720TIP3    H235796   6.105   4.880   8.650 -0.3813 -3.3531 -0.3869
 4721TIP3   OH235797   1.139   0.735   7.719 -0.2043  0.2717 -0.2726
 4721TIP3    H135798   1.142   0.827   7.746  1.8845 -0.0004  0.6244
 4721TIP3    H235799   1.105   0.737   7.630 -0.6275  1.8670 -0.1044
 4722TIP3   OH235800   6.752   3.709   0.807 -0.1422 -0.2266 -0.0967
 4722TIP3    H135801   6.821   3.706   0.741 -0.5435  3.1730 -0.8700
 4722TIP3    H235802   6.671   3.706   0.757 -0.4999 -0.5435  0.4900
 4723TIP3   OH235803   1.935   5.188   8.052 -0.6755  0.1539 -0.1078
 4723TIP3    H135804   2.024   5.158   8.070 -1.0231 -0.6564  0.3223
 4723TIP3    H235805   1.927   5.270   8.099 -0.1704  0.2111 -0.1132
 4724TIP3   OH235806   0.163   3.528   1.352 -0.2969 -0.5935 -0.3445
 4724TIP3    H135807   0.202   3.492   1.432 -0.5426 -1.2174 -0.4935
 4724TIP3    H235808   0.070   3.507   1.360 -0.4506  0.0538 -0.4258
 4725TIP3   OH235809   2.096   2.675   0.083  0.1805  0.1168  0.2348
 4725TIP3    H135810   2.030   2.606   0.088  0.4483 -0.1686 -0.1120
 4725TIP3    H235811   2.122   2.676  -0.009  1.7059 -0.7700  0.6306
 4726TIP3   OH235812   6.755   3.054   7.518  0.2796  0.1879  0.2399
 4726TIP3    H135813   6.774   2.981   7.577  0.5368 -0.3691 -0.5198
 4726TIP3    H235814   6.780   3.132   7.568  1.1093 -0.3105  0.6201
 4727TIP3   OH235815   3.846   6.602   8.696  0.3878  0.1895  0.0046
 4727TIP3    H135816   3.888   6.537   8.639  0.1836 -0.0591  0.1361
 4727TIP3    H235817   3.790   6.652   8.636  0.1022 -0.1323  0.0028
 4728TIP3   OH235818   3.665   6.033   1.286  0.1117  0.1386  0.0817
 4728TIP3    H135819   3.717   6.113   1.292  0.7680 -0.3333  0.9288
 4728TIP3    H235820   3.669   6.008   1.194 -1.5985  2.0427 -0.5677
 4729TIP3   OH235821   3.155   4.127   1.948 -0.3402 -0.4069 -0.0946
 4729TIP3    H135822   3.119   4.079   2.022 -1.4702  0.1451 -0.2653
 4729TIP3    H235823   3.175   4.214   1.984  0.2986 -0.5252 -0.1461
 4730TIP3   OH235824   3.192   2.914   1.166  0.1698 -0.0295  0.1233
 4730TIP3    H135825   3.280   2.905   1.204  1.0561 -1.6606 -2.0972
 4730TIP3    H235826   3.150   2.830   1.182 -0.2401  0.0435 -0.5301
 4731TIP3   OH235827   6.046   3.081   0.541  0.4246 -0.0224  0.3575
 4731TIP3    H135828   6.004   3.165   0.521 -0.0413 -0.1069  0.9726
 4731TIP3    H235829   6.134   3.105   0.572  0.2145  0.2546  0.7461
 4732TIP3   OH235830   0.391   5.345   0.974 -0.0303  0.5457  0.1158
 4732TIP3    H135831   0.340   5.349   1.055 -0.7808  2.5858 -0.4014
 4732TIP3    H235832   0.481   5.332   1.003 -0.6821 -2.6982  1.0652
 4733TIP3   OH235833   1.703   4.612   1.169 -0.0934 -0.3049  0.0072
 4733TIP3    H135834   1.675   4.521   1.182 -1.5722 -0.0521 -1.1320
 4733TIP3    H235835   1.683   4.630   1.077  0.4043  1.1092  0.1607
 4734TIP3   OH235836   6.209   0.804   7.916 -0.2978  0.0243 -0.0743
 4734TIP3    H135837   6.150   0.781   7.845  0.5190 -0.5100 -0.5952
 4734TIP3    H235838   6.153   0.843   7.983 -1.1292  0.1562 -0.8418
 4735TIP3   OH235839   3.614   0.016   8.737  0.2957 -0.1289  0.2407
 4735TIP3    H135840   3.698   0.060   8.726  1.1112 -1.2279  1.7051
 4735TIP3    H235841   3.610  -0.048   8.666  1.0658 -0.5909  0.6003
 4736TIP3   OH235842   2.044   4.779   1.139 -0.0607 -0.1668 -0.2503
 4736TIP3    H135843   2.056   4.874   1.132 -0.7968 -0.0479  0.0503
 4736TIP3    H235844   2.007   4.766   1.226  0.3338 -0.7679 -0.1611
 4737TIP3   OH235845   4.462   6.405   1.673 -0.0672 -0.5511 -0.1864
 4737TIP3    H135846   4.478   6.457   1.752  0.4720 -1.5364  0.3710
 4737TIP3    H235847   4.448   6.316   1.705 -0.9838 -0.7577 -1.1282
 4738TIP3   OH235848   2.551   6.300   8.332 -0.3233 -0.0922  0.0442
 4738TIP3    H135849   2.505   6.381   8.308 -0.5029 -0.3216 -0.4074
 4738TIP3    H235850   2.484   6.232   8.323  0.2630 -0.5245 -1.2759
 4739TIP3   OH235851   1.664   2.508   7.756 -0.0723 -0.0665 -0.1691
 4739TIP3    H135852   1.695   2.589   7.796 -1.3562  1.3109 -1.8275
 4739TIP3    H235853   1.590   2.534   7.701 -1.0841 -2.5032 -0.1075
 4740TIP3   OH235854   1.733   0.459   1.515 -0.5722  0.4486  0.1411
 4740TIP3    H135855   1.735   0.370   1.549  1.1634  0.2974 -0.2642
 4740TIP3    H235856   1.697   0.512   1.586  0.1400 -0.3090  1.0900
 4741TIP3   OH235857   5.555   1.511   7.396 -0.4712  0.4153  0.3598
 4741TIP3    H135858   5.644   1.523   7.363 -0.4198  1.3744  0.8248
 4741TIP3    H235859   5.513   1.596   7.385 -1.0908  0.1874  0.8738
 4742TIP3   OH235860   5.018   2.221   0.707 -0.7010  0.2626 -0.0685
 4742TIP3    H135861   5.070   2.280   0.652  0.5201  0.3731  1.1617
 4742TIP3    H235862   5.062   2.221   0.792 -1.4637 -1.3616  0.3761
 4743TIP3   OH235863   2.507   2.528   1.229  0.1116  0.4620 -0.0646
 4743TIP3    H135864   2.574   2.498   1.168 -1.4182 -2.0180 -0.6354
 4743TIP3    H235865   2.458   2.594   1.180  0.4650  0.3370 -0.5886
 4744TIP3   OH235866   0.749   3.523   0.730  0.3912 -0.2680  0.4913
 4744TIP3    H135867   0.832   3.503   0.773  1.3714  1.8099 -0.2664
 4744TIP3    H235868   0.764   3.502   0.637  0.7647  1.7739  0.0365
 4745TIP3   OH235869   1.102   6.415   1.681 -0.2359 -0.2970 -0.2262
 4745TIP3    H135870   1.099   6.419   1.586  2.0121  3.9333 -0.3332
 4745TIP3    H235871   1.012   6.434   1.709 -0.2735  1.7244 -1.5875
 4746TIP3   OH235872   0.353   3.811   2.236  0.0851  0.0621 -0.2389
 4746TIP3    H135873   0.275   3.761   2.213  1.3761 -1.5451 -1.3505
 4746TIP3    H235874   0.323   3.872   2.303 -2.6010  1.0645 -2.1887
 4747TIP3   OH235875   3.910   6.525   7.886  0.0066  0.5814 -0.5842
 4747TIP3    H135876   3.868   6.594   7.833 -0.2118  0.8225 -0.1088
 4747TIP3    H235877   3.979   6.490   7.830  0.6193  1.7028 -0.5647
 4748TIP3   OH235878   5.510   4.102   1.968 -0.2483 -0.3915 -0.1872
 4748TIP3    H135879   5.564   4.037   1.924  0.0175  0.0436 -0.4995
 4748TIP3    H235880   5.492   4.169   1.902 -2.2504 -1.1458 -0.4873
 4749TIP3   OH235881   2.875   0.560   0.557 -0.3912 -0.3569 -0.6051
 4749TIP3    H135882   2.870   0.465   0.551 -1.5028 -0.2405 -2.3756
 4749TIP3    H235883   2.845   0.591   0.472 -0.6595  1.6088  0.1473
 4750TIP3   OH235884   4.951   5.864   8.327 -0.7931  0.4914 -0.6611
 4750TIP3    H135885   4.952   5.939   8.268 -0.3439  1.7456  0.8731
 4750TIP3    H235886   4.893   5.890   8.398  0.4755 -0.0202  0.6189
 4751TIP3   OH235887   3.347   6.041   1.094  0.1990  0.2041  0.5303
 4751TIP3    H135888   3.436   6.026   1.060  0.4577 -0.7870  1.5527
 4751TIP3    H235889   3.313   5.953   1.109 -0.9569  0.5832  0.1696
 4752TIP3   OH235890   1.126   3.387   8.512 -0.0225  0.1059  0.8019
 4752TIP3    H135891   1.107   3.311   8.457  0.7450  0.8753 -0.5824
 4752TIP3    H235892   1.171   3.448   8.453 -2.2801  2.4445  1.3088
 4753TIP3   OH235893   2.005   1.619   0.667  0.1299 -0.2990  0.6918
 4753TIP3    H135894   1.978   1.601   0.757  1.1686  0.4332  1.1773
 4753TIP3    H235895   1.930   1.663   0.627  0.1607  0.6514  1.6418
 4754TIP3   OH235896   5.426   2.691   0.168  0.0198 -0.3183  0.1968
 4754TIP3    H135897   5.435   2.665   0.076  0.8065 -0.4983  0.3142
 4754TIP3    H235898   5.465   2.779   0.172 -0.6300 -0.0297  0.2275
 4755TIP3   OH235899   0.470   3.692   0.379 -0.0965  0.2940  0.0686
 4755TIP3    H135900   0.377   3.682   0.401  0.0648  0.0631  0.6608
 4755TIP3    H235901   0.513   3.705   0.464  0.3525  0.8756 -0.2422
 4756TIP3   OH235902   2.666   1.251   8.540  0.3611 -0.0922 -0.3006
 4756TIP3    H135903   2.610   1.174   8.530 -1.6129  1.4468 -2.2711
 4756TIP3    H235904   2.632   1.313   8.475  2.7019  1.9616  0.2963
 4757TIP3   OH235905   4.114   0.734   1.548 -0.4170 -0.0047  0.4995
 4757TIP3    H135906   4.112   0.789   1.469  1.2553 -2.2383 -1.2390
 4757TIP3    H235907   4.023   0.707   1.560 -0.6177 -0.1899 -1.1458
 4758TIP3   OH235908   1.174   0.593   7.012  0.2880  0.5113 -0.0826
 4758TIP3    H135909   1.244   0.657   7.030  0.4388  0.2238  0.3509
 4758TIP3    H235910   1.132   0.627   6.932  0.5087  1.0332  0.0144
 4759TIP3   OH235911   0.473   0.822   1.367 -0.2000 -0.1896  0.7022
 4759TIP3    H135912   0.427   0.883   1.310  0.4818  0.8773  1.2536
 4759TIP3    H235913   0.518   0.762   1.307 -1.0034 -0.2587  0.1559
 4760TIP3   OH235914   6.773   6.590   7.939 -0.2956 -0.9856 -0.3372
 4760TIP3    H135915   6.803   6.621   7.853 -1.1282 -0.7450 -0.5460
 4760TIP3    H235916   6.852   6.591   7.993  0.0153 -0.0103 -0.7813
 4761TIP3   OH235917   1.637   2.954   7.751 -0.4549  0.6164 -0.6435
 4761TIP3    H135918   1.562   2.992   7.796  0.5615  3.6132 -1.2386
 4761TIP3    H235919   1.602   2.921   7.668 -1.6948 -1.6265  0.6748
 4762TIP3   OH235920   0.789   0.838   6.999 -0.2585  0.0923  0.6280
 4762TIP3    H135921   0.746   0.763   6.958 -0.1803 -0.3634  1.3425
 4762TIP3    H235922   0.729   0.911   6.985 -0.8702 -0.3491  0.8830
 4763TIP3   OH235923   1.740   1.593   8.674 -0.8028  0.0204 -0.6830
 4763TIP3    H135924   1.684   1.653   8.625 -0.4385 -0.6792 -1.9927
 4763TIP3    H235925   1.692   1.511   8.676  0.6810 -1.0344 -3.0786
 4764TIP3   OH235926   2.818   4.371   8.203 -0.1690  0.3138 -0.1038
 4764TIP3    H135927   2.877   4.310   8.246  1.4311  1.6739 -0.2348
 4764TIP3    H235928   2.818   4.344   8.111 -0.1151  0.0433 -0.0250
 4765TIP3   OH235929   2.947   1.806   1.017 -0.2055 -0.5502  1.0026
 4765TIP3    H135930   2.881   1.751   0.975 -0.0531 -1.0707  1.4347
 4765TIP3    H235931   2.899   1.883   1.046  0.0946  1.0032 -2.2349
 4766TIP3   OH235932   0.313   5.170   1.204 -0.1445 -0.3885 -0.3915
 4766TIP3    H135933   0.220   5.187   1.185  0.0451 -0.7392 -1.7912
 4766TIP3    H235934   0.354   5.166   1.117  1.5113  1.4875  0.2300
 4767TIP3   OH235935   1.534   4.765   8.243 -0.4302 -0.2434  0.2651
 4767TIP3    H135936   1.553   4.804   8.328 -0.7629 -1.1469  0.7692
 4767TIP3    H235937   1.493   4.681   8.264  0.9995 -1.2462 -0.7721
 4768TIP3   OH235938   3.938   4.879   0.914  0.0563  0.4795  0.3922
 4768TIP3    H135939   3.878   4.928   0.859  0.4201  0.0934 -0.3634
 4768TIP3    H235940   3.886   4.856   0.992 -0.3626  1.2979  0.3594
 4769TIP3   OH235941   6.359   4.664   1.470  0.7055 -0.0875  0.2664
 4769TIP3    H135942   6.404   4.684   1.552  0.4631 -2.2416  0.9893
 4769TIP3    H235943   6.423   4.685   1.402  1.7255 -0.3021  1.1295
 4770TIP3   OH235944   5.061   0.434   2.441  0.5678  0.5690  0.2777
 4770TIP3    H135945   5.074   0.347   2.404 -1.2649  0.4695 -0.2224
 4770TIP3    H235946   5.087   0.426   2.532 -0.5953 -0.8052  0.5150
 4771TIP3   OH235947   4.528   0.185   7.127  0.1125  0.0498  0.2479
 4771TIP3    H135948   4.551   0.194   7.034  0.5513  0.2452  0.3714
 4771TIP3    H235949   4.606   0.147   7.167 -0.2139 -0.3798  0.4732
 4772TIP3   OH235950   1.420   3.620   8.102 -0.4160 -0.4027  0.1426
 4772TIP3    H135951   1.440   3.713   8.115 -0.5624 -0.4170  0.4960
 4772TIP3    H235952   1.370   3.617   8.020 -0.4318 -0.1654  0.1424
 4773TIP3   OH235953   2.437   6.513   8.567 -0.7574  0.2273  0.9052
 4773TIP3    H135954   2.388   6.485   8.644  0.2095 -0.8448  1.1707
 4773TIP3    H235955   2.472   6.599   8.590 -0.7690  0.0703  1.5305
 4774TIP3   OH235956   6.433   2.771   7.263 -0.7548 -0.9241 -0.8703
 4774TIP3    H135957   6.343   2.805   7.257 -0.4191 -0.2170 -2.3806
 4774TIP3    H235958   6.488   2.849   7.270 -0.2335 -1.3428 -0.2050
 4775TIP3   OH235959   5.949   4.102   6.992  0.5237 -0.3429 -0.0183
 4775TIP3    H135960   5.900   4.109   6.911  2.0149 -0.0370 -0.9431
 4775TIP3    H235961   5.930   4.014   7.025 -0.9571 -0.0680 -0.1062
 4776TIP3   OH235962   3.388   6.487   1.386  0.0089 -0.6848  0.0851
 4776TIP3    H135963   3.391   6.519   1.296 -1.3672 -2.1834 -0.5331
 4776TIP3    H235964   3.296   6.463   1.400  0.5494 -2.1897  1.2656
 4777TIP3   OH235965   3.409   0.038   0.184  0.3813  0.7231 -0.7529
 4777TIP3    H135966   3.355  -0.036   0.157 -0.3574  1.4203 -1.2565
 4777TIP3    H235967   3.364   0.074   0.261 -0.1542  1.5848 -1.4476
 4778TIP3   OH235968   5.178   4.103   1.904 -0.3206  0.6084  0.4681
 4778TIP3    H135969   5.134   4.026   1.938 -0.6211  0.0042 -1.1754
 4778TIP3    H235970   5.271   4.082   1.910 -0.3383  0.7262  1.3306
 4779TIP3   OH235971   3.982   2.678   7.260  0.0528 -0.1326  0.5171
 4779TIP3    H135972   3.906   2.695   7.315 -1.0748 -2.0369 -0.3232
 4779TIP3    H235973   3.975   2.741   7.188 -2.2776 -1.8441 -0.9138
 4780TIP3   OH235974   6.524   4.751   1.687  0.3055  0.1001  0.5932
 4780TIP3    H135975   6.548   4.840   1.663 -1.1096  0.3183 -0.1401
 4780TIP3    H235976   6.479   4.760   1.771  0.5918  0.0039  0.7592
 4781TIP3   OH235977   4.042   5.153   8.037 -0.3619 -0.2626 -0.1176
 4781TIP3    H135978   4.048   5.247   8.054 -0.5347 -0.0459 -1.1408
 4781TIP3    H235979   4.067   5.111   8.119 -1.5774  0.6723  0.7612
 4782TIP3   OH235980   2.074   2.747   0.959 -0.4776 -0.6030  0.1373
 4782TIP3    H135981   2.041   2.700   1.036 -0.1558 -1.5152 -0.2688
 4782TIP3    H235982   2.022   2.827   0.956 -1.4619 -1.2125  0.5021
 4783TIP3   OH235983   4.061   3.228   7.535  0.2580  0.1988 -0.5012
 4783TIP3    H135984   4.130   3.170   7.504 -0.9710 -1.6374  0.0698
 4783TIP3    H235985   4.059   3.215   7.630  1.1502  2.5788 -0.0767
 4784TIP3   OH235986   5.583   2.898   0.466  0.0271  0.1158 -0.1526
 4784TIP3    H135987   5.525   2.953   0.413  0.4465  0.0766 -0.6616
 4784TIP3    H235988   5.611   2.954   0.538  0.1818  0.4637 -0.4809
 4785TIP3   OH235989   1.146   6.729   1.134  0.3949 -0.4562 -0.2034
 4785TIP3    H135990   1.083   6.719   1.205 -0.4598  2.1536 -0.5151
 4785TIP3    H235991   1.093   6.729   1.055  0.6079  2.2583 -0.4434
 4786TIP3   OH235992   4.142   2.291   7.518 -0.0648  0.0103  0.5265
 4786TIP3    H135993   4.155   2.197   7.530  0.6834 -0.0153 -0.3883
 4786TIP3    H235994   4.089   2.298   7.438  0.0217  0.3753  0.5007
 4787TIP3   OH235995   0.726   3.350   8.140 -0.0991 -0.1764  0.3976
 4787TIP3    H135996   0.705   3.258   8.155  0.1352 -0.9386 -3.1694
 4787TIP3    H235997   0.819   3.351   8.120  0.0890  1.0171  1.1779
 4788TIP3   OH235998   5.316   2.882   6.364 -0.5448 -0.4061  0.1705
 4788TIP3    H135999   5.324   2.877   6.459  0.6154  2.9793  0.3817
 4788TIP3    H236000   5.403   2.910   6.334 -0.8116 -1.6413 -1.9592
 4789TIP3   OH236001   0.660   1.698   7.534  1.1573 -0.1548  0.0312
 4789TIP3    H136002   0.610   1.726   7.458  0.8706  0.6965  0.5203
 4789TIP3    H236003   0.606   1.724   7.609  3.3993  3.2616  0.7164
 4790TIP3   OH236004   3.562   0.642   1.124  0.1600  0.3905 -0.0294
 4790TIP3    H136005   3.511   0.669   1.201 -1.4967 -0.5818 -0.7345
 4790TIP3    H236006   3.622   0.575   1.157 -1.2025 -0.7222  0.2952
 4791TIP3   OH236007   4.200   5.433   0.781  0.4630 -0.5580  0.2156
 4791TIP3    H136008   4.119   5.461   0.824 -0.2921 -3.0530  0.6002
 4791TIP3    H236009   4.176   5.422   0.689  1.1327  1.3135 -0.2191
 4792TIP3   OH236010   1.723   3.907   8.194 -0.2631  0.2019  0.0604
 4792TIP3    H136011   1.682   3.957   8.265 -1.7819 -0.7635 -0.0949
 4792TIP3    H236012   1.677   3.823   8.193  0.2499 -0.1066 -1.5748
 4793TIP3   OH236013   5.417   5.454   1.516 -0.5953 -0.2841 -0.1289
 4793TIP3    H136014   5.506   5.429   1.490  0.1201  1.6471  0.2376
 4793TIP3    H236015   5.427   5.543   1.549 -2.5078 -0.4160  0.9331
 4794TIP3   OH236016   6.097   4.364   1.210 -0.4612 -0.5941 -0.3814
 4794TIP3    H136017   6.190   4.353   1.227 -0.4717 -1.3462 -0.7629
 4794TIP3    H236018   6.065   4.420   1.281 -0.1216 -1.9966  0.9255
 4795TIP3   OH236019   2.980   1.835   7.696  0.0205  0.0928  0.5241
 4795TIP3    H136020   3.022   1.776   7.760 -0.6366 -0.0129  0.8657
 4795TIP3    H236021   2.901   1.788   7.669  0.0416  0.3577 -0.0032
 4796TIP3   OH236022   2.528   5.740   1.986 -0.0785 -0.2244 -0.4843
 4796TIP3    H136023   2.614   5.709   1.957 -0.3626 -1.4770 -0.0302
 4796TIP3    H236024   2.465   5.687   1.937 -0.6580  1.6879 -1.9486
 4797TIP3   OH236025   0.209   6.566   0.233 -0.1613 -0.2894  0.3591
 4797TIP3    H136026   0.211   6.536   0.142  1.7065  2.1070 -0.5134
 4797TIP3    H236027   0.174   6.492   0.282  0.5002 -2.3426 -2.0501
 4798TIP3   OH236028   3.718   6.766   0.195  0.1510  0.3110 -0.4930
 4798TIP3    H136029   3.623   6.775   0.187  0.2240  1.3381 -0.4256
 4798TIP3    H236030   3.739   6.683   0.153 -0.8852 -0.3919  0.3668
 4799TIP3   OH236031   6.559   1.160   8.249 -0.2095 -0.0639 -0.3312
 4799TIP3    H136032   6.567   1.105   8.327  0.4822  0.4739 -0.0082
 4799TIP3    H236033   6.575   1.101   8.176  1.0957 -0.1925  0.0377
 4800TIP3   OH236034   2.571   5.630   8.280  0.1450 -0.5174  0.0198
 4800TIP3    H136035   2.576   5.561   8.345 -0.4491  0.2165  0.8718
 4800TIP3    H236036   2.569   5.585   8.196  0.6832 -1.4859  0.5141
 4801TIP3   OH236037   3.033   5.172   8.612  0.1953 -0.1963  0.0740
 4801TIP3    H136038   3.047   5.080   8.587  0.3095  0.3565 -2.1710
 4801TIP3    H236039   3.080   5.222   8.545  0.2850  1.5216  1.3506
 4802TIP3   OH236040   1.307   3.740   1.802  0.0729  0.0559  0.3014
 4802TIP3    H136041   1.317   3.815   1.744 -2.0585  0.2121  0.0636
 4802TIP3    H236042   1.213   3.724   1.804  0.4288 -2.3427  0.6917
 4803TIP3   OH236043   0.424   4.137   7.569  0.2739  0.1918 -0.2371
 4803TIP3    H136044   0.499   4.183   7.531 -0.5840  1.2659 -0.6893
 4803TIP3    H236045   0.349   4.192   7.548 -0.5952 -0.6346  0.5896
 4804TIP3   OH236046   5.092   3.184   7.064  0.2067  0.0309  0.3333
 4804TIP3    H136047   5.111   3.090   7.061 -0.5804 -0.1058 -1.7039
 4804TIP3    H236048   5.082   3.210   6.973  0.0921  2.0486  0.8715
 4805TIP3   OH236049   4.373   5.802   0.082 -0.4270  0.6724 -0.1989
 4805TIP3    H136050   4.376   5.708   0.100 -1.2823  0.7305  0.2631
 4805TIP3    H236051   4.457   5.820   0.038  0.2993 -0.0644  0.8386
 4806TIP3   OH236052   6.511   0.373   2.448  0.1557 -1.0089 -0.0365
 4806TIP3    H136053   6.532   0.306   2.514  1.2341 -0.0438  0.6499
 4806TIP3    H236054   6.570   0.353   2.375  2.0557  0.3970  1.0191
 4807TIP3   OH236055   2.722   2.198   7.646  0.1156 -0.5423 -0.3647
 4807TIP3    H136056   2.653   2.132   7.641 -0.2711 -0.1628 -0.1311
 4807TIP3    H236057   2.793   2.156   7.695 -0.1189 -0.7898 -0.2367
 4808TIP3   OH236058   4.256   4.989   1.906  0.0744 -0.1854 -0.6722
 4808TIP3    H136059   4.314   5.038   1.965 -1.1581  2.0890 -1.2410
 4808TIP3    H236060   4.192   4.948   1.964  0.3267  0.0051 -0.2523
 4809TIP3   OH236061   0.988   0.288   1.292 -0.4709 -0.5874  0.6527
 4809TIP3    H136062   0.913   0.263   1.238  0.7086 -0.4472 -1.1152
 4809TIP3    H236063   1.009   0.377   1.263  2.1845 -1.6690 -1.0407
 4810TIP3   OH236064   1.999   5.773   8.683  0.7022 -0.6532  0.3524
 4810TIP3    H136065   1.937   5.829   8.729  1.7316  1.9902 -1.2249
 4810TIP3    H236066   2.046   5.726   8.752  0.3639  1.1267  1.8465
 4811TIP3   OH236067   6.498   6.201   8.789 -0.2500  0.5951  0.0310
 4811TIP3    H136068   6.471   6.118   8.750  0.0651  0.2025  0.6376
 4811TIP3    H236069   6.577   6.225   8.741 -0.2003  0.4190  0.0237
 4812TIP3   OH236070   4.254   5.881   7.504  0.4160 -0.2454  0.2113
 4812TIP3    H136071   4.335   5.875   7.454  0.2434  0.7948 -0.2231
 4812TIP3    H236072   4.277   5.936   7.579 -0.0730  0.7448 -0.3432
 4813TIP3   OH236073   6.472   2.284   0.847 -0.1126 -0.9506  0.1347
 4813TIP3    H136074   6.480   2.196   0.885  1.3616 -0.4774  0.9988
 4813TIP3    H236075   6.406   2.327   0.900  0.5506 -0.9249  0.9519
 4814TIP3   OH236076   1.881   4.027   7.668  0.5276  0.1125  0.0131
 4814TIP3    H136077   1.917   4.082   7.738  0.4933  0.7403 -0.4606
 4814TIP3    H236078   1.958   3.995   7.621  0.5773 -0.7550  0.6616
 4815TIP3   OH236079   3.817   2.867   6.642 -0.1477  0.4815  0.4767
 4815TIP3    H136080   3.783   2.811   6.712  0.0735  0.2058  0.3640
 4815TIP3    H236081   3.911   2.849   6.640 -0.1503  0.5050  0.1239
 4816TIP3   OH236082   3.017   4.690   1.327  0.3920 -0.1352 -0.2733
 4816TIP3    H136083   3.110   4.684   1.308  0.5489  1.4610 -0.1342
 4816TIP3    H236084   2.994   4.604   1.362  1.5651 -0.8968 -1.2811
 4817TIP3   OH236085   2.650   6.505   6.948  0.2336 -0.1599 -0.4680
 4817TIP3    H136086   2.581   6.507   6.882  0.7222 -0.0767 -0.9810
 4817TIP3    H236087   2.653   6.413   6.977 -0.3862 -0.0759 -0.1236
 4818TIP3   OH236088   3.531   6.467   7.893  0.2582  0.1186  0.3597
 4818TIP3    H136089   3.485   6.549   7.876 -1.3449 -0.5233  1.3667
 4818TIP3    H236090   3.554   6.471   7.986  1.6426  0.1195  0.0321
 4819TIP3   OH236091   6.431   3.924   7.216 -0.1556  0.3853  0.2158
 4819TIP3    H136092   6.442   3.994   7.280 -0.4532 -0.1700  0.8903
 4819TIP3    H236093   6.338   3.901   7.221 -0.1861  0.3464 -0.4330
 4820TIP3   OH236094   1.663   0.604   0.160  0.4553  0.2776  0.2501
 4820TIP3    H136095   1.687   0.601   0.068 -2.3281 -0.9100 -0.5341
 4820TIP3    H236096   1.695   0.522   0.196  0.1987  0.0508 -0.0360
 4821TIP3   OH236097   4.497   3.437   2.040  0.5799 -0.5143 -0.0948
 4821TIP3    H136098   4.575   3.490   2.023  1.1940 -0.3033  2.8594
 4821TIP3    H236099   4.428   3.501   2.057  0.9571 -0.5808  1.9500
 4822TIP3   OH236100   0.004   1.397   0.266  0.0027 -0.1133  0.2057
 4822TIP3    H136101   0.049   1.378   0.349  1.2755 -0.2648 -0.4942
 4822TIP3    H236102   0.057   1.465   0.225  0.5340 -1.4218 -1.3717
 4823TIP3   OH236103   6.187   2.289   8.718  0.3709  0.0118  0.0880
 4823TIP3    H136104   6.210   2.377   8.689  0.2899 -0.6389 -2.2130
 4823TIP3    H236105   6.092   2.284   8.705 -0.0953  0.4273  2.8532
 4824TIP3   OH236106   4.706   1.485   0.227 -0.6901  0.5303  0.0000
 4824TIP3    H136107   4.709   1.511   0.319 -1.1141 -0.5335  0.3244
 4824TIP3    H236108   4.655   1.554   0.184 -0.9051  0.7771  0.6460
 4825TIP3   OH236109   5.932   5.418   6.658  0.3055  0.3474  0.3657
 4825TIP3    H136110   5.966   5.505   6.680  1.7785 -0.7612  3.0032
 4825TIP3    H236111   5.890   5.388   6.738 -0.1896 -1.3769 -0.4920
 4826TIP3   OH236112   0.316   0.129   2.361 -0.1510 -0.4482  0.1958
 4826TIP3    H136113   0.375   0.203   2.372 -0.3306 -0.1981 -0.4873
 4826TIP3    H236114   0.241   0.149   2.418  0.2276 -0.5686  0.7436
 4827TIP3   OH236115   5.676   4.353   0.026  0.1290 -0.1087 -0.6951
 4827TIP3    H136116   5.610   4.288   0.004 -0.5747  0.3507  0.0105
 4827TIP3    H236117   5.756   4.302   0.043 -0.9991 -1.1093  2.4055
 4828TIP3   OH236118   1.850   1.428   6.442 -0.6361  0.2294  0.2997
 4828TIP3    H136119   1.804   1.385   6.514 -0.1978 -0.1834  0.3319
 4828TIP3    H236120   1.795   1.411   6.365 -1.0718  0.6172  0.5171
 4829TIP3   OH236121   4.610   0.360   7.764  0.1941 -0.6541  0.3091
 4829TIP3    H136122   4.661   0.301   7.819 -0.8859  0.1143  2.2123
 4829TIP3    H236123   4.534   0.383   7.816 -1.1174 -0.1908 -1.6867
 4830TIP3   OH236124   5.564   1.363   7.627 -0.0549  0.2821 -0.1317
 4830TIP3    H136125   5.567   1.413   7.545 -1.2976 -0.4298 -0.6493
 4830TIP3    H236126   5.636   1.397   7.679  0.5789  0.9624 -1.4083
 4831TIP3   OH236127   6.036   3.042   7.849 -0.0214  0.0946 -0.2996
 4831TIP3    H136128   6.064   3.061   7.939 -0.2386 -0.2080 -0.1664
 4831TIP3    H236129   6.078   2.958   7.828 -0.2428 -0.0044 -0.3564
 4832TIP3   OH236130   1.124   6.727   7.437 -0.2067 -0.1774 -0.0314
 4832TIP3    H136131   1.178   6.805   7.420  0.6563 -0.6865  0.3250
 4832TIP3    H236132   1.092   6.738   7.526 -2.5608  1.2030 -0.9635
 4833TIP3   OH236133   4.362   1.682   7.951  0.0223  0.6054 -0.0231
 4833TIP3    H136134   4.392   1.591   7.949 -0.4193  0.4011  1.3521
 4833TIP3    H236135   4.434   1.730   7.992 -0.8199  0.3772  1.8268
 4834TIP3   OH236136   6.496   1.566   7.644 -0.1743 -0.4217  0.3578
 4834TIP3    H136137   6.545   1.635   7.688  1.1422 -0.5326 -0.8493
 4834TIP3    H236138   6.517   1.577   7.551  0.3903 -2.6546  0.1600
 4835TIP3   OH236139   3.022   4.172   7.165  0.3063  0.2593 -0.5529
 4835TIP3    H136140   3.089   4.112   7.198  0.8686  0.1824 -1.7590
 4835TIP3    H236141   3.066   4.257   7.162 -0.3324  0.6558  0.6718
 4836TIP3   OH236142   0.314   3.392   0.417 -0.1849  0.1207  0.0183
 4836TIP3    H136143   0.270   3.473   0.444 -0.4212  0.0107 -0.0281
 4836TIP3    H236144   0.349   3.356   0.498 -2.1443 -0.9550  0.4612
 4837TIP3   OH236145   2.060   5.171   1.378 -0.3160 -0.0524 -0.3073
 4837TIP3    H136146   2.121   5.245   1.376  0.7685 -0.8934  0.5934
 4837TIP3    H236147   2.050   5.151   1.471  0.9241 -2.2392 -0.5743
 4838TIP3   OH236148   2.515   1.409   1.259 -0.4621  0.5411  0.0788
 4838TIP3    H136149   2.439   1.371   1.214 -1.0916 -0.2073  1.7013
 4838TIP3    H236150   2.568   1.333   1.284  1.1658  1.0751 -1.5167
 4839TIP3   OH236151   3.378   2.639   8.717 -0.3295  0.8501  0.3605
 4839TIP3    H136152   3.308   2.623   8.780 -1.0867  1.7554 -0.2235
 4839TIP3    H236153   3.399   2.732   8.728 -0.5429  1.0437 -0.7720
 4840TIP3   OH236154   6.688   6.510   7.339 -0.4365  0.2735 -0.1471
 4840TIP3    H136155   6.645   6.591   7.309 -1.2901 -0.1663 -0.1237
 4840TIP3    H236156   6.750   6.540   7.405  0.0326  1.0337 -0.9104
 4841TIP3   OH236157   1.381   0.503   6.231  0.1880  0.5061  0.3980
 4841TIP3    H136158   1.323   0.451   6.175  1.4220  0.6836 -1.1289
 4841TIP3    H236159   1.345   0.494   6.319 -0.8932 -1.1250 -0.1712
 4842TIP3   OH236160   6.252   1.444   7.579  0.0524 -0.4634  0.0870
 4842TIP3    H136161   6.236   1.402   7.494 -0.0886  0.4837 -0.3679
 4842TIP3    H236162   6.342   1.475   7.573 -0.3137  0.5808 -0.1562
 4843TIP3   OH236163   6.617   0.039   1.228  0.0718 -0.4340 -0.3102
 4843TIP3    H136164   6.526   0.014   1.210 -0.1677 -0.9805  1.4380
 4843TIP3    H236165   6.668  -0.037   1.202 -0.0313 -0.3450 -0.7738
 4844TIP3   OH236166   0.568   0.150   7.248 -0.6317 -0.6300  0.2643
 4844TIP3    H136167   0.628   0.096   7.298  1.6600  1.7871  0.3676
 4844TIP3    H236168   0.491   0.160   7.304 -0.1697 -1.9188  1.1450
 4845TIP3   OH236169   2.592   0.138   6.374  0.5817  1.2201  0.6463
 4845TIP3    H136170   2.619   0.110   6.461 -1.2511  0.7324  1.0987
 4845TIP3    H236171   2.498   0.119   6.370  1.2060 -2.7963 -2.9049
 4846TIP3   OH236172   2.913   3.809   8.605 -0.1086  0.1479 -0.6608
 4846TIP3    H136173   2.894   3.752   8.530  0.2664  0.3678 -0.9269
 4846TIP3    H236174   2.890   3.897   8.574  0.3563  0.2823 -0.6324
 4847TIP3   OH236175   4.647   2.061   1.397 -0.1216  0.1886  0.1981
 4847TIP3    H136176   4.602   2.070   1.482 -1.1957  0.6420 -0.4060
 4847TIP3    H236177   4.630   2.143   1.352  0.2669 -0.1337 -0.5458
 4848TIP3   OH236178   4.684   6.376   7.650 -0.0512 -0.2182  0.5175
 4848TIP3    H136179   4.638   6.422   7.720  1.1230 -1.0952  1.9154
 4848TIP3    H236180   4.758   6.434   7.628 -0.3386 -0.0099  0.0832
 4849TIP3   OH236181   0.485   3.125   1.295  0.2928 -0.4693 -0.6444
 4849TIP3    H136182   0.560   3.156   1.345  0.8027  0.6728 -2.0463
 4849TIP3    H236183   0.446   3.204   1.259 -0.7993 -1.1619 -1.0276
 4850TIP3   OH236184   5.075   5.021   1.562  0.5098 -0.3237  0.2907
 4850TIP3    H136185   5.131   5.093   1.532  0.6509 -0.0863  1.0947
 4850TIP3    H236186   5.119   4.989   1.641  0.0353 -0.7931  0.3640
 4851TIP3   OH236187   2.792   4.079   1.140  0.0144  0.4621 -0.1616
 4851TIP3    H136188   2.803   3.984   1.142  0.5952  0.5168 -0.5262
 4851TIP3    H236189   2.752   4.096   1.055 -0.4325  0.5143  0.0561
 4852TIP3   OH236190   2.750   0.287   7.378  0.7435  0.7215 -0.6974
 4852TIP3    H136191   2.845   0.295   7.380  0.9178 -0.9762  0.9934
 4852TIP3    H236192   2.734   0.193   7.368 -0.7061  0.7338  1.0149
 4853TIP3   OH236193   0.519   3.871   7.688  0.0358  0.2704  0.5973
 4853TIP3    H136194   0.490   3.930   7.619 -1.6807 -1.3766 -0.1629
 4853TIP3    H236195   0.530   3.786   7.645 -1.7897 -0.9762  2.3970
 4854TIP3   OH236196   2.763   1.499   7.328 -0.0516  0.3250 -0.2249
 4854TIP3    H136197   2.805   1.428   7.377  0.3164  0.2724 -0.6105
 4854TIP3    H236198   2.678   1.510   7.370 -0.5733 -1.0896 -0.8430
 4855TIP3   OH236199   3.649   5.443   0.550  0.7614  0.2890  0.1967
 4855TIP3    H136200   3.583   5.404   0.493  2.2497 -2.3675  0.1731
 4855TIP3    H236201   3.598   5.498   0.610 -1.1311  0.7602 -1.6989
 4856TIP3   OH236202   0.226   2.447   1.160  0.6648 -0.1358  0.4885
 4856TIP3    H136203   0.193   2.500   1.088  0.7061 -0.0441  0.5358
 4856TIP3    H236204   0.286   2.505   1.207  1.3685 -0.4981  0.0451
 4857TIP3   OH236205   5.508   6.770   0.066  0.2858  0.1460  0.1183
 4857TIP3    H136206   5.602   6.772   0.084  0.3092  0.6707 -0.0254
 4857TIP3    H236207   5.502   6.740  -0.025  0.3046 -0.1000  0.1993
 4858TIP3   OH236208   3.000   4.603   1.676  0.4404 -0.1012 -0.5941
 4858TIP3    H136209   2.989   4.512   1.648 -0.1114 -0.0566 -0.5182
 4858TIP3    H236210   2.913   4.641   1.671  0.2554 -0.1517  1.4363
 4859TIP3   OH236211   2.407   2.270   7.460 -0.3304  0.8057  0.0506
 4859TIP3    H136212   2.432   2.208   7.392 -0.8838  1.1958 -0.5114
 4859TIP3    H236213   2.485   2.326   7.471  0.3671 -0.3037  0.9447
 4860TIP3   OH236214   6.025   3.646   6.192 -0.4426 -0.6969 -0.7185
 4860TIP3    H136215   6.065   3.719   6.239  1.4881 -1.5503 -0.9227
 4860TIP3    H236216   5.992   3.685   6.111  0.9359 -0.0960 -1.0214
 4861TIP3   OH236217   2.685   2.183   7.304 -0.3634  0.1786 -0.2030
 4861TIP3    H136218   2.760   2.242   7.309 -1.6198  1.8534 -0.2543
 4861TIP3    H236219   2.718   2.100   7.337  2.1165  0.2142 -2.3150
 4862TIP3   OH236220   4.843   4.028   0.925  0.9251  0.3009 -0.1005
 4862TIP3    H136221   4.751   4.050   0.942  0.6733 -0.7717  0.0253
 4862TIP3    H236222   4.880   4.106   0.884  0.2107  1.1033  0.7373
 4863TIP3   OH236223   5.347   0.166   1.278  0.2941 -0.2051  0.3000
 4863TIP3    H136224   5.360   0.163   1.183  0.8058 -2.2916  0.3767
 4863TIP3    H236225   5.281   0.234   1.291 -0.2128 -0.2685 -1.6061
 4864TIP3   OH236226   0.700   0.360   1.809  0.3211 -0.7983 -0.0041
 4864TIP3    H136227   0.781   0.375   1.858 -0.2295  0.5406  0.5390
 4864TIP3    H236228   0.730   0.346   1.719  1.0938  1.9307 -0.2713
 4865TIP3   OH236229   1.448   6.001   6.796 -0.2231  0.5552 -0.0848
 4865TIP3    H136230   1.395   6.002   6.716 -0.5057  2.3443  0.0801
 4865TIP3    H236231   1.539   6.000   6.764 -0.3331 -0.3999 -0.3912
 4866TIP3   OH236232   0.852   3.134   7.146  0.0378 -0.3077  0.5527
 4866TIP3    H136233   0.786   3.184   7.097 -0.2010  0.8698  1.9846
 4866TIP3    H236234   0.931   3.141   7.094 -0.2882  0.6247  0.1565
 4867TIP3   OH236235   4.020   5.620   7.885 -0.3737  0.0860  0.3287
 4867TIP3    H136236   4.003   5.588   7.797  0.4297  0.3823  0.0535
 4867TIP3    H236237   3.995   5.548   7.943 -0.6736 -0.1986 -0.1496
 4868TIP3   OH236238   0.131   5.363   8.754  0.7127  0.0237 -0.1879
 4868TIP3    H136239   0.209   5.417   8.765 -0.1794  1.2506  0.4083
 4868TIP3    H236240   0.163   5.281   8.717  2.0469  1.2164 -1.8485
 4869TIP3   OH236241   4.792   4.446   0.632 -0.0557  0.1379  0.5950
 4869TIP3    H136242   4.770   4.441   0.726 -1.3270 -0.3275  0.2918
 4869TIP3    H236243   4.805   4.355   0.606 -0.4102  0.2048  0.1688
 4870TIP3   OH236244   4.298   0.601   1.396 -0.1614 -0.3910 -0.2660
 4870TIP3    H136245   4.373   0.554   1.431  1.3805  1.0752 -1.4138
 4870TIP3    H236246   4.261   0.647   1.472  0.6280 -0.4516  0.1679
 4871TIP3   OH236247   6.738   1.693   1.356  0.4104  0.2455 -0.1195
 4871TIP3    H136248   6.823   1.650   1.343 -0.3417 -1.1413 -0.6232
 4871TIP3    H236249   6.722   1.738   1.274  1.4435  2.0071  0.5918
 4872TIP3   OH236250   5.182   2.665   1.606  0.4824  0.1513 -0.5606
 4872TIP3    H136251   5.249   2.605   1.639  1.3226  0.5692 -1.4169
 4872TIP3    H236252   5.115   2.667   1.674  0.3521 -1.8500 -0.5718
 4873TIP3   OH236253   3.410   5.808   0.508  0.2887  0.7721 -0.0710
 4873TIP3    H136254   3.448   5.829   0.593  1.3612  0.4136 -0.4479
 4873TIP3    H236255   3.357   5.730   0.524  1.4077  0.0161  0.0635
 4874TIP3   OH236256   5.689   1.841   1.493  0.3263  0.1350  0.7317
 4874TIP3    H136257   5.777   1.821   1.462  1.2299  2.7923  1.2942
 4874TIP3    H236258   5.654   1.757   1.521  1.9133 -1.3177 -1.3028
 4875TIP3   OH236259   3.182   3.369   6.057 -0.7838 -0.2982  0.1521
 4875TIP3    H136260   3.259   3.368   6.114 -1.7526  2.6084  1.6792
 4875TIP3    H236261   3.109   3.388   6.115 -2.6798 -2.3482 -1.3493
 4876TIP3   OH236262   4.986   2.794   8.150 -0.7555  0.8038 -0.1288
 4876TIP3    H136263   4.934   2.874   8.140 -2.8588 -0.7550 -2.7320
 4876TIP3    H236264   4.962   2.740   8.076  2.3524 -1.3608  0.2524
 4877TIP3   OH236265   3.275   5.546   8.469 -0.1241  0.3548 -0.6543
 4877TIP3    H136266   3.366   5.547   8.438 -0.0406  1.9445 -0.4369
 4877TIP3    H236267   3.236   5.469   8.427  1.3192 -0.3713 -0.7252
 4878TIP3   OH236268   5.217   0.231   7.765 -0.3489 -0.2820  0.3481
 4878TIP3    H136269   5.243   0.316   7.800 -0.4183 -0.5469  1.0725
 4878TIP3    H236270   5.150   0.200   7.826 -3.8372  1.1891 -2.4265
 4879TIP3   OH236271   6.093   6.340   8.510  0.3256  0.1687  0.2918
 4879TIP3    H136272   6.025   6.304   8.567  1.4172 -1.9562  0.3790
 4879TIP3    H236273   6.117   6.423   8.551  0.1737 -0.6787  2.2244
 4880TIP3   OH236274   4.696   1.337   7.891  0.1934 -0.1097 -0.6512
 4880TIP3    H136275   4.710   1.245   7.871  1.1793 -0.8031  2.6709
 4880TIP3    H236276   4.780   1.367   7.927 -0.3792  1.8498 -0.7905
 4881TIP3   OH236277   1.292   6.193   8.697  0.0324  0.0300  0.7067
 4881TIP3    H136278   1.268   6.129   8.764  1.3230  0.4029  1.5562
 4881TIP3    H236279   1.262   6.277   8.733 -0.9373  0.0314 -0.0464
 4882TIP3   OH236280   4.866   0.201   8.213 -0.1627 -0.2916 -0.1031
 4882TIP3    H136281   4.865   0.115   8.255 -1.4570  0.9744  2.7080
 4882TIP3    H236282   4.900   0.260   8.281 -1.7168  1.7996 -1.0401
 4883TIP3   OH236283   2.414   4.212   8.649 -0.0425  0.2184  0.0064
 4883TIP3    H136284   2.380   4.123   8.644  1.4192 -0.3498 -0.2220
 4883TIP3    H236285   2.344   4.267   8.612 -0.6044 -0.9209 -0.6674
 4884TIP3   OH236286   1.902   6.082   8.823 -0.1298  0.1490 -0.0262
 4884TIP3    H136287   1.963   6.069   8.750 -2.7537  0.8838 -2.5314
 4884TIP3    H236288   1.839   6.146   8.790 -1.8053  0.0503  2.7131
 4885TIP3   OH236289   3.493   5.980   8.192 -0.0448  0.6029 -0.1605
 4885TIP3    H136290   3.497   6.060   8.139 -1.5994 -1.0109 -2.9784
 4885TIP3    H236291   3.545   5.917   8.143  0.1062 -0.4827  1.3430
 4886TIP3   OH236292   4.067   2.930   7.379  0.5057  0.3783 -0.1668
 4886TIP3    H136293   4.096   2.885   7.459 -0.2015  0.5900  0.2229
 4886TIP3    H236294   4.107   2.881   7.308  0.8564 -0.0392  0.3092
 4887TIP3   OH236295   4.636   0.839   6.729  0.4473 -0.3413  0.6009
 4887TIP3    H136296   4.724   0.865   6.700  0.2371  3.9667  2.9313
 4887TIP3    H236297   4.579   0.863   6.657  0.9147 -0.8243  0.0549
 4888TIP3   OH236298   6.798   5.585   6.131  0.2668  0.0744 -0.1948
 4888TIP3    H136299   6.713   5.543   6.145  0.6418 -0.8628 -0.6823
 4888TIP3    H236300   6.805   5.648   6.202 -0.9478  0.3424 -0.2857
 4889TIP3   OH236301   5.368   6.233   7.145 -1.2078 -0.1634  0.4273
 4889TIP3    H136302   5.336   6.144   7.131 -0.2975 -0.1476 -2.8063
 4889TIP3    H236303   5.290   6.288   7.141 -1.5403 -0.6592 -0.1809
 4890TIP3   OH236304   2.260   1.847   7.641 -0.3087  0.7047 -0.2139
 4890TIP3    H136305   2.314   1.814   7.713  0.0714 -0.1670 -0.8694
 4890TIP3    H236306   2.174   1.805   7.654 -0.1369  0.2679 -0.4508
 4891TIP3   OH236307   0.105   5.267   7.632  0.3219 -0.7974  0.0343
 4891TIP3    H136308   0.198   5.282   7.648 -0.2804  0.9463  2.5024
 4891TIP3    H236309   0.066   5.265   7.719 -2.1842  0.3587 -0.9708
 4892TIP3   OH236310   3.196   3.169   7.311 -0.0070  0.0973  0.0862
 4892TIP3    H136311   3.131   3.229   7.275 -0.6332 -0.8508 -0.4023
 4892TIP3    H236312   3.145   3.105   7.361  0.4976 -0.8810 -0.6198
 4893TIP3   OH236313   2.014   3.723   6.422  0.0023 -0.2751  0.1842
 4893TIP3    H136314   2.100   3.726   6.465  0.0493  0.8995  0.0507
 4893TIP3    H236315   1.975   3.809   6.441 -0.9612 -0.6322 -0.1334
 4894TIP3   OH236316   6.814   5.162   0.253 -0.5690 -0.6566  0.3597
 4894TIP3    H136317   6.833   5.241   0.202 -0.3349 -1.0483 -0.1570
 4894TIP3    H236318   6.719   5.166   0.267 -0.5075 -0.0850  0.6755
 4895TIP3   OH236319   0.934   1.593   1.504  0.6343  0.5085  0.4684
 4895TIP3    H136320   0.952   1.500   1.489 -0.8505  0.1877  0.5217
 4895TIP3    H236321   0.940   1.632   1.417  2.6625  0.6569  0.6306
 4896TIP3   OH236322   0.450   3.628   1.641 -0.1008 -0.3898 -0.1148
 4896TIP3    H136323   0.367   3.664   1.608 -0.0285 -0.1832 -0.0711
 4896TIP3    H236324   0.428   3.590   1.726 -0.0348  0.1581  0.1461
 4897TIP3   OH236325   3.608   5.700   0.188  0.1532  0.2309 -0.1136
 4897TIP3    H136326   3.548   5.654   0.248  0.7965  0.1550  0.4794
 4897TIP3    H236327   3.661   5.630   0.150 -0.4367  0.2512 -0.9899
 4898TIP3   OH236328   3.472   4.955   0.109 -0.2352 -0.1198 -0.1598
 4898TIP3    H136329   3.485   4.860   0.116  0.5003 -0.1398 -1.5342
 4898TIP3    H236330   3.540   4.984   0.049 -1.6348  0.9867 -1.2771
 4899TIP3   OH236331   2.598   2.964   2.110 -0.0542 -0.0914 -0.2589
 4899TIP3    H136332   2.657   3.038   2.126 -0.5487  0.9838 -2.8426
 4899TIP3    H236333   2.615   2.940   2.018 -1.6505 -1.5969 -0.2035
 4900TIP3   OH236334   6.048   3.060   8.385 -0.4435 -0.1632 -0.1593
 4900TIP3    H136335   5.993   2.983   8.403 -1.4646  0.5896  0.0329
 4900TIP3    H236336   6.052   3.107   8.468 -1.9989  1.3273 -0.8643
 4901TIP3   OH236337   5.557   3.838   2.118  0.4616  0.0825  0.5200
 4901TIP3    H136338   5.644   3.804   2.100  0.9842  1.6939 -0.1412
 4901TIP3    H236339   5.498   3.784   2.066  1.3624  0.7509 -1.2492
 4902TIP3   OH236340   2.543   1.212   1.510  0.2022 -0.2592  0.1984
 4902TIP3    H136341   2.573   1.298   1.539 -0.8473  0.5628 -1.0516
 4902TIP3    H236342   2.600   1.190   1.436 -0.5944  0.1504 -0.5545
 4903TIP3   OH236343   4.942   1.449   7.987 -0.5312  0.0092  0.0168
 4903TIP3    H136344   4.935   1.545   7.992  0.2920  0.1641 -1.2748
 4903TIP3    H236345   4.984   1.424   8.068  0.8791  0.9454 -0.3920
 4904TIP3   OH236346   4.709   6.810   0.167  0.3017  0.2743  0.0541
 4904TIP3    H136347   4.625   6.777   0.198 -0.4917  0.4397 -1.8062
 4904TIP3    H236348   4.774   6.770   0.226 -0.9081 -1.5745  0.2081
 4905TIP3   OH236349   0.928   2.728   7.123 -0.3488 -0.3214  0.0918
 4905TIP3    H136350   0.972   2.697   7.043  0.0390 -1.3243  0.6765
 4905TIP3    H236351   0.978   2.805   7.149  0.0066 -0.4420 -0.2141
 4906TIP3   OH236352   5.416   4.294   8.625  0.9029 -0.3337  0.7487
 4906TIP3    H136353   5.325   4.265   8.636  0.1191  1.0177 -1.5813
 4906TIP3    H236354   5.467   4.213   8.622 -0.0175 -1.1039  3.0544
 4907TIP3   OH236355   2.910   6.219   2.308  0.3480  0.0869 -0.4422
 4907TIP3    H136356   2.848   6.147   2.296 -0.5519  1.1542 -2.7711
 4907TIP3    H236357   2.996   6.180   2.291 -0.0728 -0.5991 -1.0522
 4908TIP3   OH236358   4.630   4.964   1.151 -0.0950  0.8977  0.0311
 4908TIP3    H136359   4.545   4.958   1.194  0.8949 -0.6014  1.9696
 4908TIP3    H236360   4.672   5.039   1.192  0.4265  0.1323  0.9490
 4909TIP3   OH236361   1.254   5.485   1.397  0.2792 -0.5878  0.5277
 4909TIP3    H136362   1.159   5.475   1.408 -0.0383  0.9300 -0.4103
 4909TIP3    H236363   1.279   5.412   1.341 -0.8863  0.5132 -1.5680
 4910TIP3   OH236364   2.927   6.761   0.268 -0.0166  0.0251  0.0961
 4910TIP3    H136365   2.879   6.839   0.241 -0.2423  0.5894  1.9791
 4910TIP3    H236366   2.864   6.690   0.261 -0.5507  0.4351  0.6894
 4911TIP3   OH236367   6.774   3.498   1.886 -0.1363 -0.0209 -0.1638
 4911TIP3    H136368   6.835   3.571   1.894  1.6104 -1.4181 -0.3283
 4911TIP3    H236369   6.693   3.531   1.926  1.1532  1.3463  1.4879
 4912TIP3   OH236370   5.960   6.531   1.427  0.2594 -0.2312  0.7415
 4912TIP3    H136371   6.050   6.528   1.460  0.2464 -1.4390  0.6919
 4912TIP3    H236372   5.912   6.469   1.481 -0.4577  0.0860  0.4856
 4913TIP3   OH236373   5.907   0.596   1.041  0.1307  0.2004 -0.2616
 4913TIP3    H136374   5.959   0.515   1.034  3.3420  2.1234 -0.7497
 4913TIP3    H236375   5.901   0.612   1.135  2.8858  1.2563 -0.1656
 4914TIP3   OH236376   4.111   4.427   7.903 -0.5603 -0.2192  0.1463
 4914TIP3    H136377   4.133   4.512   7.943  1.3386 -0.7512  0.3148
 4914TIP3    H236378   4.085   4.372   7.977  0.1820 -0.3596  0.3141
 4915TIP3   OH236379   3.252   5.540   1.356 -0.5583 -0.2184  0.0595
 4915TIP3    H136380   3.295   5.555   1.440 -1.0356  0.7288  0.1422
 4915TIP3    H236381   3.235   5.445   1.354 -1.7426 -0.0718  1.6266
 4916TIP3   OH236382   0.826   1.434   0.977 -0.1025  0.1088  0.2963
 4916TIP3    H136383   0.778   1.497   1.031  0.6839 -0.4686  1.7319
 4916TIP3    H236384   0.879   1.385   1.039  0.5561 -0.8632 -0.9816
 4917TIP3   OH236385   0.067   2.997   0.338 -0.0454  0.0644 -0.0532
 4917TIP3    H136386   0.142   2.971   0.284 -0.1483 -2.5702  0.9562
 4917TIP3    H236387  -0.007   2.950   0.301 -0.8202  0.9979  0.2619
 4918TIP3   OH236388   6.259   6.278   6.502  0.1248  0.2145  0.0968
 4918TIP3    H136389   6.334   6.227   6.472  0.5783  0.8776  0.0883
 4918TIP3    H236390   6.232   6.234   6.583  2.4574  1.6991  1.8330
 4919TIP3   OH236391   3.605   1.595   8.844  0.1259  0.3693 -0.2113
 4919TIP3    H136392   3.631   1.550   8.764 -0.8309  1.1463 -0.9983
 4919TIP3    H236393   3.525   1.550   8.872  0.1773  0.4185  0.0176
 4920TIP3   OH236394   2.420   0.193   1.028 -1.0041  1.1943 -0.0015
 4920TIP3    H136395   2.514   0.203   1.012 -0.8212  0.4470  0.5401
 4920TIP3    H236396   2.410   0.204   1.123 -1.5912  2.1302 -0.1528
 4921TIP3   OH236397   0.117   6.349   1.029  0.2643 -0.1984  0.3737
 4921TIP3    H136398   0.062   6.397   1.091 -0.0070  0.3365 -0.2726
 4921TIP3    H236399   0.065   6.345   0.949  1.1616  0.3008 -0.2454
 4922TIP3   OH236400   0.336   5.148   6.893  0.0682  0.0560  0.8461
 4922TIP3    H136401   0.396   5.163   6.966 -0.7214  0.4010  1.4455
 4922TIP3    H236402   0.341   5.054   6.878  1.5528  0.2209  0.1639
 4923TIP3   OH236403   2.117   5.522   7.327 -0.0200  0.1603  0.2954
 4923TIP3    H136404   2.028   5.488   7.324 -0.2221  0.6785  0.1999
 4923TIP3    H236405   2.125   5.577   7.249  1.1237 -1.5950 -0.8892
 4924TIP3   OH236406   6.505   0.953   7.827  0.6850  0.3307  0.2226
 4924TIP3    H136407   6.421   0.913   7.809  0.5265  0.0477  1.4742
 4924TIP3    H236408   6.505   1.034   7.776 -1.3985  1.5881  2.0402
 4925TIP3   OH236409   4.680   2.754   8.163  0.3944 -0.2442 -0.0409
 4925TIP3    H136410   4.729   2.745   8.081 -0.1050 -0.1351 -0.3568
 4925TIP3    H236411   4.651   2.665   8.183  1.4502 -0.4576  0.6139
 4926TIP3   OH236412   0.146   0.657   0.182  0.7026  0.0859 -0.3020
 4926TIP3    H136413   0.117   0.588   0.242  1.9189 -0.3983 -0.2437
 4926TIP3    H236414   0.103   0.737   0.215 -1.1659 -0.7015 -0.6982
 4927TIP3   OH236415   5.899   1.745   8.097  0.0688 -0.6719 -0.0301
 4927TIP3    H136416   5.959   1.818   8.085 -1.1492  0.1260 -1.7091
 4927TIP3    H236417   5.866   1.755   8.187  1.8597 -0.7132  0.6594
 4928TIP3   OH236418   3.508   5.244   1.499 -0.2510  0.3761 -0.4114
 4928TIP3    H136419   3.548   5.291   1.427  1.2047 -0.8545 -0.4436
 4928TIP3    H236420   3.559   5.269   1.576 -0.1375 -0.3314 -0.2522
 4929TIP3   OH236421   3.607   4.066   8.870  0.1691  0.2057 -0.2164
 4929TIP3    H136422   3.568   3.978   8.879 -0.5268  0.4812 -0.4423
 4929TIP3    H236423   3.670   4.056   8.799  1.3573 -0.5209  0.8963
 4930TIP3   OH236424   6.069   2.687   8.215  0.2776 -0.5949 -0.2333
 4930TIP3    H136425   5.976   2.682   8.193  0.3603  0.0280 -0.7676
 4930TIP3    H236426   6.071   2.708   8.308 -0.1231 -0.2672 -0.2956
 4931TIP3   OH236427   5.928   3.000   1.799  0.0248 -0.0968  0.5266
 4931TIP3    H136428   6.014   2.996   1.839 -0.0507  2.9078  1.2957
 4931TIP3    H236429   5.885   3.074   1.843 -1.7590  0.5027 -1.9845
 4932TIP3   OH236430   2.571   5.556   8.008 -0.2973 -0.2232 -0.2822
 4932TIP3    H136431   2.539   5.619   7.944  0.3211 -0.4262 -0.8063
 4932TIP3    H236432   2.524   5.475   7.987 -1.8584  0.2996  1.0448
 4933TIP3   OH236433   0.630   1.795   0.249  0.1682  0.5527 -0.2500
 4933TIP3    H136434   0.633   1.785   0.154  1.5165  1.1570 -0.2874
 4933TIP3    H236435   0.541   1.826   0.267  0.2409  1.4966 -1.4277
 4934TIP3   OH236436   6.540   4.685   0.798 -0.1691 -0.2675 -0.0731
 4934TIP3    H136437   6.579   4.606   0.760 -1.2683 -0.5276 -0.7275
 4934TIP3    H236438   6.514   4.659   0.886 -2.0851 -1.2126 -0.8565
 4935TIP3   OH236439   6.647   3.412   8.471  0.2589 -0.2494  0.1354
 4935TIP3    H136440   6.608   3.473   8.534  1.5829  1.3083 -0.4509
 4935TIP3    H236441   6.613   3.326   8.496 -1.9749  0.7477  0.7949
 4936TIP3   OH236442   0.336   3.086   7.911 -0.0975  0.1126 -0.1255
 4936TIP3    H136443   0.344   3.005   7.962 -0.3537  1.0528  1.4915
 4936TIP3    H236444   0.369   3.154   7.970 -0.7428  1.3118 -1.1083
 4937TIP3   OH236445   3.018   3.392   6.644 -0.8232  0.0158  0.4790
 4937TIP3    H136446   3.029   3.470   6.590 -0.5740 -0.5941 -0.3785
 4937TIP3    H236447   3.045   3.320   6.587 -2.3885 -0.8421  0.7601
 4938TIP3   OH236448   5.815   4.169   1.331 -0.3560  0.1417 -0.0531
 4938TIP3    H136449   5.877   4.151   1.261 -1.8055 -1.3779 -1.0331
 4938TIP3    H236450   5.868   4.179   1.409  1.0514 -2.7355 -0.5258
 4939TIP3   OH236451   4.799   4.577   0.384  0.0515 -0.4494  0.0702
 4939TIP3    H136452   4.789   4.590   0.479 -0.0155  1.5255 -0.1725
 4939TIP3    H236453   4.757   4.653   0.345  1.3675 -0.4987 -1.5148
 4940TIP3   OH236454   3.262   1.244   1.310  0.3050  0.1192 -0.1503
 4940TIP3    H136455   3.273   1.334   1.279  0.5325  0.4585  0.8946
 4940TIP3    H236456   3.242   1.252   1.403 -0.7911 -0.8722 -0.2771
 4941TIP3   OH236457   6.605   1.268   7.162 -0.2159  0.5139 -0.0942
 4941TIP3    H136458   6.613   1.363   7.156 -0.4975  0.4686 -4.8630
 4941TIP3    H236459   6.693   1.235   7.140 -0.4771 -0.3414  0.0918
 4942TIP3   OH236460   2.451   6.046   8.086 -0.2405 -0.4008 -0.3846
 4942TIP3    H136461   2.412   6.007   8.008 -1.2930  2.0905 -1.1878
 4942TIP3    H236462   2.425   6.138   8.083 -1.1837 -0.3688  3.4451
 4943TIP3   OH236463   0.961   2.884   7.732  1.1542  0.4519  0.0694
 4943TIP3    H136464   0.958   2.836   7.815 -0.7917 -2.2331 -1.3973
 4943TIP3    H236465   0.926   2.970   7.753 -0.4324 -0.5456  1.8668
 4944TIP3   OH236466   5.988   4.440   8.830  0.2410  0.0552 -0.0663
 4944TIP3    H136467   5.996   4.457   8.736 -3.0496 -0.7788 -0.6266
 4944TIP3    H236468   5.991   4.345   8.837  0.2816  0.1065  0.6746
 4945TIP3   OH236469   2.486   3.603   1.589 -0.6459  0.1043  0.5765
 4945TIP3    H136470   2.553   3.596   1.657 -2.7479  0.7425  2.8739
 4945TIP3    H236471   2.480   3.697   1.571  1.4326 -0.1836 -2.2965
 4946TIP3   OH236472   6.428   1.887   8.803  0.1624  0.3281  0.1017
 4946TIP3    H136473   6.414   1.910   8.895  1.4852 -0.9177  0.6585
 4946TIP3    H236474   6.431   1.970   8.757  1.1529  1.0817  1.4560
 4947TIP3   OH236475   1.862   5.778   6.910  0.3368 -0.5585 -1.1656
 4947TIP3    H136476   1.803   5.772   6.986  1.4150  2.3890  0.0663
 4947TIP3    H236477   1.872   5.687   6.881  0.2108 -1.9497  2.5057
 4948TIP3   OH236478   6.562   3.320   6.861  0.2099 -0.1185  0.0763
 4948TIP3    H136479   6.613   3.348   6.936 -0.9925  0.5520  0.6744
 4948TIP3    H236480   6.474   3.302   6.896 -0.8856  1.9183 -1.3966
 4949TIP3   OH236481   4.091   0.437   0.032  0.8799  0.0041 -0.2056
 4949TIP3    H136482   4.185   0.449   0.022  1.0528 -0.5399  0.6494
 4949TIP3    H236483   4.074   0.454   0.125  0.9938 -4.7750  0.9599
 4950TIP3   OH236484   6.777   5.006   7.886 -0.3082 -0.5911 -0.1984
 4950TIP3    H136485   6.764   4.937   7.821  0.4554 -1.2449  0.3209
 4950TIP3    H236486   6.692   5.051   7.890 -0.9122 -1.6684 -0.3543
 4951TIP3   OH236487   5.486   5.752   8.714  0.5173 -0.2476 -0.0930
 4951TIP3    H136488   5.472   5.787   8.626 -1.7150  1.0557  0.6863
 4951TIP3    H236489   5.402   5.712   8.738  0.2074  1.5852  2.2987
 4952TIP3   OH236490   1.296   3.920   7.291 -0.1581 -0.5014  0.2937
 4952TIP3    H136491   1.266   4.005   7.258  0.5045 -0.6038 -0.6482
 4952TIP3    H236492   1.224   3.887   7.344  0.1433  1.3195  1.9624
 4953TIP3   OH236493   4.705   0.714   1.333  0.1643  0.1629  0.2366
 4953TIP3    H136494   4.732   0.623   1.346 -0.0619  0.4340  3.4119
 4953TIP3    H236495   4.785   0.765   1.348 -0.4850  0.6019  2.8043
 4954TIP3   OH236496   0.442   3.499   8.702 -0.0296 -0.3881 -0.1503
 4954TIP3    H136497   0.459   3.570   8.764 -3.0377  3.3378 -3.0851
 4954TIP3    H236498   0.363   3.456   8.736 -0.9842  0.8806 -0.6689
 4955TIP3   OH236499   1.460   3.895   7.971  0.3545 -0.0420 -0.1122
 4955TIP3    H136500   1.439   3.974   7.920 -0.3041  0.7996  1.3964
 4955TIP3    H236501   1.545   3.867   7.937 -0.8428 -0.6201 -2.9409
 4956TIP3   OH236502   3.053   6.692   8.787  0.1507  0.4841 -0.4569
 4956TIP3    H136503   3.064   6.602   8.815  2.1884  0.6834 -0.4047
 4956TIP3    H236504   3.015   6.686   8.699  0.1586 -0.4144 -0.4056
 4957TIP3   OH236505   1.602   6.105   0.063  0.0522  0.5491 -0.6189
 4957TIP3    H136506   1.662   6.062   0.002  0.1956  0.1864 -0.2273
 4957TIP3    H236507   1.525   6.127   0.010  0.9089  1.8933 -1.3577
 4958TIP3   OH236508   3.366   1.945   1.829  0.0154 -0.0235  0.1573
 4958TIP3    H136509   3.291   2.003   1.843  0.7051  1.0793 -0.5981
 4958TIP3    H236510   3.427   1.968   1.900  0.4560  0.4586 -0.3743
 4959TIP3   OH236511   4.658   3.474   6.760  0.8725 -0.0308 -0.0115
 4959TIP3    H136512   4.740   3.455   6.807  0.4383 -1.3838  0.2537
 4959TIP3    H236513   4.610   3.391   6.762 -0.9706  0.9978  0.7524
 4960TIP3   OH236514   4.799   4.876   2.339 -0.0373  0.3572 -0.2198
 4960TIP3    H136515   4.864   4.810   2.361 -0.0003  0.0497 -1.1980
 4960TIP3    H236516   4.849   4.955   2.320  0.0928  0.0384 -1.2709
 4961TIP3   OH236517   3.448   4.358   6.417 -0.0060  0.5168 -0.0633
 4961TIP3    H136518   3.459   4.272   6.377  0.5124  0.3546  0.4074
 4961TIP3    H236519   3.458   4.420   6.345 -1.0131  0.1668 -0.5182
 4962TIP3   OH236520   2.174   4.193   0.415 -0.0092 -0.2615  0.0775
 4962TIP3    H136521   2.218   4.116   0.451 -0.7283  0.6938  3.4000
 4962TIP3    H236522   2.234   4.265   0.432 -1.0324  0.4543  0.7886
 4963TIP3   OH236523   5.906   3.605   7.917  0.2016 -0.3250 -0.3761
 4963TIP3    H136524   5.888   3.572   8.005  0.2924 -1.9135 -0.9246
 4963TIP3    H236525   5.875   3.696   7.919 -0.3619 -0.5169  1.1039
 4964TIP3   OH236526   5.964   5.249   1.879  0.0114  0.2163 -0.0917
 4964TIP3    H136527   5.982   5.333   1.836  1.5128  0.7924  1.5558
 4964TIP3    H236528   5.921   5.196   1.811  0.5443  1.7260 -1.6807
 4965TIP3   OH236529   6.039   3.676   0.106  0.0661 -0.3529  0.0625
 4965TIP3    H136530   6.046   3.731   0.028 -0.8083 -0.9668 -0.4651
 4965TIP3    H236531   5.949   3.687   0.135 -0.0326 -1.2616  0.1307
 4966TIP3   OH236532   3.062   6.726   6.980 -0.3567  0.3253 -0.3195
 4966TIP3    H136533   3.053   6.640   7.021 -0.7389  0.0673 -0.9296
 4966TIP3    H236534   3.149   6.725   6.941 -0.6012 -0.0322 -0.8707
 4967TIP3   OH236535   2.365   6.588   0.752 -0.0459 -0.1119  0.4368
 4967TIP3    H136536   2.440   6.647   0.737  1.1510 -1.8812 -0.9707
 4967TIP3    H236537   2.384   6.545   0.835  0.4925 -0.5088  0.1142
 4968TIP3   OH236538   0.166   0.476   0.402 -0.0227  0.1355  0.3787
 4968TIP3    H136539   0.128   0.405   0.453  0.8635 -0.6128  0.0234
 4968TIP3    H236540   0.143   0.555   0.451 -0.1794 -0.4660  1.3119
 4969TIP3   OH236541   5.238   4.818   1.302  0.4349  0.5989 -0.1987
 4969TIP3    H136542   5.325   4.821   1.263 -0.1966  1.0746 -1.6180
 4969TIP3    H236543   5.201   4.905   1.287 -0.6771  0.0834 -0.5492
 4970TIP3   OH236544   0.635   6.338   0.384 -0.7265 -0.1318 -0.1289
 4970TIP3    H136545   0.632   6.401   0.312  1.2905  0.7234  0.4468
 4970TIP3    H236546   0.602   6.387   0.459  1.4959  0.5887  0.4776
 4971TIP3   OH236547   0.933   2.369   6.906 -0.3818 -0.0362 -0.3292
 4971TIP3    H136548   0.986   2.445   6.932  0.6749 -1.5059  2.2113
 4971TIP3    H236549   0.948   2.361   6.812  1.7352  1.2663 -0.1757
 4972TIP3   OH236550   3.745   3.899   0.943  0.7032 -0.1312 -0.0509
 4972TIP3    H136551   3.757   3.872   1.034  1.6821  2.5724  0.7062
 4972TIP3    H236552   3.687   3.974   0.948 -0.4687 -0.8664 -1.8550
 4973TIP3   OH236553   1.489   6.666   1.574 -0.1064  0.1006 -0.1120
 4973TIP3    H136554   1.440   6.648   1.654 -0.2344 -1.5779 -0.5421
 4973TIP3    H236555   1.572   6.702   1.604 -0.7350  0.9210  0.6976
 4974TIP3   OH236556   2.806   3.422   7.134 -0.2220 -0.0182  0.1307
 4974TIP3    H136557   2.802   3.517   7.135  0.3107  0.0166 -0.3232
 4974TIP3    H236558   2.750   3.396   7.061  0.2627 -0.0070 -0.2510
 4975TIP3   OH236559   5.401   5.672   7.295 -0.2164 -0.1356  0.4906
 4975TIP3    H136560   5.322   5.620   7.310  0.7898 -1.4068  1.5818
 4975TIP3    H236561   5.388   5.709   7.208  0.0201 -4.1689 -1.4927
 4976TIP3   OH236562   1.929   1.318   8.075  0.2412 -0.4560 -0.7254
 4976TIP3    H136563   2.023   1.335   8.082 -0.1175  0.8161  3.7329
 4976TIP3    H236564   1.920   1.227   8.103  0.0346  0.0101  0.7818
 4977TIP3   OH236565   1.788   0.186   1.304  0.4759 -0.6460  0.1933
 4977TIP3    H136566   1.840   0.140   1.370  1.8909 -0.4039 -0.6970
 4977TIP3    H236567   1.852   0.239   1.256 -1.0488  2.1853  1.0781
 4978TIP3   OH236568   1.841   3.434   0.271 -0.0262  0.0004  0.4319
 4978TIP3    H136569   1.786   3.508   0.297  0.1786 -0.4664  2.3539
 4978TIP3    H236570   1.921   3.474   0.237 -0.6918  0.6542 -0.4232
 4979TIP3   OH236571   4.995   0.817   0.738  0.4465 -0.0537 -0.3295
 4979TIP3    H136572   5.057   0.761   0.785  0.8767  0.2816 -0.4875
 4979TIP3    H236573   4.929   0.840   0.803  0.7645 -0.0033 -0.0200
 4980TIP3   OH236574   3.809   0.872   2.586 -0.2334  0.4191 -0.0619
 4980TIP3    H136575   3.861   0.791   2.591  0.6245  0.9403 -0.4039
 4980TIP3    H236576   3.871   0.939   2.558 -0.7871  1.3418  0.8478
 4981TIP3   OH236577   1.609   3.675   1.160  0.4081 -0.2251 -0.0112
 4981TIP3    H136578   1.585   3.606   1.221 -0.3939  1.0199  1.1478
 4981TIP3    H236579   1.527   3.722   1.145  1.2893  1.6697  0.8116
 4982TIP3   OH236580   0.341   6.003   7.022  0.0704 -0.0083  0.7591
 4982TIP3    H136581   0.393   6.029   6.946 -0.0440  1.6238  1.2070
 4982TIP3    H236582   0.376   5.918   7.047  1.3507  0.2663 -0.0140
 4983TIP3   OH236583   4.932   5.531   1.294  0.1421  0.1112  0.3021
 4983TIP3    H136584   4.866   5.514   1.362 -2.9844  2.9838 -1.6671
 4983TIP3    H236585   4.994   5.590   1.336  1.4730 -2.3689  2.1045
 4984TIP3   OH236586   6.142   2.717   7.788  0.0867 -0.5660 -0.4825
 4984TIP3    H136587   6.161   2.752   7.875  1.0359 -0.2675 -0.7949
 4984TIP3    H236588   6.224   2.677   7.760 -1.1720 -3.9381  0.2297
 4985TIP3   OH236589   1.440   2.564   7.584 -0.3431 -0.4936 -0.0976
 4985TIP3    H136590   1.346   2.566   7.568 -0.2249  3.0395 -1.1137
 4985TIP3    H236591   1.480   2.580   7.498  1.1348 -0.3548  0.5744
 4986TIP3   OH236592   2.462   1.498   7.931  0.5665 -0.2619 -0.5410
 4986TIP3    H136593   2.554   1.519   7.916  0.5595  0.7020  0.5613
 4986TIP3    H236594   2.431   1.569   7.988 -0.3476 -1.6275  0.7178
 4987TIP3   OH236595   4.766   6.471   6.582  0.3712  0.0986 -0.0960
 4987TIP3    H136596   4.791   6.545   6.639  0.2521  1.0655 -1.2576
 4987TIP3    H236597   4.848   6.424   6.567  1.2565  2.1034 -2.2552
 4988TIP3   OH236598   6.394   5.430   0.021 -0.4374  0.0316 -0.3558
 4988TIP3    H136599   6.393   5.419   0.116 -1.0484 -1.5372 -0.5072
 4988TIP3    H236600   6.343   5.509   0.005 -0.3042  0.3294  0.6112
 4989TIP3   OH236601   6.465   1.045   2.096  0.9600 -0.2001 -0.0415
 4989TIP3    H136602   6.507   1.094   2.166 -0.2965  0.6971  0.1163
 4989TIP3    H236603   6.374   1.034   2.124  0.8344 -1.2959 -0.7751
 4990TIP3   OH236604   3.948   2.858   7.767  0.3307 -0.1623  0.1295
 4990TIP3    H136605   4.033   2.844   7.726  0.3509  1.7217 -0.5817
 4990TIP3    H236606   3.885   2.829   7.701  0.4019 -0.8934  0.3757
 4991TIP3   OH236607   4.799   0.955   8.737 -0.4982 -0.3487  0.0184
 4991TIP3    H136608   4.718   0.915   8.707 -1.3337  1.6087 -0.5251
 4991TIP3    H236609   4.854   0.960   8.658 -0.3039 -0.6071  0.1343
 4992TIP3   OH236610   4.901   5.089   0.419  0.2053 -0.1040 -0.9714
 4992TIP3    H136611   4.908   4.997   0.445  2.1091 -0.4416 -2.4527
 4992TIP3    H236612   4.949   5.136   0.487 -1.4858 -0.0347  0.2581
 4993TIP3   OH236613   0.236   6.119   0.483 -0.1293  0.2633  0.7175
 4993TIP3    H136614   0.193   6.036   0.501  0.2811  0.0902  0.8924
 4993TIP3    H236615   0.311   6.122   0.543 -0.9798  1.4234  1.7761
 4994TIP3   OH236616   4.967   2.505   1.733  0.3554 -0.1386  0.4133
 4994TIP3    H136617   5.001   2.440   1.795 -0.8912 -0.1695  1.1032
 4994TIP3    H236618   4.968   2.587   1.782 -0.8157 -0.1994  0.5830
 4995TIP3   OH236619   4.943   3.265   8.659  0.0612 -0.5194 -0.6197
 4995TIP3    H136620   5.013   3.253   8.596  0.1791  1.2841 -0.8751
 4995TIP3    H236621   4.986   3.259   8.744  0.5205  0.4197 -0.7723
 4996TIP3   OH236622   1.206   5.373   6.453 -0.4099  0.5899 -0.0442
 4996TIP3    H136623   1.258   5.309   6.501 -2.9144 -1.3346  0.3062
 4996TIP3    H236624   1.267   5.413   6.392  1.5809 -1.0958  0.7427
 4997TIP3   OH236625   6.748   4.828   8.423  0.2246  0.0919  0.4241
 4997TIP3    H136626   6.770   4.857   8.334  0.1611 -0.3005  0.2790
 4997TIP3    H236627   6.719   4.907   8.467  0.2238  0.2838  0.0843
 4998TIP3   OH236628   3.467   1.417   1.856 -0.5387  0.5611  0.1194
 4998TIP3    H136629   3.390   1.363   1.871  0.5374 -1.3475 -0.8483
 4998TIP3    H236630   3.463   1.440   1.763  1.4196 -1.9806 -0.7164
 4999TIP3   OH236631   1.530   3.340   0.505  0.0608 -0.3659 -0.3436
 4999TIP3    H136632   1.536   3.421   0.556  1.6484  0.2101 -1.3548
 4999TIP3    H236633   1.610   3.292   0.528 -1.5215 -2.3673  1.3271
 5000TIP3   OH236634   6.091   3.299   7.125 -0.2457 -0.0668  0.1297
 5000TIP3    H136635   6.144   3.309   7.047 -0.0148  1.1318  0.4264
 5000TIP3    H236636   6.088   3.386   7.165 -0.5165 -0.6026  1.3523
 5001TIP3   OH236637   1.947   3.048   0.854  0.6010 -0.3321  0.3935
 5001TIP3    H136638   1.895   3.042   0.934 -1.0483  1.3576 -0.4826
 5001TIP3    H236639   1.882   3.063   0.785  2.1302  0.1004 -0.9961
 5002TIP3   OH236640   6.608   2.174   2.038  0.1847 -0.3533 -0.1960
 5002TIP3    H136641   6.583   2.197   2.128 -0.3047 -0.1130 -0.3935
 5002TIP3    H236642   6.656   2.092   2.048 -0.6436 -0.8083  0.2012
 5003TIP3   OH236643   6.617   2.360   8.647 -0.0374  0.6755 -0.3540
 5003TIP3    H136644   6.621   2.311   8.565 -0.5678  0.0620 -0.0190
 5003TIP3    H236645   6.585   2.446   8.621 -0.4242  0.4139 -0.7574
 5004TIP3   OH236646   1.607   0.991   8.197  0.4703  0.2353 -0.4368
 5004TIP3    H136647   1.594   0.935   8.273 -0.0709  0.3873 -0.4109
 5004TIP3    H236648   1.664   0.940   8.139  0.5122 -0.0688 -0.1304
 5005TIP3   OH236649   5.814   3.346   7.819  0.1112 -0.3769 -0.1157
 5005TIP3    H136650   5.846   3.284   7.886  1.5860  0.2008 -0.2345
 5005TIP3    H236651   5.844   3.431   7.850 -1.4654  0.2281 -0.2143
 5006TIP3   OH236652   1.639   0.276   0.093  0.2589  0.4134  0.4395
 5006TIP3    H136653   1.598   0.194   0.119  0.7304 -0.1938 -0.6487
 5006TIP3    H236654   1.721   0.279   0.142  1.1865 -0.7627 -0.9598
 5007TIP3   OH236655   2.471   4.727   8.490  0.3254  0.8502  0.1547
 5007TIP3    H136656   2.492   4.642   8.528  0.5846  1.0636  0.5030
 5007TIP3    H236657   2.396   4.711   8.433 -1.3526  0.8599  2.2596
 5008TIP3   OH236658   3.393   5.204   0.211  0.1709  0.2236 -0.1822
 5008TIP3    H136659   3.414   5.113   0.191  0.0763  0.1373  0.1173
 5008TIP3    H236660   3.405   5.250   0.127  0.5312 -0.0053 -0.2546
 5009TIP3   OH236661   0.125   1.657   0.868 -0.2557 -0.4794  0.3349
 5009TIP3    H136662   0.121   1.752   0.860  0.2981 -0.2076  2.4600
 5009TIP3    H236663   0.034   1.628   0.859 -0.5870  0.3781  0.8031
 5010TIP3   OH236664   4.885   5.168   8.033 -0.1800 -0.0154  0.5171
 5010TIP3    H136665   4.861   5.175   7.941 -1.1932 -0.8456  0.7101
 5010TIP3    H236666   4.806   5.191   8.081 -0.4700 -2.1525  1.1679
 5011TIP3   OH236667   2.565   5.999   6.943  0.3804 -0.2255  0.0819
 5011TIP3    H136668   2.554   6.078   6.890 -2.5135  0.0345  0.9128
 5011TIP3    H236669   2.634   6.022   7.006 -0.2581  1.5887  0.1797
 5012TIP3   OH236670   3.685   2.195   7.508 -0.1667 -0.0262  0.1925
 5012TIP3    H136671   3.732   2.140   7.571 -1.3858 -0.9079  0.3688
 5012TIP3    H236672   3.596   2.159   7.507 -0.3258  0.3426 -1.5814
 5013TIP3   OH236673   5.597   2.933   8.778  0.1637 -0.2495  0.4194
 5013TIP3    H136674   5.513   2.930   8.732 -0.2867 -0.6138  1.2260
 5013TIP3    H236675   5.573   2.955   8.868  0.7911 -1.6662  0.9601
 5014TIP3   OH236676   2.577   4.792   0.708 -0.8876  0.1047 -0.1745
 5014TIP3    H136677   2.605   4.790   0.800  0.1412  0.0655 -0.4666
 5014TIP3    H236678   2.596   4.882   0.680 -0.1031 -0.1915 -0.6474
 5015TIP3   OH236679   1.744   0.581   6.231  0.2763  0.4034 -0.2472
 5015TIP3    H136680   1.804   0.568   6.305  2.9411 -0.1453 -2.3175
 5015TIP3    H236681   1.667   0.623   6.269  1.4456  0.0260  2.8216
 5016TIP3   OH236682   1.669   1.279   0.593  0.0589  0.4801  0.3460
 5016TIP3    H136683   1.614   1.237   0.527 -0.5653  1.3056  0.3167
 5016TIP3    H236684   1.623   1.264   0.676  1.4885 -1.6529  0.8113
 5017TIP3   OH236685   5.977   5.469   1.735 -0.2464  0.0482 -0.4105
 5017TIP3    H136686   6.027   5.447   1.656 -2.6706 -2.6657 -1.3872
 5017TIP3    H236687   5.984   5.564   1.742  0.8845  0.2969 -3.3088
 5018TIP3   OH236688   2.635   3.233   8.102 -0.2973  0.4643 -0.1196
 5018TIP3    H136689   2.566   3.221   8.036 -1.9613  2.3880  1.1537
 5018TIP3    H236690   2.633   3.152   8.153 -1.4874  0.3941 -0.2440
 5019TIP3   OH236691   2.714   2.526   1.459 -1.1718 -0.3708  0.0254
 5019TIP3    H136692   2.684   2.435   1.452  0.9955 -1.0450 -1.6376
 5019TIP3    H236693   2.676   2.569   1.383  0.4071 -0.7799 -1.0598
 5020TIP3   OH236694   4.370   3.414   6.804  0.0067 -0.1207  0.0015
 5020TIP3    H136695   4.338   3.493   6.761  0.3125  0.0149  0.0178
 5020TIP3    H236696   4.397   3.357   6.733  0.5938  0.1382  0.0084
 5021TIP3   OH236697   4.434   0.536   8.471 -0.0513  0.2295 -0.1855
 5021TIP3    H136698   4.401   0.622   8.444  1.3029  0.2762 -1.9329
 5021TIP3    H236699   4.449   0.490   8.389 -0.0526 -1.4147  0.7076
 5022TIP3   OH236700   3.031   1.814   6.447  0.1270  0.3768 -0.0915
 5022TIP3    H136701   3.025   1.761   6.367  0.4748 -0.4796  0.4342
 5022TIP3    H236702   3.105   1.872   6.432  0.2719  0.1281 -0.3495
 5023TIP3   OH236703   0.241   1.016   0.473 -0.1144 -0.1588 -0.1535
 5023TIP3    H136704   0.215   1.020   0.381  1.3422  1.1185 -0.5454
 5023TIP3    H236705   0.307   0.947   0.477  0.0636  0.0122 -0.1303
 5024TIP3   OH236706   2.288   4.430   0.488 -0.5121  0.2669  0.1766
 5024TIP3    H136707   2.325   4.467   0.568  0.2702 -0.2488  0.0709
 5024TIP3    H236708   2.197   4.411   0.510 -0.2196 -0.1664  1.0532
 5025TIP3   OH236709   6.799   3.936   1.464  0.1808 -0.6974  0.0816
 5025TIP3    H136710   6.852   3.888   1.400 -1.0903 -0.8595 -0.8925
 5025TIP3    H236711   6.709   3.917   1.439 -0.3442  0.4033  1.0565
 5026TIP3   OH236712   1.689   3.779   7.072  0.0661  0.0740  0.0323
 5026TIP3    H136713   1.761   3.733   7.029 -1.1658 -2.1705  0.2755
 5026TIP3    H236714   1.713   3.781   7.164 -1.2049 -2.8722  0.5150
 5027TIP3   OH236715   1.034   3.269   6.919  0.2367 -0.7137 -0.0324
 5027TIP3    H136716   1.075   3.325   6.984  0.7773 -0.9964 -0.1187
 5027TIP3    H236717   0.984   3.328   6.862  1.2647 -0.2525 -0.4712
 5028TIP3   OH236718   1.117   2.927   7.519 -0.0774 -0.4425 -0.9672
 5028TIP3    H136719   1.052   2.903   7.585  0.1565 -1.6879 -1.1641
 5028TIP3    H236720   1.076   2.999   7.471 -0.9740 -0.6756 -0.5773
 5029TIP3   OH236721   0.898   0.908   6.590 -0.6421  0.1933  0.6829
 5029TIP3    H136722   0.943   0.825   6.575 -1.2986 -0.3673  1.7435
 5029TIP3    H236723   0.808   0.892   6.562 -0.7723  0.5514  0.8925
 5030TIP3   OH236724   2.303   0.989   8.595  0.3256 -0.3495 -0.2839
 5030TIP3    H136725   2.244   1.053   8.556 -0.4495  0.0205  1.3949
 5030TIP3    H236726   2.244   0.925   8.637  1.0727  0.1682  1.6624
 5031TIP3   OH236727   0.150   4.424   8.852 -0.5253 -0.1534 -0.5566
 5031TIP3    H136728   0.189   4.506   8.822  0.1618  0.0491  0.8040
 5031TIP3    H236729   0.220   4.381   8.900 -0.7350 -1.7787 -1.6441
 5032TIP3   OH236730   2.665   3.269   6.878 -0.2628  0.2961 -0.2996
 5032TIP3    H136731   2.649   3.304   6.790 -0.3345  0.1036 -0.3631
 5032TIP3    H236732   2.747   3.221   6.870 -1.3443 -1.5925 -0.8166
 5033TIP3   OH236733   3.143   2.046   2.057  0.5875  0.2067  0.5061
 5033TIP3    H136734   3.206   2.102   2.011  0.6765 -1.1793 -1.1421
 5033TIP3    H236735   3.062   2.097   2.056  0.4434  0.0545 -1.7126
 5034TIP3   OH236736   3.867   5.200   7.839  0.3233 -0.1298  0.5336
 5034TIP3    H136737   3.830   5.274   7.887  1.5564  0.0598  1.2524
 5034TIP3    H236738   3.940   5.170   7.894  3.0422  1.2608 -1.9933
 5035TIP3   OH236739   0.344   1.305   0.276  0.6070  0.0399 -0.3540
 5035TIP3    H136740   0.383   1.392   0.283  0.1891  0.1480  0.9444
 5035TIP3    H236741   0.282   1.300   0.349  0.7855 -1.4243 -0.2534
 5036TIP3   OH236742   5.635   4.958   8.461 -0.3904  0.1467 -0.0404
 5036TIP3    H136743   5.594   4.957   8.547 -4.5943  0.1795 -1.7850
 5036TIP3    H236744   5.599   4.880   8.417  2.2365 -0.3179 -1.6000
 5037TIP3   OH236745   0.309   6.198   1.478 -0.8493  0.0161  0.4963
 5037TIP3    H136746   0.387   6.219   1.530 -0.3254 -0.4410 -0.0935
 5037TIP3    H236747   0.236   6.237   1.527 -0.1115  1.6040  0.3859
 5038TIP3   OH236748   0.422   6.466   2.312  0.2411  0.0478  0.3053
 5038TIP3    H136749   0.327   6.473   2.303  0.3206 -0.6004 -1.4216
 5038TIP3    H236750   0.451   6.557   2.326 -0.6623  0.1707  1.5554
 5039TIP3   OH236751   3.472   3.872   7.613 -0.2030 -0.0986  0.7064
 5039TIP3    H136752   3.440   3.962   7.621  0.1728  0.3518 -2.0248
 5039TIP3    H236753   3.567   3.880   7.616 -0.1216 -0.1840 -1.0103
 5040TIP3   OH236754   6.409   5.735   6.879 -0.9021  0.2754 -0.2593
 5040TIP3    H136755   6.469   5.789   6.932  1.5952 -1.9051 -0.6557
 5040TIP3    H236756   6.454   5.726   6.795 -2.7223  0.0761 -1.2497
 5041TIP3   OH236757   2.922   2.010   1.582  0.7845  0.6832  0.3108
 5041TIP3    H136758   2.938   1.921   1.614 -0.2624  0.4555  0.2120
 5041TIP3    H236759   2.935   2.004   1.488  1.8768  0.9122  0.4278
 5042TIP3   OH236760   1.981   6.690   1.836 -0.0164 -0.4571 -0.1551
 5042TIP3    H136761   2.030   6.769   1.816 -1.4886  0.0246 -2.2187
 5042TIP3    H236762   2.028   6.620   1.790  0.8581 -0.6923  1.0511
 5043TIP3   OH236763   0.299   6.222   8.696  0.1119 -0.1859 -0.0373
 5043TIP3    H136764   0.240   6.274   8.641 -0.0292 -0.5340 -0.2199
 5043TIP3    H236765   0.384   6.267   8.688 -0.1156  0.2960  0.2017
 5044TIP3   OH236766   6.675   1.753   8.758  0.0316 -0.2356  0.3092
 5044TIP3    H136767   6.705   1.832   8.803 -1.3174  0.2848  0.3147
 5044TIP3    H236768   6.582   1.768   8.742 -0.1458 -1.6478 -0.0739
 5045TIP3   OH236769   0.288   0.328   7.236 -0.2603  0.4955  0.0696
 5045TIP3    H136770   0.197   0.304   7.219 -0.3236  0.4465  0.4778
 5045TIP3    H236771   0.324   0.347   7.149  0.0565 -1.9309 -0.4058
 5046TIP3   OH236772   0.656   0.931   8.051  0.4271 -0.6408 -0.8393
 5046TIP3    H136773   0.582   0.982   8.018 -2.4550 -2.2816  2.4609
 5046TIP3    H236774   0.710   0.994   8.098 -0.8658  0.0535 -0.2499
 5047TIP3   OH236775   0.013   1.046   7.293 -0.4740  0.7404 -0.1760
 5047TIP3    H136776   0.079   1.076   7.231 -0.8018 -0.7468 -1.2958
 5047TIP3    H236777  -0.057   1.010   7.238 -0.7735 -0.6355  1.0526
 5048TIP3   OH236778   3.558   5.485   8.460  0.3631  0.2139  0.0565
 5048TIP3    H136779   3.549   5.400   8.502 -1.8867  1.5180  2.5023
 5048TIP3    H236780   3.590   5.543   8.529  1.3110  1.5083 -1.3932
 5049TIP3   OH236781   2.580   3.404   1.173 -0.8946  0.1782 -0.4275
 5049TIP3    H136782   2.589   3.397   1.078  0.0680 -0.3840 -0.3169
 5049TIP3    H236783   2.617   3.489   1.195 -0.8358  0.1798 -0.5339
 5050TIP3   OH236784   0.338   4.087   8.489 -0.0968 -0.2007  0.2680
 5050TIP3    H136785   0.389   4.054   8.415  0.9318  1.1288  0.3473
 5050TIP3    H236786   0.258   4.123   8.450  0.5614  0.7400 -0.2528
 5051TIP3   OH236787   2.488   2.046   7.858 -0.2252 -0.1067  0.2838
 5051TIP3    H136788   2.494   2.061   7.764 -1.1240 -1.4525 -0.0263
 5051TIP3    H236789   2.436   2.119   7.892 -0.5775 -0.0343 -0.4061
 5052TIP3   OH236790   1.706   5.441   1.315  0.1524 -0.8327  0.8680
 5052TIP3    H136791   1.675   5.359   1.351  0.1260 -1.8595 -1.3246
 5052TIP3    H236792   1.796   5.423   1.287  0.7865  0.4315  1.9364
 5053TIP3   OH236793   0.539   2.480   8.424 -0.0827  0.1394  0.1897
 5053TIP3    H136794   0.543   2.548   8.357 -0.6589  1.3291  1.3155
 5053TIP3    H236795   0.462   2.428   8.402  1.0454 -0.9596 -1.3831
 5054TIP3   OH236796   6.477   3.959   2.321 -0.5867 -0.1965  0.2093
 5054TIP3    H136797   6.401   3.985   2.372  0.7876 -0.8252  2.7708
 5054TIP3    H236798   6.539   4.031   2.332 -0.1659 -0.4734 -0.3169
 5055TIP3   OH236799   3.358   5.025   1.384 -0.3516 -0.5430 -0.6757
 5055TIP3    H136800   3.416   5.096   1.409 -0.5423 -0.5942 -0.0685
 5055TIP3    H236801   3.402   4.946   1.415 -0.4888 -0.6266 -0.6926
 5056TIP3   OH236802   1.634   5.841   2.405 -0.2406  0.5459 -0.1462
 5056TIP3    H136803   1.671   5.905   2.344  1.4407 -0.0506  0.1779
 5056TIP3    H236804   1.697   5.839   2.477 -1.6044  0.3948  1.0720
 5057TIP3   OH236805   2.407   1.694   8.098 -0.4889 -0.2216 -0.7134
 5057TIP3    H136806   2.374   1.682   8.187 -0.5488 -0.6678 -0.7967
 5057TIP3    H236807   2.458   1.775   8.103  0.5102 -0.8771  0.0111
 5058TIP3   OH236808   4.260   0.323   1.276 -0.0627  0.8340 -0.8928
 5058TIP3    H136809   4.261   0.229   1.297  1.9698  0.0880 -3.7002
 5058TIP3    H236810   4.232   0.365   1.357 -1.4189 -2.1967  0.3809
 5059TIP3   OH236811   5.776   1.557   8.808  0.2022 -0.2077 -0.7505
 5059TIP3    H136812   5.754   1.545   8.901 -1.1300 -0.2385 -1.0537
 5059TIP3    H236813   5.853   1.501   8.795  0.7784  0.2592  0.4698
 5060TIP3   OH236814   5.393   5.126   8.728 -0.2712 -1.1116  0.1199
 5060TIP3    H136815   5.467   5.117   8.788  0.7549 -0.7528 -1.0450
 5060TIP3    H236816   5.371   5.036   8.704 -0.3229 -1.2295  0.6067
 5061TIP3   OH236817   2.814   0.047   6.849 -0.0286  0.0335  0.6806
 5061TIP3    H136818   2.814   0.137   6.881  1.4410  0.3645 -0.1229
 5061TIP3    H236819   2.901   0.014   6.872 -0.2834 -0.9338  0.3134
 5062TIP3   OH236820   2.672   6.530   0.452  0.0942 -0.2615 -0.2227
 5062TIP3    H136821   2.581   6.534   0.422 -0.4561  1.6204  1.5114
 5062TIP3    H236822   2.724   6.524   0.372 -1.4456  1.0627 -1.3672
 5063TIP3   OH236823   1.449   4.636   6.771 -0.0957  0.2784  0.0827
 5063TIP3    H136824   1.366   4.635   6.723  0.2343  1.6208 -0.5669
 5063TIP3    H236825   1.497   4.562   6.736 -0.4529  0.3538 -0.5851
 5064TIP3   OH236826   0.004   6.230   7.386  0.1072 -0.0333 -0.1280
 5064TIP3    H136827  -0.070   6.287   7.409  1.4628  1.2818  1.2980
 5064TIP3    H236828  -0.034   6.143   7.378 -1.6878  0.7004 -0.0517
 5065TIP3   OH236829   2.791   3.543   0.763 -0.5930 -0.1481 -0.4491
 5065TIP3    H136830   2.797   3.638   0.757  0.9343 -0.1048  1.0469
 5065TIP3    H236831   2.837   3.510   0.686  0.1806  0.3319 -0.1968
 5066TIP3   OH236832   6.234   3.692   8.072  0.2518 -0.8430 -0.0436
 5066TIP3    H136833   6.211   3.621   8.012  0.5947 -0.5970 -0.4749
 5066TIP3    H236834   6.208   3.772   8.027  0.9529 -0.6274 -0.0777
 5067TIP3   OH236835   4.091   3.227   1.277  0.2715  0.0703 -0.0727
 5067TIP3    H136836   4.187   3.227   1.272  0.1936 -0.0020 -2.4280
 5067TIP3    H236837   4.062   3.263   1.193 -1.7814  0.5616  0.7817
 5068TIP3   OH236838   1.973   2.378   8.526  0.7180 -0.1563  0.0395
 5068TIP3    H136839   1.940   2.468   8.527  0.1304 -0.3228 -1.2909
 5068TIP3    H236840   1.903   2.328   8.485  0.3656 -1.5399  2.1865
 5069TIP3   OH236841   3.774   5.829   7.391 -0.7628  0.0797 -0.2014
 5069TIP3    H136842   3.722   5.750   7.407  0.0093 -0.0852  1.7583
 5069TIP3    H236843   3.797   5.860   7.479  0.7329  1.2936 -0.9895
 5070TIP3   OH236844   0.723   5.392   7.247 -0.1710 -0.0494 -0.2940
 5070TIP3    H136845   0.813   5.367   7.227  0.1385  0.8812 -0.1202
 5070TIP3    H236846   0.686   5.420   7.163 -0.3031 -0.4391 -0.3669
 5071TIP3   OH236847   1.723   0.865   1.448  0.5001  0.1726  0.1007
 5071TIP3    H136848   1.715   0.944   1.394 -1.6417  0.1697  0.3237
 5071TIP3    H236849   1.633   0.834   1.458  1.2652 -2.2795  0.0876
 5072TIP3   OH236850   0.467   6.733   2.317 -0.2250  0.0413 -0.0374
 5072TIP3    H136851   0.399   6.796   2.339  0.2782  0.1449  1.3394
 5072TIP3    H236852   0.530   6.782   2.265 -2.1551 -0.5630 -3.1950
 5073TIP3   OH236853   1.976   5.567   0.889 -0.1195 -0.0324 -1.0139
 5073TIP3    H136854   2.013   5.627   0.825  0.8293 -0.3613 -0.7863
 5073TIP3    H236855   1.996   5.480   0.855  0.6815 -0.2106 -0.1240
 5074TIP3   OH236856   0.215   1.541   0.182 -0.0774 -0.5358 -0.3258
 5074TIP3    H136857   0.288   1.551   0.243  0.1411 -0.2079 -0.6343
 5074TIP3    H236858   0.207   1.627   0.142 -3.0808  0.6764  2.4225
 5075TIP3   OH236859   3.404   5.411   7.009 -0.1588 -0.1192 -0.3409
 5075TIP3    H136860   3.346   5.470   6.961  1.0639  0.4012 -1.2190
 5075TIP3    H236861   3.481   5.402   6.954 -0.0652 -2.1142  0.0401
 5076TIP3   OH236862   0.638   3.790   0.578 -0.5445  0.3104 -0.2053
 5076TIP3    H136863   0.703   3.820   0.514  0.9357  1.8126  1.8442
 5076TIP3    H236864   0.687   3.734   0.638 -1.7394 -0.5677 -0.0136
 5077TIP3   OH236865   1.614   6.255   0.288  0.3126 -0.8714  0.4668
 5077TIP3    H136866   1.524   6.231   0.308 -0.5803 -0.8970 -3.0072
 5077TIP3    H236867   1.642   6.193   0.221  2.0661  0.6364 -0.3014
 5078TIP3   OH236868   2.470   1.781   6.913  0.1781  0.0847  0.7449
 5078TIP3    H136869   2.546   1.748   6.865  0.2733  2.5964 -1.0101
 5078TIP3    H236870   2.501   1.863   6.953 -1.0746  0.1362  1.6638
 5079TIP3   OH236871   1.717   2.020   8.824 -0.0463  0.4561 -0.3631
 5079TIP3    H136872   1.759   2.096   8.865 -0.9525  1.4077 -1.1362
 5079TIP3    H236873   1.672   2.057   8.748 -2.0743 -0.5603  0.2949
 5080TIP3   OH236874   4.574   4.179   0.355 -0.3229  0.6260  0.0711
 5080TIP3    H136875   4.523   4.237   0.412 -0.6511 -0.3167  0.7749
 5080TIP3    H236876   4.538   4.092   0.371  0.6223  0.1219 -0.4212
 5081TIP3   OH236877   6.476   0.827   0.428 -1.0104  0.0538 -0.0335
 5081TIP3    H136878   6.504   0.828   0.519 -1.0442 -1.3886  0.0163
 5081TIP3    H236879   6.381   0.831   0.432 -1.0014  0.2900 -0.0249
 5082TIP3   OH236880   2.354   4.235   1.041 -0.1106  0.1627  0.4356
 5082TIP3    H136881   2.305   4.211   1.119 -0.4209  2.1461  0.8784
 5082TIP3    H236882   2.337   4.163   0.979 -1.6512 -0.3388  1.4006
 5083TIP3   OH236883   1.902   2.658   8.462 -0.7166  0.6929  0.4501
 5083TIP3    H136884   1.957   2.712   8.403  1.4939 -0.7615  1.0446
 5083TIP3    H236885   1.856   2.722   8.516  0.3941  2.0245 -0.0938
 5084TIP3   OH236886   3.395   5.535   0.618 -0.5267 -0.1658  0.1974
 5084TIP3    H136887   3.422   5.502   0.703 -0.5182  0.9808  0.6524
 5084TIP3    H236888   3.384   5.456   0.564 -0.3109 -0.8833  1.1810
 5085TIP3   OH236889   4.509   6.138   2.170 -0.2854  0.3606  0.0007
 5085TIP3    H136890   4.575   6.191   2.125 -0.6829 -0.9411 -2.2251
 5085TIP3    H236891   4.445   6.117   2.103 -2.4269  0.6264  1.8425
 5086TIP3   OH236892   2.078   2.309   6.515 -0.0541 -0.3175  0.0121
 5086TIP3    H136893   2.047   2.279   6.600  1.8198  0.5400  1.0442
 5086TIP3    H236894   2.042   2.397   6.506 -0.0434 -0.3101  0.0419
 5087TIP3   OH236895   4.860   6.375   7.988 -0.0878  0.0221 -0.5972
 5087TIP3    H136896   4.896   6.457   8.022 -2.4016  1.2417 -0.8488
 5087TIP3    H236897   4.935   6.330   7.948  1.8691  0.5489  2.1797
 5088TIP3   OH236898   2.018   2.271   1.240 -0.0980 -0.2015 -0.2595
 5088TIP3    H136899   2.078   2.198   1.225  1.4750  1.2014 -1.2205
 5088TIP3    H236900   2.054   2.343   1.188 -0.0549  2.0579  2.5872
 5089TIP3   OH236901   1.443   4.412   2.056 -0.0705  0.1452  0.0746
 5089TIP3    H136902   1.501   4.412   1.980  0.4321  1.6182  0.4215
 5089TIP3    H236903   1.482   4.349   2.117 -1.2137 -2.0849 -1.3642
 5090TIP3   OH236904   3.915   4.479   1.859  0.6339  0.2943  0.0193
 5090TIP3    H136905   3.917   4.452   1.951  1.0030 -0.1472 -0.1105
 5090TIP3    H236906   3.975   4.418   1.816 -1.4244 -1.1582 -0.9459
 5091TIP3   OH236907   6.171   4.300   6.957 -0.1958 -0.4438  0.2320
 5091TIP3    H136908   6.095   4.243   6.963 -0.1849 -0.3125  2.3659
 5091TIP3    H236909   6.135   4.389   6.955 -0.2042 -0.4203 -2.8555
 5092TIP3   OH236910   1.344   0.788   8.168  0.3129 -0.5942 -0.3453
 5092TIP3    H136911   1.345   0.692   8.177  3.3468 -0.5751  0.7499
 5092TIP3    H236912   1.418   0.807   8.110 -0.2612  1.1054 -0.5586
 5093TIP3   OH236913   4.169   5.187   6.273  0.1515 -0.3320 -0.6972
 5093TIP3    H136914   4.177   5.185   6.368  0.3154 -0.2240 -0.7086
 5093TIP3    H236915   4.084   5.228   6.257  0.3222  0.0713 -0.6019
 5094TIP3   OH236916   4.307   1.520   0.941 -0.0608  0.2504  0.1469
 5094TIP3    H136917   4.232   1.542   0.885  0.4909  1.6785 -0.0792
 5094TIP3    H236918   4.380   1.507   0.880  0.3296  0.8811  0.4679
 5095TIP3   OH236919   3.812   4.644   1.444  0.7105  0.2323 -0.1601
 5095TIP3    H136920   3.891   4.680   1.403  0.4636  0.5786 -0.3328
 5095TIP3    H236921   3.787   4.710   1.509  0.6983  0.0119  0.0607
 5096TIP3   OH236922   2.697   6.356   2.177 -0.2639 -0.0452  0.9327
 5096TIP3    H136923   2.726   6.315   2.259 -0.0392  2.2539  2.0947
 5096TIP3    H236924   2.644   6.430   2.206 -0.7946  0.3903 -1.0556
 5097TIP3   OH236925   3.906   3.690   8.620  0.4636  0.1646  0.2250
 5097TIP3    H136926   3.841   3.630   8.656  0.2643  0.1402 -0.1724
 5097TIP3    H236927   3.932   3.745   8.695  0.4516 -0.2331  0.5272
 5098TIP3   OH236928   0.011   4.416   7.108 -0.0484 -0.1069 -0.1342
 5098TIP3    H136929   0.104   4.438   7.113 -0.0907  0.0536 -0.0714
 5098TIP3    H236930  -0.010   4.422   7.015 -0.6566  2.5621  0.0941
 5099TIP3   OH236931   0.002   4.456   7.607 -0.5058  0.1870 -0.1252
 5099TIP3    H136932   0.052   4.534   7.629 -2.1748  1.7410 -1.4958
 5099TIP3    H236933  -0.058   4.444   7.680  0.1481 -0.2069  0.3629
 5100TIP3   OH236934   5.147   4.346   8.383  0.2814  0.8207 -0.1377
 5100TIP3    H136935   5.201   4.424   8.396  0.8129  1.3082 -4.0454
 5100TIP3    H236936   5.062   4.379   8.354  0.9875  0.1803 -3.4513
 5101TIP3   OH236937   3.184   6.581   8.087 -0.0588  0.7035  0.7095
 5101TIP3    H136938   3.200   6.636   8.164  0.8203 -1.3903  2.1018
 5101TIP3    H236939   3.120   6.517   8.117  0.3452 -0.1877 -0.2866
 5102TIP3   OH236940   0.359   2.929   8.517  0.1842  0.8479 -0.6627
 5102TIP3    H136941   0.281   2.876   8.502 -0.9783  1.3283  2.8949
 5102TIP3    H236942   0.420   2.870   8.560  1.0430  1.0312 -1.5873
 5103TIP3   OH236943   3.319   0.862   1.753  0.2035 -0.2247  0.0187
 5103TIP3    H136944   3.375   0.868   1.830  0.8652  0.4275 -0.5053
 5103TIP3    H236945   3.266   0.942   1.755 -0.0157 -0.3682 -0.0166
 5104TIP3   OH236946   3.330   1.052   7.291 -0.1628  0.3945 -0.3462
 5104TIP3    H136947   3.302   1.138   7.260  1.6149 -0.0358 -3.5243
 5104TIP3    H236948   3.250   1.001   7.296 -0.9286  1.4975 -0.9793
 5105TIP3   OH236949   6.006   2.534   1.443  0.4265 -0.0819 -0.4982
 5105TIP3    H136950   6.039   2.624   1.449 -0.5511  0.2529  0.1988
 5105TIP3    H236951   5.952   2.524   1.522  1.9299 -1.8751  0.3853
 5106TIP3   OH236952   1.353   4.095   0.360  0.4182 -0.0738  0.2050
 5106TIP3    H136953   1.405   4.172   0.339 -0.3689  0.5262  0.4120
 5106TIP3    H236954   1.305   4.075   0.279 -1.4933  1.3586  0.8844
 5107TIP3   OH236955   2.449   3.705   2.021  0.3909 -0.0923 -0.1623
 5107TIP3    H136956   2.511   3.739   2.086  1.7432 -0.2506 -1.3329
 5107TIP3    H236957   2.367   3.693   2.070  0.8221  1.6173  1.0521
 5108TIP3   OH236958   3.679   4.001   7.056 -0.5497 -0.2975 -0.2189
 5108TIP3    H136959   3.734   3.991   6.978 -1.9671 -2.4952 -1.0446
 5108TIP3    H236960   3.627   4.080   7.039  0.6018  0.4078 -0.5422
 5109TIP3   OH236961   3.288   6.697   0.645 -0.0756  0.0255 -0.2248
 5109TIP3    H136962   3.292   6.602   0.651  0.7978  0.1165  0.7367
 5109TIP3    H236963   3.218   6.714   0.581 -1.8846 -1.2068  1.3277
 5110TIP3   OH236964   2.472   2.097   2.078 -0.9050 -0.4133 -0.1720
 5110TIP3    H136965   2.489   2.030   2.144 -3.5424 -1.3095 -0.2654
 5110TIP3    H236966   2.416   2.161   2.123 -1.4678 -0.2325 -1.1119
 5111TIP3   OH236967   2.225   2.713   0.363 -0.2007 -0.0958 -0.3572
 5111TIP3    H136968   2.205   2.622   0.383 -2.0887  0.3010 -0.1741
 5111TIP3    H236969   2.230   2.756   0.449 -1.5003  0.3383 -0.4663
 5112TIP3   OH236970   0.887   5.244   6.942 -0.2510 -0.8063  0.3913
 5112TIP3    H136971   0.811   5.268   6.890  0.9871  0.9774 -0.7229
 5112TIP3    H236972   0.948   5.205   6.879  0.0931 -1.4272  1.0910
 5113TIP3   OH236973   4.449   0.045   2.195 -0.8301 -0.6367 -0.2366
 5113TIP3    H136974   4.387  -0.021   2.226 -0.8492 -0.2619  0.5500
 5113TIP3    H236975   4.486   0.008   2.115 -3.2372 -0.1954 -1.6453
 5114TIP3   OH236976   4.953   3.072   0.283  0.8083  0.4114 -0.0941
 5114TIP3    H136977   4.861   3.051   0.270  0.8353  0.2126  0.0242
 5114TIP3    H236978   4.970   3.050   0.375  0.4851  2.2489  0.4603
 5115TIP3   OH236979   1.458   6.090   1.055  0.4092 -0.4400 -0.1027
 5115TIP3    H136980   1.506   6.153   1.110  2.1426 -2.7869  1.2465
 5115TIP3    H236981   1.404   6.145   0.998  2.3434  2.2810  0.4716
 5116TIP3   OH236982   2.378   3.157   8.553 -0.1091  0.0858 -0.0189
 5116TIP3    H136983   2.424   3.097   8.612  1.2365  0.7571 -0.3255
 5116TIP3    H236984   2.448   3.213   8.518 -1.1345  0.8949 -0.8253
 5117TIP3   OH236985   0.705   4.956   7.329 -0.1596 -0.3665 -0.2631
 5117TIP3    H136986   0.785   5.005   7.346  0.7625 -2.0858  0.7058
 5117TIP3    H236987   0.712   4.927   7.238 -0.0255  0.0832 -0.3955
 5118TIP3   OH236988   2.793   2.208   1.235  0.2972  0.1155 -0.3820
 5118TIP3    H136989   2.804   2.281   1.175 -0.8085 -0.2637 -1.0715
 5118TIP3    H236990   2.733   2.241   1.302 -0.7602 -0.3678 -1.0769
 5119TIP3   OH236991   6.318   5.123   7.479 -0.0356  0.0051  0.5782
 5119TIP3    H136992   6.386   5.181   7.512  0.1113 -0.0276  0.3366
 5119TIP3    H236993   6.341   5.109   7.387 -0.8818  0.7342  0.2392
 5120TIP3   OH236994   3.837   0.368   7.144 -0.4474 -0.3516  0.2222
 5120TIP3    H136995   3.890   0.331   7.214 -1.6751 -1.6984  0.4891
 5120TIP3    H236996   3.810   0.453   7.176  0.1891 -0.3540  0.7736
 5121TIP3   OH236997   3.493   1.888   1.444 -0.1944 -0.0216 -0.1119
 5121TIP3    H136998   3.479   1.965   1.500 -2.0103 -0.4505  0.0852
 5121TIP3    H236999   3.410   1.876   1.399  0.6948 -0.7359 -1.6194
 5122TIP3   OH237000   3.942   5.754   0.715 -0.3973  0.1230 -0.5333
 5122TIP3    H137001   3.998   5.788   0.645 -1.2703  0.7988 -0.9280
 5122TIP3    H237002   3.879   5.697   0.671  0.3321 -1.1113 -0.0163
 5123TIP3   OH237003   4.571   0.813   7.516  0.1513 -0.0706  0.3435
 5123TIP3    H137004   4.598   0.778   7.431  0.9137  3.0883 -0.8853
 5123TIP3    H237005   4.520   0.743   7.556 -1.2200 -1.3430 -3.2131
 5124TIP3   OH237006   6.464   3.498   7.297  0.1383 -0.1455 -0.4716
 5124TIP3    H137007   6.408   3.421   7.298 -0.6447  0.4032 -0.9903
 5124TIP3    H237008   6.529   3.481   7.365 -1.3283 -0.3152  0.9471
 5125TIP3   OH237009   3.463   0.983   0.206 -0.2573  0.1502 -0.5630
 5125TIP3    H137010   3.513   1.032   0.271  0.0359  3.2865 -2.9273
 5125TIP3    H237011   3.528   0.941   0.151 -0.4799 -1.2023  0.1481
 5126TIP3   OH237012   3.619   3.004   0.698 -0.1737 -0.2182  0.0374
 5126TIP3    H137013   3.567   3.001   0.779 -1.0589  1.0793 -0.4426
 5126TIP3    H237014   3.611   2.916   0.661 -2.7577  0.1197 -0.4134
 5127TIP3   OH237015   5.459   5.032   1.469 -0.1014  0.1798 -0.4226
 5127TIP3    H137016   5.493   5.069   1.550 -1.9005 -0.2480  0.5752
 5127TIP3    H237017   5.438   4.941   1.490 -1.8558  0.4249 -0.9414
 5128TIP3   OH237018   2.119   3.322   0.133 -0.1697  0.6642  0.1120
 5128TIP3    H137019   2.080   3.406   0.157 -0.4856 -0.0991  2.6111
 5128TIP3    H237020   2.214   3.338   0.136 -0.1758  1.6118 -2.4174
 5129TIP3   OH237021   2.879   5.301   7.060  0.3334  0.0025 -0.3765
 5129TIP3    H137022   2.897   5.323   6.968  1.1527 -1.7825 -0.6988
 5129TIP3    H237023   2.876   5.385   7.105  0.0166  0.9155 -2.0207
 5130TIP3   OH237024   3.895   3.607   6.724 -0.2062 -0.3613 -0.1867
 5130TIP3    H137025   3.982   3.611   6.763 -0.3387 -0.5070  0.1215
 5130TIP3    H237026   3.909   3.637   6.634  0.1588 -0.3661 -0.1358
 5131TIP3   OH237027   4.702   1.150   7.376 -1.0152  0.0686 -0.0588
 5131TIP3    H137028   4.716   1.094   7.452  0.6691  0.6983  0.1456
 5131TIP3    H237029   4.754   1.228   7.394 -2.6751  1.3974 -0.6857
 5132TIP3   OH237030   6.644   4.801   2.394 -0.6591 -0.7071  0.1762
 5132TIP3    H137031   6.703   4.875   2.408 -0.0272 -0.5661 -2.5372
 5132TIP3    H237032   6.562   4.826   2.437  0.3114  0.4573  1.4006
 5133TIP3   OH237033   6.061   1.717   0.084  0.7566  0.3455 -0.4629
 5133TIP3    H137034   6.145   1.703   0.128  0.2818  0.6321  0.5734
 5133TIP3    H237035   6.083   1.726  -0.008  1.7760 -0.4322 -0.3094
 5134TIP3   OH237036   5.001   0.157   0.503  0.5896 -0.3535 -0.7628
 5134TIP3    H137037   5.042   0.071   0.509  2.9890  0.7194 -0.3347
 5134TIP3    H237038   4.980   0.180   0.594  1.6766  0.2281 -0.6361
 5135TIP3   OH237039   6.573   0.294   8.437  0.0913 -0.2315 -1.0245
 5135TIP3    H137040   6.483   0.274   8.462  0.1652 -0.7426 -1.1455
 5135TIP3    H237041   6.622   0.215   8.460  0.4798 -0.0172 -1.1076
 5136TIP3   OH237042   5.458   2.147   7.378  0.2565  0.0985  0.1524
 5136TIP3    H137043   5.421   2.202   7.309  0.3105 -1.6744 -1.3396
 5136TIP3    H237044   5.553   2.151   7.364  0.3572  0.7565  0.9490
 5137TIP3   OH237045   2.753   2.000   1.031 -0.5071  0.5157 -0.0446
 5137TIP3    H137046   2.734   2.068   0.965 -2.9839 -1.1862 -1.2649
 5137TIP3    H237047   2.732   2.042   1.115  0.3587  1.9804 -0.5152
 5138TIP3   OH237048   4.450   0.657   7.733  0.4751 -0.5920 -0.0169
 5138TIP3    H137049   4.411   0.609   7.807 -1.1916 -0.4492 -0.7498
 5138TIP3    H237050   4.504   0.592   7.689  0.0593 -1.1767  0.3139
 5139TIP3   OH237051   1.078   0.922   1.152  0.0026  0.1012  0.3991
 5139TIP3    H137052   1.017   0.853   1.125 -1.0556  1.1977 -0.1254
 5139TIP3    H237053   1.149   0.917   1.088 -0.6229  0.2190 -0.3208
 5140TIP3   OH237054   5.477   4.845   0.499 -0.5141 -0.1307 -0.3814
 5140TIP3    H137055   5.505   4.849   0.590  0.5399  0.1176 -0.7028
 5140TIP3    H237056   5.521   4.919   0.457 -0.9006 -0.3050 -1.1186
 5141TIP3   OH237057   0.545   5.851   1.818 -0.0129 -0.1650 -0.1039
 5141TIP3    H137058   0.579   5.937   1.844 -1.6973  0.0667  1.4844
 5141TIP3    H237059   0.472   5.835   1.877 -1.0252 -1.8026 -1.7065
 5142TIP3   OH237060   1.386   4.421   8.052 -0.0530  0.4589 -0.1323
 5142TIP3    H137061   1.437   4.344   8.027 -1.2089 -0.3681 -0.0322
 5142TIP3    H237062   1.362   4.462   7.969 -0.0061  0.3207 -0.2143
 5143TIP3   OH237063   1.379   6.810   6.985  0.1798  0.6657  0.9619
 5143TIP3    H137064   1.396   6.780   6.895 -0.5783  0.9473  0.7149
 5143TIP3    H237065   1.462   6.799   7.030 -0.5902 -4.7612  1.7620
 5144TIP3   OH237066   5.162   0.208   2.636 -0.2901  0.2941 -0.6231
 5144TIP3    H137067   5.157   0.198   2.541  0.5749  0.5420 -0.6978
 5144TIP3    H237068   5.243   0.163   2.662 -1.3629 -1.2592  0.2192
 5145TIP3   OH237069   2.799   2.228   7.021 -0.0652  0.5019 -0.2325
 5145TIP3    H137070   2.793   2.323   7.036  1.1892  0.5864 -0.1554
 5145TIP3    H237071   2.870   2.218   6.958 -0.6161 -0.3593 -0.7326
 5146TIP3   OH237072   4.540   5.410   0.347 -0.0635 -0.3056  0.5443
 5146TIP3    H137073   4.573   5.364   0.424 -0.5092 -0.7818  0.4607
 5146TIP3    H237074   4.460   5.362   0.323  0.9625 -1.2029 -1.2319
 5147TIP3   OH237075   3.217   3.809   1.289  0.2083  0.4569  0.1826
 5147TIP3    H137076   3.162   3.886   1.272 -0.1878  0.1749  0.1886
 5147TIP3    H237077   3.211   3.757   1.208 -0.1563  0.0467  0.4707
 5148TIP3   OH237078   4.860   2.749   7.909 -0.7293  1.0217 -0.5205
 5148TIP3    H137079   4.849   2.654   7.917 -1.2746  1.1407  0.1956
 5148TIP3    H237080   4.900   2.761   7.823 -0.4625  0.1296 -0.5322
 5149TIP3   OH237081   4.772   2.793   0.605  0.2344  0.0305 -0.3532
 5149TIP3    H137082   4.701   2.758   0.552  1.2865 -1.6510 -0.7421
 5149TIP3    H237083   4.746   2.776   0.695 -0.4315  0.6358 -0.4215
 5150TIP3   OH237084   0.747   0.761   0.068  0.2474 -0.3122 -0.2260
 5150TIP3    H137085   0.839   0.786   0.053  0.0695  0.9158  0.5331
 5150TIP3    H237086   0.752   0.670   0.096  1.1327 -0.6002 -1.2465
 5151TIP3   OH237087   3.569   4.325   6.660 -0.5262 -0.2608 -0.0902
 5151TIP3    H137088   3.517   4.347   6.583  1.0108 -2.8865 -2.0257
 5151TIP3    H237089   3.659   4.348   6.636 -0.0711 -0.7398  1.0778
 5152TIP3   OH237090   6.229   4.111   1.454  0.1060 -0.0712  0.3521
 5152TIP3    H137091   6.298   4.169   1.421  1.5693 -1.2985  1.1099
 5152TIP3    H237092   6.266   4.023   1.444 -1.8080 -0.8624 -0.2257
 5153TIP3   OH237093   6.156   2.080   1.067 -0.9907 -0.4419  0.1295
 5153TIP3    H137094   6.169   1.991   1.032 -1.0507 -1.2020  1.9124
 5153TIP3    H237095   6.110   2.066   1.150 -1.0693  1.2792  0.4025
 5154TIP3   OH237096   0.101   4.851   6.600  0.1982 -0.0274  0.1189
 5154TIP3    H137097   0.089   4.794   6.677  2.3919  0.6801  1.0741
 5154TIP3    H237098   0.051   4.930   6.621  1.5871  0.5871  1.3904
 5155TIP3   OH237099   1.734   2.511   1.108  0.2971  0.4949 -0.2223
 5155TIP3    H137100   1.754   2.476   1.194 -0.0397  1.5827  0.3121
 5155TIP3    H237101   1.700   2.599   1.124 -0.0667  0.6061 -1.4398
 5156TIP3   OH237102   5.396   1.295   8.630 -0.6231  0.1806 -0.2288
 5156TIP3    H137103   5.441   1.366   8.677 -1.0216  0.6344 -0.5258
 5156TIP3    H237104   5.346   1.250   8.697 -0.3425  0.1612 -0.0314
 5157TIP3   OH237105   5.116   3.926   7.404 -0.6580  0.0006 -0.5878
 5157TIP3    H137106   5.073   3.902   7.323 -0.8245 -0.7132 -0.2950
 5157TIP3    H237107   5.075   4.008   7.431 -0.6040  0.2350 -1.2155
 5158TIP3   OH237108   3.532   5.060   7.811  0.1756 -0.1224 -0.7871
 5158TIP3    H137109   3.471   5.092   7.877 -1.0913 -1.7278 -1.1268
 5158TIP3    H237110   3.528   5.126   7.741  1.1456  1.3137  0.4526
 5159TIP3   OH237111   2.082   5.215   6.726 -0.5122 -0.0406 -0.1458
 5159TIP3    H137112   2.095   5.135   6.675  1.2399  0.6151 -0.8056
 5159TIP3    H237113   2.093   5.286   6.663 -0.0599  0.7510  0.8048
 5160TIP3   OH237114   4.283   5.297   8.839  0.0389 -0.5954  0.1806
 5160TIP3    H137115   4.242   5.269   8.921  2.6020 -1.4253  1.2875
 5160TIP3    H237116   4.335   5.222   8.812 -0.3492 -0.1401 -1.9690
 5161TIP3   OH237117   2.297   1.152   6.096 -0.5298  0.6426 -0.0213
 5161TIP3    H137118   2.207   1.138   6.068 -0.6815  0.6270  0.4646
 5161TIP3    H237119   2.341   1.069   6.079 -0.6039  0.6572 -0.2791
 5162TIP3   OH237120   3.848   3.975   0.536 -0.9435 -0.4958  0.1365
 5162TIP3    H137121   3.839   4.062   0.495  1.4938 -0.1618  0.1636
 5162TIP3    H237122   3.866   3.916   0.463 -2.9143 -1.1058  0.0796
 5163TIP3   OH237123   3.611   1.100   0.916  0.4284  0.8899  0.3095
 5163TIP3    H137124   3.530   1.148   0.937 -1.9565 -1.9565 -1.5678
 5163TIP3    H237125   3.631   1.127   0.826 -0.2172 -0.5791 -0.3041
 5164TIP3   OH237126   3.115   3.213   2.415  0.0786 -0.5871  0.2100
 5164TIP3    H137127   3.196   3.252   2.382 -1.0310  1.5242 -0.2561
 5164TIP3    H237128   3.048   3.244   2.354 -1.1859 -1.6452  1.0145
 5165TIP3   OH237129   4.157   0.018   8.269 -0.5615 -1.1004 -0.2879
 5165TIP3    H137130   4.236  -0.035   8.279  1.4554  1.4458 -1.4916
 5165TIP3    H237131   4.106  -0.027   8.202  0.9657 -1.6685 -1.1132
 5166TIP3   OH237132   4.836   4.620   7.569  0.0198 -0.2892 -0.4027
 5166TIP3    H137133   4.826   4.543   7.513  0.7455 -1.2150  0.6970
 5166TIP3    H237134   4.759   4.674   7.549  0.4704 -0.3487 -2.5822
 5167TIP3   OH237135   4.167   2.781   7.607  0.1964  0.3263  0.5144
 5167TIP3    H137136   4.207   2.696   7.590  1.1011 -0.0500  3.9425
 5167TIP3    H237137   4.240   2.843   7.607 -0.3726  1.0602 -1.2691
 5168TIP3   OH237138   0.165   4.152   8.211  0.0740 -0.7750 -0.1213
 5168TIP3    H137139   0.109   4.212   8.261  1.5835 -1.0698  2.0831
 5168TIP3    H237140   0.223   4.209   8.161  0.6290 -0.3927  0.9401
 5169TIP3   OH237141   6.419   6.260   7.997  0.0263  0.5147 -0.2334
 5169TIP3    H137142   6.400   6.353   7.987  0.2296  0.3520 -2.6080
 5169TIP3    H237143   6.400   6.222   7.911  3.1354 -1.0560 -0.3781
 5170TIP3   OH237144   1.582   4.311   1.316  0.2070 -0.1157 -0.1228
 5170TIP3    H137145   1.625   4.353   1.390  1.0400 -0.1469 -0.5834
 5170TIP3    H237146   1.507   4.368   1.296  0.5094  0.3833  0.1566
 5171TIP3   OH237147   2.718   6.347   8.867  0.4618  0.4063 -0.3704
 5171TIP3    H137148   2.721   6.255   8.895  0.4205  0.8732  1.2692
 5171TIP3    H237149   2.652   6.349   8.798  0.3708 -0.7656 -0.3396
 5172TIP3   OH237150   1.443   4.110   7.452  0.1650 -0.6161 -0.5000
 5172TIP3    H137151   1.437   4.028   7.402  0.4483 -0.5047 -0.7177
 5172TIP3    H237152   1.525   4.150   7.422  1.7404 -1.7733  1.8970
 5173TIP3   OH237153   2.458   2.409   7.139 -0.3776  0.1512  0.2879
 5173TIP3    H137154   2.464   2.460   7.058  0.7576  1.0297  0.8956
 5173TIP3    H237155   2.384   2.447   7.186  0.6952  1.5541  0.9121
 5174TIP3   OH237156   3.518   6.113   6.094 -0.2041  0.1154  0.5988
 5174TIP3    H137157   3.441   6.158   6.059 -0.4242  0.3044  1.3182
 5174TIP3    H237158   3.551   6.171   6.162  0.9890  0.3687 -0.1635
 5175TIP3   OH237159   3.767   4.901   7.878  0.7585  0.3772  0.2573
 5175TIP3    H137160   3.765   4.838   7.806  1.3284  0.1701  0.4174
 5175TIP3    H237161   3.693   4.959   7.862  0.0765 -0.4793  0.2333
 5176TIP3   OH237162   0.366   5.684   6.765 -0.3920 -0.2628 -0.1186
 5176TIP3    H137163   0.402   5.622   6.702  0.2576 -0.6489  0.6154
 5176TIP3    H237164   0.443   5.727   6.803 -0.6816 -0.9418  1.3173
 5177TIP3   OH237165   1.735   1.410   8.279 -0.4668 -0.1150  0.0794
 5177TIP3    H137166   1.784   1.414   8.196  2.3895 -3.0188  1.4054
 5177TIP3    H237167   1.675   1.336   8.267 -2.5287  1.5538 -0.4576
 5178TIP3   OH237168   1.836   0.539   6.499  0.4258 -0.2435  0.1384
 5178TIP3    H137169   1.931   0.544   6.498  0.3780  0.7026 -0.1234
 5178TIP3    H237170   1.808   0.615   6.550 -0.1952 -0.5495  0.2731
 5179TIP3   OH237171   5.557   3.387   7.728  0.0103 -0.3474  0.1667
 5179TIP3    H137172   5.598   3.319   7.674  0.3720  0.6751 -0.8972
 5179TIP3    H237173   5.630   3.425   7.777 -0.1867 -0.6759  0.7280
 5180TIP3   OH237174   3.623   5.008   0.504  0.5593 -0.4262  0.1006
 5180TIP3    H137175   3.579   4.945   0.447  1.0088 -1.1680  0.5626
 5180TIP3    H237176   3.678   5.059   0.446 -0.7017  0.3581 -0.4587
 5181TIP3   OH237177   1.899   4.307   1.140  0.0826  0.0001  0.6359
 5181TIP3    H137178   1.965   4.241   1.120 -0.8735 -0.7075 -0.3403
 5181TIP3    H237179   1.934   4.388   1.104  0.4749 -0.3523  0.2092
 5182TIP3   OH237180   0.049   5.214   8.355 -0.0762 -0.1654 -0.3587
 5182TIP3    H137181  -0.037   5.249   8.331 -0.0600 -0.1195 -0.3509
 5182TIP3    H237182   0.106   5.291   8.359 -0.0300 -0.1981 -0.3841
 5183TIP3   OH237183   1.588   3.667   8.351  0.0552 -0.4607 -0.1657
 5183TIP3    H137184   1.617   3.606   8.283 -0.7325 -1.3549  0.2673
 5183TIP3    H237185   1.653   3.659   8.420  0.5484  0.0184 -0.5732
 5184TIP3   OH237186   4.035   5.263   0.092 -0.4403  0.4996  0.2290
 5184TIP3    H137187   4.060   5.222   0.175  0.1798  0.2421 -0.0817
 5184TIP3    H237188   3.989   5.343   0.117 -1.3835 -0.2074  0.8429
 5185TIP3   OH237189   4.735   5.618   0.524 -0.0606 -0.6804 -0.3512
 5185TIP3    H137190   4.682   5.604   0.602 -1.2077  0.1567 -0.9577
 5185TIP3    H237191   4.672   5.624   0.452  0.9963 -1.8906 -1.4305
 5186TIP3   OH237192   5.817   2.513   1.181 -0.0078 -0.2024 -0.1736
 5186TIP3    H137193   5.725   2.493   1.198  0.8402 -3.9731  0.7932
 5186TIP3    H237194   5.850   2.547   1.264 -0.0447 -0.8999  0.1262
 5187TIP3   OH237195   0.764   5.536   8.686  0.4052  0.0038 -0.1494
 5187TIP3    H137196   0.726   5.512   8.771 -0.1944 -0.2095 -0.4718
 5187TIP3    H237197   0.848   5.488   8.684  0.0649 -0.6158 -0.0083
 5188TIP3   OH237198   2.982   3.075   1.197 -0.2388 -0.5092 -0.0326
 5188TIP3    H137199   3.027   3.135   1.257 -1.1016 -2.0107  2.2459
 5188TIP3    H237200   3.046   3.008   1.177  0.1287  0.1220 -1.0688
 5189TIP3   OH237201   1.444   3.840   0.135 -0.2474 -0.4701 -0.8177
 5189TIP3    H137202   1.423   3.922   0.178 -0.5666 -1.6739  1.5155
 5189TIP3    H237203   1.537   3.826   0.154 -0.5235 -1.2836 -0.0129
 5190TIP3   OH237204   1.701   3.815   7.684 -0.0380  0.0655 -0.1153
 5190TIP3    H137205   1.662   3.860   7.609 -0.0384  1.0414  0.4468
 5190TIP3    H237206   1.749   3.884   7.730  2.9742 -1.1637 -1.1255
 5191TIP3   OH237207   4.985   5.507   0.509 -0.0775  0.0390 -0.2786
 5191TIP3    H137208   4.904   5.557   0.517  0.6911  1.2617  0.0523
 5191TIP3    H237209   5.037   5.554   0.444  1.9584  1.5779  2.2530
 5192TIP3   OH237210   5.146   2.041   1.233 -0.2036  0.0662 -0.1383
 5192TIP3    H137211   5.093   2.001   1.302  0.2191  0.8641  0.6726
 5192TIP3    H237212   5.232   2.055   1.274 -0.1740  1.2547 -0.5566
 5193TIP3   OH237213   1.519   5.614   6.115  0.0181  0.2482 -0.6095
 5193TIP3    H137214   1.557   5.531   6.142 -0.8158 -0.3339 -1.1825
 5193TIP3    H237215   1.432   5.615   6.156 -0.7427 -0.0576 -2.1553
 5194TIP3   OH237216   2.521   4.433   6.878 -0.6611 -0.6234 -0.2685
 5194TIP3    H137217   2.584   4.464   6.814  1.2793 -1.3006  1.2371
 5194TIP3    H237218   2.445   4.491   6.867  0.4817  0.6876 -1.6179
 5195TIP3   OH237219   4.421   6.691   8.265  0.6427  0.2732 -0.0550
 5195TIP3    H137220   4.432   6.604   8.226 -0.1167  0.0480  0.2221
 5195TIP3    H237221   4.411   6.675   8.359  4.5029  0.9305  0.6585
 5196TIP3   OH237222   3.849   6.767   0.766  0.6472  0.3371 -0.5040
 5196TIP3    H137223   3.800   6.685   0.766  1.4366 -0.1629  0.9031
 5196TIP3    H237224   3.831   6.806   0.851  0.5433  1.4913 -1.0308
 5197TIP3   OH237225   3.362   3.274   1.269  0.0748 -0.1670  0.4351
 5197TIP3    H137226   3.387   3.275   1.177  0.7190 -1.6883  0.5571
 5197TIP3    H237227   3.401   3.194   1.304  0.0710  0.5035  2.1051
 5198TIP3   OH237228   4.389   3.737   1.636 -0.2504  0.5111  0.3866
 5198TIP3    H137229   4.455   3.758   1.702  0.3889 -1.1927  0.3461
 5198TIP3    H237230   4.324   3.807   1.644 -0.1485  0.4168  2.7577
 5199TIP3   OH237231   3.063   5.356   8.001  0.2508  0.2814 -0.3643
 5199TIP3    H137232   3.076   5.382   7.910 -1.3815 -0.4311 -0.8442
 5199TIP3    H237233   3.143   5.383   8.046  1.5821 -0.3907 -2.2244
 5200TIP3   OH237234   6.648   0.285   7.621  0.0813 -0.0468  0.7967
 5200TIP3    H137235   6.690   0.327   7.545 -1.2700 -0.8578 -0.4555
 5200TIP3    H237236   6.590   0.219   7.583 -1.3403  0.1425  2.5098
 5201TIP3   OH237237   3.196   4.229   1.439  0.2275  0.2680 -0.0758
 5201TIP3    H137238   3.151   4.182   1.510  1.2889 -0.5766  0.0765
 5201TIP3    H237239   3.234   4.306   1.481 -1.0413  0.9907 -0.2077
 5202TIP3   OH237240   1.963   6.533   1.386  0.3249 -0.4385  0.4779
 5202TIP3    H137241   2.055   6.555   1.376  0.9801 -2.5363  1.3935
 5202TIP3    H237242   1.961   6.469   1.458 -1.7857 -0.8283  0.1465
 5203TIP3   OH237243   6.258   4.802   0.844  0.3565  0.0324  0.0122
 5203TIP3    H137244   6.270   4.783   0.751 -1.8872  0.2813 -0.3838
 5203TIP3    H237245   6.306   4.733   0.889 -0.8298 -1.8034 -1.3722
 5204TIP3   OH237246   3.726   3.844   7.274  0.4343  0.3958  0.1183
 5204TIP3    H137247   3.737   3.881   7.186  0.5024  1.1463  0.4368
 5204TIP3    H237248   3.674   3.909   7.321  0.0160 -0.2127  0.5072
 5205TIP3   OH237249   3.879   1.741   8.609  0.3903  0.1512 -0.2833
 5205TIP3    H137250   3.891   1.658   8.562  0.5200  1.0364 -1.8899
 5205TIP3    H237251   3.929   1.730   8.690 -0.6042 -1.7754  0.1191
 5206TIP3   OH237252   3.177   5.217   7.431  0.5099 -0.5871  0.1730
 5206TIP3    H137253   3.103   5.253   7.479 -1.0031 -0.4122 -2.1363
 5206TIP3    H237254   3.238   5.290   7.422 -0.7768  0.3902 -1.1152
 5207TIP3   OH237255   5.615   4.400   1.507  0.1467  0.8084  0.0387
 5207TIP3    H137256   5.526   4.379   1.535 -0.3905  0.4174 -1.7959
 5207TIP3    H237257   5.668   4.394   1.586 -1.1933 -0.4999  0.8810
 5208TIP3   OH237258   3.406   0.767   1.318 -0.3823 -0.0212 -1.0900
 5208TIP3    H137259   3.477   0.778   1.382 -0.7566 -1.1149 -0.4657
 5208TIP3    H237260   3.371   0.856   1.307  0.0660  0.2829 -0.2168
 5209TIP3   OH237261   2.113   0.926   8.323 -0.4831 -0.2269 -0.2829
 5209TIP3    H137262   2.154   0.844   8.296 -1.1898 -0.4649 -0.6623
 5209TIP3    H237263   2.131   0.931   8.417 -0.3837 -0.7874 -0.2649
 5210TIP3   OH237264   4.647   2.147   8.624 -0.1355  0.2463  0.4535
 5210TIP3    H137265   4.593   2.172   8.550  0.3317 -0.6107 -0.1888
 5210TIP3    H237266   4.730   2.193   8.611 -0.3880  0.8618  0.9698
 5211TIP3   OH237267   6.229   4.186   7.511  0.3960 -0.3780 -0.0029
 5211TIP3    H137268   6.171   4.174   7.435  0.7824  1.0986 -0.5722
 5211TIP3    H237269   6.311   4.217   7.473  0.9634 -0.6961  0.9456
 5212TIP3   OH237270   0.489   5.132   1.648 -0.0612  0.5533  0.2466
 5212TIP3    H137271   0.561   5.196   1.646 -1.1341  1.8052 -0.0958
 5212TIP3    H237272   0.412   5.182   1.621 -0.6589 -1.3274 -1.7821
 5213TIP3   OH237273   0.567   6.741   6.238  0.3454 -0.1537 -0.0167
 5213TIP3    H137274   0.635   6.725   6.304 -0.4885  0.5423  1.0544
 5213TIP3    H237275   0.492   6.690   6.269 -0.5530  1.3801  0.4496
 5214TIP3   OH237276   5.657   4.534   0.846  1.0900  0.3558 -0.4353
 5214TIP3    H137277   5.746   4.535   0.882 -0.1897  0.0939  3.1379
 5214TIP3    H237278   5.633   4.441   0.843  0.9177  0.4200 -1.4616
 5215TIP3   OH237279   5.848   1.832   8.787 -0.3278  0.2373 -0.5400
 5215TIP3    H137280   5.835   1.737   8.792 -2.2401  0.4270 -1.1056
 5215TIP3    H237281   5.797   1.859   8.711  0.5891  1.6692 -0.6755
 5216TIP3   OH237282   2.589   0.261   0.680 -0.3576  0.3553 -0.3086
 5216TIP3    H137283   2.597   0.340   0.733  1.0782  0.3299 -0.4723
 5216TIP3    H237284   2.496   0.239   0.686 -0.3713  0.7519  1.5911
 5217TIP3   OH237285   0.276   1.954   1.298 -0.3601 -0.3549  0.0116
 5217TIP3    H137286   0.325   1.970   1.379 -0.6562 -1.9597  0.5499
 5217TIP3    H237287   0.278   2.038   1.251  1.3016  0.1310  0.8701
 5218TIP3   OH237288   6.027   4.113   1.122  0.2902 -0.2641  0.2112
 5218TIP3    H137289   6.064   4.172   1.188 -0.5286  1.5545 -0.8989
 5218TIP3    H237290   6.071   4.137   1.041 -1.2500 -0.0268 -0.5729
 5219TIP3   OH237291   4.440   3.204   6.648  0.8142  0.6114  0.0320
 5219TIP3    H137292   4.526   3.163   6.639  0.6818  0.5957 -1.3578
 5219TIP3    H237293   4.382   3.133   6.674  0.5146 -0.2557 -2.7165
 5220TIP3   OH237294   4.022   2.423   7.288  0.1758  0.2652  0.5131
 5220TIP3    H137295   4.002   2.517   7.293  0.1494  0.2381  1.0166
 5220TIP3    H237296   4.091   2.417   7.222 -0.2337  0.5696  0.0595
 5221TIP3   OH237297   4.924   2.264   8.627 -0.0992  0.0196  0.0051
 5221TIP3    H137298   4.989   2.252   8.557  2.1661 -0.0194  1.9889
 5221TIP3    H237299   4.939   2.353   8.659 -0.8654 -0.0787  0.6725
 5222TIP3   OH237300   6.409   6.033   8.140 -0.4821  0.1818  0.0480
 5222TIP3    H137301   6.423   6.117   8.097  1.4241  0.7037  1.5449
 5222TIP3    H237302   6.327   6.044   8.188  0.3921  1.6856  1.2678
 5223TIP3   OH237303   3.331   4.952   8.234  0.0055  0.7056  0.3809
 5223TIP3    H137304   3.394   4.882   8.251  0.7385  1.1903 -0.2562
 5223TIP3    H237305   3.246   4.909   8.237  0.4565 -0.2569 -0.2315
 5224TIP3   OH237306   0.344   0.114   0.745  0.3113 -0.0107 -0.6051
 5224TIP3    H137307   0.282   0.159   0.802  1.8047  0.3345  0.8367
 5224TIP3    H237308   0.422   0.102   0.799  1.4232 -0.6487 -2.2545
 5225TIP3   OH237309   3.674   4.323   7.333 -0.2975 -0.1848  0.3444
 5225TIP3    H137310   3.728   4.310   7.411 -0.2809  1.0147  0.5564
 5225TIP3    H237311   3.736   4.336   7.262 -0.2932  0.4351  0.4525
 5226TIP3   OH237312   6.435   4.744   7.796 -0.8900 -0.0448  0.0096
 5226TIP3    H137313   6.448   4.815   7.859 -0.5184 -0.5496  0.5059
 5226TIP3    H237314   6.370   4.779   7.734 -0.6610  0.7565  0.2001
 5227TIP3   OH237315   5.434   5.639   7.694 -0.0263  0.3447  0.3679
 5227TIP3    H137316   5.525   5.616   7.711  0.1661 -0.6575 -1.7908
 5227TIP3    H237317   5.438   5.714   7.635 -0.5389 -0.6022 -0.9244
 5228TIP3   OH237318   5.646   6.516   0.652 -0.3122 -0.5080  0.3040
 5228TIP3    H137319   5.567   6.519   0.599 -0.3035 -1.0411  0.2586
 5228TIP3    H237320   5.657   6.424   0.675 -0.1646 -0.3262  1.0037
 5229TIP3   OH237321   4.927   0.567   0.999 -0.1345 -0.0539 -0.1192
 5229TIP3    H137322   5.009   0.580   0.951 -1.2679 -0.0493 -2.1753
 5229TIP3    H237323   4.883   0.652   0.994  0.2763  0.3421  2.1505
 5230TIP3   OH237324   2.172   3.443   8.341 -0.1523  0.2431  0.2889
 5230TIP3    H137325   2.140   3.422   8.252  0.1245  0.3334  0.1673
 5230TIP3    H237326   2.266   3.425   8.337 -0.2516 -0.4379  0.7684
 5231TIP3   OH237327   4.913   4.250   1.155  0.4519  0.3873 -0.5117
 5231TIP3    H137328   4.825   4.243   1.192 -0.0560  1.0547 -1.5456
 5231TIP3    H237329   4.970   4.210   1.221 -0.7034 -0.7898 -0.1821
 5232TIP3   OH237330   3.606   2.975   7.654  0.1998 -0.3797 -0.4397
 5232TIP3    H137331   3.658   2.895   7.646 -0.2800 -0.6400 -1.0835
 5232TIP3    H237332   3.515   2.946   7.649  0.0152  0.1956 -0.5969
 5233TIP3   OH237333   1.519   1.666   6.768  0.0447 -0.2646 -0.1554
 5233TIP3    H137334   1.581   1.700   6.832 -0.1757 -0.3980  0.1301
 5233TIP3    H237335   1.522   1.571   6.779  2.8963 -0.6727 -2.9789
 5234TIP3   OH237336   5.240   4.056   0.505  0.3120 -0.4854 -0.5999
 5234TIP3    H137337   5.245   3.984   0.441  2.4956  0.1563 -1.2335
 5234TIP3    H237338   5.159   4.102   0.482 -1.3954 -2.9389  0.1074
 5235TIP3   OH237339   1.122   1.157   0.998 -0.0549 -0.1401 -0.0613
 5235TIP3    H137340   1.103   1.124   0.910 -0.9038  1.5524 -0.5706
 5235TIP3    H237341   1.089   1.090   1.057 -1.5839 -0.3035 -1.0391
 5236TIP3   OH237342   6.021   5.158   6.593 -0.0521  0.4471 -0.3582
 5236TIP3    H137343   6.078   5.189   6.522 -0.7162  0.0184 -1.0883
 5236TIP3    H237344   5.995   5.238   6.639  0.8090  0.6831 -0.2573
 5237TIP3   OH237345   1.371   1.498   0.264 -0.3497  0.1844  0.1434
 5237TIP3    H137346   1.383   1.528   0.173 -0.3650 -0.1336  0.0366
 5237TIP3    H237347   1.289   1.538   0.292 -0.1910  0.5321  0.1193
 5238TIP3   OH237348   0.703   2.444   1.313  0.0507 -0.0578  0.2766
 5238TIP3    H137349   0.790   2.412   1.290  0.3772 -2.1528  3.7390
 5238TIP3    H237350   0.644   2.401   1.251  1.2417 -0.7222 -0.4194
 5239TIP3   OH237351   5.170   5.336   0.297 -0.4866 -0.1911 -0.4345
 5239TIP3    H137352   5.191   5.337   0.204  1.7389  2.6441 -0.0230
 5239TIP3    H237353   5.080   5.371   0.302 -1.6601 -2.8036 -1.5785
 5240TIP3   OH237354   4.422   5.571   1.123  0.3543  0.5032 -0.4205
 5240TIP3    H137355   4.509   5.601   1.150  0.1488  0.3670  0.4255
 5240TIP3    H237356   4.378   5.548   1.205  0.4577 -2.0235 -1.0067
 5241TIP3   OH237357   4.513   0.109   1.403  0.0109 -0.1964 -0.4960
 5241TIP3    H137358   4.418   0.120   1.400 -0.3133 -1.8512  1.5796
 5241TIP3    H237359   4.526   0.018   1.431  2.1424  0.7325  1.8583
 5242TIP3   OH237360   3.482   5.993   8.843  0.1136 -0.4748  0.7078
 5242TIP3    H137361   3.433   6.025   8.919 -0.4903 -1.4203  0.7352
 5242TIP3    H237362   3.449   5.904   8.829  1.6242 -1.0367  0.5448
 5243TIP3   OH237363   5.579   2.997   1.080 -0.0544  0.0489 -0.1247
 5243TIP3    H137364   5.580   2.911   1.122 -0.6313  0.9768  1.8880
 5243TIP3    H237365   5.517   3.049   1.132 -0.5916  1.3626 -1.9779
 5244TIP3   OH237366   6.815   6.676   0.630  0.4817  0.2472  0.1282
 5244TIP3    H137367   6.774   6.617   0.567  1.2026  1.7154 -1.8179
 5244TIP3    H237368   6.742   6.720   0.673 -0.0282  0.1479 -0.6209
 5245TIP3   OH237369   4.860   1.326   7.527 -0.0039  0.5661  0.9906
 5245TIP3    H137370   4.831   1.418   7.525  0.3033  0.7442  2.6412
 5245TIP3    H237371   4.897   1.315   7.615 -1.7760 -1.6613  1.5530
 5246TIP3   OH237372   1.582   3.733   1.445 -0.1003  0.2034  0.4250
 5246TIP3    H137373   1.640   3.768   1.512  0.8759  1.0396 -0.8089
 5246TIP3    H237374   1.637   3.674   1.394 -0.9033 -0.6515  0.5056
 5247TIP3   OH237375   2.897   0.679   0.022  0.6838  0.6318 -0.3651
 5247TIP3    H137376   2.903   0.659  -0.071 -0.2267  1.9822 -0.7550
 5247TIP3    H237377   2.977   0.729   0.041  2.2623 -1.9607  0.2868
 5248TIP3   OH237378   6.269   2.346   1.037 -0.7985  0.2218  0.5174
 5248TIP3    H137379   6.197   2.358   0.974  0.5938 -0.3456 -1.2585
 5248TIP3    H237380   6.257   2.256   1.069 -0.9994  0.2116  0.4185
 5249TIP3   OH237381   4.948   4.853   6.685  0.2949  0.3180  0.0968
 5249TIP3    H137382   4.877   4.918   6.686 -0.5715 -0.5984  1.4297
 5249TIP3    H237383   4.920   4.787   6.749  1.7658 -0.7085 -0.2939
 5250TIP3   OH237384   5.434   2.488   1.186 -0.0669  0.0784 -0.1163
 5250TIP3    H137385   5.504   2.424   1.182 -0.4629 -0.4581  0.9716
 5250TIP3    H237386   5.355   2.439   1.162 -0.2903  0.2849  0.1830
 5251TIP3   OH237387   1.080   6.224   6.803 -0.4988  0.4841 -0.1230
 5251TIP3    H137388   1.151   6.236   6.740 -0.2763 -1.4762 -0.3000
 5251TIP3    H237389   1.066   6.129   6.806 -0.4578  0.4868  2.8471
 5252TIP3   OH237390   5.156   2.329   1.223 -0.0124  0.1862 -0.0223
 5252TIP3    H137391   5.129   2.375   1.303  3.1700  1.3182  0.5587
 5252TIP3    H237392   5.131   2.238   1.238 -0.0695  0.4786  2.0084
 5253TIP3   OH237393   3.527   3.016   0.943  0.5432  0.2229 -0.2302
 5253TIP3    H137394   3.470   2.954   0.989 -1.2777  2.6200  1.0198
 5253TIP3    H237395   3.532   3.092   1.002 -0.7431  2.9300 -3.2886
 5254TIP3   OH237396   0.776   2.259   0.254 -0.0269 -0.5893  0.0849
 5254TIP3    H137397   0.825   2.334   0.289 -0.7848 -0.1828  0.3052
 5254TIP3    H237398   0.831   2.225   0.183 -0.1820  0.8971 -0.8015
 5255TIP3   OH237399   3.242   2.839   6.953  0.4377  0.2859 -0.5823
 5255TIP3    H137400   3.269   2.749   6.937 -0.6432  0.0571 -1.1963
 5255TIP3    H237401   3.319   2.892   6.930  0.9370 -0.4476 -0.6190
 5256TIP3   OH237402   3.847   3.509   1.242  0.3729 -0.0167 -0.4419
 5256TIP3    H137403   3.837   3.416   1.261 -2.9839  0.2150 -0.4723
 5256TIP3    H237404   3.820   3.519   1.151  0.6873  0.9681 -0.4402
 5257TIP3   OH237405   5.961   4.427   7.764 -0.3460 -0.2093  0.6494
 5257TIP3    H137406   6.046   4.425   7.719  0.6448 -0.6642  2.4518
 5257TIP3    H237407   5.925   4.513   7.742 -0.6178 -0.9588 -2.1765
 5258TIP3   OH237408   0.625   6.227   1.377 -0.0137  0.1526  0.0801
 5258TIP3    H137409   0.684   6.285   1.424 -0.4283  0.9820 -0.3981
 5258TIP3    H237410   0.632   6.254   1.286 -0.5264 -0.2682 -0.0907
 5259TIP3   OH237411   5.984   2.826   7.620 -0.2779  0.1162  0.4303
 5259TIP3    H137412   6.025   2.765   7.682 -1.4868 -0.3732  0.7648
 5259TIP3    H237413   5.904   2.782   7.592  0.1466  0.4220 -1.3431
 5260TIP3   OH237414   3.877   6.109   7.313 -0.0382 -0.2911 -0.1402
 5260TIP3    H137415   3.819   6.114   7.237  0.5452 -0.5127 -0.6083
 5260TIP3    H237416   3.818   6.104   7.388 -0.6254 -0.9100 -0.6312
 5261TIP3   OH237417   1.160   4.494   0.435 -0.0707  0.0178  0.2404
 5261TIP3    H137418   1.173   4.548   0.513 -0.1247  0.1678  0.1474
 5261TIP3    H237419   1.081   4.444   0.453 -0.1627  0.1567  0.2244
 5262TIP3   OH237420   2.398   5.593   2.599 -0.5363  0.0683 -0.4768
 5262TIP3    H137421   2.365   5.675   2.564  0.2942  1.0713  1.0121
 5262TIP3    H237422   2.321   5.535   2.598 -1.6651  1.4949  0.3574
 5263TIP3   OH237423   0.869   0.510   0.902  0.2627  0.3596 -0.4245
 5263TIP3    H137424   0.785   0.474   0.931 -0.4834  0.5973 -2.1803
 5263TIP3    H237425   0.926   0.434   0.893 -0.0295  0.0968 -0.0944
 5264TIP3   OH237426   0.294   5.527   6.462 -0.2488 -0.6038  0.1272
 5264TIP3    H137427   0.375   5.478   6.446  0.0240 -0.3501  0.6959
 5264TIP3    H237428   0.224   5.465   6.441  0.0768 -0.4422 -1.5645
 5265TIP3   OH237429   3.299   4.481   8.837  0.2742 -0.1787  0.4161
 5265TIP3    H137430   3.394   4.464   8.834 -0.0118 -2.4866  1.9744
 5265TIP3    H237431   3.261   4.399   8.867 -2.2011  0.9132  0.4918
 5266TIP3   OH237432   1.473   4.197   1.697 -0.3829 -0.4922  0.3978
 5266TIP3    H137433   1.539   4.242   1.749 -0.6181  0.6517 -0.2451
 5266TIP3    H237434   1.391   4.239   1.720 -0.4573  0.2501 -1.0600
 5267TIP3   OH237435   3.522   4.407   2.083 -0.1089  0.0418  0.0584
 5267TIP3    H137436   3.539   4.394   1.990  0.7894 -0.4236  0.2689
 5267TIP3    H237437   3.561   4.330   2.125 -1.8969 -0.5735  0.6934
 5268TIP3   OH237438   3.143   0.410   7.634  0.2671  0.2817  0.3062
 5268TIP3    H137439   3.196   0.334   7.613 -0.5871 -0.3138  0.2663
 5268TIP3    H237440   3.100   0.387   7.716  0.4033  0.9355  0.5687
 5269TIP3   OH237441   0.876   2.944   6.865  0.0713 -0.1818  0.3219
 5269TIP3    H137442   0.864   2.900   6.949  0.7797 -1.2799 -0.1267
 5269TIP3    H237443   0.792   2.936   6.821 -0.6845  1.4191  1.3468
 5270TIP3   OH237444   1.210   3.201   0.959 -0.9468  0.0941 -0.2294
 5270TIP3    H137445   1.303   3.188   0.982 -0.6618  0.8192 -0.9116
 5270TIP3    H237446   1.208   3.197   0.864 -1.6257  0.0672 -0.2164
 5271TIP3   OH237447   4.354   0.962   7.301 -0.4102  0.4622 -0.0278
 5271TIP3    H137448   4.258   0.962   7.306 -0.3542  0.6706  1.7385
 5271TIP3    H237449   4.379   0.875   7.334 -0.0032  0.0210 -1.4448
 5272TIP3   OH237450   2.710   2.812   1.885 -0.3135  0.3039 -0.9808
 5272TIP3    H137451   2.682   2.756   1.813 -0.2670  1.9389 -2.3443
 5272TIP3    H237452   2.787   2.767   1.922 -2.6260 -2.5773  0.7310
 5273TIP3   OH237453   0.182   5.886   7.550 -0.1741  0.1780 -0.3031
 5273TIP3    H137454   0.160   5.793   7.558  0.3754 -0.0201 -0.9666
 5273TIP3    H237455   0.101   5.927   7.520  0.0575 -0.3972 -1.8241
 5274TIP3   OH237456   5.397   2.749   7.350  0.1151  0.1310 -0.0112
 5274TIP3    H137457   5.368   2.834   7.317  1.1476  0.1782 -0.8787
 5274TIP3    H237458   5.422   2.700   7.271 -0.6942 -1.0765  0.4540
 5275TIP3   OH237459   2.746   3.099   7.138  0.7804  0.2592  0.1110
 5275TIP3    H137460   2.780   3.125   7.224  2.7367 -0.1053 -0.5257
 5275TIP3    H237461   2.819   3.109   7.078 -0.5841  0.6273 -1.5831
 5276TIP3   OH237462   0.041   0.007   6.135 -0.3222  0.1990  0.3379
 5276TIP3    H137463   0.033   0.097   6.166 -1.3281 -0.1378  1.0917
 5276TIP3    H237464   0.060  -0.044   6.213 -0.5912 -0.3534  0.0452
 5277TIP3   OH237465   2.336   5.687   7.404  0.2126  0.0967  0.2257
 5277TIP3    H137466   2.329   5.781   7.420  1.2774  0.3797 -0.8076
 5277TIP3    H237467   2.247   5.658   7.386 -0.6558  0.2582  3.6631
 5278TIP3   OH237468   6.754   2.177   7.558 -0.2060 -0.3612 -0.1369
 5278TIP3    H137469   6.760   2.163   7.653  1.8416 -1.0689 -0.3154
 5278TIP3    H237470   6.711   2.098   7.525 -0.7777 -0.1862  0.1862
 5279TIP3   OH237471   2.919   3.345   2.239  0.6444 -0.0168 -0.1469
 5279TIP3    H137472   2.989   3.392   2.193  0.6985 -0.4715 -0.5475
 5279TIP3    H237473   2.840   3.396   2.221  0.4389 -0.8311 -1.8140
 5280TIP3   OH237474   4.242   5.923   0.862 -0.2618 -0.1225  0.5304
 5280TIP3    H137475   4.249   5.841   0.911 -1.1575 -1.6025 -1.6682
 5280TIP3    H237476   4.332   5.955   0.856  0.0162 -0.5347  2.0350
 5281TIP3   OH237477   3.885   5.527   0.004 -0.3644  0.3363  0.2991
 5281TIP3    H137478   3.915   5.587  -0.064  0.2634  0.0864  0.3406
 5281TIP3    H237479   3.951   5.536   0.074  0.3744 -1.1881 -0.1488
 5282TIP3   OH237480   3.828   4.189   0.390  0.3369  0.1816 -0.3211
 5282TIP3    H137481   3.741   4.187   0.350  0.9877 -2.7756 -1.9235
 5282TIP3    H237482   3.865   4.272   0.363 -1.4738  0.8806 -0.7962
 5283TIP3   OH237483   5.666   5.862   1.283  0.3913 -0.0485 -0.2922
 5283TIP3    H137484   5.697   5.802   1.350 -1.9622 -2.9870 -1.5677
 5283TIP3    H237485   5.591   5.906   1.323  1.0696  0.7911  0.0790
 5284TIP3   OH237486   6.305   0.056   0.709  0.2220 -0.5221 -0.3366
 5284TIP3    H137487   6.329   0.143   0.741 -2.3476 -0.2484  1.1136
 5284TIP3    H237488   6.304   0.065   0.614  2.3415  0.2877 -0.3424
 5285TIP3   OH237489   6.391   3.617   1.139  0.6181 -0.3265  0.4436
 5285TIP3    H137490   6.428   3.649   1.221  1.7496 -1.5088  0.4309
 5285TIP3    H237491   6.457   3.556   1.106 -0.0837 -0.3025 -1.0591
 5286TIP3   OH237492   3.099   2.944   8.008  0.4258 -0.2204 -0.1757
 5286TIP3    H137493   3.122   2.977   8.094 -0.7224 -0.0803  0.0894
 5286TIP3    H237494   3.137   3.007   7.947 -2.8557  2.5720  0.3132
 5287TIP3   OH237495   4.838   6.820   7.417 -0.3701 -0.1449  0.7564
 5287TIP3    H137496   4.853   6.871   7.497 -0.2668  1.1899 -0.0861
 5287TIP3    H237497   4.833   6.885   7.348 -2.0708 -1.1503 -0.1356
 5288TIP3   OH237498   0.416   6.495   8.208 -0.0739  0.3572 -0.2243
 5288TIP3    H137499   0.419   6.400   8.194 -1.2296  0.5344 -1.9869
 5288TIP3    H237500   0.322   6.516   8.206  0.0986  1.4030  1.2999
 5289TIP3   OH237501   6.016   6.235   7.777 -0.4542  0.3693  0.0829
 5289TIP3    H137502   6.019   6.323   7.740  0.2268  0.5685  0.5977
 5289TIP3    H237503   6.020   6.248   7.871 -2.0742 -0.1382  0.2499
 5290TIP3   OH237504   0.139   5.071   1.992  0.2885  0.1137  0.5827
 5290TIP3    H137505   0.230   5.081   1.963  0.2328 -0.7281  0.0780
 5290TIP3    H237506   0.146   5.018   2.072  0.1894 -0.9009 -0.0537
 5291TIP3   OH237507   4.238   0.085   1.480 -0.1131 -0.5114 -0.1081
 5291TIP3    H137508   4.181   0.124   1.546  0.3184 -0.5433  0.2915
 5291TIP3    H237509   4.180   0.035   1.424 -0.6162  0.3087 -0.3381
 5292TIP3   OH237510   1.297   0.114   7.412 -0.4792  0.3655  0.5094
 5292TIP3    H137511   1.261   0.191   7.367 -1.2155 -0.1426  0.1909
 5292TIP3    H237512   1.340   0.149   7.490  2.9999  1.5519 -1.7389
 5293TIP3   OH237513   4.502   4.221   0.674  0.5163  0.6503 -0.1205
 5293TIP3    H137514   4.517   4.204   0.767 -0.3949  0.0087 -0.0807
 5293TIP3    H237515   4.408   4.235   0.667  0.7916  2.4721 -0.6784
 5294TIP3   OH237516   3.933   3.379   6.474 -0.0308  0.0715 -0.7360
 5294TIP3    H137517   4.020   3.395   6.512  0.4363 -0.9266 -1.3663
 5294TIP3    H237518   3.907   3.464   6.438 -0.4972  1.1005  1.7419
 5295TIP3   OH237519   0.990   5.185   8.271  0.0316 -0.0971  0.6133
 5295TIP3    H137520   0.959   5.094   8.267  0.1958 -0.1516  0.5485
 5295TIP3    H237521   1.038   5.197   8.189 -0.6700  0.3016  0.2484
 5296TIP3   OH237522   3.635   6.379   1.526 -0.1923 -0.6783  0.4015
 5296TIP3    H137523   3.600   6.326   1.598  0.8588  0.1079  1.5570
 5296TIP3    H237524   3.560   6.397   1.469 -0.7362 -2.6664  0.4249
 5297TIP3   OH237525   4.938   1.101   0.687  0.2220  0.6823 -0.4514
 5297TIP3    H137526   4.879   1.131   0.618 -0.9328 -0.3262  0.0764
 5297TIP3    H237527   4.946   1.007   0.673  0.0501  0.4768  0.7215
 5298TIP3   OH237528   6.536   3.432   8.012  0.6522  0.3096 -0.1244
 5298TIP3    H137529   6.472   3.430   8.084  1.3416  2.3938  0.6283
 5298TIP3    H237530   6.482   3.433   7.933 -0.1361 -1.4984  0.3323
 5299TIP3   OH237531   2.547   5.938   5.985  0.0432  0.2828 -0.0038
 5299TIP3    H137532   2.610   5.874   6.017  1.7888  1.4513 -0.9459
 5299TIP3    H237533   2.548   6.008   6.049 -2.2950 -0.7796  1.3321
 5300TIP3   OH237534   1.892   4.709   1.343  1.1536 -0.3425 -0.6036
 5300TIP3    H137535   1.838   4.672   1.273  1.0363  0.9380 -1.2169
 5300TIP3    H237536   1.837   4.704   1.421  0.2683  0.5920 -1.1414
 5301TIP3   OH237537   4.168   2.960   1.228  0.0425 -0.4124  0.2172
 5301TIP3    H137538   4.248   2.974   1.176  0.1554  0.7413  0.6823
 5301TIP3    H237539   4.124   3.045   1.228 -2.3625 -1.5009 -1.8814
 5302TIP3   OH237540   0.641   5.629   1.594 -0.2000  0.7046 -0.3407
 5302TIP3    H137541   0.548   5.608   1.604 -0.7711  3.2369  0.2077
 5302TIP3    H237542   0.669   5.658   1.680  0.9330  0.6687 -0.6754
 5303TIP3   OH237543   3.895   5.200   1.721 -0.0467  0.1480 -0.2492
 5303TIP3    H137544   3.950   5.205   1.799 -0.9753  0.6501  0.4059
 5303TIP3    H237545   3.955   5.208   1.647  0.8829 -0.6407  0.4036
 5304TIP3   OH237546   5.682   4.463   2.152  0.3343  0.9226 -0.3717
 5304TIP3    H137547   5.702   4.555   2.137  2.2243  0.8338  1.2158
 5304TIP3    H237548   5.766   4.418   2.146  0.1686 -0.0597  2.7928
 5305TIP3   OH237549   1.609   2.202   8.166 -0.0501  0.9800  0.8452
 5305TIP3    H137550   1.581   2.220   8.076  1.3279  0.2266  0.2316
 5305TIP3    H237551   1.655   2.118   8.160 -1.7145 -0.1426  2.6364
 5306TIP3   OH237552   2.425   5.784   5.486  0.6200 -0.2751 -0.0560
 5306TIP3    H137553   2.426   5.840   5.564 -0.2238 -0.0882 -0.1634
 5306TIP3    H237554   2.362   5.715   5.508 -0.4317  0.3612 -0.9373
 5307TIP3   OH237555   0.340   1.444   0.873 -0.2733  0.2624  0.6671
 5307TIP3    H137556   0.410   1.454   0.809  0.3877  0.5607  1.4171
 5307TIP3    H237557   0.286   1.523   0.861 -0.6327 -0.0892 -0.0800
 5308TIP3   OH237558   5.836   2.840   1.592 -0.0670  0.1791  0.7330
 5308TIP3    H137559   5.863   2.901   1.661 -0.4604  1.0172  0.1699
 5308TIP3    H237560   5.872   2.878   1.511 -1.2444  0.2776  0.2292
 5309TIP3   OH237561   3.741   4.250   1.327 -0.0036  0.2437 -0.3274
 5309TIP3    H137562   3.779   4.263   1.239 -0.3175 -1.5244 -0.7571
 5309TIP3    H237563   3.687   4.172   1.318  2.6105 -2.1125  2.2164
 5310TIP3   OH237564   1.106   1.171   8.520  0.4083 -0.3258  0.5031
 5310TIP3    H137565   1.120   1.077   8.534  0.9876 -0.1305  1.3598
 5310TIP3    H237566   1.057   1.199   8.597  1.9705  0.4281  1.2731
 5311TIP3   OH237567   1.319   5.793   7.325  0.5303 -0.3131 -0.3156
 5311TIP3    H137568   1.391   5.729   7.323  0.7310 -0.0856 -0.5289
 5311TIP3    H237569   1.261   5.765   7.255  0.4580 -0.4444 -0.2034
 5312TIP3   OH237570   1.382   4.024   8.780 -0.1267 -0.2166 -1.4959
 5312TIP3    H137571   1.309   3.963   8.766 -0.3502 -0.5843  0.8883
 5312TIP3    H237572   1.457   3.967   8.797  0.0852  0.1656 -1.1359
 5313TIP3   OH237573   1.751   3.824   2.117  0.2203  0.3063 -0.4370
 5313TIP3    H137574   1.834   3.849   2.159  0.5108  0.3752 -1.0475
 5313TIP3    H237575   1.692   3.897   2.138  0.3465  0.3181 -0.1077
 5314TIP3   OH237576   1.573   1.968   6.969 -0.3070  0.3600 -0.4302
 5314TIP3    H137577   1.621   1.925   6.898  1.2819  1.3498 -0.0133
 5314TIP3    H237578   1.560   1.899   7.034 -1.4872 -0.4776 -1.5042
 5315TIP3   OH237579   5.014   0.883   8.566  0.2542  0.6081 -0.0548
 5315TIP3    H137580   5.089   0.917   8.517  1.1079 -0.7794  0.2328
 5315TIP3    H237581   5.047   0.871   8.655  0.0037 -0.9104 -0.1365
 5316TIP3   OH237582   2.082   0.005   0.586  0.1972 -0.2192 -0.1990
 5316TIP3    H137583   2.158   0.014   0.528  0.5926 -1.1231  0.1655
 5316TIP3    H237584   2.010  -0.018   0.528  0.2211  0.5141 -0.5330
 5317TIP3   OH237585   4.467   0.462   0.858 -0.3577  0.3254 -0.4298
 5317TIP3    H137586   4.476   0.488   0.950  0.8337  1.4913 -0.8404
 5317TIP3    H237587   4.495   0.370   0.857  2.0463  0.9726  0.0387
 5318TIP3   OH237588   6.080   3.042   1.415 -0.1119 -0.1064 -0.6217
 5318TIP3    H137589   6.002   3.095   1.428 -0.5674 -1.2961  2.3119
 5318TIP3    H237590   6.151   3.092   1.455  0.3399  0.1993 -1.7575
 5319TIP3   OH237591   0.242   0.085   6.721  0.3008 -0.2229 -0.2070
 5319TIP3    H137592   0.157   0.065   6.684  0.0201 -1.4573  1.0096
 5319TIP3    H237593   0.280   0.149   6.662 -1.7637  0.9191 -0.3789
 5320TIP3   OH237594   5.606   4.155   0.308  0.8532 -0.0782  0.0819
 5320TIP3    H137595   5.534   4.174   0.247 -0.7820 -1.1238  1.5842
 5320TIP3    H237596   5.598   4.222   0.376  2.0806  0.5134 -0.3328
 5321TIP3   OH237597   0.995   0.673   7.456  0.9419  0.2183  0.6917
 5321TIP3    H137598   0.999   0.707   7.367 -0.4021  2.7164  1.4717
 5321TIP3    H237599   1.028   0.584   7.450  0.8282  0.2916 -2.2916
 5322TIP3   OH237600   4.413   4.607   8.508 -0.0035  0.0733  0.1862
 5322TIP3    H137601   4.487   4.664   8.488 -0.0097  0.5396  1.4466
 5322TIP3    H237602   4.441   4.555   8.583 -1.1605  0.7264  1.1159
 5323TIP3   OH237603   1.549   1.855   0.089  0.7523 -0.2752  0.1979
 5323TIP3    H137604   1.473   1.835   0.035  0.9118 -1.6352  0.4397
 5323TIP3    H237605   1.597   1.922   0.040  0.1214 -0.4016 -0.6116
 5324TIP3   OH237606   2.142   0.043   1.096  0.0422 -0.2642 -0.0719
 5324TIP3    H137607   2.078  -0.022   1.121  1.7180 -1.7960  0.4561
 5324TIP3    H237608   2.176   0.012   1.011  0.4559  0.2225 -0.0902
 5325TIP3   OH237609   1.252   2.672   0.475 -0.3712  0.0685 -0.1603
 5325TIP3    H137610   1.249   2.577   0.491  3.2594 -0.2441 -0.6012
 5325TIP3    H237611   1.263   2.680   0.381  1.5660  0.7560  0.0812
 5326TIP3   OH237612   3.391   5.040   1.698 -0.0733  0.6278  0.3289
 5326TIP3    H137613   3.396   5.115   1.639 -0.7490  0.2929 -0.1571
 5326TIP3    H237614   3.385   5.079   1.785  1.4828  1.1235  0.2491
 5327TIP3   OH237615   3.381   6.484   7.651 -0.0931  0.1480  0.5657
 5327TIP3    H137616   3.316   6.425   7.613 -0.2646 -1.2647  2.8900
 5327TIP3    H237617   3.464   6.436   7.646  0.2238  0.6973  0.3716
 5328TIP3   OH237618   6.009   1.371   8.720 -0.0672  0.0893  0.4172
 5328TIP3    H137619   6.076   1.435   8.746  1.7037 -1.2938 -0.4920
 5328TIP3    H237620   6.031   1.292   8.771 -0.3431 -0.7197 -0.6862
 5329TIP3   OH237621   1.788   2.377   1.334  0.2719 -0.2871 -0.7240
 5329TIP3    H137622   1.859   2.314   1.325  0.3713 -0.5360  1.2968
 5329TIP3    H237623   1.724   2.333   1.390 -1.2432  0.1554 -2.0101
 5330TIP3   OH237624   4.099   1.669   8.773 -0.0550 -0.6800  0.3012
 5330TIP3    H137625   4.149   1.599   8.815  0.0166  0.4737  2.2537
 5330TIP3    H237626   4.165   1.735   8.751 -0.3406 -0.4645  0.0813
 5331TIP3   OH237627   1.945   0.784   0.304 -0.3122 -0.3509  0.3553
 5331TIP3    H137628   2.028   0.743   0.327 -0.1144 -0.4873 -0.5543
 5331TIP3    H237629   1.968   0.873   0.277 -0.7106  0.3019  2.0550
 5332TIP3   OH237630   4.389   2.866   8.717 -0.0515  0.0107  0.4887
 5332TIP3    H137631   4.467   2.813   8.734 -0.3673 -0.2796  1.0530
 5332TIP3    H237632   4.411   2.918   8.639  1.3835  1.2686  1.6897
 5333TIP3   OH237633   2.302   5.900   7.169  0.2410 -0.4549 -0.0385
 5333TIP3    H137634   2.298   5.805   7.184 -1.1189 -0.3879  0.1702
 5333TIP3    H237635   2.272   5.939   7.251  1.5183  0.1977  0.1410
 5334TIP3   OH237636   0.952   4.166   8.170  0.4049 -0.0836  0.0217
 5334TIP3    H137637   0.991   4.189   8.086  1.1053  0.0861  0.3865
 5334TIP3    H237638   0.872   4.218   8.175  1.4303  1.5110  0.3776
 5335TIP3   OH237639   5.615   3.501   6.475  0.3909 -0.2745 -0.2912
 5335TIP3    H137640   5.707   3.529   6.473 -0.0015  1.2384 -2.7127
 5335TIP3    H237641   5.590   3.498   6.382 -1.8815 -1.0820  0.2978
 5336TIP3   OH237642   1.972   2.825   7.768  0.0626  0.2632  0.5289
 5336TIP3    H137643   1.998   2.910   7.734  2.0896 -0.2163  0.8037
 5336TIP3    H237644   2.053   2.785   7.799 -0.9073 -1.6089  0.7794
 5337TIP3   OH237645   2.703   3.639   1.196  0.2996  0.4408 -0.0521
 5337TIP3    H137646   2.649   3.716   1.176 -1.5094 -0.9361 -0.7907
 5337TIP3    H237647   2.773   3.641   1.130 -0.5724  0.6826 -1.0004
 5338TIP3   OH237648   2.294   2.708   2.089  0.1526  0.3463  0.5753
 5338TIP3    H137649   2.273   2.615   2.102  0.5886 -0.0183 -1.1085
 5338TIP3    H237650   2.212   2.747   2.059  0.3139  0.1853 -0.1042
 5339TIP3   OH237651   5.513   6.714   1.964 -0.4066  0.1550  0.4776
 5339TIP3    H137652   5.437   6.771   1.964 -0.7841 -0.2997 -1.1902
 5339TIP3    H237653   5.579   6.761   1.914 -0.2807 -0.2908  0.2124
 5340TIP3   OH237654   2.412   3.388   0.156 -0.4346  0.4049 -0.5748
 5340TIP3    H137655   2.409   3.451   0.085  0.5057  1.1349  0.0174
 5340TIP3    H237656   2.443   3.307   0.116  3.1065  1.5869 -0.5033
 5341TIP3   OH237657   0.533   1.322   8.576 -0.4421 -0.2816 -0.2103
 5341TIP3    H137658   0.578   1.385   8.521  2.1541  0.6217  2.6408
 5341TIP3    H237659   0.489   1.375   8.643  1.3298 -1.3603  1.9197
 5342TIP3   OH237660   2.479   5.047   0.872  0.3503  0.5966  0.4159
 5342TIP3    H137661   2.531   4.976   0.909  0.7635  0.3954 -0.5251
 5342TIP3    H237662   2.542   5.103   0.826 -0.2057  0.5297 -0.4533
 5343TIP3   OH237663   5.066   6.649   8.487 -0.7309  0.4952 -0.1267
 5343TIP3    H137664   5.151   6.684   8.511 -0.2610 -0.1254 -0.8405
 5343TIP3    H237665   5.080   6.554   8.481 -1.4857  0.3803 -0.1973
 5344TIP3   OH237666   2.545   5.394   1.030 -0.2619  0.0617 -0.7173
 5344TIP3    H137667   2.533   5.466   1.091  1.4046  0.3519 -0.6794
 5344TIP3    H237668   2.476   5.405   0.965 -0.1435  1.5875 -0.6062
 5345TIP3   OH237669   6.595   0.995   8.486  0.8735 -0.5760  0.3155
 5345TIP3    H137670   6.627   0.959   8.569  0.8186 -0.4950  0.3718
 5345TIP3    H237671   6.579   0.918   8.431  2.6895 -0.5763 -0.2808
 5346TIP3   OH237672   0.619   1.474   0.778 -0.2048 -0.2589  0.2289
 5346TIP3    H137673   0.701   1.451   0.822 -0.8353 -0.9097  1.0883
 5346TIP3    H237674   0.615   1.570   0.784 -0.4110 -0.3382  1.8775
 5347TIP3   OH237675   3.374   4.431   0.789 -0.1034 -0.0320  0.4572
 5347TIP3    H137676   3.348   4.485   0.864 -1.9786  0.6563 -0.6163
 5347TIP3    H237677   3.291   4.413   0.743  1.0620  0.4037 -1.9778
 5348TIP3   OH237678   4.047   4.691   7.613 -0.6624  0.2926  0.0366
 5348TIP3    H137679   4.078   4.782   7.620  1.3612 -0.5076  3.0731
 5348TIP3    H237680   4.109   4.649   7.553  1.3685 -0.1165  2.2931
 5349TIP3   OH237681   4.671   2.375   7.810  0.2942  0.0933  0.2038
 5349TIP3    H137682   4.753   2.325   7.805 -0.3937 -0.9722 -1.1402
 5349TIP3    H237683   4.608   2.313   7.845 -0.5254  0.0555 -1.2740
 5350TIP3   OH237684   5.500   1.285   0.139  1.1285  0.4277  0.2719
 5350TIP3    H137685   5.416   1.291   0.093  0.3322  2.9697  1.8544
 5350TIP3    H237686   5.491   1.207   0.194 -1.3514  1.9958  2.3429
 5351TIP3   OH237687   3.222   1.573   8.252  0.1357  0.5114 -0.0169
 5351TIP3    H137688   3.270   1.576   8.335  2.6890  2.4905 -1.4515
 5351TIP3    H237689   3.194   1.482   8.245  0.1477  0.1805  2.7909
 5352TIP3   OH237690   3.496   1.123   6.544 -0.1041 -0.0668 -0.4737
 5352TIP3    H137691   3.576   1.155   6.502 -0.4190 -0.4160 -1.3481
 5352TIP3    H237692   3.443   1.089   6.473 -1.6220  1.3533 -0.0948
 5353TIP3   OH237693   0.435   3.712   0.002  0.0467  0.2337  0.3525
 5353TIP3    H137694   0.520   3.755  -0.007  0.7541 -1.4987 -2.4059
 5353TIP3    H237695   0.376   3.764  -0.053 -0.5414  0.9090  1.5600
 5354TIP3   OH237696   6.771   5.713   1.859 -0.5592 -0.2532 -0.4483
 5354TIP3    H137697   6.762   5.658   1.781 -0.7734 -1.3275  0.2963
 5354TIP3    H237698   6.789   5.651   1.929  0.9026  0.8119  0.1588
 5355TIP3   OH237699   1.432   0.585   1.880  0.3367  0.1842  0.2659
 5355TIP3    H137700   1.408   0.555   1.968 -0.3928 -1.5717 -0.4713
 5355TIP3    H237701   1.363   0.549   1.823  0.9027  1.0948 -1.0493
 5356TIP3   OH237702   3.015   5.417   7.305  0.1283  0.2943 -0.1350
 5356TIP3    H137703   3.080   5.467   7.354 -0.0232 -0.3724  0.7722
 5356TIP3    H237704   2.951   5.481   7.276 -0.2191  0.5987  1.2606
 5357TIP3   OH237705   6.392   1.065   7.118  0.5290 -0.1817  0.3074
 5357TIP3    H137706   6.420   1.156   7.130  1.3647 -0.5253  1.0611
 5357TIP3    H237707   6.419   1.044   7.029  2.5018 -0.4093  0.9058
 5358TIP3   OH237708   5.561   0.371   8.069 -0.1308  0.0873  0.1883
 5358TIP3    H137709   5.652   0.399   8.065 -0.6590  1.8426 -0.6110
 5358TIP3    H237710   5.551   0.310   7.995  0.4935 -0.5420  0.6057
 5359TIP3   OH237711   5.203   1.283   7.523  0.1881 -0.9472 -0.1255
 5359TIP3    H137712   5.162   1.339   7.589  1.4384 -1.3662  1.0561
 5359TIP3    H237713   5.267   1.231   7.572  1.1433 -1.2931 -1.6632
 5360TIP3   OH237714   5.853   0.919   7.914 -0.0413  0.0904 -0.4700
 5360TIP3    H137715   5.923   0.925   7.978  0.5213  0.6075 -1.1094
 5360TIP3    H237716   5.853   1.005   7.871 -0.7245 -0.0795 -0.8295
 5361TIP3   OH237717   6.191   1.746   0.409 -0.1877 -0.0572 -0.6872
 5361TIP3    H137718   6.112   1.692   0.415 -0.4474  0.2880 -1.0032
 5361TIP3    H237719   6.248   1.698   0.349 -0.0550 -0.4241 -0.2797
 5362TIP3   OH237720   6.341   0.282   1.228 -0.4410 -0.5597 -0.5873
 5362TIP3    H137721   6.302   0.261   1.313  2.1586 -2.3152  0.3066
 5362TIP3    H237722   6.411   0.344   1.249 -0.5029 -0.1263 -1.6153
 5363TIP3   OH237723   2.655   6.761   5.856  0.0922 -0.4297  0.2919
 5363TIP3    H137724   2.680   6.815   5.931 -0.1264 -1.8272  1.4221
 5363TIP3    H237725   2.719   6.689   5.856  0.3228 -0.2645 -1.1149
 5364TIP3   OH237726   4.126   5.857   7.860 -0.4393 -0.2395 -0.0012
 5364TIP3    H137727   4.075   5.885   7.784 -1.9655  1.4155  1.5239
 5364TIP3    H237728   4.079   5.780   7.893 -0.8295  0.1015  0.2567
 5365TIP3   OH237729   0.534   6.131   6.835 -0.1334  0.1021 -1.2187
 5365TIP3    H137730   0.590   6.197   6.876 -1.7699  0.9456 -0.2131
 5365TIP3    H237731   0.532   6.156   6.742  1.8025 -0.4834 -1.4664
 5366TIP3   OH237732   5.632   4.332   0.550 -0.3164 -0.5196 -0.2867
 5366TIP3    H137733   5.707   4.337   0.610  1.1729  0.8132 -2.1448
 5366TIP3    H237734   5.605   4.423   0.536 -0.5549 -0.7734 -1.6785
 5367TIP3   OH237735   1.466   5.786   8.824 -0.0596 -0.0097 -0.2725
 5367TIP3    H137736   1.492   5.858   8.766  0.4173  1.0576  1.1990
 5367TIP3    H237737   1.380   5.760   8.793  0.8001 -0.5107 -2.3927
 5368TIP3   OH237738   2.369   5.221   2.385  0.0519 -0.0709 -0.1253
 5368TIP3    H137739   2.422   5.204   2.307 -0.3837  2.7537 -1.1915
 5368TIP3    H237740   2.380   5.144   2.440  0.5545 -2.1093 -2.8870
 5369TIP3   OH237741   6.490   1.364   7.878 -0.0632  0.3583 -0.3262
 5369TIP3    H137742   6.441   1.386   7.799  1.0995  2.5523 -0.5353
 5369TIP3    H237743   6.579   1.394   7.860  0.7399 -1.0618  1.0404
 5370TIP3   OH237744   4.646   6.205   1.175  0.6669  0.4851  0.2924
 5370TIP3    H137745   4.729   6.248   1.197  0.3338  0.3872  1.8318
 5370TIP3    H237746   4.670   6.138   1.111  1.4639  1.7346 -0.7892
 5371TIP3   OH237747   1.700   2.105   6.728  0.5596  0.7817 -0.0191
 5371TIP3    H137748   1.795   2.096   6.726  0.5218  0.0482 -2.7973
 5371TIP3    H237749   1.684   2.199   6.722  1.1688  0.8373 -1.0983
 5372TIP3   OH237750   4.037   4.940   7.867 -0.5252  0.3250  0.1143
 5372TIP3    H137751   3.944   4.920   7.880 -0.1694 -1.4925  0.1246
 5372TIP3    H237752   4.060   4.997   7.939 -1.1047 -1.0761  1.4628
 5373TIP3   OH237753   0.326   2.347   7.991  0.6386 -0.0386 -0.0858
 5373TIP3    H137754   0.402   2.317   7.941 -0.0817 -0.3647 -0.9982
 5373TIP3    H237755   0.251   2.312   7.944 -0.1643  1.7880 -0.2400
 5374TIP3   OH237756   6.085   3.263   7.633 -0.2268  0.3936  0.7912
 5374TIP3    H137757   6.037   3.208   7.695  0.9313 -3.0125 -1.0463
 5374TIP3    H237758   6.176   3.258   7.663  0.1334 -0.1623 -0.3377
 5375TIP3   OH237759   6.392   5.945   0.267 -0.1404  0.4034  0.2796
 5375TIP3    H137760   6.356   5.887   0.334  1.6513  0.1941  1.1103
 5375TIP3    H237761   6.426   6.020   0.315  0.9636  0.3627 -0.4084
 5376TIP3   OH237762   3.730   6.271   0.990 -0.5097 -0.6232  0.3073
 5376TIP3    H137763   3.770   6.284   1.076  0.7924 -1.3115 -0.1608
 5376TIP3    H237764   3.657   6.333   0.988 -0.2248 -0.1985  1.6816
 5377TIP3   OH237765   1.962   1.092   7.809  0.1522 -0.2409  0.0039
 5377TIP3    H137766   2.051   1.062   7.789  0.2291  0.6139 -1.0211
 5377TIP3    H237767   1.968   1.129   7.897  0.8223 -0.1522 -0.0747
 5378TIP3   OH237768   0.044   5.418   2.517 -0.1529  0.4701  0.1441
 5378TIP3    H137769  -0.047   5.390   2.515 -0.2111  0.6804 -0.3278
 5378TIP3    H237770   0.094   5.337   2.502 -0.2297  0.2368  1.0935
 5379TIP3   OH237771   1.682   2.910   8.051 -0.0032 -0.2978 -0.1271
 5379TIP3    H137772   1.722   2.969   7.987 -0.2381 -0.5916 -0.5500
 5379TIP3    H237773   1.601   2.955   8.076  0.8704  0.6087  1.2159
 5380TIP3   OH237774   2.167   6.440   8.183  0.4363 -0.3654 -0.3598
 5380TIP3    H137775   2.257   6.439   8.217  0.5654 -0.9596 -0.7067
 5380TIP3    H237776   2.161   6.523   8.135  0.3013  0.4209  0.9430
 5381TIP3   OH237777   4.084   0.508   6.579 -0.3754  0.1481 -0.5254
 5381TIP3    H137778   4.167   0.556   6.583  0.0022 -0.5245 -0.1747
 5381TIP3    H237779   4.102   0.426   6.624 -1.1544 -0.1222 -0.7028
 5382TIP3   OH237780   4.679   3.920   6.676 -0.1286  0.2568  0.3051
 5382TIP3    H137781   4.648   3.831   6.660 -1.0010  0.7260 -0.7937
 5382TIP3    H237782   4.608   3.960   6.727 -0.0538  0.5216  0.2013
 5383TIP3   OH237783   0.175   3.266   7.521 -0.3544 -0.8068 -0.3824
 5383TIP3    H137784   0.145   3.332   7.585 -0.1868 -1.0717 -0.0308
 5383TIP3    H237785   0.268   3.255   7.540 -0.1753 -0.4768 -1.0412
 5384TIP3   OH237786   6.225   4.955   8.037 -0.4412 -0.5906 -0.2659
 5384TIP3    H137787   6.149   5.010   8.052 -0.9089 -0.8926 -1.4192
 5384TIP3    H237788   6.196   4.890   7.973  0.3614 -1.6230  0.3785
 5385TIP3   OH237789   3.095   2.966   8.530  0.3714 -0.1038  0.4680
 5385TIP3    H137790   3.080   2.932   8.618  1.5304  0.0843  0.7493
 5385TIP3    H237791   3.021   2.932   8.479  0.9432 -2.2345  0.9537
 5386TIP3   OH237792   5.925   6.315   1.984 -0.1179 -0.5319  0.6469
 5386TIP3    H137793   5.877   6.257   2.043 -0.7261  0.3658  1.0692
 5386TIP3    H237794   6.002   6.265   1.958 -1.2700 -2.0390 -0.0575
 5387TIP3   OH237795   4.651   3.599   7.219  0.0955 -0.5360  0.1345
 5387TIP3    H137796   4.598   3.673   7.249  1.0302  0.3245 -0.2734
 5387TIP3    H237797   4.587   3.536   7.187 -0.7017  0.4654 -0.3398
 5388TIP3   OH237798   1.088   3.865   7.084 -0.2001  0.8718 -0.4767
 5388TIP3    H137799   1.171   3.817   7.081 -0.1162  1.0548 -2.3565
 5388TIP3    H237800   1.094   3.918   7.163  0.0441 -1.5514  1.2326
 5389TIP3   OH237801   4.449   4.775   8.747 -0.2165 -0.2653 -0.4641
 5389TIP3    H137802   4.414   4.743   8.664 -0.6681  1.8669 -1.1661
 5389TIP3    H237803   4.371   4.794   8.799 -0.0498  1.1020 -0.6747
 5390TIP3   OH237804   3.641   6.056   0.543 -1.0858 -0.3528 -0.0380
 5390TIP3    H137805   3.590   6.042   0.463 -2.2868  2.7900  0.0336
 5390TIP3    H237806   3.579   6.038   0.614 -1.3911  1.0536  0.0791
 5391TIP3   OH237807   5.599   0.650   0.015  0.0094 -0.5037  0.3314
 5391TIP3    H137808   5.620   0.686   0.101  1.3643  1.1249 -0.6165
 5391TIP3    H237809   5.581   0.558   0.031  3.3982 -1.0540  2.0055
 5392TIP3   OH237810   0.047   6.378   8.276 -0.0008  0.3309 -0.0837
 5392TIP3    H137811  -0.027   6.377   8.215 -0.4904 -2.2946  0.4429
 5392TIP3    H237812   0.125   6.374   8.220 -0.4384 -1.9130 -0.6197
 5393TIP3   OH237813   6.075   4.614   1.698  0.2780  0.5988 -0.0394
 5393TIP3    H137814   6.120   4.693   1.668  1.0312  0.2502  0.1568
 5393TIP3    H237815   6.028   4.642   1.777  0.6979  0.8010  0.1409
 5394TIP3   OH237816   1.424   6.295   8.025  0.2513  0.6021 -0.3636
 5394TIP3    H137817   1.396   6.380   7.992  0.7106  1.1998  0.7503
 5394TIP3    H237818   1.519   6.298   8.023  0.4151  1.5740  3.0704
 5395TIP3   OH237819   5.708   3.569   0.060 -0.2548 -0.2872 -0.0167
 5395TIP3    H137820   5.722   3.653   0.103  2.3345 -0.7720  0.2613
 5395TIP3    H237821   5.617   3.548   0.078 -0.6634  1.9027  0.8765
 5396TIP3   OH237822   4.814   2.993   1.966  0.2781 -0.1719 -0.2627
 5396TIP3    H137823   4.809   3.077   1.920  2.4236 -0.2147 -0.6750
 5396TIP3    H237824   4.834   3.017   2.056 -2.2133 -0.1645  0.3544
 5397TIP3   OH237825   5.970   3.374   0.975 -0.3731  0.4400  0.6295
 5397TIP3    H137826   6.037   3.360   0.908 -0.1506  3.6356  0.0252
 5397TIP3    H237827   5.918   3.293   0.974 -0.0312  0.1112 -3.0118
 5398TIP3   OH237828   4.237   2.164   8.514 -0.1803 -0.2593  0.4366
 5398TIP3    H137829   4.144   2.172   8.494 -0.6681 -0.6896  2.3543
 5398TIP3    H237830   4.241   2.154   8.609  1.6478 -2.5111  0.2239
 5399TIP3   OH237831   4.402   0.238   6.403 -0.2464  0.7013  0.4013
 5399TIP3    H137832   4.311   0.268   6.400  0.3977  2.8954  0.8785
 5399TIP3    H237833   4.400   0.161   6.460 -1.7239  1.0417  0.8613
 5400TIP3   OH237834   1.309   4.121   8.164 -0.1184 -0.1991 -0.1095
 5400TIP3    H137835   1.400   4.104   8.140  0.0271  0.9921 -0.4616
 5400TIP3    H237836   1.257   4.073   8.100  0.2333 -1.5004  0.5385
 5401TIP3   OH237837   4.129   4.956   1.650  0.0390 -0.2600  0.1568
 5401TIP3    H137838   4.104   4.876   1.696  1.0790 -2.1151 -2.3103
 5401TIP3    H237839   4.156   4.927   1.563  0.1074  2.8406 -0.9847
 5402TIP3   OH237840   2.583   4.222   1.426 -0.6047  0.1841  0.1265
 5402TIP3    H137841   2.631   4.224   1.344 -1.6356 -1.0337 -0.5306
 5402TIP3    H237842   2.645   4.185   1.489  0.1841  1.1122 -0.0665
 5403TIP3   OH237843   6.222   0.818   0.110  0.6780  0.1607 -0.5883
 5403TIP3    H137844   6.133   0.839   0.079 -0.0041 -0.8804  0.5958
 5403TIP3    H237845   6.277   0.834   0.034 -0.8654 -1.7541 -2.2495
 5404TIP3   OH237846   0.418   0.424   8.031  0.6295  0.2577  0.2149
 5404TIP3    H137847   0.387   0.424   8.122 -1.3432 -1.2531 -0.4138
 5404TIP3    H237848   0.439   0.516   8.014  0.1733  0.7207  1.9040
 5405TIP3   OH237849   3.071   0.182   7.052  0.3668 -0.0905  0.6202
 5405TIP3    H137850   3.147   0.230   7.020 -0.8235  0.5062 -1.5157
 5405TIP3    H237851   3.080   0.094   7.018 -0.7817  0.4817 -1.3128
 5406TIP3   OH237852   0.259   3.803   8.628 -0.0958  0.0231 -0.3657
 5406TIP3    H137853   0.325   3.854   8.581  1.6899  0.5870  2.4485
 5406TIP3    H237854   0.183   3.861   8.633  0.3724  0.7028 -0.8825
 5407TIP3   OH237855   3.977   0.258   7.342  0.0323  0.6992 -0.1667
 5407TIP3    H137856   4.055   0.225   7.298 -0.1391  2.0043 -1.5296
 5407TIP3    H237857   4.008   0.293   7.426  0.7935  0.5794 -0.4002
 5408TIP3   OH237858   4.177   3.451   6.534 -0.4116  0.3338  0.0462
 5408TIP3    H137859   4.176   3.507   6.612 -1.1829 -1.1571  1.1369
 5408TIP3    H237860   4.268   3.452   6.506 -0.1550  1.0490  0.8343
 5409TIP3   OH237861   0.519   6.760   0.910  0.2638  0.0341  0.2183
 5409TIP3    H137862   0.600   6.801   0.882 -0.0545  0.0448 -0.7271
 5409TIP3    H237863   0.489   6.813   0.984  0.6973  0.5153  0.0536
 5410TIP3   OH237864   0.256   5.389   6.761 -0.0252  0.0684  0.5010
 5410TIP3    H137865   0.335   5.410   6.711 -1.2074 -0.4381 -1.6729
 5410TIP3    H237866   0.279   5.311   6.811  0.4359 -0.9024 -1.1762
 5411TIP3   OH237867   0.809   3.658   1.290 -0.1186 -0.4112  0.1339
 5411TIP3    H137868   0.749   3.587   1.310 -1.5156  0.5192 -0.6199
 5411TIP3    H237869   0.825   3.651   1.196 -0.3769  0.3474  0.0285
 5412TIP3   OH237870   3.951   1.350   7.289  0.1826 -0.3389  0.2226
 5412TIP3    H137871   3.989   1.422   7.237  0.6323 -0.5408  0.2709
 5412TIP3    H237872   3.858   1.373   7.296  0.1815 -0.1306 -0.3783
 5413TIP3   OH237873   3.614   2.549   7.938 -0.1924  0.3610  0.2923
 5413TIP3    H137874   3.605   2.529   7.845 -1.2916  1.1799  0.2015
 5413TIP3    H237875   3.555   2.487   7.981 -0.3492  0.5541  0.3601
 5414TIP3   OH237876   6.417   5.012   0.171  0.3097  0.2730 -0.1928
 5414TIP3    H137877   6.461   5.012   0.256  0.4494 -1.1131 -0.2399
 5414TIP3    H237878   6.360   4.935   0.174 -0.6178  0.9047 -0.9025
 5415TIP3   OH237879   6.089   6.498   1.813  0.4062 -0.1530 -0.2543
 5415TIP3    H137880   6.016   6.440   1.836  1.0694 -1.5009 -1.3754
 5415TIP3    H237881   6.065   6.582   1.851 -1.2947 -0.7869  0.2029
 5416TIP3   OH237882   5.294   2.169   8.018 -0.3041 -0.3328 -0.6907
 5416TIP3    H137883   5.310   2.258   7.988 -1.2868 -0.0319 -0.3632
 5416TIP3    H237884   5.286   2.176   8.113  0.0593 -0.8433 -0.6167
 5417TIP3   OH237885   6.228   2.461   7.372  0.0560  0.1916  0.3835
 5417TIP3    H137886   6.321   2.442   7.362 -0.1041 -0.2435 -0.3477
 5417TIP3    H237887   6.209   2.443   7.464  0.6584  0.1333  0.4980
 5418TIP3   OH237888   6.336   4.186   0.606  0.1504  0.0919 -0.0764
 5418TIP3    H137889   6.363   4.256   0.665 -0.3138  1.3733 -1.3245
 5418TIP3    H237890   6.407   4.122   0.610 -0.2168 -0.2440  2.4038
 5419TIP3   OH237891   1.558   2.092   6.462 -0.0215  0.6109  0.4995
 5419TIP3    H137892   1.585   2.060   6.549  0.5133 -1.9110 -0.5090
 5419TIP3    H237893   1.623   2.056   6.402 -1.5559  0.5075 -1.1884
 5420TIP3   OH237894   5.325   0.249   1.612  0.1964 -0.0184 -0.5379
 5420TIP3    H137895   5.248   0.251   1.554  0.5304 -0.4698 -1.0012
 5420TIP3    H237896   5.291   0.215   1.695 -0.4108  1.2158 -0.2697
 5421TIP3   OH237897   2.019   0.150   8.237 -0.0962 -0.5261 -0.3257
 5421TIP3    H137898   1.951   0.214   8.213  0.9483  0.8578  0.2895
 5421TIP3    H237899   2.000   0.129   8.328  2.0304  2.2834  0.9174
 5422TIP3   OH237900   2.166   1.978   2.249 -0.8652  0.1362  0.4180
 5422TIP3    H137901   2.201   2.067   2.241  0.9692 -0.4869  1.1624
 5422TIP3    H237902   2.153   1.950   2.158 -0.3840  0.7587  0.1441
 5423TIP3   OH237903   0.576   0.844   0.725  0.4250  0.0652  0.4154
 5423TIP3    H137904   0.596   0.937   0.716  2.8565 -0.4842 -0.6094
 5423TIP3    H237905   0.521   0.823   0.650  1.0917  0.3985 -0.1744
 5424TIP3   OH237906   3.028   0.594   6.662  0.3899  0.7609  0.0120
 5424TIP3    H137907   2.943   0.611   6.620  1.0103 -0.1206 -1.6957
 5424TIP3    H237908   3.066   0.681   6.674 -0.3802  1.1126 -0.0242
 5425TIP3   OH237909   4.028   5.208   7.189 -0.4197 -0.5825 -0.2598
 5425TIP3    H137910   3.942   5.244   7.168 -0.7344 -0.9470  0.3620
 5425TIP3    H237911   4.066   5.186   7.104 -0.1970  1.2071 -0.6717
 5426TIP3   OH237912   4.207   4.888   7.185 -0.5172  0.3177  0.1802
 5426TIP3    H137913   4.269   4.905   7.114 -0.1998  2.0804  0.8482
 5426TIP3    H237914   4.170   4.802   7.163 -0.6249  0.9045 -2.2481
 5427TIP3   OH237915   6.330   0.404   8.226  0.1333 -0.4144 -0.0291
 5427TIP3    H137916   6.353   0.417   8.318 -0.3131 -0.3198  0.0704
 5427TIP3    H237917   6.311   0.491   8.193 -0.7844 -0.5669  0.0816
 5428TIP3   OH237918   1.535   6.403   1.520  0.7234  0.0049 -0.2022
 5428TIP3    H137919   1.530   6.499   1.526  0.8575 -0.0226  0.4037
 5428TIP3    H237920   1.567   6.375   1.606 -0.2254 -0.6611 -0.0529
 5429TIP3   OH237921   2.189   5.210   8.138  0.0770 -0.4166  0.0965
 5429TIP3    H137922   2.236   5.131   8.166  0.0877 -0.0632  1.1303
 5429TIP3    H237923   2.218   5.278   8.200  0.5319  0.5524 -1.1364
 5430TIP3   OH237924   4.915   2.923   8.882 -0.0932 -0.0990  0.6677
 5430TIP3    H137925   4.869   2.860   8.826  0.8545 -0.0558 -0.1868
 5430TIP3    H237926   4.948   2.871   8.955  1.8684 -0.8946 -0.7296
 5431TIP3   OH237927   2.588   1.944   7.105 -0.4610  0.3243 -0.4969
 5431TIP3    H137928   2.637   1.864   7.127 -1.8539 -1.4582 -3.2313
 5431TIP3    H237929   2.535   1.961   7.182 -2.2501 -3.2244 -0.7385
 5432TIP3   OH237930   5.783   0.198   7.305 -0.2966  0.2041 -0.0537
 5432TIP3    H137931   5.749   0.131   7.245  0.8882  0.8707 -1.5345
 5432TIP3    H237932   5.833   0.148   7.370  1.1844 -0.3699 -1.5476
 5433TIP3   OH237933   5.508   0.323   0.571  0.2427 -0.3480  0.3955
 5433TIP3    H137934   5.556   0.391   0.523  1.6887 -2.5097 -1.4243
 5433TIP3    H237935   5.453   0.282   0.504 -1.6724 -0.1077  1.7601
 5434TIP3   OH237936   1.801   5.287   1.724 -0.0186 -0.0865 -0.2690
 5434TIP3    H137937   1.718   5.335   1.730  1.0311  1.7570  0.9199
 5434TIP3    H237938   1.857   5.329   1.791  2.0006 -0.9647 -1.3171
 5435TIP3   OH237939   1.133   2.106   0.408  0.0048 -0.4575 -0.0295
 5435TIP3    H137940   1.080   2.175   0.446  0.4674  0.3165 -0.7516
 5435TIP3    H237941   1.124   2.032   0.468 -0.5157  0.2209  0.7373
 5436TIP3   OH237942   3.090   6.460   7.067  0.0676 -0.0331 -0.5514
 5436TIP3    H137943   3.045   6.378   7.085 -0.5256  0.5961  1.0571
 5436TIP3    H237944   3.181   6.443   7.090 -0.0610 -0.2305 -0.1789
 5437TIP3   OH237945   0.729   6.018   6.541  0.2499  0.1063 -0.0301
 5437TIP3    H137946   0.676   5.938   6.532  0.9467 -0.2136 -1.5549
 5437TIP3    H237947   0.681   6.084   6.491  0.3440  0.2999  0.1351
 5438TIP3   OH237948   3.523   4.718   8.757  0.3685  0.2086  0.7300
 5438TIP3    H137949   3.478   4.662   8.694  0.1399 -0.4867  1.4892
 5438TIP3    H237950   3.550   4.794   8.706  2.0529 -1.2562 -0.6829
 5439TIP3   OH237951   2.261   5.924   0.588  0.5657 -0.2102 -0.0940
 5439TIP3    H137952   2.345   5.969   0.577  0.8829 -1.0339 -1.1233
 5439TIP3    H237953   2.217   5.934   0.504  0.3973 -1.3330 -0.1451
 5440TIP3   OH237954   3.421   4.638   1.731  0.3737  0.1182 -0.8625
 5440TIP3    H137955   3.388   4.670   1.815 -0.4509 -1.2051 -0.6606
 5440TIP3    H237956   3.515   4.657   1.735  0.4354 -0.3082  0.5595
 5441TIP3   OH237957   4.872   2.076   7.551 -0.1632  0.7114 -0.1187
 5441TIP3    H137958   4.898   1.998   7.598 -0.0079  0.7494 -0.1400
 5441TIP3    H237959   4.776   2.077   7.555 -0.3957 -1.1189 -2.7068
 5442TIP3   OH237960   5.255   2.456   0.550 -0.3361 -0.0201  0.2985
 5442TIP3    H137961   5.296   2.537   0.520 -1.8887  0.4542 -0.6849
 5442TIP3    H237962   5.203   2.427   0.475 -0.8510 -1.2132  1.0919
 5443TIP3   OH237963   1.314   4.391   1.254  0.2323 -0.0398  0.1879
 5443TIP3    H137964   1.273   4.409   1.338  1.2724  0.9190  0.5153
 5443TIP3    H237965   1.241   4.379   1.193 -0.5223 -0.7426  1.2166
 5444TIP3   OH237966   4.776   5.617   7.403  0.1049 -0.1154  0.2176
 5444TIP3    H137967   4.685   5.596   7.425  0.1447 -0.7811 -0.2083
 5444TIP3    H237968   4.826   5.597   7.483 -0.1382  0.4064  0.5043
 5445TIP3   OH237969   4.279   6.554   1.140 -0.0529  0.3190  0.1144
 5445TIP3    H137970   4.338   6.625   1.113  1.5243 -0.2344  1.8753
 5445TIP3    H237971   4.337   6.490   1.181 -1.7265 -0.9749  0.5536
 5446TIP3   OH237972   6.067   1.665   7.625  0.0548  0.1047 -0.0501
 5446TIP3    H137973   6.122   1.587   7.622 -2.4825 -1.7709 -0.4800
 5446TIP3    H237974   6.077   1.704   7.539  1.8409  0.7124  0.3753
 5447TIP3   OH237975   0.502   2.615   1.902 -0.1268 -0.3237 -0.5236
 5447TIP3    H137976   0.535   2.544   1.846  1.4259  1.2421 -1.6984
 5447TIP3    H237977   0.496   2.577   1.989 -3.0780 -3.0314 -1.6813
 5448TIP3   OH237978   1.578   2.371   0.043  0.5018 -0.7775 -0.0472
 5448TIP3    H137979   1.642   2.326   0.097  1.6829  1.7849  0.8475
 5448TIP3    H237980   1.630   2.426  -0.016 -0.8224  0.2030 -0.3652
 5449TIP3   OH237981   3.495   3.183   7.938  0.4846 -0.2344 -0.4759
 5449TIP3    H137982   3.413   3.154   7.897  0.4307 -0.3287 -0.2980
 5449TIP3    H237983   3.535   3.104   7.971 -0.0027 -0.0331  0.6353
 5450TIP3   OH237984   6.390   2.232   1.896  0.0466  0.8188  0.1171
 5450TIP3    H137985   6.427   2.236   1.807 -0.7351  0.3651 -0.2381
 5450TIP3    H237986   6.462   2.200   1.950 -0.5358 -2.9213 -1.0450
 5451TIP3   OH237987   2.148   6.233   0.367  0.2178  0.6527  0.3568
 5451TIP3    H137988   2.166   6.139   0.368 -0.2996  0.5481  0.2112
 5451TIP3    H237989   2.203   6.269   0.437  1.8168  0.5135 -0.7634
 5452TIP3   OH237990   6.576   0.984   1.438 -0.4351  0.4579  0.3501
 5452TIP3    H137991   6.632   0.919   1.480 -0.5595  1.2664  1.8676
 5452TIP3    H237992   6.602   1.067   1.479 -2.7572  0.8498  1.1786
 5453TIP3   OH237993   0.498   1.315   6.308 -0.2511  0.3777 -0.1487
 5453TIP3    H137994   0.471   1.224   6.316 -0.0106  0.3403  0.3323
 5453TIP3    H237995   0.573   1.313   6.248 -0.0330  0.2092  0.1242
 5454TIP3   OH237996   2.953   1.552   1.446 -0.1875 -0.5376  0.8695
 5454TIP3    H137997   2.953   1.465   1.485 -1.3061 -0.9251  0.0686
 5454TIP3    H237998   2.878   1.551   1.386 -0.7748  1.2779  1.5127
 5455TIP3   OH237999   0.125   0.374   6.590 -0.6080 -0.1258  0.1582
 5455TIP3    H138000   0.201   0.429   6.610 -1.1843  0.1957  1.6540
 5455TIP3    H238001   0.051   0.420   6.631 -1.2384 -1.5948  0.7478
 5456TIP3   OH238002   3.415   6.527   0.031  0.1970  0.3884 -0.3719
 5456TIP3    H138003   3.385   6.590  -0.034 -0.9957  0.4177  0.1647
 5456TIP3    H238004   3.379   6.560   0.114  0.8200 -0.1964  0.1418
 5457TIP3   OH238005   5.791   0.218   8.380 -0.4491  0.3413  0.2958
 5457TIP3    H138006   5.772   0.310   8.361  1.5253  0.4703 -1.4701
 5457TIP3    H238007   5.856   0.193   8.314 -1.3404 -2.5067  0.3577
 5458TIP3   OH238008   2.333   1.842   1.750  0.4880  0.0840  0.3800
 5458TIP3    H138009   2.327   1.765   1.805  2.0035  0.5840  1.3151
 5458TIP3    H238010   2.339   1.808   1.660  1.3286 -0.9076  0.7969
 5459TIP3   OH238011   6.141   5.228   8.268  0.0971  0.5427  0.5828
 5459TIP3    H138012   6.155   5.293   8.199 -1.9119 -0.8126 -1.2369
 5459TIP3    H238013   6.227   5.190   8.284  0.8107  1.7502 -0.2842
 5460TIP3   OH238014   1.765   3.567   6.545  0.5128  0.2382 -0.1003
 5460TIP3    H138015   1.817   3.525   6.614  0.6951  1.0940  0.3107
 5460TIP3    H238016   1.739   3.651   6.584 -0.6324  0.1013 -0.5432
 5461TIP3   OH238017   0.203   1.145   1.770  0.0984  0.1850 -0.2547
 5461TIP3    H138018   0.199   1.156   1.865 -1.3319  0.1633 -0.2901
 5461TIP3    H238019   0.226   1.053   1.758  2.3346  0.6625  0.0433
 5462TIP3   OH238020   6.533   4.093   7.427 -0.0790 -0.1207 -0.0594
 5462TIP3    H138021   6.571   4.137   7.350  0.2627 -1.7100 -0.8271
 5462TIP3    H238022   6.579   4.132   7.502 -1.0615  2.1294 -0.5290
 5463TIP3   OH238023   6.751   6.597   8.459 -0.0259  0.2377  0.0399
 5463TIP3    H138024   6.782   6.523   8.407 -2.0004  0.8820 -2.2034
 5463TIP3    H238025   6.675   6.564   8.506 -0.7284  0.7346 -0.7293
 5464TIP3   OH238026   4.149   6.434   8.549  0.1714 -0.2101 -0.3317
 5464TIP3    H138027   4.054   6.429   8.560 -0.2262  1.7003 -2.1436
 5464TIP3    H238028   4.171   6.358   8.495 -0.6133  0.2798 -1.3612
 5465TIP3   OH238029   1.741   3.541   8.594  1.3286  0.2162 -0.4582
 5465TIP3    H138030   1.782   3.456   8.577  0.1353 -0.3581 -0.5941
 5465TIP3    H238031   1.809   3.605   8.574  2.4621 -0.7168  0.2568
 5466TIP3   OH238032   1.478   0.027   0.382 -0.1043 -0.2143  0.2805
 5466TIP3    H138033   1.521   0.020   0.467 -0.1140  1.1500  0.4165
 5466TIP3    H238034   1.442   0.116   0.380 -2.5609 -1.1371 -0.0082
 5467TIP3   OH238035   3.423   5.671   7.872  0.0703 -1.1263 -0.2464
 5467TIP3    H138036   3.515   5.676   7.846  0.1293  1.4466  0.1816
 5467TIP3    H238037   3.424   5.688   7.967 -0.9376  1.8821 -0.6448
 5468TIP3   OH238038   1.814   5.685   8.449 -0.2208  0.0475 -0.4123
 5468TIP3    H138039   1.802   5.779   8.432 -1.3934  0.5731  2.6912
 5468TIP3    H238040   1.884   5.681   8.514 -0.0678 -1.2855 -0.6351
 5469TIP3   OH238041   3.220   6.721   7.704  0.1523 -0.2995 -0.5669
 5469TIP3    H138042   3.264   6.637   7.696 -1.5125 -1.1911 -0.6900
 5469TIP3    H238043   3.230   6.761   7.617  2.5162  0.4892  0.0022
 5470TIP3   OH238044   4.606   1.462   7.170 -0.1870 -0.1068  0.2223
 5470TIP3    H138045   4.575   1.480   7.082 -0.5816  1.3404  0.6365
 5470TIP3    H238046   4.568   1.377   7.192 -1.0995  0.0992 -0.5203
 5471TIP3   OH238047   1.722   0.540   7.029 -0.1271  0.3171  0.4615
 5471TIP3    H138048   1.660   0.530   6.957 -1.4481  1.5286  1.3762
 5471TIP3    H238049   1.760   0.627   7.016 -1.0693  0.9415  1.7133
 5472TIP3   OH238050   0.243   5.397   1.949  0.2628 -0.7203 -0.5179
 5472TIP3    H138051   0.148   5.394   1.939  0.2022 -3.0714  0.1880
 5472TIP3    H238052   0.259   5.473   2.005 -1.2735 -0.8178  0.0906
 5473TIP3   OH238053   1.789   4.530   6.951  0.5048 -0.1070 -0.0229
 5473TIP3    H138054   1.870   4.533   7.001  0.1600 -2.2386  0.7745
 5473TIP3    H238055   1.813   4.493   6.867  0.3161 -1.2203  0.3950
 5474TIP3   OH238056   4.465   3.761   7.323  0.4684 -0.5449 -0.1617
 5474TIP3    H138057   4.434   3.684   7.372  0.5904 -1.7731 -1.9296
 5474TIP3    H238058   4.385   3.805   7.296  0.4012  0.3959  1.4714
 5475TIP3   OH238059   3.539   3.881   1.562  0.2133  0.6682 -0.7650
 5475TIP3    H138060   3.520   3.971   1.536 -0.0503  0.4259 -1.4240
 5475TIP3    H238061   3.609   3.853   1.502 -0.9272 -0.1530 -1.7485
 5476TIP3   OH238062   0.619   1.847   8.024  0.4932  0.2368  0.1121
 5476TIP3    H138063   0.530   1.848   8.059  1.0098  0.2863  1.4482
 5476TIP3    H238064   0.658   1.768   8.060  0.7387 -0.2706 -1.1898
 5477TIP3   OH238065   2.702   2.364   0.268  0.0166 -0.1948 -0.2845
 5477TIP3    H138066   2.635   2.432   0.272  0.7552  0.5350  0.2536
 5477TIP3    H238067   2.656   2.284   0.293 -0.2313  0.6549  2.3070
 5478TIP3   OH238068   5.282   0.518   1.491  0.1004 -0.2506  0.1876
 5478TIP3    H138069   5.315   0.490   1.576 -0.2743 -0.0867  0.3943
 5478TIP3    H238070   5.225   0.447   1.463 -0.1994 -0.0710  0.3284
 5479TIP3   OH238071   3.650   1.314   0.081  0.1308  0.0077  0.2782
 5479TIP3    H138072   3.641   1.329   0.175  0.1132 -0.9118  0.4328
 5479TIP3    H238073   3.739   1.281   0.070 -0.2299 -0.9456  0.1298
 5480TIP3   OH238074   1.163   3.100   0.671 -0.3571 -0.3511  0.1475
 5480TIP3    H138075   1.156   3.072   0.580 -3.0790 -1.1507  0.5048
 5480TIP3    H238076   1.155   3.020   0.722 -1.2172  0.3147  1.1113
 5481TIP3   OH238077   1.804   0.305   8.182 -0.2369 -0.6932  0.4387
 5481TIP3    H138078   1.778   0.361   8.256  2.1242  0.6736  0.3481
 5481TIP3    H238079   1.732   0.313   8.119 -1.1268  0.1679  1.5212
 5482TIP3   OH238080   1.028   4.305   8.833 -0.6716  0.3351 -0.2166
 5482TIP3    H138081   0.957   4.332   8.774  0.2048 -0.9019 -1.9079
 5482TIP3    H238082   1.106   4.349   8.799  0.0314 -1.1626 -0.6083
 5483TIP3   OH238083   3.592   2.192   0.238 -0.3249 -0.8367 -0.2552
 5483TIP3    H138084   3.602   2.278   0.196 -0.1583 -0.1849  1.0497
 5483TIP3    H238085   3.516   2.153   0.194  0.1433 -0.4221 -1.4888
 5484TIP3   OH238086   0.328   5.699   1.048 -0.3236  0.0647 -0.1143
 5484TIP3    H138087   0.288   5.743   1.124  0.3788  1.0757 -0.3181
 5484TIP3    H238088   0.346   5.611   1.079 -1.2038  0.0796  0.4972
 5485TIP3   OH238089   5.457   1.913   1.051 -0.5473  0.4371  0.1795
 5485TIP3    H138090   5.424   1.823   1.042 -0.5962  0.3191  1.3587
 5485TIP3    H238091   5.399   1.966   0.996 -0.0708 -0.3327 -1.1180
 5486TIP3   OH238092   4.959   4.874   7.107 -0.3797 -0.0035 -0.2548
 5486TIP3    H138093   4.965   4.968   7.087 -1.4265 -0.1059 -1.1546
 5486TIP3    H238094   5.041   4.837   7.074  1.0285  0.8637  2.0114
 5487TIP3   OH238095   0.642   5.769   8.516  0.5623 -0.3375 -0.2986
 5487TIP3    H138096   0.715   5.798   8.462  1.2285  0.9385  1.2326
 5487TIP3    H238097   0.679   5.700   8.571  0.0947 -1.0585 -0.8673
 5488TIP3   OH238098   6.147   0.684   1.653  0.1885 -0.8312  0.1903
 5488TIP3    H138099   6.054   0.663   1.663  0.0658 -0.0535  0.8529
 5488TIP3    H238100   6.161   0.757   1.714  1.4695 -1.6036  0.8566
 5489TIP3   OH238101   0.985   2.461   1.531  0.1152  0.0597  0.2281
 5489TIP3    H138102   0.984   2.506   1.616 -3.5487 -0.5874  0.7087
 5489TIP3    H238103   0.909   2.496   1.485 -0.6364 -2.7965 -0.9191
 5490TIP3   OH238104   2.951   4.783   7.544  0.8252 -0.7127  0.0441
 5490TIP3    H138105   3.014   4.716   7.568  0.0446 -1.2782  0.5730
 5490TIP3    H238106   3.004   4.858   7.517  1.7158 -1.0388  0.8566
 5491TIP3   OH238107   6.441   5.717   8.074  0.3124 -0.3163 -0.2030
 5491TIP3    H138108   6.386   5.782   8.118 -0.5216 -1.3996  0.3804
 5491TIP3    H238109   6.470   5.762   7.995 -0.7867  0.5637 -0.1447
 5492TIP3   OH238110   3.671   0.803   0.160 -0.2160 -0.2995 -0.2770
 5492TIP3    H138111   3.667   0.733   0.094  0.2251 -0.7331  0.1515
 5492TIP3    H238112   3.658   0.758   0.243 -0.0326  0.1502 -0.0041
 5493TIP3   OH238113   3.456   5.840   1.623 -0.0334 -0.0966  0.0083
 5493TIP3    H138114   3.434   5.839   1.716  1.2516  2.6274  0.4565
 5493TIP3    H238115   3.396   5.906   1.586 -0.0593 -0.6561 -0.9688
 5494TIP3   OH238116   6.476   6.783   0.991 -0.0705  0.0478 -0.6753
 5494TIP3    H138117   6.552   6.777   0.934 -0.1150 -0.9712 -0.6423
 5494TIP3    H238118   6.412   6.833   0.940  0.7049  1.1582 -0.5900
 5495TIP3   OH238119   1.569   5.343   2.060  0.0751 -0.1865 -0.0818
 5495TIP3    H138120   1.658   5.331   2.094 -0.2350  3.1282  2.3455
 5495TIP3    H238121   1.582   5.380   1.973  1.0105 -0.7600 -0.2128
 5496TIP3   OH238122   1.269   6.011   0.019 -0.2057  0.3751 -0.6702
 5496TIP3    H138123   1.191   5.988  -0.031 -0.1528  0.8902 -1.0030
 5496TIP3    H238124   1.302   5.928   0.051 -0.2827  0.0304 -1.4445
 5497TIP3   OH238125   0.763   5.517   6.311 -0.5720  1.2646 -0.0679
 5497TIP3    H138126   0.775   5.455   6.383 -1.0470 -0.9252 -1.7471
 5497TIP3    H238127   0.837   5.500   6.252 -1.9505  0.5352 -1.6904
 5498TIP3   OH238128   3.105   6.457   2.527 -0.1678  0.1245  0.1339
 5498TIP3    H138129   3.144   6.529   2.578  1.2416  0.0520 -0.7780
 5498TIP3    H238130   3.073   6.395   2.593 -0.8182  1.2664  0.9301
 5499TIP3   OH238131   2.349   0.221   0.410  0.0471  0.4294  0.2963
 5499TIP3    H138132   2.330   0.223   0.504 -0.7033  0.0134  0.1618
 5499TIP3    H238133   2.349   0.128   0.387  0.1111  0.5322 -0.1366
 5500TIP3   OH238134   3.544   1.746   0.381  0.0394  0.3877  0.0052
 5500TIP3    H138135   3.606   1.712   0.316 -1.2137 -0.4970 -0.7725
 5500TIP3    H238136   3.466   1.691   0.372 -0.7997  1.3250  1.1036
 5501TIP3   OH238137   6.328   0.479   0.497  0.2213  0.1042 -0.6579
 5501TIP3    H138138   6.398   0.416   0.480 -0.6115 -0.7770 -0.8973
 5501TIP3    H238139   6.312   0.520   0.412  1.7042  1.6977 -0.2468
 5502TIP3   OH238140   5.809   4.523   8.389  0.3954  0.3710  0.2500
 5502TIP3    H138141   5.841   4.463   8.322  0.3749  2.6933 -1.9861
 5502TIP3    H238142   5.727   4.558   8.353  1.2392  2.9439  0.6355
 5503TIP3   OH238143   3.773   3.309   0.966 -0.4350 -0.1751  0.7828
 5503TIP3    H138144   3.711   3.279   0.900 -1.1087 -0.6897  1.6404
 5503TIP3    H238145   3.776   3.404   0.954  0.9196 -0.4152 -1.2480
 5504TIP3   OH238146   1.529   1.301   2.233  0.6889 -0.1599  0.4444
 5504TIP3    H138147   1.466   1.372   2.235  1.7126  0.7714  0.4927
 5504TIP3    H238148   1.488   1.230   2.283 -0.3965  0.3420  0.2784
 5505TIP3   OH238149   4.306   2.856   7.244 -0.1593  0.1983 -0.0009
 5505TIP3    H138150   4.264   2.789   7.191 -0.1795  0.4860 -0.3492
 5505TIP3    H238151   4.393   2.865   7.206  0.4498 -0.7958  1.0578
 5506TIP3   OH238152   3.738   1.285   0.709  0.1055  0.4476  0.4448
 5506TIP3    H138153   3.789   1.311   0.785 -0.9034  0.2551  1.2071
 5506TIP3    H238154   3.760   1.348   0.641  1.8672 -0.0434  0.5302
 5507TIP3   OH238155   0.579   3.650   1.037  0.4903 -0.1582  0.1924
 5507TIP3    H138156   0.646   3.694   0.984 -0.4970 -0.4458 -1.3723
 5507TIP3    H238157   0.624   3.576   1.076  1.5754  0.8139  0.8589
 5508TIP3   OH238158   0.387   4.850   1.099 -0.5957 -0.1996  0.5817
 5508TIP3    H138159   0.398   4.896   1.182  0.1837 -0.1217  0.4391
 5508TIP3    H238160   0.457   4.785   1.097 -0.9324 -0.5599  0.2213
 5509TIP3   OH238161   0.301   4.114   6.978 -0.0033 -0.0965  0.0774
 5509TIP3    H138162   0.241   4.118   6.903 -0.8956  1.2969  0.8218
 5509TIP3    H238163   0.326   4.021   6.984 -1.2759 -0.5303 -0.8819
 5510TIP3   OH238164   3.969   1.076   1.676  0.0116 -0.7360  0.0001
 5510TIP3    H138165   3.976   0.983   1.701 -0.8639 -0.7405  0.2519
 5510TIP3    H238166   3.875   1.092   1.671  0.1646  0.0370 -0.4595
 5511TIP3   OH238167   4.657   2.246   1.184 -0.5399 -0.5345  0.1392
 5511TIP3    H138168   4.708   2.221   1.107 -0.8354 -0.7341  0.0059
 5511TIP3    H238169   4.566   2.232   1.158 -0.7032  0.3552  0.1790
 5512TIP3   OH238170   2.101   6.666   0.066 -0.4718  0.3248 -0.0062
 5512TIP3    H138171   2.008   6.672   0.042 -0.2793  0.7542 -0.6753
 5512TIP3    H238172   2.131   6.584   0.028  0.1555  1.6147 -2.4586
 5513TIP3   OH238173   4.454   5.697   6.451  0.1286  0.2589  0.1599
 5513TIP3    H138174   4.445   5.688   6.356 -1.7063 -0.3069  0.3584
 5513TIP3    H238175   4.479   5.609   6.481 -0.3312  0.1773  0.3060
 5514TIP3   OH238176   2.021   6.014   7.883  0.0455 -0.1277  0.4065
 5514TIP3    H138177   2.031   5.948   7.951 -0.4235 -0.4442  0.1745
 5514TIP3    H238178   1.975   6.086   7.926 -1.3705 -0.8291  0.1285
 5515TIP3   OH238179   6.718   5.041   6.644 -0.1352 -0.0780 -0.6656
 5515TIP3    H138180   6.761   5.118   6.680  1.9709 -1.2740 -0.4482
 5515TIP3    H238181   6.631   5.041   6.684  0.6086  0.9742  1.0704
 5516TIP3   OH238182   4.450   3.467   6.460  0.0722 -0.1129 -0.7671
 5516TIP3    H138183   4.524   3.472   6.400  0.5609 -2.3352 -0.4248
 5516TIP3    H238184   4.455   3.379   6.497 -0.2858  1.0665  2.4311
 5517TIP3   OH238185   0.186   2.824   6.916  0.1849  0.2433 -0.1266
 5517TIP3    H138186   0.091   2.829   6.926  0.2204  0.1699  0.2653
 5517TIP3    H238187   0.221   2.858   6.999  0.4880 -0.9541  0.2453
 5518TIP3   OH238188   3.270   5.690   7.227 -0.4992 -0.4407 -0.1349
 5518TIP3    H138189   3.310   5.603   7.232 -1.7974 -1.0126  1.1261
 5518TIP3    H238190   3.191   5.677   7.175 -1.3175 -0.3008  1.0373
 5519TIP3   OH238191   2.414   2.596   7.694 -0.3149 -0.5107  0.5346
 5519TIP3    H138192   2.503   2.591   7.728  0.0874 -2.8518 -0.6459
 5519TIP3    H238193   2.384   2.505   7.690 -2.9324  0.2310  1.2498
 5520TIP3   OH238194   5.453   0.404   7.011  0.4156 -0.3069  0.8941
 5520TIP3    H138195   5.413   0.485   6.978 -1.2401 -0.6767  1.8865
 5520TIP3    H238196   5.535   0.433   7.051  0.4856  0.6895  0.0837
 5521TIP3   OH238197   0.779   4.509   8.154  0.0474  0.1568  0.0842
 5521TIP3    H138198   0.767   4.519   8.060  1.7242 -0.3126 -0.2117
 5521TIP3    H238199   0.868   4.540   8.170 -0.2861  0.4393  1.5563
 5522TIP3   OH238200   2.579   4.293   2.368  0.7014 -0.1546 -0.1633
 5522TIP3    H138201   2.514   4.322   2.304  0.9947 -0.4840 -0.6208
 5522TIP3    H238202   2.531   4.289   2.451 -0.2428 -1.7697 -0.7459
 5523TIP3   OH238203   3.990   1.089   7.196 -0.3622 -0.4661 -0.6343
 5523TIP3    H138204   4.071   1.093   7.145  0.3824  0.8240  0.5599
 5523TIP3    H238205   3.984   1.175   7.237 -1.9496 -0.8059 -0.0891
 5524TIP3   OH238206   0.465   0.283   7.767 -0.4348  0.7707  0.7296
 5524TIP3    H138207   0.415   0.312   7.691  0.5924  1.8510  0.4329
 5524TIP3    H238208   0.413   0.310   7.842 -0.6842  1.1618  0.4227
 5525TIP3   OH238209   2.484   3.090   1.290 -0.1552 -0.2595  0.0638
 5525TIP3    H138210   2.525   3.161   1.339 -0.5023 -0.8794  1.3110
 5525TIP3    H238211   2.555   3.026   1.278  0.1365  0.2470 -0.9864
 5526TIP3   OH238212   2.644   6.756   7.093  0.4643  0.3137 -0.0184
 5526TIP3    H138213   2.705   6.764   7.020  0.8399  0.4466  0.3047
 5526TIP3    H238214   2.580   6.826   7.079  2.4912  2.7091  1.6188
 5527TIP3   OH238215   6.065   0.433   0.291 -0.1196  0.0835  0.0664
 5527TIP3    H138216   6.094   0.366   0.353 -1.0903 -1.3256 -0.9210
 5527TIP3    H238217   6.143   0.485   0.273  0.6654 -0.7767  0.8590
 5528TIP3   OH238218   2.200   1.544   8.481  0.0876 -0.5241  0.3080
 5528TIP3    H138219   2.147   1.513   8.408 -0.2842  0.7133  0.0310
 5528TIP3    H238220   2.289   1.546   8.448  0.0013 -0.5399  0.0780
 5529TIP3   OH238221   2.676   0.062   1.202  0.1807 -0.0468  0.0627
 5529TIP3    H138222   2.698   0.144   1.157  1.5859  0.0607  0.8992
 5529TIP3    H238223   2.670  -0.003   1.132 -0.2481  0.6172 -0.5341
 5530TIP3   OH238224   4.701   5.245   1.259 -0.5870  0.3300 -0.1739
 5530TIP3    H138225   4.794   5.244   1.239 -0.3339 -0.7645  0.8934
 5530TIP3    H238226   4.658   5.269   1.177  0.6487  1.3583 -0.5446
 5531TIP3   OH238227   4.860   5.512   0.917  0.2815  0.2047  0.0311
 5531TIP3    H138228   4.874   5.428   0.962 -0.7109 -0.5582 -1.0342
 5531TIP3    H238229   4.948   5.551   0.912  1.0075 -1.4102 -0.6819
 5532TIP3   OH238230   4.462   1.348   1.448  0.1178 -0.5060 -0.3039
 5532TIP3    H138231   4.379   1.330   1.493  0.5114 -0.9025  0.2869
 5532TIP3    H238232   4.528   1.304   1.502  0.4899 -2.1022 -1.9555
 5533TIP3   OH238233   3.884   1.714   8.327  0.3049 -0.2098  0.1420
 5533TIP3    H138234   3.890   1.619   8.320 -2.0450 -0.3671 -0.4596
 5533TIP3    H238235   3.861   1.730   8.419 -2.2236 -0.5058 -0.3538
 5534TIP3   OH238236   0.529   6.232   1.644  0.3094  0.1374  0.0514
 5534TIP3    H138237   0.585   6.183   1.705  1.5331  1.5062  0.0757
 5534TIP3    H238238   0.589   6.265   1.578 -0.9202 -0.8046 -1.6042
 5535TIP3   OH238239   1.931   2.998   8.768 -0.1904 -0.1024 -0.4078
 5535TIP3    H138240   1.861   2.936   8.750 -1.6859  1.2631  0.4275
 5535TIP3    H238241   1.886   3.081   8.787  1.5670  0.5178  1.4936
 5536TIP3   OH238242   3.000   0.168   7.320 -0.1066  0.5720 -0.1729
 5536TIP3    H138243   2.991   0.166   7.225 -2.0017 -0.7278 -0.0213
 5536TIP3    H238244   3.079   0.117   7.337 -0.1841  0.1489 -1.0246
 5537TIP3   OH238245   2.514   6.525   7.355  0.2439  0.1799 -0.1125
 5537TIP3    H138246   2.509   6.479   7.439  0.0839  1.0252  0.3631
 5537TIP3    H238247   2.586   6.483   7.308  1.1538  0.4951  0.9580
 5538TIP3   OH238248   2.484   2.545   0.280  0.0803 -0.0916  0.9450
 5538TIP3    H138249   2.390   2.547   0.294 -0.2033  1.3041 -0.7832
 5538TIP3    H238250   2.521   2.591   0.355 -0.9263  2.3363  0.0676
 5539TIP3   OH238251   2.755   1.083   1.695  0.2083 -0.4752  0.0115
 5539TIP3    H138252   2.717   1.169   1.713 -1.9481 -0.9476 -1.8465
 5539TIP3    H238253   2.750   1.037   1.779 -0.4173  0.5766  0.5730
 5540TIP3   OH238254   1.345   5.861   1.361 -0.1943 -0.2448 -0.1574
 5540TIP3    H138255   1.250   5.871   1.355 -0.3089 -0.9601  0.4542
 5540TIP3    H238256   1.363   5.776   1.321  0.1792 -0.1548 -0.1819
 5541TIP3   OH238257   6.657   0.920   7.114  0.0867 -0.1627 -0.5327
 5541TIP3    H138258   6.579   0.864   7.105 -1.4393  1.6970  0.2597
 5541TIP3    H238259   6.671   0.955   7.027 -1.2115  0.9781 -0.3239
 5542TIP3   OH238260   2.321   3.365   1.696 -0.6855  0.0363  0.0070
 5542TIP3    H138261   2.402   3.346   1.743 -0.4118  0.1619 -0.4051
 5542TIP3    H238262   2.332   3.454   1.665 -0.6882 -0.1784 -0.6335
 5543TIP3   OH238263   3.782   2.283   0.467  0.3082  0.4893 -0.0954
 5543TIP3    H138264   3.874   2.280   0.441 -0.6584 -1.4328 -4.1365
 5543TIP3    H238265   3.743   2.350   0.411 -0.8187  1.2802  1.5474
 5544TIP3   OH238266   2.490   6.675   1.418 -0.4206  0.0503  0.1360
 5544TIP3    H138267   2.543   6.620   1.360 -1.1193  0.7852 -1.2530
 5544TIP3    H238268   2.552   6.708   1.483  0.6166  0.0592 -0.8324
 5545TIP3   OH238269   1.128   1.945   0.161  0.1956 -1.0721 -0.0081
 5545TIP3    H138270   1.047   1.897   0.181 -0.7696  0.5770  0.2805
 5545TIP3    H238271   1.142   1.999   0.239  0.7672 -0.2650 -0.6639
 5546TIP3   OH238272   6.291   4.958   6.775  0.3248  0.2709 -0.2479
 5546TIP3    H138273   6.337   5.024   6.723 -1.2192  1.0644 -0.6695
 5546TIP3    H238274   6.342   4.878   6.762  2.3378  1.3849  0.4180
 5547TIP3   OH238275   1.458   0.322   0.407  0.3686  0.4441  0.0615
 5547TIP3    H138276   1.429   0.345   0.495 -0.3921  1.6707 -0.4843
 5547TIP3    H238277   1.517   0.392   0.382 -0.4503  0.8229 -0.8924
 5548TIP3   OH238278   2.015   0.574   0.593  0.3969 -0.0700  0.0515
 5548TIP3    H138279   1.949   0.636   0.563 -1.6844 -0.8612  2.5519
 5548TIP3    H238280   2.058   0.619   0.666  0.8837 -0.4829  0.0205
 5549TIP3   OH238281   3.016   1.747   8.547  0.2425  0.0511  0.5180
 5549TIP3    H138282   2.972   1.662   8.540 -0.4097  0.3563  0.8557
 5549TIP3    H238283   2.969   1.804   8.486  1.7222 -0.2456 -0.9572
 5550TIP3   OH238284   1.890   4.403   0.782 -0.2130  0.3305 -0.0062
 5550TIP3    H138285   1.942   4.329   0.749 -0.7424  0.5395 -1.3476
 5550TIP3    H238286   1.934   4.427   0.863  1.0895 -0.2623 -0.4951
 5551TIP3   OH238287   4.452   3.237   1.813  0.2118  0.3266  0.1350
 5551TIP3    H138288   4.443   3.143   1.796  2.0669 -0.0586  1.0204
 5551TIP3    H238289   4.436   3.247   1.906  2.0289  0.5432  0.4584
 5552TIP3   OH238290   2.652   5.892   8.224 -0.4698  0.1836  0.1066
 5552TIP3    H138291   2.584   5.933   8.172 -0.8590 -0.3851  0.1583
 5552TIP3    H238292   2.615   5.808   8.251  0.2328 -0.1178  0.1685
 5553TIP3   OH238293   4.754   2.374   7.041 -0.1641 -0.3795  0.0850
 5553TIP3    H138294   4.847   2.390   7.023  0.1076 -1.7408  0.1716
 5553TIP3    H238295   4.731   2.301   6.984 -1.4067  0.4580 -0.5186
 5554TIP3   OH238296   2.927   1.194   8.455 -0.2252 -0.1760  0.3604
 5554TIP3    H138297   2.851   1.224   8.506  1.3769  0.9588  2.2394
 5554TIP3    H238298   2.896   1.113   8.412 -2.7397  0.7198  0.2850
 5555TIP3   OH238299   0.366   2.624   7.985 -0.0002 -0.0366 -0.3306
 5555TIP3    H138300   0.353   2.668   7.901  2.0953 -0.5286 -0.9562
 5555TIP3    H238301   0.382   2.533   7.963  0.6222 -0.1671  0.5967
 5556TIP3   OH238302   4.269   2.507   7.670 -0.9666  0.0445  0.0439
 5556TIP3    H138303   4.219   2.426   7.666  0.2858 -0.7659  0.0910
 5556TIP3    H238304   4.240   2.549   7.752 -1.1625 -0.6700  0.3466
 5557TIP3   OH238305   6.737   2.075   7.808  0.1853 -0.3191 -0.4909
 5557TIP3    H138306   6.655   2.062   7.857 -0.0347 -0.0516 -0.7812
 5557TIP3    H238307   6.800   2.101   7.875  0.1323 -0.8977 -0.2101
 5558TIP3   OH238308   0.441   3.496   7.287  0.0924 -0.1693 -0.6309
 5558TIP3    H138309   0.376   3.493   7.357  0.1917 -1.0651 -0.5628
 5558TIP3    H238310   0.504   3.427   7.310  0.1467 -0.4463 -1.5753
 5559TIP3   OH238311   3.375   6.713   1.963 -0.0889  0.0080 -0.3281
 5559TIP3    H138312   3.440   6.661   1.916 -2.1204 -1.2386 -1.9315
 5559TIP3    H238313   3.421   6.745   2.040  2.6853  0.0017 -1.8421
 5560TIP3   OH238314   1.268   0.579   2.097  0.0046 -0.2936  0.5226
 5560TIP3    H138315   1.306   0.557   2.182 -1.1064 -0.1557  1.0652
 5560TIP3    H238316   1.174   0.581   2.112 -0.1808  0.2316 -0.5995
 5561TIP3   OH238317   3.970   2.906   7.061  0.0898  0.2926 -0.5374
 5561TIP3    H138318   3.983   2.888   6.968 -1.3338  2.5500 -1.2483
 5561TIP3    H238319   4.026   2.982   7.079 -0.4635  0.5400  0.1830
 5562TIP3   OH238320   5.289   4.887   0.199 -0.4465  0.0036 -0.4813
 5562TIP3    H138321   5.301   4.982   0.200 -1.4205  0.1454 -1.1442
 5562TIP3    H238322   5.258   4.866   0.287 -0.4073  0.3232 -0.3888
 5563TIP3   OH238323   3.900   6.449   7.164  0.7266 -0.1480 -0.1373
 5563TIP3    H138324   3.913   6.386   7.235  0.3260  0.3903  0.4160
 5563TIP3    H238325   3.823   6.499   7.190 -0.1090 -0.6695 -1.4804
 5564TIP3   OH238326   2.810   2.401   8.156  0.0794 -0.0422  0.3717
 5564TIP3    H138327   2.870   2.327   8.163  1.3902  0.8263 -1.1255
 5564TIP3    H238328   2.827   2.439   8.070 -2.5452  0.3409 -0.0698
 5565TIP3   OH238329   3.652   5.024   2.292 -0.5649 -0.0477  0.1990
 5565TIP3    H138330   3.731   5.062   2.330 -0.2437 -1.2366  0.7705
 5565TIP3    H238331   3.663   5.033   2.197 -0.3648  0.9861  0.3148
 5566TIP3   OH238332   5.296   6.808   8.566 -0.5193 -0.4369  0.4241
 5566TIP3    H138333   5.234   6.813   8.639 -0.5749  0.3399  0.3395
 5566TIP3    H238334   5.382   6.808   8.608 -0.5622 -0.5322  0.5108
 5567TIP3   OH238335   4.525   3.152   0.257  0.4246 -0.2333 -0.2640
 5567TIP3    H138336   4.568   3.093   0.196 -1.9333 -0.9066 -1.3605
 5567TIP3    H238337   4.452   3.102   0.293  1.1925  0.4521  2.4724
 5568TIP3   OH238338   4.793   5.428   7.203 -0.3533  0.4830 -0.6177
 5568TIP3    H138339   4.774   5.446   7.111 -0.2989 -0.6142 -0.8465
 5568TIP3    H238340   4.710   5.442   7.248 -0.5558  0.3124 -0.9384
 5569TIP3   OH238341   6.461   6.078   6.480 -0.1900 -0.0312 -0.1118
 5569TIP3    H138342   6.551   6.056   6.455 -0.0102  0.4782  0.0847
 5569TIP3    H238343   6.450   6.038   6.566  0.1558  0.6753  0.2700
 5570TIP3   OH238344   4.027   6.536   1.571  0.0708  0.1503 -0.4600
 5570TIP3    H138345   4.064   6.465   1.623  0.4673 -0.9878 -2.2026
 5570TIP3    H238346   4.097   6.560   1.510 -0.6494  0.8210 -1.0457
 5571TIP3   OH238347   1.733   6.786   6.836 -0.4121  0.2563  0.2569
 5571TIP3    H138348   1.759   6.807   6.746  0.0106  0.6254  0.4666
 5571TIP3    H238349   1.702   6.869   6.872 -0.2410  0.1822  0.5708
 5572TIP3   OH238350   3.509   0.347   7.383 -0.7221  0.0608 -0.6999
 5572TIP3    H138351   3.444   0.331   7.314  0.5017  0.3431 -1.9688
 5572TIP3    H238352   3.538   0.260   7.410 -1.3329 -0.0553 -0.4061
 5573TIP3   OH238353   1.438   5.258   0.274 -0.8001 -0.1308 -0.1092
 5573TIP3    H138354   1.366   5.320   0.286 -1.1625 -0.5309 -0.1853
 5573TIP3    H238355   1.475   5.247   0.362  0.2533  1.3446 -0.3207
 5574TIP3   OH238356   0.163   3.591   8.469  0.3549 -0.4647 -0.0743
 5574TIP3    H138357   0.208   3.652   8.528  1.0154 -2.1526  1.2350
 5574TIP3    H238358   0.211   3.599   8.386 -0.3923  1.7033 -0.3774
 5575TIP3   OH238359   1.480   1.313   7.242 -0.1117  0.6884  0.1307
 5575TIP3    H138360   1.511   1.223   7.254 -1.5979 -0.4061 -3.1765
 5575TIP3    H238361   1.441   1.336   7.327  0.0548 -1.8898  1.0008
 5576TIP3   OH238362   3.843   6.131   0.758  0.0072 -0.4285  0.0300
 5576TIP3    H138363   3.806   6.173   0.835  0.1992  1.1565 -0.7070
 5576TIP3    H238364   3.767   6.100   0.708 -0.3387  1.6368 -0.8227
 5577TIP3   OH238365   2.010   0.321   0.698  0.2473 -0.0758  0.1659
 5577TIP3    H138366   2.002   0.412   0.671  1.4611  0.3489  1.1580
 5577TIP3    H238367   1.974   0.271   0.624 -3.2918  1.2494  0.7729
 5578TIP3   OH238368   2.577   5.684   0.556  0.1238 -0.3187 -0.1622
 5578TIP3    H138369   2.507   5.667   0.620 -0.8584 -3.2521 -1.8045
 5578TIP3    H238370   2.657   5.654   0.601 -0.3879 -1.3178  0.1308
 5579TIP3   OH238371   0.047   4.690   2.494 -0.2614  0.4695 -0.1919
 5579TIP3    H138372  -0.036   4.724   2.461 -1.7513 -0.9606  1.8674
 5579TIP3    H238373   0.098   4.674   2.414 -2.6344 -0.2767 -1.6932
 5580TIP3   OH238374   5.761   3.403   8.468 -0.0746  0.1871  0.6342
 5580TIP3    H138375   5.704   3.464   8.516 -1.2901 -1.0619  0.8399
 5580TIP3    H238376   5.805   3.353   8.537  1.5826  1.3449  0.4891
 5581TIP3   OH238377   5.253   0.495   8.492 -0.0900  0.2752 -0.0487
 5581TIP3    H138378   5.303   0.577   8.480  2.1382 -1.1308 -1.0881
 5581TIP3    H238379   5.227   0.496   8.584 -1.0126  2.5935 -0.2688
 5582TIP3   OH238380   0.878   0.557   0.232 -0.1594  0.2691  0.4635
 5582TIP3    H138381   0.852   0.483   0.287  1.1159 -0.8793 -0.4273
 5582TIP3    H238382   0.960   0.529   0.190  0.1470  2.0275 -0.2155
 5583TIP3   OH238383   6.003   3.536   7.269  0.4600 -0.3187 -0.1933
 5583TIP3    H138384   5.957   3.619   7.279  2.2963  0.9698 -1.6673
 5583TIP3    H238385   6.040   3.518   7.355  1.3751  1.2817 -0.2109
 5584TIP3   OH238386   2.098   1.465   7.537  0.6892 -0.1091  0.2167
 5584TIP3    H138387   2.019   1.430   7.578  0.0020  0.2841 -0.7149
 5584TIP3    H238388   2.164   1.466   7.606 -0.3489  0.3072  1.2225
 5585TIP3   OH238389   0.966   6.005   6.669  0.7591 -0.3728 -0.0692
 5585TIP3    H138390   0.896   6.024   6.606  0.2118 -0.7633  0.4012
 5585TIP3    H238391   0.960   5.910   6.683  0.8968 -0.2991  0.5342
 5586TIP3   OH238392   1.481   1.072   8.544 -0.6341  0.2283  0.0856
 5586TIP3    H138393   1.451   1.001   8.487  0.2925 -0.8506  0.9152
 5586TIP3    H238394   1.458   1.044   8.632  0.7971  0.4007  0.5324
 5587TIP3   OH238395   0.280   3.209   0.750  0.2370  0.1952 -0.3573
 5587TIP3    H138396   0.186   3.219   0.764  0.2632 -0.7417  0.6664
 5587TIP3    H238397   0.318   3.212   0.838  1.2583  1.3073 -0.8121
 5588TIP3   OH238398   3.135   6.415   1.457  0.1223 -0.7276 -0.7183
 5588TIP3    H138399   3.075   6.388   1.526  1.1456  0.4233  0.6818
 5588TIP3    H238400   3.078   6.447   1.387 -0.9258 -0.3142  0.2941
 5589TIP3   OH238401   3.078   2.874   7.173  0.4049  0.2055  0.8714
 5589TIP3    H138402   3.133   2.934   7.223  0.9476  1.3908 -1.0186
 5589TIP3    H238403   3.124   2.863   7.090 -1.8672  0.7623 -0.5656
 5590TIP3   OH238404   2.050   6.605   8.386  0.4716 -0.2807  0.0109
 5590TIP3    H138405   2.122   6.579   8.328  0.7951 -0.4452  0.4780
 5590TIP3    H238406   1.987   6.533   8.381  0.3512 -0.1533 -0.3705
 5591TIP3   OH238407   1.751   2.425   1.709 -0.1458  0.3253  0.0926
 5591TIP3    H138408   1.656   2.438   1.699 -0.0204  1.9989  0.7045
 5591TIP3    H238409   1.763   2.331   1.700 -1.8268  0.1068 -0.3366
 5592TIP3   OH238410   1.943   1.969   2.580  0.1461 -0.4595  0.3748
 5592TIP3    H138411   1.952   2.033   2.510  1.8474 -1.3852 -0.3221
 5592TIP3    H238412   1.942   2.021   2.660  0.3945  0.4964 -0.2286
 5593TIP3   OH238413   5.368   1.151   7.724 -0.2546  0.1999 -0.4523
 5593TIP3    H138414   5.403   1.123   7.809  0.3700  1.6003 -0.2164
 5593TIP3    H238415   5.426   1.222   7.697 -2.3330  1.9422 -0.5436
 5594TIP3   OH238416   5.076   5.633   0.293  0.0951  0.7268  0.7986
 5594TIP3    H138417   5.145   5.699   0.291 -1.2693  2.2169 -1.2156
 5594TIP3    H238418   5.020   5.655   0.218 -0.3842 -2.7827 -0.0432
 5595TIP3   OH238419   1.718   2.190   7.010  0.4783 -0.0102  0.3790
 5595TIP3    H138420   1.669   2.111   6.988  0.7615 -0.3589  0.9829
 5595TIP3    H238421   1.725   2.238   6.927 -0.0563 -0.4118  0.0954
 5596TIP3   OH238422   4.072   5.544   0.195 -0.4263 -0.4071  0.3577
 5596TIP3    H138423   4.039   5.548   0.285  1.1744 -1.2143  1.0146
 5596TIP3    H238424   4.147   5.485   0.199 -0.4645 -0.6592 -1.5709
 5597TIP3   OH238425   2.827   3.704   8.363  0.1451  0.1292  0.0976
 5597TIP3    H138426   2.779   3.762   8.304  1.3092  0.8451 -0.1787
 5597TIP3    H238427   2.839   3.624   8.312 -1.4667 -0.4034  0.4806
 5598TIP3   OH238428   2.895   4.465   1.390 -0.2084 -0.2690  0.3524
 5598TIP3    H138429   2.946   4.414   1.328 -0.4137 -1.2215  0.9537
 5598TIP3    H238430   2.900   4.416   1.472  0.6731  1.3173  1.3262
 5599TIP3   OH238431   3.785   1.186   7.852  0.8989  0.2640  0.0394
 5599TIP3    H138432   3.869   1.187   7.898  0.3837 -0.6933  1.0384
 5599TIP3    H238433   3.755   1.095   7.858 -0.1367  0.5592 -0.4258
 5600TIP3   OH238434   2.816   5.586   0.689  0.1987  0.6463 -0.3847
 5600TIP3    H138435   2.811   5.491   0.685  0.8074  0.2756  3.6662
 5600TIP3    H238436   2.888   5.609   0.630  0.7330 -1.4970 -0.6305
 5601TIP3   OH238437   5.777   4.409   6.920  0.0397 -1.0574 -0.4576
 5601TIP3    H138438   5.837   4.443   6.854  0.1964 -0.1103  0.1489
 5601TIP3    H238439   5.714   4.480   6.934  0.7643 -0.6979  1.3164
 5602TIP3   OH238440   5.337   0.872   6.704  0.4170 -0.0201  0.1055
 5602TIP3    H138441   5.369   0.811   6.638 -0.7717 -0.6180  0.0496
 5602TIP3    H238442   5.258   0.911   6.665  0.4466  0.5993  0.6465
 5603TIP3   OH238443   1.343   4.812   0.463 -0.6245  0.0917 -0.2279
 5603TIP3    H138444   1.346   4.727   0.418 -0.6632 -0.1639  0.2382
 5603TIP3    H238445   1.405   4.867   0.415 -0.0325 -0.4345 -0.0789
 5604TIP3   OH238446   3.427   4.765   0.821  0.3428 -0.3380  0.6863
 5604TIP3    H138447   3.464   4.728   0.901  1.9339 -0.3817 -0.0276
 5604TIP3    H238448   3.455   4.856   0.821 -0.2826 -0.1377  0.5341
 5605TIP3   OH238449   1.092   3.900   8.488  0.4297  0.0618 -0.1407
 5605TIP3    H138450   1.060   3.887   8.398 -1.7237  0.1210  0.5580
 5605TIP3    H238451   1.108   3.995   8.494  1.6531 -0.0816 -0.7525
 5606TIP3   OH238452   4.206   2.338   8.082 -0.1561 -0.2160  0.0038
 5606TIP3    H138453   4.159   2.293   8.012 -1.8549 -0.1562  1.0417
 5606TIP3    H238454   4.169   2.427   8.082 -0.2743 -0.2506  1.0187
 5607TIP3   OH238455   0.123   0.712   0.510  0.1251 -0.5613  0.3506
 5607TIP3    H138456   0.097   0.803   0.499  1.2958 -0.3270 -0.6922
 5607TIP3    H238457   0.195   0.715   0.573  0.0314 -0.7978  0.4719
 5608TIP3   OH238458   2.058   2.124   7.990  0.0940  0.3776  0.1311
 5608TIP3    H138459   2.119   2.176   8.042  1.6510 -0.3146 -0.9175
 5608TIP3    H238460   2.104   2.108   7.908 -1.2154 -0.8081 -0.4170
 5609TIP3   OH238461   6.467   2.979   7.659 -0.0848  0.1947 -0.3909
 5609TIP3    H138462   6.437   2.891   7.682  0.8785 -0.2945 -0.9354
 5609TIP3    H238463   6.480   2.975   7.564  1.9930  0.2650 -0.1451
 5610TIP3   OH238464   2.357   0.961   6.322  0.5377  0.1685 -0.1704
 5610TIP3    H138465   2.287   0.917   6.273  2.3389 -2.0735 -0.8932
 5610TIP3    H238466   2.423   0.982   6.256  0.5491  2.3789  0.4711
 5611TIP3   OH238467   2.263   6.126   8.837 -0.0730 -0.1446 -0.0366
 5611TIP3    H138468   2.212   6.174   8.902 -0.0340  0.4578 -0.4436
 5611TIP3    H238469   2.201   6.107   8.766  0.9504  3.9085 -2.3530
 5612TIP3   OH238470   6.794   4.772   8.081 -0.3157 -0.4083 -0.5322
 5612TIP3    H138471   6.884   4.767   8.048 -0.0034  0.3675  0.1607
 5612TIP3    H238472   6.768   4.863   8.064 -0.6732 -0.4053  0.0207
 5613TIP3   OH238473   5.553   1.005   0.598 -0.3628 -0.4804  0.0543
 5613TIP3    H138474   5.562   1.055   0.679  0.3666  0.2236 -0.4462
 5613TIP3    H238475   5.502   1.061   0.540  0.6888 -0.1611 -0.6042
 5614TIP3   OH238476   6.518   3.204   6.612  0.1650 -0.5056  0.1307
 5614TIP3    H138477   6.586   3.137   6.616  0.7403  0.0534 -0.1940
 5614TIP3    H238478   6.522   3.247   6.698  0.4525 -0.2413 -0.0176
 5615TIP3   OH238479   1.527   5.599   2.321 -0.3802 -0.7348  0.0457
 5615TIP3    H138480   1.576   5.671   2.360  0.1380 -1.5429  0.9531
 5615TIP3    H238481   1.480   5.638   2.248  1.1728  0.1875 -0.5052
 5616TIP3   OH238482   0.818   1.798   7.324 -0.3115  0.0847 -0.4918
 5616TIP3    H138483   0.749   1.864   7.322  0.0231  0.5676  1.6177
 5616TIP3    H238484   0.806   1.752   7.407  1.2850 -0.4924 -0.5324
 5617TIP3   OH238485   1.468   0.063   6.194  0.1018 -0.0742 -0.3251
 5617TIP3    H138486   1.472   0.154   6.225  0.2558 -0.3604  0.5177
 5617TIP3    H238487   1.464   0.070   6.098 -0.5301  0.8380 -0.2444
 5618TIP3   OH238488   0.282   4.485   7.115 -0.4507 -0.1699 -0.1059
 5618TIP3    H138489   0.281   4.569   7.160 -0.5279 -0.9539  1.4305
 5618TIP3    H238490   0.362   4.442   7.145 -0.8321 -0.9802 -0.2020
 5619TIP3   OH238491   3.145   3.887   1.545 -0.0738  0.0267 -0.0906
 5619TIP3    H138492   3.163   3.845   1.460  3.3453  0.8444  0.0839
 5619TIP3    H238493   3.206   3.845   1.605 -2.4087 -0.5053  2.0811
 5620TIP3   OH238494   6.579   1.964   8.008  0.2709  0.5867 -0.6272
 5620TIP3    H138495   6.484   1.979   8.012  0.2975  1.1348 -1.6050
 5620TIP3    H238496   6.588   1.878   7.967  0.1722 -0.9157  2.2730
 5621TIP3   OH238497   5.631   3.301   6.666  0.0192 -0.0665 -0.6444
 5621TIP3    H138498   5.686   3.237   6.622  1.7374  1.4352 -0.8056
 5621TIP3    H238499   5.612   3.367   6.599  0.3743  0.8416  0.1188
 5622TIP3   OH238500   4.333   0.556   8.772  0.0404  0.2401 -0.6075
 5622TIP3    H138501   4.370   0.530   8.856  0.7143 -0.6918 -1.1714
 5622TIP3    H238502   4.397   0.526   8.708 -1.2260 -0.5225 -1.5558
 5623TIP3   OH238503   5.653   5.611   0.472 -0.3224  0.4558  0.2123
 5623TIP3    H138504   5.690   5.638   0.388  3.2211  0.3207  1.5704
 5623TIP3    H238505   5.616   5.691   0.509 -0.9678  0.7278 -0.9601
 5624TIP3   OH238506   5.878   0.038   7.543 -0.2147  0.1376  0.3740
 5624TIP3    H138507   5.937   0.083   7.603  0.0823 -1.0678  1.0206
 5624TIP3    H238508   5.794   0.034   7.590  0.1100 -1.1124  0.8841
 5625TIP3   OH238509   3.072   0.729   1.786  0.0704  0.1795 -0.2472
 5625TIP3    H138510   3.016   0.738   1.864 -0.2586  0.2533 -0.4871
 5625TIP3    H238511   3.132   0.803   1.790 -1.8267  1.8978 -1.5681
 5626TIP3   OH238512   2.273   5.918   1.843  0.1640  0.0049 -0.1083
 5626TIP3    H138513   2.220   5.897   1.921  1.1857  0.7758  0.8193
 5626TIP3    H238514   2.312   5.834   1.818 -0.6771 -0.3742 -0.1962
 5627TIP3   OH238515   5.879   4.229   1.878  0.5466  0.4021  0.2447
 5627TIP3    H138516   5.835   4.296   1.825 -1.3836  0.6065  1.9736
 5627TIP3    H238517   5.809   4.169   1.904  0.8824  1.3811  4.1151
 5628TIP3   OH238518   0.269   1.913   8.313  0.2370 -0.3246 -0.3683
 5628TIP3    H138519   0.294   1.887   8.224  1.1009  0.4959 -0.3809
 5628TIP3    H238520   0.186   1.869   8.328 -1.3696  1.6782 -2.6143
 5629TIP3   OH238521   2.280   3.984   0.126 -0.8482 -0.2353 -0.2671
 5629TIP3    H138522   2.357   3.992   0.071 -0.9894  1.2704 -0.2946
 5629TIP3    H238523   2.235   4.068   0.117  0.2431  1.0315  3.7717
 5630TIP3   OH238524   5.313   1.335   0.981  0.6719  1.1379  0.5315
 5630TIP3    H138525   5.221   1.332   0.953  0.8697  0.5754 -0.0709
 5630TIP3    H238526   5.309   1.323   1.076  0.2139 -0.3939  0.3441
 5631TIP3   OH238527   0.956   6.121   8.295 -0.4143 -0.6162  0.4558
 5631TIP3    H138528   1.012   6.190   8.259 -0.6169 -1.4825 -1.6816
 5631TIP3    H238529   0.980   6.117   8.388  0.1513  1.7572  0.4774
 5632TIP3   OH238530   2.156   6.507   6.959 -0.9721 -0.4391 -0.0245
 5632TIP3    H138531   2.173   6.590   6.916 -0.8195 -0.1189  0.6396
 5632TIP3    H238532   2.164   6.441   6.890 -2.9244  0.2358 -0.9759
 5633TIP3   OH238533   6.329   4.595   1.024  0.4934  0.9273  0.3262
 5633TIP3    H138534   6.328   4.499   1.021 -1.2760  0.9420 -0.4599
 5633TIP3    H238535   6.283   4.617   1.104  2.2564  1.1556  1.3372
 5634TIP3   OH238536   6.414   4.600   8.066  0.3149 -0.4010  0.3651
 5634TIP3    H138537   6.412   4.666   7.996  1.0884 -0.6991  0.0499
 5634TIP3    H238538   6.497   4.615   8.110 -0.4326  0.1713  1.6174
 5635TIP3   OH238539   3.553   6.331   2.189 -0.7639  0.1488  0.0824
 5635TIP3    H138540   3.597   6.415   2.187 -0.9664  0.2476 -0.3292
 5635TIP3    H238541   3.479   6.344   2.248 -2.6094  1.1913 -2.2719
 5636TIP3   OH238542   0.929   6.163   1.908 -0.6601 -0.0682  0.1251
 5636TIP3    H138543   0.858   6.136   1.966  0.3565 -1.8211  0.6186
 5636TIP3    H238544   1.005   6.172   1.965  0.0825 -0.6325 -0.7426
 5637TIP3   OH238545   0.259   1.241   1.509 -0.2450 -0.2564  0.1987
 5637TIP3    H138546   0.252   1.219   1.602  0.9695 -2.1419 -0.1209
 5637TIP3    H238547   0.205   1.175   1.465 -1.3372  1.0048 -0.4382
 5638TIP3   OH238548   2.767   0.732   6.961 -0.0349  0.2174  0.4478
 5638TIP3    H138549   2.853   0.693   6.948 -0.1005  0.0936  0.3884
 5638TIP3    H238550   2.774   0.777   7.045 -0.4037 -1.1392  1.2310
 5639TIP3   OH238551   3.647   2.487   8.335 -0.6115  0.0278 -0.1706
 5639TIP3    H138552   3.580   2.426   8.304 -0.0088 -0.2747 -0.9166
 5639TIP3    H238553   3.611   2.523   8.416 -1.3886 -0.6143 -0.2155
 5640TIP3   OH238554   1.171   0.996   7.080  0.3256  0.2933 -0.1467
 5640TIP3    H138555   1.163   1.005   7.175 -0.8025 -1.8292  0.0447
 5640TIP3    H238556   1.141   1.080   7.045 -0.5230  0.6570  1.3571
 5641TIP3   OH238557   1.272   2.480   8.488 -0.6873 -0.2556  0.0466
 5641TIP3    H138558   1.223   2.427   8.550 -0.3129 -0.6596 -0.0021
 5641TIP3    H238559   1.217   2.483   8.409 -0.6615 -0.6547  0.0137
 5642TIP3   OH238560   4.904   2.173   8.071  0.1873  0.0179 -0.2786
 5642TIP3    H138561   4.965   2.240   8.100  0.0774 -0.4409  1.0789
 5642TIP3    H238562   4.857   2.147   8.150 -0.2979 -1.1282 -0.9147
 5643TIP3   OH238563   0.112   1.021   1.427  0.2013 -0.1399 -0.2011
 5643TIP3    H138564   0.057   1.053   1.498  1.1383 -0.5461  0.7348
 5643TIP3    H238565   0.100   0.926   1.428  0.1855 -0.1436 -0.6142
 5644TIP3   OH238566   5.677   0.052   6.736  0.0033  0.1345  0.1457
 5644TIP3    H138567   5.632   0.115   6.680  0.1950 -0.5421 -0.8109
 5644TIP3    H238568   5.659  -0.033   6.695 -0.1031 -0.4188  1.3014
 5645TIP3   OH238569   1.677   2.901   0.666 -0.3574 -0.5178 -0.1381
 5645TIP3    H138570   1.659   2.834   0.732  0.2790  0.8358  1.5066
 5645TIP3    H238571   1.619   2.973   0.689 -0.2560 -0.0924 -1.1864
 5646TIP3   OH238572   1.565   2.115   7.838 -0.4169  0.0808 -0.1089
 5646TIP3    H138573   1.657   2.136   7.848 -0.2221 -0.8052  0.0851
 5646TIP3    H238574   1.558   2.075   7.751 -0.8108  1.0649 -0.5523
 5647TIP3   OH238575   2.440   0.018   1.962 -0.1066  0.5594 -0.1457
 5647TIP3    H138576   2.464   0.109   1.977 -0.2508  0.4775  0.6358
 5647TIP3    H238577   2.349   0.022   1.933  0.0055  0.6899 -0.4804
 5648TIP3   OH238578   1.419   4.507   0.310 -0.0896  0.6119  0.3921
 5648TIP3    H138579   1.403   4.499   0.216  1.0361 -0.3837  0.2665
 5648TIP3    H238580   1.333   4.494   0.350 -0.4522  0.3035 -0.4680
 5649TIP3   OH238581   5.938   4.143   8.477  0.2868 -0.1457 -0.6927
 5649TIP3    H138582   5.979   4.182   8.400  0.7167  1.3939  0.2757
 5649TIP3    H238583   5.967   4.198   8.550 -4.0882  1.5870  0.0041
 5650TIP3   OH238584   0.612   6.401   0.661  0.4155  0.6302  1.0718
 5650TIP3    H138585   0.660   6.484   0.665  0.3197  0.7728 -0.2350
 5650TIP3    H238586   0.667   6.339   0.707  0.9279  1.2183  1.2645
 5651TIP3   OH238587   0.595   2.021   6.752  0.0847 -0.3255  0.1637
 5651TIP3    H138588   0.605   1.935   6.710 -0.2317 -0.1675 -0.2453
 5651TIP3    H238589   0.614   2.005   6.844 -1.0726 -1.0764  0.2973
 5652TIP3   OH238590   5.917   5.323   8.405 -0.2040 -0.1256  0.1454
 5652TIP3    H138591   5.939   5.416   8.403 -0.1497 -0.1386 -1.7066
 5652TIP3    H238592   5.999   5.278   8.385 -0.4768 -0.5170 -0.1062
 5653TIP3   OH238593   6.152   3.966   7.981 -0.1827  0.2285  0.4310
 5653TIP3    H138594   6.226   4.025   7.963  1.7980 -2.2803 -0.3574
 5653TIP3    H238595   6.102   3.966   7.899  0.1408  0.3935  0.2270
 5654TIP3   OH238596   6.081   4.393   0.768 -0.0839  0.0685  0.2461
 5654TIP3    H138597   6.035   4.407   0.686  0.9633 -0.4141 -0.4561
 5654TIP3    H238598   6.013   4.388   0.835 -0.8812  1.5229 -0.4416
 5655TIP3   OH238599   6.664   0.995   1.849  0.4830  0.8014  0.3579
 5655TIP3    H138600   6.682   1.050   1.925  1.6196  2.1103 -0.8074
 5655TIP3    H238601   6.733   0.929   1.850 -0.4330 -0.1852  1.3203
 5656TIP3   OH238602   1.192   6.069   0.667 -0.0763  0.2613 -0.2254
 5656TIP3    H138603   1.263   6.009   0.643  1.4138  2.0851 -0.6517
 5656TIP3    H238604   1.217   6.103   0.753  0.1827  1.7004 -0.8267
 5657TIP3   OH238605   5.873   2.404   1.714 -0.4045  0.1969 -0.1944
 5657TIP3    H138606   5.936   2.344   1.673  0.4213 -0.7125  2.2284
 5657TIP3    H238607   5.917   2.489   1.713  0.2538 -0.1299  0.1634
 5658TIP3   OH238608   4.580   2.413   0.372  0.3585  0.2376 -0.3694
 5658TIP3    H138609   4.661   2.396   0.420 -0.4093 -2.9549  0.0115
 5658TIP3    H238610   4.525   2.461   0.433  1.1125  0.3290  0.2489
 5659TIP3   OH238611   2.162   2.061   7.230 -0.2893 -0.3276  0.1375
 5659TIP3    H138612   2.095   2.074   7.163 -1.0513 -1.5168  0.6368
 5659TIP3    H238613   2.133   2.114   7.304 -0.9065 -1.1287  0.4880
 5660TIP3   OH238614   0.054   3.281   0.320  0.4636  0.0739  0.5273
 5660TIP3    H138615   0.084   3.190   0.325 -0.1103 -0.2470 -1.2162
 5660TIP3    H238616   0.091   3.314   0.238 -3.2134 -0.1456 -1.4251
 5661TIP3   OH238617   0.805   3.494   1.810  0.3678 -0.0273  0.1815
 5661TIP3    H138618   0.805   3.586   1.836 -2.9112  0.4193 -0.8546
 5661TIP3    H238619   0.726   3.458   1.852 -0.2974 -1.4385 -2.0910
 5662TIP3   OH238620   6.117   4.032   0.772 -0.0014  0.5167 -0.5386
 5662TIP3    H138621   6.188   3.975   0.801  0.2947  1.6835  1.1617
 5662TIP3    H238622   6.160   4.096   0.715 -0.2819 -0.6860 -2.1848
 5663TIP3   OH238623   2.798   5.490   7.835  0.1702  0.3434 -0.6294
 5663TIP3    H138624   2.815   5.396   7.846 -1.4229  0.1844  0.7131
 5663TIP3    H238625   2.742   5.513   7.908  1.3679  2.6005 -0.3490
 5664TIP3   OH238626   3.670   0.627   6.969  0.1849  0.4099  0.2545
 5664TIP3    H138627   3.660   0.587   7.056  2.2978  0.3707  0.5153
 5664TIP3    H238628   3.732   0.698   6.982  1.0083  0.0154 -1.3409
 5665TIP3   OH238629   2.975   0.866   8.591 -0.1283  0.3330 -0.5945
 5665TIP3    H138630   2.948   0.774   8.603  2.0306 -0.2230  0.4433
 5665TIP3    H238631   2.892   0.914   8.583 -1.3170 -1.7396 -1.6562
 5666TIP3   OH238632   4.452   1.786   0.824 -0.3480  0.0455  0.4081
 5666TIP3    H138633   4.447   1.879   0.804  0.6511  0.2187  0.9001
 5666TIP3    H238634   4.533   1.757   0.783  0.2571 -0.2110  1.7243
 5667TIP3   OH238635   3.793   0.744   1.455  0.2035  0.0287  0.1619
 5667TIP3    H138636   3.825   0.827   1.420 -0.7476 -0.3926 -1.8583
 5667TIP3    H238637   3.708   0.764   1.493 -0.6375 -0.2108 -1.5204
 5668TIP3   OH238638   6.313   5.642   8.447  0.2695  0.1808  0.1430
 5668TIP3    H138639   6.294   5.571   8.508  0.6825 -0.1232 -0.0836
 5668TIP3    H238640   6.270   5.615   8.366  0.1098  0.3719  0.1610
 5669TIP3   OH238641   5.561   2.748   1.211  0.0071 -0.4011 -0.4641
 5669TIP3    H138642   5.469   2.722   1.221 -0.0407  0.1878  0.7794
 5669TIP3    H238643   5.601   2.728   1.295  0.0397  3.1120  0.4969
 5670TIP3   OH238644   0.810   2.245   7.668 -0.5295 -0.1497 -0.4142
 5670TIP3    H138645   0.873   2.273   7.734  2.0905  2.7914 -3.7715
 5670TIP3    H238646   0.795   2.152   7.688  3.4258 -0.5470  1.7897
 5671TIP3   OH238647   2.217   1.018   7.759 -0.0652 -0.4190 -0.4666
 5671TIP3    H138648   2.259   0.973   7.685  0.3182  0.9277 -1.1062
 5671TIP3    H238649   2.287   1.031   7.823  0.1561  0.4089 -0.8540
 5672TIP3   OH238650   4.382   1.833   1.102  0.1403  0.2478  0.8188
 5672TIP3    H138651   4.414   1.807   1.015  1.2901 -0.0436  1.3158
 5672TIP3    H238652   4.289   1.807   1.102  0.2293 -0.1218 -0.1748
 5673TIP3   OH238653   5.470   3.867   0.350  0.2296  0.2237 -1.0338
 5673TIP3    H138654   5.396   3.850   0.291 -0.0333 -0.5912 -0.4963
 5673TIP3    H238655   5.499   3.955   0.328  0.1201 -0.0536 -2.3517
 5674TIP3   OH238656   2.436   0.673   8.707  0.4112 -0.0767 -0.4008
 5674TIP3    H138657   2.488   0.663   8.787  0.0415 -2.0663 -0.3606
 5674TIP3    H238658   2.441   0.588   8.664 -1.2818  0.2560 -1.3448
 5675TIP3   OH238659   0.018   3.156   7.769 -0.3834  0.4188  0.2874
 5675TIP3    H138660   0.021   3.158   7.864 -0.6165  2.5670  0.2938
 5675TIP3    H238661   0.054   3.241   7.742 -2.2096  0.7073 -1.4609
 5676TIP3   OH238662   2.339   6.629   6.339  0.9518  0.2583  0.0445
 5676TIP3    H138663   2.315   6.717   6.364 -1.0586 -0.1350 -0.3578
 5676TIP3    H238664   2.378   6.638   6.252  1.7788  0.8396  0.4596
 5677TIP3   OH238665   2.569   0.351   0.302 -0.1596 -0.3173 -0.0838
 5677TIP3    H138666   2.505   0.297   0.349 -1.7163  0.2545 -1.4410
 5677TIP3    H238667   2.586   0.424   0.361 -0.2710 -0.7953  0.5570
 5678TIP3   OH238668   6.130   3.224   0.806 -0.7281  0.2774  0.2448
 5678TIP3    H138669   6.066   3.154   0.798 -1.1337  0.4233  1.8423
 5678TIP3    H238670   6.207   3.192   0.759 -1.0649 -1.0479  0.5563
 5679TIP3   OH238671   5.652   0.941   7.601 -0.2324 -0.1006 -0.0366
 5679TIP3    H138672   5.679   1.005   7.667 -0.2393  1.6931 -1.6795
 5679TIP3    H238673   5.665   0.856   7.643  0.4954  0.9379  1.9735
 5680TIP3   OH238674   4.087   1.804   2.046 -0.0184 -0.2207 -0.1528
 5680TIP3    H138675   4.055   1.746   1.977  0.8578 -0.9598  0.0468
 5680TIP3    H238676   4.046   1.771   2.126  1.0135 -1.0182  0.0664
 5681TIP3   OH238677   1.074   0.529   0.037  0.3816  0.2604  0.3011
 5681TIP3    H138678   1.153   0.475   0.039  1.2769  1.4850 -0.6168
 5681TIP3    H238679   1.047   0.531  -0.055  0.9522  2.1396  0.1219
 5682TIP3   OH238680   2.515   0.227   6.807 -0.8945  0.3873  0.2551
 5682TIP3    H138681   2.479   0.176   6.879 -0.8121 -1.4042 -0.8950
 5682TIP3    H238682   2.440   0.246   6.751 -0.7437  0.4791  0.0812
 5683TIP3   OH238683   4.885   2.960   1.306 -0.0339  0.1939 -0.5196
 5683TIP3    H138684   4.814   2.976   1.244  0.9721  0.1401 -1.7097
 5683TIP3    H238685   4.857   2.881   1.354 -1.5847  1.1851  0.2783
 5684TIP3   OH238686   6.304   0.264   8.546  0.2940 -0.5996 -0.4222
 5684TIP3    H138687   6.282   0.172   8.530  1.4345 -1.5333  2.6712
 5684TIP3    H238688   6.254   0.287   8.624 -0.1335  1.5462 -1.2608
 5685TIP3   OH238689   6.418   5.483   0.902  0.5463 -0.2255  0.0203
 5685TIP3    H138690   6.490   5.428   0.872 -0.0358 -0.3615 -1.2361
 5685TIP3    H238691   6.342   5.424   0.903  0.2120  0.2031  0.1101
 5686TIP3   OH238692   0.354   3.384   1.770 -0.0373 -0.6555 -0.1788
 5686TIP3    H138693   0.297   3.327   1.822  0.9477  0.0976  1.8543
 5686TIP3    H238694   0.443   3.365   1.801  0.4949  0.6107 -0.8168
 5687TIP3   OH238695   1.513   0.504   6.862  0.3037  0.1092  0.7266
 5687TIP3    H138696   1.473   0.556   6.792  1.2876 -0.9531 -0.7044
 5687TIP3    H238697   1.541   0.423   6.818 -0.2693 -1.1947  2.6547
 5688TIP3   OH238698   5.201   1.194   0.757  0.2425 -0.1727  0.3462
 5688TIP3    H138699   5.121   1.151   0.728  0.4498 -0.8477  0.7499
 5688TIP3    H238700   5.219   1.155   0.842  0.4576  0.6995  0.7081
 5689TIP3   OH238701   2.638   1.560   6.775 -0.9144 -0.9915 -0.0903
 5689TIP3    H138702   2.697   1.526   6.843 -0.0257  0.8446  0.1177
 5689TIP3    H238703   2.674   1.526   6.693  0.2800 -0.1470  0.0621
 5690TIP3   OH238704   5.801   0.030   0.095  0.3342 -0.4649 -0.8265
 5690TIP3    H138705   5.893   0.055   0.104  0.1189  0.0763  0.0264
 5690TIP3    H238706   5.753   0.111   0.110 -0.3971 -1.3705  2.7179
 5691TIP3   OH238707   6.561   0.248   0.734  0.0070 -0.0565 -0.1059
 5691TIP3    H138708   6.616   0.174   0.759 -1.6355 -1.7367 -1.2068
 5691TIP3    H238709   6.580   0.261   0.641  0.7280  1.3356  0.2182
 5692TIP3   OH238710   0.601   0.639   8.036  0.1693  0.4054 -1.0205
 5692TIP3    H138711   0.591   0.733   8.052  0.9189  0.8238 -2.7231
 5692TIP3    H238712   0.652   0.634   7.955  1.3029 -1.4840 -0.2522
 5693TIP3   OH238713   3.608   0.888   8.687 -0.2416  0.0486 -0.2938
 5693TIP3    H138714   3.680   0.840   8.728  1.1089  0.9088 -1.5848
 5693TIP3    H238715   3.592   0.963   8.744  1.9666  1.5197 -1.4827
 5694TIP3   OH238716   0.580   3.447   0.194  0.2654 -0.0606  0.2128
 5694TIP3    H138717   0.526   3.441   0.115  0.0777  1.1069  0.2274
 5694TIP3    H238718   0.537   3.515   0.247  2.0398  1.3570 -0.0455
 5695TIP3   OH238719   3.831   0.378   2.602  0.1157  0.1977 -0.2967
 5695TIP3    H138720   3.750   0.362   2.650  0.1505  1.0922  0.0851
 5695TIP3    H238721   3.828   0.316   2.529  1.2152 -2.9805  2.1263
 5696TIP3   OH238722   4.388   2.952   0.824  0.1725 -0.2283  0.4543
 5696TIP3    H138723   4.404   2.992   0.739  0.6243 -0.3362  0.4865
 5696TIP3    H238724   4.315   2.892   0.810  1.4834 -1.7239 -0.3263
 5697TIP3   OH238725   4.926   5.145   7.080  0.0261 -0.3181  0.1025
 5697TIP3    H138726   4.923   5.177   7.170 -0.1605 -0.3248  0.0985
 5697TIP3    H238727   4.974   5.212   7.032  1.3104 -0.9403  0.4678
 5698TIP3   OH238728   0.808   4.059   0.375 -0.1616  0.0227 -0.3895
 5698TIP3    H138729   0.787   3.966   0.379 -0.1542  0.0600  0.7511
 5698TIP3    H238730   0.835   4.074   0.284 -0.0622 -1.1043 -0.5533
 5699TIP3   OH238731   4.515   6.420   7.144  0.7246 -0.0211  0.5229
 5699TIP3    H138732   4.422   6.403   7.158  0.8500 -1.3711 -0.0928
 5699TIP3    H238733   4.532   6.387   7.056  1.5539  1.2528  0.1846
 5700TIP3   OH238734   5.917   5.985   1.233 -0.3275  0.1642 -0.2935
 5700TIP3    H138735   5.831   5.963   1.269 -0.4182  0.1508 -0.5112
 5700TIP3    H238736   5.917   6.081   1.229 -1.0160  0.1384 -1.8706
 5701TIP3   OH238737   3.287   4.787   7.782  0.7107 -0.4683  0.4348
 5701TIP3    H138738   3.346   4.781   7.706 -1.2987 -0.6451 -1.2099
 5701TIP3    H238739   3.279   4.880   7.799 -0.1425 -0.3097 -0.7129
 5702TIP3   OH238740   4.942   5.278   7.379  0.0814 -0.2916  0.3814
 5702TIP3    H138741   4.891   5.344   7.332 -1.3661 -0.1318  2.0827
 5702TIP3    H238742   5.030   5.314   7.384 -0.7127  1.6148  1.4298
 5703TIP3   OH238743   4.362   4.803   6.331 -0.0962  0.2787 -0.0345
 5703TIP3    H138744   4.372   4.737   6.262  1.4095 -0.3200  0.7139
 5703TIP3    H238745   4.348   4.885   6.283  0.2750 -0.2278 -1.0440
 5704TIP3   OH238746   5.619   3.383   7.171 -0.1258  0.1411  0.1827
 5704TIP3    H138747   5.661   3.355   7.252 -0.3458  0.3721  0.3764
 5704TIP3    H238748   5.687   3.431   7.124 -0.2164  0.6436  0.5621
 5705TIP3   OH238749   0.828   6.626   7.526  0.0940 -0.0403  0.4720
 5705TIP3    H138750   0.764   6.597   7.461  0.9482  0.4242 -0.5937
 5705TIP3    H238751   0.858   6.545   7.568  0.2735 -0.4412 -0.4125
 5706TIP3   OH238752   1.421   4.642   1.506  0.3531  0.0325  0.4482
 5706TIP3    H138753   1.435   4.736   1.496 -0.5953  0.1740  0.3718
 5706TIP3    H238754   1.414   4.629   1.601  0.3348  0.0660  0.4517
 5707TIP3   OH238755   3.719   5.855   1.471 -0.0668  0.1685  0.1551
 5707TIP3    H138756   3.637   5.859   1.522 -0.7706 -0.5931 -0.8674
 5707TIP3    H238757   3.705   5.918   1.400 -0.0551 -0.4626 -0.4118
 5708TIP3   OH238758   4.248   3.904   7.210 -0.2739  0.3240  0.1620
 5708TIP3    H138759   4.187   3.978   7.210  0.5190  1.0279  1.7370
 5708TIP3    H238760   4.198   3.832   7.249 -1.1065 -0.0629 -1.5408
 5709TIP3   OH238761   6.783   5.456   2.013 -0.4708  0.1047 -0.4960
 5709TIP3    H138762   6.747   5.377   2.052 -2.5279  0.6650 -1.1354
 5709TIP3    H238763   6.789   5.518   2.087 -1.9868  0.3638 -0.5513
 5710TIP3   OH238764   6.241   1.456   8.494 -0.6728  0.2880  0.9254
 5710TIP3    H138765   6.214   1.366   8.480  0.7336 -0.0043 -0.1411
 5710TIP3    H238766   6.211   1.503   8.416  0.3996  0.2836  0.4884
 5711TIP3   OH238767   2.567   4.517   8.215 -0.5374  0.0192  0.0217
 5711TIP3    H138768   2.650   4.469   8.213 -0.9355 -0.8531  2.1214
 5711TIP3    H238769   2.501   4.449   8.227 -1.5972  0.7048 -1.6584
 5712TIP3   OH238770   1.619   5.697   7.085 -0.2547 -0.1695 -0.5660
 5712TIP3    H138771   1.585   5.688   7.174 -2.1416  0.9035 -1.1074
 5712TIP3    H238772   1.597   5.615   7.042 -0.8427 -0.0594 -0.4831
 5713TIP3   OH238773   5.408   4.426   6.941  0.3269  0.0967  0.3019
 5713TIP3    H138774   5.418   4.481   6.863  1.5885 -0.1802  0.2455
 5713TIP3    H238775   5.453   4.473   7.011  1.7613 -0.9871  0.1654
 5714TIP3   OH238776   3.357   5.115   0.805  0.0503 -0.9852 -0.3298
 5714TIP3    H138777   3.275   5.144   0.765 -0.3890 -0.7852  0.7016
 5714TIP3    H238778   3.420   5.115   0.732 -0.5153  0.2129 -0.8490
 5715TIP3   OH238779   0.256   2.520   8.625  0.1295 -0.1417 -0.3510
 5715TIP3    H138780   0.312   2.462   8.677 -2.3144 -1.8658  0.5748
 5715TIP3    H238781   0.228   2.465   8.551  2.7077  1.9400 -3.0937
 5716TIP3   OH238782   5.003   3.581   1.143 -0.3547 -0.3192 -0.3838
 5716TIP3    H138783   5.082   3.557   1.193 -1.8118 -1.1445  1.6601
 5716TIP3    H238784   5.012   3.675   1.127  0.1194  0.0072  1.5846
 5717TIP3   OH238785   1.376   1.843   0.877  0.2789 -0.3987  0.2057
 5717TIP3    H138786   1.424   1.810   0.800  0.2882 -1.9575  0.8485
 5717TIP3    H238787   1.424   1.807   0.952  1.3009  2.4597  1.0852
 5718TIP3   OH238788   2.328   2.626   0.976  0.2369 -0.3867 -0.1816
 5718TIP3    H138789   2.294   2.591   0.893  1.9902  0.2001 -1.1989
 5718TIP3    H238790   2.255   2.675   1.013 -0.3635  0.0128 -1.7926
 5719TIP3   OH238791   6.401   6.516   8.166  0.1352  0.0349  0.1056
 5719TIP3    H138792   6.473   6.460   8.137 -0.9772 -1.1579 -0.4793
 5719TIP3    H238793   6.442   6.580   8.223  2.3261  1.9092 -3.2483
 5720TIP3   OH238794   2.975   3.511   0.231 -0.8854 -0.2135  0.7371
 5720TIP3    H138795   2.922   3.443   0.190 -0.5223  0.7212 -1.3854
 5720TIP3    H238796   3.065   3.479   0.225 -0.5757  0.8661 -1.3183
 5721TIP3   OH238797   5.949   2.093   0.564  0.0351 -0.0569 -0.0256
 5721TIP3    H138798   5.950   2.129   0.652 -1.0133  0.5522 -0.2431
 5721TIP3    H238799   6.032   2.046   0.556  0.8369  1.1565  0.7547
 5722TIP3   OH238800   0.449   2.771   0.004 -0.1702  0.3096 -0.1654
 5722TIP3    H138801   0.402   2.694   0.035 -0.7820  1.5525  2.1902
 5722TIP3    H238802   0.535   2.765   0.045  0.4088  0.0548 -1.3524
 5723TIP3   OH238803   2.471   2.507   8.865 -0.5334  0.6957 -0.5264
 5723TIP3    H138804   2.557   2.512   8.823 -0.6428  0.1690 -0.8204
 5723TIP3    H238805   2.490   2.501   8.958 -0.2115 -0.4939 -0.6571
 5724TIP3   OH238806   1.106   4.238   1.079 -0.0504 -0.3244  0.3743
 5724TIP3    H138807   1.083   4.177   1.008  2.3225 -1.2103  0.2814
 5724TIP3    H238808   1.094   4.186   1.159  0.3595 -0.3669  0.4079
 5725TIP3   OH238809   3.441   5.271   0.488  0.5588 -0.5396  0.0335
 5725TIP3    H138810   3.454   5.196   0.546 -2.6484 -0.6445  0.8243
 5725TIP3    H238811   3.423   5.233   0.402 -1.2556 -0.7746  0.4744
 5726TIP3   OH238812   0.814   6.103   6.975 -0.1489 -0.0196  0.2916
 5726TIP3    H138813   0.841   6.013   6.958  0.1097  0.2048 -0.5138
 5726TIP3    H238814   0.794   6.105   7.069 -0.5879 -1.0230  0.2250
 5727TIP3   OH238815   1.261   5.126   6.299  0.0927  0.1166 -0.0758
 5727TIP3    H138816   1.355   5.130   6.282  0.1742 -1.3495 -0.1369
 5727TIP3    H238817   1.254   5.086   6.385 -0.4711  0.6445  0.1278
 5728TIP3   OH238818   2.118   4.822   7.206 -0.2835  0.7401  0.3832
 5728TIP3    H138819   2.201   4.793   7.245 -0.1577  1.3182  0.5507
 5728TIP3    H238820   2.066   4.742   7.200  1.0972 -0.0977 -1.8423
 5729TIP3   OH238821   6.219   6.193   7.606 -0.0091 -0.4096 -0.1512
 5729TIP3    H138822   6.209   6.269   7.548 -0.8212  0.2265  0.7833
 5729TIP3    H238823   6.143   6.196   7.664  0.8172 -0.9394  1.0260
 5730TIP3   OH238824   3.647   1.422   8.599 -0.2249  0.0385 -0.8480
 5730TIP3    H138825   3.632   1.352   8.535 -0.7402  0.0442 -0.7367
 5730TIP3    H238826   3.740   1.414   8.621 -0.6100 -1.6452  0.3633
 5731TIP3   OH238827   0.953   2.185   8.397 -0.6351 -0.2093  0.0536
 5731TIP3    H138828   0.935   2.278   8.409 -0.8954 -0.0561 -1.4000
 5731TIP3    H238829   0.887   2.141   8.450 -0.4653  0.4169  0.8114
 5732TIP3   OH238830   6.626   5.858   0.387  0.3983 -0.1914 -0.0300
 5732TIP3    H138831   6.644   5.773   0.347 -1.3464 -1.4786  1.7111
 5732TIP3    H238832   6.589   5.911   0.316 -0.8851 -1.7620 -0.5837
 5733TIP3   OH238833   6.220   3.476   6.330 -0.4970 -0.3436 -0.7960
 5733TIP3    H138834   6.276   3.554   6.332 -1.1698  0.1455 -0.4686
 5733TIP3    H238835   6.135   3.508   6.299 -0.5382 -1.1156 -1.5015
 5734TIP3   OH238836   0.365   4.886   1.640  0.5480 -0.5837 -0.0968
 5734TIP3    H138837   0.418   4.966   1.636  0.3324 -0.4742 -0.8126
 5734TIP3    H238838   0.424   4.817   1.611  0.7882 -0.7155  0.6955
 5735TIP3   OH238839   3.681   6.316   6.219  0.2862  0.7333 -0.2209
 5735TIP3    H138840   3.753   6.262   6.185  0.6590  1.2743 -0.3045
 5735TIP3    H238841   3.709   6.406   6.203 -0.7187  0.9422 -0.8843
 5736TIP3   OH238842   4.041   2.975   8.190  0.3546  0.3295  0.0951
 5736TIP3    H138843   3.950   2.955   8.211 -0.2285  1.0967 -1.5126
 5736TIP3    H238844   4.092   2.923   8.251 -1.1252 -2.5141 -0.9013
 5737TIP3   OH238845   0.233   3.554   0.723 -0.3018  0.0586  0.0684
 5737TIP3    H138846   0.319   3.524   0.694  0.2407  2.5358 -1.1943
 5737TIP3    H238847   0.249   3.592   0.810  0.1554  1.4213 -0.5770
 5738TIP3   OH238848   5.194   4.850   0.457  0.4269  0.0949  0.6921
 5738TIP3    H138849   5.150   4.809   0.532 -0.4925 -0.0542  0.0961
 5738TIP3    H238850   5.279   4.877   0.490  0.0453  0.0016  1.7818
 5739TIP3   OH238851   3.097   0.209   1.368  0.4670 -0.3007 -0.4896
 5739TIP3    H138852   3.039   0.245   1.436  0.1622  0.2276 -1.0177
 5739TIP3    H238853   3.185   0.235   1.395  0.3638 -0.2313 -0.2138
 5740TIP3   OH238854   5.971   1.393   7.140 -0.2031 -0.2299  0.2667
 5740TIP3    H138855   5.920   1.456   7.090  0.6598  0.6510  0.4654
 5740TIP3    H238856   5.948   1.308   7.102  0.0648  0.3626 -1.3068
 5741TIP3   OH238857   4.829   4.057   0.258 -0.1927 -0.5227  0.0808
 5741TIP3    H138858   4.737   4.070   0.280 -0.2003 -0.2383 -0.1178
 5741TIP3    H238859   4.875   4.063   0.342 -0.2551  0.2515  0.0627
 5742TIP3   OH238860   0.117   5.653   6.625  0.2572  0.2275 -0.6503
 5742TIP3    H138861   0.167   5.682   6.702 -0.4225  1.3500 -0.5977
 5742TIP3    H238862   0.180   5.606   6.571  1.1533  0.8650 -0.1769
 5743TIP3   OH238863   6.581   3.842   0.328  0.4267  0.3263  0.1123
 5743TIP3    H138864   6.631   3.810   0.253  1.0838 -0.2885  0.8063
 5743TIP3    H238865   6.490   3.816   0.309  0.7544 -0.8372  0.0687
 5744TIP3   OH238866   3.163   2.421   7.183  0.1319 -0.0365  0.1707
 5744TIP3    H138867   3.123   2.429   7.097  1.3356  0.2130 -0.3944
 5744TIP3    H238868   3.192   2.330   7.188  0.7072  0.1328  0.0042
 5745TIP3   OH238869   4.787   4.161   0.592  0.3742 -0.1718  0.1639
 5745TIP3    H138870   4.789   4.071   0.558 -1.2557  0.3258 -1.4046
 5745TIP3    H238871   4.695   4.176   0.612  0.7940  0.8027  1.4732
 5746TIP3   OH238872   2.330   5.155   0.640 -0.0993 -0.0670 -0.6296
 5746TIP3    H138873   2.352   5.064   0.660 -0.7086 -0.5398 -1.9764
 5746TIP3    H238874   2.360   5.204   0.716  1.1135 -1.2720 -0.2775
 5747TIP3   OH238875   3.593   0.644   0.381  0.1822 -0.4209 -0.0845
 5747TIP3    H138876   3.545   0.675   0.459 -0.1812  0.7471 -0.7402
 5747TIP3    H238877   3.654   0.579   0.415  0.3394  0.3784  1.2654
 5748TIP3   OH238878   6.441   6.509   1.823 -0.0779 -0.2949  1.1472
 5748TIP3    H138879   6.530   6.474   1.833 -0.0876 -0.4441  0.7508
 5748TIP3    H238880   6.410   6.525   1.912 -0.0625 -1.2792  1.3322
 5749TIP3   OH238881   1.436   1.978   8.036 -0.0776 -0.3351 -0.5087
 5749TIP3    H138882   1.351   2.022   8.027  0.9328  1.5411 -1.3438
 5749TIP3    H238883   1.494   2.025   7.977  1.7514 -1.1470  0.5519
 5750TIP3   OH238884   5.165   3.362   0.306 -0.0096  0.2348 -0.4187
 5750TIP3    H138885   5.191   3.382   0.396 -2.3511  3.9022 -0.3554
 5750TIP3    H238886   5.178   3.444   0.258 -2.5383 -0.4127 -2.4290
 5751TIP3   OH238887   5.955   6.478   7.665  0.0174 -0.0367 -0.4849
 5751TIP3    H138888   5.874   6.512   7.702 -0.1825 -1.6712  0.6770
 5751TIP3    H238889   5.930   6.444   7.579 -0.1586  0.9199 -0.8326
 5752TIP3   OH238890   2.207   2.739   7.814 -0.1549  0.1253  0.3111
 5752TIP3    H138891   2.292   2.781   7.802 -0.1708 -0.2233 -1.3283
 5752TIP3    H238892   2.223   2.647   7.792 -0.6564 -0.2366  1.4041
 5753TIP3   OH238893   4.578   5.476   2.216  0.1139  0.1705 -0.8867
 5753TIP3    H138894   4.493   5.511   2.245  0.2956  1.0108 -1.3080
 5753TIP3    H238895   4.621   5.446   2.295  0.0659  1.2123 -0.4495
 5754TIP3   OH238896   1.378   1.280   8.723  0.6921  0.5679  0.7670
 5754TIP3    H138897   1.433   1.208   8.693  1.4754  1.4037  0.1557
 5754TIP3    H238898   1.341   1.318   8.642 -0.4540  0.2891  1.1350
 5755TIP3   OH238899   4.449   5.451   0.881  0.3443 -0.3040 -0.4609
 5755TIP3    H138900   4.432   5.478   0.972 -0.8171 -2.4420  0.0227
 5755TIP3    H238901   4.365   5.462   0.837  0.3081 -1.4114 -0.6836
 5756TIP3   OH238902   5.327   6.665   0.263  0.3281  0.6668  0.4112
 5756TIP3    H138903   5.420   6.683   0.281  0.2066  1.3998  0.3421
 5756TIP3    H238904   5.323   6.647   0.169  0.0726  3.0752 -0.1100
 5757TIP3   OH238905   6.653   4.519   8.711  0.5752 -0.0767 -0.0599
 5757TIP3    H138906   6.622   4.449   8.654  0.6670 -0.7765  0.7292
 5757TIP3    H238907   6.681   4.474   8.791 -1.8952  1.0811  1.5722
 5758TIP3   OH238908   1.725   2.501   8.707 -0.8689  0.0060  0.4850
 5758TIP3    H138909   1.698   2.586   8.671 -3.2259  0.2727  2.6284
 5758TIP3    H238910   1.715   2.440   8.634 -1.4300  1.1742 -0.4445
 5759TIP3   OH238911   6.504   0.168   7.169 -0.0691 -0.1028  0.0632
 5759TIP3    H138912   6.455   0.243   7.203  0.8376  0.8818 -0.7524
 5759TIP3    H238913   6.438   0.114   7.126 -0.7142  0.2920  0.5382
 5760TIP3   OH238914   3.185   3.877   8.472 -0.1379  0.7730  0.5019
 5760TIP3    H138915   3.197   3.798   8.419  1.5045  1.0401  0.4355
 5760TIP3    H238916   3.101   3.913   8.442 -1.4825 -1.5071  1.3158
 5761TIP3   OH238917   5.468   6.278   1.346  0.0042  0.1192  0.0057
 5761TIP3    H138918   5.439   6.343   1.410  2.2815  1.7605 -0.5049
 5761TIP3    H238919   5.520   6.328   1.283  0.3230 -1.9364 -1.4702
 5762TIP3   OH238920   2.744   5.655   1.733  0.0707  0.2711  0.1510
 5762TIP3    H138921   2.816   5.636   1.673 -1.1162 -1.4886 -0.7813
 5762TIP3    H238922   2.753   5.588   1.802  0.1262  0.9241  0.7950
 5763TIP3   OH238923   3.965   6.007   7.610  0.4168  0.2373 -0.4630
 5763TIP3    H138924   4.038   5.982   7.553  0.4938 -0.0180 -0.2564
 5763TIP3    H238925   3.918   6.075   7.561  1.5544  1.3754 -0.0543
 5764TIP3   OH238926   2.423   6.495   0.374  0.2621 -0.4687  0.1533
 5764TIP3    H138927   2.422   6.447   0.291  0.7442  0.0611 -0.1639
 5764TIP3    H238928   2.364   6.445   0.431  0.6021 -1.3248 -0.2311
 5765TIP3   OH238929   4.372   4.609   7.096 -0.2466  0.2392 -0.1358
 5765TIP3    H138930   4.366   4.520   7.062  0.9831  0.5263 -1.1955
 5765TIP3    H238931   4.332   4.664   7.028  0.6209  0.6561 -0.3219
 5766TIP3   OH238932   1.064   6.187   1.132  0.3776  0.2430 -0.0442
 5766TIP3    H138933   0.993   6.127   1.153  0.7195  0.3556  1.5925
 5766TIP3    H238934   1.141   6.150   1.176  0.6009  1.8363  0.9580
 5767TIP3   OH238935   5.814   0.120   8.643  0.0760 -0.1840 -0.4477
 5767TIP3    H138936   5.838   0.119   8.550  1.1479  0.0800 -0.1853
 5767TIP3    H238937   5.894   0.095   8.689 -0.1399  0.7190  0.4637
 5768TIP3   OH238938   5.874   2.080   7.166 -0.7463 -0.2807  0.3542
 5768TIP3    H138939   5.941   2.141   7.134 -0.4961 -0.3373  0.7575
 5768TIP3    H238940   5.866   2.015   7.097 -1.3355  0.4541 -0.2768
 5769TIP3   OH238941   5.082   4.100   1.384 -0.0095 -0.2231 -0.4363
 5769TIP3    H138942   5.089   4.195   1.397 -0.5949 -0.2335  0.0240
 5769TIP3    H238943   5.077   4.065   1.473 -2.2153 -0.4790 -0.6204
 5770TIP3   OH238944   6.613   3.194   8.637 -0.2553 -0.1089 -0.3423
 5770TIP3    H138945   6.673   3.155   8.701 -1.2407 -0.2152  0.5375
 5770TIP3    H238946   6.638   3.155   8.554  0.7631 -0.3005  0.0393
 5771TIP3   OH238947   2.614   2.826   8.403  0.0018  0.4450  0.1686
 5771TIP3    H138948   2.582   2.847   8.315 -0.9659 -1.4925 -0.0137
 5771TIP3    H238949   2.544   2.774   8.442  0.9889  0.0989  1.5678
 5772TIP3   OH238950   4.128   6.797   7.972 -0.2087  0.2615 -0.1272
 5772TIP3    H138951   4.223   6.807   7.973 -0.1670  1.2305 -3.2746
 5772TIP3    H238952   4.113   6.706   7.998  1.6811 -0.2953 -0.8534
 5773TIP3   OH238953   6.194   5.485   7.779 -0.1893  0.3423 -0.1147
 5773TIP3    H138954   6.144   5.542   7.837  0.7214  0.7003  0.3412
 5773TIP3    H238955   6.261   5.447   7.836 -0.5871 -0.9531 -0.4795
 5774TIP3   OH238956   5.276   2.343   1.986 -0.0321 -0.0540  0.0150
 5774TIP3    H138957   5.288   2.250   2.006 -1.4048 -0.6578 -1.6690
 5774TIP3    H238958   5.349   2.387   2.029  0.1843 -1.8122  1.5483
 5775TIP3   OH238959   2.777   0.110   8.152  0.0736 -0.2798  0.5685
 5775TIP3    H138960   2.721   0.081   8.080 -0.3107  1.6787  0.0234
 5775TIP3    H238961   2.725   0.097   8.231 -1.4439  2.0403  0.0232
 5776TIP3   OH238962   0.537   4.597   7.660 -0.1750  0.5868 -0.2019
 5776TIP3    H138963   0.548   4.526   7.597  0.7057 -0.2646  0.8795
 5776TIP3    H238964   0.550   4.677   7.609  0.7422 -0.0872 -1.0597
 5777TIP3   OH238965   6.663   2.328   8.084 -0.7774  0.5530 -0.2801
 5777TIP3    H138966   6.722   2.397   8.052 -0.5736 -0.0746 -1.3125
 5777TIP3    H238967   6.685   2.251   8.031 -2.3577  0.2277 -0.5074
 5778TIP3   OH238968   3.275   4.530   1.198 -0.2469  0.0454 -0.0787
 5778TIP3    H138969   3.292   4.436   1.210  0.0559  0.2741  1.6052
 5778TIP3    H238970   3.362   4.570   1.195 -0.3201  0.5491  2.2716
 5779TIP3   OH238971   6.302   4.106   8.359 -0.3005  0.2528  0.3907
 5779TIP3    H138972   6.299   4.116   8.454  0.4781  1.5697  0.2919
 5779TIP3    H238973   6.233   4.164   8.327  0.8039  1.4303  0.0697
 5780TIP3   OH238974   4.469   5.986   6.849  0.0400  0.2030 -0.5921
 5780TIP3    H138975   4.526   5.944   6.784  1.0070  1.6383 -0.7161
 5780TIP3    H238976   4.409   5.916   6.877  0.0642 -0.6384 -2.4773
 5781TIP3   OH238977   3.621   6.008   1.011 -0.1650  0.2488  0.1146
 5781TIP3    H138978   3.588   5.997   0.922  0.0988  1.2351 -0.1199
 5781TIP3    H238979   3.671   6.090   1.008  0.2697  0.0319  1.0478
 5782TIP3   OH238980   4.658   5.293   7.476  0.3832  0.1556  0.0468
 5782TIP3    H138981   4.729   5.264   7.419 -0.2831  1.4336 -1.4988
 5782TIP3    H238982   4.596   5.338   7.418 -0.2913  1.5969  1.7687
 5783TIP3   OH238983   1.113   1.828   7.348  0.1209 -0.0115 -0.6335
 5783TIP3    H138984   1.028   1.867   7.327  0.9165  0.8948 -2.4071
 5783TIP3    H238985   1.122   1.754   7.287  0.1172 -0.8265  0.3396
 5784TIP3   OH238986   4.558   6.005   8.667  0.3848  0.6012 -0.1242
 5784TIP3    H138987   4.570   5.960   8.751  0.9986  2.4853  0.8592
 5784TIP3    H238988   4.521   5.939   8.609 -0.3129 -0.6819  1.7025
 5785TIP3   OH238989   2.835   0.358   0.812  0.0065 -0.0007 -0.2051
 5785TIP3    H138990   2.930   0.362   0.815  0.0497 -0.7454 -0.4374
 5785TIP3    H238991   2.806   0.447   0.833  0.7373  0.1005  0.3930
 5786TIP3   OH238992   3.540   4.299   0.607  0.4486  0.6819 -0.8276
 5786TIP3    H138993   3.518   4.208   0.626  1.8018  0.4950 -0.0124
 5786TIP3    H238994   3.510   4.348   0.684  1.0049  0.7111 -0.6240
 5787TIP3   OH238995   4.219   4.365   7.629  0.4167 -0.1181  0.3795
 5787TIP3    H138996   4.245   4.403   7.713  0.5761 -0.6276  0.5637
 5787TIP3    H238997   4.208   4.271   7.648 -0.1272 -0.1396 -0.0297
 5788TIP3   OH238998   6.220   3.465   1.460 -0.0984 -0.7024  0.1073
 5788TIP3    H138999   6.194   3.470   1.552 -0.2366 -2.2722  0.1882
 5788TIP3    H239000   6.298   3.520   1.453 -0.6307  0.1744  0.9453
 5789TIP3   OH239001   1.422   4.820   7.726 -0.0255 -0.2363 -0.0274
 5789TIP3    H139002   1.508   4.780   7.742  0.6293  1.0753 -0.1220
 5789TIP3    H239003   1.360   4.748   7.735  0.9449 -0.9364  1.5025
 5790TIP3   OH239004   5.402   1.695   1.576 -0.2526  0.1660  0.0120
 5790TIP3    H139005   5.490   1.668   1.601 -0.9098 -0.5804  1.6880
 5790TIP3    H239006   5.351   1.689   1.657 -2.2545 -1.1698 -1.2520
 5791TIP3   OH239007   0.310   1.093   6.350 -0.5433  0.0963 -0.0674
 5791TIP3    H139008   0.217   1.100   6.371 -0.7294 -0.2704 -0.7627
 5791TIP3    H239009   0.322   1.003   6.321  0.2243 -0.1373  0.9347
 5792TIP3   OH239010   1.154   4.239   8.401  0.3088  0.5869 -0.2169
 5792TIP3    H139011   1.145   4.232   8.306 -2.4822  0.2037 -0.0033
 5792TIP3    H239012   1.242   4.206   8.419 -0.1600 -2.2017 -2.4128
 5793TIP3   OH239013   4.496   2.275   7.996 -0.4713 -0.0560  0.1039
 5793TIP3    H139014   4.547   2.330   8.056  0.2182  0.1196 -0.6264
 5793TIP3    H239015   4.406   2.285   8.027 -0.2171  0.5620  0.7028
 5794TIP3   OH239016   5.021   6.216   7.831 -0.4450  0.7747  0.0666
 5794TIP3    H139017   5.087   6.152   7.858 -0.1814  0.3587 -1.4828
 5794TIP3    H239018   5.066   6.271   7.767 -1.3469  1.0403 -0.3481
 5795TIP3   OH239019   0.388   3.273   6.821  0.3804  0.3144  0.2520
 5795TIP3    H139020   0.410   3.260   6.729 -0.3345 -0.8302  0.2214
 5795TIP3    H239021   0.422   3.194   6.865 -0.5261  0.1754  0.7335
 5796TIP3   OH239022   3.127   0.699   7.078  0.2042  0.0968 -0.5985
 5796TIP3    H139023   3.079   0.616   7.068 -2.1998  1.5331 -1.7788
 5796TIP3    H239024   3.213   0.681   7.040  0.3105 -2.2740  0.5570
 5797TIP3   OH239025   2.532   5.603   7.561 -0.0766  0.0555 -0.1867
 5797TIP3    H139026   2.477   5.636   7.490  1.8013 -0.1304 -1.8122
 5797TIP3    H239027   2.493   5.520   7.585 -0.6022 -0.0079 -1.1924
 5798TIP3   OH239028   2.662   1.816   1.280  1.3964 -0.4449  0.3547
 5798TIP3    H139029   2.628   1.777   1.361  0.9962 -2.2140 -0.6174
 5798TIP3    H239030   2.690   1.742   1.227  0.7580  0.5795 -1.5367
 5799TIP3   OH239031   6.400   5.403   8.142 -0.2659 -0.4686  0.3707
 5799TIP3    H139032   6.365   5.365   8.062 -1.0878 -1.6114  1.2437
 5799TIP3    H239033   6.354   5.487   8.151 -0.3670 -0.4580 -0.1987
 5800TIP3   OH239034   6.758   5.561   7.955 -0.1531 -0.4692  0.2638
 5800TIP3    H139035   6.766   5.627   7.886  2.4427 -0.6488  0.3103
 5800TIP3    H239036   6.673   5.520   7.939  0.0679 -0.0544 -2.3871
 5801TIP3   OH239037   1.560   3.258   1.793 -0.0014 -0.1233 -0.4855
 5801TIP3    H139038   1.585   3.174   1.755  2.6860 -0.0173  0.8261
 5801TIP3    H239039   1.475   3.242   1.834 -0.9047 -1.3747 -2.6443
 5802TIP3   OH239040   4.662   4.415   0.217 -0.6500  0.1430  0.6744
 5802TIP3    H139041   4.714   4.462   0.282 -0.2068 -0.5073  0.7939
 5802TIP3    H239042   4.649   4.328   0.254 -2.8419  0.6302  1.2062
 5803TIP3   OH239043   0.202   0.629   8.193 -0.2045 -0.4174  0.1976
 5803TIP3    H139044   0.155   0.697   8.241  2.0885  0.3490  1.5540
 5803TIP3    H239045   0.262   0.591   8.258  0.3858 -1.9718 -1.1648
 5804TIP3   OH239046   6.649   4.209   7.655  0.5024 -0.1628  0.3103
 5804TIP3    H139047   6.608   4.284   7.699 -1.6187 -1.4781  0.7249
 5804TIP3    H239048   6.649   4.139   7.720  3.0696 -0.3945  0.1392
 5805TIP3   OH239049   5.724   1.786   0.215  0.5394  0.1854 -0.2134
 5805TIP3    H139050   5.655   1.734   0.174  0.4743 -0.4297  0.6449
 5805TIP3    H239051   5.685   1.818   0.296  1.1642  0.0802  0.1396
 5806TIP3   OH239052   5.326   4.088   2.309  0.2040  0.0117 -0.2391
 5806TIP3    H139053   5.319   4.153   2.379  0.5935 -0.8219  0.5910
 5806TIP3    H239054   5.268   4.017   2.335 -0.8151  0.3436 -1.5299
 5807TIP3   OH239055   6.540   6.746   8.029  0.0901 -0.2813 -0.2653
 5807TIP3    H139056   6.604   6.675   8.027  1.1753  0.5561  1.6149
 5807TIP3    H239057   6.589   6.823   7.999 -0.7139 -0.0738 -1.0738
 5808TIP3   OH239058   1.861   5.504   6.468  0.6080  0.1820 -0.1123
 5808TIP3    H139059   1.902   5.436   6.415  2.0262  0.0864  1.0415
 5808TIP3    H239060   1.917   5.581   6.456 -0.6581  1.0144 -0.9610
 5809TIP3   OH239061   0.030   5.733   6.369  0.3583 -0.1734  0.5792
 5809TIP3    H139062  -0.039   5.786   6.408  0.0111 -1.0603  1.1762
 5809TIP3    H239063   0.047   5.664   6.432  1.4603 -0.2552  0.2234
 5810TIP3   OH239064   0.139   2.781   8.558 -0.1805 -0.4686  0.0887
 5810TIP3    H139065   0.165   2.691   8.578 -1.5048 -0.5770  1.4613
 5810TIP3    H239066   0.100   2.814   8.639  0.6075  1.4885 -0.2722
 5811TIP3   OH239067   0.569   4.490   1.357  0.2904 -0.5883  0.2817
 5811TIP3    H139068   0.521   4.407   1.350 -1.2223  0.2408  0.4422
 5811TIP3    H239069   0.654   4.465   1.392  0.8069 -2.3702 -2.0339
 5812TIP3   OH239070   5.625   2.235   0.966  0.2358 -0.0363 -0.3199
 5812TIP3    H139071   5.686   2.185   1.021  0.8834  2.1791  1.0709
 5812TIP3    H239072   5.679   2.302   0.925 -0.7384 -0.0298 -1.6497
 5813TIP3   OH239073   3.145   1.397   8.604  0.0561  0.6203 -0.3822
 5813TIP3    H139074   3.093   1.384   8.525  0.6179  0.2584 -0.7017
 5813TIP3    H239075   3.081   1.406   8.674 -0.4560 -1.4067 -0.5245
 5814TIP3   OH239076   4.253   4.152   8.352 -0.5034  0.6864 -0.0693
 5814TIP3    H139077   4.306   4.225   8.321 -1.5082  1.6051  0.3220
 5814TIP3    H239078   4.288   4.133   8.440  0.5909 -0.1726 -0.6599
 5815TIP3   OH239079   0.927   2.842   8.518  0.2405 -0.0336 -0.0608
 5815TIP3    H139080   0.859   2.909   8.515  0.9375  0.7344  0.8758
 5815TIP3    H239081   0.996   2.876   8.460 -0.0288 -0.6756 -0.7822
 5816TIP3   OH239082   2.669   0.501   7.217  0.4192 -0.1439 -0.7340
 5816TIP3    H139083   2.688   0.456   7.135  1.6179 -0.1964 -0.4391
 5816TIP3    H239084   2.706   0.445   7.285  0.7005  0.5960 -0.2606
 5817TIP3   OH239085   4.237   2.069   8.766  0.3727 -0.1166 -0.3699
 5817TIP3    H139086   4.275   1.988   8.731 -1.2098 -0.5235 -1.2271
 5817TIP3    H239087   4.283   2.083   8.849  1.8124 -0.9948 -0.9798
 5818TIP3   OH239088   5.271   6.602   0.787  0.0551 -0.0593  0.1907
 5818TIP3    H139089   5.322   6.549   0.726 -0.2634  0.3021 -0.4019
 5818TIP3    H239090   5.262   6.547   0.865  0.4330 -0.5450 -0.1021
 5819TIP3   OH239091   3.543   1.978   7.809 -0.0265 -0.1418 -0.0713
 5819TIP3    H139092   3.482   1.906   7.826  0.8745 -0.8797  0.1233
 5819TIP3    H239093   3.559   1.974   7.714 -2.0396  1.5236 -0.5549
 5820TIP3   OH239094   2.210   1.369   0.007  1.2955 -0.5609  0.6563
 5820TIP3    H139095   2.128   1.327   0.033  0.9160 -1.2394 -1.4352
 5820TIP3    H239096   2.186   1.459  -0.013  0.9171 -0.9125 -0.5273
 5821TIP3   OH239097   1.394   5.053   0.782  0.7712  0.2099  0.2189
 5821TIP3    H139098   1.482   5.081   0.807  0.1880  0.3711  2.2299
 5821TIP3    H239099   1.384   4.967   0.821  0.7165 -0.7170 -1.7046
 5822TIP3   OH239100   3.904   1.247   0.430 -0.2385 -0.3303 -0.3627
 5822TIP3    H139101   3.819   1.283   0.409  0.5319 -0.4374 -4.3900
 5822TIP3    H239102   3.897   1.154   0.408  0.2228 -0.9388  1.8203
 5823TIP3   OH239103   4.761   5.166   0.703 -0.4976 -0.2598 -0.4696
 5823TIP3    H139104   4.819   5.102   0.745  0.0612  0.1881 -0.5454
 5823TIP3    H239105   4.820   5.234   0.672 -0.9216 -0.5024 -1.8478
 5824TIP3   OH239106   0.839   3.308   8.628 -0.2350  0.4817  0.4263
 5824TIP3    H139107   0.834   3.351   8.713 -1.3551  1.4600 -0.1025
 5824TIP3    H239108   0.931   3.318   8.601 -0.1926  1.4261  0.8868
 5825TIP3   OH239109   0.649   2.334   8.648 -1.1108 -0.5021  0.1804
 5825TIP3    H139110   0.656   2.249   8.605 -0.6999  0.2447 -1.2792
 5825TIP3    H239111   0.640   2.396   8.576 -3.1955  0.5360  1.2727
 5826TIP3   OH239112   1.653   0.633   1.733  0.2862  0.0662  0.4954
 5826TIP3    H139113   1.666   0.725   1.711  1.7423 -0.2219  0.0637
 5826TIP3    H239114   1.573   0.633   1.786 -0.8639  1.3111 -1.1230
 5827TIP3   OH239115   2.404   6.493   1.007 -0.2704 -0.0866 -0.1503
 5827TIP3    H139116   2.425   6.578   1.045 -0.1460  0.6717 -1.8210
 5827TIP3    H239117   2.311   6.481   1.025  0.0579 -0.3501  1.4652
 5828TIP3   OH239118   5.577   2.094   8.248  0.2951  0.1108 -0.3818
 5828TIP3    H139119   5.532   2.018   8.284 -0.8344  1.0835  0.3710
 5828TIP3    H239120   5.617   2.063   8.167 -0.5754 -1.1538 -0.3491
 5829TIP3   OH239121   4.479   5.497   0.003 -0.3364  0.1827  0.1843
 5829TIP3    H139122   4.553   5.445   0.034 -0.9683 -1.2440 -0.5772
 5829TIP3    H239123   4.405   5.436   0.004 -2.0171  2.0483  2.8006
 5830TIP3   OH239124   6.724   5.840   1.426 -0.6800  0.0274  0.0449
 5830TIP3    H139125   6.737   5.791   1.345  0.1532  0.8878 -0.3587
 5830TIP3    H239126   6.812   5.866   1.453 -0.8611 -0.8617  1.6400
 5831TIP3   OH239127   1.121   0.362   8.406 -0.3907 -0.2533 -0.4889
 5831TIP3    H139128   1.109   0.273   8.371 -1.5668  0.0201 -0.8219
 5831TIP3    H239129   1.101   0.420   8.332  0.9607  0.3026 -0.4450
 5832TIP3   OH239130   2.640   1.367   0.987 -0.1768  0.4360 -0.3018
 5832TIP3    H139131   2.720   1.325   0.956 -0.4601 -0.6973  0.4684
 5832TIP3    H239132   2.573   1.341   0.923 -0.5706 -1.1708  0.7183
 5833TIP3   OH239133   0.939   0.892   1.473  0.6501  0.3984  0.1663
 5833TIP3    H139134   0.905   0.874   1.386  1.5216 -2.6799  0.3536
 5833TIP3    H239135   0.868   0.937   1.518 -0.3485  0.7403 -1.6414
 5834TIP3   OH239136   5.974   0.679   1.306  0.6523 -0.1486  0.1794
 5834TIP3    H139137   5.953   0.737   1.380 -1.0853 -1.0409  0.4378
 5834TIP3    H239138   6.024   0.735   1.245  1.1017  0.9270  1.4739
 5835TIP3   OH239139   3.135   2.376   1.276  0.4684 -0.5071  0.1987
 5835TIP3    H139140   3.114   2.297   1.224 -0.8764  0.2493 -0.4582
 5835TIP3    H239141   3.073   2.374   1.348 -0.0010  0.2842 -0.1794
 5836TIP3   OH239142   5.630   2.316   2.036  0.1005  0.1493  0.9691
 5836TIP3    H139143   5.558   2.359   2.082 -1.5635 -1.3671 -0.1032
 5836TIP3    H239144   5.621   2.224   2.058  0.5282 -0.3268 -0.7024
 5837TIP3   OH239145   4.408   4.728   1.571  0.2016  0.9369 -0.2089
 5837TIP3    H139146   4.503   4.741   1.567  0.0535  1.8960 -1.0807
 5837TIP3    H239147   4.397   4.634   1.585  1.2777  0.8740  0.2969
 5838TIP3   OH239148   2.018   3.786   8.034 -0.0872 -0.6125  0.0565
 5838TIP3    H139149   1.967   3.865   8.017 -1.9405 -1.6363  0.6377
 5838TIP3    H239150   1.979   3.720   7.977  1.2838 -1.1958 -0.2513
 5839TIP3   OH239151   5.432   4.524   6.695 -0.3876 -0.9030  0.2900
 5839TIP3    H139152   5.525   4.546   6.684 -0.2462 -1.0416  1.0824
 5839TIP3    H239153   5.386   4.606   6.678 -0.0994 -0.7649  0.1626
 5840TIP3   OH239154   3.986   3.211   0.168  0.0618 -0.3160  0.3988
 5840TIP3    H139155   3.970   3.259   0.087 -2.0561 -1.1046  0.2711
 5840TIP3    H239156   4.005   3.122   0.140  3.2321  0.1511  0.6694
 5841TIP3   OH239157   3.763   0.222   1.414 -0.4560  0.3097 -0.1025
 5841TIP3    H139158   3.676   0.195   1.444 -0.5655  1.0522  0.2821
 5841TIP3    H239159   3.760   0.318   1.416 -0.5206  0.4180 -2.7030
 5842TIP3   OH239160   5.488   0.908   7.934 -0.0171  0.0278  0.0985
 5842TIP3    H139161   5.408   0.926   7.983  0.7348  2.4081  0.5734
 5842TIP3    H239162   5.548   0.869   7.998  0.9888  3.1953  1.2493
 5843TIP3   OH239163   4.146   1.945   0.211  0.3632  0.3649 -0.4315
 5843TIP3    H139164   4.138   1.932   0.306 -1.1268  0.1296 -0.5770
 5843TIP3    H239165   4.128   1.858   0.174  0.7743  0.4956 -0.9458
 5844TIP3   OH239166   6.682   1.542   1.617 -0.0714  0.1398  0.1442
 5844TIP3    H139167   6.727   1.583   1.543 -1.3062  1.2215 -0.0446
 5844TIP3    H239168   6.744   1.550   1.690  1.3275 -1.3043 -0.8202
 5845TIP3   OH239169   0.273   4.816   1.892 -0.5610 -0.0439  0.0371
 5845TIP3    H139170   0.340   4.848   1.831  0.7584  0.0973  1.5014
 5845TIP3    H239171   0.321   4.764   1.956 -2.0210 -0.8987  0.4972
 5846TIP3   OH239172   5.831   1.469   6.779 -0.0181 -0.6199  0.1887
 5846TIP3    H139173   5.753   1.508   6.739 -1.4727 -2.2246  1.3143
 5846TIP3    H239174   5.849   1.392   6.725 -0.5454 -1.4488  1.1634
 5847TIP3   OH239175   3.083   6.347   1.924 -0.2262  0.2316  0.2225
 5847TIP3    H139176   3.002   6.398   1.930  0.7656  2.0232 -0.7490
 5847TIP3    H239177   3.119   6.370   1.838  0.4819 -1.8428 -0.0757
 5848TIP3   OH239178   1.943   1.866   8.750 -0.0905  0.2538  0.3931
 5848TIP3    H139179   1.859   1.910   8.748 -0.2837 -0.1279 -0.5597
 5848TIP3    H239180   1.943   1.816   8.832 -0.0526  1.6334  1.2635
 5849TIP3   OH239181   4.653   2.772   7.338 -0.1678 -0.2793 -0.1457
 5849TIP3    H139182   4.646   2.839   7.270  0.4986 -0.8001 -0.7365
 5849TIP3    H239183   4.623   2.691   7.297 -3.7402  0.0997  1.3720
 5850TIP3   OH239184   4.994   3.848   0.769  0.1197  0.3032  0.1640
 5850TIP3    H139185   4.947   3.898   0.836  0.5327  0.2615  0.4892
 5850TIP3    H239186   4.981   3.757   0.793 -3.6499 -0.0394 -2.3936
 5851TIP3   OH239187   2.237   5.776   2.451  0.1236  0.0324  0.4257
 5851TIP3    H139188   2.142   5.786   2.455  0.1144 -0.2029  0.9974
 5851TIP3    H239189   2.256   5.756   2.359 -0.3461  0.3752  0.2516
 5852TIP3   OH239190   4.703   5.893   7.690 -0.1591 -0.0689 -0.3771
 5852TIP3    H139191   4.653   5.872   7.612 -0.8534 -1.8834  0.4993
 5852TIP3    H239192   4.643   5.879   7.763  0.9164  0.0623  0.5798
 5853TIP3   OH239193   5.664   5.586   8.807  0.3097  0.1939 -0.3716
 5853TIP3    H139194   5.611   5.507   8.823  0.9293 -0.3027 -0.7149
 5853TIP3    H239195   5.600   5.652   8.781 -0.3211  0.0662  0.7926
 5854TIP3   OH239196   2.184   4.383   1.739  0.1501 -0.1022  0.2246
 5854TIP3    H139197   2.176   4.352   1.829 -0.5799 -0.3357  0.0882
 5854TIP3    H239198   2.226   4.310   1.693  0.7477  0.1148  0.4253
 5855TIP3   OH239199   0.419   2.363   8.783 -0.0088 -0.4692 -0.3498
 5855TIP3    H139200   0.468   2.318   8.852 -0.5091 -0.0090  0.3241
 5855TIP3    H239201   0.484   2.384   8.716  0.9137  0.8618  0.8921
 5856TIP3   OH239202   0.541   0.694   7.220  0.1016  0.5453 -0.2672
 5856TIP3    H139203   0.618   0.751   7.217  2.0314 -1.9000 -0.2257
 5856TIP3    H239204   0.574   0.610   7.252 -2.7419 -0.4341  0.4134
 5857TIP3   OH239205   3.291   1.943   1.084  0.1563  0.1201  0.4277
 5857TIP3    H139206   3.271   1.878   1.017 -0.4634 -0.2976  1.0012
 5857TIP3    H239207   3.372   1.985   1.054 -0.1214 -0.0439 -0.5813
 5858TIP3   OH239208   5.217   0.270   7.128 -0.4678 -0.2987  0.1712
 5858TIP3    H139209   5.275   0.203   7.163 -1.0592 -0.5498  0.6745
 5858TIP3    H239210   5.276   0.332   7.085  0.0205 -1.5406 -1.0062
 5859TIP3   OH239211   3.748   1.408   1.653  0.0261 -0.2370  0.1985
 5859TIP3    H139212   3.742   1.312   1.653  0.5973 -0.2913 -0.8705
 5859TIP3    H239213   3.733   1.433   1.744  1.2940 -1.4394  0.7732
 5860TIP3   OH239214   5.800   5.514   8.239  0.8077 -0.1303  0.3778
 5860TIP3    H139215   5.751   5.573   8.296  0.9899 -0.7969  1.2443
 5860TIP3    H239216   5.801   5.431   8.285  1.8892 -0.4021 -0.0917
 5861TIP3   OH239217   1.109   5.255   0.337 -0.5013 -0.0798 -0.0665
 5861TIP3    H139218   1.154   5.177   0.367 -0.5655 -0.7959 -1.7305
 5861TIP3    H239219   1.034   5.264   0.395  1.3687  0.8052  2.3893
 5862TIP3   OH239220   2.085   5.051   1.131  0.2967  0.0100 -0.4508
 5862TIP3    H139221   2.175   5.084   1.128 -0.1258  1.1567 -2.0729
 5862TIP3    H239222   2.050   5.087   1.212 -0.0824  3.6956 -2.0256
 5863TIP3   OH239223   6.567   1.583   7.335 -0.1028  0.7670  0.3372
 5863TIP3    H139224   6.504   1.635   7.286  0.2360  0.8249 -0.0379
 5863TIP3    H239225   6.651   1.602   7.295  0.0608  0.1232  0.3581
 5864TIP3   OH239226   4.364   2.487   8.266  0.3851 -0.6012  0.8224
 5864TIP3    H139227   4.292   2.432   8.235  0.3134 -1.5033  2.4554
 5864TIP3    H239228   4.334   2.519   8.351  0.0503  2.7706 -0.4131
 5865TIP3   OH239229   3.069   1.061   0.184  0.2110 -0.1336  0.4990
 5865TIP3    H139230   3.124   1.011   0.243 -0.2349 -0.6973  0.4418
 5865TIP3    H239231   3.047   1.001   0.113  1.8756  0.9351 -1.0037
 5866TIP3   OH239232   0.504   6.024   0.152 -0.3713  0.1675 -0.1969
 5866TIP3    H139233   0.413   6.007   0.177 -1.0730  2.5898 -0.8042
 5866TIP3    H239234   0.505   6.010   0.057 -0.0517 -0.0228 -0.1661
 5867TIP3   OH239235   1.798   5.941   7.721 -0.2646  0.1059 -0.5147
 5867TIP3    H139236   1.794   6.021   7.669  0.5650 -0.9749 -2.3226
 5867TIP3    H239237   1.884   5.946   7.765  0.6390 -0.6217 -2.1148
 5868TIP3   OH239238   3.399   6.485   0.416  0.1652 -0.2208 -0.0654
 5868TIP3    H139239   3.419   6.578   0.410 -0.0918 -0.1008  0.8374
 5868TIP3    H239240   3.380   6.458   0.326  1.7283  0.2536 -0.5681
 5869TIP3   OH239241   5.370   3.581   7.833  0.1560  0.1313 -0.2533
 5869TIP3    H139242   5.451   3.554   7.877 -0.1155 -1.5201 -0.6728
 5869TIP3    H239243   5.379   3.547   7.744 -1.5462 -1.3551  0.0757
 5870TIP3   OH239244   6.664   4.181   0.664  0.1109 -0.1266  0.5338
 5870TIP3    H139245   6.648   4.086   0.656  0.5233 -0.1430 -0.1833
 5870TIP3    H239246   6.677   4.210   0.574 -0.3403  0.6795  0.7246
 5871TIP3   OH239247   6.462   0.761   7.476 -0.1450  0.2797 -1.0781
 5871TIP3    H139248   6.409   0.825   7.524  0.1892 -0.4607  0.3128
 5871TIP3    H239249   6.546   0.806   7.462  0.0589  0.1885 -0.1828
 5872TIP3   OH239250   6.750   1.150   2.051  0.2052  0.5162 -0.0852
 5872TIP3    H139251   6.729   1.228   2.000 -0.1497  0.8684  0.5964
 5872TIP3    H239252   6.711   1.165   2.137  1.8220  0.4518  0.6942
 5873TIP3   OH239253   2.167   0.352   0.954 -0.1310  0.7560  0.1789
 5873TIP3    H139254   2.177   0.265   0.992 -2.0404  1.1119  1.6696
 5873TIP3    H239255   2.123   0.338   0.871  1.3803  0.1901 -0.5626
 5874TIP3   OH239256   1.918   4.112   7.331  0.4980 -0.2715  0.1985
 5874TIP3    H139257   1.889   4.185   7.385 -1.5728 -0.9728  0.1008
 5874TIP3    H239258   1.967   4.056   7.392  0.4289  0.2302  0.7262
 5875TIP3   OH239259   4.588   2.134   7.581 -0.4825  0.0541  0.5188
 5875TIP3    H139260   4.528   2.120   7.508 -0.3385 -0.0798  0.4263
 5875TIP3    H239261   4.590   2.229   7.592  1.1055  0.2393 -1.0012
 5876TIP3   OH239262   4.498   5.579   7.471 -0.1831 -1.0645 -0.1656
 5876TIP3    H139263   4.446   5.641   7.421 -0.0436 -0.4854  0.3877
 5876TIP3    H239264   4.435   5.532   7.525 -0.1954 -0.7479  0.0999
 5877TIP3   OH239265   2.077   0.654   8.518  0.2867 -0.1557  0.1009
 5877TIP3    H139266   2.169   0.674   8.503  1.3356 -1.7654  3.4198
 5877TIP3    H239267   2.071   0.559   8.509 -1.0000 -0.0997  0.1568
 5878TIP3   OH239268   5.017   5.247   0.584 -0.2062  0.6334 -0.4012
 5878TIP3    H139269   5.015   5.335   0.546  0.2082  0.2056 -1.4765
 5878TIP3    H239270   5.110   5.224   0.586 -0.3890 -0.3320 -1.5119
 5879TIP3   OH239271   6.153   3.493   7.893 -0.1668 -0.2963  0.3911
 5879TIP3    H139272   6.078   3.541   7.858  0.0717 -1.6028 -2.0823
 5879TIP3    H239273   6.116   3.439   7.963 -0.9747  1.0915  1.1005
 5880TIP3   OH239274   3.998   1.388   1.499 -0.1253  0.3755  0.6638
 5880TIP3    H139275   4.012   1.460   1.561  2.0768  0.5645  0.0295
 5880TIP3    H239276   3.936   1.330   1.544  1.6676  0.3010  3.2577
 5881TIP3   OH239277   2.329   6.335   5.995 -0.4371  0.0604 -0.3080
 5881TIP3    H139278   2.245   6.307   5.961 -0.3816  0.0556 -0.4414
 5881TIP3    H239279   2.373   6.376   5.921  0.6434 -2.0437 -0.9126
 5882TIP3   OH239280   3.457   6.679   1.593 -0.1675  0.2297  0.2489
 5882TIP3    H139281   3.518   6.635   1.651  1.6368  0.7549 -1.1570
 5882TIP3    H239282   3.442   6.617   1.522 -2.1411 -0.3055  1.0555
 5883TIP3   OH239283   2.077   4.700   7.583 -0.1699 -0.2030  0.4118
 5883TIP3    H139284   2.126   4.777   7.611  0.0993  0.0211 -0.6375
 5883TIP3    H239285   2.131   4.660   7.515 -0.6713 -0.8767  0.3944
 5884TIP3   OH239286   6.389   1.246   0.342 -0.5595 -0.5970  0.1154
 5884TIP3    H139287   6.345   1.309   0.399  1.3052  0.1490  0.8090
 5884TIP3    H239288   6.388   1.287   0.256  0.8729  0.5880  0.6107
 5885TIP3   OH239289   2.378   5.373   7.933  0.0580  0.5005 -0.1593
 5885TIP3    H139290   2.307   5.329   7.887  0.3157  0.0159 -0.1042
 5885TIP3    H239291   2.438   5.302   7.958  1.7752  1.0520 -2.2926
 5886TIP3   OH239292   3.673   0.977   1.972 -0.5090 -0.3042 -0.2806
 5886TIP3    H139293   3.589   0.942   2.003  0.0430 -1.0177  0.4819
 5886TIP3    H239294   3.651   1.025   1.892 -1.7779  0.3220  0.4004
 5887TIP3   OH239295   1.759   6.163   8.537  0.0191 -0.0437  0.0026
 5887TIP3    H139296   1.803   6.106   8.473 -0.7772 -1.5010  0.7145
 5887TIP3    H239297   1.667   6.137   8.533 -0.6151  2.0560 -0.5086
 5888TIP3   OH239298   1.287   3.512   8.329 -0.1148 -0.3068  0.0154
 5888TIP3    H139299   1.369   3.477   8.363 -0.1790 -1.0375 -0.5558
 5888TIP3    H239300   1.309   3.545   8.242 -0.6305 -1.5082 -0.6014
 5889TIP3   OH239301   2.592   0.322   7.613 -0.1718  0.1247  0.0254
 5889TIP3    H139302   2.655   0.317   7.685  1.0225  1.4178 -0.8913
 5889TIP3    H239303   2.646   0.322   7.534 -1.2813  1.8587 -0.7722
 5890TIP3   OH239304   0.128   1.879   1.603 -0.2565  0.9135  0.3782
 5890TIP3    H139305   0.156   1.787   1.608  1.6658  1.3112 -1.7449
 5890TIP3    H239306   0.176   1.923   1.673 -0.3125  0.5030  0.6770
 5891TIP3   OH239307   0.125   3.268   1.936  0.0839  0.4365  0.7834
 5891TIP3    H139308   0.032   3.292   1.932 -0.1876 -0.3584  1.7748
 5891TIP3    H239309   0.124   3.172   1.944  1.0202  0.3646  0.1853
 5892TIP3   OH239310   6.776   5.326   6.713 -0.1535 -0.4463 -0.3641
 5892TIP3    H139311   6.733   5.344   6.630 -0.8854  0.8369  0.2692
 5892TIP3    H239312   6.858   5.375   6.709 -0.5668  0.2972 -0.0238
 5893TIP3   OH239313   3.973   3.910   8.759 -0.5992 -0.5016  0.0638
 5893TIP3    H139314   3.934   3.963   8.828 -0.3404 -1.8012  1.2636
 5893TIP3    H239315   3.959   3.960   8.678 -1.3975  0.7948  0.9761
 5894TIP3   OH239316   6.090   4.144   0.240  0.5081 -0.5116  0.0085
 5894TIP3    H139317   6.078   4.202   0.315  1.7167 -1.4120  0.9385
 5894TIP3    H239318   6.076   4.056   0.276  1.3634 -0.9704 -0.7565
 5895TIP3   OH239319   6.814   2.543   8.036  0.4105 -0.4744 -0.4314
 5895TIP3    H139320   6.859   2.572   7.956 -0.5510 -0.0395 -0.8264
 5895TIP3    H239321   6.864   2.583   8.107 -0.1055  1.1201 -0.9159
 5896TIP3   OH239322   3.738   4.292   0.880 -0.4762  0.2043  0.2427
 5896TIP3    H139323   3.655   4.247   0.868 -0.7424  0.5063  0.9444
 5896TIP3    H239324   3.789   4.269   0.802 -2.1490  2.0970 -1.5215
 5897TIP3   OH239325   2.881   4.681   8.425  0.5618 -1.2095  0.0179
 5897TIP3    H139326   2.921   4.653   8.343  2.0068  0.6076  0.0594
 5897TIP3    H239327   2.875   4.600   8.477  0.5436 -2.1977 -1.4709
 5898TIP3   OH239328   2.285   1.694   7.383  0.0711 -0.7140  0.2130
 5898TIP3    H139329   2.213   1.708   7.321 -1.0082  0.8861  1.7268
 5898TIP3    H239330   2.260   1.745   7.461  1.5628 -2.2837  1.8191
 5899TIP3   OH239331   2.520   6.176   8.801  0.3821  0.1204  0.1668
 5899TIP3    H139332   2.426   6.176   8.822  0.3238 -1.0760 -0.0345
 5899TIP3    H239333   2.543   6.084   8.795  1.8802  0.3624  1.5070
 5900TIP3   OH239334   5.225   2.545   7.102  0.3077 -0.1888 -0.3083
 5900TIP3    H139335   5.182   2.614   7.153  0.1863 -0.1393 -0.4763
 5900TIP3    H239336   5.174   2.540   7.021  1.1650  0.5146 -0.9172
 5901TIP3   OH239337   1.789   2.700   7.906  0.5916  0.0530 -0.7395
 5901TIP3    H139338   1.765   2.769   7.968  0.7535  1.3532 -2.0801
 5901TIP3    H239339   1.869   2.732   7.865 -0.3466 -0.0376 -2.7271
 5902TIP3   OH239340   5.700   2.705   1.828  0.1813 -0.0229 -0.0071
 5902TIP3    H139341   5.662   2.617   1.833 -0.0329  0.0215 -0.7857
 5902TIP3    H239342   5.725   2.715   1.736 -0.9249  1.1908 -0.2035
 5903TIP3   OH239343   6.558   0.305   0.438  0.7781 -0.1511  0.8820
 5903TIP3    H139344   6.628   0.242   0.420 -0.1940 -0.8278 -0.6692
 5903TIP3    H239345   6.546   0.352   0.356 -1.6309 -1.0973  0.6301
 5904TIP3   OH239346   0.067   2.767   8.844 -0.2952 -0.1202  0.0243
 5904TIP3    H139347   0.097   2.676   8.837  1.0326  0.2958  0.0360
 5904TIP3    H239348   0.134   2.810   8.898 -0.0914  1.2025 -1.2244
 5905TIP3   OH239349   1.819   2.737   0.318  0.4465 -0.3427  0.1092
 5905TIP3    H139350   1.745   2.735   0.256  0.6263  1.7111 -0.2460
 5905TIP3    H239351   1.892   2.699   0.270  0.4747  0.8489 -0.8536
 5906TIP3   OH239352   0.183   4.077   8.784 -0.4861  0.3659 -0.8610
 5906TIP3    H139353   0.225   4.156   8.751 -1.7785  0.6683 -1.8678
 5906TIP3    H239354   0.093   4.083   8.754 -0.3853 -1.9982 -1.9415
 5907TIP3   OH239355   6.386   0.550   8.572 -0.6789 -0.5821  0.2199
 5907TIP3    H139356   6.468   0.530   8.619 -0.6673 -2.4905 -0.5061
 5907TIP3    H239357   6.341   0.466   8.567 -0.8761 -0.4058 -2.7834
 5908TIP3   OH239358   1.818   0.132   0.220 -0.5718  0.0672  0.2442
 5908TIP3    H139359   1.751   0.074   0.184 -0.6408  0.6611 -0.6231
 5908TIP3    H239360   1.892   0.124   0.160 -0.0957 -0.1075  0.8459
 5909TIP3   OH239361   6.621   0.370   8.070  0.2475 -0.3084  0.1086
 5909TIP3    H139362   6.540   0.382   8.120  1.0736 -0.1915  1.4825
 5909TIP3    H239363   6.598   0.308   8.001 -0.7033 -1.2945  1.2653
 5910TIP3   OH239364   4.419   1.365   7.883  0.1601 -0.1711  0.0533
 5910TIP3    H139365   4.390   1.282   7.845 -0.3529  0.2683 -0.5340
 5910TIP3    H239366   4.514   1.365   7.869  0.1941 -0.7543  0.2568
 5911TIP3   OH239367   3.723   4.591   7.079 -0.0278 -0.0517 -0.6036
 5911TIP3    H139368   3.766   4.506   7.092 -1.9521 -0.7156  2.4222
 5911TIP3    H239369   3.660   4.576   7.008  0.7559 -0.6375 -1.1967
 5912TIP3   OH239370   4.139   5.628   6.376  0.0581 -0.0967  0.2804
 5912TIP3    H139371   4.156   5.581   6.294 -0.0070 -0.7300  0.6208
 5912TIP3    H239372   4.057   5.675   6.360 -0.2123 -0.6043  0.1416
 5913TIP3   OH239373   4.772   1.973   7.932 -0.2732 -0.9711  0.3339
 5913TIP3    H139374   4.825   2.043   7.971  0.5254 -0.3561 -1.7096
 5913TIP3    H239375   4.693   1.969   7.987  0.1603  0.7884  1.1543
 5914TIP3   OH239376   2.656   4.821   8.315 -0.6507 -0.7823 -0.2389
 5914TIP3    H139377   2.743   4.783   8.324 -0.3699 -0.0246  0.3411
 5914TIP3    H239378   2.602   4.770   8.376 -0.7950 -1.7308 -1.1223
 5915TIP3   OH239379   5.471   5.157   8.163  0.3864 -0.3203 -0.5534
 5915TIP3    H139380   5.453   5.166   8.257  0.2214 -0.5549 -0.5607
 5915TIP3    H239381   5.433   5.236   8.124 -1.0456 -0.9969 -0.6156
 5916TIP3   OH239382   4.965   1.592   0.666  0.3767 -0.0722 -0.0373
 5916TIP3    H139383   5.050   1.565   0.700  0.3786 -0.4626 -0.3342
 5916TIP3    H239384   4.934   1.658   0.727  0.5637 -0.4595  0.4823
 5917TIP3   OH239385   3.889   0.795   8.396  0.1560  0.7367 -0.2163
 5917TIP3    H139386   3.872   0.711   8.354 -1.5352  1.6048 -1.3951
 5917TIP3    H239387   3.960   0.777   8.457  0.1960 -1.4202 -0.8020
 5918TIP3   OH239388   0.120   2.165   8.328 -0.4537  0.1616  0.5248
 5918TIP3    H139389   0.128   2.211   8.411 -0.1382 -0.8163  1.0431
 5918TIP3    H239390   0.180   2.091   8.335  0.3550  0.6397 -0.9813
 5919TIP3   OH239391   4.447   4.421   8.728  0.4717 -0.2471  0.1362
 5919TIP3    H139392   4.412   4.410   8.817  0.1214  1.5053  0.2461
 5919TIP3    H239393   4.540   4.440   8.741  0.8604 -1.8558 -0.0079
 5920TIP3   OH239394   6.302   5.053   7.749  0.3574 -0.1417 -0.1446
 5920TIP3    H139395   6.240   4.980   7.754 -0.4253  0.5477  0.5121
 5920TIP3    H239396   6.269   5.107   7.678 -1.0619  1.3203  1.5350
 5921TIP3   OH239397   3.353   3.805   0.736  0.5896 -0.1208 -0.1442
 5921TIP3    H139398   3.292   3.770   0.672  1.0148  0.4849 -0.8904
 5921TIP3    H239399   3.346   3.900   0.726  1.2003 -0.0367  0.1908
 5922TIP3   OH239400   2.975   0.744   1.028 -0.1423  0.1719 -0.4399
 5922TIP3    H139401   3.022   0.726   0.946  1.0666  1.0003  0.0425
 5922TIP3    H239402   3.032   0.709   1.097  0.1175  1.8087  0.2109
 5923TIP3   OH239403   4.893   4.464   8.352 -0.1579 -0.6227  0.6162
 5923TIP3    H139404   4.889   4.551   8.310  1.2041 -1.1399 -0.6794
 5923TIP3    H239405   4.929   4.482   8.439 -0.9826  0.2378  0.7977
 5924TIP3   OH239406   1.222   5.349   7.283  0.4977 -0.0052 -1.0017
 5924TIP3    H139407   1.127   5.362   7.272  0.2772  0.1473  0.7358
 5924TIP3    H239408   1.242   5.393   7.366  1.4427 -2.9138  0.4180
 5925TIP3   OH239409   1.371   5.611   7.756  0.5972  0.2955 -0.2884
 5925TIP3    H139410   1.301   5.567   7.805  0.0541  1.4864  0.0372
 5925TIP3    H239411   1.399   5.682   7.813  1.9140 -0.0040 -0.5320
 5926TIP3   OH239412   0.624   1.583   1.198  0.6400  0.0934 -0.5140
 5926TIP3    H139413   0.686   1.656   1.203  1.3336 -0.5590  1.9107
 5926TIP3    H239414   0.547   1.614   1.246  0.2500 -0.1671 -0.9669
 5927TIP3   OH239415   1.832   2.324   0.173 -0.3705 -0.0776  0.1553
 5927TIP3    H139416   1.885   2.390   0.127  0.0130  0.2238  1.0074
 5927TIP3    H239417   1.889   2.247   0.178 -0.7081 -0.3815 -0.5737
 5928TIP3   OH239418   2.447   3.439   8.253 -0.8797 -0.0323  0.5733
 5928TIP3    H139419   2.430   3.507   8.189 -0.2526  0.6150  1.0914
 5928TIP3    H239420   2.493   3.370   8.204 -2.5619 -0.6445 -0.2324
 5929TIP3   OH239421   5.389   5.767   0.572 -0.0187  0.0746 -0.3942
 5929TIP3    H139422   5.329   5.814   0.630  2.9012  0.5933  2.4979
 5929TIP3    H239423   5.351   5.679   0.564 -1.6665  0.6740  0.4146
 5930TIP3   OH239424   0.019   3.248   6.575 -0.2205 -0.2062  0.9901
 5930TIP3    H139425  -0.010   3.167   6.616 -0.5131  0.2207  1.6381
 5930TIP3    H239426   0.112   3.236   6.560 -0.1769 -0.4861  1.4908
 5931TIP3   OH239427   1.588   2.684   8.194 -0.1243 -0.5857 -0.0059
 5931TIP3    H139428   1.669   2.637   8.218 -0.4578 -0.4884  1.4011
 5931TIP3    H239429   1.618   2.754   8.136  0.9653  0.0498  1.2513
 5932TIP3   OH239430   4.804   2.383   0.948  0.0486  0.1950 -0.3606
 5932TIP3    H139431   4.848   2.298   0.958 -2.1221 -0.9132  0.6680
 5932TIP3    H239432   4.735   2.366   0.884 -0.9418  0.9299  0.4803
 5933TIP3   OH239433   4.925   6.440   8.707 -0.2626  0.6868  0.0194
 5933TIP3    H139434   4.888   6.526   8.725 -1.5321 -0.2475  2.3002
 5933TIP3    H239435   4.854   6.391   8.666 -0.3845  0.0323  0.9586
 5934TIP3   OH239436   4.140   5.042   8.264 -0.1843 -0.5592 -0.2204
 5934TIP3    H139437   4.228   5.012   8.241  0.0142  0.0410 -0.2630
 5934TIP3    H239438   4.152   5.090   8.346 -0.6662 -1.4945  0.4118
 5935TIP3   OH239439   2.733   6.594   0.161 -0.3042  0.3985 -0.2058
 5935TIP3    H139440   2.649   6.637   0.142 -0.5850  0.8418  1.7933
 5935TIP3    H239441   2.752   6.544   0.082 -2.1729  0.7390 -0.9408
 5936TIP3   OH239442   4.339   5.850   8.500  0.5496 -0.2079  0.1379
 5936TIP3    H139443   4.305   5.773   8.545 -0.7816  0.5814  0.5471
 5936TIP3    H239444   4.262   5.898   8.473  1.3484 -0.0075 -1.9168
 5937TIP3   OH239445   0.093   3.697   2.152  0.3114  0.1267 -0.3604
 5937TIP3    H139446   0.046   3.776   2.182 -0.5242 -0.4616 -0.0794
 5937TIP3    H239447   0.044   3.625   2.191  2.1301 -0.4910  0.9042
 5938TIP3   OH239448   4.359   0.822   8.458 -0.3617  0.1606 -0.3389
 5938TIP3    H139449   4.361   0.849   8.367  0.2568  0.0671 -0.3596
 5938TIP3    H239450   4.269   0.791   8.473 -0.6517  0.8084 -0.7221
 5939TIP3   OH239451   4.335   0.922   1.830  0.3638  0.1040 -0.0977
 5939TIP3    H139452   4.385   0.865   1.889  0.1433 -0.0406 -0.0494
 5939TIP3    H239453   4.375   0.909   1.744  0.7301  0.3652  0.0303
 5940TIP3   OH239454   6.582   1.680   0.154 -0.7990  0.0230 -0.5413
 5940TIP3    H139455   6.638   1.720   0.220  0.5176 -1.0870 -0.9470
 5940TIP3    H239456   6.616   1.711   0.070 -0.5691 -0.9041 -0.8041
 5941TIP3   OH239457   1.072   4.848   0.795  0.0378 -0.1535 -0.4561
 5941TIP3    H139458   1.116   4.931   0.815  0.3539 -0.6904  1.2343
 5941TIP3    H239459   0.983   4.859   0.828  0.1258 -0.5499 -0.0928
 5942TIP3   OH239460   6.050   3.499   8.334  0.1728 -0.0197  0.1278
 5942TIP3    H139461   6.126   3.473   8.386  0.7686  1.3263 -0.0167
 5942TIP3    H239462   5.975   3.469   8.384  0.7841 -0.9076  0.5404
 5943TIP3   OH239463   0.207   3.784   1.332 -0.2704  0.3263  0.4524
 5943TIP3    H139464   0.247   3.779   1.245 -0.0777 -1.2743  0.5906
 5943TIP3    H239465   0.161   3.700   1.341 -0.9020  0.7798  1.6014
 5944TIP3   OH239466   0.604   6.064   0.395  1.0089  0.1163 -0.1218
 5944TIP3    H139467   0.636   6.152   0.378  0.6906  0.2884  0.1736
 5944TIP3    H239468   0.555   6.041   0.316  1.2046  0.1522 -0.2534
 5945TIP3   OH239469   0.442   4.844   6.579 -0.2435 -0.1679  0.1104
 5945TIP3    H139470   0.493   4.883   6.508 -0.9587 -0.1572 -0.4111
 5945TIP3    H239471   0.498   4.851   6.656  0.1254  0.7907 -0.2288
 5946TIP3   OH239472   2.921   4.158   7.665 -0.4866 -0.2206 -0.5579
 5946TIP3    H139473   2.935   4.079   7.717 -3.4564  0.7581  2.0333
 5946TIP3    H239474   2.902   4.125   7.577 -0.6567 -2.3189  0.2037
 5947TIP3   OH239475   0.388   6.468   1.725 -0.0459  0.0555 -0.2185
 5947TIP3    H139476   0.446   6.398   1.697  0.1779  0.6312 -1.2520
 5947TIP3    H239477   0.364   6.446   1.815  0.8754 -0.7702 -0.1693
 5948TIP3   OH239478   5.547   1.163   7.956 -0.4703 -0.0960  0.0920
 5948TIP3    H139479   5.603   1.171   8.034 -0.7134  0.0629  0.2500
 5948TIP3    H239480   5.545   1.070   7.938  0.4304 -0.0498 -0.3391
 5949TIP3   OH239481   3.709   2.087   8.386 -0.0057  0.3610 -0.1235
 5949TIP3    H139482   3.694   2.018   8.450  0.5914 -0.6419 -1.0397
 5949TIP3    H239483   3.703   2.168   8.437 -1.5312 -0.2946  0.8159
 5950TIP3   OH239484   6.510   2.294   7.506 -0.0570 -0.0681 -0.0445
 5950TIP3    H139485   6.604   2.288   7.520  0.0116  1.3083  0.2816
 5950TIP3    H239486   6.494   2.388   7.496 -1.1742 -0.4090 -1.7681
 5951TIP3   OH239487   4.212   3.797   8.253  0.0757  0.5805  0.2303
 5951TIP3    H139488   4.158   3.871   8.225 -0.7564  0.2051  0.7883
 5951TIP3    H239489   4.150   3.725   8.263  1.0271 -0.5055 -1.3250
 5952TIP3   OH239490   5.568   2.463   0.665 -0.1086  0.0330 -0.0626
 5952TIP3    H139491   5.478   2.485   0.641 -0.3392  1.6551  2.0045
 5952TIP3    H239492   5.620   2.535   0.630 -0.0954  0.8911  1.6141
 5953TIP3   OH239493   3.478   0.521   7.941  0.3453  0.3939 -0.5270
 5953TIP3    H139494   3.464   0.582   8.014  1.5644 -0.7631  0.7417
 5953TIP3    H239495   3.392   0.515   7.898 -0.4817  0.9241  0.9661
 5954TIP3   OH239496   1.642   4.549   8.011 -0.0801  0.5697  0.2540
 5954TIP3    H139497   1.559   4.516   8.046 -0.3013  1.6001  0.7625
 5954TIP3    H239498   1.623   4.640   7.988  1.3775  1.4134  2.1274
 5955TIP3   OH239499   3.063   3.351   1.718 -0.8228 -0.3065  0.0605
 5955TIP3    H139500   3.065   3.328   1.811 -2.8049  0.1177  0.2609
 5955TIP3    H239501   2.978   3.319   1.687 -1.3726  1.8988 -0.9247
 5956TIP3   OH239502   0.304   4.851   7.529  0.0534 -0.1132 -0.3665
 5956TIP3    H139503   0.220   4.895   7.514 -0.0617  0.5669  1.8759
 5956TIP3    H239504   0.369   4.921   7.522  0.1244 -0.0569  0.6866
 5957TIP3   OH239505   1.163   3.594   8.724 -0.7598 -0.2639  0.3206
 5957TIP3    H139506   1.164   3.521   8.662 -1.0544 -1.8844  2.1440
 5957TIP3    H239507   1.075   3.631   8.716 -1.0813 -0.9981  0.3788
 5958TIP3   OH239508   5.371   4.290   1.605 -0.3072  0.2046 -0.3529
 5958TIP3    H139509   5.393   4.198   1.591 -1.6306  0.0518 -1.6745
 5958TIP3    H239510   5.293   4.287   1.661  1.7280  0.6736  2.7082
 5959TIP3   OH239511   1.354   4.947   6.585  0.9807  0.0086 -0.3142
 5959TIP3    H139512   1.337   4.856   6.561  0.4084  0.2888 -0.9842
 5959TIP3    H239513   1.273   4.993   6.566  0.2225  0.1641  2.7659
 5960TIP3   OH239514   2.877   6.769   6.347 -0.6594  0.0339 -0.0638
 5960TIP3    H139515   2.788   6.733   6.343 -0.6626 -0.1959  1.5235
 5960TIP3    H239516   2.912   6.754   6.259 -1.8753 -0.6698 -0.4648
 5961TIP3   OH239517   5.468   4.147   0.685  0.0603  0.3912  0.8028
 5961TIP3    H139518   5.397   4.125   0.625 -0.8525  0.9342  1.6633
 5961TIP3    H239519   5.531   4.194   0.631  0.0871 -0.6438 -0.1135
 5962TIP3   OH239520   3.088   6.203   1.218  0.4915  0.3595 -1.0445
 5962TIP3    H139521   3.150   6.189   1.147  0.6505  0.7215 -0.9744
 5962TIP3    H239522   3.069   6.296   1.217  2.1555  0.7911  0.7602
 5963TIP3   OH239523   6.778   5.668   0.218  0.1877  0.2519  0.2555
 5963TIP3    H139524   6.791   5.725   0.142 -0.2802 -1.5117 -1.1975
 5963TIP3    H239525   6.858   5.679   0.269  0.6894  1.1752 -0.6766
 5964TIP3   OH239526   3.172   3.630   7.200 -0.0720  0.2639  0.2471
 5964TIP3    H139527   3.214   3.684   7.267  2.1343 -1.4671  0.3960
 5964TIP3    H239528   3.204   3.666   7.117  2.5367 -1.4849  0.3714
 5965TIP3   OH239529   2.311   4.209   1.548 -0.3891  0.7109  0.1362
 5965TIP3    H139530   2.284   4.195   1.457 -1.2452  1.6987  0.2028
 5965TIP3    H239531   2.406   4.202   1.547 -0.4206  0.2765 -0.7532
 5966TIP3   OH239532   4.208   1.024   0.527 -0.4135  0.3895  0.4711
 5966TIP3    H139533   4.285   1.040   0.473 -0.8348 -0.3812 -0.3985
 5966TIP3    H239534   4.235   0.957   0.589  0.3016  1.8161  1.7757
 5967TIP3   OH239535   3.610   4.004   0.662  0.2163 -0.3777 -0.6786
 5967TIP3    H139536   3.700   3.981   0.641  0.7847  1.8657 -0.9896
 5967TIP3    H239537   3.566   4.009   0.577 -0.1303 -1.1231 -0.5519
 5968TIP3   OH239538   1.515   3.963   1.882  0.3431  0.1665 -0.3190
 5968TIP3    H139539   1.422   3.963   1.858 -0.2427  0.5343  1.7275
 5968TIP3    H239540   1.516   3.995   1.972  2.3388 -1.1660  0.1953
 5969TIP3   OH239541   5.217   4.796   7.067 -0.1077 -0.6193 -0.0299
 5969TIP3    H139542   5.291   4.807   7.126  1.6254 -1.3754 -1.9388
 5969TIP3    H239543   5.177   4.713   7.094  0.8716 -1.1288 -0.1189
 5970TIP3   OH239544   4.008   5.713   7.014 -0.3103 -0.1401 -0.4499
 5970TIP3    H139545   4.002   5.790   6.958 -1.2471 -0.4087 -0.7351
 5970TIP3    H239546   3.996   5.747   7.103  1.3894  0.3154 -0.3451
 5971TIP3   OH239547   0.950   0.557   1.685 -0.5987 -0.2896 -0.5567
 5971TIP3    H139548   0.980   0.467   1.670 -3.0757 -1.6055  1.5299
 5971TIP3    H239549   0.939   0.564   1.780 -0.6732  2.1893 -0.6692
 5972TIP3   OH239550   3.360   6.334   6.509 -0.5817  0.1156  0.7063
 5972TIP3    H139551   3.308   6.269   6.461  0.7528 -0.3257 -0.2199
 5972TIP3    H239552   3.443   6.289   6.527  2.0166  2.5968 -3.4277
 5973TIP3   OH239553   0.808   5.788   7.307 -0.4127  0.1302  0.0084
 5973TIP3    H139554   0.833   5.877   7.283  0.8909 -0.4145 -0.7421
 5973TIP3    H239555   0.845   5.775   7.395 -1.4721  0.6474  0.5532
 5974TIP3   OH239556   1.500   5.519   0.864  0.2052 -0.4813 -0.5955
 5974TIP3    H139557   1.546   5.601   0.878 -2.2598  0.9709 -0.5276
 5974TIP3    H239558   1.544   5.457   0.922  0.3902  1.4910  1.5020
 5975TIP3   OH239559   5.138   2.418   7.574 -0.2359  0.2680  0.9221
 5975TIP3    H139560   5.115   2.510   7.587  0.3482  0.7238 -0.9539
 5975TIP3    H239561   5.121   2.402   7.481  1.8825 -0.8448  0.6668
 5976TIP3   OH239562   4.121   2.172   7.127  0.5448  0.4614  0.6385
 5976TIP3    H139563   4.106   2.137   7.040 -3.3492  0.7278  1.0285
 5976TIP3    H239564   4.175   2.250   7.113  1.3362 -0.3767 -1.3002
 5977TIP3   OH239565   3.324   3.372   8.135  0.4831 -0.0061  0.0884
 5977TIP3    H139566   3.413   3.351   8.108  2.3634  3.9310  2.3066
 5977TIP3    H239567   3.292   3.430   8.065  1.7079  2.5152  1.4739
 5978TIP3   OH239568   4.610   0.411   6.433  0.0171  0.4919  0.0800
 5978TIP3    H139569   4.595   0.403   6.527 -0.2240  1.3549  0.1270
 5978TIP3    H239570   4.538   0.363   6.393  0.5067 -0.4721  0.3317
 5979TIP3   OH239571   0.191   1.219   7.545 -0.0181  0.4260 -0.1521
 5979TIP3    H139572   0.130   1.201   7.616 -1.4007  0.7744 -1.1994
 5979TIP3    H239573   0.278   1.211   7.585 -0.6973 -1.3681  1.0917
 5980TIP3   OH239574   0.466   1.089   7.269 -0.2321 -0.3775 -0.1148
 5980TIP3    H139575   0.428   1.001   7.264 -0.3007 -0.2829 -2.7204
 5980TIP3    H239576   0.520   1.096   7.190 -0.1030  1.8726  0.1110
 5981TIP3   OH239577   6.660   5.618   8.811  0.0235  0.3473 -0.1940
 5981TIP3    H139578   6.589   5.635   8.872  2.0079  2.4730  1.7148
 5981TIP3    H239579   6.637   5.666   8.732 -1.7520 -1.0158 -0.5612
 5982TIP3   OH239580   3.488   2.834   1.139 -0.1419 -0.3858  0.3377
 5982TIP3    H139581   3.563   2.807   1.086  0.0665 -0.0197  0.4451
 5982TIP3    H239582   3.468   2.758   1.193  0.1348 -0.4954  0.2880
 5983TIP3   OH239583   1.534   6.441   1.054 -0.0764 -0.1821 -0.5607
 5983TIP3    H139584   1.583   6.435   0.971  0.3212  0.4249 -0.3773
 5983TIP3    H239585   1.602   6.453   1.120 -0.4655  0.3958 -0.2673
 5984TIP3   OH239586   6.182   1.996   7.029 -0.3492  0.0821 -0.5940
 5984TIP3    H139587   6.148   2.083   7.050  0.3399  0.0685  0.6750
 5984TIP3    H239588   6.237   2.010   6.952 -0.5575  0.6953 -0.6431
 5985TIP3   OH239589   5.437   0.154   6.874 -0.2621 -0.2929 -0.2755
 5985TIP3    H139590   5.408   0.227   6.929  1.2581  0.6138 -0.6157
 5985TIP3    H239591   5.524   0.180   6.844  1.1664 -3.0492  1.0735
 5986TIP3   OH239592   3.825   1.000   1.299  0.9847 -0.2037  0.4984
 5986TIP3    H139593   3.862   1.010   1.211  1.2266  1.1636  0.7492
 5986TIP3    H239594   3.732   0.982   1.283  1.4013 -2.0770 -0.0786
 5987TIP3   OH239595   6.150   6.566   2.167  0.0265 -0.4616  0.3558
 5987TIP3    H139596   6.117   6.554   2.256  0.4513  1.5170  0.8414
 5987TIP3    H239597   6.075   6.602   2.119 -0.0276 -0.9541  0.0691
 5988TIP3   OH239598   2.047   4.492   6.835  0.0555 -0.5018  0.3585
 5988TIP3    H139599   2.100   4.430   6.886  0.2439  0.8089  1.8637
 5988TIP3    H239600   2.104   4.568   6.825  0.1241 -0.8073 -2.1454
 5989TIP3   OH239601   4.588   3.490   8.344 -0.1733 -0.3440  0.0750
 5989TIP3    H139602   4.589   3.446   8.429  1.3913 -0.5058 -0.0062
 5989TIP3    H239603   4.644   3.567   8.356  0.1686 -0.4450 -0.8501
 5990TIP3   OH239604   2.981   4.827   8.822 -0.3226  0.6885 -0.6513
 5990TIP3    H139605   2.986   4.823   8.726 -0.0153  2.2921 -0.7280
 5990TIP3    H239606   3.062   4.870   8.849  0.0168 -0.5576  0.4177
 5991TIP3   OH239607   6.056   3.500   0.659 -0.5071 -0.4294  0.4020
 5991TIP3    H139608   6.145   3.502   0.694 -0.1469  1.2253 -0.4980
 5991TIP3    H239609   6.005   3.550   0.723 -0.2632  0.8030 -0.3446
 5992TIP3   OH239610   5.930   5.652   1.191  0.4681 -0.5289  0.0790
 5992TIP3    H139611   5.926   5.649   1.286  0.6663  0.5035  0.1358
 5992TIP3    H239612   5.911   5.744   1.169 -0.5353 -0.9471 -0.9249
 5993TIP3   OH239613   0.153   6.811   1.267 -0.4054  0.1390  0.2272
 5993TIP3    H139614   0.088   6.762   1.318  1.2009 -0.8342  1.4465
 5993TIP3    H239615   0.218   6.745   1.242  0.9846  1.3549  0.5189
 5994TIP3   OH239616   0.550   1.033   6.687 -0.3003  0.3275 -0.0967
 5994TIP3    H139617   0.560   0.959   6.627 -0.7939  1.2145 -1.3193
 5994TIP3    H239618   0.480   1.086   6.649 -0.8249  0.7882  1.4261
 5995TIP3   OH239619   4.043   3.346   0.978 -0.2133 -0.9675  0.2595
 5995TIP3    H139620   3.950   3.330   0.964 -0.7827  0.4751  1.9198
 5995TIP3    H239621   4.084   3.322   0.895 -2.2222 -0.4177 -0.9843
 5996TIP3   OH239622   1.955   6.704   8.137 -0.1968 -0.2186  0.0944
 5996TIP3    H139623   1.984   6.679   8.224 -0.3570 -0.1805  0.1589
 5996TIP3    H239624   1.945   6.799   8.141  0.3397 -0.1488 -0.1288
 5997TIP3   OH239625   1.195   3.388   7.691  0.1595  0.3576 -0.6377
 5997TIP3    H139626   1.220   3.426   7.607  0.3767  0.7954 -0.3751
 5997TIP3    H239627   1.251   3.310   7.699 -1.6676 -1.2143 -2.1018
 5998TIP3   OH239628   0.568   2.235   0.063  0.2902  0.3448  0.3593
 5998TIP3    H139629   0.613   2.162   0.020  0.5020  1.0124 -0.5768
 5998TIP3    H239630   0.614   2.245   0.146  0.5532 -0.2902  0.3004
 5999TIP3   OH239631   5.121   2.333   8.441  0.2753 -0.1833  0.3734
 5999TIP3    H139632   5.201   2.310   8.488  0.1033 -0.7786  0.3814
 5999TIP3    H239633   5.135   2.298   8.353 -0.0957 -0.5500  0.4588
 6000TIP3   OH239634   3.109   3.247   8.595  0.6126  0.6092 -0.1038
 6000TIP3    H139635   3.084   3.156   8.578  2.2270  0.3145 -1.0378
 6000TIP3    H239636   3.034   3.298   8.565 -0.9139 -0.4299  1.7015
 6001TIP3   OH239637   6.243   0.090   1.820 -0.1197  0.1293  0.1028
 6001TIP3    H139638   6.300   0.128   1.888 -0.8173  2.4351 -0.5183
 6001TIP3    H239639   6.304   0.049   1.758  0.6490 -0.0786  0.9696
 6002TIP3   OH239640   3.906   2.945   1.216 -0.1218 -0.7626  0.1917
 6002TIP3    H139641   3.999   2.942   1.239 -0.0257  3.2069  0.9459
 6002TIP3    H239642   3.861   2.919   1.297  0.3889  1.6447  1.3383
 6003TIP3   OH239643   3.834   3.064   1.474  0.1080  0.2800 -0.0233
 6003TIP3    H139644   3.924   3.058   1.506 -0.1269 -1.4866  0.4234
 6003TIP3    H239645   3.781   3.072   1.553 -0.2436 -0.6289 -0.1599
 6004TIP3   OH239646   5.976   2.932   0.897  0.4113 -0.3489 -0.4819
 6004TIP3    H139647   5.944   2.890   0.817  3.0964  0.6374 -2.2252
 6004TIP3    H239648   6.007   2.859   0.951 -0.5483 -0.9657 -0.7430
 6005TIP3   OH239649   3.154   5.977   6.909  0.3758  0.8555  0.2108
 6005TIP3    H139650   3.125   5.904   6.964  0.6130  1.7291  1.5242
 6005TIP3    H239651   3.075   6.003   6.860  0.5557 -1.0317 -1.2265
 6006TIP3   OH239652   1.514   2.519   7.039 -0.3173 -0.1534 -0.0558
 6006TIP3    H139653   1.563   2.437   7.034  1.0228  0.5529  0.7526
 6006TIP3    H239654   1.506   2.536   7.133 -1.7027  0.0161 -0.1856
 6007TIP3   OH239655   3.979   5.683   8.288 -0.2499  0.1462  0.1937
 6007TIP3    H139656   4.025   5.746   8.232  0.4810 -0.2281  0.3618
 6007TIP3    H239657   4.049   5.631   8.328 -0.8258 -0.4476  0.4401
 6008TIP3   OH239658   2.960   6.178   7.985 -0.0076  0.0003 -0.1714
 6008TIP3    H139659   2.954   6.107   8.049  0.3405 -1.1280 -1.3520
 6008TIP3    H239660   2.968   6.257   8.038 -0.6556 -0.8043  1.1828
 6009TIP3   OH239661   5.221   4.425   1.111 -0.3015 -0.1462 -0.1985
 6009TIP3    H139662   5.302   4.376   1.123 -0.3180 -0.4638 -1.3064
 6009TIP3    H239663   5.159   4.362   1.074  0.1630  1.0116 -3.2659
 6010TIP3   OH239664   0.179   5.855   1.815 -0.1402  0.3748  0.1469
 6010TIP3    H139665   0.255   5.831   1.868 -1.5023 -0.5049  1.7981
 6010TIP3    H239666   0.115   5.786   1.833 -1.5802  1.4531 -0.6489
 6011TIP3   OH239667   2.757   6.488   7.213  0.0657  0.5686  0.1207
 6011TIP3    H139668   2.775   6.400   7.180 -1.8716  0.3802 -0.5469
 6011TIP3    H239669   2.706   6.530   7.143 -1.9339  1.0550  1.7676
 6012TIP3   OH239670   6.727   3.540   7.426  0.6791  0.4412 -0.2142
 6012TIP3    H139671   6.771   3.620   7.453  1.0811  0.2301 -0.2308
 6012TIP3    H239672   6.794   3.472   7.434 -0.0016 -0.1147  0.9812
 6013TIP3   OH239673   2.006   6.314   7.416 -0.6903 -0.1282 -0.2089
 6013TIP3    H139674   2.050   6.359   7.343 -1.7699  1.0700 -0.1512
 6013TIP3    H239675   2.019   6.371   7.491 -1.4610 -0.2586  0.0323
 6014TIP3   OH239676   5.720   1.835   1.098 -0.2032 -0.3301 -0.0928
 6014TIP3    H139677   5.641   1.821   1.046  0.1864 -0.1437 -0.7483
 6014TIP3    H239678   5.773   1.894   1.045  0.6592 -0.9645  0.0460
 6015TIP3   OH239679   1.355   6.431   0.324 -0.1481 -0.7570 -0.5579
 6015TIP3    H139680   1.340   6.352   0.272 -0.4436 -1.5351  0.6649
 6015TIP3    H239681   1.336   6.405   0.414 -2.0454  1.1536 -0.2981
 6016TIP3   OH239682   0.607   1.787   0.688 -0.1246 -0.0767 -0.2396
 6016TIP3    H139683   0.619   1.777   0.783 -2.0757 -2.0578 -0.1179
 6016TIP3    H239684   0.676   1.848   0.661  0.6319  0.3520  2.4018
 6017TIP3   OH239685   0.923   4.920   8.247  0.2692 -0.0796 -0.2689
 6017TIP3    H139686   0.837   4.894   8.280 -0.1599  1.2653 -0.2496
 6017TIP3    H239687   0.926   4.886   8.157 -1.1785  1.6479 -1.0222
 6018TIP3   OH239688   2.290   1.333   1.490 -0.0018 -0.4495 -0.8713
 6018TIP3    H139689   2.361   1.272   1.509 -1.3295 -1.7435  0.1701
 6018TIP3    H239690   2.293   1.397   1.561 -0.7003 -1.3079 -0.0416
 6019TIP3   OH239691   4.153   3.369   8.243  0.0418  0.3059 -0.0780
 6019TIP3    H139692   4.121   3.422   8.315 -0.2636 -0.2580  0.2003
 6019TIP3    H239693   4.108   3.404   8.166  0.0220  0.6082  0.0705
 6020TIP3   OH239694   1.375   5.410   8.710 -0.9743  0.4738 -0.2944
 6020TIP3    H139695   1.332   5.391   8.627  2.4202 -0.7417 -1.9601
 6020TIP3    H239696   1.437   5.480   8.690 -1.4432  1.5656  1.7565
 6021TIP3   OH239697   2.574   4.861   8.056 -0.2063 -0.3243  0.5286
 6021TIP3    H139698   2.653   4.887   8.009 -0.1752  0.6388  1.1061
 6021TIP3    H239699   2.582   4.901   8.142 -1.9337  0.9039  0.1672
 6022TIP3   OH239700   3.056   3.544   1.398 -0.3045  0.2957 -0.2279
 6022TIP3    H139701   3.063   3.452   1.421  0.6257  0.9075  2.2799
 6022TIP3    H239702   3.146   3.570   1.377  0.0319  1.2358  2.0382
 6023TIP3   OH239703   1.008   3.031   8.156  0.1957 -0.3917 -0.2994
 6023TIP3    H139704   1.004   3.126   8.141 -0.0305 -0.0412  1.6779
 6023TIP3    H239705   1.029   3.023   8.249 -0.6527 -2.2829 -0.2372
 6024TIP3   OH239706   1.375   0.056   8.837  0.3118 -0.3804 -0.2275
 6024TIP3    H139707   1.346   0.049   8.928  0.5375 -0.9592 -0.1940
 6024TIP3    H239708   1.392  -0.035   8.810  3.0883 -0.0523  0.0810
 6025TIP3   OH239709   6.277   2.437   1.556 -0.3174 -0.0535  0.3842
 6025TIP3    H139710   6.243   2.506   1.614 -0.1239  1.7981 -1.5532
 6025TIP3    H239711   6.234   2.454   1.472  2.1622 -0.2555 -1.0186
 6026TIP3   OH239712   4.057   0.830   1.819  0.1931 -0.6272 -0.3005
 6026TIP3    H139713   4.151   0.839   1.833  0.1617 -1.8301  0.9013
 6026TIP3    H239714   4.019   0.840   1.907 -0.9246  1.0597 -0.9270
 6027TIP3   OH239715   4.657   1.725   0.650  0.1036  0.7776  0.1266
 6027TIP3    H139716   4.752   1.720   0.645  0.0094 -0.8008 -0.9826
 6027TIP3    H239717   4.629   1.734   0.558 -0.8394  0.2562  0.3527
 6028TIP3   OH239718   0.009   4.812   1.802  0.3838  0.2839 -0.2729
 6028TIP3    H139719   0.090   4.785   1.846  0.8560  0.9267 -0.7112
 6028TIP3    H239720   0.034   4.893   1.756 -0.0052 -0.5051 -1.9378
 6029TIP3   OH239721   5.765   2.031   8.505  0.5152  0.3086  0.5365
 6029TIP3    H139722   5.721   2.066   8.428  0.5086  0.8074  0.7636
 6029TIP3    H239723   5.720   2.072   8.580  0.8346  0.2035  0.7903
 6030TIP3   OH239724   1.297   1.587   8.568 -0.0810 -0.4947  1.1992
 6030TIP3    H139725   1.315   1.677   8.541  1.7537 -0.9529  0.7269
 6030TIP3    H239726   1.273   1.542   8.486 -0.8466 -0.4793  1.4094
 6031TIP3   OH239727   2.654   3.018   7.782 -0.1778 -0.7115 -0.0870
 6031TIP3    H139728   2.715   3.029   7.855 -0.6755  1.0515  0.1043
 6031TIP3    H239729   2.574   3.062   7.810 -0.5621 -0.4716 -1.4717
 6032TIP3   OH239730   2.520   3.081   6.227 -0.7161 -0.2046 -0.2558
 6032TIP3    H139731   2.582   3.144   6.191  0.1535  0.1776  1.7939
 6032TIP3    H239732   2.506   3.018   6.156  1.5250  0.0349 -0.9891
 6033TIP3   OH239733   2.981   5.771   0.185  0.1149 -0.8287  0.2113
 6033TIP3    H139734   2.907   5.774   0.244  0.2789  1.9867  0.4165
 6033TIP3    H239735   2.943   5.759   0.098 -0.4116 -1.4564  0.5301
 6034TIP3   OH239736   3.171   1.054   8.560 -0.2984  0.0364  0.1186
 6034TIP3    H139737   3.122   0.972   8.571  0.9337 -0.5652  1.4657
 6034TIP3    H239738   3.104   1.120   8.543 -1.2746 -1.3281 -1.6328
 6035TIP3   OH239739   6.198   2.746   1.046 -0.2909 -0.3207 -0.2860
 6035TIP3    H139740   6.118   2.716   1.087 -0.1287  0.8495  0.9781
 6035TIP3    H239741   6.206   2.838   1.073  1.4366 -0.3885 -0.4147
 6036TIP3   OH239742   0.880   1.474   6.464 -0.3034 -0.0664  0.0404
 6036TIP3    H139743   0.826   1.488   6.387 -1.9023  0.4498  1.1893
 6036TIP3    H239744   0.818   1.477   6.537  1.2449  0.1922  1.4032
 6037TIP3   OH239745   6.224   6.395   0.246 -0.1016 -0.4936  0.1973
 6037TIP3    H139746   6.159   6.417   0.312 -0.5468  1.5803 -0.8507
 6037TIP3    H239747   6.219   6.299   0.239 -2.5237 -0.4779  0.6856
 6038TIP3   OH239748   6.111   2.979   8.695  0.3546 -0.3250  0.8642
 6038TIP3    H139749   6.050   3.009   8.762  0.9102  0.8095  0.8819
 6038TIP3    H239750   6.063   2.909   8.649 -0.2535 -0.7178  2.0375
 6039TIP3   OH239751   3.645   2.699   1.691  0.2847  0.1381 -0.5235
 6039TIP3    H139752   3.608   2.770   1.744 -0.2798  0.1934 -0.9850
 6039TIP3    H239753   3.683   2.744   1.615 -0.7687 -0.1170 -1.2070
 6040TIP3   OH239754   0.149   4.182   1.375 -0.8489 -0.5289  0.3169
 6040TIP3    H139755   0.147   4.268   1.418 -1.1771 -0.1047 -0.5073
 6040TIP3    H239756   0.107   4.123   1.437  1.2394 -0.5516  1.8059
 6041TIP3   OH239757   5.919   3.888   6.778  0.0276 -0.7632  0.0539
 6041TIP3    H139758   5.992   3.831   6.755  0.9190 -0.5065  2.0394
 6041TIP3    H239759   5.907   3.944   6.701  0.6925 -2.0227 -1.0053
 6042TIP3   OH239760   5.963   0.729   0.329 -0.1579  0.0688  0.5809
 6042TIP3    H139761   5.970   0.638   0.359 -1.3785  0.4998  2.3037
 6042TIP3    H239762   5.891   0.766   0.380 -1.7002  1.2048 -2.1806
 6043TIP3   OH239763   3.865   1.881   8.069 -0.8420 -0.2460  0.4031
 6043TIP3    H139764   3.873   1.821   8.143 -0.6065  0.8470  1.2965
 6043TIP3    H239765   3.943   1.866   8.017 -0.9200 -0.9022  0.4655
 6044TIP3   OH239766   3.546   3.532   7.728  0.8051 -0.2427 -0.1380
 6044TIP3    H139767   3.562   3.608   7.783  1.3020 -0.0277 -0.5734
 6044TIP3    H239768   3.622   3.475   7.742  0.0058 -1.1032  0.8978
 6045TIP3   OH239769   5.305   2.182   1.564  0.2088 -0.5564  0.0903
 6045TIP3    H139770   5.325   2.119   1.634  0.9932  0.5868  0.9219
 6045TIP3    H239771   5.262   2.129   1.496 -2.1310 -1.4452  2.0927
 6046TIP3   OH239772   0.394   6.198   7.198  0.8412 -0.1436 -0.8128
 6046TIP3    H139773   0.440   6.152   7.268 -1.2646 -0.5361  0.3964
 6046TIP3    H239774   0.410   6.146   7.119 -1.5077 -3.1575  0.4936
 6047TIP3   OH239775   4.235   4.492   7.394  0.3484  0.3265  0.2504
 6047TIP3    H139776   4.316   4.454   7.358  1.1732  1.5535  0.7629
 6047TIP3    H239777   4.231   4.460   7.484 -0.4027 -0.7168 -0.1318
 6048TIP3   OH239778   0.072   6.765   8.679 -0.0540  0.0814 -0.2574
 6048TIP3    H139779   0.015   6.690   8.698 -0.7987  0.8706  0.7451
 6048TIP3    H239780   0.145   6.727   8.630 -0.3425 -1.3325  0.3363
 6049TIP3   OH239781   6.589   5.877   7.032 -0.4337 -0.2370 -0.1292
 6049TIP3    H139782   6.550   5.846   7.114 -1.0955 -0.2141 -0.4351
 6049TIP3    H239783   6.681   5.852   7.039 -0.6424 -0.9123  0.2965
 6050TIP3   OH239784   2.891   0.137   8.845  0.3073 -0.5672 -0.4867
 6050TIP3    H139785   2.824   0.120   8.911 -0.3600 -1.7120 -1.4361
 6050TIP3    H239786   2.938   0.055   8.836  2.2930  0.3769  0.6002
 6051TIP3   OH239787   5.686   3.245   7.542 -0.2972 -0.1430  0.5870
 6051TIP3    H139788   5.736   3.257   7.461  0.2582  0.3387  0.9890
 6051TIP3    H239789   5.739   3.184   7.593  0.7268  1.5403  1.6628
 6052TIP3   OH239790   4.633   6.076   7.167 -1.0517 -0.2621 -0.6729
 6052TIP3    H139791   4.660   6.143   7.230 -1.1444 -0.6824 -0.1767
 6052TIP3    H239792   4.618   6.124   7.086 -1.0060  0.3021 -0.3542
 6053TIP3   OH239793   4.469   6.104   1.367  0.0525 -0.2905  0.5687
 6053TIP3    H139794   4.494   6.151   1.287 -0.1514  1.5650  1.5469
 6053TIP3    H239795   4.491   6.012   1.349  0.8997  0.2282 -1.2448
 6054TIP3   OH239796   1.309   5.489   7.502  1.0307 -0.5977 -0.2476
 6054TIP3    H139797   1.360   5.471   7.580 -1.0992  1.5573  1.8130
 6054TIP3    H239798   1.350   5.567   7.463 -0.9678  1.7373  1.9463
 6055TIP3   OH239799   6.202   1.686   7.882  0.3642  0.3236  0.5111
 6055TIP3    H139800   6.148   1.714   7.808  1.3778 -0.0569 -0.4046
 6055TIP3    H239801   6.158   1.607   7.914  0.6789 -0.3242 -0.5982
 6056TIP3   OH239802   3.514   1.506   8.057 -0.3777 -0.4582  0.2140
 6056TIP3    H139803   3.607   1.501   8.034 -0.7155  1.5802 -2.0498
 6056TIP3    H239804   3.513   1.549   8.142  0.7650  0.6577 -0.3002
 6057TIP3   OH239805   3.106   2.962   7.464  0.0702 -0.1227  0.2853
 6057TIP3    H139806   3.141   2.906   7.534  1.5323 -1.1226 -1.1717
 6057TIP3    H239807   3.014   2.975   7.488  0.4621 -0.6507  2.2393
 6058TIP3   OH239808   6.060   3.653   6.954  0.1431 -0.0269  0.0839
 6058TIP3    H139809   6.103   3.567   6.947  1.2019  0.6361 -2.1797
 6058TIP3    H239810   6.056   3.686   6.865 -0.6849  2.1090  0.8500
 6059TIP3   OH239811   4.625   1.674   8.066 -1.1984 -0.8383 -0.0437
 6059TIP3    H139812   4.569   1.717   8.130 -0.8744  0.1248 -0.3877
 6059TIP3    H239813   4.710   1.666   8.110 -0.6517  0.8481 -0.7009
 6060TIP3   OH239814   5.995   1.258   8.131  0.0225  0.0222  0.3162
 6060TIP3    H139815   5.975   1.352   8.126 -0.3113 -0.0870 -0.4585
 6060TIP3    H239816   6.086   1.252   8.101  0.5601  0.2631  1.8074
 6061TIP3   OH239817   2.994   2.891   0.525 -0.0273 -0.0715  0.0819
 6061TIP3    H139818   3.079   2.908   0.485 -1.1648 -0.5700 -2.8063
 6061TIP3    H239819   2.967   2.807   0.488 -2.2389  0.5969  0.0542
 6062TIP3   OH239820   5.504   4.630   1.355  0.1158  0.6687  0.2601
 6062TIP3    H139821   5.463   4.710   1.320 -0.1200 -0.3466 -1.9440
 6062TIP3    H239822   5.434   4.588   1.404 -0.8501  0.1333 -1.4908
 6063TIP3   OH239823   4.955   0.512   7.392  1.1280 -0.0708  0.0713
 6063TIP3    H139824   5.019   0.580   7.411 -0.4371  0.7886  2.9963
 6063TIP3    H239825   4.966   0.447   7.462 -1.0594  0.0890  0.6618
 6064TIP3   OH239826   1.011   2.562   1.775  0.3707 -0.0217 -0.3479
 6064TIP3    H139827   1.092   2.518   1.799 -0.1887 -0.1970  1.3217
 6064TIP3    H239828   0.943   2.518   1.826 -0.8060  0.0825 -1.7404
 6065TIP3   OH239829   3.574   2.405   0.659 -0.2426 -0.0531 -0.1383
 6065TIP3    H139830   3.516   2.439   0.590 -0.9949 -0.3422  0.3454
 6065TIP3    H239831   3.649   2.368   0.611 -1.3534 -1.4216 -0.8948
 6066TIP3   OH239832   3.734   5.008   8.408  0.2599 -0.0412 -0.1579
 6066TIP3    H139833   3.774   4.995   8.322  1.5765 -0.1252  0.4436
 6066TIP3    H239834   3.723   4.920   8.444 -0.6283 -0.0304 -0.3701
 6067TIP3   OH239835   5.628   5.199   6.584  0.5466 -0.0353 -0.3033
 6067TIP3    H139836   5.535   5.215   6.568  0.7958 -0.0103 -1.8826
 6067TIP3    H239837   5.671   5.281   6.561  1.1295 -0.6396 -1.3984
 6068TIP3   OH239838   3.724   2.285   8.572  0.0368 -0.6939  0.1315
 6068TIP3    H139839   3.731   2.371   8.531  1.2872 -0.6607  0.3745
 6068TIP3    H239840   3.660   2.296   8.642 -1.5625 -0.5648 -1.2889
 6069TIP3   OH239841   3.114   4.410   7.235 -0.0330  0.6445 -0.0781
 6069TIP3    H139842   3.043   4.397   7.298  0.2854  0.8968  0.3306
 6069TIP3    H239843   3.153   4.494   7.259  2.3674 -0.8370  1.6204
 6070TIP3   OH239844   3.212   5.962   0.757  0.1793 -0.2591  0.9387
 6070TIP3    H139845   3.215   5.866   0.763  0.9423 -0.2457  0.8156
 6070TIP3    H239846   3.151   5.979   0.685  0.4308 -0.6668  0.6225
 6071TIP3   OH239847   0.716   2.467   1.744  0.4536  0.7585  0.0891
 6071TIP3    H139848   0.791   2.427   1.787  0.7350  1.0384 -0.1286
 6071TIP3    H239849   0.654   2.396   1.732  1.4007  0.1031 -1.3197
 6072TIP3   OH239850   6.633   6.640   7.055  0.3709  0.3586 -0.1031
 6072TIP3    H139851   6.574   6.704   7.097  0.6484  0.6828 -0.1988
 6072TIP3    H239852   6.646   6.675   6.967 -0.4222 -0.4564 -0.5583
 6073TIP3   OH239853   6.444   4.059   1.223  0.3730 -0.1333 -0.2434
 6073TIP3    H139854   6.523   4.070   1.276  0.5655 -2.1337 -0.0549
 6073TIP3    H239855   6.389   4.000   1.273 -1.0249  0.7869 -0.6409
 6074TIP3   OH239856   0.425   4.394   0.141  0.3505 -0.1069 -0.1861
 6074TIP3    H139857   0.409   4.331   0.211  3.1918 -0.6449  0.1010
 6074TIP3    H239858   0.516   4.379   0.116  0.2191  1.9081 -2.1552
 6075TIP3   OH239859   4.418   3.393   1.035  0.3637 -0.5291  0.2592
 6075TIP3    H139860   4.357   3.322   1.016  0.8005 -1.0615  0.8106
 6075TIP3    H239861   4.492   3.378   0.976  0.3040 -0.3298  0.1322
 6076TIP3   OH239862   1.389   6.767   8.298 -0.0166 -0.0095  0.0275
 6076TIP3    H139863   1.432   6.692   8.339 -1.0772 -0.6372  0.0368
 6076TIP3    H239864   1.410   6.759   8.205  0.5295  0.1332  0.1379
 6077TIP3   OH239865   1.504   5.629   1.342  0.1212  0.1358  0.1673
 6077TIP3    H139866   1.561   5.552   1.340 -2.1946 -1.6533 -2.0204
 6077TIP3    H239867   1.417   5.595   1.363 -1.5650  1.5906 -3.6817
 6078TIP3   OH239868   1.154   5.646   0.674  0.4387 -0.1840  0.5928
 6078TIP3    H139869   1.103   5.697   0.612 -0.3693 -0.5785  0.9144
 6078TIP3    H239870   1.126   5.678   0.760  0.6207 -0.5036  0.7723
 6079TIP3   OH239871   4.336   2.962   0.243  1.2549  0.3361 -0.4232
 6079TIP3    H139872   4.303   2.875   0.264  0.9907  0.5119 -0.0972
 6079TIP3    H239873   4.286   2.989   0.166  0.3149  0.7691  0.3078
 6080TIP3   OH239874   4.197   1.416   8.068  0.1722  0.1052  0.1175
 6080TIP3    H139875   4.285   1.404   8.032 -0.1446 -0.7574 -0.3800
 6080TIP3    H239876   4.212   1.446   8.158  1.0389 -2.3398  0.8693
 6081TIP3   OH239877   5.572   0.408   0.828  0.0352 -0.0366  0.4342
 6081TIP3    H139878   5.556   0.364   0.745  1.5518 -1.3084  0.7559
 6081TIP3    H239879   5.622   0.344   0.879 -1.0308  0.6316  2.4188
 6082TIP3   OH239880   0.565   1.725   0.948  0.0452  0.5033 -0.7911
 6082TIP3    H139881   0.605   1.769   1.023  1.1507 -2.1747  0.3176
 6082TIP3    H239882   0.475   1.708   0.976  1.1152 -2.7654  1.1624
 6083TIP3   OH239883   5.093   3.481   7.625 -0.4806 -0.0358  0.2450
 6083TIP3    H139884   5.072   3.561   7.578  0.0966  0.3964  0.7038
 6083TIP3    H239885   5.008   3.443   7.648 -0.7551  0.3917 -0.0648
 6084TIP3   OH239886   4.660   5.897   0.005  0.2506 -0.2294  0.4905
 6084TIP3    H139887   4.737   5.843   0.020  0.7168 -0.1592 -1.4453
 6084TIP3    H239888   4.674   5.974   0.060  2.1033  0.2743 -0.6087
 6085TIP3   OH239889   4.675   4.705   1.688  0.3987  0.0174  0.4482
 6085TIP3    H139890   4.758   4.749   1.669  0.5897 -0.5923 -0.1809
 6085TIP3    H239891   4.680   4.682   1.781 -0.7467  3.4645  1.5055
 6086TIP3   OH239892   4.483   2.546   0.839 -0.2370  0.3754 -0.0093
 6086TIP3    H139893   4.534   2.491   0.779 -0.4396 -0.6915  0.7744
 6086TIP3    H239894   4.399   2.559   0.795 -0.0610  0.3464 -0.3564
 6087TIP3   OH239895   2.874   5.611   1.253 -0.2457  0.3832  0.3732
 6087TIP3    H139896   2.886   5.516   1.256 -0.1959  0.2944 -1.5040
 6087TIP3    H239897   2.818   5.626   1.177  0.6487  1.9234 -0.0273
 6088TIP3   OH239898   0.976   6.014   8.834  0.0971  0.3430  0.4960
 6088TIP3    H139899   0.895   6.019   8.886 -0.9499  0.2151 -1.0377
 6088TIP3    H239900   0.990   6.104   8.804 -0.3615  0.1128 -0.4690
 6089TIP3   OH239901   1.627   2.099   8.585  0.1265 -0.4392  0.2930
 6089TIP3    H139902   1.589   2.184   8.562  1.5690  0.3083  0.5560
 6089TIP3    H239903   1.560   2.035   8.559 -2.6124  0.8890  3.3641
 6090TIP3   OH239904   5.866   4.208   7.674 -0.0913  0.1310  0.4645
 6090TIP3    H139905   5.906   4.285   7.713  1.4617  0.2416 -1.1818
 6090TIP3    H239906   5.857   4.230   7.581  2.2506 -2.2831 -0.4747
 6091TIP3   OH239907   0.395   5.251   0.294  0.0622  0.3039  0.2464
 6091TIP3    H139908   0.385   5.173   0.240 -1.6102  0.4846  0.2532
 6091TIP3    H239909   0.405   5.323   0.230  1.5266  0.1139  0.2396
 6092TIP3   OH239910   3.066   6.201   0.086  0.3074 -0.1150  0.1052
 6092TIP3    H139911   3.021   6.284   0.070  1.2558  0.1865 -1.1574
 6092TIP3    H239912   3.020   6.138   0.030  1.5927  0.2667 -1.4700
 6093TIP3   OH239913   2.381   4.950   7.799  0.4541 -0.0793  0.2446
 6093TIP3    H139914   2.327   4.997   7.863 -0.2238  1.1257 -1.1365
 6093TIP3    H239915   2.413   4.873   7.846 -0.2099  0.6277  1.9409
 6094TIP3   OH239916   0.989   4.862   8.799 -0.1291 -0.1263  0.7212
 6094TIP3    H139917   1.082   4.874   8.778  0.0214 -2.5031 -0.3597
 6094TIP3    H239918   0.978   4.767   8.803 -2.4706  0.1072  1.0984
 6095TIP3   OH239919   3.813   6.548   6.263  0.1224 -0.6804 -0.3700
 6095TIP3    H139920   3.909   6.549   6.272  0.0761 -1.6237  0.3148
 6095TIP3    H239921   3.784   6.627   6.308  0.5255 -0.8137  0.1313
 6096TIP3   OH239922   3.572   5.981   8.473  0.7293  0.3607  0.0019
 6096TIP3    H139923   3.523   5.923   8.532  0.7799  2.0448  1.7887
 6096TIP3    H239924   3.561   5.942   8.387 -2.8910  0.0813  0.4491
 6097TIP3   OH239925   1.370   0.596   0.314 -0.2304  0.0477 -0.1570
 6097TIP3    H139926   1.329   0.543   0.245  1.0814 -1.6902  0.3422
 6097TIP3    H239927   1.386   0.681   0.272 -0.7476 -0.5083 -1.5478
 6098TIP3   OH239928   5.244   2.572   8.642 -0.1635  0.6591 -0.5650
 6098TIP3    H139929   5.185   2.525   8.700 -1.1657  2.0126 -0.4392
 6098TIP3    H239930   5.186   2.621   8.583  0.8307  0.2877 -1.9109
 6099TIP3   OH239931   5.524   1.168   0.941 -0.2532  0.0640 -0.3954
 6099TIP3    H139932   5.439   1.209   0.958 -0.9283 -0.5484 -2.0654
 6099TIP3    H239933   5.527   1.093   1.000 -0.3330  0.7706  0.5252
 6100TIP3   OH239934   3.876   1.025   1.010 -0.2119  1.1218  0.6107
 6100TIP3    H139935   3.921   0.954   0.963  2.2361  3.3764 -0.7256
 6100TIP3    H239936   3.783   1.011   0.990  0.4551  0.1725 -2.4043
 6101TIP3   OH239937   2.570   3.422   0.889 -0.3188 -0.1797 -0.0996
 6101TIP3    H139938   2.553   3.361   0.816  2.0980 -0.5004 -0.5004
 6101TIP3    H239939   2.643   3.476   0.858  1.2008 -0.7143  2.2621
 6102TIP3   OH239940   6.514   6.707   8.326  0.4494 -0.4141 -0.0178
 6102TIP3    H139941   6.482   6.770   8.262 -0.0214 -0.4151  0.2120
 6102TIP3    H239942   6.597   6.743   8.356 -0.1173  0.4234  0.5781
 6103TIP3   OH239943   2.130   5.489   1.315  0.6325 -0.1303  0.4265
 6103TIP3    H139944   2.096   5.548   1.248 -0.9170 -0.9445  0.4588
 6103TIP3    H239945   2.081   5.513   1.394  2.0942  0.4924  1.1776
 6104TIP3   OH239946   0.836   2.244   1.145  0.4387  0.4868  0.3195
 6104TIP3    H139947   0.922   2.278   1.121 -0.4706  3.7043  1.1771
 6104TIP3    H239948   0.855   2.159   1.185  3.0099  0.3247 -1.0017
 6105TIP3   OH239949   2.731   1.033   8.344  0.0391 -0.4121 -0.1101
 6105TIP3    H139950   2.672   1.017   8.270 -0.2265 -1.2172  0.2744
 6105TIP3    H239951   2.676   1.023   8.421 -0.0267  1.8037  0.2063
 6106TIP3   OH239952   2.119   2.809   1.568  0.0684  1.0272 -0.2809
 6106TIP3    H139953   2.152   2.790   1.480  0.1137 -0.2506 -0.0116
 6106TIP3    H239954   2.109   2.723   1.608 -0.3918  1.5766  0.8103
 6107TIP3   OH239955   3.406   1.940   8.369  0.4379 -0.3402 -0.3837
 6107TIP3    H139956   3.325   1.988   8.387  1.8298  2.2705 -0.5725
 6107TIP3    H239957   3.415   1.881   8.444 -1.6057 -0.7324 -0.3708
 6108TIP3   OH239958   5.558   5.395   7.045 -0.1036 -0.4569  0.0679
 6108TIP3    H139959   5.592   5.417   7.132 -1.2337 -0.3097  0.4888
 6108TIP3    H239960   5.549   5.299   7.047 -0.5849 -0.4081  0.2884
 6109TIP3   OH239961   3.347   1.690   7.134 -0.1946 -0.0043  0.1364
 6109TIP3    H139962   3.358   1.730   7.047 -1.5346 -0.5650 -0.3174
 6109TIP3    H239963   3.428   1.642   7.149  0.6597  1.3071 -0.1484
 6110TIP3   OH239964   0.448   4.572   8.067 -0.8773 -0.1739  0.8493
 6110TIP3    H139965   0.470   4.660   8.034 -0.6351 -0.2440  0.8236
 6110TIP3    H239966   0.472   4.513   7.995  2.0637 -0.5923  2.0244
 6111TIP3   OH239967   6.462   2.218   0.037  0.2304  0.7477 -0.2182
 6111TIP3    H139968   6.370   2.243   0.024 -0.2674 -0.8429  0.1155
 6111TIP3    H239969   6.511   2.284  -0.013 -1.1917  0.4090 -2.1891
 6112TIP3   OH239970   2.069   2.323   7.091  0.1624  0.0807  0.3731
 6112TIP3    H139971   2.017   2.385   7.041  0.0577  1.1453  1.7534
 6112TIP3    H239972   2.098   2.259   7.026  1.6526  2.4328 -1.4700
 6113TIP3   OH239973   0.677   3.775   1.538  0.1086 -0.1506  0.2800
 6113TIP3    H139974   0.595   3.738   1.571 -0.3382  0.7423  0.2098
 6113TIP3    H239975   0.714   3.707   1.481 -1.9921  0.4568 -1.9757
 6114TIP3   OH239976   5.268   0.977   8.074 -0.4792 -0.6986 -0.4198
 6114TIP3    H139977   5.234   1.065   8.059 -0.0643 -0.4440  0.0883
 6114TIP3    H239978   5.192   0.926   8.101 -0.4320 -0.0671  0.9907
 6115TIP3   OH239979   5.926   2.251   8.660  0.7348 -0.2868  0.7826
 6115TIP3    H139980   5.873   2.330   8.648  1.1995  0.1885  1.7994
 6115TIP3    H239981   5.894   2.191   8.592  0.0432  0.5904  0.3089
 6116TIP3   OH239982   5.922   6.554   0.704 -0.1052 -0.1100 -0.7808
 6116TIP3    H139983   5.831   6.546   0.676  0.0005 -1.4215 -0.7884
 6116TIP3    H239984   5.916   6.583   0.795 -0.4959  0.7230 -1.0545
 6117TIP3   OH239985   6.185   0.881   1.819 -0.2020 -0.1768 -0.3188
 6117TIP3    H139986   6.277   0.896   1.840 -0.2908 -0.2634  0.1612
 6117TIP3    H239987   6.137   0.941   1.877 -0.4472 -0.1463 -0.5509
 6118TIP3   OH239988   3.713   6.665   0.448  0.6860  0.6302 -0.2787
 6118TIP3    H139989   3.696   6.711   0.366 -3.4343 -1.3301 -0.7635
 6118TIP3    H239990   3.723   6.574   0.422  0.9803  0.1965  1.2928
 6119TIP3   OH239991   0.915   1.756   0.193 -0.0812 -0.4324  0.6810
 6119TIP3    H139992   0.930   1.662   0.193 -0.8357 -0.6244 -1.8654
 6119TIP3    H239993   0.821   1.765   0.208 -0.2848 -0.2071 -0.6147
 6120TIP3   OH239994   2.798   5.483   8.579 -0.3991  0.4081 -0.2774
 6120TIP3    H139995   2.792   5.389   8.596  1.3773  0.2526 -0.2801
 6120TIP3    H239996   2.748   5.524   8.649  0.3247 -0.4986  0.8193
 6121TIP3   OH239997   0.166   5.617   8.860 -0.1213  0.2188 -0.0339
 6121TIP3    H139998   0.077   5.580   8.864 -0.1447  0.3086  0.2734
 6121TIP3    H239999   0.154   5.703   8.819 -0.1385  0.1147 -0.2498
 6122TIP3   OH240000   0.025   3.389   0.577 -0.4459 -0.1250 -0.6032
 6122TIP3    H140001   0.025   3.385   0.481  0.0684 -0.6331 -0.5864
 6122TIP3    H240002   0.084   3.461   0.598 -1.0275  0.3802 -0.6764
 6123TIP3   OH240003   2.729   1.616   8.197  0.0069 -0.0838 -0.2970
 6123TIP3    H140004   2.679   1.572   8.266 -0.9577  1.0075 -0.2857
 6123TIP3    H240005   2.713   1.564   8.119 -1.0329  0.1759 -0.2635
 6124TIP3   OH240006   4.288   0.650   7.315  0.0739  0.0789 -0.1618
 6124TIP3    H140007   4.244   0.681   7.236 -1.9881 -2.6276 -0.2196
 6124TIP3    H240008   4.243   0.697   7.386  1.5085  2.0412 -0.4663
 6125TIP3   OH240009   4.831   2.295   8.346 -0.0333 -0.2512 -0.0127
 6125TIP3    H140010   4.784   2.342   8.415  0.6630 -0.3073  0.5162
 6125TIP3    H240011   4.891   2.360   8.309  0.9069 -0.6751  0.6987
 6126TIP3   OH240012   6.065   2.178   0.794 -0.3045  0.0858  0.2198
 6126TIP3    H140013   6.077   2.272   0.799 -1.9226  0.3126  0.5393
 6126TIP3    H240014   6.119   2.142   0.864 -0.8968  0.9265  1.1296
 6127TIP3   OH240015   0.071   2.144   8.053 -0.8809 -0.0314  0.2264
 6127TIP3    H140016   0.156   2.106   8.033 -1.2239 -1.1856  0.8926
 6127TIP3    H240017   0.065   2.141   8.149 -1.5961  0.1948  0.1962
 6128TIP3   OH240018   1.654   1.706   8.085 -0.4705  0.1582  0.3423
 6128TIP3    H140019   1.677   1.621   8.047 -1.3680  0.0447  0.0251
 6128TIP3    H240020   1.576   1.733   8.037 -0.4902  0.9305  0.7935
 6129TIP3   OH240021   1.798   1.744   6.890 -0.1623 -0.3759 -0.1969
 6129TIP3    H140022   1.881   1.763   6.848  0.7259 -2.4834  0.4923
 6129TIP3    H240023   1.801   1.792   6.973 -0.0832  0.3422 -0.6059
 6130TIP3   OH240024   6.108   4.938   7.260 -1.0714  0.1621 -0.2310
 6130TIP3    H140025   6.139   4.898   7.179  1.2781 -0.1550  0.7493
 6130TIP3    H240026   6.054   5.012   7.230  0.8931  0.9587 -2.1510
 6131TIP3   OH240027   3.762   0.484   7.633  0.0080  0.4275 -0.1773
 6131TIP3    H140028   3.793   0.406   7.680  2.3248  0.2769 -1.7583
 6131TIP3    H240029   3.667   0.483   7.645  0.2235 -1.1283  2.0686
 6132TIP3   OH240030   3.035   5.341   1.433  0.2077  0.1647  0.1910
 6132TIP3    H140031   3.078   5.270   1.385  0.3502  0.4141 -0.0533
 6132TIP3    H240032   2.993   5.298   1.508 -2.2748 -0.6500 -1.5462
 6133TIP3   OH240033   3.437   1.522   0.707  0.1906  0.4395  0.1557
 6133TIP3    H140034   3.487   1.603   0.716 -0.8343  1.2708 -1.2450
 6133TIP3    H240035   3.436   1.484   0.795  1.8720  1.2236  0.5366
 6134TIP3   OH240036   4.741   0.326   0.961  0.6819  0.4893 -0.3975
 6134TIP3    H140037   4.818   0.365   1.002 -0.3870  1.6557  0.5661
 6134TIP3    H240038   4.712   0.260   1.023  2.2939 -1.7665 -1.8776
 6135TIP3   OH240039   6.102   3.925   6.324  0.1423 -0.4220  0.2315
 6135TIP3    H140040   6.156   3.855   6.363  0.7719 -0.1253 -0.0953
 6135TIP3    H240041   6.012   3.897   6.340  0.3870 -0.8600  0.9150
 6136TIP3   OH240042   4.839   3.258   1.874 -0.1183 -0.2473 -0.5971
 6136TIP3    H140043   4.834   3.352   1.892 -0.1213 -0.1077 -1.2850
 6136TIP3    H240044   4.833   3.252   1.778 -0.0791 -0.9452 -0.5592
 6137TIP3   OH240045   3.845   1.607   0.796  0.0841 -0.4961 -0.2408
 6137TIP3    H140046   3.812   1.602   0.706 -0.4889 -0.7624 -0.0229
 6137TIP3    H240047   3.767   1.591   0.850  0.3988 -0.1885  0.3015
 6138TIP3   OH240048   2.106   3.970   8.345  0.6895 -0.2572  0.6756
 6138TIP3    H140049   2.172   3.973   8.276  1.9430 -0.4297  1.8287
 6138TIP3    H240050   2.059   3.888   8.330  0.5778 -0.0368 -0.2712
 6139TIP3   OH240051   5.161   0.743   0.208  0.1742  0.2288  0.1884
 6139TIP3    H140052   5.161   0.666   0.151  1.5779  0.8271 -0.6861
 6139TIP3    H240053   5.108   0.807   0.162  0.8831  0.5362 -0.2220
 6140TIP3   OH240054   2.191   4.472   7.412  0.4544  0.5482 -0.0220
 6140TIP3    H140055   2.247   4.404   7.450  0.6009 -0.8959 -2.5611
 6140TIP3    H240056   2.252   4.536   7.377  0.5441 -0.3934 -1.6801
 6141TIP3   OH240057   1.006   4.076   0.755 -0.5816 -0.7882  0.4480
 6141TIP3    H140058   0.965   4.158   0.728 -0.0289 -0.6114  0.1513
 6141TIP3    H240059   1.075   4.060   0.691 -0.1247 -1.0429  0.9937
 6142TIP3   OH240060   4.543   6.438   1.255 -0.4663 -0.5220 -0.1413
 6142TIP3    H140061   4.614   6.468   1.312 -1.3024 -0.5176  0.9056
 6142TIP3    H240062   4.575   6.354   1.220  0.4663 -0.0478 -0.4747
 6143TIP3   OH240063   5.259   3.439   6.671 -0.6535 -0.2407 -0.0814
 6143TIP3    H140064   5.243   3.357   6.718 -0.0807 -0.3631 -0.0931
 6143TIP3    H240065   5.196   3.500   6.707 -1.5263 -0.8583 -0.5287
 6144TIP3   OH240066   4.272   1.412   2.300  0.1072  0.6242 -0.0074
 6144TIP3    H140067   4.189   1.370   2.322  0.4238 -0.7604 -1.3047
 6144TIP3    H240068   4.338   1.362   2.348  0.5600 -0.9541 -2.1119
 6145TIP3   OH240069   3.189   6.781   1.617  0.2369  0.1610 -0.1143
 6145TIP3    H140070   3.281   6.755   1.611  0.3235  0.0051  1.6029
 6145TIP3    H240071   3.191   6.876   1.628  0.0268  0.6232 -3.0726
 6146TIP3   OH240072   0.952   4.936   7.731 -0.6884  0.3522 -0.2976
 6146TIP3    H140073   0.959   4.917   7.637  0.7587  1.2610 -0.4068
 6146TIP3    H240074   1.006   5.014   7.744 -1.9827  1.0724  1.0706
 6147TIP3   OH240075   1.427   1.670   1.835  0.2827 -0.1057  0.3011
 6147TIP3    H140076   1.422   1.736   1.904 -0.4715  0.9100 -0.6936
 6147TIP3    H240077   1.449   1.589   1.881  0.6351  0.7120  1.6216
 6148TIP3   OH240078   1.314   4.573   2.329 -0.1654 -0.3321 -0.0782
 6148TIP3    H140079   1.239   4.514   2.328  0.3182 -0.9408 -0.6123
 6148TIP3    H240080   1.389   4.517   2.346  0.1856  0.2635  0.3830
 6149TIP3   OH240081   5.578   5.140   1.704 -1.0689 -0.7372 -0.9898
 6149TIP3    H140082   5.589   5.197   1.780 -2.7730 -1.3897 -0.2024
 6149TIP3    H240083   5.656   5.084   1.705 -1.0343 -0.6952  0.2371
 6150TIP3   OH240084   3.547   4.518   8.529  0.1448  0.8495  0.7121
 6150TIP3    H140085   3.481   4.451   8.546 -1.1437  1.6974 -0.7246
 6150TIP3    H240086   3.631   4.475   8.547 -0.6804 -0.9555  0.4121
 6151TIP3   OH240087   5.246   1.950   0.782  0.0276  0.0176  0.0574
 6151TIP3    H140088   5.189   1.960   0.705 -1.5100  1.3885  1.2941
 6151TIP3    H240089   5.200   1.887   0.837  1.7151 -1.8820 -0.5863
 6152TIP3   OH240090   2.422   1.134   8.799  0.1004 -0.6394 -0.1691
 6152TIP3    H140091   2.369   1.077   8.744 -1.4388 -1.2891  1.8579
 6152TIP3    H240092   2.375   1.217   8.800 -0.4747 -0.9591  0.9671
 6153TIP3   OH240093   5.622   4.193   7.848  0.2320 -0.2151 -0.0966
 6153TIP3    H140094   5.674   4.194   7.929  0.7298  3.2552 -0.3139
 6153TIP3    H240095   5.685   4.215   7.779 -0.6612 -0.7042 -1.0976
 6154TIP3   OH240096   4.224   2.878   8.371 -0.7089  0.4671  0.4286
 6154TIP3    H140097   4.169   2.915   8.441  0.3456  2.6206  0.2005
 6154TIP3    H240098   4.301   2.934   8.369 -0.5523  0.2761 -2.2456
 6155TIP3   OH240099   0.259   3.010   1.199  0.1309 -0.4145  0.1334
 6155TIP3    H140100   0.256   3.072   1.126  0.3627 -2.0343 -1.3162
 6155TIP3    H240101   0.346   3.023   1.238  0.5521 -0.4740 -0.7619
 6156TIP3   OH240102   2.440   5.183   8.799 -0.1392 -0.1857 -0.1299
 6156TIP3    H140103   2.467   5.099   8.761  0.4614 -0.8291  1.5902
 6156TIP3    H240104   2.357   5.164   8.842  0.2951 -0.0670  0.7784
 6157TIP3   OH240105   2.786   5.681   1.002  0.2034  0.2958  0.5803
 6157TIP3    H140106   2.691   5.682   0.989  0.3486  0.5538 -0.5153
 6157TIP3    H240107   2.823   5.697   0.915  1.2243  2.9639  1.3948
 6158TIP3   OH240108   6.406   2.066   7.427  0.2242 -0.0226 -0.2148
 6158TIP3    H140109   6.442   2.151   7.452 -0.8399  0.3925 -0.0252
 6158TIP3    H240110   6.361   2.035   7.506  0.5013 -0.6986 -0.3230
 6159TIP3   OH240111   0.050   4.133   0.869  0.0661 -0.0347 -0.4871
 6159TIP3    H140112   0.002   4.193   0.925 -0.7053 -0.5794 -0.5535
 6159TIP3    H240113   0.025   4.159   0.780  0.7573  0.3876 -0.5653
 6160TIP3   OH240114   1.972   6.239   8.065  0.5260 -0.4943  0.2283
 6160TIP3    H140115   2.054   6.232   8.115  0.4161  0.0420  0.4923
 6160TIP3    H240116   1.942   6.328   8.081  1.0590  0.0869 -1.6856
 6161TIP3   OH240117   1.699   3.789   0.195  0.2120  0.4016  0.2706
 6161TIP3    H140118   1.692   3.722   0.263 -2.1470  0.1032 -0.1669
 6161TIP3    H240119   1.705   3.740   0.113  1.9747  0.7599  0.1633
 6162TIP3   OH240120   4.004   0.920   7.827 -0.0427 -0.0980  0.3203
 6162TIP3    H140121   3.980   0.910   7.919  0.3021  2.7654  0.8325
 6162TIP3    H240122   4.097   0.900   7.824  0.2597  1.1261  0.9161
 6163TIP3   OH240123   1.122   2.916   7.212 -0.4287  0.1962 -0.1193
 6163TIP3    H140124   1.165   2.861   7.276  1.4391  0.3307 -1.1867
 6163TIP3    H240125   1.194   2.959   7.164 -1.5950 -1.2458 -3.4861
 6164TIP3   OH240126   5.657   5.371   0.125  0.1523  0.9886  0.3124
 6164TIP3    H140127   5.668   5.285   0.085 -0.4439  0.2924  1.5956
 6164TIP3    H240128   5.743   5.394   0.160 -0.4150 -0.8036  3.2277
 6165TIP3   OH240129   2.803   6.271   0.471 -0.0363 -0.0474  0.4542
 6165TIP3    H140130   2.738   6.342   0.469  1.1017  1.0315  0.5106
 6165TIP3    H240131   2.776   6.212   0.400 -1.1722  0.2718  0.5965
 6166TIP3   OH240132   6.453   3.350   2.436  0.3655  0.4095 -0.3420
 6166TIP3    H140133   6.444   3.256   2.417  0.8447  0.0601  1.0605
 6166TIP3    H240134   6.547   3.365   2.442  0.2748  0.5690  1.2405
 6167TIP3   OH240135   6.591   6.701   7.610  0.3897  0.1242 -0.8857
 6167TIP3    H140136   6.509   6.751   7.611 -0.3181 -0.9993 -1.5524
 6167TIP3    H240137   6.626   6.711   7.699 -0.8844 -0.0520 -0.3455
 6168TIP3   OH240138   4.860   6.328   1.351  0.0198  0.1216 -0.0161
 6168TIP3    H140139   4.850   6.413   1.394 -1.7068 -0.4246  0.7144
 6168TIP3    H240140   4.885   6.269   1.421 -0.6568 -0.3532 -0.1766
 6169TIP3   OH240141   6.518   3.625   0.675  0.5671  0.4922  0.4358
 6169TIP3    H140142   6.528   3.596   0.584  0.1068  0.4880  0.3856
 6169TIP3    H240143   6.445   3.574   0.709 -0.0843  1.4070  0.4244
 6170TIP3   OH240144   0.582   2.759   2.223 -0.0136 -0.7656  0.1177
 6170TIP3    H140145   0.557   2.667   2.216 -0.9319 -0.4496 -1.0697
 6170TIP3    H240146   0.534   2.802   2.153  1.6743  0.3514 -0.4164
 6171TIP3   OH240147   4.245   2.776   1.411 -0.1771 -0.0443  0.2785
 6171TIP3    H140148   4.198   2.848   1.368  0.1044 -0.4335 -0.6839
 6171TIP3    H240149   4.307   2.820   1.469 -0.9448  0.4762  0.7370
 6172TIP3   OH240150   4.156   4.469   1.471  0.1010 -0.1449 -0.0872
 6172TIP3    H140151   4.248   4.449   1.489  0.1907 -0.0604 -0.4345
 6172TIP3    H240152   4.107   4.417   1.534  0.3929 -0.0548  0.2189
 6173TIP3   OH240153   5.947   0.654   7.919 -0.3454 -0.8128  0.0514
 6173TIP3    H140154   5.898   0.734   7.934  1.6075  0.1371  1.8464
 6173TIP3    H240155   5.939   0.605   8.001  0.0813 -1.5465 -0.3290
 6174TIP3   OH240156   5.428   2.665   0.471 -0.0717  0.0483  0.0332
 6174TIP3    H140157   5.485   2.742   0.476  1.0476 -0.7941  0.6784
 6174TIP3    H240158   5.407   2.657   0.378  0.9730  0.3065 -0.2377
 6175TIP3   OH240159   6.300   3.091   0.635 -0.0567  0.3506  0.1095
 6175TIP3    H140160   6.369   3.060   0.576  0.7632  1.0438  0.6822
 6175TIP3    H240161   6.315   3.042   0.716 -1.9946 -1.6061 -0.5985
 6176TIP3   OH240162   0.673   5.751   0.247  0.1311  0.2316  0.6171
 6176TIP3    H140163   0.590   5.789   0.218  0.2439 -0.8958 -1.3921
 6176TIP3    H240164   0.650   5.693   0.319 -0.9776 -0.6261 -0.3899
 6177TIP3   OH240165   2.949   5.887   1.096 -0.2840 -0.0378  0.2821
 6177TIP3    H140166   2.931   5.794   1.086  0.3350 -0.0314 -1.0797
 6177TIP3    H240167   2.945   5.922   1.007 -2.2587  1.5816  0.9299
 6178TIP3   OH240168   0.786   0.060   7.381  0.4918 -0.5402 -0.1215
 6178TIP3    H140169   0.838   0.135   7.410  0.4345 -0.6153  0.1711
 6178TIP3    H240170   0.830  -0.016   7.417 -0.1193 -0.5715  0.5882
 6179TIP3   OH240171   1.423   0.991   8.802  0.2523  0.8114  0.2944
 6179TIP3    H140172   1.508   0.964   8.838  0.4945  0.1175 -0.7498
 6179TIP3    H240173   1.368   0.913   8.809  0.9517 -0.0797 -2.7250
 6180TIP3   OH240174   3.771   6.267   2.028  0.6034  0.0000 -0.3891
 6180TIP3    H140175   3.705   6.286   2.094  0.3931  0.9982 -0.8739
 6180TIP3    H240176   3.724   6.273   1.944  1.2021  0.2787 -0.7122
 6181TIP3   OH240177   0.727   4.954   0.378  0.2667  0.2016 -0.0014
 6181TIP3    H140178   0.746   4.861   0.366 -1.1911  0.1188 -2.2251
 6181TIP3    H240179   0.795   4.999   0.328  0.7179  0.3360  0.7186
 6182TIP3   OH240180   4.707   6.130   0.528  0.5901 -0.2739  0.3022
 6182TIP3    H140181   4.685   6.171   0.612 -0.9038 -1.0831  0.3371
 6182TIP3    H240182   4.660   6.047   0.529  0.1280 -0.0742 -1.5572
 6183TIP3   OH240183   1.265   5.451   1.006  0.4431  0.2541 -0.3935
 6183TIP3    H140184   1.277   5.507   0.929 -1.6614  1.3144 -0.0149
 6183TIP3    H240185   1.177   5.415   0.996  0.2875  0.1017  1.3147
 6184TIP3   OH240186   4.817   5.638   8.161 -0.3344 -0.2131  0.0192
 6184TIP3    H140187   4.880   5.613   8.093  1.0912 -1.7886  1.7911
 6184TIP3    H240188   4.870   5.683   8.227 -1.3987 -0.0164  0.7604
 6185TIP3   OH240189   3.502   2.672   1.370  0.5500 -0.7067  0.2263
 6185TIP3    H140190   3.581   2.716   1.401  1.5029 -1.9906 -0.2567
 6185TIP3    H240191   3.430   2.712   1.419  1.2651  1.7575 -0.6074
 6186TIP3   OH240192   6.560   3.849   6.807  0.5992  0.1430 -0.2054
 6186TIP3    H140193   6.519   3.856   6.721  0.3829 -2.8916 -0.4528
 6186TIP3    H240194   6.654   3.841   6.788  0.7076  0.8713 -0.0259
 6187TIP3   OH240195   1.784   2.468   0.473  0.6293  0.1050  0.5910
 6187TIP3    H140196   1.804   2.431   0.387  2.2469  1.6857  0.2233
 6187TIP3    H240197   1.704   2.519   0.460  0.1390 -0.7059  0.3629
 6188TIP3   OH240198   1.599   6.669   8.059 -0.3994 -0.2343  0.4552
 6188TIP3    H140199   1.607   6.613   7.982 -0.3619  0.4408 -0.0472
 6188TIP3    H240200   1.649   6.748   8.036 -0.1719 -0.1348  1.2755
 6189TIP3   OH240201   6.188   0.625   2.665  0.0461  0.6243  0.1638
 6189TIP3    H140202   6.186   0.538   2.625 -0.0196 -0.7363  2.9282
 6189TIP3    H240203   6.276   0.658   2.645 -0.3266  0.4970 -1.9283
 6190TIP3   OH240204   6.519   2.375   6.197 -0.8972  0.1053 -0.6776
 6190TIP3    H140205   6.589   2.310   6.187  0.7593  1.7164 -0.2026
 6190TIP3    H240206   6.488   2.362   6.287 -0.4067  0.1139 -0.5029
 6191TIP3   OH240207   2.096   1.254   1.324 -0.4796  0.1761  0.1101
 6191TIP3    H140208   2.100   1.162   1.300 -0.5712  0.3290 -0.5263
 6191TIP3    H240209   2.180   1.272   1.367  1.5731  0.8125 -3.6281
 6192TIP3   OH240210   1.971   5.984   5.889  0.0231  0.6248  0.4121
 6192TIP3    H140211   2.011   5.897   5.894 -1.2650 -0.0906 -0.9751
 6192TIP3    H240212   2.031   6.034   5.833 -0.2219  0.0064 -0.4284
 6193TIP3   OH240213   0.680   2.688   6.614 -0.6367 -0.3713  0.2686
 6193TIP3    H140214   0.723   2.617   6.662  0.0581 -0.0957  0.0629
 6193TIP3    H240215   0.605   2.646   6.572  0.2699 -1.1941 -0.5784
 6194TIP3   OH240216   3.620   0.308   0.047 -0.1778 -0.2521 -0.1656
 6194TIP3    H140217   3.608   0.366   0.122 -0.6898  0.3913 -0.7331
 6194TIP3    H240218   3.689   0.350  -0.004  0.1912 -0.7064 -0.0525
 6195TIP3   OH240219   2.915   0.454   2.083 -0.1656 -0.1545  0.1263
 6195TIP3    H140220   2.965   0.536   2.073 -2.0344  1.1861  1.1214
 6195TIP3    H240221   2.886   0.433   1.994 -1.6316  1.6531  0.0937
 6196TIP3   OH240222   3.597   3.673   6.469  0.0461 -0.0547 -0.4836
 6196TIP3    H140223   3.687   3.699   6.487  0.2439 -1.8535  1.5175
 6196TIP3    H240224   3.605   3.602   6.405  0.0825 -0.2904 -0.2218
 6197TIP3   OH240225   1.047   2.866   0.780 -0.5058  0.2463  0.3889
 6197TIP3    H140226   1.120   2.826   0.829  1.5755  0.4352 -2.3500
 6197TIP3    H240227   1.003   2.793   0.738 -0.7533  0.3083  0.5345
 6198TIP3   OH240228   4.658   1.249   1.595  1.0009 -0.1906 -0.1392
 6198TIP3    H140229   4.598   1.176   1.578  0.8432  0.0181 -0.4729
 6198TIP3    H240230   4.744   1.207   1.603  1.1092 -0.2923 -1.5918
 6199TIP3   OH240231   3.015   6.400   8.203 -0.1045 -0.1128 -0.3147
 6199TIP3    H140232   2.986   6.322   8.250  1.9953 -1.7397 -1.5504
 6199TIP3    H240233   3.084   6.437   8.258 -2.6250  2.4227  1.4759
 6200TIP3   OH240234   1.755   4.216   2.140 -0.5307 -0.2021  0.4918
 6200TIP3    H140235   1.843   4.183   2.159 -0.0567  1.5841  1.6127
 6200TIP3    H240236   1.700   4.138   2.139  0.7175 -1.1402  1.8610
 6201TIP3   OH240237   0.712   0.342   7.625  0.2993 -0.1803  0.1467
 6201TIP3    H140238   0.617   0.342   7.638  0.1706 -0.0224 -0.7256
 6201TIP3    H240239   0.743   0.420   7.671 -0.1511  0.4322 -0.5643
 6202TIP3   OH240240   2.432   5.431   2.033  0.6319 -0.1375 -0.2540
 6202TIP3    H140241   2.411   5.486   1.957 -0.2710 -0.2959 -0.1294
 6202TIP3    H240242   2.367   5.455   2.098  0.5704 -0.9685 -0.0015
 6203TIP3   OH240243   2.564   5.980   2.278  0.6365 -0.3182 -0.0102
 6203TIP3    H140244   2.588   5.891   2.305  0.1223  0.2659  2.5615
 6203TIP3    H240245   2.472   5.973   2.251  0.8077 -0.6932 -0.5066
 6204TIP3   OH240246   0.708   4.083   8.363 -0.0616  0.1013  0.2611
 6204TIP3    H140247   0.665   4.154   8.315 -1.0866 -0.5134  0.2354
 6204TIP3    H240248   0.724   4.016   8.297 -2.2740 -1.1153  0.8592
 6205TIP3   OH240249   4.186   1.355   8.579  0.8071  0.1733 -0.1956
 6205TIP3    H140250   4.228   1.361   8.493  0.3566  2.7037 -0.3158
 6205TIP3    H240251   4.251   1.391   8.640  0.3773  0.2518  0.2250
 6206TIP3   OH240252   2.369   1.077   7.114 -0.0885 -0.0976  0.0683
 6206TIP3    H140253   2.422   1.059   7.037  0.9142 -1.9796  1.1103
 6206TIP3    H240254   2.432   1.101   7.182 -0.7442 -0.4335  0.8178
 6207TIP3   OH240255   5.195   3.285   7.797 -0.3152  0.4284  0.4512
 6207TIP3    H140256   5.128   3.352   7.780 -1.3070 -0.5611  0.3150
 6207TIP3    H240257   5.178   3.217   7.732 -0.2230 -0.5849  1.4528
 6208TIP3   OH240258   2.728   2.336   0.845  0.3831  0.1547  0.1359
 6208TIP3    H140259   2.815   2.324   0.884  1.3903  0.6382 -1.8281
 6208TIP3    H240260   2.681   2.255   0.865  1.7323 -0.6581  0.1384
 6209TIP3   OH240261   0.555   2.536   7.609  0.3437  0.2326 -0.0169
 6209TIP3    H140262   0.620   2.549   7.678  0.6161 -0.6309 -0.0974
 6209TIP3    H240263   0.554   2.442   7.595  0.8384  0.4436 -1.7117
 6210TIP3   OH240264   3.060   4.150   8.647 -0.8654 -0.8317 -0.2643
 6210TIP3    H140265   3.009   4.110   8.577 -2.2037 -2.4031  1.4933
 6210TIP3    H240266   3.135   4.091   8.660  1.9077  1.6859 -3.1296
 6211TIP3   OH240267   4.633   0.595   6.831 -0.7500  0.0053  0.4351
 6211TIP3    H140268   4.584   0.534   6.775  1.2639 -0.4335 -0.9571
 6211TIP3    H240269   4.617   0.681   6.793 -0.5681 -0.1081  0.1056
 6212TIP3   OH240270   3.002   0.033   0.952  0.1477  0.0551 -0.6455
 6212TIP3    H140271   3.074   0.040   0.889 -0.1626  1.2296 -0.8752
 6212TIP3    H240272   3.045   0.005   1.033  0.8662  0.6984 -0.7929
 6213TIP3   OH240273   6.185   5.903   6.826 -0.2935  0.4581 -0.3888
 6213TIP3    H140274   6.169   5.972   6.761  0.6367 -0.2152 -1.3827
 6213TIP3    H240275   6.279   5.884   6.817  0.3144  1.6418  2.4922
 6214TIP3   OH240276   0.736   2.397   7.445 -0.2016  0.1510 -0.2329
 6214TIP3    H140277   0.754   2.335   7.516  0.2337  0.4615 -0.0672
 6214TIP3    H240278   0.750   2.347   7.365  0.3741  0.0977 -0.1021
 6215TIP3   OH240279   5.964   1.100   1.382  0.0189  0.5251  0.0114
 6215TIP3    H140280   5.946   1.021   1.432  0.4844 -0.9001 -1.9301
 6215TIP3    H240281   6.051   1.127   1.411  0.5195 -0.5947 -0.3619
 6216TIP3   OH240282   4.017   6.787   8.792 -0.4436  0.3721 -0.0640
 6216TIP3    H140283   4.078   6.750   8.855 -0.0768 -1.0769 -1.2175
 6216TIP3    H240284   3.956   6.716   8.773 -1.2733  1.1589 -0.4576
 6217TIP3   OH240285   0.122   0.886   7.926  0.2035 -0.5090  0.7724
 6217TIP3    H140286   0.144   0.922   8.012  2.9743 -2.1566  0.8732
 6217TIP3    H240287   0.110   0.792   7.942 -2.1797 -0.4581 -0.2399
 6218TIP3   OH240288   0.042   2.492   7.232 -0.5509  0.0992 -0.4588
 6218TIP3    H140289   0.120   2.546   7.225  1.0805 -1.7847  1.8669
 6218TIP3    H240290  -0.030   2.555   7.241  0.7404  1.8613 -1.7838
 6219TIP3   OH240291   4.406   0.654   0.335  0.5084 -0.2740  0.0708
 6219TIP3    H140292   4.330   0.710   0.352  0.9999  0.4952 -0.2113
 6219TIP3    H240293   4.406   0.592   0.408 -0.8955 -0.8568 -0.4007
 6220TIP3   OH240294   5.055   1.393   8.729  0.4908 -0.1876  0.0736
 6220TIP3    H140295   4.965   1.371   8.753  0.9010 -0.8355  1.0584
 6220TIP3    H240296   5.057   1.488   8.727 -0.2327 -0.1692 -0.0424
 6221TIP3   OH240297   6.221   4.806   0.282  0.2443 -0.3580 -0.5137
 6221TIP3    H140298   6.162   4.743   0.241  0.5276 -0.2294 -1.1393
 6221TIP3    H240299   6.164   4.879   0.308 -0.4039 -1.6599  1.9821
 6222TIP3   OH240300   2.556   5.750   7.775  0.0931 -0.4771  0.1599
 6222TIP3    H140301   2.480   5.808   7.775  0.7285  0.3573  0.3408
 6222TIP3    H240302   2.541   5.691   7.701 -0.4048  0.1053 -0.2079
 6223TIP3   OH240303   4.149   3.509   1.839 -0.2532 -0.3259 -0.1734
 6223TIP3    H140304   4.233   3.536   1.876 -0.3715  1.2530 -0.9671
 6223TIP3    H240305   4.166   3.500   1.745 -0.7973 -0.7688 -0.2336
 6224TIP3   OH240306   1.244   4.162   6.193 -0.2683  0.1206 -0.4252
 6224TIP3    H140307   1.158   4.121   6.207  0.0873 -1.4649 -2.4703
 6224TIP3    H240308   1.306   4.092   6.211  0.5176  0.7111 -0.8226
 6225TIP3   OH240309   1.727   1.957   0.758  0.2576  0.1940  0.3851
 6225TIP3    H140310   1.738   2.038   0.710  0.0246 -0.6757 -1.1938
 6225TIP3    H240311   1.809   1.909   0.745 -0.3859 -0.7080 -0.4651
 6226TIP3   OH240312   2.351   6.172   6.969  0.0569 -0.5187  0.7376
 6226TIP3    H140313   2.340   6.182   6.874 -0.7909  0.6953  0.9408
 6226TIP3    H240314   2.263   6.185   7.004  0.1905 -1.8696  1.6424
 6227TIP3   OH240315   5.085   5.343   7.951  0.1033  0.3329 -0.3216
 6227TIP3    H140316   5.026   5.289   8.004  1.0641  2.9972  4.0270
 6227TIP3    H240317   5.030   5.413   7.917 -0.2169 -0.4767 -1.5292
 6228TIP3   OH240318   4.656   4.385   8.475 -1.3472 -0.0229 -0.2424
 6228TIP3    H140319   4.735   4.412   8.523 -0.3925  0.5032 -1.9946
 6228TIP3    H240320   4.617   4.468   8.446 -0.7304 -0.3465 -2.1083
 6229TIP3   OH240321   2.300   1.466   2.361 -0.7039 -0.6441 -0.5186
 6229TIP3    H140322   2.327   1.491   2.272 -1.9717  0.5015 -0.6135
 6229TIP3    H240323   2.382   1.460   2.410 -0.1086  0.5812 -1.3089
 6230TIP3   OH240324   1.326   3.604   1.240  0.4299 -0.0483 -0.2790
 6230TIP3    H140325   1.263   3.654   1.188  1.8953  2.6321  0.3532
 6230TIP3    H240326   1.314   3.638   1.329  0.4651 -1.9508  0.4850
 6231TIP3   OH240327   3.378   1.423   0.005 -0.3847 -0.0288  0.4586
 6231TIP3    H140328   3.297   1.420   0.056 -1.6203  0.6393 -1.3337
 6231TIP3    H240329   3.418   1.337   0.017 -2.1604 -0.9294  0.1984
 6232TIP3   OH240330   1.180   3.012   0.398  0.0137  0.3700  0.2580
 6232TIP3    H140331   1.132   3.026   0.316 -1.3106 -0.7217  0.8114
 6232TIP3    H240332   1.270   3.040   0.378 -0.5829  1.4430 -1.1385
 6233TIP3   OH240333   5.191   3.412   2.463  0.8926  0.4570  0.3137
 6233TIP3    H140334   5.245   3.413   2.542  2.0174  3.1848 -0.3688
 6233TIP3    H240335   5.254   3.424   2.391 -0.4175  1.8024 -0.6604
 6234TIP3   OH240336   2.300   0.139   1.301  0.3878 -0.2283 -0.0825
 6234TIP3    H140337   2.226   0.115   1.244 -0.5399 -0.4831  1.1791
 6234TIP3    H240338   2.294   0.234   1.309 -1.0781 -0.4091  1.6138
 6235TIP3   OH240339   6.038   5.119   7.483  0.0226 -0.2485 -0.4673
 6235TIP3    H140340   6.129   5.113   7.455  0.4687 -1.8559  1.0929
 6235TIP3    H240341   6.017   5.212   7.480  2.0952  0.2956  0.2088
 6236TIP3   OH240342   5.390   2.469   8.287 -0.5981  0.8005 -0.7291
 6236TIP3    H140343   5.429   2.456   8.200 -0.6489 -1.5656 -0.4594
 6236TIP3    H240344   5.298   2.490   8.268 -0.7643 -0.3188 -1.2829
 6237TIP3   OH240345   0.186   6.441   8.008 -0.4518  0.2129  0.2492
 6237TIP3    H140346   0.262   6.444   7.950 -1.3617  0.2898 -0.9645
 6237TIP3    H240347   0.134   6.367   7.978 -0.8547  0.1371  1.0856
 6238TIP3   OH240348   6.088   5.307   8.824 -0.2433  0.3566 -0.0809
 6238TIP3    H140349   6.146   5.279   8.896 -1.0007  0.5968  0.6344
 6238TIP3    H240350   6.014   5.246   8.828 -0.8791  1.1330  0.1236
 6239TIP3   OH240351   5.962   6.022   6.414 -0.1695 -0.0627  0.1889
 6239TIP3    H140352   6.009   6.020   6.331  0.9279  0.2314  0.7781
 6239TIP3    H240353   5.951   6.116   6.433 -1.2564 -0.1259 -0.0745
 6240TIP3   OH240354   4.307   4.294   0.419 -0.1941 -0.2069  0.3696
 6240TIP3    H140355   4.275   4.278   0.508 -1.6208 -0.1139 -0.0967
 6240TIP3    H240356   4.272   4.380   0.396  0.0070 -0.3124 -0.3527
 6241TIP3   OH240357   3.096   3.082   6.236  0.1120 -0.0527  0.0716
 6241TIP3    H140358   3.189   3.066   6.217 -0.0827  0.1832 -1.1204
 6241TIP3    H240359   3.097   3.129   6.320  1.1179  0.6845 -0.3318
 6242TIP3   OH240360   4.252   1.719   1.506  0.0783  0.8037 -0.0504
 6242TIP3    H140361   4.257   1.785   1.437 -0.3340 -0.8483 -1.7278
 6242TIP3    H240362   4.328   1.736   1.561  1.6298  0.9015 -2.1180
 6243TIP3   OH240363   6.194   1.068   1.069  0.0233  0.0590 -0.0803
 6243TIP3    H140364   6.112   1.117   1.072  0.4425  0.7564  0.1351
 6243TIP3    H240365   6.210   1.043   1.160  0.7375  1.0995  0.0987
 6244TIP3   OH240366   5.741   0.030   1.406  0.6397 -0.1665  0.4420
 6244TIP3    H140367   5.811   0.040   1.471  1.0025  0.7820 -0.0767
 6244TIP3    H240368   5.677   0.097   1.429  0.4156 -0.3117  0.2513
 6245TIP3   OH240369   2.893   5.907   1.617 -0.3412  0.4029 -0.0971
 6245TIP3    H140370   2.874   5.995   1.586 -0.4567 -0.2620 -2.0019
 6245TIP3    H240371   2.851   5.849   1.554 -0.0736 -1.0335  0.9880
 6246TIP3   OH240372   6.649   4.721   1.104  0.1328  0.0380  0.0509
 6246TIP3    H140373   6.558   4.741   1.127  0.2027  0.2497  0.1432
 6246TIP3    H240374   6.694   4.805   1.109  0.2964 -0.0364 -0.1771
 6247TIP3   OH240375   2.700   4.125   8.796 -0.0407 -0.2797 -0.2530
 6247TIP3    H140376   2.720   4.032   8.811  2.0109  0.2913  0.9376
 6247TIP3    H240377   2.622   4.124   8.741 -0.1484 -2.7085 -0.1686
 6248TIP3   OH240378   5.990   0.167   8.203  0.1413 -0.2100 -0.1771
 6248TIP3    H140379   6.085   0.173   8.191  0.2473  1.2918  1.1836
 6248TIP3    H240380   5.954   0.219   8.131  0.4341  0.7818  0.3740
 6249TIP3   OH240381   2.284   0.297   0.685  0.0457 -0.1211 -0.0555
 6249TIP3    H140382   2.320   0.334   0.765  0.0141  1.2237 -0.6432
 6249TIP3    H240383   2.191   0.317   0.689  0.3968  2.1481 -1.5226
 6250TIP3   OH240384   4.692   6.379   7.335 -0.0945 -0.0921 -0.0907
 6250TIP3    H140385   4.650   6.352   7.417  2.0905  0.0931  1.1648
 6250TIP3    H240386   4.621   6.415   7.283 -2.0408 -2.5571  0.6390
 6251TIP3   OH240387   5.675   4.940   6.492  0.3570 -0.1045  0.0760
 6251TIP3    H140388   5.768   4.923   6.477  0.8648  2.1241  0.4199
 6251TIP3    H240389   5.668   5.035   6.503 -1.8125 -0.2986  1.1016
 6252TIP3   OH240390   6.715   2.355   1.646  0.2562 -0.0650  0.1658
 6252TIP3    H140391   6.678   2.367   1.733 -0.1956  0.6544 -0.1163
 6252TIP3    H240392   6.639   2.336   1.590  0.2958  1.3698 -0.4118
 6253TIP3   OH240393   4.123   5.879   0.489  0.4474 -0.0970 -0.2272
 6253TIP3    H140394   4.192   5.938   0.520  0.7679  0.8956 -2.6193
 6253TIP3    H240395   4.045   5.934   0.487  0.2978 -0.3249 -0.5805
 6254TIP3   OH240396   3.688   5.889   1.995  0.5413 -0.3105 -0.1335
 6254TIP3    H140397   3.646   5.853   1.917  0.4290  0.1403 -0.2841
 6254TIP3    H240398   3.753   5.951   1.961 -0.3520  0.8204  0.1360
 6255TIP3   OH240399   4.114   2.840   0.817 -0.2164  0.0031 -0.0445
 6255TIP3    H140400   4.034   2.876   0.778  0.0196  0.4584 -0.1102
 6255TIP3    H240401   4.083   2.792   0.893 -0.6141 -0.3196 -0.4019
 6256TIP3   OH240402   5.127   5.259   1.848  0.9366 -0.5292 -0.0292
 6256TIP3    H140403   5.067   5.195   1.887  1.2465 -0.6824  0.1995
 6256TIP3    H240404   5.088   5.279   1.763  1.1866 -1.5525 -0.4080
 6257TIP3   OH240405   5.954   5.743   7.423  0.1625  0.0032  0.0755
 6257TIP3    H140406   5.979   5.833   7.445 -3.0536  1.0087  0.2735
 6257TIP3    H240407   5.912   5.751   7.337 -1.1268 -1.0766  0.5671
 6258TIP3   OH240408   3.811   2.445   8.132 -0.3899 -0.2875  0.8493
 6258TIP3    H140409   3.745   2.471   8.196 -1.5715 -0.0456 -0.4095
 6258TIP3    H240410   3.839   2.528   8.093  2.3736 -0.1251  2.8800
 6259TIP3   OH240411   5.888   2.663   0.949  0.1860 -0.0927  0.0332
 6259TIP3    H140412   5.872   2.601   1.020 -1.0991  3.2643  2.9506
 6259TIP3    H240413   5.811   2.655   0.892 -0.3822 -0.5282  0.8489
 6260TIP3   OH240414   4.328   5.119   1.491 -0.3990  0.2048 -0.1510
 6260TIP3    H140415   4.302   5.118   1.399 -0.4144 -1.5308 -0.1651
 6260TIP3    H240416   4.405   5.061   1.494 -1.6451 -1.4792  1.2258
 6261TIP3   OH240417   4.467   2.937   8.231  0.2726  0.3533  0.2183
 6261TIP3    H140418   4.542   2.883   8.208  0.5506  1.3207 -1.3550
 6261TIP3    H240419   4.394   2.901   8.180  0.2716  0.9447 -0.2109
 6262TIP3   OH240420   2.222   4.216   7.706 -0.1318 -0.2674 -0.0745
 6262TIP3    H140421   2.147   4.276   7.708 -0.4292 -0.6257 -0.1874
 6262TIP3    H240422   2.209   4.165   7.626 -0.7313 -1.5349  0.8024
 6263TIP3   OH240423   3.762   3.989   7.552  0.6317  0.0234  0.2779
 6263TIP3    H140424   3.821   4.065   7.549 -0.3968  0.8158 -1.8869
 6263TIP3    H240425   3.819   3.914   7.536  1.5056  0.4047  1.4492
 6264TIP3   OH240426   3.287   0.988   1.225 -0.1614 -0.4057  0.1473
 6264TIP3    H140427   3.209   0.951   1.265 -0.2509  0.3095  0.6472
 6264TIP3    H240428   3.292   1.077   1.260  1.1826 -0.6203  0.5451
 6265TIP3   OH240429   2.880   2.257   1.736  0.9897  0.1970  0.2721
 6265TIP3    H140430   2.939   2.248   1.810  0.8301  1.0479  0.5166
 6265TIP3    H240431   2.881   2.171   1.693  0.0538 -0.7459  2.0207
 6266TIP3   OH240432   5.748   3.570   6.752  0.1034 -0.2377 -0.0937
 6266TIP3    H140433   5.767   3.591   6.660 -1.9376  1.6328 -0.1697
 6266TIP3    H240434   5.689   3.495   6.748  1.7210 -1.5534 -0.1637
 6267TIP3   OH240435   5.766   6.257   6.835  0.0599 -0.1898 -0.4888
 6267TIP3    H140436   5.729   6.345   6.823 -0.0056 -0.1337  0.0898
 6267TIP3    H240437   5.744   6.234   6.926  1.4040 -0.1695 -0.1462
 6268TIP3   OH240438   0.352   6.788   1.534  0.3194  0.0758  0.1058
 6268TIP3    H140439   0.293   6.736   1.480  0.3459  0.8053 -0.6510
 6268TIP3    H240440   0.311   6.790   1.620  0.1799 -0.9418  0.0690
 6269TIP3   OH240441   1.481   6.638   8.547  0.5921 -0.1312  0.6855
 6269TIP3    H140442   1.518   6.700   8.610  0.8239 -0.6054  1.0256
 6269TIP3    H240443   1.402   6.604   8.591  0.8938 -0.6524  0.8337
 6270TIP3   OH240444   5.609   2.645   1.470  0.0444  0.3905  0.2075
 6270TIP3    H140445   5.559   2.564   1.484 -0.2790  0.4909 -0.3344
 6270TIP3    H240446   5.701   2.617   1.471  0.0328  0.3082  1.8976
 6271TIP3   OH240447   0.284   0.268   2.096  0.1455  0.1396  0.6683
 6271TIP3    H140448   0.324   0.321   2.165  1.3493 -0.0454  0.1324
 6271TIP3    H240449   0.310   0.178   2.115  0.2668  0.0546  0.1238
 6272TIP3   OH240450   4.044   5.932   8.505  0.2763 -0.4971  0.3358
 6272TIP3    H140451   4.056   5.854   8.560  2.1313 -0.4655  0.0394
 6272TIP3    H240452   3.955   5.960   8.523  0.3653 -1.2976  2.2886
 6273TIP3   OH240453   5.448   6.492   7.297 -0.0232 -0.5499  0.1286
 6273TIP3    H140454   5.375   6.544   7.333  0.8649  1.0195 -0.2194
 6273TIP3    H240455   5.408   6.442   7.225 -0.5187  1.5276 -1.1409
 6274TIP3   OH240456   6.658   5.658   8.265 -0.1979  0.6085  0.0059
 6274TIP3    H140457   6.728   5.676   8.202  1.2000 -1.4267  0.8699
 6274TIP3    H240458   6.579   5.653   8.212  0.5067  1.6359 -1.1967
 6275TIP3   OH240459   6.441   2.616   0.722 -0.0059  0.2422  0.4569
 6275TIP3    H140460   6.409   2.528   0.737  1.2910 -0.2818  0.2732
 6275TIP3    H240461   6.536   2.609   0.730  0.1152  1.6319  0.5037
 6276TIP3   OH240462   5.532   4.149   6.985  0.3706 -0.4154 -0.1653
 6276TIP3    H140463   5.571   4.078   6.933  2.3196  1.1007 -0.9245
 6276TIP3    H240464   5.607   4.194   7.023 -0.8713  0.6269  1.1516
 6277TIP3   OH240465   2.759   2.758   0.263 -0.6491 -0.6272 -0.2271
 6277TIP3    H140466   2.725   2.733   0.348  0.1999  2.1233  1.0561
 6277TIP3    H240467   2.728   2.848   0.249  2.0087  0.2861 -1.1451
 6278TIP3   OH240468   4.809   3.600   8.679 -0.1021  0.4391  0.9264
 6278TIP3    H140469   4.787   3.596   8.772  0.9583  1.8947  1.2724
 6278TIP3    H240470   4.729   3.630   8.636 -0.2500  0.9045  1.5224
 6279TIP3   OH240471   4.545   4.949   1.486 -0.0135 -0.1944 -0.1426
 6279TIP3    H140472   4.615   4.907   1.536 -0.4201 -2.2385 -1.1943
 6279TIP3    H240473   4.589   4.987   1.410 -0.0223 -1.7683 -0.9784
 6280TIP3   OH240474   6.496   1.470   1.273 -0.2655 -0.2243  0.6087
 6280TIP3    H140475   6.440   1.443   1.200 -0.3332 -1.2645  1.0270
 6280TIP3    H240476   6.576   1.500   1.231 -0.3340 -0.7309  0.0956
 6281TIP3   OH240477   0.632   1.533   7.879  0.0170  0.2278 -0.4002
 6281TIP3    H140478   0.572   1.574   7.817 -0.3345 -1.3497 -1.1485
 6281TIP3    H240479   0.704   1.500   7.824 -1.1576 -2.7900 -0.2918
 6282TIP3   OH240480   4.326   5.180   1.205  0.1462 -0.3142  0.3413
 6282TIP3    H140481   4.251   5.151   1.153  0.5015 -1.4516  0.4382
 6282TIP3    H240482   4.400   5.178   1.144  0.3715 -0.6854  0.6166
 6283TIP3   OH240483   4.377   1.049   8.252 -0.5429 -0.4415 -0.0618
 6283TIP3    H140484   4.401   1.092   8.334  0.6160 -0.5477 -0.3246
 6283TIP3    H240485   4.454   1.060   8.196 -1.2859 -0.4255 -1.1188
 6284TIP3   OH240486   2.831   0.744   1.644  0.0545 -0.0070 -0.0655
 6284TIP3    H140487   2.912   0.712   1.605  0.2002 -2.5826  2.1295
 6284TIP3    H240488   2.859   0.800   1.717 -0.1494 -0.3210  0.2551
 6285TIP3   OH240489   0.282   0.031   0.221 -0.0647 -0.0046 -0.6903
 6285TIP3    H140490   0.266  -0.050   0.268  2.5303  0.0775  0.5018
 6285TIP3    H240491   0.343   0.080   0.276 -0.0106  1.8780 -2.2961
 6286TIP3   OH240492   1.231   4.663   1.167 -0.2566 -0.2147  0.6008
 6286TIP3    H140493   1.298   4.596   1.183 -1.0191 -1.0056  0.5455
 6286TIP3    H240494   1.148   4.616   1.175 -0.7684  0.1378 -1.9314
 6287TIP3   OH240495   2.135   1.187   8.459  0.1971  0.1912 -0.6802
 6287TIP3    H140496   2.075   1.160   8.529  0.4959 -1.0248 -0.8657
 6287TIP3    H240497   2.095   1.265   8.422 -0.3534  0.4260  0.3588
 6288TIP3   OH240498   1.197   6.049   1.837 -0.2812  0.0740 -0.5864
 6288TIP3    H140499   1.112   6.086   1.814 -0.7543  0.7751  1.9756
 6288TIP3    H240500   1.176   5.966   1.879 -0.0968  1.6552  2.9905
 6289TIP3   OH240501   3.208   0.606   8.160  0.2785 -0.0388  0.2880
 6289TIP3    H140502   3.293   0.639   8.190  0.2122  0.0107  0.4227
 6289TIP3    H240503   3.188   0.534   8.220 -0.1665  0.4880  0.7879
 6290TIP3   OH240504   2.286   6.777   0.377  0.1413  0.5373 -0.0907
 6290TIP3    H140505   2.326   6.693   0.397  0.6862  1.0272  0.9666
 6290TIP3    H240506   2.219   6.757   0.311  0.8230 -0.5835 -0.4699
 6291TIP3   OH240507   0.297   6.076   7.783  0.6931 -0.3687 -0.4566
 6291TIP3    H140508   0.329   6.164   7.767  1.6641 -0.6898 -0.3351
 6291TIP3    H240509   0.202   6.085   7.788  0.7222  0.5327 -1.2936
 6292TIP3   OH240510   4.880   2.496   0.144 -0.4016 -0.1780  0.3961
 6292TIP3    H140511   4.790   2.526   0.156 -0.9470 -0.3853 -2.5083
 6292TIP3    H240512   4.875   2.401   0.155 -0.5032 -0.1716  0.4091
 6293TIP3   OH240513   5.670   0.204   0.322 -0.0594  0.2631  0.0598
 6293TIP3    H140514   5.717   0.279   0.357 -0.5391  0.0308  1.2868
 6293TIP3    H240515   5.651   0.226   0.231  0.9554  1.0508  0.0303
 6294TIP3   OH240516   4.858   5.387   0.287  0.0352  0.3005  0.4088
 6294TIP3    H140517   4.869   5.379   0.382 -1.3307 -1.5144  0.4661
 6294TIP3    H240518   4.871   5.480   0.270  0.9877  0.5678  2.2666
 6295TIP3   OH240519   1.778   3.910   1.853 -0.4026  0.4998  0.2710
 6295TIP3    H140520   1.761   3.870   1.938 -0.4904  0.2424  0.1316
 6295TIP3    H240521   1.697   3.955   1.831 -0.8931 -0.6511 -0.3508
 6296TIP3   OH240522   5.367   1.581   0.241  0.1072  0.4216 -0.1835
 6296TIP3    H140523   5.290   1.629   0.271 -1.1850 -1.6983  0.0034
 6296TIP3    H240524   5.410   1.551   0.321  0.8539  1.1122 -0.3056
 6297TIP3   OH240525   2.162   5.199   7.738 -0.4093  0.2158  0.1417
 6297TIP3    H140526   2.190   5.151   7.660 -0.2686 -0.0335  0.3432
 6297TIP3    H240527   2.148   5.289   7.708  0.4089  0.3024 -0.0061
 6298TIP3   OH240528   2.125   1.226   6.301  0.6129  0.5686  0.3856
 6298TIP3    H140529   2.178   1.272   6.366  0.3383 -0.9088  1.7190
 6298TIP3    H240530   2.189   1.182   6.245  0.8322  0.6548  0.5668
 6299TIP3   OH240531   5.984   3.616   1.114 -0.5367 -0.2714 -0.1763
 6299TIP3    H140532   5.981   3.542   1.053  0.3129 -0.2153 -0.3012
 6299TIP3    H240533   5.965   3.577   1.200  0.2268 -0.7038 -0.1923
 6300TIP3   OH240534   2.340   6.712   7.678  0.0606  0.4210  0.2931
 6300TIP3    H140535   2.381   6.781   7.626  0.8742 -0.4767 -0.2857
 6300TIP3    H240536   2.253   6.703   7.642 -0.2223  1.4491  0.6745
 6301TIP3   OH240537   0.931   1.801   8.786  0.2614  0.2047 -0.1024
 6301TIP3    H140538   0.853   1.749   8.807 -1.0677  1.8967 -0.5873
 6301TIP3    H240539   0.957   1.840   8.869  0.3230 -0.0062 -0.0221
 6302TIP3   OH240540   1.747   0.190   1.651 -0.0430 -0.3660  0.1216
 6302TIP3    H140541   1.664   0.177   1.696 -0.4838  1.9075  0.0510
 6302TIP3    H240542   1.772   0.101   1.623 -2.7883 -1.0661 -0.4918
 6303TIP3   OH240543   6.139   1.830   0.686 -0.1526 -0.6484 -0.4152
 6303TIP3    H140544   6.150   1.777   0.607  0.8290 -1.2151  0.0852
 6303TIP3    H240545   6.199   1.903   0.674 -0.4362 -0.4177 -0.4473
 6304TIP3   OH240546   4.954   3.922   1.185  0.3268  0.3241  0.1489
 6304TIP3    H140547   4.989   3.992   1.239  1.0445  0.4582 -0.4719
 6304TIP3    H240548   4.929   3.965   1.103 -0.0919  0.0089  0.1040
 6305TIP3   OH240549   5.593   3.400   0.696  0.0799 -0.2861 -0.4162
 6305TIP3    H140550   5.640   3.474   0.735  0.6579 -0.5075 -0.6761
 6305TIP3    H240551   5.520   3.440   0.650  0.1972  0.0954 -0.2774
 6306TIP3   OH240552   6.740   0.969   0.517 -0.1908  0.1866  0.5566
 6306TIP3    H140553   6.660   1.020   0.505 -0.3768  0.4806  2.7124
 6306TIP3    H240554   6.746   0.955   0.611  1.1025 -1.8142  0.2290
 6307TIP3   OH240555   2.449   3.894   7.904 -0.6118  0.7635  0.0788
 6307TIP3    H140556   2.499   3.836   7.962  0.1764  0.1117 -1.2084
 6307TIP3    H240557   2.503   3.902   7.826 -1.1555  2.5020 -0.1476
 6308TIP3   OH240558   0.310   2.657   7.157  0.3776 -0.0092  0.3176
 6308TIP3    H140559   0.368   2.611   7.218  1.3800  1.1786  0.3005
 6308TIP3    H240560   0.305   2.599   7.081 -2.3153 -2.3959  2.0877
 6309TIP3   OH240561   0.755   6.155   8.610  0.2140 -0.7322 -0.2858
 6309TIP3    H140562   0.849   6.142   8.614  0.3076 -0.0478 -0.1438
 6309TIP3    H240563   0.742   6.216   8.537 -0.0112  0.0798  0.4159
 6310TIP3   OH240564   4.786   4.121   7.106  0.1316  0.2907  0.0248
 6310TIP3    H140565   4.808   4.069   7.029 -0.9591 -1.3730  0.7940
 6310TIP3    H240566   4.697   4.095   7.128  0.8800 -0.3469  2.6512
 6311TIP3   OH240567   4.986   1.275   6.387  0.0745 -0.5455 -0.1902
 6311TIP3    H140568   4.923   1.336   6.427 -0.5631 -2.6669  2.3510
 6311TIP3    H240569   4.932   1.200   6.360  1.2284 -1.4388 -0.0852
 6312TIP3   OH240570   2.721   5.478   1.957  0.0349 -0.3635  0.4533
 6312TIP3    H140571   2.653   5.439   2.012 -0.8000  0.3999 -0.0083
 6312TIP3    H240572   2.772   5.532   2.017  0.9145 -1.7412  1.0057
 6313TIP3   OH240573   4.976   5.860   0.573 -0.7365 -0.0427 -0.4605
 6313TIP3    H140574   5.038   5.864   0.501  1.3147 -3.0178  0.9477
 6313TIP3    H240575   4.926   5.779   0.558  1.0896 -1.8382  2.2897
 6314TIP3   OH240576   4.921   5.112   2.275  0.1725  0.5626  0.2237
 6314TIP3    H140577   4.838   5.159   2.264 -0.4113 -0.6267 -0.7093
 6314TIP3    H240578   4.984   5.179   2.302 -1.1625  1.4275  1.3307
 6315TIP3   OH240579   5.327   3.760   8.553 -0.7323 -0.0711  0.5349
 6315TIP3    H140580   5.406   3.811   8.570 -1.0640  0.7293 -0.2649
 6315TIP3    H240581   5.307   3.718   8.637  1.9685 -2.3836  0.1880
 6316TIP3   OH240582   3.525   4.140   0.889 -0.1068 -0.2319 -0.5284
 6316TIP3    H140583   3.443   4.159   0.844 -0.8273 -0.2954  0.7367
 6316TIP3    H240584   3.563   4.066   0.839  0.2263  1.0931 -2.3578
 6317TIP3   OH240585   3.863   6.814   7.319  0.2012  0.1524 -0.5741
 6317TIP3    H140586   3.951   6.784   7.342  0.2037  0.9265  0.5447
 6317TIP3    H240587   3.870   6.910   7.321 -1.0340  0.2417  1.1503
 6318TIP3   OH240588   1.609   6.171   0.767 -0.4591  1.1880 -0.1430
 6318TIP3    H140589   1.688   6.147   0.816  0.8957 -0.2861 -2.8049
 6318TIP3    H240590   1.538   6.126   0.813  0.6287  0.4225  0.8538
 6319TIP3   OH240591   3.265   2.531   0.222 -0.1159  0.5602  0.3455
 6319TIP3    H140592   3.179   2.569   0.244 -1.1702 -1.1392 -0.6395
 6319TIP3    H240593   3.246   2.440   0.199  1.8350  0.3885 -0.7952
 6320TIP3   OH240594   4.117   3.540   1.149  0.2124  0.1064  0.6488
 6320TIP3    H140595   4.037   3.555   1.200  0.2269 -1.7980  1.3218
 6320TIP3    H240596   4.092   3.473   1.085  1.1044 -0.0136  0.4150
 6321TIP3   OH240597   4.512   3.345   0.455 -0.1192  0.3376 -0.0778
 6321TIP3    H140598   4.485   3.275   0.515 -0.5542 -0.0451 -0.7201
 6321TIP3    H240599   4.536   3.300   0.374 -0.2656  0.9178 -0.4468
 6322TIP3   OH240600   3.930   3.540   7.125  0.1394  0.1335  0.0661
 6322TIP3    H140601   3.857   3.528   7.187 -0.1832 -1.6311 -0.6036
 6322TIP3    H240602   3.899   3.607   7.064 -0.6180 -0.0490  0.2411
 6323TIP3   OH240603   0.133   5.024   1.662  0.3617  0.2481  1.0963
 6323TIP3    H140604   0.217   4.978   1.671  0.5279  0.1248 -0.7487
 6323TIP3    H240605   0.155   5.106   1.619 -0.3234  0.7520  1.6933
 6324TIP3   OH240606   4.302   1.829   8.666  0.4399 -0.0170 -0.1766
 6324TIP3    H140607   4.396   1.815   8.657  0.6861  2.3256 -2.2713
 6324TIP3    H240608   4.268   1.819   8.577 -0.5932  3.0800 -0.2602
 6325TIP3   OH240609   2.071   0.379   8.511  0.3403 -0.3544  0.2458
 6325TIP3    H140610   2.149   0.328   8.534 -0.1797 -1.3724 -0.1819
 6325TIP3    H240611   2.011   0.315   8.474 -1.4522  0.0550  2.2532
 6326TIP3   OH240612   5.276   6.717   6.702 -0.1391 -0.2388 -0.4346
 6326TIP3    H140613   5.204   6.711   6.765  0.8976  0.7948  0.9136
 6326TIP3    H240614   5.305   6.627   6.689 -1.9346 -0.7216 -1.3524
 6327TIP3   OH240615   0.599   0.244   8.826  0.1310 -0.1141 -0.2619
 6327TIP3    H140616   0.618   0.150   8.816  0.9105 -0.0463  0.4091
 6327TIP3    H240617   0.685   0.285   8.832 -0.2048  0.5251  0.4351
 6328TIP3   OH240618   6.170   6.030   6.204 -0.8224 -0.2238  0.4162
 6328TIP3    H140619   6.143   6.022   6.113  1.0930 -1.0164 -0.1237
 6328TIP3    H240620   6.238   6.097   6.203  0.9863 -1.9534  0.7901
 6329TIP3   OH240621   2.982   2.231   6.755  0.4246  0.1594 -0.7128
 6329TIP3    H140622   2.951   2.141   6.749 -1.2768  0.5319  1.4500
 6329TIP3    H240623   2.938   2.276   6.683 -0.5021 -0.2852 -0.4443
 6330TIP3   OH240624   6.548   4.635   7.432 -0.2235 -0.5463 -0.0719
 6330TIP3    H140625   6.553   4.727   7.457 -1.0897 -0.2507 -0.9059
 6330TIP3    H240626   6.636   4.601   7.445  0.4215  0.7158 -0.9272
 6331TIP3   OH240627   2.400   1.110   7.931  0.5598 -0.5849 -0.0579
 6331TIP3    H140628   2.490   1.111   7.899  0.6783 -2.0828  0.1598
 6331TIP3    H240629   2.396   1.036   7.992 -0.0710  1.2229  2.2494
 6332TIP3   OH240630   4.260   5.479   2.275  0.1044 -0.4664  0.0584
 6332TIP3    H140631   4.180   5.531   2.268  0.6578  0.5143  0.6965
 6332TIP3    H240632   4.271   5.440   2.188  1.1074  2.6905 -1.3635
 6333TIP3   OH240633   6.455   3.393   1.791  0.0312 -0.1570  0.5093
 6333TIP3    H140634   6.379   3.336   1.781 -0.6966  0.9508 -0.5953
 6333TIP3    H240635   6.520   3.339   1.835 -0.9551 -1.5299  0.3467
 6334TIP3   OH240636   5.248   5.608   8.687  0.1896 -0.3853 -0.2648
 6334TIP3    H140637   5.166   5.569   8.717  0.0342  0.8829  1.0384
 6334TIP3    H240638   5.220   5.679   8.628  0.2696  0.5631  0.7911
 6335TIP3   OH240639   2.608   6.258   6.764  0.5728  0.1595 -0.3266
 6335TIP3    H140640   2.627   6.179   6.712 -1.0125 -0.7487  0.4255
 6335TIP3    H240641   2.564   6.317   6.703 -1.3927 -0.9505 -0.0602
 6336TIP3   OH240642   1.177   5.002   0.381  0.3927 -0.3462  0.5284
 6336TIP3    H140643   1.240   4.951   0.432 -0.2438  0.2309  1.9392
 6336TIP3    H240644   1.111   4.938   0.355  0.2749 -0.5024  1.1861
 6337TIP3   OH240645   1.781   4.637   0.332 -0.1913 -0.6485 -0.0543
 6337TIP3    H140646   1.815   4.650   0.421 -0.9230 -2.2631  0.4978
 6337TIP3    H240647   1.699   4.589   0.345 -0.6978 -0.2227 -1.5698
 6338TIP3   OH240648   4.896   6.489   6.869  0.5619 -0.6251  0.3489
 6338TIP3    H140649   4.906   6.428   6.796 -1.0640 -0.4538 -0.0461
 6338TIP3    H240650   4.865   6.435   6.942  0.1233 -0.4447  0.2973
 6339TIP3   OH240651   5.802   0.108   1.992  0.2721 -0.3154 -0.3925
 6339TIP3    H140652   5.874   0.131   2.051  1.5002 -0.3844 -1.8051
 6339TIP3    H240653   5.779   0.191   1.949 -0.1109 -0.4001 -0.3533
 6340TIP3   OH240654   3.360   3.049   6.168  0.0595 -0.1546 -0.2257
 6340TIP3    H140655   3.351   3.071   6.075 -0.5895  1.3846  0.1681
 6340TIP3    H240656   3.420   3.114   6.202  0.6621 -0.9980  0.3692
 6341TIP3   OH240657   3.637   3.712   0.731  0.0251 -0.2356 -0.1209
 6341TIP3    H140658   3.555   3.672   0.700 -0.2645 -0.4791  0.9417
 6341TIP3    H240659   3.616   3.805   0.740 -0.3515 -0.3995  0.8074
 6342TIP3   OH240660   2.530   4.406   7.925  0.7620 -0.3804 -0.2831
 6342TIP3    H140661   2.499   4.315   7.930  0.3672 -0.3227 -1.3451
 6342TIP3    H240662   2.598   4.405   7.858  1.6119 -0.1029  0.5583
 6343TIP3   OH240663   6.090   0.738   0.838  0.1189  0.1917 -0.4262
 6343TIP3    H140664   6.068   0.674   0.905  0.3346  2.1904  1.6744
 6343TIP3    H240665   6.168   0.703   0.796  0.4948 -0.7093  0.9559
 6344TIP3   OH240666   0.313   5.172   0.562 -0.0984 -0.9449  0.1836
 6344TIP3    H140667   0.349   5.191   0.475 -3.5687  0.3112 -1.1461
 6344TIP3    H240668   0.302   5.077   0.562  0.2927 -1.0028 -0.5896
 6345TIP3   OH240669   0.001   2.189   8.667  0.0650 -0.7399 -0.5166
 6345TIP3    H140670  -0.028   2.117   8.723 -1.3110 -1.0308 -1.5532
 6345TIP3    H240671  -0.063   2.259   8.682 -1.6340 -1.5674 -3.2256
 6346TIP3   OH240672   2.881   3.935   7.044  0.2684  1.1396 -0.4756
 6346TIP3    H140673   2.928   4.015   7.070  1.5396  0.3429 -0.2478
 6346TIP3    H240674   2.910   3.917   6.955 -0.0585  0.9462 -0.5465
 6347TIP3   OH240675   6.148   6.144   0.324  0.3071 -0.2311 -0.4646
 6347TIP3    H140676   6.058   6.121   0.349  0.0128  1.4663  0.1859
 6347TIP3    H240677   6.199   6.134   0.405  0.1065  1.5682 -0.0730
 6348TIP3   OH240678   3.977   5.216   0.817  0.2857 -0.2204  0.5619
 6348TIP3    H140679   3.979   5.303   0.858  2.9344  0.2031 -0.3116
 6348TIP3    H240680   4.058   5.173   0.846  0.9357 -0.9072 -2.0235
 6349TIP3   OH240681   1.686   0.198   7.256  0.1974  0.1868  0.1625
 6349TIP3    H140682   1.756   0.138   7.281  0.4363  0.6609  0.6740
 6349TIP3    H240683   1.605   0.150   7.274  0.3809 -0.6156 -1.0722
 6350TIP3   OH240684   1.949   6.415   1.657  0.5522  0.2770 -0.0102
 6350TIP3    H140685   2.042   6.393   1.656  0.5197  0.1285 -1.3449
 6350TIP3    H240686   1.918   6.384   1.742  1.3902 -1.0788 -0.1817
 6351TIP3   OH240687   1.568   5.455   6.505 -0.0911  0.0399 -0.0492
 6351TIP3    H140688   1.501   5.389   6.488  1.5277 -1.7094  0.0233
 6351TIP3    H240689   1.615   5.463   6.422 -0.8977  1.9216 -0.3700
 6352TIP3   OH240690   5.554   0.229   7.474  0.0678  0.0735 -0.4189
 6352TIP3    H140691   5.629   0.221   7.415  0.1958  0.1712 -0.2708
 6352TIP3    H240692   5.478   0.209   7.419  0.3740 -3.0299  0.1142
 6353TIP3   OH240693   5.823   1.294   7.440 -0.2154 -0.8395 -0.4481
 6353TIP3    H140694   5.804   1.350   7.514  0.4282  0.3860 -1.1822
 6353TIP3    H240695   5.919   1.283   7.442 -0.2919 -1.6284 -0.5256
 6354TIP3   OH240696   3.586   2.162   8.017  0.2919  0.9200  0.6279
 6354TIP3    H140697   3.567   2.137   7.927 -1.7462 -0.5493  1.3806
 6354TIP3    H240698   3.556   2.253   8.024 -1.6275  0.3682  0.3119
 6355TIP3   OH240699   5.900   1.040   6.607  0.2140  0.0901 -0.2942
 6355TIP3    H140700   5.993   1.022   6.621  0.3253  0.6578 -0.2838
 6355TIP3    H240701   5.869   0.966   6.554  0.5660 -0.3301  0.0746
 6356TIP3   OH240702   3.800   6.676   7.025 -0.4179 -0.2306 -0.0553
 6356TIP3    H140703   3.756   6.669   7.110 -0.2153 -0.1790  0.0546
 6356TIP3    H240704   3.800   6.769   7.005  0.9721 -0.0497  0.6601
 6357TIP3   OH240705   6.147   4.564   7.062  0.7044  0.3636  0.2113
 6357TIP3    H140706   6.224   4.612   7.093  0.5053 -0.7224  2.6069
 6357TIP3    H240707   6.080   4.631   7.051  0.4202  0.7622  3.5103
 6358TIP3   OH240708   0.669   0.370   0.216 -0.3484 -0.5608 -0.1862
 6358TIP3    H140709   0.713   0.381   0.132  0.6673  0.2352  0.4188
 6358TIP3    H240710   0.708   0.291   0.253  0.4882  0.0453  0.2711
 6359TIP3   OH240711   0.422   0.182   0.463 -0.5513  0.1284 -0.5005
 6359TIP3    H140712   0.332   0.150   0.472 -0.2572 -0.4904  0.3487
 6359TIP3    H240713   0.444   0.214   0.550  0.5750 -1.1317 -0.2916
 6360TIP3   OH240714   2.634   0.360   6.595  0.5776 -0.2397  0.3038
 6360TIP3    H140715   2.604   0.316   6.516  0.2796 -0.3482  0.4758
 6360TIP3    H240716   2.567   0.340   6.661  0.6624  0.1039  0.4997
 6361TIP3   OH240717   6.649   3.944   0.918 -0.0894 -0.3072 -0.1123
 6361TIP3    H140718   6.730   3.992   0.904 -0.2291  0.0763  0.3546
 6361TIP3    H240719   6.660   3.862   0.870  1.1126 -0.8440  1.0348
 6362TIP3   OH240720   4.841   1.583   8.268  0.0913  0.5734 -0.5066
 6362TIP3    H140721   4.868   1.647   8.334  2.8478 -1.1634  0.1905
 6362TIP3    H240722   4.885   1.611   8.188  1.0123 -0.2116 -0.2871
 6363TIP3   OH240723   4.091   2.682   8.131  0.4547 -1.5422 -0.2588
 6363TIP3    H140724   4.022   2.683   8.064  0.8399  1.5578 -0.7502
 6363TIP3    H240725   4.044   2.675   8.214 -0.6392  1.0754 -0.5491
 6364TIP3   OH240726   2.146   1.971   8.607  0.3401 -0.8309 -0.3744
 6364TIP3    H140727   2.218   1.911   8.623 -0.6092 -1.2216  3.4134
 6364TIP3    H240728   2.071   1.932   8.652 -1.2203  1.4886 -0.7501
 6365TIP3   OH240729   5.615   5.362   2.206 -0.1505  0.0127  0.2333
 6365TIP3    H140730   5.698   5.400   2.176 -1.2172  2.2745 -0.0575
 6365TIP3    H240731   5.569   5.339   2.125  0.1232 -1.1558  0.3928
 6366TIP3   OH240732   4.531   3.750   1.368  0.2975  0.4186  0.1519
 6366TIP3    H140733   4.488   3.734   1.452  0.4333 -0.4823  0.0533
 6366TIP3    H240734   4.542   3.664   1.329  2.4474  0.5661  0.3008
 6367TIP3   OH240735   5.468   4.561   8.519  0.1691 -0.4896 -0.2821
 6367TIP3    H140736   5.422   4.477   8.531 -1.7866  0.6244  0.4286
 6367TIP3    H240737   5.533   4.562   8.588 -0.8629 -0.7776  0.7321
 6368TIP3   OH240738   4.660   5.102   0.244  0.2852  0.4059 -0.2531
 6368TIP3    H140739   4.724   5.117   0.313 -0.7829  1.5045  0.5612
 6368TIP3    H240740   4.580   5.076   0.291 -0.2578  0.4696 -1.1187
 6369TIP3   OH240741   0.497   3.587   7.611  0.2047 -0.1036 -0.6314
 6369TIP3    H140742   0.463   3.578   7.699  0.4162 -0.3943 -0.5775
 6369TIP3    H240743   0.568   3.523   7.606 -0.1920 -0.5062 -1.1998
 6370TIP3   OH240744   3.226   2.566   1.490 -0.0060  0.1077  0.5170
 6370TIP3    H140745   3.245   2.515   1.569  0.2624 -0.2110  0.2499
 6370TIP3    H240746   3.205   2.500   1.424 -1.2095  0.4101  0.5715
 6371TIP3   OH240747   1.364   0.485   8.168  0.6622 -0.1388  0.1861
 6371TIP3    H140748   1.387   0.397   8.198  0.3178 -0.9593 -1.8141
 6371TIP3    H240749   1.397   0.490   8.079  0.0784  1.5381  0.0197
 6372TIP3   OH240750   2.608   3.781   0.174  0.3300  0.3880 -1.0846
 6372TIP3    H140751   2.513   3.795   0.169  0.2719  0.4382 -0.1203
 6372TIP3    H240752   2.636   3.775   0.083 -0.8663 -1.4082 -1.3899
 6373TIP3   OH240753   2.008   2.780   2.099  0.0405  0.0745 -0.0986
 6373TIP3    H140754   1.956   2.703   2.121  0.7618 -0.1966  0.6766
 6373TIP3    H240755   2.031   2.819   2.183  0.4358  0.6333 -0.4553
 6374TIP3   OH240756   1.210   0.168   8.050  0.4087 -0.1300  0.4363
 6374TIP3    H140757   1.234   0.093   7.995  1.5301 -0.6178  1.5360
 6374TIP3    H240758   1.116   0.159   8.064  0.1460 -0.1288 -1.1781
 6375TIP3   OH240759   6.721   1.760   7.184 -0.4898  0.3489 -0.5226
 6375TIP3    H140760   6.642   1.813   7.192 -1.3960 -0.7384 -1.8470
 6375TIP3    H240761   6.732   1.747   7.090 -1.4163 -3.3441 -0.2660
 6376TIP3   OH240762   5.064   1.847   1.024 -0.1177 -0.7628  0.1592
 6376TIP3    H140763   5.056   1.934   1.065  1.9665 -0.1881 -0.4943
 6376TIP3    H240764   5.110   1.795   1.089  1.5332 -0.3888 -0.6579
 6377TIP3   OH240765   5.446   4.552   2.096  0.4892  0.2082  0.1286
 6377TIP3    H140766   5.513   4.497   2.135  1.1560 -0.0273 -1.2974
 6377TIP3    H240767   5.494   4.623   2.053 -0.2944  1.2443  0.9109
 6378TIP3   OH240768   1.018   3.909   6.137 -0.2620  0.1770 -0.4016
 6378TIP3    H140769   1.030   3.815   6.153  0.7924  0.5751  1.4955
 6378TIP3    H240770   1.008   3.946   6.225 -1.0601  1.8020 -1.1494
 6379TIP3   OH240771   0.657   2.021   7.443 -0.1699 -0.1732 -0.0664
 6379TIP3    H140772   0.611   2.029   7.526 -2.0919 -1.4839 -0.9193
 6379TIP3    H240773   0.592   1.981   7.384  0.9496  1.2112 -2.3457
 6380TIP3   OH240774   1.133   3.142   1.344 -0.0418  0.4708  0.3760
 6380TIP3    H140775   1.088   3.061   1.321  1.2600 -0.0706 -0.3586
 6380TIP3    H240776   1.145   3.138   1.439 -2.9918  1.4234  0.8891
 6381TIP3   OH240777   6.245   4.802   7.626 -0.2375  0.0038  0.3942
 6381TIP3    H140778   6.227   4.717   7.586  2.1625  0.4022 -1.8633
 6381TIP3    H240779   6.217   4.866   7.560 -0.2954  0.9035  1.2599
 6382TIP3   OH240780   0.865   4.021   8.760  0.8124  0.2364 -0.6306
 6382TIP3    H140781   0.884   4.108   8.726  0.0862  0.0376 -1.5925
 6382TIP3    H240782   0.791   3.990   8.707  0.6447 -0.7049  0.1244
 6383TIP3   OH240783   2.009   3.889   0.153 -0.5018  0.1103 -0.3354
 6383TIP3    H140784   2.091   3.935   0.169  0.3769 -1.3307 -0.5017
 6383TIP3    H240785   1.986   3.911   0.063 -1.5624  2.3579  0.4168
 6384TIP3   OH240786   4.048   4.953   1.351 -0.1712 -0.7670 -0.0027
 6384TIP3    H140787   3.972   4.927   1.299 -0.4187 -0.8914  0.4184
 6384TIP3    H240788   4.095   4.872   1.369 -0.0857 -0.7244 -0.0329
 6385TIP3   OH240789   4.919   0.277   0.724  0.4672  0.0829  0.2997
 6385TIP3    H140790   4.834   0.321   0.728 -0.0986 -0.6879 -1.8593
 6385TIP3    H240791   4.982   0.347   0.705 -0.0411  0.3524 -0.4514
 6386TIP3   OH240792   2.817   2.008   6.703 -0.2437  0.4062  0.2215
 6386TIP3    H140793   2.741   2.020   6.759  0.3773 -0.8864  1.4105
 6386TIP3    H240794   2.808   1.919   6.669  0.7369  0.2262  0.3979
 6387TIP3   OH240795   1.781   2.502   7.153 -0.1678  0.1472 -0.0382
 6387TIP3    H140796   1.830   2.577   7.186 -0.7240 -0.1074  1.4510
 6387TIP3    H240797   1.816   2.487   7.066  1.3175  0.9100  0.3952
 6388TIP3   OH240798   3.927   4.070   0.108 -0.6604  0.4976  0.8588
 6388TIP3    H140799   3.938   4.155   0.152 -0.7792 -0.1017  2.0690
 6388TIP3    H240800   3.962   4.006   0.170  0.9649 -0.2171 -0.7182
 6389TIP3   OH240801   0.922   3.992   7.791 -0.1412 -0.1377 -0.6125
 6389TIP3    H140802   0.855   4.049   7.754 -0.9618 -0.1085  0.8548
 6389TIP3    H240803   0.900   3.905   7.756 -2.2703 -0.5273  1.4473
 6390TIP3   OH240804   3.268   6.324   2.321 -0.6194  0.6663  0.1165
 6390TIP3    H140805   3.231   6.367   2.398 -0.8534 -1.2611  1.1392
 6390TIP3    H240806   3.236   6.234   2.326  1.5293 -0.2140 -0.7472
 6391TIP3   OH240807   4.056   3.196   0.748  0.4354  0.0598  0.6760
 6391TIP3    H140808   3.983   3.206   0.686  0.7117 -0.1411  0.3152
 6391TIP3    H240809   4.024   3.133   0.813 -0.6901  1.9085  2.0097
 6392TIP3   OH240810   5.322   2.308   7.742  0.0316  0.0378 -0.1960
 6392TIP3    H140811   5.354   2.223   7.711 -0.4484 -0.5213  0.7621
 6392TIP3    H240812   5.247   2.328   7.687 -0.1679 -0.4238 -0.0981
 6393TIP3   OH240813   0.469   0.652   7.603  0.6663 -0.6014 -0.6398
 6393TIP3    H140814   0.433   0.734   7.636 -0.5832 -1.3766 -0.0018
 6393TIP3    H240815   0.556   0.675   7.571 -0.7736  1.6426 -3.4828
 6394TIP3   OH240816   0.877   6.669   7.858 -0.0327 -0.7093  0.1808
 6394TIP3    H140817   0.913   6.625   7.935 -2.3510 -1.3865  0.9743
 6394TIP3    H240818   0.786   6.688   7.882 -0.7922 -0.8229 -2.3272
 6395TIP3   OH240819   1.990   2.580   1.151  0.5631 -0.0214 -0.1829
 6395TIP3    H140820   1.956   2.579   1.240 -0.4036  1.8934 -0.4681
 6395TIP3    H240821   1.954   2.501   1.111  1.2829 -1.0818  1.1897
 6396TIP3   OH240822   6.164   4.616   7.435  0.5727 -0.5173 -0.0960
 6396TIP3    H140823   6.231   4.639   7.372  0.6478  1.4974  0.6395
 6396TIP3    H240824   6.081   4.633   7.390  0.6261  1.7385  0.5453
 6397TIP3   OH240825   3.795   5.631   2.059 -0.2397 -0.0006 -0.2223
 6397TIP3    H140826   3.750   5.710   2.086 -0.2557 -0.8247  2.3837
 6397TIP3    H240827   3.726   5.575   2.023 -0.3529  0.7936 -1.2956
 6398TIP3   OH240828   3.727   0.655   0.876 -0.0179  0.3456  0.6257
 6398TIP3    H140829   3.799   0.718   0.874 -0.3035  0.6901 -1.1602
 6398TIP3    H240830   3.680   0.674   0.957  1.8603  0.1225  1.8165
 6399TIP3   OH240831   6.477   1.017   0.170 -0.2050 -0.0965  0.0618
 6399TIP3    H140832   6.434   1.088   0.217 -0.3775 -1.3681  1.9208
 6399TIP3    H240833   6.433   0.938   0.201  1.3930 -1.1794 -0.3393
 6400TIP3   OH240834   2.506   6.079   6.524 -0.0310 -0.1380 -0.2847
 6400TIP3    H140835   2.594   6.047   6.545 -0.5908 -1.9578 -0.5437
 6400TIP3    H240836   2.517   6.122   6.439  0.9839  1.5820  0.6476
 6401TIP3   OH240837   3.733   2.814   1.453 -0.3209  0.9500 -0.0967
 6401TIP3    H140838   3.805   2.755   1.475 -1.4654  0.0558  1.4471
 6401TIP3    H240839   3.770   2.901   1.459  1.2504  0.4729 -1.8117
 6402TIP3   OH240840   6.498   3.933   1.979  0.0243 -0.0781 -0.2322
 6402TIP3    H140841   6.574   3.954   2.034  0.2216 -0.4147 -0.3715
 6402TIP3    H240842   6.432   3.904   2.042 -0.2313  0.8862 -0.0469
 6403TIP3   OH240843   0.721   4.391   0.260 -0.0179  0.4868  0.4266
 6403TIP3    H140844   0.793   4.453   0.259  1.7207 -1.3843 -1.7060
 6403TIP3    H240845   0.763   4.305   0.253 -2.4102 -0.7885  0.5532
 6404TIP3   OH240846   3.850   6.237   1.662  0.0502  0.0773  0.1057
 6404TIP3    H140847   3.939   6.273   1.659 -0.2635  0.8064 -1.9621
 6404TIP3    H240848   3.810   6.266   1.580 -0.9599 -3.2120 -0.7280
 6405TIP3   OH240849   3.645   0.607   8.859  0.5933  0.4092 -0.2600
 6405TIP3    H140850   3.582   0.609   8.787 -0.7076  1.5793  0.8453
 6405TIP3    H240851   3.724   0.570   8.821 -0.4794 -0.2667 -1.9339
 6406TIP3   OH240852   3.682   2.244   0.867  0.3301  0.1245  0.1230
 6406TIP3    H140853   3.659   2.312   0.803  2.9938 -0.1657 -1.2792
 6406TIP3    H240854   3.744   2.286   0.926  0.9223 -0.6945  0.0995
 6407TIP3   OH240855   0.312   0.068   7.375  0.4264 -0.5429  0.6208
 6407TIP3    H140856   0.301   0.159   7.404  0.8586 -0.3549  0.2164
 6407TIP3    H240857   0.223   0.037   7.360  0.2576 -0.2919  1.0769
 6408TIP3   OH240858   5.540   3.844   0.617 -0.8829  0.2070 -0.2701
 6408TIP3    H140859   5.499   3.855   0.532 -2.6869 -1.4455  0.2986
 6408TIP3    H240860   5.469   3.813   0.674  0.5091  0.1622  1.5442
 6409TIP3   OH240861   5.156   4.128   8.029  0.1580  0.4326 -0.4201
 6409TIP3    H140862   5.118   4.064   8.089 -2.1226  0.8064 -1.3684
 6409TIP3    H240863   5.203   4.075   7.965  1.9858 -0.0010  1.1776
 6410TIP3   OH240864   2.943   5.584   1.527 -0.1784 -0.6805 -0.8146
 6410TIP3    H140865   2.987   5.504   1.497 -1.0717 -0.7167 -2.1247
 6410TIP3    H240866   2.919   5.629   1.446  0.1578  0.8425 -0.0905
 6411TIP3   OH240867   2.595   0.068   7.962 -0.0263  0.6584  0.1738
 6411TIP3    H140868   2.543   0.147   7.978 -1.1440  0.4945 -2.2265
 6411TIP3    H240869   2.634   0.083   7.876 -1.7981 -2.1071 -1.2530
 6412TIP3   OH240870   3.965   0.611   2.541  0.2310 -0.1886  0.0670
 6412TIP3    H140871   3.928   0.526   2.564  0.4873  0.4165  3.1438
 6412TIP3    H240872   4.056   0.607   2.573  0.3108  1.1504  0.0638
 6413TIP3   OH240873   3.328   0.661   1.583  0.7424  0.1424  0.0937
 6413TIP3    H140874   3.341   0.731   1.519  1.6975 -0.4587 -0.4036
 6413TIP3    H240875   3.323   0.706   1.667  0.3570  0.8779 -0.3094
 6414TIP3   OH240876   2.613   3.399   2.260  0.0569  0.4977 -0.1463
 6414TIP3    H140877   2.569   3.481   2.284 -0.2433  0.2713  0.0704
 6414TIP3    H240878   2.590   3.387   2.168  0.8077  1.1034 -0.4317
 6415TIP3   OH240879   3.322   3.991   8.219  0.4879  0.1828  0.0602
 6415TIP3    H140880   3.412   3.965   8.239  0.0548 -1.0299  0.4672
 6415TIP3    H240881   3.295   4.044   8.294 -0.1807 -2.0494  1.4719
 6416TIP3   OH240882   4.999   0.921   0.063  0.3918  0.2581 -0.3438
 6416TIP3    H140883   4.933   0.906  -0.004  0.4420  2.2498 -0.9065
 6416TIP3    H240884   4.951   0.917   0.145 -0.0477 -0.2364 -0.6195
 6417TIP3   OH240885   2.188   5.418   8.604  0.1256 -0.0971  0.2918
 6417TIP3    H140886   2.266   5.459   8.640 -1.4245  3.9932 -0.4614
 6417TIP3    H240887   2.137   5.490   8.568 -3.3073 -2.7126 -0.6872
 6418TIP3   OH240888   2.048   1.539   2.453 -0.4748  0.1016 -0.0502
 6418TIP3    H140889   2.129   1.497   2.424  0.2153  0.4339  1.3298
 6418TIP3    H240890   2.072   1.630   2.466 -1.4463  0.5151 -0.9802
 6419TIP3   OH240891   1.746   3.476   0.988 -0.9816  0.3665  0.2350
 6419TIP3    H140892   1.732   3.548   1.050  0.4633  0.3348  0.6383
 6419TIP3    H240893   1.672   3.418   1.002 -2.2373  1.8069 -0.1682
 6420TIP3   OH240894   6.726   0.808   1.576 -0.1717  0.4766 -0.0055
 6420TIP3    H140895   6.729   0.800   1.672 -1.9172  0.6654  0.0914
 6420TIP3    H240896   6.772   0.730   1.544  0.6843  0.5531  0.9659
 6421TIP3   OH240897   6.662   0.069   1.553 -0.1625  0.0720 -0.7318
 6421TIP3    H140898   6.696   0.159   1.553  1.7809 -0.5939  0.9215
 6421TIP3    H240899   6.700   0.029   1.475  0.7461  0.1077 -0.3236
 6422TIP3   OH240900   4.368   0.805   0.912  0.2720 -0.2036 -0.0075
 6422TIP3    H140901   4.290   0.835   0.959  0.5226 -0.5447  0.6291
 6422TIP3    H240902   4.414   0.750   0.975 -0.0655 -1.7526 -1.0595
 6423TIP3   OH240903   1.245   1.411   0.888 -0.1993  0.2225  0.1139
 6423TIP3    H140904   1.200   1.433   0.806  0.0371  0.3912  0.0298
 6423TIP3    H240905   1.200   1.332   0.919  1.3673 -1.4004 -1.5040
 6424TIP3   OH240906   2.468   2.416   8.012  0.1337  0.2498  0.1104
 6424TIP3    H140907   2.476   2.508   8.036 -0.1418  0.9147 -2.1090
 6424TIP3    H240908   2.523   2.407   7.934  1.4120 -1.8650  1.1394
 6425TIP3   OH240909   2.762   3.881   8.120  0.1473  0.0084  0.5408
 6425TIP3    H140910   2.854   3.903   8.136 -0.1866  1.4647  0.5698
 6425TIP3    H240911   2.717   3.965   8.118 -1.0640 -0.6320 -0.3273
 6426TIP3   OH240912   6.084   6.811   1.310  0.0684 -0.0123  0.3086
 6426TIP3    H140913   6.123   6.743   1.255  1.0406 -0.2377  1.2274
 6426TIP3    H240914   5.991   6.789   1.313  0.2183 -0.7442 -0.1931
 6427TIP3   OH240915   1.937   4.880   7.750  0.8715  0.2762  0.3842
 6427TIP3    H140916   1.979   4.806   7.706 -0.4738  0.2222 -0.8860
 6427TIP3    H240917   1.920   4.943   7.680 -0.3798  0.6467  0.9937
 6428TIP3   OH240918   1.574   2.413   0.753 -0.1680  0.0596  0.0601
 6428TIP3    H140919   1.529   2.345   0.704 -1.1675  1.1854 -0.6495
 6428TIP3    H240920   1.605   2.370   0.832 -1.2573 -1.0788 -0.1060
 6429TIP3   OH240921   3.666   1.460   0.954  0.4890 -0.3177  0.2580
 6429TIP3    H140922   3.680   1.495   1.042 -0.1752 -0.1289  0.2941
 6429TIP3    H240923   3.740   1.400   0.940  0.2986 -0.7778  1.1623
 6430TIP3   OH240924   3.119   1.689   7.890  0.4097 -0.3375 -0.0453
 6430TIP3    H140925   3.130   1.728   7.977  1.4837  1.5391 -0.9504
 6430TIP3    H240926   3.105   1.596   7.907 -3.6859  0.4199  2.3663
 6431TIP3   OH240927   6.798   2.385   1.363  0.0413  0.4840 -0.3356
 6431TIP3    H140928   6.740   2.362   1.291 -0.9973 -2.1241  1.1511
 6431TIP3    H240929   6.882   2.344   1.341  0.0367  0.5977 -0.5575
 6432TIP3   OH240930   4.216   5.159   8.475 -0.1093 -0.1944  0.4982
 6432TIP3    H140931   4.305   5.124   8.480 -0.6007 -1.4882  0.7747
 6432TIP3    H240932   4.175   5.134   8.558 -1.2858 -1.3019 -0.3653
 6433TIP3   OH240933   3.161   0.357   8.558 -0.1305 -0.2436  0.3768
 6433TIP3    H140934   3.124   0.360   8.646  1.7273 -0.1277  1.2117
 6433TIP3    H240935   3.115   0.285   8.514 -0.7635 -0.6023  1.5932
 6434TIP3   OH240936   6.426   4.422   0.106 -0.5688  0.0918 -0.8469
 6434TIP3    H140937   6.521   4.407   0.111 -0.3604  1.6982  2.1884
 6434TIP3    H240938   6.387   4.341   0.139 -0.3892 -1.0070 -3.1469
 6435TIP3   OH240939   5.701   5.491   1.740  0.2099 -0.6820  0.1497
 6435TIP3    H140940   5.794   5.502   1.721  0.0793  2.3221  0.8982
 6435TIP3    H240941   5.657   5.520   1.660 -0.1577 -2.1978 -0.2458
 6436TIP3   OH240942   6.228   5.834   1.573  0.2835 -0.2352 -0.6143
 6436TIP3    H140943   6.213   5.826   1.479 -1.0197 -2.4015 -0.2851
 6436TIP3    H240944   6.321   5.855   1.581  0.7130 -1.2775 -2.3608
 6437TIP3   OH240945   6.121   3.430   1.723 -0.2338  0.5583  0.4762
 6437TIP3    H140946   6.149   3.346   1.759  0.2068  0.8029  0.7091
 6437TIP3    H240947   6.029   3.417   1.699  0.1832 -0.3806 -0.6864
 6438TIP3   OH240948   1.540   5.628   8.588  0.4119 -0.8576  0.7154
 6438TIP3    H140949   1.580   5.598   8.506  0.6540 -1.1876  0.9471
 6438TIP3    H240950   1.461   5.674   8.561 -0.5523 -2.6047  0.3851
 6439TIP3   OH240951   2.605   3.924   0.858  0.2330 -0.2991 -0.1371
 6439TIP3    H140952   2.678   3.883   0.811  1.3084  0.6903  0.6135
 6439TIP3    H240953   2.638   4.011   0.882 -1.1834  0.1498  0.2704
 6440TIP3   OH240954   5.933   0.835   8.576 -0.1467  0.3942 -0.0405
 6440TIP3    H140955   5.999   0.856   8.643  0.7295  2.0162 -1.3308
 6440TIP3    H240956   5.851   0.828   8.624  0.4731  1.4376  1.2364
 6441TIP3   OH240957   2.273   5.844   8.282  0.0590 -0.2751 -0.2125
 6441TIP3    H140958   2.316   5.788   8.217 -0.2117 -1.0970  0.3012
 6441TIP3    H240959   2.346   5.880   8.333  0.1897 -2.8835  1.6598
 6442TIP3   OH240960   1.264   6.246   6.607 -0.7679  0.0982 -0.0069
 6442TIP3    H140961   1.300   6.160   6.588 -1.5166 -0.3146  0.4130
 6442TIP3    H240962   1.336   6.307   6.589  0.4848 -0.7701  1.8530
 6443TIP3   OH240963   0.258   1.402   6.924 -0.1585  0.0468 -0.0199
 6443TIP3    H140964   0.197   1.475   6.931  0.1395  0.1704  1.8213
 6443TIP3    H240965   0.233   1.357   6.843 -0.7816  1.7742 -0.8176
 6444TIP3   OH240966   5.945   4.385   8.028 -0.1881  0.3509 -0.1174
 6444TIP3    H140967   5.865   4.438   8.032 -0.3050  0.1916 -0.3025
 6444TIP3    H240968   5.966   4.381   7.935 -1.2546 -1.5002 -0.3406
 6445TIP3   OH240969   6.243   1.169   7.989  0.0010 -0.1228  0.4591
 6445TIP3    H140970   6.327   1.214   7.999 -0.4894  1.1177 -0.6809
 6445TIP3    H240971   6.219   1.183   7.897 -2.3189  1.1710  1.1723
 6446TIP3   OH240972   4.420   1.379   7.499  0.2554  0.1006 -0.0043
 6446TIP3    H140973   4.393   1.287   7.498  0.4496  0.0332 -1.7246
 6446TIP3    H240974   4.361   1.422   7.437 -0.2468  1.2782  1.2524
 6447TIP3   OH240975   2.183   2.849   6.977 -0.2105 -0.1440 -0.2837
 6447TIP3    H140976   2.159   2.863   6.886 -0.5963 -1.5064 -0.4058
 6447TIP3    H240977   2.213   2.759   6.981 -0.9934 -0.3769  1.0899
 6448TIP3   OH240978   0.337   1.992   0.990 -0.0954 -0.3585 -0.2619
 6448TIP3    H140979   0.343   2.060   1.058  2.0006  1.6635 -2.2751
 6448TIP3    H240980   0.428   1.967   0.974 -0.5409 -0.8210 -2.2965
 6449TIP3   OH240981   3.564   0.865   1.536  0.4365 -0.4089  0.6970
 6449TIP3    H140982   3.532   0.812   1.609 -2.7598  0.3908  0.0304
 6449TIP3    H240983   3.552   0.955   1.565 -2.2516 -0.0329 -1.1669
 6450TIP3   OH240984   4.263   6.380   0.745 -0.2318  0.3421 -0.1359
 6450TIP3    H140985   4.209   6.458   0.734 -1.1530 -0.3577 -0.8146
 6450TIP3    H240986   4.201   6.312   0.773 -0.1895 -0.9818 -2.8355
 6451TIP3   OH240987   0.370   6.581   7.312  0.2909  0.0228 -0.0913
 6451TIP3    H140988   0.297   6.526   7.284  0.4814 -0.9119  1.1543
 6451TIP3    H240989   0.341   6.620   7.394  0.1204  1.9146 -0.9976
 6452TIP3   OH240990   5.585   5.841   6.922 -0.2804  0.2912 -0.2146
 6452TIP3    H140991   5.588   5.802   6.834 -0.3835 -1.0536  0.3494
 6452TIP3    H240992   5.509   5.800   6.963  1.5473 -1.5095  1.5593
 6453TIP3   OH240993   1.631   4.497   6.551 -0.1051  0.4799 -0.1315
 6453TIP3    H140994   1.569   4.542   6.493  0.3169  1.5882  0.2425
 6453TIP3    H240995   1.633   4.407   6.519  0.6945  1.2070 -2.3398
 6454TIP3   OH240996   5.197   2.617   8.139 -0.2148 -0.2007 -0.1667
 6454TIP3    H140997   5.133   2.688   8.136  0.5700  0.5974  0.9898
 6454TIP3    H240998   5.245   2.624   8.057 -0.3917  0.3897 -0.2247
 6455TIP3   OH240999   6.799   6.650   1.421 -0.1947 -0.3118  0.5052
 6455TIP3    H141000   6.709   6.623   1.439  0.1298 -1.0553  1.0651
 6455TIP3    H241001   6.853   6.580   1.457  0.5675 -0.9451 -1.7129
 6456TIP3   OH241002   0.298   2.411   8.305  0.2583 -0.3787  0.1159
 6456TIP3    H141003   0.246   2.482   8.266  2.0537  0.9013 -0.0792
 6456TIP3    H241004   0.300   2.343   8.238  1.3062  0.8180 -1.1301
 6457TIP3   OH241005   6.175   3.423   0.122  0.3604 -0.3550 -0.4160
 6457TIP3    H141006   6.165   3.516   0.144  0.6528 -0.5984  0.7725
 6457TIP3    H241007   6.085   3.391   0.115  0.2619 -0.0841 -0.4012
 6458TIP3   OH241008   1.496   0.231   6.779 -0.5947  0.5314  0.2222
 6458TIP3    H141009   1.471   0.142   6.755 -1.6310  0.5139  1.2534
 6458TIP3    H241010   1.553   0.220   6.856 -1.7049  0.7843  1.1067
 6459TIP3   OH241011   1.604   2.205   7.272 -0.0857 -0.5216 -0.2952
 6459TIP3    H141012   1.665   2.205   7.199  1.8223 -2.1535  1.1810
 6459TIP3    H241013   1.522   2.174   7.235  0.4461  0.0370 -2.0083
 6460TIP3   OH241014   3.068   5.771   8.488  0.5243 -0.0322  0.0679
 6460TIP3    H141015   3.002   5.767   8.557  0.7802 -1.0152  0.2735
 6460TIP3    H241016   3.086   5.864   8.477 -0.6039  0.2335  0.2800
 6461TIP3   OH241017   1.862   4.571   8.507  0.2746  0.5482 -0.0519
 6461TIP3    H141018   1.780   4.531   8.478  0.8131 -0.4039 -0.3284
 6461TIP3    H241019   1.836   4.632   8.576 -0.5992 -0.2843  0.3890
 6462TIP3   OH241020   0.442   4.806   7.872  0.0094 -0.0129 -0.0644
 6462TIP3    H141021   0.492   4.809   7.791 -1.5490  0.9153 -1.0520
 6462TIP3    H241022   0.460   4.891   7.914  0.5872 -0.3760  0.4452
 6463TIP3   OH241023   1.293   6.615   1.747 -0.2929  0.5075 -0.7563
 6463TIP3    H141024   1.228   6.652   1.807 -0.0165 -0.1569 -0.0376
 6463TIP3    H241025   1.257   6.531   1.721  1.2736 -0.9659  1.4793
 6464TIP3   OH241026   0.937   4.310   0.469  0.2964  0.2961 -0.1131
 6464TIP3    H141027   0.898   4.306   0.556 -1.6653 -2.2140 -0.9505
 6464TIP3    H241028   0.923   4.222   0.432 -0.4439  1.6604 -3.5255
 6465TIP3   OH241029   4.121   2.562   1.270  0.1755  0.4568  0.0842
 6465TIP3    H141030   4.184   2.494   1.249  0.6513  1.0305 -0.3810
 6465TIP3    H241031   4.174   2.641   1.284 -0.4367  0.9658 -0.3864
 6466TIP3   OH241032   4.527   0.441   8.231  0.5218 -0.1527 -0.3390
 6466TIP3    H141033   4.614   0.418   8.201  0.6793  0.1376 -0.1095
 6466TIP3    H241034   4.468   0.388   8.177  0.8871 -1.5172  0.5711
 6467TIP3   OH241035   4.495   6.524   6.868 -0.6459 -0.6877 -0.2939
 6467TIP3    H141036   4.573   6.579   6.859 -2.3412  1.6645 -1.7822
 6467TIP3    H241037   4.499   6.464   6.795 -1.1975  0.8692 -1.6822
 6468TIP3   OH241038   1.285   5.432   1.733 -0.1168 -0.6392  0.1276
 6468TIP3    H141039   1.230   5.458   1.806 -1.0322 -2.0809 -0.0189
 6468TIP3    H241040   1.268   5.497   1.665 -1.4224 -0.8872  0.1964
 6469TIP3   OH241041   6.147   0.218   0.426  0.1878 -0.0242 -0.8440
 6469TIP3    H141042   6.229   0.171   0.441  1.9490  3.6140  3.0325
 6469TIP3    H241043   6.084   0.174   0.482  0.6037 -0.3601 -0.6323
 6470TIP3   OH241044   1.288   4.935   6.861  0.2173 -0.0563 -0.2556
 6470TIP3    H141045   1.193   4.922   6.861  0.2143 -0.1103 -0.8766
 6470TIP3    H241046   1.314   4.920   6.769  0.7812  0.2585 -0.1554
 6471TIP3   OH241047   0.981   5.662   0.912  0.6296  0.1530  0.3007
 6471TIP3    H141048   0.986   5.607   0.990 -0.6184  0.9567  0.9776
 6471TIP3    H241049   0.900   5.711   0.922  1.0360  1.1396 -0.9401
 6472TIP3   OH241050   4.940   4.813   1.054 -0.2269  0.0924 -0.4468
 6472TIP3    H141051   5.028   4.776   1.048  0.2525  1.1415 -0.1300
 6472TIP3    H241052   4.949   4.885   1.117 -1.0325  1.0113 -1.3550
 6473TIP3   OH241053   4.969   1.994   8.682 -0.4948 -0.5669 -0.1356
 6473TIP3    H141054   4.936   2.082   8.664 -0.5420 -0.2834  1.1917
 6473TIP3    H241055   5.038   1.980   8.618 -1.1042  0.0669 -0.9508
 6474TIP3   OH241056   0.748   2.851   0.332  0.4519 -0.5967  0.2579
 6474TIP3    H141057   0.707   2.773   0.295 -1.1698  0.7551 -0.8961
 6474TIP3    H241058   0.807   2.882   0.263  1.2756 -0.8990  0.8060
 6475TIP3   OH241059   4.122   3.883   0.419  0.0157 -0.2787 -0.0962
 6475TIP3    H141060   4.177   3.805   0.412 -0.6132 -0.5837 -2.6371
 6475TIP3    H241061   4.150   3.938   0.346 -1.2349  0.7785  0.1937
 6476TIP3   OH241062   1.010   3.496   0.895  0.1336 -0.2259  0.1799
 6476TIP3    H141063   1.070   3.548   0.948 -0.9094  0.0938  1.0844
 6476TIP3    H241064   0.970   3.435   0.957 -2.0060  0.9490  0.0438
 6477TIP3   OH241065   4.562   1.548   1.268  0.1532 -0.1390  0.4211
 6477TIP3    H141066   4.538   1.472   1.321  0.2586 -0.3693  0.1365
 6477TIP3    H241067   4.538   1.623   1.323 -2.0148 -0.3286 -0.1652
 6478TIP3   OH241068   6.244   5.715   7.528  0.5437 -0.5632 -0.3569
 6478TIP3    H141069   6.172   5.652   7.528 -0.6685  0.7437  0.7164
 6478TIP3    H241070   6.235   5.760   7.612  1.8127  0.5577 -0.7966
 6479TIP3   OH241071   6.307   0.303   0.846  0.3536 -0.1988  0.4784
 6479TIP3    H141072   6.287   0.383   0.894  1.1204 -0.5990  1.4961
 6479TIP3    H241073   6.391   0.321   0.803  0.2573 -0.2672  0.2588
 6480TIP3   OH241074   5.313   4.395   0.097  0.6257  0.2075 -0.3058
 6480TIP3    H141075   5.320   4.449   0.175  0.4781 -0.6065  0.2906
 6480TIP3    H241076   5.310   4.457   0.024 -1.4438  1.1037  0.4613
 6481TIP3   OH241077   3.471   3.465   7.448  0.1162  0.2387  0.3990
 6481TIP3    H141078   3.494   3.467   7.541 -1.6517  0.3136  0.8576
 6481TIP3    H241079   3.437   3.377   7.434  1.6024 -0.2257 -0.5249
 6482TIP3   OH241080   0.787   4.285   1.426  0.7348 -0.2498 -0.2451
 6482TIP3    H141081   0.867   4.267   1.474 -1.1158  1.0387  3.7119
 6482TIP3    H241082   0.744   4.199   1.419  0.5835 -0.3387  1.4323
 6483TIP3   OH241083   6.253   6.599   1.221 -0.1474 -0.2336  0.2160
 6483TIP3    H141084   6.297   6.650   1.290 -0.6283  1.3538 -0.6232
 6483TIP3    H241085   6.324   6.574   1.162  0.2240 -1.3501  1.0806
 6484TIP3   OH241086   1.989   4.892   2.438 -0.1199  0.0537 -0.2004
 6484TIP3    H141087   2.003   4.839   2.359 -0.7505 -0.2080 -0.1418
 6484TIP3    H241088   2.046   4.853   2.504 -0.2465 -0.2723 -0.2839
 6485TIP3   OH241089   0.379   5.742   7.140 -0.1999  0.3202  0.0791
 6485TIP3    H141090   0.463   5.707   7.109 -0.1949 -0.6836  1.1616
 6485TIP3    H241091   0.393   5.760   7.233 -1.5986 -1.3017  0.6474
 6486TIP3   OH241092   5.749   0.351   1.863  0.5662 -0.0809 -0.1927
 6486TIP3    H141093   5.833   0.363   1.907  1.4833  0.2458 -1.9155
 6486TIP3    H241094   5.748   0.419   1.795 -1.6046  0.6194  0.4921
 6487TIP3   OH241095   2.471   0.082   7.502 -0.1872  0.3197 -0.6806
 6487TIP3    H141096   2.504   0.155   7.555 -2.5656  2.5682 -2.0457
 6487TIP3    H241097   2.548   0.049   7.456  1.0506  1.7082  0.3084
 6488TIP3   OH241098   1.821   2.519   8.228 -0.3978  0.3779 -0.1869
 6488TIP3    H141099   1.811   2.448   8.291 -0.3345  0.4350 -0.1124
 6488TIP3    H241100   1.906   2.558   8.248 -0.1685  0.1084 -0.6022
 6489TIP3   OH241101   4.208   6.762   0.345 -0.7412 -0.1354  0.4039
 6489TIP3    H141102   4.133   6.731   0.397 -0.9054 -0.5700 -0.0780
 6489TIP3    H241103   4.174   6.838   0.298 -0.9989 -0.5701 -0.1166
 6490TIP3   OH241104   2.781   3.113   0.768  0.1458  0.0004 -0.3358
 6490TIP3    H141105   2.779   3.135   0.861  1.2087  0.5857 -0.4334
 6490TIP3    H241106   2.690   3.118   0.740 -0.0712  0.7633  0.4655
 6491TIP3   OH241107   5.102   0.155   2.378 -0.2365  0.3278 -0.3121
 6491TIP3    H141108   5.126   0.135   2.288  2.3340  0.3183  0.2991
 6491TIP3    H241109   5.034   0.091   2.400  0.5401 -0.9999 -1.6175
 6492TIP3   OH241110   5.156   3.973   6.531  0.0109  0.6408 -0.3528
 6492TIP3    H141111   5.076   4.021   6.554 -0.0642  0.2069  0.3405
 6492TIP3    H241112   5.202   4.030   6.470 -0.1039  1.5630  0.4036
 6493TIP3   OH241113   1.921   3.089   1.832  0.0543  0.1130 -0.7969
 6493TIP3    H141114   1.969   3.118   1.909 -0.1615  2.3534 -1.4480
 6493TIP3    H241115   1.929   2.994   1.834  3.0422  0.2721  0.0532
 6494TIP3   OH241116   1.832   4.381   6.709 -0.1729 -0.3729  0.1328
 6494TIP3    H141117   1.922   4.406   6.729  0.0024 -0.7950 -0.1161
 6494TIP3    H241118   1.799   4.453   6.655  0.5614 -0.9892 -1.1862
 6495TIP3   OH241119   0.188   4.223   2.233 -0.4359  0.0108 -0.4168
 6495TIP3    H141120   0.105   4.264   2.259 -0.5933 -0.9071  0.6100
 6495TIP3    H241121   0.202   4.252   2.143 -0.9991  1.5470 -0.0453
 6496TIP3   OH241122   0.945   5.480   2.133 -0.5547 -0.6718 -0.2438
 6496TIP3    H141123   1.020   5.498   2.190 -0.1673  0.9903 -1.1926
 6496TIP3    H241124   0.877   5.449   2.192  0.1388  0.0769  0.9989
 6497TIP3   OH241125   2.622   4.366   0.043  0.1809  0.0065  0.0179
 6497TIP3    H141126   2.629   4.324   0.128  0.4679  0.6726  0.3347
 6497TIP3    H241127   2.590   4.298  -0.015 -1.2102 -0.1406  0.9172
 6498TIP3   OH241128   5.975   6.006   8.514 -0.5703  0.4072  0.5401
 6498TIP3    H141129   5.986   5.984   8.607 -0.5897  2.5701  1.0920
 6498TIP3    H241130   5.892   6.053   8.510 -2.3702 -2.6318 -1.1985
 6499TIP3   OH241131   3.118   1.806   8.142 -0.5704 -0.2275  0.0428
 6499TIP3    H141132   3.166   1.729   8.171 -0.6938 -0.5127 -0.4917
 6499TIP3    H241133   3.049   1.818   8.207  0.2095  0.1819  0.8145
 6500TIP3   OH241134   0.594   1.065   0.113  0.3687 -0.0830 -0.6422
 6500TIP3    H141135   0.511   1.078   0.068  0.5616  0.5087 -0.8363
 6500TIP3    H241136   0.656   1.042   0.043  0.4149 -0.3152 -0.5261
 6501TIP3   OH241137   5.848   3.274   0.690  0.3938  0.7295  0.6918
 6501TIP3    H141138   5.781   3.341   0.702  0.4304  0.6908  1.1459
 6501TIP3    H241139   5.872   3.248   0.779  0.9950  0.7240  0.5294
 6502TIP3   OH241140   5.333   4.888   7.771  0.2298 -0.4192  0.1537
 6502TIP3    H141141   5.394   4.881   7.845 -0.0066  1.3632  0.5633
 6502TIP3    H241142   5.251   4.915   7.810 -0.3493 -1.0240 -0.6115
 6503TIP3   OH241143   2.572   3.463   1.929 -0.0954  0.0020 -0.1342
 6503TIP3    H141144   2.650   3.489   1.879  1.0513 -0.3493  1.3961
 6503TIP3    H241145   2.538   3.544   1.965 -1.1365  0.3075 -1.6982
 6504TIP3   OH241146   4.016   1.199   8.054 -0.4066 -0.1053 -0.1583
 6504TIP3    H141147   4.056   1.125   8.100  1.4266 -1.3503 -3.4800
 6504TIP3    H241148   4.079   1.271   8.065 -0.0267 -0.3677 -0.5798
 6505TIP3   OH241149   2.330   4.719   1.197  0.0142 -0.0675  0.6784
 6505TIP3    H141150   2.348   4.808   1.228 -1.1808  0.1357  0.8311
 6505TIP3    H241151   2.247   4.726   1.150  1.1090 -0.6343 -1.4890
 6506TIP3   OH241152   4.327   3.654   2.049 -0.4797 -0.5278 -0.1554
 6506TIP3    H141153   4.383   3.726   2.018  0.5408 -1.4909 -0.5803
 6506TIP3    H241154   4.244   3.698   2.072  0.9987  1.2085  2.3001
 6507TIP3   OH241155   3.794   3.468   0.253  0.7003 -0.5494  0.2613
 6507TIP3    H141156   3.771   3.472   0.346  0.3618 -0.8464  0.1917
 6507TIP3    H241157   3.796   3.374   0.233 -1.1431 -0.4551 -0.5052
 6508TIP3   OH241158   5.760   0.846   0.496 -0.5588  0.1038  0.0895
 6508TIP3    H141159   5.818   0.855   0.572  0.8864  2.4138 -1.1793
 6508TIP3    H241160   5.691   0.910   0.511  0.0194  0.9502 -0.7324
 6509TIP3   OH241161   2.815   3.184   6.355 -0.9357 -0.2992  0.4496
 6509TIP3    H141162   2.769   3.232   6.286  0.8889  0.0586 -0.5605
 6509TIP3    H241163   2.907   3.205   6.343 -0.3369 -2.0136  1.6099
 6510TIP3   OH241164   2.173   1.564   1.359 -0.0478 -0.2248 -0.1214
 6510TIP3    H141165   2.078   1.556   1.359 -0.1513  0.7152  1.1820
 6510TIP3    H241166   2.204   1.477   1.384 -0.6527 -0.0492  1.3320
 6511TIP3   OH241167   6.648   5.949   1.938 -0.6602 -0.2073  0.1538
 6511TIP3    H141168   6.661   5.856   1.919 -1.3298 -0.1718 -0.5051
 6511TIP3    H241169   6.727   5.992   1.906 -0.3300 -0.5474  0.5014
 6512TIP3   OH241170   1.014   3.692   6.854 -0.2425 -0.1554 -0.6096
 6512TIP3    H141171   1.082   3.668   6.792  0.5053 -0.8746  0.4589
 6512TIP3    H241172   1.059   3.698   6.939 -1.2985  0.4470 -0.0606
 6513TIP3   OH241173   4.156   5.158   6.945 -0.0704 -0.2819 -0.0172
 6513TIP3    H141174   4.197   5.072   6.955 -1.4915 -1.1242 -1.0261
 6513TIP3    H241175   4.230   5.218   6.931  0.8661 -1.6603 -1.3284
 6514TIP3   OH241176   5.477   4.866   1.171 -0.3683  0.4377 -0.0526
 6514TIP3    H141177   5.477   4.806   1.097  1.7273  0.0338  0.2096
 6514TIP3    H241178   5.492   4.952   1.132  0.0113  0.3249 -0.1571
 6515TIP3   OH241179   2.311   1.636   0.140  0.1733  0.3657 -0.0048
 6515TIP3    H141180   2.300   1.571   0.210 -1.1408  1.2282  0.6226
 6515TIP3    H241181   2.405   1.634   0.121  0.5209 -0.0908  1.5948
 6516TIP3   OH241182   4.154   6.331   1.687 -0.3037  0.3158 -0.8298
 6516TIP3    H141183   4.144   6.287   1.771 -0.4645  0.3555 -0.8284
 6516TIP3    H241184   4.212   6.274   1.636  0.7649  0.8677 -0.2697
 6517TIP3   OH241185   6.224   5.024   1.693  0.0013 -0.0369  0.3387
 6517TIP3    H141186   6.163   4.970   1.644  1.7720 -1.2017 -0.7009
 6517TIP3    H241187   6.220   4.989   1.783 -0.0428 -0.8520  0.0303
 6518TIP3   OH241188   0.112   4.340   1.752 -0.3635 -0.3750  0.6151
 6518TIP3    H141189   0.036   4.339   1.694 -0.1690 -0.9371  0.3624
 6518TIP3    H241190   0.166   4.268   1.721  1.3153  1.3088 -0.5783
 6519TIP3   OH241191   4.385   0.120   8.873  0.5700 -0.2772  0.2615
 6519TIP3    H141192   4.378   0.052   8.807 -1.2628 -0.4826  0.5945
 6519TIP3    H241193   4.435   0.190   8.831  1.9883 -1.5718 -0.2771
 6520TIP3   OH241194   4.848   2.597   7.602 -0.1469  0.3853  0.7727
 6520TIP3    H141195   4.758   2.611   7.632 -0.5942  1.5831 -0.9351
 6520TIP3    H241196   4.849   2.507   7.570 -0.0946 -0.3698  2.8044
 6521TIP3   OH241197   6.324   2.704   6.973  0.4551 -0.3551 -0.4892
 6521TIP3    H141198   6.373   2.738   7.047  0.4831 -1.0590 -0.1761
 6521TIP3    H241199   6.325   2.775   6.909 -0.7580  0.8018  0.7156
 6522TIP3   OH241200   4.552   0.698   8.230  0.0618 -0.3869 -0.3900
 6522TIP3    H141201   4.584   0.706   8.320 -2.2440  0.9751  0.4093
 6522TIP3    H241202   4.556   0.604   8.212  0.8673 -0.6567  1.0307
 6523TIP3   OH241203   5.603   4.212   1.015  0.0552 -0.3355  0.3210
 6523TIP3    H141204   5.521   4.253   1.044  0.2522  0.8850 -0.7512
 6523TIP3    H241205   5.575   4.128   0.979 -0.4782 -0.7625  1.6517
 6524TIP3   OH241206   1.461   0.948   1.250  0.1919 -0.1311  0.0965
 6524TIP3    H141207   1.400   0.884   1.290 -1.4893  0.2314 -1.7466
 6524TIP3    H241208   1.525   0.894   1.205  1.2312 -0.5216  1.9429
 6525TIP3   OH241209   0.657   5.195   8.485 -0.1133 -0.4184 -0.3564
 6525TIP3    H141210   0.605   5.134   8.537 -0.6944 -0.0762 -0.5223
 6525TIP3    H241211   0.741   5.151   8.474 -0.2790 -0.8735  0.1322
 6526TIP3   OH241212   6.416   3.791   8.621  0.3678 -0.0387 -0.4182
 6526TIP3    H141213   6.477   3.731   8.663  1.9608  0.2051 -2.2683
 6526TIP3    H241214   6.362   3.735   8.565  0.5972  0.0352 -0.7147
 6527TIP3   OH241215   3.837   4.435   2.116  0.0575 -0.2242 -0.3074
 6527TIP3    H141216   3.791   4.503   2.167  2.7032  0.3083  1.6180
 6527TIP3    H241217   3.797   4.353   2.144 -0.9157  0.3277 -0.0431
 6528TIP3   OH241218   1.558   5.243   1.400 -0.3029 -0.4040  0.0859
 6528TIP3    H141219   1.503   5.175   1.440  1.1164 -1.3509  0.5156
 6528TIP3    H241220   1.514   5.263   1.317 -0.1712 -2.7418 -0.6382
 6529TIP3   OH241221   3.892   6.408   0.571 -0.0944  0.4735 -0.1348
 6529TIP3    H141222   3.881   6.317   0.542  0.1891 -0.0223  1.2133
 6529TIP3    H241223   3.947   6.449   0.504  0.0933 -0.4544 -0.5654
 6530TIP3   OH241224   1.499   1.478   8.866  0.1473  0.4794  0.0083
 6530TIP3    H141225   1.463   1.410   8.809  0.0930 -0.2237  0.8729
 6530TIP3    H241226   1.436   1.549   8.861 -0.4867 -0.0675  0.1629
 6531TIP3   OH241227   2.977   4.398   7.502 -0.4951  0.2749  0.5197
 6531TIP3    H141228   2.949   4.346   7.577 -2.4369  0.0837 -0.2874
 6531TIP3    H241229   2.994   4.485   7.538 -1.6873  0.2666  1.1448
 6532TIP3   OH241230   1.838   0.801   8.138 -0.3925 -0.7338  0.0323
 6532TIP3    H141231   1.834   0.773   8.230  0.6898 -0.5768  0.1361
 6532TIP3    H241232   1.861   0.721   8.090  0.7700 -0.4515  0.1046
 6533TIP3   OH241233   2.445   5.440   8.701 -0.2066 -0.1456  0.4732
 6533TIP3    H141234   2.532   5.451   8.738  0.7092 -1.6333 -1.0626
 6533TIP3    H241235   2.404   5.371   8.753  1.1322 -2.3432 -1.1844
 6534TIP3   OH241236   1.628   3.470   1.614 -0.3666 -0.3896 -0.3722
 6534TIP3    H141237   1.585   3.433   1.690 -0.3962  1.0692  0.3661
 6534TIP3    H241238   1.712   3.426   1.609  0.0774  0.2299  1.1636
 6535TIP3   OH241239   1.080   0.500   8.186 -0.2498  0.2663 -0.0179
 6535TIP3    H141240   1.175   0.514   8.178  0.2491 -1.1581  2.3577
 6535TIP3    H241241   1.043   0.540   8.108  2.2451  1.5165 -0.6600
 6536TIP3   OH241242   1.423   4.848   2.368 -0.2474 -0.3946 -0.1171
 6536TIP3    H141243   1.518   4.854   2.380 -0.2310  1.2493 -0.8628
 6536TIP3    H241244   1.406   4.754   2.366  1.6510 -0.7885 -1.9074
 6537TIP3   OH241245   4.072   2.378   8.759 -0.5042 -0.5504  0.0098
 6537TIP3    H141246   4.023   2.427   8.692  0.5185 -0.8478 -0.9960
 6537TIP3    H241247   4.124   2.315   8.709  2.3157  0.9709  0.8253
 6538TIP3   OH241248   3.123   3.237   1.356  0.2419  1.0053  0.0948
 6538TIP3    H141249   3.209   3.262   1.322 -0.4173 -0.2818 -2.8055
 6538TIP3    H241250   3.141   3.207   1.445  2.5743  2.0096  0.0367
 6539TIP3   OH241251   4.522   1.675   8.679  0.2152  0.4893 -0.6275
 6539TIP3    H141252   4.617   1.664   8.668  0.1435 -0.2876 -0.5130
 6539TIP3    H241253   4.488   1.586   8.687 -0.3778  0.8042  0.6643
 6540TIP3   OH241254   5.679   4.882   0.057  0.3359  0.3944  0.4086
 6540TIP3    H141255   5.626   4.807   0.081  0.6914 -0.1278 -0.4257
 6540TIP3    H241256   5.766   4.846   0.038  0.0007  0.6975 -2.0174
 6541TIP3   OH241257   3.539   3.742   0.261 -0.3954  0.1099 -0.4567
 6541TIP3    H141258   3.458   3.700   0.291 -0.5575  1.2777  0.7943
 6541TIP3    H241259   3.556   3.811   0.325  1.1067  0.4767 -1.2102
 6542TIP3   OH241260   0.339   1.088   0.921  0.5430 -0.2086 -0.4490
 6542TIP3    H141261   0.280   1.068   0.994  0.7688 -2.2372 -0.7653
 6542TIP3    H241262   0.404   1.018   0.923  1.5214  0.6231 -1.6101
 6543TIP3   OH241263   0.380   4.914   8.190 -0.8780  0.2671  0.6294
 6543TIP3    H141264   0.305   4.934   8.133 -0.9165 -0.1875  0.5107
 6543TIP3    H241265   0.340   4.897   8.276 -0.8831  0.3247  0.6386
 6544TIP3   OH241266   6.414   6.519   0.972  0.5091 -0.1118  0.0352
 6544TIP3    H141267   6.469   6.596   0.957 -0.3792  0.8679  1.5872
 6544TIP3    H241268   6.334   6.536   0.924  2.1863 -2.5625 -4.2032
 6545TIP3   OH241269   5.387   2.731   8.399  0.8289  0.1772 -0.4165
 6545TIP3    H141270   5.388   2.657   8.338  2.6637  0.7011 -1.0861
 6545TIP3    H241271   5.295   2.741   8.422 -0.1958  0.6468 -3.9822
 6546TIP3   OH241272   0.392   0.556   1.004 -0.5365 -0.1980 -0.2695
 6546TIP3    H141273   0.335   0.551   1.080 -0.6227 -1.8136 -0.4100
 6546TIP3    H241274   0.462   0.494   1.022 -0.6019 -0.6670 -1.5431
 6547TIP3   OH241275   3.168   4.613   7.548 -0.2443  0.5020 -0.0642
 6547TIP3    H141276   3.253   4.607   7.592  1.2147 -0.9418 -2.8093
 6547TIP3    H241277   3.184   4.672   7.474 -0.8141 -1.7370 -2.1035
 6548TIP3   OH241278   2.099   6.608   7.931  0.5556  0.3122  0.0997
 6548TIP3    H141279   2.038   6.640   7.997  0.6280  0.5498  0.0502
 6548TIP3    H241280   2.165   6.677   7.923 -0.7627  1.4528 -2.0056
 6549TIP3   OH241281   3.634   5.291   1.785  0.2642  0.0542  0.2482
 6549TIP3    H141282   3.726   5.270   1.767  0.1402 -0.1166 -0.1961
 6549TIP3    H241283   3.638   5.369   1.841  0.6648  0.6524 -0.5938
 6550TIP3   OH241284   3.006   6.617   8.537 -0.2645 -0.3347  0.1690
 6550TIP3    H141285   2.937   6.647   8.477 -1.0376  0.0773  1.2150
 6550TIP3    H241286   3.073   6.579   8.481 -0.4964  0.9481 -1.0243
 6551TIP3   OH241287   6.250   4.072   7.752 -0.1732  0.0986 -0.0004
 6551TIP3    H141288   6.291   3.989   7.728  0.7748  0.9267 -1.3934
 6551TIP3    H241289   6.236   4.116   7.668 -0.8831  1.2423  0.7014
 6552TIP3   OH241290   2.253   2.658   8.737  0.2712 -0.1044 -0.3267
 6552TIP3    H141291   2.317   2.590   8.760  0.7393  0.5204  0.2587
 6552TIP3    H241292   2.202   2.619   8.666  1.3252 -0.6109 -0.8311
 6553TIP3   OH241293   0.072   2.656   6.430  0.5907 -0.2509  0.8671
 6553TIP3    H141294  -0.016   2.621   6.417  1.1462 -0.8804 -1.8458
 6553TIP3    H241295   0.128   2.601   6.375  2.4351  1.1511  1.2445
 6554TIP3   OH241296   2.988   1.178   1.215 -1.2516  0.3545 -0.3461
 6554TIP3    H141297   2.971   1.256   1.161 -1.7613 -0.8015 -1.9045
 6554TIP3    H241298   3.071   1.197   1.258  0.3940  0.4411 -3.2755
 6555TIP3   OH241299   0.741   3.730   6.774 -0.0578 -0.7108  0.0907
 6555TIP3    H141300   0.685   3.658   6.804 -0.5518  0.3616  1.8995
 6555TIP3    H241301   0.822   3.720   6.824 -0.8773  1.0802  1.9531
 6556TIP3   OH241302   1.710   0.316   5.894 -0.1765  0.8910  0.6806
 6556TIP3    H141303   1.759   0.237   5.871  0.4253  1.2477  0.7041
 6556TIP3    H241304   1.639   0.320   5.830 -0.0152  0.5137  0.4757
 6557TIP3   OH241305   0.237   3.489   8.183 -0.7099  0.4162 -0.3855
 6557TIP3    H141306   0.181   3.565   8.167  0.1020  1.3939  1.2067
 6557TIP3    H241307   0.177   3.421   8.212 -1.3407  0.7335 -0.9241
 6558TIP3   OH241308   1.092   4.470   6.480  0.5965 -0.2555 -0.1318
 6558TIP3    H141309   1.049   4.549   6.447  0.6699  0.9322  2.4214
 6558TIP3    H241310   1.026   4.427   6.533  1.8081  0.4785  2.1038
 6559TIP3   OH241311   2.230   5.147   1.837  0.5782  0.0510 -0.5120
 6559TIP3    H141312   2.236   5.057   1.869 -0.3929 -0.5037 -1.8213
 6559TIP3    H241313   2.195   5.197   1.911  0.3012 -0.8010 -0.0610
 6560TIP3   OH241314   0.861   4.566   0.846  0.0622  0.4242  0.5423
 6560TIP3    H141315   0.885   4.631   0.912 -1.4247 -0.7276  2.3024
 6560TIP3    H241316   0.834   4.489   0.896 -2.3032 -0.1069 -1.3535
 6561TIP3   OH241317   4.506   0.795   1.535 -0.0187  0.5163  0.3985
 6561TIP3    H141318   4.572   0.779   1.602  0.8186 -1.7667 -0.8681
 6561TIP3    H241319   4.551   0.778   1.453 -2.1018 -1.0077 -0.5204
 6562TIP3   OH241320   4.013   5.854   8.845 -0.1341 -0.5126 -0.2289
 6562TIP3    H141321   4.039   5.897   8.927 -0.1016  0.9243 -0.9486
 6562TIP3    H241322   3.918   5.867   8.840 -0.0793 -0.2155 -0.6016
 6563TIP3   OH241323   3.149   1.102   0.661 -0.5817 -0.5024  0.0901
 6563TIP3    H141324   3.125   1.183   0.707  2.1698  0.2247  0.3906
 6563TIP3    H241325   3.162   1.038   0.731 -1.0195 -0.7157 -0.0226
 6564TIP3   OH241326   0.324   4.461   1.641  0.4910 -0.0412  0.1995
 6564TIP3    H141327   0.237   4.421   1.639  0.6298 -0.3280 -0.1023
 6564TIP3    H241328   0.371   4.412   1.708  0.8737 -0.8353 -0.6305
 6565TIP3   OH241329   2.945   0.491   6.317  0.1502 -0.1024 -0.0038
 6565TIP3    H141330   2.911   0.404   6.336 -1.7322  0.7548  0.8604
 6565TIP3    H241331   2.907   0.547   6.386  1.6297  1.3329 -0.2852
 6566TIP3   OH241332   4.208   1.443   6.955 -0.2796  0.0572 -0.2202
 6566TIP3    H141333   4.204   1.421   6.862  0.2934  2.5635 -0.9073
 6566TIP3    H241334   4.171   1.531   6.961 -0.6802 -0.1969  2.0139
 6567TIP3   OH241335   5.435   4.756   7.220 -0.4894  0.0118 -0.0784
 6567TIP3    H141336   5.497   4.742   7.149  1.2219 -0.7467  1.4817
 6567TIP3    H241337   5.490   4.768   7.298 -2.2875 -1.5485  1.5442
 6568TIP3   OH241338   1.072   1.550   1.793 -0.3134  0.5490  0.0000
 6568TIP3    H141339   1.133   1.528   1.863  0.4916  0.6428 -0.6539
 6568TIP3    H241340   1.092   1.488   1.723 -0.5398  0.9850 -0.4636
 6569TIP3   OH241341   2.798   1.972   7.456 -0.7007  0.1110  0.0421
 6569TIP3    H141342   2.893   1.971   7.464 -0.6843 -0.3929 -0.1736
 6569TIP3    H241343   2.768   1.897   7.507 -0.8926 -0.4551 -0.8899
 6570TIP3   OH241344   1.605   0.338   7.949 -0.3009  0.0175  0.4659
 6570TIP3    H141345   1.654   0.392   7.887  0.9344 -0.5161  0.9422
 6570TIP3    H241346   1.513   0.357   7.930  0.0675  2.4416  0.7829
 6571TIP3   OH241347   0.297   4.496   7.812  1.0409  0.4439 -0.0139
 6571TIP3    H141348   0.245   4.559   7.762  0.8901  1.6570  1.6003
 6571TIP3    H241349   0.388   4.513   7.785  1.0298  1.5825  0.6204
 6572TIP3   OH241350   0.507   2.206   0.679  0.0656 -0.0923 -0.3041
 6572TIP3    H141351   0.470   2.279   0.727 -1.7943 -0.4317 -1.1236
 6572TIP3    H241352   0.598   2.231   0.663 -0.7889  2.5641 -1.5481
 6573TIP3   OH241353   2.233   1.055   0.565  0.0254 -0.3879  0.0169
 6573TIP3    H141354   2.321   1.017   0.567  0.8505  1.2822 -2.0274
 6573TIP3    H241355   2.245   1.147   0.589 -1.3203 -0.3501  0.6591
 6574TIP3   OH241356   4.481   4.059   6.819  0.1014 -0.2283  0.1793
 6574TIP3    H141357   4.484   4.101   6.905  1.2124  1.9873 -0.8416
 6574TIP3    H241358   4.455   4.130   6.759  2.8712 -0.7021 -1.7746
 6575TIP3   OH241359   6.002   3.359   0.438  0.2345 -0.0435  0.1630
 6575TIP3    H141360   6.071   3.399   0.384  0.0906  1.0146  0.7481
 6575TIP3    H241361   6.003   3.408   0.520 -0.9866 -0.2317  0.3151
 6576TIP3   OH241362   1.390   2.515   8.147 -0.0664 -0.3275 -0.3510
 6576TIP3    H141363   1.417   2.458   8.075 -0.1803 -0.9305  0.0775
 6576TIP3    H241364   1.471   2.556   8.178 -0.1403  0.6942 -1.4523
 6577TIP3   OH241365   0.052   0.985   8.201  0.0780 -0.5715 -0.1893
 6577TIP3    H141366   0.044   0.908   8.258  0.5165 -1.3431 -1.1376
 6577TIP3    H241367  -0.022   0.977   8.140  0.2957 -0.4018 -0.4784
 6578TIP3   OH241368   2.441   6.354   6.238  0.1895  0.1271  0.0658
 6578TIP3    H141369   2.502   6.428   6.243  0.4475  0.2437 -2.7736
 6578TIP3    H241370   2.419   6.349   6.145  0.1408 -3.3371  0.1401
 6579TIP3   OH241371   6.044   6.742   0.309  0.8499 -0.3170  0.0269
 6579TIP3    H141372   5.990   6.790   0.371 -0.7161 -0.6162 -1.0621
 6579TIP3    H241373   6.067   6.661   0.355 -1.0424 -0.9480 -0.0468
 6580TIP3   OH241374   0.111   3.585   6.404  0.3145 -0.1399 -0.4696
 6580TIP3    H141375   0.132   3.492   6.404 -0.5633 -0.3453 -0.3732
 6580TIP3    H241376   0.081   3.603   6.315 -0.0158 -0.0711 -0.3469
 6581TIP3   OH241377   0.688   2.463   6.769 -0.2825 -0.2182  0.7126
 6581TIP3    H141378   0.612   2.435   6.718  0.9236 -1.6901 -0.3747
 6581TIP3    H241379   0.721   2.383   6.810  1.9452 -0.0784 -0.6396
 6582TIP3   OH241380   4.493   5.422   6.504 -0.5872  0.6440 -0.5376
 6582TIP3    H141381   4.484   5.334   6.538 -1.9646  1.4216  1.2744
 6582TIP3    H241382   4.576   5.454   6.539 -1.2370  0.8759  0.8450
 6583TIP3   OH241383   6.235   6.168   2.337 -0.1822  0.0143 -0.2670
 6583TIP3    H141384   6.187   6.126   2.265 -0.9935 -0.0872  0.3131
 6583TIP3    H241385   6.166   6.206   2.392  0.4626  0.6885  0.0890
 6584TIP3   OH241386   1.432   3.119   0.665  0.0433 -0.4362  0.2271
 6584TIP3    H141387   1.340   3.104   0.685 -0.0259  1.8356  2.0336
 6584TIP3    H241388   1.434   3.209   0.630  1.8250  0.6937  2.9171
 6585TIP3   OH241389   0.571   2.345   1.080 -0.4960 -0.1425 -0.0417
 6585TIP3    H141390   0.548   2.360   0.988  1.7764  1.1538 -0.4833
 6585TIP3    H241391   0.652   2.293   1.075 -0.0367  0.4232  1.1871
 6586TIP3   OH241392   4.619   1.119   8.138 -0.0700 -0.5689 -0.4656
 6586TIP3    H141393   4.647   1.127   8.047 -1.1610  1.3020 -0.6805
 6586TIP3    H241394   4.679   1.174   8.187 -0.4921 -0.2490 -0.2979
 6587TIP3   OH241395   0.396   3.383   1.245  0.2653  0.0206  0.3702
 6587TIP3    H141396   0.324   3.400   1.305  0.4575  0.5425  0.4618
 6587TIP3    H241397   0.467   3.440   1.277  0.8156 -0.7170  0.4728
 6588TIP3   OH241398   3.215   0.419   0.610  0.4074 -0.2731 -0.3492
 6588TIP3    H141399   3.210   0.379   0.697  2.0462 -2.2338 -1.0544
 6588TIP3    H241400   3.309   0.421   0.591  0.0406 -0.5568 -2.3568
 6589TIP3   OH241401   1.820   2.984   1.076  0.2013 -0.3317 -0.0636
 6589TIP3    H141402   1.777   2.940   1.148  1.4237  0.6418  1.3301
 6589TIP3    H241403   1.896   3.026   1.116  0.5441  0.8050 -1.8023
 6590TIP3   OH241404   2.985   5.666   0.485  0.1611  0.1137  0.7047
 6590TIP3    H141405   2.936   5.713   0.418 -1.1995  0.5563  1.9637
 6590TIP3    H241406   3.021   5.590   0.439 -0.3978  0.6128 -0.6060
 6591TIP3   OH241407   6.271   6.591   7.598  0.6274  0.4613 -0.1367
 6591TIP3    H141408   6.296   6.644   7.673 -0.0422 -0.4411  0.7567
 6591TIP3    H241409   6.196   6.539   7.629  0.9553 -0.6413 -1.1142
 6592TIP3   OH241410   3.449   1.764   6.599  0.0802  0.2810 -0.0253
 6592TIP3    H141411   3.529   1.748   6.549  1.7624  1.0990  2.2123
 6592TIP3    H241412   3.404   1.833   6.550  0.4793 -0.5057 -1.5720
 6593TIP3   OH241413   3.346   6.744   6.971  0.4470 -0.1216  0.6096
 6593TIP3    H141414   3.367   6.793   7.050 -0.9348  2.2165 -0.3589
 6593TIP3    H241415   3.420   6.760   6.912  0.1307  0.6063  0.4003
 6594TIP3   OH241416   2.885   4.778   0.700  0.3567  0.0714  0.3178
 6594TIP3    H141417   2.902   4.798   0.608  2.4380  0.2664  0.6916
 6594TIP3    H241418   2.866   4.684   0.702 -0.7994  0.2711 -0.4147
 6595TIP3   OH241419   5.329   5.578   2.128  0.0292  0.0093 -0.4531
 6595TIP3    H141420   5.405   5.602   2.075  0.5131 -1.7803 -0.6375
 6595TIP3    H241421   5.301   5.660   2.169  2.9295  0.4932  0.7767
 6596TIP3   OH241422   3.872   2.482   1.336 -0.1666  0.1779  0.3199
 6596TIP3    H141423   3.856   2.541   1.409 -0.1824 -1.5354  1.7582
 6596TIP3    H241424   3.956   2.510   1.300  0.9364 -0.2948  2.4041
 6597TIP3   OH241425   4.966   6.585   7.375  0.0569  0.3886 -0.4635
 6597TIP3    H141426   4.934   6.672   7.400  1.4593  0.5284  0.9856
 6597TIP3    H241427   4.890   6.542   7.337 -0.7228  2.1696 -1.0148
 6598TIP3   OH241428   3.748   2.910   0.287  1.0229  0.0449  0.8603
 6598TIP3    H141429   3.756   2.828   0.238  1.4667  0.4652  0.2184
 6598TIP3    H241430   3.836   2.948   0.286  0.1315  2.4342 -2.2619
 6599TIP3   OH241431   4.086   1.957   7.473  0.0110  0.5610 -0.4113
 6599TIP3    H141432   4.158   1.909   7.433  1.1607  0.9783  1.0788
 6599TIP3    H241433   4.048   2.008   7.401  0.3793 -0.6071 -1.4753
 6600TIP3   OH241434   4.186   6.327   8.805 -0.4305  0.2684 -0.0915
 6600TIP3    H141435   4.266   6.278   8.827 -0.8200 -0.0838  0.5804
 6600TIP3    H241436   4.211   6.381   8.730  0.6293  0.6546  0.5100
 6601TIP3   OH241437   4.262   0.002   8.660  0.3842  0.1379  0.2339
 6601TIP3    H141438   4.195  -0.024   8.723  0.0310  2.1429  0.7566
 6601TIP3    H241439   4.244   0.094   8.643  2.2010  0.3713 -0.6536
 6602TIP3   OH241440   6.151   2.157   7.580  0.0425 -0.5070  0.9207
 6602TIP3    H141441   6.134   2.123   7.492  1.5017  1.1203 -0.0320
 6602TIP3    H241442   6.202   2.088   7.622 -0.4299 -1.1823  0.4184
 6603TIP3   OH241443   6.251   3.919   6.991  1.0613 -0.2782  0.2810
 6603TIP3    H141444   6.224   3.830   7.010  0.6901  0.0923  1.5865
 6603TIP3    H241445   6.197   3.974   7.048  2.9689  0.6237  1.3338
 6604TIP3   OH241446   3.939   2.520   0.323  0.6123 -0.3703 -0.8756
 6604TIP3    H141447   4.019   2.570   0.336  0.1446  0.7112 -1.8799
 6604TIP3    H241448   3.905   2.552   0.239 -1.0446 -0.5300 -0.3121
 6605TIP3   OH241449   1.763   3.049   7.431  0.6563  0.2861  0.2309
 6605TIP3    H141450   1.833   3.089   7.481  0.2595  0.7436  0.4272
 6605TIP3    H241451   1.773   3.086   7.343  1.9678 -1.2707 -0.3213
 6606TIP3   OH241452   6.564   5.501   1.467 -0.6692 -0.1669  0.3949
 6606TIP3    H141453   6.479   5.521   1.428  0.1046  0.0496 -1.2557
 6606TIP3    H241454   6.628   5.542   1.408  0.6222 -1.1013  1.1010
 6607TIP3   OH241455   4.084   5.172   0.387  0.0896  0.5539 -0.1891
 6607TIP3    H141456   4.103   5.078   0.387  0.8845  0.7105 -0.4001
 6607TIP3    H241457   4.026   5.184   0.462  0.0395 -0.0945 -0.1133
 6608TIP3   OH241458   5.007   0.911   7.847  0.0972 -0.0308 -0.1440
 6608TIP3    H141459   4.922   0.868   7.837 -0.2168  0.2920  0.9712
 6608TIP3    H241460   5.052   0.860   7.916  0.3514  0.4753  0.0694
 6609TIP3   OH241461   2.919   3.413   6.235  0.0762 -0.5072  0.3974
 6609TIP3    H141462   2.957   3.475   6.296 -0.1239 -1.0139  1.0547
 6609TIP3    H241463   2.839   3.456   6.204  0.4025 -0.0674  0.1507
 6610TIP3   OH241464   3.143   0.852   6.316 -0.2769 -0.0839 -0.1048
 6610TIP3    H141465   3.078   0.868   6.386 -1.4873  0.2741 -1.2574
 6610TIP3    H241466   3.204   0.790   6.354 -0.8583  0.1504  1.3063
 6611TIP3   OH241467   1.810   1.703   0.061  0.0666  0.2416  0.4924
 6611TIP3    H141468   1.775   1.693  -0.028  0.6308  0.6293  0.2163
 6611TIP3    H241469   1.734   1.720   0.116 -0.1258  1.8703 -0.2123
 6612TIP3   OH241470   5.606   5.692   1.073  0.7047  0.6225  0.2761
 6612TIP3    H141471   5.593   5.607   1.116 -1.9529  1.7673  1.9872
 6612TIP3    H241472   5.600   5.756   1.143 -0.7857  2.4194 -1.3496
 6613TIP3   OH241473   1.931   2.568   0.656  0.0417 -0.1851 -0.1570
 6613TIP3    H141474   1.855   2.585   0.712  0.0127  1.2002 -0.5985
 6613TIP3    H241475   1.893   2.546   0.571  0.1295  0.9739 -0.5050
 6614TIP3   OH241476   4.795   1.048   6.350 -0.0338  0.0251 -0.4951
 6614TIP3    H141477   4.826   0.963   6.379 -1.4476 -0.6650 -0.8865
 6614TIP3    H241478   4.725   1.070   6.411 -0.9680 -0.0163 -1.5146
 6615TIP3   OH241479   0.862   2.876   6.486  0.5028  0.1927 -0.3000
 6615TIP3    H141480   0.848   2.930   6.409  1.1223 -1.4297 -1.6106
 6615TIP3    H241481   0.791   2.812   6.484 -0.2303  0.9095  1.2242
 6616TIP3   OH241482   1.238   1.688   0.449  0.0144  0.7155 -0.0869
 6616TIP3    H141483   1.194   1.763   0.490  0.0237  1.6060 -1.6208
 6616TIP3    H241484   1.322   1.723   0.420 -0.5694  0.5392 -2.1257
 6617TIP3   OH241485   1.712   5.025   7.297  0.0899 -0.3578 -0.2245
 6617TIP3    H141486   1.686   5.095   7.237  2.5825  0.5614 -0.3475
 6617TIP3    H241487   1.682   4.945   7.255 -3.5328  0.5602  0.2818
 6618TIP3   OH241488   5.647   5.694   8.405 -0.1376  0.1242  0.7791
 6618TIP3    H141489   5.567   5.747   8.405 -0.6324 -0.5319 -1.4716
 6618TIP3    H241490   5.624   5.615   8.452 -0.4981  0.3802  1.0354
 6619TIP3   OH241491   1.888   5.940   1.184  0.3027 -0.2067  0.2602
 6619TIP3    H141492   1.856   6.029   1.170  1.2694  0.2412  0.7570
 6619TIP3    H241493   1.812   5.892   1.215 -0.7868 -0.1258 -2.1086
 6620TIP3   OH241494   0.625   5.898   8.102 -0.3219 -0.2315  0.5287
 6620TIP3    H141495   0.657   5.814   8.136  0.5029 -0.2080 -0.1646
 6620TIP3    H241496   0.567   5.873   8.030 -1.7940 -0.2672  1.6649
 6621TIP3   OH241497   3.749   1.600   1.455 -0.2318  0.4803  0.0957
 6621TIP3    H141498   3.749   1.539   1.529 -1.2461  1.1177  0.6298
 6621TIP3    H241499   3.816   1.665   1.478  2.6837 -1.6615 -1.5816
 6622TIP3   OH241500   4.980   2.897   0.936 -0.3497 -0.1305 -0.2693
 6622TIP3    H141501   4.978   2.808   0.902 -1.2641  0.0829 -0.8008
 6622TIP3    H241502   5.056   2.899   0.994 -0.7002 -1.4413  0.2596
 6623TIP3   OH241503   5.789   5.622   0.180  0.0517 -0.4081 -0.0069
 6623TIP3    H141504   5.750   5.616   0.093 -0.5305 -0.2858  0.2421
 6623TIP3    H241505   5.817   5.532   0.199 -1.5506 -0.8422  0.4591
 6624TIP3   OH241506   6.392   1.665   7.128  0.0909 -0.0606  0.1392
 6624TIP3    H141507   6.414   1.713   7.048  1.0956 -0.0299  0.4166
 6624TIP3    H241508   6.297   1.674   7.136 -0.0877 -0.4394 -1.2819
 6625TIP3   OH241509   6.032   2.383   7.895  0.1458 -0.2189  0.7010
 6625TIP3    H141510   6.002   2.339   7.815  1.3113 -2.4167  1.3984
 6625TIP3    H241511   6.088   2.453   7.863  0.8776 -1.2822 -0.4388
 6626TIP3   OH241512   5.036   0.363   8.378  0.3983 -0.0190  0.4772
 6626TIP3    H141513   4.995   0.416   8.446  1.2903  0.6276  0.5257
 6626TIP3    H241514   5.130   0.374   8.391  0.5965 -0.8564 -0.1107
 6627TIP3   OH241515   1.658   3.601   0.381 -0.0899 -0.0977 -0.2002
 6627TIP3    H141516   1.724   3.576   0.447  0.6008  0.3850 -0.7005
 6627TIP3    H241517   1.600   3.661   0.428 -1.2302 -1.8386  0.7521
 6628TIP3   OH241518   1.645   2.857   7.133  0.2214 -0.0891 -0.3816
 6628TIP3    H141519   1.564   2.834   7.180  1.5250 -1.0968  1.4896
 6628TIP3    H241520   1.628   2.831   7.043 -1.5343 -0.3039 -0.0276
 6629TIP3   OH241521   0.036   0.006   7.379 -0.0232  0.2043  0.4560
 6629TIP3    H141522  -0.005   0.031   7.462 -1.3578 -1.6135  0.4117
 6629TIP3    H241523  -0.007  -0.076   7.355 -0.9149  1.4985 -2.9090
 6630TIP3   OH241524   2.068   6.177   7.014 -0.3575 -0.0140 -0.3185
 6630TIP3    H141525   1.984   6.132   7.015 -1.6645  2.2830 -0.8136
 6630TIP3    H241526   2.066   6.233   7.092  0.6353  0.2051 -0.4375
 6631TIP3   OH241527   5.358   1.370   7.292 -0.3507 -0.7352  0.0147
 6631TIP3    H141528   5.436   1.426   7.289 -0.6806 -0.2738  0.0293
 6631TIP3    H241529   5.331   1.371   7.383 -0.8108 -0.2908 -0.1243
 6632TIP3   OH241530   5.728   3.990   7.354  0.4729 -0.5157  0.5594
 6632TIP3    H141531   5.728   4.060   7.288 -0.9501 -0.4779  0.5571
 6632TIP3    H241532   5.745   4.035   7.436 -0.1130 -0.1919  0.5131
 6633TIP3   OH241533   4.830   3.986   8.105 -0.1024  0.5454  0.3638
 6633TIP3    H141534   4.763   3.980   8.173  0.6938 -0.6895  1.0677
 6633TIP3    H241535   4.850   4.080   8.099  0.3471  0.6170  2.3874
 6634TIP3   OH241536   0.548   4.444   2.004  0.6019  1.0310  0.1709
 6634TIP3    H141537   0.603   4.388   2.059  1.6630  1.3598 -0.5343
 6634TIP3    H241538   0.610   4.492   1.950 -0.4337 -1.0700 -3.1390
 6635TIP3   OH241539   6.711   6.169   0.746 -0.2180 -0.0610 -0.3937
 6635TIP3    H141540   6.695   6.100   0.681 -0.3484  0.0583 -0.4873
 6635TIP3    H241541   6.644   6.154   0.813  0.5782 -0.8414  0.2464
 6636TIP3   OH241542   1.020   2.921   0.118 -0.5382 -0.7310  0.2310
 6636TIP3    H141543   1.050   3.011   0.115  2.0695 -1.5060  0.5554
 6636TIP3    H241544   0.960   2.913   0.043  1.4366  0.5348 -1.5788
 6637TIP3   OH241545   5.502   1.506   8.753 -0.4818 -0.1802  0.6035
 6637TIP3    H141546   5.476   1.595   8.778 -0.5270 -0.1046  0.2862
 6637TIP3    H241547   5.591   1.498   8.787  0.0781  0.5139 -0.6451
 6638TIP3   OH241548   0.986   6.521   6.948 -0.4372  0.3870 -0.6927
 6638TIP3    H141549   1.025   6.562   6.871 -2.6348  0.6382 -1.7487
 6638TIP3    H241550   0.954   6.594   7.001  1.2279  0.2297  0.6229
 6639TIP3   OH241551   3.971   3.273   0.451 -0.9092  0.0217 -0.1407
 6639TIP3    H141552   4.005   3.362   0.467 -0.0081 -0.1699 -0.9354
 6639TIP3    H241553   3.964   3.267   0.356 -3.5231  0.1568 -0.0304
 6640TIP3   OH241554   1.295   6.388   6.273  0.1717 -0.2566 -0.4467
 6640TIP3    H141555   1.313   6.311   6.219 -0.9070 -0.6707 -0.2337
 6640TIP3    H241556   1.217   6.428   6.233  0.1991  0.2233 -0.0332
 6641TIP3   OH241557   2.924   1.981   1.296  0.4880  0.4581 -0.0044
 6641TIP3    H141558   2.855   1.923   1.264 -1.2151  1.5823  1.5047
 6641TIP3    H241559   2.886   2.068   1.293  1.5101  1.0002  1.7378
 6642TIP3   OH241560   0.758   3.275   0.300 -0.1127  0.3516 -0.3061
 6642TIP3    H141561   0.705   3.350   0.272 -0.9457 -0.4929 -1.0228
 6642TIP3    H241562   0.806   3.307   0.376 -0.3944  1.6404 -0.6444
 6643TIP3   OH241563   0.773   2.494   0.837 -0.2079 -0.1579 -0.2254
 6643TIP3    H141564   0.830   2.537   0.901 -0.5829 -0.0228  0.0198
 6643TIP3    H241565   0.758   2.561   0.770 -0.1608 -0.1627 -0.2412
 6644TIP3   OH241566   6.069   4.304   8.286 -0.2643  0.5027  0.1384
 6644TIP3    H141567   6.035   4.306   8.197 -1.2752 -0.1927  0.4836
 6644TIP3    H241568   6.151   4.352   8.282  0.5422 -0.8984 -1.5160
 6645TIP3   OH241569   4.846   3.188   0.847  0.4270 -0.4692  0.3391
 6645TIP3    H141570   4.887   3.228   0.771  0.0319  0.1412  0.4474
 6645TIP3    H241571   4.896   3.107   0.860  1.5359  0.1977  0.4072
 6646TIP3   OH241572   3.042   3.116   0.713 -0.3510  0.1358  0.5679
 6646TIP3    H141573   2.952   3.129   0.741 -0.3772  1.1951  0.0371
 6646TIP3    H241574   3.035   3.087   0.622 -0.2886 -3.6793  1.6082
 6647TIP3   OH241575   0.720   2.631   1.538 -0.3522  0.1977  0.4065
 6647TIP3    H141576   0.675   2.568   1.482  0.7643  0.2785 -0.6208
 6647TIP3    H241577   0.731   2.585   1.621 -0.8057 -0.4409  0.1227
 6648TIP3   OH241578   5.379   0.717   8.577 -0.1603  0.1385 -0.7044
 6648TIP3    H141579   5.465   0.753   8.599 -1.9857  2.6318  3.6230
 6648TIP3    H241580   5.341   0.781   8.516 -0.1407  0.8231 -0.0060
 6649TIP3   OH241581   3.814   6.140   0.173  0.4569  0.0263 -0.5055
 6649TIP3    H141582   3.858   6.155   0.089  1.2268 -0.0247 -0.1189
 6649TIP3    H241583   3.732   6.189   0.165  0.2678 -0.4179 -1.4877
 6650TIP3   OH241584   5.297   5.213   0.530  0.1144 -0.8724  0.0080
 6650TIP3    H141585   5.343   5.283   0.576 -1.2514 -0.6327  1.0565
 6650TIP3    H241586   5.302   5.237   0.438  0.8672 -0.1418  0.2274
 6651TIP3   OH241587   1.733   4.661   1.592 -0.4034 -0.1870  0.1023
 6651TIP3    H141588   1.704   4.731   1.651 -1.3608 -1.3619  1.0853
 6651TIP3    H241589   1.820   4.638   1.624  0.3698  1.2138 -0.8759
 6652TIP3   OH241590   3.312   1.735   6.848  0.1695  0.2946 -0.0025
 6652TIP3    H141591   3.251   1.808   6.860  0.5893  0.6565 -0.0668
 6652TIP3    H241592   3.362   1.758   6.770  0.5089  0.0798  0.1516
 6653TIP3   OH241593   2.637   2.963   8.636  0.4547 -0.0120  0.6903
 6653TIP3    H141594   2.631   2.917   8.552  1.9459  0.0981  0.4989
 6653TIP3    H241595   2.661   2.895   8.699 -2.5078 -0.4893  1.4629
 6654TIP3   OH241596   2.899   6.726   7.661  0.4915 -0.1205  0.4368
 6654TIP3    H141597   2.904   6.715   7.566  0.0170 -0.4833  0.4485
 6654TIP3    H241598   2.989   6.716   7.691  0.5950 -0.3607  0.0571
 6655TIP3   OH241599   5.789   2.375   0.785  0.4577 -0.1711 -0.1604
 6655TIP3    H141600   5.710   2.417   0.753  0.6466  1.3079  1.1993
 6655TIP3    H241601   5.852   2.384   0.714 -0.0994  0.0997 -0.6254
 6656TIP3   OH241602   6.234   3.198   1.799 -0.1540  0.3853 -0.1289
 6656TIP3    H141603   6.232   3.170   1.708 -2.1322  1.3612 -0.4548
 6656TIP3    H241604   6.198   3.124   1.848  0.8332 -0.1081 -0.1235
 6657TIP3   OH241605   0.617   0.028   7.623  0.3796  0.3156  0.4529
 6657TIP3    H141606   0.699  -0.005   7.585  0.2163  0.7265 -0.2745
 6657TIP3    H241607   0.568   0.063   7.549 -0.3667  0.2787  0.9136
 6658TIP3   OH241608   5.674   2.111   0.622  0.0353  0.4605  0.3118
 6658TIP3    H141609   5.766   2.125   0.599 -0.1367  1.4777  0.1984
 6658TIP3    H241610   5.648   2.191   0.667 -0.4608 -0.3118  1.4516
 6659TIP3   OH241611   6.210   3.012   1.143  0.5850 -0.0457 -0.0644
 6659TIP3    H141612   6.152   3.012   1.219 -0.4059  1.4969 -0.7514
 6659TIP3    H241613   6.220   3.105   1.120  2.3507 -0.3504 -0.7225
 6660TIP3   OH241614   3.600   3.412   8.851  0.0377 -0.1037 -0.4690
 6660TIP3    H141615   3.673   3.469   8.874  0.9802 -1.3463 -0.2909
 6660TIP3    H241616   3.639   3.326   8.839 -1.2049 -0.5376 -1.6939
 6661TIP3   OH241617   3.116   5.096   6.894  0.6107 -0.2114 -0.0329
 6661TIP3    H141618   3.146   5.009   6.865  1.5906 -0.1207  0.6914
 6661TIP3    H241619   3.168   5.115   6.971 -1.9580 -0.4673  1.9105
 6662TIP3   OH241620   4.185   3.096   0.524 -0.1634 -0.7844 -0.1989
 6662TIP3    H141621   4.153   3.163   0.464 -0.7913 -0.8774  0.0304
 6662TIP3    H241622   4.156   3.124   0.610 -1.1011 -1.7302 -0.1823
 6663TIP3   OH241623   1.649   1.126   1.346 -0.3626  0.1429 -0.2173
 6663TIP3    H141624   1.563   1.085   1.335 -0.7536  0.0690  2.3090
 6663TIP3    H241625   1.646   1.161   1.435  0.3145  4.8181 -1.7883
 6664TIP3   OH241626   4.087   0.197   1.677 -0.3165 -0.1937 -0.3307
 6664TIP3    H141627   4.096   0.188   1.772  1.0412  0.6149 -0.3551
 6664TIP3    H241628   4.027   0.270   1.665  1.4594  1.3760 -0.0443
 6665TIP3   OH241629   3.128   6.788   1.213 -0.1155 -0.2121 -0.4261
 6665TIP3    H141630   3.128   6.865   1.269  0.3093 -0.4325 -0.1132
 6665TIP3    H241631   3.066   6.728   1.256  0.0435 -0.2951 -0.3113
 6666TIP3   OH241632   1.870   5.063   7.561 -0.6603 -0.7290 -0.7070
 6666TIP3    H141633   1.933   5.127   7.529  0.0943 -1.0974  0.0177
 6666TIP3    H241634   1.822   5.036   7.482 -1.4582  1.1813 -0.9562
 6667TIP3   OH241635   0.222   1.635   8.585  0.0738 -0.4118  0.1313
 6667TIP3    H141636   0.186   1.691   8.517 -0.6259 -1.2363 -0.1919
 6667TIP3    H241637   0.216   1.546   8.550 -0.8066 -0.9126  1.4631
 6668TIP3   OH241638   2.745   4.658   1.104  0.4129  0.4870 -0.0803
 6668TIP3    H141639   2.677   4.627   1.164  0.9301 -1.3466 -0.3794
 6668TIP3    H241640   2.825   4.618   1.136  0.7077 -0.5473 -1.9418
 6669TIP3   OH241641   3.809   4.346   1.589 -0.6227 -0.1208  0.1100
 6669TIP3    H141642   3.813   4.318   1.498  0.0716 -1.4398  0.5146
 6669TIP3    H241643   3.841   4.436   1.589  0.8982 -0.6239 -0.7551
 6670TIP3   OH241644   6.126   3.313   1.237 -0.6226 -0.0521 -0.3931
 6670TIP3    H141645   6.075   3.352   1.167 -0.8528 -1.6562 -1.1478
 6670TIP3    H241646   6.117   3.374   1.310 -1.3044  1.0734 -1.3891
 6671TIP3   OH241647   1.489   5.949   7.587  0.5230 -0.1229 -0.5617
 6671TIP3    H141648   1.541   5.940   7.507  1.1673  0.9088 -0.2723
 6671TIP3    H241649   1.508   6.037   7.618 -0.7361 -0.0451  0.0276
 6672TIP3   OH241650   0.330   5.970   8.601 -0.5742 -0.5966 -0.0897
 6672TIP3    H141651   0.417   5.981   8.639 -0.4728  0.1616 -0.5283
 6672TIP3    H241652   0.280   6.045   8.633 -0.9495 -0.8016 -0.1828
 6673TIP3   OH241653   2.709   1.750   0.358 -0.0295  0.2050 -0.7234
 6673TIP3    H141654   2.780   1.735   0.421  0.5532 -0.9056 -1.6261
 6673TIP3    H241655   2.651   1.674   0.369  1.2423 -1.1985 -3.0514
 6674TIP3   OH241656   3.548   0.108   0.841 -0.7388  1.2302  0.5585
 6674TIP3    H141657   3.591   0.023   0.827 -0.9711  1.2657 -0.4988
 6674TIP3    H241658   3.617   0.172   0.826 -1.2933  1.3278 -2.1606
 6675TIP3   OH241659   5.396   2.980   6.925  0.0001  0.5823  0.0916
 6675TIP3    H141660   5.362   3.018   7.006 -2.5931 -0.0041 -0.6553
 6675TIP3    H241661   5.389   3.050   6.860  0.5046  0.5202 -0.0401
 6676TIP3   OH241662   0.262   4.263   6.537  0.3471 -0.3532  0.1549
 6676TIP3    H141663   0.247   4.334   6.599  0.2467 -0.8499  0.7086
 6676TIP3    H241664   0.192   4.201   6.553  0.9979 -1.0520  0.3766
 6677TIP3   OH241665   6.721   0.095   0.387 -0.1181  0.1081 -0.0027
 6677TIP3    H141666   6.784   0.074   0.317 -0.0896 -2.4198  0.6685
 6677TIP3    H241667   6.671   0.014   0.398 -1.3788  1.0687  1.6381
 6678TIP3   OH241668   2.459   3.932   8.797  0.1250  0.0221  0.2038
 6678TIP3    H141669   2.396   3.944   8.726  1.0925 -0.5465 -0.7893
 6678TIP3    H241670   2.516   3.861   8.767 -0.0349 -0.9409  2.0019
 6679TIP3   OH241671   5.905   4.649   1.208 -0.4070  0.2701  0.6122
 6679TIP3    H141672   5.926   4.723   1.150  0.1362  0.0982  0.5830
 6679TIP3    H241673   5.985   4.634   1.258 -0.0015 -1.2692 -0.4432
 6680TIP3   OH241674   4.564   5.017   8.611  0.0849  0.2833 -0.1697
 6680TIP3    H141675   4.504   5.018   8.686 -0.1544  1.6417 -0.3488
 6680TIP3    H241676   4.577   4.924   8.592 -0.4296 -0.0690  1.0871
 6681TIP3   OH241677   2.578   5.730   2.389 -0.0192 -0.0573 -0.1477
 6681TIP3    H141678   2.573   5.682   2.472 -0.1832 -1.2417 -0.8221
 6681TIP3    H241679   2.567   5.663   2.322  0.1909  0.8743 -1.1384
 6682TIP3   OH241680   3.519   5.442   0.844  0.3751  0.4341  0.2473
 6682TIP3    H141681   3.562   5.365   0.881 -1.4596 -0.6415  0.2713
 6682TIP3    H241682   3.544   5.514   0.901  0.8405 -0.4529  1.1883
 6683TIP3   OH241683   1.318   3.278   1.915 -0.1347  0.4331 -0.4634
 6683TIP3    H141684   1.244   3.333   1.889 -0.5407  0.8088  1.4097
 6683TIP3    H241685   1.344   3.311   2.001  2.1695  0.2383 -1.0233
 6684TIP3   OH241686   6.599   1.466   0.433 -0.2548  0.0715  0.0476
 6684TIP3    H141687   6.570   1.378   0.457 -1.4731  0.1541 -0.9938
 6684TIP3    H241688   6.647   1.454   0.351 -1.5743  0.5094 -0.8114
 6685TIP3   OH241689   1.317   6.423   0.030  0.0121 -0.0832 -0.0441
 6685TIP3    H141690   1.228   6.412   0.063 -0.1333 -2.8209 -1.0599
 6685TIP3    H241691   1.306   6.469  -0.053 -0.5356 -0.8697 -0.4197
 6686TIP3   OH241692   4.547   5.615   1.473 -0.1816  0.4994 -0.3261
 6686TIP3    H141693   4.518   5.705   1.458  0.1765  0.8399  0.8854
 6686TIP3    H241694   4.478   5.576   1.527 -0.1921  0.1284 -0.5999
 6687TIP3   OH241695   2.174   1.081   0.878  0.7718 -0.5910 -0.2347
 6687TIP3    H141696   2.115   1.154   0.896  2.4799  0.7757  0.1410
 6687TIP3    H241697   2.219   1.105   0.797  0.6330 -1.7261 -0.6691
 6688TIP3   OH241698   0.969   3.624   8.197  0.5144  0.0304  0.2026
 6688TIP3    H141699   0.996   3.715   8.207  1.2160 -0.2867  1.3713
 6688TIP3    H241700   0.947   3.616   8.104  1.3966  1.1245 -0.1285
 6689TIP3   OH241701   0.749   0.545   7.795 -0.3087  0.0399 -0.0326
 6689TIP3    H141702   0.796   0.627   7.780 -1.9423  1.4278  1.8850
 6689TIP3    H241703   0.805   0.496   7.855 -1.2833  1.8125  2.4902
 6690TIP3   OH241704   5.811   3.830   1.990 -0.2207  0.6375 -0.3436
 6690TIP3    H141705   5.846   3.741   1.991  0.7534  0.9951  0.8949
 6690TIP3    H241706   5.866   3.878   2.052  0.0718  2.4269 -1.8788
 6691TIP3   OH241707   5.960   3.494   7.545 -0.0085 -0.5972 -0.3675
 6691TIP3    H141708   5.978   3.403   7.568  0.0065  0.0621  2.6766
 6691TIP3    H241709   6.020   3.545   7.599 -2.2584  1.2880  0.5295
 6692TIP3   OH241710   6.664   3.405   7.099  0.5399  0.3599  0.1078
 6692TIP3    H141711   6.630   3.393   7.188  0.7186 -0.3023  0.0926
 6692TIP3    H241712   6.760   3.408   7.110  0.6662 -1.3795 -0.2177
 6693TIP3   OH241713   4.136   1.849   7.904 -0.2535 -0.0135 -0.8094
 6693TIP3    H141714   4.100   1.842   7.815  1.3416  1.1580 -1.6053
 6693TIP3    H241715   4.212   1.791   7.904 -0.7977 -0.7606  0.1368
 6694TIP3   OH241716   1.669   5.245   0.740  0.1158  0.0639 -0.5535
 6694TIP3    H141717   1.745   5.187   0.735 -0.7656 -1.3577  1.3855
 6694TIP3    H241718   1.673   5.282   0.828 -1.8582 -0.6726 -0.1127
 6695TIP3   OH241719   1.993   0.075   7.029 -0.0859  0.6378  0.4835
 6695TIP3    H141720   1.903   0.043   7.021  0.3345 -0.2971 -1.0486
 6695TIP3    H241721   2.018   0.055   7.119 -2.0193  2.6745  1.5498
 6696TIP3   OH241722   6.006   6.143   1.574 -0.2157  0.4120  0.0299
 6696TIP3    H141723   5.977   6.181   1.491 -0.4920 -0.8665 -0.4668
 6696TIP3    H241724   6.084   6.194   1.597  0.3660  0.2367 -1.4554
 6697TIP3   OH241725   5.428   6.157   0.592 -0.3569 -0.1360 -0.4032
 6697TIP3    H141726   5.448   6.136   0.500  2.0472  0.7849 -0.1749
 6697TIP3    H241727   5.352   6.214   0.588  0.8716  1.5086 -2.0461
 6698TIP3   OH241728   2.562   1.092   7.291 -0.3150 -0.1526  0.0177
 6698TIP3    H141729   2.635   1.035   7.317  1.2008  1.7194  0.0894
 6698TIP3    H241730   2.526   1.124   7.374  0.5577  1.0155 -0.0262
 6699TIP3   OH241731   1.308   2.651   6.926  0.4833 -0.4754 -0.5238
 6699TIP3    H141732   1.382   2.608   6.970  0.1752 -0.0382  0.4478
 6699TIP3    H241733   1.333   2.744   6.923 -0.7536 -0.0299  1.4067
 6700TIP3   OH241734   6.578   1.209   2.263 -0.9944  0.6176 -0.4924
 6700TIP3    H141735   6.567   1.304   2.262 -3.2078  0.3916 -1.0035
 6700TIP3    H241736   6.520   1.179   2.332 -0.1271 -0.3827 -0.1633
 6701TIP3   OH241737   4.043   3.220   7.157  0.2332  0.1772 -0.4933
 6701TIP3    H141738   4.029   3.305   7.199  1.4643  0.1647 -0.0340
 6701TIP3    H241739   4.020   3.156   7.225 -0.3086  0.1376 -0.7093
 6702TIP3   OH241740   3.565   6.571   1.835  0.3093 -0.5418 -0.2798
 6702TIP3    H141741   3.536   6.490   1.879 -0.5034  0.7864  1.7864
 6702TIP3    H241742   3.657   6.579   1.858 -0.2682  0.5048  1.9540
 6703TIP3   OH241743   1.107   5.445   7.905 -0.1942 -0.0752  0.1665
 6703TIP3    H141744   1.108   5.465   7.811  0.0848 -0.5296  0.0682
 6703TIP3    H241745   1.071   5.523   7.946 -1.1186 -0.1862 -0.3991
 6704TIP3   OH241746   5.115   3.883   2.431  0.1535 -0.0671 -0.1369
 6704TIP3    H141747   5.044   3.946   2.447  0.8810  0.7703 -0.1255
 6704TIP3    H241748   5.084   3.801   2.469 -1.1112  0.1005 -0.7603
 6705TIP3   OH241749   3.488   6.254   6.972  0.1205 -0.6540 -0.1388
 6705TIP3    H141750   3.458   6.240   6.882 -1.7474  0.9072  0.1678
 6705TIP3    H241751   3.481   6.348   6.985  1.0705 -0.7665  1.4208
 6706TIP3   OH241752   3.794   1.558   6.863 -0.1975 -0.0782  0.4456
 6706TIP3    H141753   3.703   1.584   6.872 -0.5825 -0.8889 -0.7778
 6706TIP3    H241754   3.818   1.585   6.774  0.9448  0.6252  0.9352
 6707TIP3   OH241755   4.003   0.860   0.594  0.0997 -0.1489 -0.0427
 6707TIP3    H141756   4.052   0.937   0.563  0.4296 -0.6634 -0.8318
 6707TIP3    H241757   4.068   0.791   0.600 -0.0452 -0.1805  1.4379
 6708TIP3   OH241758   6.005   5.977   7.861 -0.3142 -0.2675  0.1269
 6708TIP3    H141759   5.924   5.939   7.826  0.7409 -1.1867 -1.4441
 6708TIP3    H241760   6.011   6.063   7.821  0.8046 -1.2485 -2.0289
 6709TIP3   OH241761   5.525   5.942   0.954 -0.5660 -0.2213  0.5803
 6709TIP3    H141762   5.599   6.003   0.960 -0.9599  0.1346  3.5869
 6709TIP3    H241763   5.549   5.869   1.012 -1.8119 -0.9448  0.2149
 6710TIP3   OH241764   1.575   1.887   7.337  0.0802  0.6312  0.5128
 6710TIP3    H141765   1.559   1.980   7.357 -1.0421  0.6624 -0.4144
 6710TIP3    H241766   1.498   1.842   7.371  0.8743 -0.0520  1.4543
 6711TIP3   OH241767   0.395   4.571   0.732  0.0776  0.3483  0.2833
 6711TIP3    H141768   0.340   4.510   0.780 -1.0788  1.6462  0.6543
 6711TIP3    H241769   0.467   4.591   0.792 -0.2271  0.3285  0.6598
 6712TIP3   OH241770   4.508   2.475   1.100 -0.2891 -0.2411  0.0138
 6712TIP3    H141771   4.493   2.505   1.010 -0.2521  2.9648  0.9339
 6712TIP3    H241772   4.603   2.486   1.113 -0.2216 -1.1277  0.3131
 6713TIP3   OH241773   2.039   3.940   1.897  0.6440 -0.1579 -0.0050
 6713TIP3    H141774   1.947   3.946   1.872  0.9362 -0.5557 -1.2501
 6713TIP3    H241775   2.038   3.890   1.978 -0.1790 -1.0510 -0.5444
 6714TIP3   OH241776   5.491   2.753   7.096  0.1095 -0.5311  0.0420
 6714TIP3    H141777   5.439   2.833   7.084 -0.0428 -0.5331  0.6558
 6714TIP3    H241778   5.491   2.711   7.010 -0.2293 -0.1193 -0.1608
 6715TIP3   OH241779   2.651   5.016   0.563  0.0609 -0.2583  0.0316
 6715TIP3    H141780   2.727   4.971   0.525  0.2441 -0.2846  0.4220
 6715TIP3    H241781   2.580   4.999   0.502  0.3559 -0.2860 -0.3071
 6716TIP3   OH241782   6.733   4.348   8.245 -0.2903  0.2161  0.2417
 6716TIP3    H141783   6.681   4.424   8.221 -0.3666 -0.2161 -1.0677
 6716TIP3    H241784   6.690   4.312   8.322 -0.6453  1.1083  0.4659
 6717TIP3   OH241785   0.078   4.666   6.361 -0.3577  0.4166  0.1790
 6717TIP3    H141786   0.060   4.573   6.379 -3.3591  0.9992  0.7488
 6717TIP3    H241787   0.024   4.686   6.284 -0.4746  1.8841  0.6137
 6718TIP3   OH241788   1.553   1.992   1.289 -0.2580 -0.3687 -0.1742
 6718TIP3    H141789   1.583   1.956   1.205 -0.3712 -1.1082  0.0901
 6718TIP3    H241790   1.493   2.062   1.265  2.4932  1.9694 -0.7517
 6719TIP3   OH241791   1.497   6.818   7.270  0.3250 -0.2637  0.1692
 6719TIP3    H141792   1.415   6.823   7.318  0.6292  0.0829  0.6560
 6719TIP3    H241793   1.503   6.726   7.243 -1.5602  0.2069 -2.2734
 6720TIP3   OH241794   6.729   3.880   2.228 -0.0805 -0.2445  0.1423
 6720TIP3    H141795   6.727   3.959   2.174 -0.2324 -0.0029  0.4960
 6720TIP3    H241796   6.639   3.869   2.259 -0.3797 -1.3700 -1.0523
 6721TIP3   OH241797   5.386   5.602   6.452 -0.2462 -0.8943  0.7071
 6721TIP3    H141798   5.450   5.559   6.395 -1.7464  0.9625 -2.6831
 6721TIP3    H241799   5.303   5.595   6.406 -1.4730  1.3548  2.3252
 6722TIP3   OH241800   6.540   5.217   0.321  0.1736 -0.2727  0.0054
 6722TIP3    H141801   6.564   5.308   0.302 -0.9862  0.1156  0.2768
 6722TIP3    H241802   6.490   5.190   0.244  2.0386 -1.3155 -0.9004
 6723TIP3   OH241803   0.075   0.622   7.955 -0.1566 -0.7336 -0.8286
 6723TIP3    H141804   0.124   0.592   8.032  1.5189  1.6049 -0.8771
 6723TIP3    H241805   0.121   0.581   7.881  0.8041  0.2008 -0.7766
 6724TIP3   OH241806   3.764   6.296   1.283  0.3226 -0.1237 -0.1953
 6724TIP3    H141807   3.853   6.281   1.315 -0.5542 -0.7854  2.2000
 6724TIP3    H241808   3.712   6.310   1.363 -2.1192 -2.0141 -1.3174
 6725TIP3   OH241809   0.617   4.710   7.403 -0.5433  0.4829 -0.9016
 6725TIP3    H141810   0.551   4.731   7.336  0.0328 -0.2303 -1.7024
 6725TIP3    H241811   0.666   4.792   7.414 -2.7454  1.6622  1.1426
 6726TIP3   OH241812   2.740   0.372   8.385  0.2863 -0.1224  0.5011
 6726TIP3    H141813   2.721   0.278   8.388 -3.0318  0.4603  2.4400
 6726TIP3    H241814   2.764   0.394   8.475  1.3644  0.8871 -0.0082
 6727TIP3   OH241815   5.539   2.578   6.872 -0.0011 -0.6104 -0.1452
 6727TIP3    H141816   5.608   2.519   6.842 -0.3283  0.9377 -4.6022
 6727TIP3    H241817   5.461   2.549   6.826 -0.6051  2.0227 -0.9374
 6728TIP3   OH241818   6.728   3.130   8.072 -0.3256 -0.1184  0.1837
 6728TIP3    H141819   6.723   3.225   8.079 -1.0532  0.0175 -1.6442
 6728TIP3    H241820   6.645   3.104   8.033  0.3180 -1.3884 -0.4121
 6729TIP3   OH241821   3.121   3.714   6.869  0.4607  0.1263  0.0682
 6729TIP3    H141822   3.187   3.781   6.853 -0.2557  0.7017 -0.5166
 6729TIP3    H241823   3.041   3.749   6.831  0.0336 -0.9863 -0.0975
 6730TIP3   OH241824   1.990   6.023   0.910  0.0348  0.1714  0.3017
 6730TIP3    H141825   2.081   5.995   0.905  0.1038  0.5154 -0.7727
 6730TIP3    H241826   1.956   5.982   0.989  1.2262  0.3540  0.9331
 6731TIP3   OH241827   2.251   2.331   6.133  0.3212 -0.0169  0.2098
 6731TIP3    H141828   2.271   2.373   6.217 -0.1513 -1.3855  1.0457
 6731TIP3    H241829   2.298   2.383   6.068  0.1486  1.4759  1.2447
 6732TIP3   OH241830   0.744   4.844   7.086  0.2211  0.0649  0.4131
 6732TIP3    H141831   0.700   4.869   7.005 -0.2831 -0.3371  0.5596
 6732TIP3    H241832   0.769   4.753   7.073 -0.6961 -0.2921  1.0606
 6733TIP3   OH241833   1.904   4.519   8.074  0.5973 -0.0980  0.7118
 6733TIP3    H141834   1.904   4.613   8.092  1.3150  0.4064 -1.6226
 6733TIP3    H241835   1.811   4.495   8.074  0.3104  0.9349 -0.1281
 6734TIP3   OH241836   5.677   1.875   7.245 -0.2323 -0.1284 -0.1937
 6734TIP3    H141837   5.766   1.911   7.250 -0.7495  1.1249  0.3922
 6734TIP3    H241838   5.681   1.812   7.173  1.4528 -1.0518  0.6335
 6735TIP3   OH241839   5.501   4.063   8.531  0.1267 -0.4480 -0.4549
 6735TIP3    H141840   5.528   3.995   8.593  2.5904 -0.8834 -1.8506
 6735TIP3    H241841   5.435   4.021   8.476  0.1149 -1.0323 -0.0049
 6736TIP3   OH241842   5.061   3.206   1.298 -0.0884 -0.4744  0.0028
 6736TIP3    H141843   5.007   3.265   1.246  0.4827  0.2093  0.1609
 6736TIP3    H241844   5.014   3.123   1.299 -1.1640  0.1238  0.1881
 6737TIP3   OH241845   2.188   4.871   8.172  0.1124 -0.1482  0.4750
 6737TIP3    H141846   2.106   4.824   8.188 -0.1399  0.1526  0.0972
 6737TIP3    H241847   2.170   4.924   8.094  0.5630  0.1695  0.5835
 6738TIP3   OH241848   4.007   6.501   0.939 -0.0090  0.3660 -0.3114
 6738TIP3    H141849   4.078   6.503   1.003  0.0633  0.2758 -0.3882
 6738TIP3    H241850   4.037   6.557   0.867 -0.3724  1.0090  0.0263
 6739TIP3   OH241851   0.484   3.776   7.315  0.2553  0.6202  0.2694
 6739TIP3    H141852   0.503   3.684   7.333  2.0288  1.3694  2.7804
 6739TIP3    H241853   0.389   3.783   7.321 -0.1605 -1.3968 -2.2865
 6740TIP3   OH241854   2.391   2.809   0.129  0.6862  0.0562  0.4840
 6740TIP3    H141855   2.465   2.769   0.175  2.0516 -0.4778 -1.9729
 6740TIP3    H241856   2.360   2.741   0.070 -0.5478  0.9063  0.1049
 6741TIP3   OH241857   3.458   2.355   1.384  0.3175  0.3761 -0.3457
 6741TIP3    H141858   3.481   2.327   1.295 -2.4723  0.1873 -1.1065
 6741TIP3    H241859   3.429   2.446   1.374 -1.7779 -0.2041 -0.0415
 6742TIP3   OH241860   1.962   5.189   0.338 -0.4227  0.3480 -0.1731
 6742TIP3    H141861   2.006   5.249   0.399  0.4157  0.1290 -0.5449
 6742TIP3    H241862   1.996   5.102   0.361 -0.9002  0.1330 -0.2652
 6743TIP3   OH241863   5.357   6.166   1.676 -0.1324  0.0543 -0.5797
 6743TIP3    H141864   5.368   6.250   1.632  0.6879  0.2872  0.0587
 6743TIP3    H241865   5.340   6.104   1.604  1.9394  0.2955 -1.3304
 6744TIP3   OH241866   3.695   5.200   0.898  0.1903 -0.0080 -0.1126
 6744TIP3    H141867   3.790   5.193   0.888 -0.0691 -1.4504 -1.8819
 6744TIP3    H241868   3.659   5.127   0.848 -1.7913 -1.1247  2.6697
 6745TIP3   OH241869   0.896   5.060   8.616  0.2634  0.1121  0.3882
 6745TIP3    H141870   0.953   5.136   8.616 -0.0536  0.3555  0.5308
 6745TIP3    H241871   0.937   4.998   8.677 -0.0932  0.6478  1.1900
 6746TIP3   OH241872   5.258   3.862   0.143  0.2464 -0.0915 -0.5367
 6746TIP3    H141873   5.258   3.958   0.147 -1.1946 -0.1174  1.1708
 6746TIP3    H241874   5.179   3.841   0.094 -0.6869 -0.4108  1.0481
 6747TIP3   OH241875   6.379   6.088   0.548  0.0053 -0.1626 -0.0387
 6747TIP3    H141876   6.358   5.997   0.566 -1.8384  0.3803  0.7925
 6747TIP3    H241877   6.337   6.137   0.619  1.0198  1.3332 -0.4141
 6748TIP3   OH241878   0.272   3.336   6.043  0.0657 -0.2735  0.6454
 6748TIP3    H141879   0.322   3.261   6.010  1.8185 -1.0859  4.5072
 6748TIP3    H241880   0.199   3.296   6.090 -1.2360  0.7141 -0.4693
 6749TIP3   OH241881   5.896   3.779   7.369  0.1974 -0.1509 -0.1153
 6749TIP3    H141882   5.871   3.871   7.375 -0.4402 -0.3096 -0.2832
 6749TIP3    H241883   5.841   3.735   7.433  1.3001 -0.2657  0.7799
 6750TIP3   OH241884   6.699   4.079   0.269 -0.5077 -0.1651  0.3845
 6750TIP3    H141885   6.776   4.054   0.219  0.0159 -0.4037  1.2912
 6750TIP3    H241886   6.655   3.997   0.289 -1.3734  0.0122 -0.6889
 6751TIP3   OH241887   2.362   2.760   6.765 -1.0124  0.0003 -0.6409
 6751TIP3    H141888   2.270   2.748   6.743 -1.0427  2.4752 -2.2769
 6751TIP3    H241889   2.409   2.735   6.685 -0.5394  1.6007 -0.9057
 6752TIP3   OH241890   4.852   1.733   0.858 -0.1079  0.0969  0.3371
 6752TIP3    H141891   4.817   1.822   0.869  1.4022  1.0227 -1.7482
 6752TIP3    H241892   4.938   1.736   0.899  0.0513 -0.3510  0.0395
 6753TIP3   OH241893   1.978   4.838   0.317  0.7360 -1.1137 -0.3547
 6753TIP3    H141894   1.905   4.894   0.289  3.7193  1.2208 -4.5556
 6753TIP3    H241895   1.947   4.749   0.301 -1.6131 -0.3408 -0.5860
 6754TIP3   OH241896   0.094   5.821   8.623  0.2109  0.1068  0.4618
 6754TIP3    H141897   0.050   5.843   8.705 -1.5572  0.4039 -0.5204
 6754TIP3    H241898   0.182   5.859   8.632  0.5243 -1.0280  2.7269
 6755TIP3   OH241899   5.904   3.578   6.502  0.5277 -0.2473  0.2474
 6755TIP3    H141900   5.922   3.519   6.429  1.6124  1.6539 -1.1198
 6755TIP3    H241901   5.880   3.661   6.461  0.0948  0.6005  2.0778
 6756TIP3   OH241902   2.671   2.049   0.316  0.8572  0.2555 -0.4641
 6756TIP3    H141903   2.629   1.981   0.369 -0.2524  0.3723 -1.1484
 6756TIP3    H241904   2.682   2.009   0.230  0.2392  0.9164 -0.8606
 6757TIP3   OH241905   1.771   5.084   1.300  0.1549 -0.2946  0.0815
 6757TIP3    H141906   1.693   5.115   1.347 -0.0956 -0.2050 -0.3881
 6757TIP3    H241907   1.840   5.146   1.325 -0.3459  0.6749 -0.8536
 6758TIP3   OH241908   3.199   2.415   2.108 -0.7708  0.2592 -0.3290
 6758TIP3    H141909   3.256   2.469   2.163 -0.3696  1.2014 -1.6337
 6758TIP3    H241910   3.113   2.421   2.150 -0.3561  0.4512  0.5307
 6759TIP3   OH241911   0.165   0.773   1.081 -0.4770  0.1006 -0.6752
 6759TIP3    H141912   0.151   0.782   1.175 -0.4864 -2.3344 -0.3851
 6759TIP3    H241913   0.239   0.831   1.062  0.3979 -0.3516  1.1076
 6760TIP3   OH241914   6.808   2.624   1.223 -0.3700  0.6526  0.1053
 6760TIP3    H141915   6.812   2.546   1.279  0.3046  0.4395 -0.2318
 6760TIP3    H241916   6.850   2.597   1.141  1.2502  1.8004  0.5114
 6761TIP3   OH241917   6.343   3.244   7.305  0.2233 -0.0790 -0.0036
 6761TIP3    H141918   6.387   3.159   7.298  1.8568  0.7984 -0.7947
 6761TIP3    H241919   6.255   3.228   7.271  0.7738 -1.2650 -0.9183
 6762TIP3   OH241920   1.613   5.620   8.295  0.0258  0.2249 -0.2988
 6762TIP3    H141921   1.639   5.594   8.207  1.2184 -0.4590  0.2366
 6762TIP3    H241922   1.693   5.648   8.338 -0.4146 -0.0655  0.7720
 6763TIP3   OH241923   0.996   3.227   0.142  0.0326  0.7226 -0.1470
 6763TIP3    H141924   1.059   3.267   0.202 -0.3111 -0.1627  0.8440
 6763TIP3    H241925   0.925   3.197   0.200 -0.5480  0.2987 -1.0687
 6764TIP3   OH241926   3.956   1.550   7.086  0.0504  0.1612 -0.2678
 6764TIP3    H141927   3.915   1.628   7.123 -0.7533 -0.1991 -0.3606
 6764TIP3    H241928   3.915   1.540   6.999  0.3760 -0.1791 -0.3861
 6765TIP3   OH241929   0.605   2.994   7.682 -0.4722 -0.0450  0.0863
 6765TIP3    H141930   0.626   3.040   7.763 -0.0779  0.7255 -0.4446
 6765TIP3    H241931   0.691   2.972   7.645 -0.6536 -0.8138  0.1040
 6766TIP3   OH241932   0.067   0.291   0.587 -0.2224 -0.9208  0.4626
 6766TIP3    H141933   0.092   0.259   0.674  2.0421 -1.0925 -0.1826
 6766TIP3    H241934   0.066   0.212   0.532 -3.7154 -1.1580  0.6603
 6767TIP3   OH241935   3.812   0.205   2.399  0.1698 -0.3323  0.2113
 6767TIP3    H141936   3.740   0.143   2.398 -1.2109  1.1974  0.1733
 6767TIP3    H241937   3.855   0.195   2.314 -1.2870  0.1587 -0.6108
 6768TIP3   OH241938   3.414   2.244   8.258  0.4622  0.1700  0.4219
 6768TIP3    H141939   3.450   2.267   8.173  0.2767 -0.6367  0.1186
 6768TIP3    H241940   3.381   2.155   8.248 -1.6241  0.8557  0.6794
 6769TIP3   OH241941   5.924   6.633   7.932  0.1612 -0.1240  0.1852
 6769TIP3    H141942   5.933   6.696   7.860  2.3035 -1.7752 -1.1225
 6769TIP3    H241943   5.990   6.660   7.996 -0.5588  0.3317  0.7446
 6770TIP3   OH241944   2.612   0.658   8.356  0.2776  0.1370 -0.6311
 6770TIP3    H141945   2.705   0.654   8.334  0.0806 -0.3276 -1.4538
 6770TIP3    H241946   2.599   0.586   8.418  0.6922  0.9651  0.4322
 6771TIP3   OH241947   5.087   5.297   0.954 -0.1800 -0.0690 -0.2513
 6771TIP3    H141948   5.111   5.372   0.901  2.0896  0.1070  0.8714
 6771TIP3    H241949   5.141   5.225   0.920 -0.2505 -0.4697  0.4577
 6772TIP3   OH241950   2.369   0.587   7.069 -0.1669  0.3949 -0.2947
 6772TIP3    H141951   2.460   0.616   7.062 -0.2388  0.3784 -1.3560
 6772TIP3    H241952   2.347   0.602   7.161  1.2846 -0.7295  0.2917
 6773TIP3   OH241953   2.007   5.783   2.297 -0.3710  0.6377 -0.3770
 6773TIP3    H141954   1.980   5.739   2.217  0.7156  0.4429 -0.6465
 6773TIP3    H241955   1.938   5.848   2.314 -1.4683 -0.4673 -0.5237
 6774TIP3   OH241956   0.705   6.152   8.192  0.0604 -0.1568  0.2704
 6774TIP3    H141957   0.683   6.066   8.156 -3.4361  0.7100  0.0063
 6774TIP3    H241958   0.775   6.134   8.256 -1.1462 -3.3351  0.8837
 6775TIP3   OH241959   2.945   5.048   1.098  0.1184 -0.2952 -0.7325
 6775TIP3    H141960   3.010   5.071   1.164  1.0882  2.1995 -2.3955
 6775TIP3    H241961   2.985   4.976   1.049  0.1568 -0.9696  0.2674
 6776TIP3   OH241962   2.415   0.096   7.038  0.5156 -0.1169  0.1306
 6776TIP3    H141963   2.339   0.044   7.011  0.1129 -0.6996  2.2425
 6776TIP3    H241964   2.379   0.162   7.098  1.2783  1.5685 -1.1627
 6777TIP3   OH241965   3.029   5.921   0.555 -0.3866  0.4057 -0.4761
 6777TIP3    H141966   3.043   5.974   0.476 -0.8433 -0.3130 -1.0526
 6777TIP3    H241967   3.039   5.831   0.525 -0.4740  0.1281  0.3155
 6778TIP3   OH241968   1.433   6.656   1.299 -0.3094  0.2439 -0.4128
 6778TIP3    H141969   1.455   6.647   1.392 -0.4627  1.9696 -0.1651
 6778TIP3    H241970   1.486   6.730   1.269  2.3611 -2.2994 -2.6344
 6779TIP3   OH241971   0.351   0.092   8.576  0.4843 -0.4580  0.3811
 6779TIP3    H141972   0.311   0.048   8.501  0.3136 -1.2173  0.8963
 6779TIP3    H241973   0.444   0.094   8.556  0.1308  2.6025 -1.4905
 6780TIP3   OH241974   3.303   4.807   1.910 -0.2054 -0.4135  0.5766
 6780TIP3    H141975   3.307   4.854   1.993 -1.1605  1.1566 -0.2144
 6780TIP3    H241976   3.292   4.876   1.844 -1.6993 -1.7427 -0.6452
 6781TIP3   OH241977   0.067   1.202   7.057 -0.4093 -0.2567  0.2188
 6781TIP3    H141978   0.058   1.222   6.963  1.6193  0.9115  0.2241
 6781TIP3    H241979   0.090   1.286   7.097  0.5911 -1.1126  1.4846
 6782TIP3   OH241980   3.136   5.436   0.370  0.0303  0.3459 -0.0982
 6782TIP3    H141981   3.098   5.408   0.287  0.7615 -0.7198 -0.0977
 6782TIP3    H241982   3.129   5.360   0.427 -1.0748  1.2667  1.0684
 6783TIP3   OH241983   5.202   4.711   0.990  0.4435 -0.1703 -0.5298
 6783TIP3    H141984   5.295   4.732   0.986  0.1269  1.1287 -2.0130
 6783TIP3    H241985   5.199   4.619   1.018  2.0301  0.6222  2.7503
 6784TIP3   OH241986   4.012   0.344   1.067  0.0166  0.6837 -0.2683
 6784TIP3    H141987   4.069   0.320   0.994  0.3504 -0.0046  0.1989
 6784TIP3    H241988   4.073   0.368   1.137 -0.2902  0.9012 -0.0763
 6785TIP3   OH241989   4.700   3.993   7.621  0.4400 -0.1810  0.3342
 6785TIP3    H141990   4.728   3.903   7.605 -1.0391 -0.5659 -0.3289
 6785TIP3    H241991   4.616   3.984   7.666  0.5534  0.8729  0.7717
 6786TIP3   OH241992   5.565   1.046   8.506 -0.5234 -0.0594  0.0770
 6786TIP3    H141993   5.603   1.133   8.514  1.3490 -0.8885  0.7523
 6786TIP3    H241994   5.551   1.034   8.412  0.7247  0.3599 -0.1735
 6787TIP3   OH241995   1.127   5.138   7.698 -0.1423 -0.0157  0.2855
 6787TIP3    H141996   1.123   5.231   7.676  1.5594  0.2016  0.7239
 6787TIP3    H241997   1.197   5.103   7.643  1.2813 -0.3535  2.1652
 6788TIP3   OH241998   4.755   4.096   8.516 -0.2564 -0.0509 -0.1433
 6788TIP3    H141999   4.748   4.191   8.509  1.0432  0.1665  1.1030
 6788TIP3    H242000   4.699   4.063   8.445  0.4034  1.6470 -1.5446
 6789TIP3   OH242001   4.133   4.956   7.603 -0.1602 -0.1335 -1.0225
 6789TIP3    H142002   4.057   4.971   7.546 -0.4292  1.3240 -0.3187
 6789TIP3    H242003   4.102   4.975   7.691  1.3579  1.8829 -0.8667
 6790TIP3   OH242004   1.002   4.914   7.135 -0.0833  0.0519 -0.5229
 6790TIP3    H142005   0.910   4.887   7.135 -0.2083  0.4675 -0.6618
 6790TIP3    H242006   1.020   4.937   7.045  0.5484 -1.2927 -0.7734
 6791TIP3   OH242007   5.311   1.488   8.425  0.4710  0.2980 -0.2774
 6791TIP3    H142008   5.380   1.442   8.472  0.3134 -0.2275 -0.5630
 6791TIP3    H242009   5.241   1.497   8.489  0.8939  1.0827  0.1020
 6792TIP3   OH242010   3.712   0.476   1.442  0.4749  0.2013  0.2453
 6792TIP3    H142011   3.757   0.558   1.465  1.4062 -0.4029  0.6313
 6792TIP3    H242012   3.632   0.477   1.495 -0.3039  1.5627 -0.8798
 6793TIP3   OH242013   6.067   1.959   0.287  0.0171 -0.4405 -0.0240
 6793TIP3    H142014   6.120   1.893   0.331  0.1841  0.5891  1.3804
 6793TIP3    H242015   6.111   2.042   0.306 -0.9075  0.2196 -0.6650
 6794TIP3   OH242016   3.125   3.788   0.894  0.7176 -0.0949 -0.0329
 6794TIP3    H142017   3.213   3.762   0.867  0.0660 -1.7492 -0.6724
 6794TIP3    H242018   3.071   3.776   0.816 -0.6579 -2.1354  1.1620
 6795TIP3   OH242019   1.536   0.580   1.294  0.4195 -0.3663 -0.5602
 6795TIP3    H142020   1.482   0.510   1.258 -1.7360  0.6653  0.4859
 6795TIP3    H242021   1.597   0.536   1.353 -1.4397 -1.3693  0.7224
 6796TIP3   OH242022   5.222   4.006   1.035  0.2902  0.1772 -0.2635
 6796TIP3    H142023   5.257   3.918   1.047 -0.0994 -0.1560 -1.4997
 6796TIP3    H242024   5.213   4.040   1.125  1.0132 -0.8003  0.2003
 6797TIP3   OH242025   1.191   5.780   6.790 -0.1156 -0.0378 -0.0977
 6797TIP3    H142026   1.284   5.755   6.787 -0.1357 -0.0563 -0.6771
 6797TIP3    H242027   1.183   5.848   6.724 -0.4277  0.2800  0.2619
 6798TIP3   OH242028   0.090   6.058   1.235 -0.0214 -0.4979 -0.2524
 6798TIP3    H142029   0.065   5.990   1.173 -0.0990 -0.4432 -0.2808
 6798TIP3    H242030   0.021   6.124   1.228 -0.3956 -0.8121  0.3883
 6799TIP3   OH242031   0.692   2.107   8.510 -0.2438 -0.1963  0.0464
 6799TIP3    H142032   0.709   2.013   8.505 -1.4900 -0.4422  0.0190
 6799TIP3    H242033   0.603   2.116   8.475  0.7518  1.3058 -2.3537
 6800TIP3   OH242034   5.593   0.483   7.571  0.6688  0.2891  0.3404
 6800TIP3    H142035   5.562   0.530   7.493  0.6738 -0.5656 -0.1880
 6800TIP3    H242036   5.583   0.391   7.549  0.6261  0.0283  1.3785
 6801TIP3   OH242037   6.057   0.952   8.082 -0.2246 -0.0083 -0.4664
 6801TIP3    H142038   6.088   1.036   8.049 -1.3876  1.0555  1.0171
 6801TIP3    H242039   6.076   0.955   8.176 -0.1943 -1.4629 -0.4054
 6802TIP3   OH242040   0.213   3.667   0.476 -0.7343 -0.2563 -0.2071
 6802TIP3    H142041   0.137   3.722   0.459 -0.8713 -0.3230  0.1695
 6802TIP3    H242042   0.206   3.644   0.569 -0.2720 -0.2869 -0.1744
 6803TIP3   OH242043   2.466   5.948   7.535 -0.0056  0.0799 -0.3372
 6803TIP3    H142044   2.496   5.950   7.625  2.9724 -0.5079 -1.2253
 6803TIP3    H242045   2.508   6.023   7.494 -2.0926  0.9226 -1.0895
 6804TIP3   OH242046   0.958   2.357   6.637 -0.3493 -0.1936  0.3639
 6804TIP3    H142047   1.008   2.429   6.600  0.2934 -0.2756  1.0664
 6804TIP3    H242048   0.899   2.330   6.566  1.1478 -0.6202 -0.7470
 6805TIP3   OH242049   5.430   4.952   6.676 -0.4357  0.1391  0.2174
 6805TIP3    H142050   5.488   4.981   6.606 -0.6990 -0.3824 -0.2280
 6805TIP3    H242051   5.343   4.982   6.650 -0.5434 -0.1055  0.2856
 6806TIP3   OH242052   5.748   1.983   7.645  0.0788 -0.1204 -0.1995
 6806TIP3    H142053   5.816   2.022   7.700  0.5902  0.9355 -1.5201
 6806TIP3    H242054   5.758   2.027   7.561 -0.9528 -1.3942 -1.0163
 6807TIP3   OH242055   3.918   1.418   8.672 -0.5819  0.2069 -0.1498
 6807TIP3    H142056   3.961   1.334   8.655  0.0915  0.2122  1.3499
 6807TIP3    H242057   3.988   1.475   8.704 -0.7596  1.7801 -2.2814
 6808TIP3   OH242058   5.102   0.612   0.453 -0.2470  0.0799 -0.1843
 6808TIP3    H142059   5.097   0.700   0.413 -0.7709  0.0120 -0.2674
 6808TIP3    H242060   5.138   0.557   0.383 -1.4035 -0.0916 -0.6670
 6809TIP3   OH242061   0.412   5.891   7.952  0.1887  0.3640 -0.4245
 6809TIP3    H142062   0.375   5.960   7.898  0.9161 -0.4209 -2.0156
 6809TIP3    H242063   0.345   5.822   7.952 -0.4571  0.9609  1.0017
 6810TIP3   OH242064   2.173   6.750   1.573  0.0554  0.2987  0.0487
 6810TIP3    H142065   2.192   6.696   1.649  0.5496  0.3474 -0.0348
 6810TIP3    H242066   2.227   6.712   1.503 -1.4023 -0.5970 -0.6439
 6811TIP3   OH242067   2.907   6.527   0.663  0.8856 -0.1995 -0.0373
 6811TIP3    H142068   2.822   6.519   0.620  0.4908 -0.4341  0.7609
 6811TIP3    H242069   2.906   6.459   0.730  1.6915 -0.1767  0.0043
 6812TIP3   OH242070   6.455   2.861   8.765  0.4604 -0.0372  0.3965
 6812TIP3    H142071   6.363   2.882   8.782  0.5958 -0.4965  1.8721
 6812TIP3    H242072   6.466   2.875   8.671 -1.1708 -0.2002  0.1502
 6813TIP3   OH242073   6.629   1.863   6.180  0.1881 -0.5087 -0.7806
 6813TIP3    H142074   6.716   1.863   6.140 -0.2041 -0.9449 -1.6755
 6813TIP3    H242075   6.631   1.791   6.244  0.2561 -1.0322 -1.3559
 6814TIP3   OH242076   1.014   2.361   8.652  0.1165  0.4026 -0.1731
 6814TIP3    H142077   1.006   2.270   8.679 -1.2237  0.9297  1.4056
 6814TIP3    H242078   0.929   2.382   8.614 -0.3582  1.5404  1.4086
 6815TIP3   OH242079   6.797   4.479   0.592 -0.0681 -0.6315 -0.3307
 6815TIP3    H142080   6.870   4.428   0.627  1.0631  0.9369 -0.3164
 6815TIP3    H242081   6.768   4.430   0.515  0.2306 -1.8758  0.3294
 6816TIP3   OH242082   3.983   5.966   1.474  0.0848  0.0183 -0.2312
 6816TIP3    H142083   3.897   5.930   1.493 -0.3904  0.4433 -1.5082
 6816TIP3    H242084   4.002   5.940   1.384  0.5196  1.3941 -0.5723
 6817TIP3   OH242085   2.270   2.176   8.432 -0.1499  0.0993  0.0884
 6817TIP3    H142086   2.219   2.104   8.469 -0.7652  0.3700 -0.2209
 6817TIP3    H242087   2.297   2.228   8.508 -0.7522  0.2260  0.2199
 6818TIP3   OH242088   6.543   5.606   7.255  0.4837  0.2721 -0.1871
 6818TIP3    H142089   6.612   5.569   7.201  1.7951  0.4619  1.2874
 6818TIP3    H242090   6.519   5.536   7.315 -0.0291  0.4639 -0.1645
 6819TIP3   OH242091   5.430   0.798   7.348 -0.6010  0.0555 -0.3688
 6819TIP3    H142092   5.342   0.780   7.379 -0.0270 -1.8808  0.2818
 6819TIP3    H242093   5.469   0.853   7.417 -2.2032  3.7102 -2.1228
 6820TIP3   OH242094   4.936   0.395   0.028  0.1122 -0.3489 -0.2965
 6820TIP3    H142095   4.934   0.395   0.124 -0.6741  0.3949 -0.2995
 6820TIP3    H242096   5.029   0.399   0.006  0.3572 -1.6038  0.4184
 6821TIP3   OH242097   6.111   5.272   0.474 -0.1006  0.2289  0.3923
 6821TIP3    H142098   6.176   5.206   0.499 -2.0470 -2.2458 -0.6622
 6821TIP3    H242099   6.030   5.243   0.516 -1.5528  0.5720 -1.9648
 6822TIP3   OH242100   3.749   1.640   0.196  0.4924  0.1351  1.0810
 6822TIP3    H142101   3.827   1.692   0.175  1.4410 -1.7012 -0.2168
 6822TIP3    H242102   3.716   1.611   0.111  0.1016 -1.4842  1.7535
 6823TIP3   OH242103   2.350   2.121   7.032 -0.0136 -0.5950 -0.1927
 6823TIP3    H142104   2.277   2.094   7.088 -1.2286  0.8647 -0.9897
 6823TIP3    H242105   2.309   2.143   6.948  1.3996 -0.1060 -0.7904
 6824TIP3   OH242106   0.381   0.471   1.946  0.1664  0.4661 -0.0677
 6824TIP3    H142107   0.356   0.398   2.003  0.4466  0.5159  0.1193
 6824TIP3    H242108   0.300   0.519   1.932 -0.3811 -0.7808 -1.5010
 6825TIP3   OH242109   4.571   3.250   0.846  0.2209  0.3773 -1.1330
 6825TIP3    H142110   4.661   3.223   0.865  0.4780  1.1853 -1.1745
 6825TIP3    H242111   4.552   3.209   0.761  0.2253 -0.5209 -0.7175
 6826TIP3   OH242112   2.670   6.590   8.232 -0.3309 -0.3328  0.7560
 6826TIP3    H142113   2.594   6.539   8.260 -1.3043 -1.2982 -3.1210
 6826TIP3    H242114   2.654   6.610   8.140  3.3295  0.9122  0.2093
 6827TIP3   OH242115   0.596   4.928   7.638  0.4486  0.3080  0.6837
 6827TIP3    H142116   0.546   5.005   7.610 -0.5472 -0.2781  0.7933
 6827TIP3    H242117   0.669   4.923   7.576  0.1093  0.9061  0.2211
 6828TIP3   OH242118   0.559   5.001   0.003 -0.2389  0.6738  0.2444
 6828TIP3    H142119   0.618   5.054   0.057  1.7168 -3.0250  2.2031
 6828TIP3    H242120   0.503   4.956   0.067  0.2449 -1.7563 -0.9105
 6829TIP3   OH242121   3.042   6.729   0.530 -0.3995  0.0089 -0.4189
 6829TIP3    H142122   2.993   6.730   0.447  2.7611  0.3720 -2.4640
 6829TIP3    H242123   3.028   6.641   0.565 -1.6858 -0.2094 -1.3840
 6830TIP3   OH242124   4.845   5.121   7.779 -0.3285 -0.2072 -0.3467
 6830TIP3    H142125   4.883   5.119   7.691  1.2447  3.0444  0.0918
 6830TIP3    H242126   4.771   5.182   7.772 -0.5934 -0.4274  0.4490
 6831TIP3   OH242127   5.623   4.589   7.053  0.4425 -0.0891  0.0537
 6831TIP3    H142128   5.590   4.660   6.999 -1.3319  0.1866  1.4326
 6831TIP3    H242129   5.656   4.632   7.132 -0.4242 -0.7427  0.7945
 6832TIP3   OH242130   2.762   4.791   1.992 -0.4203  0.5043  0.1705
 6832TIP3    H142131   2.669   4.788   2.011 -0.1969  2.4673  1.9530
 6832TIP3    H242132   2.780   4.884   1.978  1.4100  0.2599  0.6520
 6833TIP3   OH242133   0.650   2.610   0.205  0.2465  0.2324  0.0461
 6833TIP3    H142134   0.716   2.561   0.157 -1.7965 -2.0709 -0.5769
 6833TIP3    H242135   0.579   2.548   0.221 -1.6309  2.4436  1.0467
 6834TIP3   OH242136   6.250   5.866   7.310  0.3721 -0.0923 -0.4593
 6834TIP3    H142137   6.251   5.782   7.356 -1.4330  0.7094  1.1427
 6834TIP3    H242138   6.205   5.847   7.228 -0.6007 -0.5728  0.1725
 6835TIP3   OH242139   2.456   0.308   8.021  0.4232 -0.3384 -0.4060
 6835TIP3    H142140   2.396   0.273   8.088  1.3132 -0.1298  0.5330
 6835TIP3    H242141   2.465   0.401   8.044  1.3453 -0.4404 -0.3426
 6836TIP3   OH242142   5.848   6.142   0.323 -0.2691 -0.0780  0.0183
 6836TIP3    H142143   5.797   6.188   0.256 -2.3711 -0.8109  1.0135
 6836TIP3    H242144   5.841   6.050   0.300 -0.0559 -0.2447  0.5987
 6837TIP3   OH242145   1.562   6.724   6.440 -0.7916 -0.3707 -0.0419
 6837TIP3    H142146   1.648   6.699   6.406 -1.3148 -3.1654  0.3683
 6837TIP3    H242147   1.520   6.770   6.368  0.5409 -0.2218 -0.7541
 6838TIP3   OH242148   5.328   0.309   1.897  0.1985 -0.3520 -0.3240
 6838TIP3    H142149   5.304   0.234   1.952 -0.7728 -0.0378 -0.3034
 6838TIP3    H242150   5.413   0.285   1.860  0.9536 -0.5014  1.4284
 6839TIP3   OH242151   6.474   1.235   8.495  0.4749  0.3002 -0.5016
 6839TIP3    H142152   6.479   1.144   8.524 -1.9804 -0.0178 -0.8359
 6839TIP3    H242153   6.492   1.232   8.401 -0.0170  0.0800 -0.5926
 6840TIP3   OH242154   2.219   3.727   8.742  0.0194  0.4977 -0.1316
 6840TIP3    H142155   2.264   3.681   8.672 -1.5063 -0.8564 -0.2805
 6840TIP3    H242156   2.288   3.751   8.804  0.8677 -2.8295  0.4141
 6841TIP3   OH242157   4.198   0.693   1.155 -0.2313 -0.6667  0.0659
 6841TIP3    H142158   4.240   0.639   1.223  1.7966  2.4146  1.4884
 6841TIP3    H242159   4.153   0.762   1.204  1.1324  1.5587 -1.6342
 6842TIP3   OH242160   3.210   6.076   8.155  0.5116  0.2161 -0.1238
 6842TIP3    H142161   3.164   5.993   8.143 -0.5639  0.6456  0.9328
 6842TIP3    H242162   3.298   6.050   8.183  0.3763 -0.5714 -0.3810
 6843TIP3   OH242163   1.607   3.842   8.673 -0.1043  0.6563  0.3426
 6843TIP3    H142164   1.671   3.812   8.609  0.4343  0.8981  0.7641
 6843TIP3    H242165   1.522   3.826   8.631  0.1375 -1.3607  0.4882
 6844TIP3   OH242166   1.725   4.767   0.078 -0.1079  0.2194 -0.0037
 6844TIP3    H142167   1.636   4.734   0.079 -0.5340  1.2394  2.0007
 6844TIP3    H242168   1.762   4.740   0.162  0.9470  1.0844 -0.1579
 6845TIP3   OH242169   6.460   0.473   7.464 -0.0647  0.2000  0.6349
 6845TIP3    H142170   6.477   0.568   7.460 -2.4227  0.8189 -4.9504
 6845TIP3    H242171   6.542   0.433   7.437  0.1113  0.9996 -0.0809
 6846TIP3   OH242172   1.061   3.448   7.195 -0.0855 -0.1776 -0.4616
 6846TIP3    H142173   1.125   3.502   7.147  1.6150  0.5649  2.4054
 6846TIP3    H242174   1.114   3.397   7.256 -1.9475 -2.8959 -0.9363
 6847TIP3   OH242175   4.531   4.534   0.542 -0.2899 -0.3758  0.5676
 6847TIP3    H142176   4.462   4.493   0.595  0.5688  0.9171  2.8067
 6847TIP3    H242177   4.612   4.509   0.586  0.3230  2.8144  1.4759
 6848TIP3   OH242178   3.744   5.150   7.582 -0.5024 -0.7313  0.0253
 6848TIP3    H142179   3.778   5.139   7.671  0.8241 -0.3870 -0.4157
 6848TIP3    H242180   3.736   5.245   7.571  1.4118 -0.6228 -0.9220
 6849TIP3   OH242181   2.915   1.297   1.540  0.5443  0.3882 -0.5107
 6849TIP3    H142182   2.886   1.215   1.500  1.4358 -0.2774  0.1675
 6849TIP3    H242183   2.871   1.299   1.626  0.0536  0.9275 -0.7643
 6850TIP3   OH242184   3.512   4.679   1.071  0.1245  0.0286 -0.3089
 6850TIP3    H142185   3.509   4.745   1.140 -1.6204  1.0353 -1.2718
 6850TIP3    H242186   3.597   4.635   1.082  0.9727  1.8726  0.8650
 6851TIP3   OH242187   0.667   4.128   7.685  0.2926 -0.0722  0.5885
 6851TIP3    H142188   0.619   4.065   7.739 -1.9678  1.0005 -0.0556
 6851TIP3    H242189   0.650   4.213   7.726 -0.3237  0.6001 -0.9759
 6852TIP3   OH242190   2.142   1.495   6.415 -0.4666 -0.6089  0.3899
 6852TIP3    H142191   2.054   1.461   6.431 -1.1395 -0.3067 -2.2268
 6852TIP3    H242192   2.156   1.482   6.322  2.5124 -1.1132  0.8209
 6853TIP3   OH242193   2.935   3.497   0.541  0.8077 -0.4193  0.3873
 6853TIP3    H142194   2.959   3.529   0.454 -3.9760 -0.0143 -1.0874
 6853TIP3    H242195   2.885   3.417   0.524 -1.2259  0.2794  2.6089
 6854TIP3   OH242196   0.288   2.472   6.963  0.3546 -0.1384 -0.1443
 6854TIP3    H142197   0.347   2.401   6.987  0.5411  0.6361  1.9637
 6854TIP3    H242198   0.260   2.452   6.874  3.3549 -0.8313 -1.0636
 6855TIP3   OH242199   6.320   0.972   1.336  0.6658  0.1280 -0.1294
 6855TIP3    H142200   6.411   0.983   1.362  0.3745  3.5628 -0.0610
 6855TIP3    H242201   6.270   1.016   1.406 -1.0182 -0.9066 -0.6050
 6856TIP3   OH242202   5.189   4.180   7.106  0.7686  0.3318 -0.3326
 6856TIP3    H142203   5.148   4.209   7.025 -1.0288 -1.0661  0.0188
 6856TIP3    H242204   5.146   4.097   7.127  2.0405  0.0491  1.4210
 6857TIP3   OH242205   6.511   5.322   7.541 -0.1676 -0.1154  0.5243
 6857TIP3    H142206   6.586   5.313   7.482 -1.7070 -0.2352 -1.4889
 6857TIP3    H242207   6.514   5.414   7.568  0.0439  0.1920 -0.4848
 6858TIP3   OH242208   3.589   0.013   7.840  0.5438  0.7887  0.3601
 6858TIP3    H142209   3.525  -0.047   7.879 -0.0953 -1.1606 -3.2327
 6858TIP3    H242210   3.552   0.100   7.855 -1.4391 -0.0881  1.0129
 6859TIP3   OH242211   5.288   6.325   7.460  0.0598  0.1939  0.5807
 6859TIP3    H142212   5.327   6.244   7.492  0.2532  0.0167 -0.1022
 6859TIP3    H242213   5.353   6.361   7.399  0.7864  1.7630  2.1501
 6860TIP3   OH242214   4.594   6.155   7.880 -0.2355 -0.1614 -0.0472
 6860TIP3    H142215   4.677   6.106   7.879 -0.4401 -0.5041 -0.5516
 6860TIP3    H242216   4.582   6.183   7.789 -1.0668 -0.7867 -0.1420
 6861TIP3   OH242217   4.271   6.246   8.005 -0.2867  0.2662  0.4114
 6861TIP3    H142218   4.195   6.191   7.987 -0.0926  0.0976  0.0925
 6861TIP3    H242219   4.345   6.185   8.003  0.2528  0.8994 -2.5049
 6862TIP3   OH242220   2.360   5.902   0.142  0.0657 -0.6699  0.3711
 6862TIP3    H142221   2.367   5.971   0.076 -0.1608 -0.4624  0.5591
 6862TIP3    H242222   2.431   5.921   0.203  0.1792 -0.7697  0.2688
 6863TIP3   OH242223   3.219   6.140   7.865 -0.1988  0.0765 -0.3627
 6863TIP3    H142224   3.124   6.129   7.878  0.1647 -1.4679  1.4290
 6863TIP3    H242225   3.255   6.140   7.954  1.4732  0.9180 -1.0107
 6864TIP3   OH242226   3.428   2.368   8.035  0.0198  0.3952  0.0960
 6864TIP3    H142227   3.368   2.319   7.979  1.1146 -1.3890  0.3742
 6864TIP3    H242228   3.375   2.436   8.075 -1.2828  0.2897 -1.3738
 6865TIP3   OH242229   0.956   5.664   7.769 -0.1164 -0.3602  0.0583
 6865TIP3    H142230   0.934   5.648   7.861 -0.3992  1.0412  0.2559
 6865TIP3    H242231   0.872   5.676   7.726 -0.0080 -1.4589 -0.4916
 6866TIP3   OH242232   1.365   4.555   8.292 -0.4376  0.0821 -0.0781
 6866TIP3    H142233   1.376   4.517   8.204 -1.9002  0.6911 -0.5601
 6866TIP3    H242234   1.271   4.552   8.307 -0.3181  1.1422  0.9586
 6867TIP3   OH242235   4.714   3.012   7.954 -0.3935  0.5276 -0.1229
 6867TIP3    H142236   4.798   3.058   7.954 -0.2795  0.3822 -2.0381
 6867TIP3    H242237   4.708   2.974   8.042  1.6391  0.3441 -0.0110
 6868TIP3   OH242238   2.780   2.484   6.872  0.3811  0.3996  0.1973
 6868TIP3    H142239   2.784   2.509   6.780 -0.2666 -0.1388  0.0190
 6868TIP3    H242240   2.699   2.525   6.904 -0.3948 -0.9763  0.0427
 6869TIP3   OH242241   0.411   1.262   0.005 -0.0228 -0.1672  0.5569
 6869TIP3    H142242   0.436   1.347  -0.032  1.4125 -0.3899  0.9232
 6869TIP3    H242243   0.407   1.278   0.100 -0.9034 -0.2452  0.5368
 6870TIP3   OH242244   5.887   4.007   0.901  0.1666 -0.3463 -0.3786
 6870TIP3    H142245   5.976   4.022   0.870  0.0138  0.0274 -0.6401
 6870TIP3    H242246   5.881   4.059   0.981 -0.8316  2.2936 -2.0553
 6871TIP3   OH242247   3.989   1.436   0.241 -0.1890  0.4851 -0.1223
 6871TIP3    H142248   3.991   1.386   0.159  4.5497  0.8422 -0.4905
 6871TIP3    H242249   3.969   1.371   0.308  1.7258 -1.1598 -1.0319
 6872TIP3   OH242250   6.773   4.697   1.550  0.2284  0.0451  0.2120
 6872TIP3    H142251   6.686   4.737   1.540 -0.1623 -0.7190  0.4194
 6872TIP3    H242252   6.798   4.717   1.640  0.0447 -0.1332  0.3061
 6873TIP3   OH242253   6.043   5.268   7.997  0.0148  0.1988  0.0070
 6873TIP3    H142254   5.998   5.204   7.941 -1.1407  0.7652  0.2658
 6873TIP3    H242255   5.974   5.328   8.024  1.3580  2.6600 -1.6710
 6874TIP3   OH242256   3.275   0.491   6.781  0.3526 -0.1045  0.3074
 6874TIP3    H142257   3.318   0.555   6.725  1.9565  0.3954  1.9858
 6874TIP3    H242258   3.184   0.492   6.753  0.5936  1.9319 -0.6252
 6875TIP3   OH242259   3.207   6.454   8.385 -0.4296  0.0377 -0.5654
 6875TIP3    H142260   3.270   6.507   8.433 -0.6957  0.9979 -1.2278
 6875TIP3    H242261   3.229   6.364   8.406 -0.8217  0.4270  1.6779
 6876TIP3   OH242262   2.371   5.044   8.259 -0.3876  0.3923  0.2455
 6876TIP3    H142263   2.324   4.961   8.263 -0.7766  0.6657  2.1102
 6876TIP3    H242264   2.413   5.052   8.344 -0.8031  2.3727  0.3066
 6877TIP3   OH242265   6.323   4.692   0.579  0.6634 -0.1043 -0.3894
 6877TIP3    H142266   6.404   4.642   0.569  1.1455  0.6755 -0.4376
 6877TIP3    H242267   6.301   4.721   0.491  0.3049 -0.3338 -0.3808
 6878TIP3   OH242268   6.079   1.638   1.386 -0.4151 -0.0212 -0.5908
 6878TIP3    H142269   6.029   1.573   1.435  0.3600 -0.1990 -0.0106
 6878TIP3    H242270   6.014   1.699   1.352 -0.9822  0.0094  0.5233
 6879TIP3   OH242271   5.441   3.730   1.614 -0.1318 -0.1961 -0.4868
 6879TIP3    H142272   5.531   3.730   1.645  0.3927 -3.0045 -1.7363
 6879TIP3    H242273   5.393   3.678   1.678 -0.6013  0.2144 -0.4988
 6880TIP3   OH242274   5.067   2.498   6.687  0.1671  0.4042  0.1490
 6880TIP3    H142275   5.048   2.440   6.762 -1.2494 -0.1033 -0.5562
 6880TIP3    H242276   5.040   2.447   6.611  0.5911  1.3259 -0.6263
 6881TIP3   OH242277   4.208   1.036   6.720 -0.1668 -0.7935  0.2268
 6881TIP3    H142278   4.199   1.124   6.685 -1.6569 -1.1839 -0.4806
 6881TIP3    H242279   4.170   0.979   6.653 -1.3996 -1.7475  1.6440
 6882TIP3   OH242280   3.056   3.114   2.051 -0.1251 -0.0433 -0.3430
 6882TIP3    H142281   3.146   3.088   2.032  0.7695  2.0253  0.8030
 6882TIP3    H242282   3.056   3.209   2.045 -2.2525  0.0207 -0.2754
 6883TIP3   OH242283   1.162   6.020   7.284 -0.1991 -0.9709  0.2438
 6883TIP3    H142284   1.198   5.944   7.329  0.1170 -0.9482  0.0322
 6883TIP3    H242285   1.221   6.035   7.211 -0.8246 -1.1398 -0.3083
 6884TIP3   OH242286   0.098   0.188   6.388 -0.3941  0.1623 -0.3683
 6884TIP3    H142287   0.111   0.252   6.458 -2.0839  2.4399 -1.9735
 6884TIP3    H242288   0.129   0.232   6.309 -1.7270 -0.9174 -1.5533
 6885TIP3   OH242289   2.222   5.552   8.099 -0.1146 -0.0569  0.4125
 6885TIP3    H142290   2.269   5.492   8.041  0.5956  0.6738  0.2220
 6885TIP3    H242291   2.244   5.523   8.187  0.8266  0.3710  0.3263
 6886TIP3   OH242292   6.396   1.384   8.162  0.1356 -0.4656 -1.1019
 6886TIP3    H142293   6.458   1.334   8.216  0.5327  1.2133  0.0952
 6886TIP3    H242294   6.435   1.383   8.075  0.8712 -1.0322 -0.7855
 6887TIP3   OH242295   0.007   0.748   8.341 -0.6301  0.0955 -0.6184
 6887TIP3    H142296  -0.079   0.720   8.310  0.6107 -3.6493 -1.2142
 6887TIP3    H242297   0.017   0.704   8.425  0.5133  0.9350 -0.2964
 6888TIP3   OH242298   4.235   3.923   8.843  0.1197  0.3746  0.1918
 6888TIP3    H142299   4.281   3.840   8.856  0.7094  1.1154  4.6903
 6888TIP3    H242300   4.153   3.899   8.801  1.2058 -2.1260 -0.6946
 6889TIP3   OH242301   1.228   0.058   0.612  0.1966  0.6735  0.5306
 6889TIP3    H142302   1.207   0.132   0.554  0.2449  1.1803  1.1429
 6889TIP3    H242303   1.323   0.051   0.609  0.0564 -1.1598 -1.6810
 6890TIP3   OH242304   3.856   6.390   7.568  0.3126  0.2014 -0.3808
 6890TIP3    H142305   3.878   6.462   7.509 -0.8531 -1.3485 -2.9030
 6890TIP3    H242306   3.923   6.392   7.635  1.6779  2.1717 -1.6997
 6891TIP3   OH242307   1.539   3.110   7.136  0.2666 -0.4966  0.4602
 6891TIP3    H142308   1.447   3.091   7.119 -0.1038  0.5858  1.1509
 6891TIP3    H242309   1.581   3.024   7.142 -0.6361 -0.9940 -0.1361
 6892TIP3   OH242310   5.663   0.778   8.662 -0.0604  0.4044  0.0294
 6892TIP3    H142311   5.635   0.748   8.749  0.0376 -0.4596 -0.2258
 6892TIP3    H242312   5.676   0.697   8.613  1.7135  0.8106 -0.2245
 6893TIP3   OH242313   1.255   0.731   1.000  0.6492 -0.9698  0.4296
 6893TIP3    H142314   1.283   0.729   1.092  0.4732 -2.7289  0.4904
 6893TIP3    H242315   1.246   0.638   0.976  0.4685 -0.5416 -1.3006
 6894TIP3   OH242316   6.093   5.506   7.193  0.4217  0.4037  0.0403
 6894TIP3    H142317   6.116   5.599   7.186 -1.0202  0.8564  0.7945
 6894TIP3    H242318   6.141   5.475   7.269  0.2492  0.7662  0.3017
 6895TIP3   OH242319   1.640   1.905   1.869 -0.0390 -0.0277 -0.1844
 6895TIP3    H142320   1.673   1.995   1.865  1.3315 -0.5344 -0.8817
 6895TIP3    H242321   1.565   1.910   1.928 -1.2787  1.9371 -1.7998
 6896TIP3   OH242322   1.392   3.027   1.629  0.1435  0.0549  0.5235
 6896TIP3    H142323   1.435   2.976   1.697  0.0514 -0.5571  0.1294
 6896TIP3    H242324   1.463   3.061   1.575  0.2934  1.5369  1.5944
 6897TIP3   OH242325   4.141   4.667   8.030  0.4642  0.5397 -0.0643
 6897TIP3    H142326   4.071   4.732   8.034  1.5250  1.7236  0.0125
 6897TIP3    H242327   4.167   4.654   8.121 -0.3239 -0.6630 -0.0011
 6898TIP3   OH242328   0.572   5.059   8.008 -0.2915 -0.3186 -0.1659
 6898TIP3    H142329   0.610   5.128   7.953  0.0245 -0.7883 -0.5550
 6898TIP3    H242330   0.647   5.008   8.037 -0.5797 -0.9765 -0.5495
 6899TIP3   OH242331   3.519   6.539   6.988  0.8979  0.4813 -0.6516
 6899TIP3    H142332   3.599   6.554   7.038  2.6863  0.3679 -3.3026
 6899TIP3    H242333   3.460   6.609   7.016  2.5685  1.6514  0.0738
 6900TIP3   OH242334   5.847   1.902   6.945 -1.1033 -0.4937  0.3415
 6900TIP3    H142335   5.836   1.810   6.921  0.4440 -0.4515 -0.6835
 6900TIP3    H242336   5.907   1.937   6.879 -0.4004  0.8497  1.6244
 6901TIP3   OH242337   6.061   3.863   1.270 -0.2731 -0.1808  0.5150
 6901TIP3    H142338   6.039   3.797   1.205  2.0371 -2.1363  1.5650
 6901TIP3    H242339   6.055   3.946   1.223 -1.0721 -1.2971 -1.4715
 6902TIP3   OH242340   3.579   2.858   8.588  0.3705  0.3914 -0.0426
 6902TIP3    H142341   3.507   2.921   8.581  0.5987  0.7263  0.5666
 6902TIP3    H242342   3.642   2.887   8.523  0.0371  0.1959 -0.4627
 6903TIP3   OH242343   0.204   5.025   7.792  0.3664 -0.3014 -0.0794
 6903TIP3    H142344   0.252   4.962   7.845  0.2174 -1.1857 -0.9564
 6903TIP3    H242345   0.115   5.024   7.827  0.7698  0.7583  1.0445
 6904TIP3   OH242346   5.342   0.628   6.897 -0.0729  0.5633  0.0254
 6904TIP3    H142347   5.268   0.581   6.858  0.9826 -0.5904 -0.6545
 6904TIP3    H242348   5.351   0.707   6.843 -0.9143  0.8080  0.2320
 6905TIP3   OH242349   1.770   5.795   8.869  0.2706 -0.3025  0.0138
 6905TIP3    H142350   1.794   5.800   8.962  1.2693 -0.4569 -0.2152
 6905TIP3    H242351   1.678   5.820   8.866  0.1607 -0.5342  1.0741
 6906TIP3   OH242352   5.805   3.849   8.286 -0.0560  0.4826  0.1903
 6906TIP3    H142353   5.891   3.877   8.255 -0.1493  1.0262  0.4070
 6906TIP3    H242354   5.753   3.930   8.287 -0.0845  0.4717  1.6649
 6907TIP3   OH242355   5.975   6.138   7.262  0.2918 -0.2889 -0.1031
 6907TIP3    H142356   6.005   6.088   7.186 -1.1305 -1.3244 -0.0198
 6907TIP3    H242357   6.001   6.084   7.337 -2.2624 -1.6202 -0.0428
 6908TIP3   OH242358   2.293   3.076   0.286  0.5581  0.2058  0.0253
 6908TIP3    H142359   2.300   3.135   0.361 -0.7320 -0.3113  0.5822
 6908TIP3    H242360   2.233   3.121   0.226 -0.6631 -0.6313  0.5805
 6909TIP3   OH242361   1.587   4.230   6.811  0.4626 -0.0139 -0.0005
 6909TIP3    H142362   1.652   4.292   6.779  1.0232 -0.4830  0.2177
 6909TIP3    H242363   1.574   4.169   6.738 -0.9606  1.0069 -0.6609
 6910TIP3   OH242364   6.752   1.151   7.716 -0.3293  0.4705 -0.6021
 6910TIP3    H142365   6.661   1.180   7.702 -0.1124  1.7418  0.4970
 6910TIP3    H242366   6.751   1.059   7.690 -2.2356  0.1234  0.5116
 6911TIP3   OH242367   3.025   1.466   1.068  0.9236 -0.1495 -0.8595
 6911TIP3    H142368   3.062   1.502   1.148 -0.8425 -2.0760  0.9307
 6911TIP3    H242369   2.960   1.531   1.040  2.1076  0.9093 -1.2629
 6912TIP3   OH242370   5.827   6.760   6.926  0.1579 -0.1308 -0.1609
 6912TIP3    H142371   5.749   6.814   6.937  0.1923 -0.1934  0.4077
 6912TIP3    H242372   5.826   6.735   6.834 -1.2082 -1.2203  0.1209
 6913TIP3   OH242373   0.059   5.646   7.489  0.4242  0.3522  0.0331
 6913TIP3    H142374   0.050   5.696   7.408 -1.8926  0.2599  0.1500
 6913TIP3    H242375   0.111   5.569   7.464 -1.8660 -0.6922 -1.9486
 6914TIP3   OH242376   2.954   2.907   8.780  0.0083  0.4952  0.4973
 6914TIP3    H142377   2.858   2.911   8.775 -0.0040  0.2794  0.5306
 6914TIP3    H242378   2.975   2.948   8.863 -0.0119  1.0923  0.2175
 6915TIP3   OH242379   2.638   2.832   1.199 -0.1364  0.5896 -0.1460
 6915TIP3    H142380   2.624   2.748   1.243  2.1310  0.0487 -0.3351
 6915TIP3    H242381   2.634   2.811   1.106 -1.2660  1.0509 -0.2223
 6916TIP3   OH242382   2.409   3.999   1.321 -0.2093  0.3556 -0.3662
 6916TIP3    H142383   2.470   4.048   1.376  0.3351 -0.7600  0.0518
 6916TIP3    H242384   2.374   3.932   1.380 -3.2485  2.0227 -0.0283
 6917TIP3   OH242385   3.589   3.908   8.559  0.0293  0.1626  0.5820
 6917TIP3    H142386   3.522   3.977   8.558 -0.8245 -0.5734 -2.5744
 6917TIP3    H242387   3.570   3.857   8.638  0.7773  3.4745  3.1282
 6918TIP3   OH242388   1.301   6.174   0.246 -0.7110 -0.2630 -0.1586
 6918TIP3    H142389   1.280   6.136   0.161 -0.3875  1.7359 -1.1972
 6918TIP3    H242390   1.290   6.102   0.308 -0.6718 -1.8567 -1.9126
 6919TIP3   OH242391   5.552   1.951   2.574  0.6827  0.3161 -0.1072
 6919TIP3    H142392   5.573   2.028   2.521  0.3837 -0.6485 -1.6734
 6919TIP3    H242393   5.490   1.901   2.522  1.6860 -1.5441  0.3708
 6920TIP3   OH242394   2.976   2.383   0.316 -0.0807  0.3360  0.3049
 6920TIP3    H142395   3.024   2.304   0.293  0.1123  0.8894 -1.3043
 6920TIP3    H242396   2.885   2.362   0.300 -0.1296  0.1503  0.7957
 6921TIP3   OH242397   6.132   1.801   6.373 -0.3746  0.6344  0.5245
 6921TIP3    H142398   6.081   1.870   6.415  0.2585  0.5730  1.4180
 6921TIP3    H242399   6.214   1.843   6.348 -0.1936  0.3351  0.6056
 6922TIP3   OH242400   6.353   2.200   7.186 -0.1194 -0.6651 -0.2017
 6922TIP3    H142401   6.422   2.244   7.135 -0.2080  1.0206  1.0246
 6922TIP3    H242402   6.400   2.164   7.261 -0.6910  2.1030  1.6384
 6923TIP3   OH242403   4.579   6.237   6.922  0.1069  0.2504  0.1086
 6923TIP3    H142404   4.584   6.289   6.842  0.0720 -0.3855 -0.3096
 6923TIP3    H242405   4.527   6.160   6.898 -1.9277  1.1464  1.3389
 6924TIP3   OH242406   1.740   6.704   1.679  0.7085 -0.1848  0.8003
 6924TIP3    H142407   1.784   6.636   1.628  2.8698  1.8451 -0.1935
 6924TIP3    H242408   1.795   6.716   1.756  0.6479  0.7911  0.7034
 6925TIP3   OH242409   3.685   1.405   0.335  0.0858 -0.2878 -0.4262
 6925TIP3    H142410   3.742   1.450   0.273  1.0534 -0.2672  0.4506
 6925TIP3    H242411   3.616   1.469   0.355  0.6818  0.3109 -0.2375
 6926TIP3   OH242412   1.039   3.353   8.183  0.0824  0.5055  0.5330
 6926TIP3    H142413   1.134   3.348   8.177  0.0494  1.0574 -0.8915
 6926TIP3    H242414   1.021   3.441   8.215  0.0432  0.6503  0.1206
 6927TIP3   OH242415   2.455   3.822   0.626  0.3733 -0.2614  0.4967
 6927TIP3    H142416   2.491   3.863   0.705 -0.9244  1.6543  0.1705
 6927TIP3    H242417   2.527   3.825   0.563  0.4533  1.2645  0.6053
 6928TIP3   OH242418   4.164   5.453   6.558  0.1803 -0.1069  0.3185
 6928TIP3    H142419   4.160   5.516   6.630 -1.0197  0.9494 -0.6203
 6928TIP3    H242420   4.159   5.506   6.479  2.4731 -1.1631 -0.6183
 6929TIP3   OH242421   2.383   3.808   7.425  0.8723 -0.1272 -0.4231
 6929TIP3    H142422   2.395   3.889   7.376  0.4969 -0.0941 -0.4623
 6929TIP3    H242423   2.336   3.834   7.503  0.9280 -0.2772 -0.3387
 6930TIP3   OH242424   2.501   2.865   7.238  0.4094  0.1536 -0.0511
 6930TIP3    H142425   2.508   2.957   7.264  1.3592  0.2573 -0.6318
 6930TIP3    H242426   2.513   2.866   7.143 -0.0132 -0.5291 -0.1172
 6931TIP3   OH242427   1.999   2.541   1.701  0.0643  0.2222  0.3702
 6931TIP3    H142428   2.049   2.479   1.649  0.4754 -2.1991  3.3576
 6931TIP3    H242429   1.909   2.509   1.696 -0.0503  0.5441  0.3634
 6932TIP3   OH242430   0.086   0.036   6.961  0.0589 -0.2159  0.1596
 6932TIP3    H142431   0.116  -0.041   7.010 -0.8020 -0.6923 -0.0442
 6932TIP3    H242432   0.153   0.049   6.894 -0.9980 -2.3806 -1.4641
 6933TIP3   OH242433   5.768   5.043   8.090 -0.0026  0.1480  0.2909
 6933TIP3    H142434   5.728   5.084   8.167  1.8751 -0.4450  1.6758
 6933TIP3    H242435   5.836   4.985   8.126 -1.6023 -3.2261 -1.6025
 6934TIP3   OH242436   6.149   4.075   1.725 -0.4150 -0.1992  0.5398
 6934TIP3    H142437   6.178   4.071   1.634 -2.8377 -0.9759 -0.2889
 6934TIP3    H242438   6.194   4.002   1.768  0.4297 -0.0875 -0.1338
 6935TIP3   OH242439   6.434   3.610   7.040  0.1172 -0.6656  0.0324
 6935TIP3    H142440   6.458   3.557   7.116 -1.2793 -1.0260  0.2527
 6935TIP3    H242441   6.376   3.554   6.989 -2.6764  1.0887  1.0529
 6936TIP3   OH242442   1.924   5.472   7.835 -0.3124 -0.4333 -0.1899
 6936TIP3    H142443   1.840   5.486   7.791 -0.3001 -0.3557 -0.1889
 6936TIP3    H242444   1.916   5.386   7.876 -2.2444  1.4082  3.9062
 6937TIP3   OH242445   5.093   2.983   2.303  0.5872 -0.7824  0.5298
 6937TIP3    H142446   5.004   3.016   2.292  1.0174 -0.2135 -1.5318
 6937TIP3    H242447   5.081   2.891   2.327 -0.5461 -0.2392  2.2608
 6938TIP3   OH242448   5.717   1.220   8.178  0.0604  0.5131  0.5720
 6938TIP3    H142449   5.804   1.216   8.137 -0.6435 -1.6983 -0.9221
 6938TIP3    H242450   5.733   1.194   8.269  0.8764 -1.0267  0.0374
 6939TIP3   OH242451   5.712   4.334   2.504  0.0369  0.0501  0.4401
 6939TIP3    H142452   5.777   4.395   2.472  0.1780 -0.1687  0.3095
 6939TIP3    H242453   5.756   4.288   2.576  0.2397 -0.5271 -0.0436
 6940TIP3   OH242454   0.169   1.542   1.447 -0.2631 -0.1121 -0.4756
 6940TIP3    H142455   0.171   1.544   1.543 -0.2684 -0.4163 -0.4663
 6940TIP3    H242456   0.144   1.452   1.426  0.3577 -0.2234 -0.7677
 6941TIP3   OH242457   2.426   3.894   6.659 -0.1437 -0.3589 -0.3604
 6941TIP3    H142458   2.451   3.905   6.751 -0.4319  0.0971 -0.3348
 6941TIP3    H242459   2.345   3.944   6.650 -0.3674 -0.7880 -0.7518
 6942TIP3   OH242460   0.818   6.418   1.834 -0.0788 -0.3021  0.1554
 6942TIP3    H142461   0.857   6.473   1.901  0.9979  1.7395 -2.0161
 6942TIP3    H242462   0.856   6.331   1.849  3.7344  1.0813 -0.4648
 6943TIP3   OH242463   6.196   4.622   8.266 -0.6004  0.2308 -0.2445
 6943TIP3    H142464   6.132   4.686   8.236 -0.8808 -0.5939 -1.4838
 6943TIP3    H242465   6.254   4.609   8.191 -1.1512 -1.6927 -0.3939
 6944TIP3   OH242466   5.840   5.097   1.130  0.3030  0.7498 -0.0040
 6944TIP3    H142467   5.850   5.003   1.120 -2.3472  0.3260  0.4271
 6944TIP3    H242468   5.902   5.135   1.068  2.5371 -1.1845  0.8925
 6945TIP3   OH242469   1.569   0.862   7.885 -0.3292  0.4121  0.1067
 6945TIP3    H142470   1.556   0.955   7.865  0.3451  0.6289  0.6745
 6945TIP3    H242471   1.661   0.845   7.865 -0.4240 -0.1142  0.1002
 6946TIP3   OH242472   1.943   3.653   7.805 -0.5826 -0.0918 -0.1591
 6946TIP3    H142473   1.929   3.716   7.735 -0.5116  0.7000  0.5272
 6946TIP3    H242474   1.938   3.568   7.762 -1.5062  0.3501 -0.9614
 6947TIP3   OH242475   4.747   2.029   0.833  0.1524 -0.1438  0.0457
 6947TIP3    H142476   4.738   2.027   0.928 -0.0431  3.0628  0.1932
 6947TIP3    H242477   4.659   2.051   0.801  0.2125 -1.1854 -0.9208
 6948TIP3   OH242478   2.328   4.698   7.317 -0.0038  0.2055  0.6016
 6948TIP3    H142479   2.355   4.755   7.388  0.2800 -0.4523  1.0360
 6948TIP3    H242480   2.411   4.663   7.282 -0.2074 -0.9173  1.1805
 6949TIP3   OH242481   2.579   5.042   6.291 -0.2370  0.6266  0.3265
 6949TIP3    H142482   2.495   5.025   6.333 -0.3086  1.5890  0.6127
 6949TIP3    H242483   2.593   4.967   6.234 -2.5093  1.5773 -1.6678
 6950TIP3   OH242484   4.271   6.035   8.273  0.0492  0.5851 -0.7056
 6950TIP3    H142485   4.240   5.956   8.229 -1.1101  1.0239 -0.7098
 6950TIP3    H242486   4.346   6.064   8.222 -0.0814 -0.0030 -1.2387
 6951TIP3   OH242487   2.208   0.256   1.761  0.5267 -0.0315  0.2962
 6951TIP3    H142488   2.254   0.179   1.727 -0.2327 -1.1855  1.7217
 6951TIP3    H242489   2.217   0.249   1.856 -0.7899  0.8380  0.5166
 6952TIP3   OH242490   1.834   0.667   8.395  0.1812  0.2337  0.4406
 6952TIP3    H142491   1.887   0.660   8.475  1.4353 -0.1261 -0.3786
 6952TIP3    H242492   1.804   0.578   8.378  0.0436  0.2818  0.4330
 6953TIP3   OH242493   5.048   0.545   8.179 -0.3400  0.1067 -0.2072
 6953TIP3    H142494   5.133   0.503   8.170  1.2549  2.6740  1.4637
 6953TIP3    H242495   5.027   0.537   8.272 -0.7534  1.4857 -0.1539
 6954TIP3   OH242496   4.248   3.984   7.575 -1.1018  0.1596 -0.4243
 6954TIP3    H142497   4.233   4.024   7.660 -2.6167  0.2912 -0.7181
 6954TIP3    H242498   4.325   3.929   7.587 -2.2481 -1.1407  1.5226
 6955TIP3   OH242499   4.899   5.499   2.034 -0.1585 -0.5456 -0.5691
 6955TIP3    H142500   4.989   5.475   2.055 -0.5313 -1.3155  0.2209
 6955TIP3    H242501   4.862   5.532   2.116 -0.3854  0.4405 -1.0646
 6956TIP3   OH242502   3.641   2.742   0.602 -0.0838 -0.3047  0.1923
 6956TIP3    H142503   3.693   2.698   0.534  0.0735 -0.1529  0.2122
 6956TIP3    H242504   3.683   2.717   0.684 -0.0678 -0.2134  0.2116
 6957TIP3   OH242505   5.889   0.283   7.973  0.0031  0.3978  0.8144
 6957TIP3    H142506   5.866   0.192   7.953  0.7245  0.0564  1.5007
 6957TIP3    H242507   5.846   0.333   7.903  0.7581 -0.5816 -0.4152
 6958TIP3   OH242508   1.790   5.379   8.411 -0.3014  0.5083 -0.1024
 6958TIP3    H142509   1.865   5.328   8.439 -0.7318  0.3430  0.7813
 6958TIP3    H242510   1.826   5.444   8.350  0.4767  0.1455 -0.0344
 6959TIP3   OH242511   5.162   5.935   0.386 -0.2728  0.2200  0.3171
 6959TIP3    H142512   5.206   5.929   0.301  0.3741 -0.3269  0.6760
 6959TIP3    H242513   5.162   6.029   0.405  0.3269  0.2792  0.0835
 6960TIP3   OH242514   3.341   4.409   7.068  0.4709 -0.2876  0.0992
 6960TIP3    H142515   3.317   4.489   7.022  0.0872 -0.6351 -0.3164
 6960TIP3    H242516   3.275   4.401   7.138  0.4442 -0.2963  0.0734
 6961TIP3   OH242517   5.718   0.191   0.932  0.0128 -0.2953 -0.6685
 6961TIP3    H142518   5.652   0.171   0.998  0.0455 -0.9743 -0.8267
 6961TIP3    H242519   5.800   0.198   0.981 -0.2355  1.0309 -0.4073
 6962TIP3   OH242520   4.356   2.019   6.852  0.0945 -0.0367 -0.3614
 6962TIP3    H142521   4.263   2.036   6.869  0.4734 -0.8010  3.0743
 6962TIP3    H242522   4.369   1.928   6.879  2.1622  0.5783  0.9640
 6963TIP3   OH242523   6.580   5.378   6.182  0.2000  0.0069 -0.4753
 6963TIP3    H142524   6.559   5.318   6.253  2.2488  0.9852  1.0847
 6963TIP3    H242525   6.647   5.332   6.130  1.2084  0.5689  0.2768
 6964TIP3   OH242526   6.666   4.302   0.409 -0.4669  0.0474 -0.1430
 6964TIP3    H142527   6.668   4.353   0.327  1.1635 -0.2454 -0.3278
 6964TIP3    H242528   6.684   4.212   0.381 -0.1671 -0.0984  0.4951
 6965TIP3   OH242529   4.262   3.254   1.613  0.0948 -0.4189 -0.3362
 6965TIP3    H142530   4.331   3.258   1.679 -0.0930 -0.5314 -0.1336
 6965TIP3    H242531   4.267   3.339   1.568 -0.5951  0.1583  0.6521
 6966TIP3   OH242532   3.441   4.175   7.676 -0.4965 -0.1472 -0.2687
 6966TIP3    H142533   3.509   4.239   7.652 -1.6348  0.9085 -0.8146
 6966TIP3    H242534   3.374   4.186   7.609 -1.0887 -1.3782  0.0953
 6967TIP3   OH242535   4.312   4.781   7.424  0.1797  0.4915 -0.6015
 6967TIP3    H142536   4.301   4.811   7.334  0.5454 -0.5562 -1.0058
 6967TIP3    H242537   4.383   4.717   7.420  0.7715  1.0357  0.5732
 6968TIP3   OH242538   2.616   2.406   7.780  0.0721 -0.4826 -0.0072
 6968TIP3    H142539   2.652   2.325   7.746  1.2878  0.0902 -0.1548
 6968TIP3    H242540   2.692   2.463   7.793 -0.3538 -0.4202  3.0439
 6969TIP3   OH242541   1.866   6.393   8.398  0.0745  0.1445  0.1470
 6969TIP3    H142542   1.844   6.383   8.305  1.2341 -1.3820 -0.0127
 6969TIP3    H242543   1.840   6.311   8.438  1.1034  0.1369  0.8375
 6970TIP3   OH242544   3.652   0.292   7.922 -0.5834  0.1960 -0.1076
 6970TIP3    H142545   3.725   0.304   7.983  1.0324  0.1287 -1.9144
 6970TIP3    H242546   3.598   0.370   7.934  0.0813  0.5330  0.8746
 6971TIP3   OH242547   4.222   3.463   0.290  0.5281 -0.3918 -0.1952
 6971TIP3    H142548   4.175   3.500   0.215  2.2102  1.7552 -0.2752
 6971TIP3    H242549   4.160   3.467   0.362  0.3972  2.1113 -0.3627
 6972TIP3   OH242550   2.832   4.099   0.501 -0.1806 -0.3071  0.5101
 6972TIP3    H142551   2.830   4.030   0.567  1.8613  0.3563  1.3444
 6972TIP3    H242552   2.924   4.124   0.495 -0.7436  1.7780 -0.3701
 6973TIP3   OH242553   1.488   4.343   7.653  0.0667 -0.0849 -0.0434
 6973TIP3    H142554   1.493   4.299   7.738  0.5970  0.6065  0.2940
 6973TIP3    H242555   1.498   4.273   7.589 -1.6502 -0.8071  0.4243
 6974TIP3   OH242556   5.165   6.721   1.375 -0.3183  0.2266 -0.4956
 6974TIP3    H142557   5.218   6.799   1.388  0.9195 -0.6552 -0.0816
 6974TIP3    H242558   5.077   6.746   1.405  0.2932  1.1387  0.6033
 6975TIP3   OH242559   0.830   2.104   8.146 -0.0148  0.0396 -0.1586
 6975TIP3    H142560   0.785   2.159   8.209  0.1056 -0.6350  0.5230
 6975TIP3    H242561   0.864   2.031   8.197  0.3018 -0.3874 -0.9601
 6976TIP3   OH242562   2.814   3.451   8.152 -0.3153  0.3736  0.1524
 6976TIP3    H142563   2.759   3.406   8.088 -0.6605  1.7885 -0.5803
 6976TIP3    H242564   2.902   3.419   8.133 -0.6069 -0.3461 -0.0346
 6977TIP3   OH242565   3.650   2.590   8.595  0.1807  0.0818 -0.4020
 6977TIP3    H142566   3.575   2.557   8.644 -0.6165  1.8501 -0.3337
 6977TIP3    H242567   3.636   2.685   8.591  1.9059  0.3462 -1.2560
 6978TIP3   OH242568   3.334   1.913   7.304  0.3735  0.1392  0.2580
 6978TIP3    H142569   3.352   1.832   7.256  1.9537  0.1163  0.8133
 6978TIP3    H242570   3.319   1.886   7.394  2.0383  0.4970  0.6861
 6979TIP3   OH242571   2.174   1.913   1.985 -0.6033 -0.5177  0.6371
 6979TIP3    H142572   2.176   2.008   1.989 -1.0125 -0.5209  1.0658
 6979TIP3    H242573   2.238   1.890   1.918 -0.4417  0.0534  0.5912
 6980TIP3   OH242574   3.417   3.506   0.623 -0.4840  0.0762 -0.2133
 6980TIP3    H142575   3.393   3.536   0.535 -1.3769  0.9456  0.3075
 6980TIP3    H242576   3.334   3.507   0.672 -0.2396 -1.6765  0.2886
 6981TIP3   OH242577   1.655   5.403   6.748 -0.5923 -0.0505 -0.4345
 6981TIP3    H142578   1.636   5.413   6.654 -1.0208  1.0526 -0.2346
 6981TIP3    H242579   1.637   5.310   6.765  0.2878 -0.4708 -1.6127
 6982TIP3   OH242580   5.820   4.403   7.428  0.0529 -0.1944 -0.0280
 6982TIP3    H142581   5.887   4.416   7.360  0.0908 -0.1484  0.0182
 6982TIP3    H242582   5.835   4.473   7.491  0.9989 -1.1061  0.8097
 6983TIP3   OH242583   1.894   4.369   7.456  0.1199  0.0956  0.0468
 6983TIP3    H142584   1.977   4.417   7.452 -0.4495  1.1779  0.8140
 6983TIP3    H242585   1.832   4.425   7.408 -0.4966  0.0216  0.7378
 6984TIP3   OH242586   4.522   4.882   7.643 -0.0199 -0.0294  0.2234
 6984TIP3    H142587   4.586   4.854   7.577 -1.1424  2.0627 -1.9248
 6984TIP3    H242588   4.574   4.901   7.721  1.4249 -2.1494 -0.1534
 6985TIP3   OH242589   0.681   6.041   0.774  0.2620 -0.2951  0.0573
 6985TIP3    H142590   0.722   5.989   0.843  0.4626 -0.3287 -0.0842
 6985TIP3    H242591   0.731   6.122   0.772  0.5771 -0.4984 -0.3854
 6986TIP3   OH242592   1.618   5.809   7.883 -0.4299  0.4397  0.2756
 6986TIP3    H142593   1.670   5.868   7.829 -1.6043  0.7183 -0.5733
 6986TIP3    H242594   1.529   5.814   7.847 -0.6927 -1.3671  0.5843
 6987TIP3   OH242595   3.471   6.521   8.520  0.1808 -0.4856  0.1227
 6987TIP3    H142596   3.548   6.578   8.526 -0.6679  1.2584 -3.1894
 6987TIP3    H242597   3.508   6.435   8.497  1.2245  0.1330 -0.6337
 6988TIP3   OH242598   1.336   4.005   1.185 -0.3902 -0.0627  0.2102
 6988TIP3    H142599   1.243   4.024   1.195 -0.2229  0.6620  0.4418
 6988TIP3    H242600   1.352   3.932   1.245 -1.0478 -1.0057 -0.7189
 6989TIP3   OH242601   2.651   5.980   8.488 -0.0563 -0.2498 -0.8672
 6989TIP3    H142602   2.674   5.950   8.400 -1.4020 -0.6215 -1.1030
 6989TIP3    H242603   2.564   6.017   8.480 -0.2078 -0.2934  0.3183
 6990TIP3   OH242604   5.524   4.825   1.695 -0.1072 -0.5311  0.0481
 6990TIP3    H142605   5.434   4.857   1.696 -0.1599 -0.6853  0.3172
 6990TIP3    H242606   5.537   4.788   1.782  0.3130 -0.2488  0.1060
 6991TIP3   OH242607   5.677   1.536   8.551  0.1674 -1.0631  0.6067
 6991TIP3    H142608   5.735   1.553   8.626 -0.9531  1.1261  1.0645
 6991TIP3    H242609   5.601   1.592   8.567 -0.2291 -0.7313 -2.0371
 6992TIP3   OH242610   4.056   1.294   7.546 -0.0299  0.1009  0.2785
 6992TIP3    H142611   4.064   1.371   7.602 -1.2188  1.0572 -0.8085
 6992TIP3    H242612   4.037   1.329   7.459  0.0956 -1.4029 -0.3951
 6993TIP3   OH242613   1.280   1.735   1.588  0.5600 -0.1581 -0.4151
 6993TIP3    H142614   1.361   1.701   1.626 -0.5061 -0.3219  1.8331
 6993TIP3    H242615   1.228   1.657   1.570  0.5168 -0.0054 -0.9697
 6994TIP3   OH242616   0.647   3.856   0.199 -0.3503 -0.1667 -0.4230
 6994TIP3    H142617   0.595   3.784   0.236  1.3537 -1.1639  0.1648
 6994TIP3    H242618   0.726   3.813   0.165  0.0388  1.2672 -1.4133
 6995TIP3   OH242619   2.252   2.525   7.252  0.2716  0.0810 -0.0080
 6995TIP3    H142620   2.263   2.533   7.347  0.8045  1.1160 -0.1411
 6995TIP3    H242621   2.188   2.455   7.241  1.8780 -1.6596  1.0414
 6996TIP3   OH242622   2.009   4.543   1.600 -0.0128  0.2909 -0.0009
 6996TIP3    H142623   2.075   4.490   1.643 -0.4053 -1.2901 -1.2833
 6996TIP3    H242624   1.992   4.500   1.517 -1.8671  1.2551 -0.1934
 6997TIP3   OH242625   1.473   0.242   6.446  0.3360 -0.5369  0.1632
 6997TIP3    H142626   1.532   0.243   6.371 -1.1022  1.7865 -1.0851
 6997TIP3    H242627   1.509   0.308   6.506  0.9773 -1.7356  1.1275
 6998TIP3   OH242628   5.711   2.544   7.550  0.0662  0.2313 -0.4580
 6998TIP3    H142629   5.763   2.496   7.486 -0.1056 -0.9039  0.2171
 6998TIP3    H242630   5.626   2.499   7.551  0.7045 -1.1363  1.9902
 6999TIP3   OH242631   1.147   1.267   7.023 -0.2616  0.2216  0.0080
 6999TIP3    H142632   1.223   1.250   6.968  0.5434  0.2193  1.0975
 6999TIP3    H242633   1.134   1.362   7.018 -0.3247  0.1974 -0.3382
 7000TIP3   OH242634   5.630   3.840   8.648 -0.4990  0.1625  0.0565
 7000TIP3    H142635   5.604   3.749   8.658 -0.7844  0.1308 -0.8558
 7000TIP3    H242636   5.719   3.837   8.614 -0.7644  0.1997 -0.6665
 7001TIP3   OH242637   2.553   4.187   6.622  0.2491 -0.3585 -0.1029
 7001TIP3    H142638   2.521   4.273   6.595  1.9703  0.0149 -1.0839
 7001TIP3    H242639   2.489   4.126   6.587 -1.5077  0.5265  1.3976
 7002TIP3   OH242640   6.782   1.334   1.352  0.0408  0.3657 -0.0230
 7002TIP3    H142641   6.734   1.410   1.384  0.6861  1.0338 -0.6120
 7002TIP3    H242642   6.816   1.292   1.432  3.4866  3.2154  0.2780
 7003TIP3   OH242643   4.858   5.415   8.439  0.4245  0.1648  0.3356
 7003TIP3    H142644   4.810   5.362   8.503  0.3103 -0.6420 -0.4054
 7003TIP3    H242645   4.790   5.451   8.382  0.5843  0.2166  0.1771
 7004TIP3   OH242646   2.402   4.294   8.333 -0.0723 -0.3306  0.1059
 7004TIP3    H142647   2.334   4.274   8.398 -1.5091 -0.1113 -1.2638
 7004TIP3    H242648   2.382   4.237   8.259  1.5551 -0.6025 -0.1623
 7005TIP3   OH242649   3.863   0.035   1.227 -0.2671  0.4910 -0.3706
 7005TIP3    H142650   3.782  -0.016   1.232 -1.1251  1.7852 -0.2781
 7005TIP3    H242651   3.855   0.097   1.300  1.1951  0.1290  0.1276
 7006TIP3   OH242652   6.162   2.078   1.891  0.1318 -0.3583  1.0515
 7006TIP3    H142653   6.241   2.133   1.887  0.6144 -0.8697 -4.8448
 7006TIP3    H242654   6.194   1.992   1.917  1.8788 -0.7106 -1.8072
 7007TIP3   OH242655   2.851   0.798   8.281  0.5667  0.4640 -0.2363
 7007TIP3    H142656   2.816   0.847   8.355 -0.1213  1.4865 -1.1876
 7007TIP3    H242657   2.933   0.760   8.313 -0.1979  0.0474  1.3200
 7008TIP3   OH242658   2.828   5.338   8.129 -0.2462 -0.5501  0.0334
 7008TIP3    H142659   2.893   5.278   8.093 -1.7663 -1.5988 -1.1130
 7008TIP3    H242660   2.877   5.416   8.152  1.3708 -1.2077 -1.0163
 7009TIP3   OH242661   4.889   1.126   1.664 -0.5247 -0.1047  0.3700
 7009TIP3    H142662   4.888   1.147   1.757  0.7963 -2.2285  0.9458
 7009TIP3    H242663   4.886   1.031   1.661  0.6697 -0.1409 -1.6989
 7010TIP3   OH242664   2.225   4.508   8.346  0.0420  0.4188 -0.0808
 7010TIP3    H142665   2.188   4.458   8.273  1.1534 -2.0946  0.9833
 7010TIP3    H242666   2.303   4.459   8.372  0.4993  2.0535  1.8588
 7011TIP3   OH242667   6.641   2.978   2.724  0.0107  0.4176 -0.7909
 7011TIP3    H142668   6.661   3.014   2.638 -1.6061  0.4086 -1.2068
 7011TIP3    H242669   6.554   3.012   2.745 -0.2089 -0.6795  0.2334
 7012TIP3   OH242670   0.625   4.666   8.730  1.1916  0.0611  0.0533
 7012TIP3    H142671   0.643   4.722   8.806 -0.1259 -1.1321  1.3013
 7012TIP3    H242672   0.695   4.601   8.730  0.5294 -0.6862  1.0340
 7013TIP3   OH242673   5.710   6.264   7.612  0.2209  0.0298  0.7379
 7013TIP3    H142674   5.733   6.216   7.692 -1.7879 -1.9207  0.2443
 7013TIP3    H242675   5.628   6.308   7.633 -0.8672 -1.3113 -0.4839
 7014TIP3   OH242676   4.854   1.895   1.880 -0.3970  0.2439  0.4821
 7014TIP3    H142677   4.880   1.947   1.956 -1.8427 -1.4106  2.2068
 7014TIP3    H242678   4.934   1.848   1.855  0.0760  0.7500  1.0107
 7015TIP3   OH242679   2.683   2.780   6.194 -0.2678 -0.3192 -0.3083
 7015TIP3    H142680   2.763   2.809   6.150 -0.5509 -0.8925 -1.2280
 7015TIP3    H242681   2.657   2.701   6.147 -0.1889 -1.3834  1.3634
 7016TIP3   OH242682   2.357   5.399   6.807  0.1906 -0.3609  0.3521
 7016TIP3    H142683   2.372   5.309   6.839  0.1637 -0.5830 -0.2478
 7016TIP3    H242684   2.274   5.424   6.845 -0.0810 -0.8085  0.0691
 7017TIP3   OH242685   0.486   1.299   7.027  0.4227 -0.4388  0.5123
 7017TIP3    H142686   0.407   1.328   6.982  0.6162 -1.3114 -0.4240
 7017TIP3    H242687   0.515   1.376   7.076 -0.6452  0.0766  0.3660
 7018TIP3   OH242688   5.601   3.226   0.155  0.4143 -0.5017  0.1547
 7018TIP3    H142689   5.564   3.277   0.083 -0.0801 -0.0684  0.7134
 7018TIP3    H242690   5.667   3.283   0.193 -0.3983 -0.1220  1.0179
 7019TIP3   OH242691   4.260   6.281   1.240 -0.0118 -0.5833 -0.1759
 7019TIP3    H142692   4.303   6.274   1.154  1.1448 -0.8331  0.4070
 7019TIP3    H242693   4.296   6.208   1.291  0.8287  0.7225  1.1648
 7020TIP3   OH242694   2.434   0.541   7.566  0.1129  1.1918 -0.0164
 7020TIP3    H142695   2.490   0.466   7.586  0.1411  0.9264 -1.0030
 7020TIP3    H242696   2.390   0.562   7.648 -1.0036 -0.8253 -0.0391
 7021TIP3   OH242697   5.915   2.235   7.689  0.0307  0.0225  0.4602
 7021TIP3    H142698   5.851   2.231   7.618 -0.7565  1.0375  1.0807
 7021TIP3    H242699   5.991   2.187   7.656 -0.6519 -0.2873 -0.7097
 7022TIP3   OH242700   0.876   4.597   7.412 -0.4419  0.5979 -0.1780
 7022TIP3    H142701   0.917   4.684   7.411  0.0129  0.4104  0.9228
 7022TIP3    H242702   0.782   4.615   7.407 -0.3917  1.2022  0.6974
 7023TIP3   OH242703   0.784   0.262   1.566 -0.1837 -0.0254 -0.0882
 7023TIP3    H142704   0.737   0.269   1.483  1.1365 -2.2695 -1.1373
 7023TIP3    H242705   0.873   0.290   1.546  0.2954 -1.1436  0.3849
 7024TIP3   OH242706   2.468   2.588   8.473 -0.2706  0.0898 -0.0562
 7024TIP3    H142707   2.389   2.535   8.476 -0.9995  0.9944 -1.8064
 7024TIP3    H242708   2.540   2.525   8.475 -1.0816 -0.8810 -0.8027
 7025TIP3   OH242709   1.950   1.097   8.649 -0.3113  0.0299 -0.3392
 7025TIP3    H142710   1.958   1.015   8.696  0.8512  0.2299 -0.1443
 7025TIP3    H242711   1.894   1.077   8.574  0.2794 -1.0399 -0.5091
 7026TIP3   OH242712   4.830   0.137   7.662 -0.0882  0.2296 -0.2088
 7026TIP3    H142713   4.759   0.074   7.670 -2.7759  3.1942  2.6370
 7026TIP3    H242714   4.893   0.112   7.730 -1.5903  0.9601  1.5390
 7027TIP3   OH242715   3.141   5.796   1.360 -0.5632  0.0809 -0.2099
 7027TIP3    H142716   3.081   5.800   1.285 -0.9982 -0.3337  0.1090
 7027TIP3    H242717   3.183   5.710   1.351 -0.5989  0.0407  0.0056
 7028TIP3   OH242718   5.368   0.468   0.173  0.2818  0.0315 -0.0346
 7028TIP3    H142719   5.382   0.503   0.261  0.6943  1.6583 -0.7208
 7028TIP3    H242720   5.363   0.373   0.186  1.4523  0.1514  1.5989
 7029TIP3   OH242721   2.741   1.246   7.158 -0.9607 -0.2067 -0.2850
 7029TIP3    H142722   2.667   1.204   7.202 -0.7643 -0.3628 -0.1006
 7029TIP3    H242723   2.761   1.323   7.211 -0.6060 -0.4965  0.0024
 7030TIP3   OH242724   2.196   2.938   8.077 -0.2309 -0.1404 -0.3478
 7030TIP3    H142725   2.203   2.996   8.153  0.2349  1.0368 -1.2572
 7030TIP3    H242726   2.251   2.979   8.010 -0.9821 -0.8984 -1.4772
 7031TIP3   OH242727   2.782   3.165   2.069 -0.1533  0.1453 -0.6724
 7031TIP3    H142728   2.871   3.131   2.060 -0.5243 -1.1426  0.2860
 7031TIP3    H242729   2.789   3.227   2.142 -0.2367 -0.7695  0.1378
 7032TIP3   OH242730   2.599   0.129   8.379 -0.0959  0.5595 -0.1334
 7032TIP3    H142731   2.654   0.074   8.435  0.3336 -1.7130 -2.6092
 7032TIP3    H242732   2.517   0.139   8.427  0.7800  0.0113  1.5469
 7033TIP3   OH242733   6.769   2.748   7.298  0.8007 -0.3288  0.0294
 7033TIP3    H142734   6.800   2.832   7.265 -1.1884  0.2269 -0.5643
 7033TIP3    H242735   6.733   2.767   7.385 -1.7859  0.0119 -1.0065
 7034TIP3   OH242736   3.233   1.843   1.335 -0.0281  0.0771  0.1553
 7034TIP3    H142737   3.154   1.863   1.384  0.8781 -0.7965  2.0769
 7034TIP3    H242738   3.218   1.880   1.248 -2.6468 -0.3658  0.3580
 7035TIP3   OH242739   4.354   2.811   8.033  0.0482 -0.2775 -0.3857
 7035TIP3    H142740   4.275   2.768   8.067  1.7120 -0.9863  2.9529
 7035TIP3    H242741   4.384   2.752   7.963 -0.9951 -1.3417  0.0198
 7036TIP3   OH242742   0.831   0.357   0.003  0.2269 -0.1856  0.3386
 7036TIP3    H142743   0.861   0.411  -0.070  0.7818 -1.9282 -0.7884
 7036TIP3    H242744   0.906   0.300   0.023 -1.0996 -2.2064 -0.1804
 7037TIP3   OH242745   3.096   4.418   0.678  0.0270  0.4703  0.1291
 7037TIP3    H142746   3.097   4.500   0.630 -1.8774  0.4595 -0.0072
 7037TIP3    H242747   3.141   4.356   0.621 -1.0216  0.7668 -1.0561
 7038TIP3   OH242748   5.245   5.845   1.512  0.4985  0.1614 -0.5120
 7038TIP3    H142749   5.312   5.880   1.454 -0.7808 -1.7269 -3.3716
 7038TIP3    H242750   5.193   5.788   1.456 -2.4263  0.1462  1.9681
 7039TIP3   OH242751   0.450   5.061   7.415  0.0794  0.5192  0.0237
 7039TIP3    H142752   0.526   5.007   7.392 -0.5719 -0.0894 -0.7456
 7039TIP3    H242753   0.479   5.151   7.399  0.9010  0.3577  0.5334
 7040TIP3   OH242754   1.505   2.326   8.514 -0.5625 -0.6400  0.1579
 7040TIP3    H142755   1.466   2.411   8.538  2.1274  0.7201  0.0678
 7040TIP3    H242756   1.485   2.317   8.421 -0.9000 -0.1205  0.1721
 7041TIP3   OH242757   1.222   0.244   5.873 -0.1408 -0.2598 -0.2180
 7041TIP3    H142758   1.192   0.221   5.960 -1.3942  0.0906 -0.5335
 7041TIP3    H242759   1.224   0.340   5.873  0.1344 -0.2621 -0.4881
 7042TIP3   OH242760   6.298   1.781   1.414  0.4366  0.0003  0.8884
 7042TIP3    H142761   6.215   1.739   1.391  0.8292 -0.2609 -0.1190
 7042TIP3    H242762   6.303   1.775   1.509 -0.1360 -1.0769  0.8654
 7043TIP3   OH242763   1.715   1.448   7.987  0.2779  0.0643  0.4916
 7043TIP3    H142764   1.794   1.394   7.998 -0.2190 -0.6053  0.8261
 7043TIP3    H242765   1.643   1.387   8.000 -0.3043  0.9198  1.3722
 7044TIP3   OH242766   2.329   0.517   0.518 -0.0453 -0.2173 -0.2246
 7044TIP3    H142767   2.309   0.472   0.600  0.1701 -0.7068 -0.4362
 7044TIP3    H242768   2.418   0.488   0.497 -0.2678 -0.4496 -0.8630
 7045TIP3   OH242769   5.265   3.122   1.432  0.0400  0.1164  0.3938
 7045TIP3    H142770   5.189   3.166   1.396  0.0979 -0.3494 -0.3012
 7045TIP3    H242771   5.237   3.032   1.446  0.6287 -0.2026 -0.4154
 7046TIP3   OH242772   4.131   2.000   0.506 -0.5229  0.8934  0.0400
 7046TIP3    H142773   4.136   1.947   0.586 -0.0383 -2.5969 -2.1141
 7046TIP3    H242774   4.069   2.070   0.529 -0.8090 -0.2146  3.2834
 7047TIP3   OH242775   1.898   5.681   0.523  0.0706 -0.4536  0.0188
 7047TIP3    H142776   1.839   5.613   0.556 -0.3936  0.1245  0.4020
 7047TIP3    H242777   1.892   5.751   0.588 -0.3591  0.4337 -0.9526
 7048TIP3   OH242778   3.468   3.614   1.001  0.0683  0.0445 -0.0901
 7048TIP3    H142779   3.476   3.667   1.080  1.2986  0.9143 -0.7616
 7048TIP3    H242780   3.435   3.674   0.934  0.9659 -0.1521 -0.7303
 7049TIP3   OH242781   6.796   6.816   0.129  0.0534 -0.1050 -0.3752
 7049TIP3    H142782   6.880   6.775   0.106  0.7486  0.0860  1.5924
 7049TIP3    H242783   6.730   6.756   0.096  1.0009 -0.9144 -0.8440
 7050TIP3   OH242784   1.506   2.980   1.018  0.1579 -0.2442  0.1219
 7050TIP3    H142785   1.512   3.075   1.027 -0.6713  0.2655 -3.3533
 7050TIP3    H242786   1.591   2.953   0.985 -0.3096 -0.3659 -1.0083
 7051TIP3   OH242787   3.150   2.674   8.842  0.0386 -0.7421 -0.3416
 7051TIP3    H142788   3.125   2.631   8.923  2.2256 -0.5912  0.4807
 7051TIP3    H242789   3.071   2.720   8.813 -0.9170 -1.2107  1.4205
 7052TIP3   OH242790   4.768   3.375   0.012  0.5275  0.4484  0.4617
 7052TIP3    H142791   4.786   3.390   0.105  0.5584  0.9176  0.3814
 7052TIP3    H242792   4.854   3.364  -0.027  0.7012  2.7603  0.0659
 7053TIP3   OH242793   6.078   0.677   2.349 -0.3929 -0.2053  0.0206
 7053TIP3    H142794   6.097   0.593   2.390  0.9800  0.8773  1.7790
 7053TIP3    H242795   6.151   0.690   2.287 -1.0104 -0.6217 -0.8114
 7054TIP3   OH242796   5.211   1.194   6.497  0.0323  0.5954  0.1151
 7054TIP3    H142797   5.129   1.226   6.460 -0.1743  0.2255  0.2480
 7054TIP3    H242798   5.187   1.113   6.541  0.2141  1.1392  1.2778
 7055TIP3   OH242799   6.319   0.178   7.833 -0.1891 -0.2522 -0.0322
 7055TIP3    H142800   6.291   0.218   7.751 -0.5378 -0.6894 -0.1245
 7055TIP3    H242801   6.282   0.235   7.901  0.6902  0.5214 -0.1680
 7056TIP3   OH242802   2.095   0.381   0.412 -0.2274 -0.3803  0.6306
 7056TIP3    H142803   2.072   0.450   0.474  1.9913  3.1440 -2.0320
 7056TIP3    H242804   2.191   0.384   0.409  0.0545 -4.2827  0.8891
 7057TIP3   OH242805   0.391   5.719   8.437  0.6964  0.0579  0.0743
 7057TIP3    H142806   0.362   5.794   8.489 -0.1059 -0.7339  0.7878
 7057TIP3    H242807   0.485   5.713   8.454  0.6348  0.4693  0.5751
 7058TIP3   OH242808   6.307   0.639   0.707  0.0810  0.1385  0.1120
 7058TIP3    H142809   6.377   0.653   0.771 -0.9560 -0.6495  1.4714
 7058TIP3    H242810   6.343   0.573   0.647  0.6683  0.0659  0.5311
 7059TIP3   OH242811   5.784   2.608   8.308 -0.2181  0.4799  0.0321
 7059TIP3    H142812   5.789   2.513   8.302 -1.8794  0.2872  0.9822
 7059TIP3    H242813   5.709   2.631   8.253  1.2037  1.4546 -1.5953
 7060TIP3   OH242814   2.206   2.087   7.739 -0.1154 -0.1225 -0.0475
 7060TIP3    H142815   2.248   2.002   7.724  1.1804  0.4360  0.2665
 7060TIP3    H242816   2.158   2.105   7.659 -2.9104 -2.4882  0.9015
 7061TIP3   OH242817   2.348   3.076   6.915  0.7858  0.3380 -0.1527
 7061TIP3    H142818   2.287   3.052   6.984 -0.6446  1.4644 -0.9788
 7061TIP3    H242819   2.302   3.056   6.834  1.5532  1.1317 -0.7989
 7062TIP3   OH242820   5.372   0.527   1.751  0.0634  0.2599  0.4238
 7062TIP3    H142821   5.467   0.526   1.752  0.0563 -0.9177  0.5784
 7062TIP3    H242822   5.346   0.494   1.837 -0.4693 -1.8828 -0.5095
 7063TIP3   OH242823   3.385   1.273   0.595 -0.4741  0.0258  0.2320
 7063TIP3    H142824   3.442   1.317   0.659 -0.1072  0.2662 -0.2603
 7063TIP3    H242825   3.385   1.181   0.623  0.0599  0.0456  0.3006
 7064TIP3   OH242826   1.821   6.470   8.087 -0.0527  0.3706 -0.0593
 7064TIP3    H142827   1.731   6.488   8.059  0.1390 -0.2335 -1.1622
 7064TIP3    H242828   1.866   6.554   8.081 -0.0192  0.2705 -1.6716
 7065TIP3   OH242829   2.462   1.628   6.474  0.4688 -0.2525  0.3340
 7065TIP3    H142830   2.451   1.541   6.511 -0.1805 -0.4876 -0.3871
 7065TIP3    H242831   2.541   1.622   6.420  0.1058 -0.5574 -0.1687
 7066TIP3   OH242832   3.768   0.649   8.085 -0.1591 -0.3428 -0.1399
 7066TIP3    H142833   3.806   0.562   8.073  0.8200  0.3130 -2.3950
 7066TIP3    H242834   3.673   0.634   8.088 -0.0271 -1.4498 -1.0866
 7067TIP3   OH242835   1.332   1.981   8.844  0.5432 -0.3092 -0.2865
 7067TIP3    H142836   1.346   2.075   8.830 -0.7895  0.0674  0.6682
 7067TIP3    H242837   1.279   1.977   8.924  2.1418 -1.9787  0.7473
 7068TIP3   OH242838   5.573   6.763   0.419 -0.1591 -0.1201 -0.0881
 7068TIP3    H142839   5.578   6.764   0.514  0.0939  0.0007 -0.1029
 7068TIP3    H242840   5.589   6.853   0.393 -2.1401  0.2609 -0.1490
 7069TIP3   OH242841   5.018   3.859   7.913  0.2127 -0.2574  0.2530
 7069TIP3    H142842   4.976   3.935   7.954  0.5346  0.0991 -0.0772
 7069TIP3    H242843   4.945   3.800   7.892 -0.0232 -0.1192  0.6605
 7070TIP3   OH242844   6.083   1.007   8.345  0.0344 -0.1960 -0.0219
 7070TIP3    H142845   6.081   1.098   8.317 -2.2861 -0.0023  0.5330
 7070TIP3    H242846   6.102   1.011   8.439 -0.1809 -0.2718  0.0257
 7071TIP3   OH242847   0.769   2.957   0.022 -0.5968 -0.1493 -0.2247
 7071TIP3    H142848   0.760   2.871  -0.018  1.0875  0.2604 -1.6263
 7071TIP3    H242849   0.722   3.016  -0.038 -0.1701  0.1366 -0.2814
 7072TIP3   OH242850   3.153   2.017   6.640  0.6192 -0.0196 -0.5030
 7072TIP3    H142851   3.067   1.984   6.614  1.2245 -0.5526 -1.9610
 7072TIP3    H242852   3.215   1.968   6.585  1.8963  0.0130  0.8425
 7073TIP3   OH242853   0.505   4.699   6.921  0.2350 -0.2177 -0.4525
 7073TIP3    H142854   0.512   4.604   6.934  1.1156 -0.0294  0.5161
 7073TIP3    H242855   0.579   4.720   6.864  0.8745  0.0845  0.4741
 7074TIP3   OH242856   2.588   2.391   2.042 -0.1838 -0.6243 -0.1919
 7074TIP3    H142857   2.642   2.469   2.029 -1.6837  0.3343 -0.9572
 7074TIP3    H242858   2.555   2.399   2.132  2.5759 -2.3412  1.1076
 7075TIP3   OH242859   2.534   3.847   1.102  0.5150 -0.7119 -0.5656
 7075TIP3    H142860   2.519   3.934   1.139 -0.1413 -0.5334 -1.2302
 7075TIP3    H242861   2.535   3.861   1.008  0.0152 -1.4839 -0.6921
 7076TIP3   OH242862   3.325   3.451   8.820  0.5252 -0.0042 -0.2331
 7076TIP3    H142863   3.307   3.544   8.807  1.0472  0.0026 -0.9791
 7076TIP3    H242864   3.419   3.447   8.838  0.5552 -0.4118 -0.4590
 7077TIP3   OH242865   6.687   6.075   8.087  0.3769  0.2802  0.1271
 7077TIP3    H142866   6.732   5.991   8.075  0.5918  0.0747  2.0463
 7077TIP3    H242867   6.594   6.052   8.090  0.3822  0.2234 -0.0945
 7078TIP3   OH242868   0.365   3.232   1.010 -0.4997 -0.0470 -0.4573
 7078TIP3    H142869   0.458   3.217   0.992 -0.2052 -0.1658  1.0378
 7078TIP3    H242870   0.364   3.312   1.063 -1.0732 -0.9326  0.9320
 7079TIP3   OH242871   4.247   1.683   0.420 -0.2119 -0.3283  0.3851
 7079TIP3    H142872   4.211   1.728   0.497  1.5994  1.6739  0.1461
 7079TIP3    H242873   4.329   1.645   0.451 -0.8112 -1.9121  0.0953
 7080TIP3   OH242874   5.388   5.107   2.165  0.7943 -0.4180 -0.3214
 7080TIP3    H142875   5.411   5.161   2.240 -2.2584  0.4141  0.1746
 7080TIP3    H242876   5.363   5.170   2.097  2.2348 -1.1817 -1.6109
 7081TIP3   OH242877   4.275   5.501   7.668 -0.2057  0.0104  0.6273
 7081TIP3    H142878   4.302   5.476   7.756 -0.6903 -0.7352  0.5761
 7081TIP3    H242879   4.207   5.438   7.645 -1.7161  1.5683  0.6019
 7082TIP3   OH242880   1.051   4.111   7.289 -0.0746 -0.7499  0.2509
 7082TIP3    H142881   1.083   4.114   7.379 -2.6196  2.1987  1.2113
 7082TIP3    H242882   1.012   4.197   7.274 -1.1016 -1.6456 -3.1886
 7083TIP3   OH242883   2.819   0.387   8.073 -0.5003  0.7825 -0.7404
 7083TIP3    H142884   2.747   0.439   8.109 -0.6607  0.1480 -0.1275
 7083TIP3    H242885   2.793   0.296   8.087  0.5354  0.5428 -0.2548
 7084TIP3   OH242886   4.833   6.508   0.848  0.1842  0.1503 -0.4331
 7084TIP3    H142887   4.827   6.540   0.938  2.1349  2.2043 -0.9311
 7084TIP3    H242888   4.892   6.434   0.853  1.0651  0.8581 -0.1205
 7085TIP3   OH242889   1.011   4.923   6.881  0.1315 -0.5262  0.5244
 7085TIP3    H142890   0.943   4.868   6.843  0.5113 -0.8893  0.3649
 7085TIP3    H242891   1.023   4.994   6.817 -0.8819  0.1790  1.0727
 7086TIP3   OH242892   6.357   6.711   7.818  0.2273  0.5025  0.3381
 7086TIP3    H142893   6.272   6.755   7.824 -0.4158 -0.7695  0.9117
 7086TIP3    H242894   6.396   6.721   7.905  0.3885  0.5312  0.2638
 7087TIP3   OH242895   0.399   0.316   0.119  0.2173 -0.1233 -0.3834
 7087TIP3    H142896   0.462   0.333   0.189  0.5902  4.7772 -1.5167
 7087TIP3    H242897   0.452   0.281   0.047  0.8336 -0.0543  0.0277
 7088TIP3   OH242898   1.286   2.423   7.779 -0.4274  0.0846 -0.3606
 7088TIP3    H142899   1.334   2.421   7.862 -0.0934 -0.0881 -0.5572
 7088TIP3    H242900   1.354   2.432   7.712 -0.6614 -0.2677 -0.6487
 7089TIP3   OH242901   1.158   0.724   1.508 -0.2283 -0.2285  0.2427
 7089TIP3    H142902   1.129   0.639   1.542  1.0935 -0.4029  0.9864
 7089TIP3    H242903   1.077   0.776   1.501 -0.7790 -0.7895  1.9783
 7090TIP3   OH242904   6.612   4.379   0.839 -0.4376  0.4648 -0.0901
 7090TIP3    H142905   6.519   4.394   0.820 -0.6853  0.3037  0.9365
 7090TIP3    H242906   6.632   4.296   0.797 -0.2837  1.3400 -1.8210
 7091TIP3   OH242907   1.471   6.746   7.617  0.0735 -0.2179 -0.7940
 7091TIP3    H142908   1.563   6.759   7.639  0.6852 -1.4384 -2.3839
 7091TIP3    H242909   1.450   6.820   7.560  1.0479 -1.5241 -2.9696
 7092TIP3   OH242910   1.452   0.286   1.621 -0.1666 -0.5310  0.1360
 7092TIP3    H142911   1.472   0.201   1.660 -0.5017 -0.6412  0.0797
 7092TIP3    H242912   1.471   0.274   1.528 -0.8010 -0.7435  0.0260
 7093TIP3   OH242913   1.885   3.272   8.828  0.0553 -0.0476 -0.4773
 7093TIP3    H142914   1.935   3.345   8.789  0.8064 -0.8299 -1.0096
 7093TIP3    H242915   1.945   3.232   8.891  0.2575 -1.2341 -1.3940
 7094TIP3   OH242916   0.220   6.294   0.075  0.0642 -0.2633 -0.6499
 7094TIP3    H142917   0.239   6.371   0.023 -1.5146  0.2280 -0.5410
 7094TIP3    H242918   0.266   6.223   0.030  1.5142  0.6990 -0.7644
 7095TIP3   OH242919   4.551   0.112   8.494 -0.1768  0.4889 -0.0543
 7095TIP3    H142920   4.594   0.040   8.540  2.2149  0.2517 -2.4229
 7095TIP3    H242921   4.571   0.190   8.546  0.8309 -0.0135  0.3199
 7096TIP3   OH242922   4.578   0.125   8.180  0.6406  0.4405  0.7040
 7096TIP3    H142923   4.554   0.058   8.244  0.4017 -0.2340 -0.0754
 7096TIP3    H242924   4.672   0.137   8.191  1.0019 -1.2233 -0.2499
 7097TIP3   OH242925   2.987   3.054   0.116 -0.4871 -0.7351 -0.5939
 7097TIP3    H142926   2.908   3.074   0.165 -0.9730 -2.3051 -0.6816
 7097TIP3    H242927   3.058   3.084   0.172 -1.0485 -2.0321  0.8855
 7098TIP3   OH242928   3.801   2.657   0.824 -0.2013  0.6230  0.1455
 7098TIP3    H142929   3.838   2.612   0.748  0.2898  2.1465 -0.5593
 7098TIP3    H242930   3.864   2.640   0.895  1.5218  2.5000 -0.8309
 7099TIP3   OH242931   6.534   4.152   1.468  0.4934 -0.0716  0.4041
 7099TIP3    H142932   6.594   4.125   1.538 -0.7420 -1.0446  1.1441
 7099TIP3    H242933   6.521   4.246   1.482 -0.3382 -0.3828  2.0123
 7100TIP3   OH242934   1.972   4.032   0.503  0.1560 -0.0330  0.0425
 7100TIP3    H142935   1.978   4.072   0.589  3.2519 -1.4900  0.6783
 7100TIP3    H242936   2.022   4.090   0.446  1.2125 -0.8317  0.1027
 7101TIP3   OH242937   0.409   5.545   7.717 -0.6756 -0.3509 -0.1119
 7101TIP3    H142938   0.381   5.461   7.753  1.8585 -1.4639 -0.5180
 7101TIP3    H242939   0.488   5.568   7.767 -1.6577  2.1545  0.4218
 7102TIP3   OH242940   3.978   4.980   7.387 -0.1432  0.1302 -0.0189
 7102TIP3    H142941   3.951   5.056   7.335  0.1225 -0.7337 -1.4724
 7102TIP3    H242942   4.028   4.926   7.327 -1.9902 -2.1825  0.3684
 7103TIP3   OH242943   6.138   2.001   8.545  0.0384 -0.1082  0.1836
 7103TIP3    H142944   6.168   2.089   8.521 -0.4084 -0.2603 -0.9838
 7103TIP3    H242945   6.175   1.944   8.477  0.1575 -0.8033  0.8170
 7104TIP3   OH242946   2.666   4.596   1.386  0.2429  0.8765 -0.5211
 7104TIP3    H142947   2.751   4.553   1.399  0.5418  2.1229  2.1394
 7104TIP3    H242948   2.615   4.532   1.335  2.0927 -0.7292 -0.4922
 7105TIP3   OH242949   3.306   5.158   1.969 -0.1132 -0.3052 -0.9794
 7105TIP3    H142950   3.337   5.235   2.018  0.7264 -1.0538 -0.2905
 7105TIP3    H242951   3.228   5.129   2.016 -0.9745  0.6478 -1.7806
 7106TIP3   OH242952   4.400   6.470   2.350 -0.4043  0.5118 -0.3397
 7106TIP3    H142953   4.395   6.556   2.392  0.1826  0.0134  0.7866
 7106TIP3    H242954   4.390   6.408   2.421  1.5031 -0.3683 -0.7858
 7107TIP3   OH242955   1.790   2.187   0.620  0.3151  0.2187 -0.6750
 7107TIP3    H142956   1.848   2.252   0.659  0.1583 -0.1215  0.1639
 7107TIP3    H242957   1.721   2.239   0.579  0.0937  0.5959  0.1409
 7108TIP3   OH242958   2.751   6.818   8.569 -0.6057 -0.4309  0.2039
 7108TIP3    H142959   2.813   6.871   8.619  2.2613 -0.0661 -3.3112
 7108TIP3    H242960   2.770   6.728   8.594  0.6280 -0.2444  0.0048
 7109TIP3   OH242961   0.619   4.159   6.289 -0.0401 -0.2854 -0.0519
 7109TIP3    H142962   0.637   4.208   6.369 -1.4551 -0.6099  0.5024
 7109TIP3    H242963   0.681   4.193   6.225  1.9090 -0.7858  1.4668
 7110TIP3   OH242964   5.348   5.500   0.414 -0.0145 -0.3473  0.3838
 7110TIP3    H142965   5.425   5.445   0.428  0.9300  0.8717  0.1256
 7110TIP3    H242966   5.279   5.439   0.389  0.8298 -1.4801  0.7589
 7111TIP3   OH242967   1.122   1.361   7.615  0.0291 -0.2992  0.1718
 7111TIP3    H142968   1.032   1.345   7.645  0.4287  1.4796  2.4925
 7111TIP3    H242969   1.111   1.393   7.525 -1.8084  1.2729  0.8783
 7112TIP3   OH242970   2.782   0.610   6.557 -0.0646 -0.6097 -0.4139
 7112TIP3    H142971   2.736   0.673   6.502  0.0990 -0.0448  0.0951
 7112TIP3    H242972   2.722   0.535   6.562 -0.5450 -0.2326 -0.4697
 7113TIP3   OH242973   5.575   1.560   6.724  0.8355 -0.3437 -0.5190
 7113TIP3    H142974   5.555   1.508   6.647 -1.7257  1.0340 -0.8907
 7113TIP3    H242975   5.542   1.648   6.703 -1.6999 -0.3333  2.7792
 7114TIP3   OH242976   1.205   0.475   0.925 -0.2575  0.2049 -0.0657
 7114TIP3    H142977   1.117   0.438   0.915 -0.3707  0.7679 -1.3397
 7114TIP3    H242978   1.253   0.409   0.975 -1.4658  0.0049  0.8603
 7115TIP3   OH242979   1.518   0.186   0.943 -0.3140 -0.0069 -0.0897
 7115TIP3    H142980   1.612   0.203   0.930 -0.4788 -0.1887 -1.7165
 7115TIP3    H242981   1.512   0.090   0.947 -0.4544 -0.0098 -0.3253
 7116TIP3   OH242982   3.067   0.978   7.992  0.3821 -0.3083  0.0691
 7116TIP3    H142983   3.145   1.020   8.029 -0.5657  0.9423  0.6934
 7116TIP3    H242984   3.082   0.979   7.898 -0.6309  3.7069 -0.2026
 7117TIP3   OH242985   1.086   4.431   6.954  0.1511 -0.5122  0.1374
 7117TIP3    H142986   1.124   4.507   6.997  0.9002 -0.2986 -0.8550
 7117TIP3    H242987   1.014   4.465   6.901 -0.3950 -0.6917  0.7564
 7118TIP3   OH242988   4.838   6.286   7.030  0.4489 -0.3542 -0.5920
 7118TIP3    H142989   4.742   6.285   7.029  0.4357 -0.4036 -2.4150
 7118TIP3    H242990   4.861   6.277   7.123 -1.2984 -0.7395 -0.1581
 7119TIP3   OH242991   4.491   5.980   0.950  0.1802 -0.3562 -0.1479
 7119TIP3    H142992   4.505   5.941   1.036  0.0101 -1.0253 -0.4139
 7119TIP3    H242993   4.557   5.940   0.894 -0.6188 -1.0276 -0.6492
 7120TIP3   OH242994   5.779   1.694   7.828 -0.0868 -0.0524  0.2461
 7120TIP3    H142995   5.799   1.753   7.901  0.5148  2.1662 -1.5935
 7120TIP3    H242996   5.718   1.630   7.864  0.8191  0.4519  2.8740
 7121TIP3   OH242997   1.342   3.443   7.406 -0.0829  0.3557  0.5611
 7121TIP3    H142998   1.321   3.535   7.388  1.3219  0.4750 -0.6086
 7121TIP3    H242999   1.421   3.426   7.356 -0.1477 -1.4298  0.9985
 7122TIP3   OH243000   5.318   5.982   0.760  0.7929  0.4153  0.3625
 7122TIP3    H143001   5.378   5.983   0.835  0.0849  1.2134  0.9505
 7122TIP3    H243002   5.362   6.036   0.694  1.7899 -0.9457 -0.1247
 7123TIP3   OH243003   4.499   1.412   8.645  0.6807 -0.4921 -0.0535
 7123TIP3    H143004   4.565   1.343   8.657  1.2502 -0.0240 -0.4383
 7123TIP3    H243005   4.470   1.402   8.555  0.9237 -0.0957 -0.1794
 7124TIP3   OH243006   6.405   5.844   0.838 -0.1314 -0.2202 -0.3329
 7124TIP3    H143007   6.451   5.838   0.754  0.8638  2.2751 -0.0397
 7124TIP3    H243008   6.446   5.918   0.883 -1.9431 -0.2673  1.5424
 7125TIP3   OH243009   5.914   1.824   8.384 -0.1113  0.3680  0.4029
 7125TIP3    H143010   6.008   1.838   8.399 -0.1794  0.7043  0.5232
 7125TIP3    H243011   5.871   1.887   8.442 -0.4177  0.0363  0.5391
 7126TIP3   OH243012   0.071   5.175   1.411  0.1670 -0.2074  0.2796
 7126TIP3    H143013   0.052   5.081   1.409 -0.5055 -0.1068  1.2235
 7126TIP3    H243014   0.011   5.213   1.347 -0.1322 -0.3379  0.4780
 7127TIP3   OH243015   4.635   4.779   8.118 -0.0275  0.0202  0.1608
 7127TIP3    H143016   4.643   4.836   8.041 -2.8443 -0.2534 -0.4308
 7127TIP3    H243017   4.583   4.705   8.088 -1.3992 -0.0061  2.3404
 7128TIP3   OH243018   5.998   2.624   1.709  0.1151 -0.5177 -0.4934
 7128TIP3    H143019   6.040   2.676   1.778 -0.4413 -1.5421  0.6574
 7128TIP3    H243020   5.981   2.687   1.639  0.3372  0.6416  0.4515
 7129TIP3   OH243021   4.510   2.722   0.517  0.5043  0.2498  0.0405
 7129TIP3    H143022   4.441   2.782   0.545  1.4403  1.1029  0.5753
 7129TIP3    H243023   4.529   2.749   0.427 -1.3566 -1.4241 -0.9265
 7130TIP3   OH243024   1.262   3.108   7.030 -1.1525 -0.2879 -0.1981
 7130TIP3    H143025   1.278   3.049   6.956 -2.0148  0.5190 -1.0761
 7130TIP3    H243026   1.274   3.196   6.993 -0.6326  0.1068  0.8849
 7131TIP3   OH243027   4.457   4.263   1.193 -0.1737 -0.0609 -0.6007
 7131TIP3    H143028   4.380   4.312   1.163  0.4509  0.5924 -1.1581
 7131TIP3    H243029   4.518   4.330   1.224  0.5168 -0.5035 -0.9754
 7132TIP3   OH243030   0.332   6.626   7.596 -0.7169 -0.2596  0.0713
 7132TIP3    H143031   0.384   6.557   7.638  3.1717  1.0197 -2.1534
 7132TIP3    H243032   0.339   6.701   7.655 -0.9444 -0.3632  0.2350
 7133TIP3   OH243033   5.655   6.211   7.113 -0.0331 -0.8938  0.0198
 7133TIP3    H143034   5.674   6.135   7.168  1.6785  0.1686  0.9969
 7133TIP3    H243035   5.560   6.213   7.107 -0.1811 -2.1510  1.3443
 7134TIP3   OH243036   1.532   1.414   8.530  0.0516  0.1786  0.2092
 7134TIP3    H143037   1.449   1.455   8.555  0.1466 -0.2523  1.3128
 7134TIP3    H243038   1.565   1.467   8.458 -1.6216 -0.1834 -0.8825
 7135TIP3   OH243039   1.459   6.375   0.665  0.4626 -0.4799 -0.9708
 7135TIP3    H143040   1.507   6.299   0.698 -0.5859 -0.4627  0.6921
 7135TIP3    H243041   1.379   6.338   0.629 -0.3973 -0.1539  0.5185
 7136TIP3   OH243042   6.172   6.096   8.287  0.2742 -0.2898  0.0031
 7136TIP3    H143043   6.112   6.038   8.334 -1.8192  2.1745  0.5887
 7136TIP3    H243044   6.173   6.176   8.339  4.4138 -0.2343  0.1955
 7137TIP3   OH243045   2.710   2.762   8.856 -0.0242  0.4294  0.0746
 7137TIP3    H143046   2.683   2.680   8.815  1.1670  0.7341 -1.3906
 7137TIP3    H243047   2.749   2.735   8.939  1.5046 -0.6529 -0.9431
 7138TIP3   OH243048   5.674   1.432   1.065  0.2200 -0.2460  0.5854
 7138TIP3    H143049   5.707   1.515   1.032  1.2933 -0.2118  1.6816
 7138TIP3    H243050   5.645   1.385   0.987  1.6186  0.2935 -0.2944
 7139TIP3   OH243051   3.017   4.494   8.591  0.3308 -0.0460 -0.3218
 7139TIP3    H143052   3.026   4.401   8.613 -0.5458 -0.1682 -0.4184
 7139TIP3    H243053   2.955   4.528   8.656 -0.2219  0.2031 -0.9650
 7140TIP3   OH243054   5.685   4.411   1.781 -0.3531  0.5306 -0.2814
 7140TIP3    H143055   5.598   4.375   1.797 -0.2076  0.0680 -0.5268
 7140TIP3    H243056   5.677   4.504   1.802 -1.7823  1.2535 -3.4742
 7141TIP3   OH243057   0.896   5.195   1.406 -0.5250 -0.7704 -0.1280
 7141TIP3    H143058   0.823   5.146   1.367 -0.3102 -0.7858 -0.5127
 7141TIP3    H243059   0.933   5.135   1.470 -1.0902 -0.6229  0.3544
 7142TIP3   OH243060   4.696   5.693   1.133  0.7994  0.3150 -0.1508
 7142TIP3    H143061   4.762   5.698   1.203  0.3624  1.5151  0.2028
 7142TIP3    H243062   4.747   5.686   1.052  1.3146 -0.7425  0.2493
 7143TIP3   OH243063   3.202   5.545   0.013  0.0768  0.3571 -0.1135
 7143TIP3    H143064   3.151   5.507   0.084  0.9009  0.1086  0.3690
 7143TIP3    H243065   3.147   5.535  -0.064 -0.2716 -0.6535  0.2387
 7144TIP3   OH243066   3.397   4.935   7.294 -0.8899 -0.3897  0.1989
 7144TIP3    H143067   3.468   4.921   7.356 -1.1856  0.3493  0.7113
 7144TIP3    H243068   3.320   4.895   7.335 -0.8550 -0.8663 -0.1897
 7145TIP3   OH243069   2.045   0.111   0.068 -0.1510 -1.0565  0.1327
 7145TIP3    H143070   2.105   0.165   0.119  1.7504 -1.4777 -1.5538
 7145TIP3    H243071   2.085   0.024   0.069 -1.7439 -1.8173  0.5145
 7146TIP3   OH243072   3.894   2.938   0.699 -0.1198 -0.4332 -0.7843
 7146TIP3    H143073   3.808   2.947   0.658  0.3871  1.9551 -1.5142
 7146TIP3    H243074   3.880   2.963   0.790 -0.3975 -1.2683 -0.5863
 7147TIP3   OH243075   2.499   4.144   0.607 -0.4027 -0.3526 -0.2335
 7147TIP3    H143076   2.496   4.107   0.518 -1.6330  0.2762 -0.4736
 7147TIP3    H243077   2.578   4.198   0.607 -0.1342 -0.7230 -0.7857
 7148TIP3   OH243078   5.377   2.327   8.529  0.1282 -0.0970 -0.1423
 7148TIP3    H143079   5.401   2.359   8.442 -1.4437 -0.6027 -0.8109
 7148TIP3    H243080   5.365   2.406   8.581 -0.8953  0.3276 -0.9759
 7149TIP3   OH243081   0.661   4.855   2.189 -0.3434 -0.4112  0.7613
 7149TIP3    H143082   0.712   4.785   2.148 -1.0989  0.1619 -1.2675
 7149TIP3    H243083   0.727   4.915   2.225  0.3338 -1.0260  0.5711
 7150TIP3   OH243084   3.196   3.358   0.155  0.3335 -0.5462 -0.5621
 7150TIP3    H143085   3.215   3.384   0.065  0.6672 -0.1543 -0.3860
 7150TIP3    H243086   3.282   3.349   0.196  0.1726  0.0892 -0.0637
 7151TIP3   OH243087   2.184   3.950   1.126 -0.4510  0.2086  0.1915
 7151TIP3    H143088   2.212   3.911   1.043  0.9487  0.8361  0.3406
 7151TIP3    H243089   2.252   3.924   1.188  0.0685  2.1344  0.4781
 7152TIP3   OH243090   0.124   0.269   0.034 -0.1321 -0.0058 -1.1533
 7152TIP3    H143091   0.200   0.313   0.073 -1.0202  1.8693 -1.4235
 7152TIP3    H243092   0.097   0.205   0.100  1.5669 -0.6054 -0.9902
 7153TIP3   OH243093   0.201   0.081   8.024  0.4550  0.0996  0.4978
 7153TIP3    H143094   0.153   0.042   8.097  0.9369 -1.8833 -0.1777
 7153TIP3    H243095   0.135   0.133   7.977  0.0029  0.9001  1.9552
 7154TIP3   OH243096   6.185   1.767   8.710 -0.1583  0.7840  0.3769
 7154TIP3    H143097   6.266   1.813   8.732 -0.5569  0.6323  2.3783
 7154TIP3    H243098   6.137   1.829   8.655  0.9795  1.1684 -0.2323
 7155TIP3   OH243099   5.219   1.711   7.107  0.0786  0.6456  0.0428
 7155TIP3    H143100   5.250   1.800   7.123 -0.2497  0.5684  1.1464
 7155TIP3    H243101   5.182   1.682   7.190 -2.2660  0.4279 -1.0177
 7156TIP3   OH243102   0.092   4.729   0.679 -0.1288 -0.1179 -0.3988
 7156TIP3    H143103   0.029   4.656   0.682  1.2860 -1.3791  2.0294
 7156TIP3    H243104   0.174   4.691   0.710  1.3799  1.9402 -1.6208
 7157TIP3   OH243105   0.693   3.914   8.585 -0.2633  0.2172  0.3931
 7157TIP3    H143106   0.696   3.979   8.515 -0.8408 -0.5424 -0.3556
 7157TIP3    H243107   0.635   3.846   8.552 -0.8776  0.0309  1.7815
 7158TIP3   OH243108   2.148   4.398   8.098 -0.3798  0.9533  0.8327
 7158TIP3    H143109   2.069   4.451   8.107 -0.4343  1.1391 -0.5566
 7158TIP3    H243110   2.120   4.320   8.050  0.4982  1.6327 -0.8881
 7159TIP3   OH243111   4.417   4.452   1.573 -0.2302  0.4990  0.1533
 7159TIP3    H143112   4.406   4.397   1.651  1.9193 -0.7169 -0.3151
 7159TIP3    H243113   4.511   4.468   1.568 -0.3423  0.7942 -2.0149
 7160TIP3   OH243114   1.199   4.446   1.509  0.1773 -0.3662 -0.3923
 7160TIP3    H143115   1.201   4.542   1.504 -0.8995  0.0015  3.0551
 7160TIP3    H243116   1.286   4.422   1.541  0.4801 -0.5571 -1.3538
 7161TIP3   OH243117   4.927   0.017   1.448 -0.8079  0.3494  0.7479
 7161TIP3    H143118   4.882   0.026   1.364 -0.5391 -1.6614  0.3487
 7161TIP3    H243119   4.945   0.107   1.475  0.4043  1.0502 -2.0643
 7162TIP3   OH243120   0.731   4.395   7.554 -0.9110 -0.1136  0.0432
 7162TIP3    H143121   0.823   4.418   7.542 -0.5987 -1.8973 -1.3021
 7162TIP3    H243122   0.729   4.345   7.636 -0.8526  0.5987  0.4976
 7163TIP3   OH243123   1.757   1.972   8.139  0.5499 -0.2548 -0.4020
 7163TIP3    H143124   1.839   1.951   8.185  0.0580 -1.3185  0.0313
 7163TIP3    H243125   1.717   1.887   8.122 -0.8328  0.2767  0.0837
 7164TIP3   OH243126   5.419   2.070   7.644 -0.2902 -0.1331 -0.2187
 7164TIP3    H143127   5.474   1.994   7.659 -0.7157 -0.3894  0.0699
 7164TIP3    H243128   5.441   2.100   7.556 -0.5707 -0.9599 -0.5767
 7165TIP3   OH243129   5.040   3.579   7.933 -0.2438  0.3189 -0.0687
 7165TIP3    H143130   4.952   3.563   7.898 -0.8105  1.1735  0.8946
 7165TIP3    H243131   5.041   3.530   8.015 -1.5138  3.7835  2.2352
 7166TIP3   OH243132   2.299   1.726   1.127 -0.3086 -0.0033  0.3952
 7166TIP3    H143133   2.342   1.666   1.065 -1.8397  0.4917 -1.2107
 7166TIP3    H243134   2.263   1.668   1.195 -1.1037 -0.8644 -0.7217
 7167TIP3   OH243135   3.338   0.833   0.815  0.5407  0.8328  1.1860
 7167TIP3    H143136   3.291   0.900   0.865  0.7587  1.5847  0.3951
 7167TIP3    H243137   3.305   0.750   0.851 -0.4641  1.3471  1.5024
 7168TIP3   OH243138   3.310   2.245   1.925 -0.3898 -0.4463 -0.2789
 7168TIP3    H143139   3.266   2.314   1.974 -1.2839 -1.8682  0.9981
 7168TIP3    H243140   3.393   2.285   1.898 -0.1583  0.6388  1.8095
 7169TIP3   OH243141   0.403   5.789   7.414  0.1131  0.2087 -0.2014
 7169TIP3    H143142   0.421   5.705   7.456  3.4753  1.2315  0.6907
 7169TIP3    H243143   0.332   5.827   7.466  0.4372 -0.9228  1.1254
 7170TIP3   OH243144   1.899   5.525   6.770 -0.6827  0.5477  0.0107
 7170TIP3    H143145   1.922   5.518   6.677 -0.9143  2.3305 -0.2057
 7170TIP3    H243146   1.819   5.473   6.778  1.2799 -2.7927  0.0537
 7171LIG     C143147   4.204   3.700   7.887 -0.6339 -0.1196 -0.3669
 7171LIG     N143148   4.092   3.623   7.928  0.4049  0.2956 -0.3818
 7171LIG     C243149   4.093   3.492   7.969  0.0168  0.0820 -0.0551
 7171LIG     N243150   3.966   3.453   8.001  0.1532 -0.0165 -0.0855
 7171LIG     C343151   3.884   3.559   7.988  0.1156  0.5795 -0.5574
 7171LIG     C443152   3.962   3.667   7.948 -0.0495 -0.3305 -0.7989
 7171LIG     C543153   3.903   3.792   7.932  0.1549  0.6854 -0.4820
 7171LIG     O143154   3.958   3.897   7.906  0.1017 -0.3780 -0.6298
 7171LIG     N343155   3.761   3.799   7.958  0.1258 -0.4718 -0.0662
 7171LIG     C643156   3.683   3.688   8.000 -0.4024 -0.0908  0.0145
 7171LIG     O243157   3.562   3.695   8.011  0.1790 -0.4600  0.0590
 7171LIG     N443158   3.748   3.567   8.022  0.0946 -0.7900  0.0228
 7171LIG     C743159   3.667   3.451   8.062  0.1911  0.2223 -0.3638
 7171LIG     C843160   3.687   3.926   7.945 -0.5403  0.1448  0.1719
 7171LIG     H143161   4.240   3.756   7.976  1.6694  0.2688 -1.4600
 7171LIG     H243162   4.185   3.767   7.800  0.4804  3.2223  1.7581
 7171LIG     H343163   4.290   3.631   7.873 -0.7837 -0.5468  0.7315
 7171LIG     H443164   4.181   3.429   7.958 -1.6064 -2.4566  0.5950
 7171LIG     H543165   3.594   3.488   8.137 -0.3261  3.4074 -2.2205
 7171LIG     H643166   3.722   3.372   8.116 -0.8916 -0.3913 -0.1218
 7171LIG     H743167   3.608   3.407   7.979  1.7380 -1.5907 -0.5425
 7171LIG     H843168   3.602   3.907   7.876  2.2479 -2.6510 -2.8512
 7171LIG     H943169   3.748   3.999   7.887  1.7593 -0.1673  2.0211
 7171LIG    H1043170   3.663   3.976   8.041  1.5701  2.2924 -0.3143
   6.82081   6.82081   8.88311
